<event>
 4    1  0.1187342E-002  0.4018275E+03  0.7818608E-02  0.1043149E+00
         21   -1    0    0  501  502  0.00000000000E+00  0.00000000000E+00  0.26451314296E+03  0.26451314296E+03  0.00000000000E+00 0. -1.
         21   -1    0    0  502  503 -0.00000000000E+00 -0.00000000000E+00 -0.61044271306E+03  0.61044271306E+03  0.00000000000E+00 0. -1.
    9000007    1    1    2  501    0 -0.23505787634E+02 -0.30212234587E+02 -0.17057472341E+03  0.43653297406E+03  0.40000000000E+03 0. -1.
   -9000007    1    1    2    0  503  0.23505787634E+02  0.30212234587E+02 -0.17535484669E+03  0.43842288196E+03  0.40000000000E+03 0. -1.
<mgrwt>
<rscale>  2 0.40182745E+03</rscale>
<asrwt>0</asrwt>
<pdfrwt beam="1">  1       21 0.40694330E-01 0.40182745E+03</pdfrwt>
<pdfrwt beam="2">  1       21 0.93914262E-01 0.40182745E+03</pdfrwt>
<totfact> 0.49450671E+03</totfact>
</mgrwt>
</event>
<event>
 4    1  0.1187342E-002  0.5076068E+03  0.7818608E-02  0.1011812E+00
         21   -1    0    0  503  502  0.00000000000E+00  0.00000000000E+00  0.42063043194E+03  0.42063043194E+03  0.00000000000E+00 0.  1.
         21   -1    0    0  501  503 -0.00000000000E+00 -0.00000000000E+00 -0.61529117187E+03  0.61529117187E+03  0.00000000000E+00 0.  1.
    9000007    1    1    2  501    0 -0.26603738620E+03  0.16397788438E+03 -0.13179026773E+03  0.52443618496E+03  0.40000000000E+03 0.  1.
   -9000007    1    1    2    0  502  0.26603738620E+03 -0.16397788438E+03 -0.62870472199E+02  0.51148541885E+03  0.40000000000E+03 0.  1.
<mgrwt>
<rscale>  2 0.50760677E+03</rscale>
<asrwt>0</asrwt>
<pdfrwt beam="1">  1       21 0.64712374E-01 0.50760677E+03</pdfrwt>
<pdfrwt beam="2">  1       21 0.94660181E-01 0.50760677E+03</pdfrwt>
<totfact> 0.17330189E+03</totfact>
</mgrwt>
</event>
<event>
 4    1  0.1187342E-002  0.4070291E+03  0.7818608E-02  0.1041373E+00
         21   -1    0    0  501  502  0.00000000000E+00  0.00000000000E+00  0.69954836401E+03  0.69954836401E+03  0.00000000000E+00 0.  1.
         21   -1    0    0  502  503 -0.00000000000E+00 -0.00000000000E+00 -0.26084263285E+03  0.26084263285E+03  0.00000000000E+00 0.  1.
    9000007    1    1    2  501    0  0.39734213987E+02  0.63983652306E+02  0.36505496034E+03  0.54675208239E+03  0.40000000000E+03 0.  1.
   -9000007    1    1    2    0  503 -0.39734213987E+02 -0.63983652306E+02  0.73650770814E+02  0.41363891447E+03  0.40000000000E+03 0.  1.
<mgrwt>
<rscale>  2 0.40702913E+03</rscale>
<asrwt>0</asrwt>
<pdfrwt beam="1">  1       21 0.10762282E+00 0.40702913E+03</pdfrwt>
<pdfrwt beam="2">  1       21 0.40129636E-01 0.40702913E+03</pdfrwt>
<totfact> 0.36493542E+03</totfact>
</mgrwt>
</event>
<event>
 4    1  0.1187342E-002  0.4388548E+03  0.7818608E-02  0.1031099E+00
         21   -1    0    0  503  502  0.00000000000E+00  0.00000000000E+00  0.18918081147E+04  0.18918081147E+04  0.00000000000E+00 0.  1.
         21   -1    0    0  501  503 -0.00000000000E+00 -0.00000000000E+00 -0.10291209092E+03  0.10291209092E+03  0.00000000000E+00 0.  1.
    9000007    1    1    2  501    0  0.18011491139E+03  0.12333630586E+02  0.79095278460E+03  0.90454397749E+03  0.40000000000E+03 0.  1.
   -9000007    1    1    2    0  502 -0.18011491139E+03 -0.12333630586E+02  0.99794323919E+03  0.10901762281E+04  0.40000000000E+03 0.  1.
<mgrwt>
<rscale>  2 0.43885476E+03</rscale>
<asrwt>0</asrwt>
<pdfrwt beam="1">  1       21 0.29104738E+00 0.43885476E+03</pdfrwt>
<pdfrwt beam="2">  1       21 0.15832631E-01 0.43885476E+03</pdfrwt>
<totfact> 0.11153124E+03</totfact>
</mgrwt>
</event>
<event>
 4    1  0.1187342E-002  0.4391822E+03  0.7818608E-02  0.1030998E+00
         21   -1    0    0  503  502  0.00000000000E+00  0.00000000000E+00  0.56559373845E+03  0.56559373845E+03  0.00000000000E+00 0.  1.
         21   -1    0    0  501  503 -0.00000000000E+00 -0.00000000000E+00 -0.35462602160E+03  0.35462602160E+03  0.00000000000E+00 0.  1.
    9000007    1    1    2  501    0  0.68296327331E+02  0.16797804357E+03  0.19559505747E+03  0.48076859086E+03  0.40000000000E+03 0.  1.
   -9000007    1    1    2    0  502 -0.68296327331E+02 -0.16797804357E+03  0.15372659375E+02  0.43945116919E+03  0.40000000000E+03 0.  1.
<mgrwt>
<rscale>  2 0.43918221E+03</rscale>
<asrwt>0</asrwt>
<pdfrwt beam="1">  1       21 0.87014421E-01 0.43918221E+03</pdfrwt>
<pdfrwt beam="2">  1       21 0.54557850E-01 0.43918221E+03</pdfrwt>
<totfact> 0.31511887E+03</totfact>
</mgrwt>
</event>
<event>
 4    1  0.1187342E-002  0.4366545E+03  0.7818608E-02  0.1031778E+00
         21   -1    0    0  503  502  0.00000000000E+00  0.00000000000E+00  0.58209012171E+03  0.58209012171E+03  0.00000000000E+00 0.  1.
         21   -1    0    0  501  503 -0.00000000000E+00 -0.00000000000E+00 -0.33180765545E+03  0.33180765545E+03  0.00000000000E+00 0.  1.
    9000007    1    1    2  501    0  0.14945051849E+03  0.91278012734E+02  0.73416102333E+02  0.44278330724E+03  0.40000000000E+03 0.  1.
   -9000007    1    1    2    0  502 -0.14945051849E+03 -0.91278012734E+02  0.17686636393E+03  0.47111446993E+03  0.40000000000E+03 0.  1.
<mgrwt>
<rscale>  2 0.43665448E+03</rscale>
<asrwt>0</asrwt>
<pdfrwt beam="1">  1       21 0.89552327E-01 0.43665448E+03</pdfrwt>
<pdfrwt beam="2">  1       21 0.51047331E-01 0.43665448E+03</pdfrwt>
<totfact> 0.33990275E+03</totfact>
</mgrwt>
</event>
<event>
 4    1  0.1187342E-002  0.4422863E+03  0.7818608E-02  0.1030048E+00
         21   -1    0    0  501  502  0.00000000000E+00  0.00000000000E+00  0.13635992014E+03  0.13635992014E+03  0.00000000000E+00 0.  1.
         21   -1    0    0  502  503 -0.00000000000E+00 -0.00000000000E+00 -0.14478789735E+04  0.14478789735E+04  0.00000000000E+00 0.  1.
    9000007    1    1    2  501    0  0.11011228231E+03 -0.15327247647E+03 -0.73171842171E+03  0.85500234820E+03  0.40000000000E+03 0.  1.
   -9000007    1    1    2    0  503 -0.11011228231E+03  0.15327247647E+03 -0.57980063169E+03  0.72923654548E+03  0.40000000000E+03 0.  1.
<mgrwt>
<rscale>  2 0.44228630E+03</rscale>
<asrwt>0</asrwt>
<pdfrwt beam="1">  1       21 0.20978450E-01 0.44228630E+03</pdfrwt>
<pdfrwt beam="2">  1       21 0.22275061E+00 0.44228630E+03</pdfrwt>
<totfact> 0.17162197E+03</totfact>
</mgrwt>
</event>
<event>
 4    1  0.1187342E-002  0.4066079E+03  0.7818608E-02  0.1041515E+00
         21   -1    0    0  503  502  0.00000000000E+00  0.00000000000E+00  0.34749637844E+03  0.34749637844E+03  0.00000000000E+00 0.  1.
         21   -1    0    0  501  503 -0.00000000000E+00 -0.00000000000E+00 -0.47577661606E+03  0.47577661606E+03  0.00000000000E+00 0.  1.
    9000007    1    1    2  501    0 -0.34955848957E+02  0.64094279241E+02 -0.63315789467E+02  0.41150805242E+03  0.40000000000E+03 0.  1.
   -9000007    1    1    2    0  502  0.34955848957E+02 -0.64094279241E+02 -0.64964448146E+02  0.41176494209E+03  0.40000000000E+03 0.  1.
<mgrwt>
<rscale>  2 0.40660790E+03</rscale>
<asrwt>0</asrwt>
<pdfrwt beam="1">  1       21 0.53460981E-01 0.40660790E+03</pdfrwt>
<pdfrwt beam="2">  1       21 0.73196403E-01 0.40660790E+03</pdfrwt>
<totfact> 0.49632750E+03</totfact>
</mgrwt>
</event>
<event>
 4    1  0.1187342E-002  0.5512136E+03  0.7818608E-02  0.1001213E+00
         21   -1    0    0  501  502  0.00000000000E+00  0.00000000000E+00  0.69570422067E+03  0.69570422067E+03  0.00000000000E+00 0. -1.
         21   -1    0    0  502  503 -0.00000000000E+00 -0.00000000000E+00 -0.43852139339E+03  0.43852139339E+03  0.00000000000E+00 0. -1.
    9000007    1    1    2  501    0 -0.69562861830E+02  0.37282365298E+03  0.92367370175E+02  0.55889909558E+03  0.40000000000E+03 0. -1.
   -9000007    1    1    2    0  503  0.69562861830E+02 -0.37282365298E+03  0.16481545710E+03  0.57532651848E+03  0.40000000000E+03 0. -1.
<mgrwt>
<rscale>  2 0.55121363E+03</rscale>
<asrwt>0</asrwt>
<pdfrwt beam="1">  1       21 0.10703142E+00 0.55121363E+03</pdfrwt>
<pdfrwt beam="2">  1       21 0.67464830E-01 0.55121363E+03</pdfrwt>
<totfact> 0.11525965E+03</totfact>
</mgrwt>
</event>
<event>
 4    1  0.1187342E-002  0.4714912E+03  0.7818608E-02  0.1021500E+00
         21   -1    0    0  503  502  0.00000000000E+00  0.00000000000E+00  0.82439647998E+03  0.82439647998E+03  0.00000000000E+00 0.  1.
         21   -1    0    0  501  503 -0.00000000000E+00 -0.00000000000E+00 -0.34972304819E+03  0.34972304819E+03  0.00000000000E+00 0. -1.
    9000007    1    1    2  501    0 -0.24330366485E+03 -0.55742869113E+02 -0.43559252653E+02  0.47349904887E+03  0.40000000000E+03 0. -1.
   -9000007    1    1    2    0  502  0.24330366485E+03  0.55742869113E+02  0.51823268444E+03  0.70062047930E+03  0.40000000000E+03 0.  1.
<mgrwt>
<rscale>  2 0.47149119E+03</rscale>
<asrwt>0</asrwt>
<pdfrwt beam="1">  1       21 0.12683023E+00 0.47149119E+03</pdfrwt>
<pdfrwt beam="2">  1       21 0.53803546E-01 0.47149119E+03</pdfrwt>
<totfact> 0.12698121E+03</totfact>
</mgrwt>
</event>
<event>
 4    1  0.1187342E-002  0.4455384E+03  0.7818608E-02  0.1029061E+00
         21   -1    0    0  501  502  0.00000000000E+00  0.00000000000E+00  0.37597239321E+03  0.37597239321E+03  0.00000000000E+00 0.  1.
         21   -1    0    0  502  503 -0.00000000000E+00 -0.00000000000E+00 -0.63044047089E+03  0.63044047089E+03  0.00000000000E+00 0. -1.
    9000007    1    1    2  501    0 -0.47229759688E+02 -0.19045690253E+03  0.75632459059E+02  0.45191232644E+03  0.40000000000E+03 0.  1.
   -9000007    1    1    2    0  503  0.47229759688E+02  0.19045690253E+03 -0.33010053674E+03  0.55450053767E+03  0.40000000000E+03 0. -1.
<mgrwt>
<rscale>  2 0.44553842E+03</rscale>
<asrwt>0</asrwt>
<pdfrwt beam="1">  1       21 0.57841908E-01 0.44553842E+03</pdfrwt>
<pdfrwt beam="2">  1       21 0.96990840E-01 0.44553842E+03</pdfrwt>
<totfact> 0.21397794E+03</totfact>
</mgrwt>
</event>
<event>
 4    1  0.1187342E-002  0.4868801E+03  0.7818608E-02  0.1017261E+00
         21   -1    0    0  503  502  0.00000000000E+00  0.00000000000E+00  0.16004184746E+04  0.16004184746E+04  0.00000000000E+00 0. -1.
         21   -1    0    0  501  503 -0.00000000000E+00 -0.00000000000E+00 -0.20953852080E+03  0.20953852080E+03  0.00000000000E+00 0. -1.
    9000007    1    1    2  501    0  0.22968436980E+03 -0.15587606018E+03  0.20548088776E+03  0.52846442747E+03  0.40000000000E+03 0. -1.
   -9000007    1    1    2    0  502 -0.22968436980E+03  0.15587606018E+03  0.11853990660E+04  0.12814925679E+04  0.40000000000E+03 0. -1.
<mgrwt>
<rscale>  2 0.48688012E+03</rscale>
<asrwt>0</asrwt>
<pdfrwt beam="1">  1       21 0.24621822E+00 0.48688012E+03</pdfrwt>
<pdfrwt beam="2">  1       21 0.32236696E-01 0.48688012E+03</pdfrwt>
<totfact> 0.51668218E+02</totfact>
</mgrwt>
</event>
<event>
 4    1  0.1187342E-002  0.4283432E+03  0.7818608E-02  0.1034385E+00
         21   -1    0    0  501  502  0.00000000000E+00  0.00000000000E+00  0.16525121440E+03  0.16525121440E+03  0.00000000000E+00 0. -1.
         21   -1    0    0  502  503 -0.00000000000E+00 -0.00000000000E+00 -0.11456167745E+04  0.11456167745E+04  0.00000000000E+00 0. -1.
    9000007    1    1    2  501    0  0.14531995860E+03 -0.48579792099E+02 -0.37509750288E+03  0.56936457848E+03  0.40000000000E+03 0. -1.
   -9000007    1    1    2    0  503 -0.14531995860E+03  0.48579792099E+02 -0.60526805727E+03  0.74150341046E+03  0.40000000000E+03 0. -1.
<mgrwt>
<rscale>  2 0.42834319E+03</rscale>
<asrwt>0</asrwt>
<pdfrwt beam="1">  1       21 0.25423263E-01 0.42834319E+03</pdfrwt>
<pdfrwt beam="2">  1       21 0.17624874E+00 0.42834319E+03</pdfrwt>
<totfact> 0.24402410E+03</totfact>
</mgrwt>
</event>
<event>
 4    1  0.1187342E-002  0.4380763E+03  0.7818608E-02  0.1031339E+00
         21   -1    0    0  503  502  0.00000000000E+00  0.00000000000E+00  0.51225058133E+03  0.51225058133E+03  0.00000000000E+00 0. -1.
         21   -1    0    0  501  503 -0.00000000000E+00 -0.00000000000E+00 -0.41224154007E+03  0.41224154007E+03  0.00000000000E+00 0. -1.
    9000007    1    1    2  501    0 -0.47370738312E+02  0.17224072248E+03  0.18960456402E+03  0.47734761341E+03  0.40000000000E+03 0. -1.
   -9000007    1    1    2    0  502  0.47370738312E+02 -0.17224072248E+03 -0.89595522765E+02  0.44714450799E+03  0.40000000000E+03 0. -1.
<mgrwt>
<rscale>  2 0.43807631E+03</rscale>
<asrwt>0</asrwt>
<pdfrwt beam="1">  1       21 0.78807782E-01 0.43807631E+03</pdfrwt>
<pdfrwt beam="2">  1       21 0.63421775E-01 0.43807631E+03</pdfrwt>
<totfact> 0.28574466E+03</totfact>
</mgrwt>
</event>
<event>
 4    1  0.1187342E-002  0.4667195E+03  0.7818608E-02  0.1022850E+00
         21   -1    0    0  501  502  0.00000000000E+00  0.00000000000E+00  0.38352443910E+03  0.38352443910E+03  0.00000000000E+00 0.  1.
         21   -1    0    0  502  503 -0.00000000000E+00 -0.00000000000E+00 -0.58463402609E+03  0.58463402609E+03  0.00000000000E+00 0.  1.
    9000007    1    1    2  501    0  0.13741511328E+03 -0.19734290940E+03 -0.18807312463E+02  0.46709833253E+03  0.40000000000E+03 0.  1.
   -9000007    1    1    2    0  503 -0.13741511328E+03  0.19734290940E+03 -0.18230227452E+03  0.50106013266E+03  0.40000000000E+03 0.  1.
<mgrwt>
<rscale>  2 0.46671955E+03</rscale>
<asrwt>0</asrwt>
<pdfrwt beam="1">  1       21 0.59003760E-01 0.46671955E+03</pdfrwt>
<pdfrwt beam="2">  1       21 0.89943695E-01 0.46671955E+03</pdfrwt>
<totfact> 0.24345087E+03</totfact>
</mgrwt>
</event>
<event>
 4    1  0.1187342E-002  0.4263218E+03  0.7818608E-02  0.1035028E+00
         21   -1    0    0  503  502  0.00000000000E+00  0.00000000000E+00  0.91051235649E+03  0.91051235649E+03  0.00000000000E+00 0.  1.
         21   -1    0    0  501  503 -0.00000000000E+00 -0.00000000000E+00 -0.23577421330E+03  0.23577421330E+03  0.00000000000E+00 0.  1.
    9000007    1    1    2  501    0  0.14404160893E+03  0.31658470002E+02  0.11291079480E+03  0.44102051132E+03  0.40000000000E+03 0.  1.
   -9000007    1    1    2    0  502 -0.14404160893E+03 -0.31658470002E+02  0.56182734839E+03  0.70526605847E+03  0.40000000000E+03 0.  1.
<mgrwt>
<rscale>  2 0.42632176E+03</rscale>
<asrwt>0</asrwt>
<pdfrwt beam="1">  1       21 0.14007882E+00 0.42632176E+03</pdfrwt>
<pdfrwt beam="2">  1       21 0.36272956E-01 0.42632176E+03</pdfrwt>
<totfact> 0.22728987E+03</totfact>
</mgrwt>
</event>
<event>
 4    1  0.1187342E-002  0.4618979E+03  0.7818608E-02  0.1024232E+00
         21   -1    0    0  503  502  0.00000000000E+00  0.00000000000E+00  0.86515944581E+03  0.86515944581E+03  0.00000000000E+00 0.  1.
         21   -1    0    0  501  503 -0.00000000000E+00 -0.00000000000E+00 -0.44788033953E+03  0.44788033953E+03  0.00000000000E+00 0.  1.
    9000007    1    1    2  501    0  0.17000427655E+03 -0.15635927775E+03 -0.23147514713E+03  0.51665309592E+03  0.40000000000E+03 0.  1.
   -9000007    1    1    2    0  502 -0.17000427655E+03  0.15635927775E+03  0.64875425341E+03  0.79638668943E+03  0.40000000000E+03 0.  1.
<mgrwt>
<rscale>  2 0.46189791E+03</rscale>
<asrwt>0</asrwt>
<pdfrwt beam="1">  1       21 0.13310145E+00 0.46189791E+03</pdfrwt>
<pdfrwt beam="2">  1       21 0.68904668E-01 0.46189791E+03</pdfrwt>
<totfact> 0.65273521E+02</totfact>
</mgrwt>
</event>
<event>
 4    1  0.1187342E-002  0.6626896E+03  0.7818608E-02  0.9783255E-01
         21   -1    0    0  501  502  0.00000000000E+00  0.00000000000E+00  0.15056566380E+04  0.15056566380E+04  0.00000000000E+00 0. -1.
         21   -1    0    0  502  503 -0.00000000000E+00 -0.00000000000E+00 -0.33330747256E+03  0.33330747256E+03  0.00000000000E+00 0. -1.
    9000007    1    1    2  501    0  0.20855111960E+03  0.48545232520E+03  0.91115239141E+03  0.11266570951E+04  0.40000000000E+03 0. -1.
   -9000007    1    1    2    0  503 -0.20855111960E+03 -0.48545232520E+03  0.26119677404E+03  0.71230701548E+03  0.40000000000E+03 0. -1.
<mgrwt>
<rscale>  2 0.66268962E+03</rscale>
<asrwt>0</asrwt>
<pdfrwt beam="1">  1       21 0.23163948E+00 0.66268962E+03</pdfrwt>
<pdfrwt beam="2">  1       21 0.51278074E-01 0.66268962E+03</pdfrwt>
<totfact> 0.22626706E+02</totfact>
</mgrwt>
</event>
<event>
 4    1  0.1187342E-002  0.5384623E+03  0.7818608E-02  0.1004200E+00
         21   -1    0    0  503  502  0.00000000000E+00  0.00000000000E+00  0.28279426813E+03  0.28279426813E+03  0.00000000000E+00 0.  1.
         21   -1    0    0  501  503 -0.00000000000E+00 -0.00000000000E+00 -0.10686165244E+04  0.10686165244E+04  0.00000000000E+00 0. -1.
    9000007    1    1    2  501    0  0.27356231446E+03 -0.23474510945E+03 -0.52899404805E+03  0.75483528612E+03  0.40000000000E+03 0.  1.
   -9000007    1    1    2    0  502 -0.27356231446E+03  0.23474510945E+03 -0.25682820820E+03  0.59657550640E+03  0.40000000000E+03 0. -1.
<mgrwt>
<rscale>  2 0.53846226E+03</rscale>
<asrwt>0</asrwt>
<pdfrwt beam="1">  1       21 0.43506811E-01 0.53846226E+03</pdfrwt>
<pdfrwt beam="2">  1       21 0.16440254E+00 0.53846226E+03</pdfrwt>
<totfact> 0.96548534E+02</totfact>
</mgrwt>
</event>
<event>
 4    1  0.1187342E-002  0.6953070E+03  0.7818608E-02  0.9725292E-01
         21   -1    0    0  501  502  0.00000000000E+00  0.00000000000E+00  0.90172551612E+03  0.90172551612E+03  0.00000000000E+00 0.  1.
         21   -1    0    0  502  503 -0.00000000000E+00 -0.00000000000E+00 -0.55551764207E+03  0.55551764207E+03  0.00000000000E+00 0. -1.
    9000007    1    1    2  501    0  0.17961294286E+03 -0.53962117005E+03  0.30918412148E+03  0.76095113995E+03  0.40000000000E+03 0.  1.
   -9000007    1    1    2    0  503 -0.17961294286E+03  0.53962117005E+03  0.37023752562E+02  0.69629201824E+03  0.40000000000E+03 0. -1.
<mgrwt>
<rscale>  2 0.69530699E+03</rscale>
<asrwt>0</asrwt>
<pdfrwt beam="1">  1       21 0.13872700E+00 0.69530699E+03</pdfrwt>
<pdfrwt beam="2">  1       21 0.85464253E-01 0.69530699E+03</pdfrwt>
<totfact> 0.32764637E+02</totfact>
</mgrwt>
</event>
<event>
 4    1  0.1187342E-002  0.6373116E+03  0.7818608E-02  0.9830884E-01
         21   -1    0    0  501  502  0.00000000000E+00  0.00000000000E+00  0.84508693806E+03  0.84508693806E+03  0.00000000000E+00 0.  1.
         21   -1    0    0  502  503 -0.00000000000E+00 -0.00000000000E+00 -0.55485953608E+03  0.55485953608E+03  0.00000000000E+00 0. -1.
    9000007    1    1    2  501    0  0.45070571164E+03  0.20743791097E+03  0.40115263223E+03  0.75305349063E+03  0.40000000000E+03 0.  1.
   -9000007    1    1    2    0  503 -0.45070571164E+03 -0.20743791097E+03 -0.11092523025E+03  0.64689298351E+03  0.40000000000E+03 0. -1.
<mgrwt>
<rscale>  2 0.63731164E+03</rscale>
<asrwt>0</asrwt>
<pdfrwt beam="1">  1       21 0.13001337E+00 0.63731164E+03</pdfrwt>
<pdfrwt beam="2">  1       21 0.85363006E-01 0.63731164E+03</pdfrwt>
<totfact> 0.39727334E+02</totfact>
</mgrwt>
</event>
<event>
 4    1  0.1187342E-002  0.4223146E+03  0.7818608E-02  0.1036316E+00
         21   -1    0    0  503  502  0.00000000000E+00  0.00000000000E+00  0.58450914461E+03  0.58450914461E+03  0.00000000000E+00 0. -1.
         21   -1    0    0  501  503 -0.00000000000E+00 -0.00000000000E+00 -0.98538028211E+03  0.98538028211E+03  0.00000000000E+00 0. -1.
    9000007    1    1    2  501    0 -0.35624317611E+02  0.13069261555E+03 -0.85262294291E+03  0.95148070634E+03  0.40000000000E+03 0. -1.
   -9000007    1    1    2    0  502  0.35624317611E+02 -0.13069261555E+03  0.45175180540E+03  0.61840872039E+03  0.40000000000E+03 0. -1.
<mgrwt>
<rscale>  2 0.42231464E+03</rscale>
<asrwt>0</asrwt>
<pdfrwt beam="1">  1       21 0.89924484E-01 0.42231464E+03</pdfrwt>
<pdfrwt beam="2">  1       21 0.15159697E+00 0.42231464E+03</pdfrwt>
<totfact> 0.25462650E+02</totfact>
</mgrwt>
</event>
<event>
 4    1  0.1187342E-002  0.4470938E+03  0.7818608E-02  0.1028592E+00
         21   -1    0    0  503  502  0.00000000000E+00  0.00000000000E+00  0.65386106058E+03  0.65386106058E+03  0.00000000000E+00 0.  1.
         21   -1    0    0  501  503 -0.00000000000E+00 -0.00000000000E+00 -0.32726580674E+03  0.32726580674E+03  0.00000000000E+00 0.  1.
    9000007    1    1    2  501    0  0.57464515098E+02  0.19128685302E+03  0.28919368076E+03  0.53247142235E+03  0.40000000000E+03 0.  1.
   -9000007    1    1    2    0  502 -0.57464515098E+02 -0.19128685302E+03  0.37401573075E+02  0.44865544497E+03  0.40000000000E+03 0.  1.
<mgrwt>
<rscale>  2 0.44709376E+03</rscale>
<asrwt>0</asrwt>
<pdfrwt beam="1">  1       21 0.10059401E+00 0.44709376E+03</pdfrwt>
<pdfrwt beam="2">  1       21 0.50348586E-01 0.44709376E+03</pdfrwt>
<totfact> 0.26391850E+03</totfact>
</mgrwt>
</event>
<event>
 4    1  0.1187342E-002  0.6253132E+03  0.7818608E-02  0.9854238E-01
         21   -1    0    0  501  502  0.00000000000E+00  0.00000000000E+00  0.39622675819E+03  0.39622675819E+03  0.00000000000E+00 0.  1.
         21   -1    0    0  502  503 -0.00000000000E+00 -0.00000000000E+00 -0.10181598062E+04  0.10181598062E+04  0.00000000000E+00 0.  1.
    9000007    1    1    2  501    0 -0.51281076930E+02 -0.47789842612E+03 -0.18695402127E+03  0.65266259323E+03  0.40000000000E+03 0.  1.
   -9000007    1    1    2    0  503  0.51281076930E+02  0.47789842612E+03 -0.43497902677E+03  0.76172397118E+03  0.40000000000E+03 0.  1.
<mgrwt>
<rscale>  2 0.62531325E+03</rscale>
<asrwt>0</asrwt>
<pdfrwt beam="1">  1       21 0.60957964E-01 0.62531325E+03</pdfrwt>
<pdfrwt beam="2">  1       21 0.15663997E+00 0.62531325E+03</pdfrwt>
<totfact> 0.52003824E+02</totfact>
</mgrwt>
</event>
<event>
 4    1  0.1187342E-002  0.6676744E+03  0.7818608E-02  0.9774168E-01
         21   -1    0    0  501  502  0.00000000000E+00  0.00000000000E+00  0.84870619515E+03  0.84870619515E+03  0.00000000000E+00 0. -1.
         21   -1    0    0  502  503 -0.00000000000E+00 -0.00000000000E+00 -0.53854883266E+03  0.53854883266E+03  0.00000000000E+00 0.  1.
    9000007    1    1    2  501    0  0.50119167543E+03 -0.18600001138E+03  0.26404738284E+03  0.71799033430E+03  0.40000000000E+03 0. -1.
   -9000007    1    1    2    0  503 -0.50119167543E+03  0.18600001138E+03  0.46109979652E+02  0.66926469351E+03  0.40000000000E+03 0.  1.
<mgrwt>
<rscale>  2 0.66767440E+03</rscale>
<asrwt>0</asrwt>
<pdfrwt beam="1">  1       21 0.13057018E+00 0.66767440E+03</pdfrwt>
<pdfrwt beam="2">  1       21 0.82853667E-01 0.66767440E+03</pdfrwt>
<totfact> 0.41749061E+02</totfact>
</mgrwt>
</event>
<event>
 4    1  0.1187342E-002  0.4089284E+03  0.7818608E-02  0.1040731E+00
         21   -1    0    0  503  502  0.00000000000E+00  0.00000000000E+00  0.31398451979E+03  0.31398451979E+03  0.00000000000E+00 0. -1.
         21   -1    0    0  501  503 -0.00000000000E+00 -0.00000000000E+00 -0.65103292641E+03  0.65103292641E+03  0.00000000000E+00 0. -1.
    9000007    1    1    2  501    0 -0.77285476982E+02  0.35346514017E+02 -0.37433748849E+03  0.55439243889E+03  0.40000000000E+03 0. -1.
   -9000007    1    1    2    0  502  0.77285476982E+02 -0.35346514017E+02  0.37289081872E+02  0.41062500731E+03  0.40000000000E+03 0. -1.
<mgrwt>
<rscale>  2 0.40892838E+03</rscale>
<asrwt>0</asrwt>
<pdfrwt beam="1">  1       21 0.48305311E-01 0.40892838E+03</pdfrwt>
<pdfrwt beam="2">  1       21 0.10015891E+00 0.40892838E+03</pdfrwt>
<totfact> 0.29545778E+03</totfact>
</mgrwt>
</event>
<event>
 4    1  0.1187342E-002  0.4465328E+03  0.7818608E-02  0.1028761E+00
         21   -1    0    0  503  502  0.00000000000E+00  0.00000000000E+00  0.38861651091E+03  0.38861651091E+03  0.00000000000E+00 0. -1.
         21   -1    0    0  501  503 -0.00000000000E+00 -0.00000000000E+00 -0.51956080189E+03  0.51956080189E+03  0.00000000000E+00 0. -1.
    9000007    1    1    2  501    0 -0.89210296874E+02  0.17729376961E+03 -0.14759095547E+02  0.44677666536E+03  0.40000000000E+03 0. -1.
   -9000007    1    1    2    0  502  0.89210296874E+02 -0.17729376961E+03 -0.11618519544E+03  0.46140064743E+03  0.40000000000E+03 0. -1.
<mgrwt>
<rscale>  2 0.44653282E+03</rscale>
<asrwt>0</asrwt>
<pdfrwt beam="1">  1       21 0.59787156E-01 0.44653282E+03</pdfrwt>
<pdfrwt beam="2">  1       21 0.79932431E-01 0.44653282E+03</pdfrwt>
<totfact> 0.31395884E+03</totfact>
</mgrwt>
</event>
<event>
 4    1  0.1187342E-002  0.4774245E+03  0.7818608E-02  0.1019845E+00
         21   -1    0    0  501  502  0.00000000000E+00  0.00000000000E+00  0.91630888963E+03  0.91630888963E+03  0.00000000000E+00 0.  1.
         21   -1    0    0  502  503 -0.00000000000E+00 -0.00000000000E+00 -0.25022063079E+03  0.25022063079E+03  0.00000000000E+00 0.  1.
    9000007    1    1    2  501    0  0.17453087516E+03  0.19357972546E+03  0.28836702348E+03  0.55775413645E+03  0.40000000000E+03 0.  1.
   -9000007    1    1    2    0  503 -0.17453087516E+03 -0.19357972546E+03  0.37772123536E+03  0.60877538398E+03  0.40000000000E+03 0.  1.
<mgrwt>
<rscale>  2 0.47742448E+03</rscale>
<asrwt>0</asrwt>
<pdfrwt beam="1">  1       21 0.14097060E+00 0.47742448E+03</pdfrwt>
<pdfrwt beam="2">  1       21 0.38495482E-01 0.47742448E+03</pdfrwt>
<totfact> 0.19404823E+03</totfact>
</mgrwt>
</event>
<event>
 4    1  0.1187342E-002  0.4579752E+03  0.7818608E-02  0.1025370E+00
         21   -1    0    0  503  502  0.00000000000E+00  0.00000000000E+00  0.58922951304E+03  0.58922951304E+03  0.00000000000E+00 0. -1.
         21   -1    0    0  501  503 -0.00000000000E+00 -0.00000000000E+00 -0.36163194330E+03  0.36163194330E+03  0.00000000000E+00 0. -1.
    9000007    1    1    2  501    0 -0.93165885831E+02 -0.20263623073E+03  0.54250038362E+02  0.46117717956E+03  0.40000000000E+03 0. -1.
   -9000007    1    1    2    0  502  0.93165885831E+02  0.20263623073E+03  0.17334753138E+03  0.48968427678E+03  0.40000000000E+03 0. -1.
<mgrwt>
<rscale>  2 0.45797524E+03</rscale>
<asrwt>0</asrwt>
<pdfrwt beam="1">  1       21 0.90650694E-01 0.45797524E+03</pdfrwt>
<pdfrwt beam="2">  1       21 0.55635684E-01 0.45797524E+03</pdfrwt>
<totfact> 0.27240904E+03</totfact>
</mgrwt>
</event>
<event>
 4    1  0.1187342E-002  0.7927696E+03  0.7818608E-02  0.9570542E-01
         21   -1    0    0  503  502  0.00000000000E+00  0.00000000000E+00  0.46700018498E+03  0.46700018498E+03  0.00000000000E+00 0. -1.
         21   -1    0    0  501  503 -0.00000000000E+00 -0.00000000000E+00 -0.24145646198E+04  0.24145646198E+04  0.00000000000E+00 0.  1.
    9000007    1    1    2  501    0  0.65204538246E+03  0.20813581813E+03 -0.19323487317E+04  0.20886491616E+04  0.40000000000E+03 0.  1.
   -9000007    1    1    2    0  502 -0.65204538246E+03 -0.20813581813E+03 -0.15215703181E+02  0.79291564318E+03  0.40000000000E+03 0. -1.
<mgrwt>
<rscale>  2 0.79276964E+03</rscale>
<asrwt>0</asrwt>
<pdfrwt beam="1">  1       21 0.71846180E-01 0.79276964E+03</pdfrwt>
<pdfrwt beam="2">  1       21 0.37147149E+00 0.79276964E+03</pdfrwt>
<totfact> 0.13743981E+01</totfact>
</mgrwt>
</event>
<event>
 4    1  0.1187342E-002  0.4011341E+03  0.7818608E-02  0.1043388E+00
         21   -1    0    0  503  502  0.00000000000E+00  0.00000000000E+00  0.16417750135E+03  0.16417750135E+03  0.00000000000E+00 0. -1.
         21   -1    0    0  501  503 -0.00000000000E+00 -0.00000000000E+00 -0.10033478992E+04  0.10033478992E+04  0.00000000000E+00 0. -1.
    9000007    1    1    2  501    0  0.15202277579E+02 -0.26028043131E+02 -0.50846536427E+03  0.64764619580E+03  0.40000000000E+03 0.  1.
   -9000007    1    1    2    0  502 -0.15202277579E+02  0.26028043131E+02 -0.33070503353E+03  0.51987920470E+03  0.40000000000E+03 0.  1.
<mgrwt>
<rscale>  2 0.40113410E+03</rscale>
<asrwt>0</asrwt>
<pdfrwt beam="1">  1       21 0.25258078E-01 0.40113410E+03</pdfrwt>
<pdfrwt beam="2">  1       21 0.15436121E+00 0.40113410E+03</pdfrwt>
<totfact> 0.36283835E+03</totfact>
</mgrwt>
</event>
<event>
 4    1  0.1187342E-002  0.4239826E+03  0.7818608E-02  0.1035778E+00
         21   -1    0    0  501  502  0.00000000000E+00  0.00000000000E+00  0.11940165550E+04  0.11940165550E+04  0.00000000000E+00 0.  1.
         21   -1    0    0  502  503 -0.00000000000E+00 -0.00000000000E+00 -0.17005256221E+03  0.17005256221E+03  0.00000000000E+00 0.  1.
    9000007    1    1    2  501    0  0.12053658305E+03 -0.72333538195E+02  0.74294468399E+03  0.85541101938E+03  0.40000000000E+03 0.  1.
   -9000007    1    1    2    0  503 -0.12053658305E+03  0.72333538195E+02  0.28101930883E+03  0.50865809788E+03  0.40000000000E+03 0.  1.
<mgrwt>
<rscale>  2 0.42398256E+03</rscale>
<asrwt>0</asrwt>
<pdfrwt beam="1">  1       21 0.18369485E+00 0.42398256E+03</pdfrwt>
<pdfrwt beam="2">  1       21 0.26161933E-01 0.42398256E+03</pdfrwt>
<totfact> 0.20492048E+03</totfact>
</mgrwt>
</event>
<event>
 4    1  0.1187342E-002  0.4689029E+03  0.7818608E-02  0.1022230E+00
         21   -1    0    0  503  502  0.00000000000E+00  0.00000000000E+00  0.10711268109E+04  0.10711268109E+04  0.00000000000E+00 0.  1.
         21   -1    0    0  501  503 -0.00000000000E+00 -0.00000000000E+00 -0.25717370225E+03  0.25717370225E+03  0.00000000000E+00 0. -1.
    9000007    1    1    2  501    0 -0.83692382690E+02  0.22992500763E+03  0.10860781842E+03  0.48131650946E+03  0.40000000000E+03 0. -1.
   -9000007    1    1    2    0  502  0.83692382690E+02 -0.22992500763E+03  0.70534529025E+03  0.84698400370E+03  0.40000000000E+03 0.  1.
<mgrwt>
<rscale>  2 0.46890289E+03</rscale>
<asrwt>0</asrwt>
<pdfrwt beam="1">  1       21 0.16478874E+00 0.46890289E+03</pdfrwt>
<pdfrwt beam="2">  1       21 0.39565185E-01 0.46890289E+03</pdfrwt>
<totfact> 0.11997497E+03</totfact>
</mgrwt>
</event>
<event>
 4    1  0.1187342E-002  0.7429325E+03  0.7818608E-02  0.9646504E-01
         21   -1    0    0  503  502  0.00000000000E+00  0.00000000000E+00  0.57913320416E+03  0.57913320416E+03  0.00000000000E+00 0.  1.
         21   -1    0    0  501  503 -0.00000000000E+00 -0.00000000000E+00 -0.97731482161E+03  0.97731482161E+03  0.00000000000E+00 0.  1.
    9000007    1    1    2  501    0 -0.11580420048E+03 -0.61525453605E+03 -0.32168938188E+03  0.80958805290E+03  0.40000000000E+03 0.  1.
   -9000007    1    1    2    0  502  0.11580420048E+03  0.61525453605E+03 -0.76492235565E+02  0.74685997287E+03  0.40000000000E+03 0.  1.
<mgrwt>
<rscale>  2 0.74293254E+03</rscale>
<asrwt>0</asrwt>
<pdfrwt beam="1">  1       21 0.89097418E-01 0.74293254E+03</pdfrwt>
<pdfrwt beam="2">  1       21 0.15035612E+00 0.74293254E+03</pdfrwt>
<totfact> 0.23494703E+02</totfact>
</mgrwt>
</event>
<event>
 4    1  0.1187342E-002  0.4170451E+03  0.7818608E-02  0.1038032E+00
         21   -1    0    0  501  502  0.00000000000E+00  0.00000000000E+00  0.24617056241E+03  0.24617056241E+03  0.00000000000E+00 0.  1.
         21   -1    0    0  502  503 -0.00000000000E+00 -0.00000000000E+00 -0.85750441541E+03  0.85750441541E+03  0.00000000000E+00 0.  1.
    9000007    1    1    2  501    0 -0.11774051625E+03  0.79849456176E+01 -0.53721781043E+03  0.68009526124E+03  0.40000000000E+03 0.  1.
   -9000007    1    1    2    0  503  0.11774051625E+03 -0.79849456176E+01 -0.74116042578E+02  0.42357971657E+03  0.40000000000E+03 0.  1.
<mgrwt>
<rscale>  2 0.41704507E+03</rscale>
<asrwt>0</asrwt>
<pdfrwt beam="1">  1       21 0.37872395E-01 0.41704507E+03</pdfrwt>
<pdfrwt beam="2">  1       21 0.13192375E+00 0.41704507E+03</pdfrwt>
<totfact> 0.24459227E+03</totfact>
</mgrwt>
</event>
<event>
 4    1  0.1187342E-002  0.4195293E+03  0.7818608E-02  0.1037220E+00
         21   -1    0    0  503  502  0.00000000000E+00  0.00000000000E+00  0.27444374949E+03  0.27444374949E+03  0.00000000000E+00 0.  1.
         21   -1    0    0  501  503 -0.00000000000E+00 -0.00000000000E+00 -0.64840014739E+03  0.64840014739E+03  0.00000000000E+00 0. -1.
    9000007    1    1    2  501    0  0.12521038277E+03 -0.18088429079E+02 -0.13874366760E+03  0.44187626834E+03  0.40000000000E+03 0.  1.
   -9000007    1    1    2    0  502 -0.12521038277E+03  0.18088429079E+02 -0.23521273029E+03  0.48096762855E+03  0.40000000000E+03 0.  1.
<mgrwt>
<rscale>  2 0.41952930E+03</rscale>
<asrwt>0</asrwt>
<pdfrwt beam="1">  1       21 0.42222116E-01 0.41952930E+03</pdfrwt>
<pdfrwt beam="2">  1       21 0.99753868E-01 0.41952930E+03</pdfrwt>
<totfact> 0.39383104E+03</totfact>
</mgrwt>
</event>
<event>
 4    1  0.1187342E-002  0.5094957E+03  0.7818608E-02  0.1011330E+00
         21   -1    0    0  503  502  0.00000000000E+00  0.00000000000E+00  0.41553895536E+03  0.41553895536E+03  0.00000000000E+00 0. -1.
         21   -1    0    0  501  503 -0.00000000000E+00 -0.00000000000E+00 -0.70746541197E+03  0.70746541197E+03  0.00000000000E+00 0.  1.
    9000007    1    1    2  501    0  0.87170975001E+02  0.30329368744E+03 -0.33802095340E+03  0.61142784093E+03  0.40000000000E+03 0.  1.
   -9000007    1    1    2    0  502 -0.87170975001E+02 -0.30329368744E+03  0.46094496785E+02  0.51157652640E+03  0.40000000000E+03 0. -1.
<mgrwt>
<rscale>  2 0.50949567E+03</rscale>
<asrwt>0</asrwt>
<pdfrwt beam="1">  1       21 0.63929071E-01 0.50949567E+03</pdfrwt>
<pdfrwt beam="2">  1       21 0.10884083E+00 0.50949567E+03</pdfrwt>
<totfact> 0.12645800E+03</totfact>
</mgrwt>
</event>
<event>
 4    1  0.1187342E-002  0.6321334E+03  0.7818608E-02  0.9840894E-01
         21   -1    0    0  501  502  0.00000000000E+00  0.00000000000E+00  0.33272952148E+04  0.33272952148E+04  0.00000000000E+00 0. -1.
         21   -1    0    0  502  503 -0.00000000000E+00 -0.00000000000E+00 -0.12080154249E+03  0.12080154249E+03  0.00000000000E+00 0. -1.
    9000007    1    1    2  501    0 -0.47870392114E+03  0.10215278448E+03  0.14714274810E+04  0.16014654125E+04  0.40000000000E+03 0. -1.
   -9000007    1    1    2    0  503  0.47870392114E+03 -0.10215278448E+03  0.17350661913E+04  0.18466313448E+04  0.40000000000E+03 0. -1.
<mgrwt>
<rscale>  2 0.63213340E+03</rscale>
<asrwt>0</asrwt>
<pdfrwt beam="1">  1       21 0.51189150E+00 0.63213340E+03</pdfrwt>
<pdfrwt beam="2">  1       21 0.18584855E-01 0.63213340E+03</pdfrwt>
<totfact> 0.27080740E+01</totfact>
</mgrwt>
</event>
<event>
 4    1  0.1187342E-002  0.4319653E+03  0.7818608E-02  0.1033241E+00
         21   -1    0    0  503  502  0.00000000000E+00  0.00000000000E+00  0.38193751136E+03  0.38193751136E+03  0.00000000000E+00 0. -1.
         21   -1    0    0  501  503 -0.00000000000E+00 -0.00000000000E+00 -0.68485492040E+03  0.68485492040E+03  0.00000000000E+00 0. -1.
    9000007    1    1    2  501    0  0.19541597992E+02 -0.16190160870E+03 -0.43703408816E+03  0.61448580063E+03  0.40000000000E+03 0. -1.
   -9000007    1    1    2    0  502 -0.19541597992E+02  0.16190160870E+03  0.13411667912E+03  0.45230663114E+03  0.40000000000E+03 0. -1.
<mgrwt>
<rscale>  2 0.43196528E+03</rscale>
<asrwt>0</asrwt>
<pdfrwt beam="1">  1       21 0.58759618E-01 0.43196528E+03</pdfrwt>
<pdfrwt beam="2">  1       21 0.10536229E+00 0.43196528E+03</pdfrwt>
<totfact> 0.16989239E+03</totfact>
</mgrwt>
</event>
<event>
 4    1  0.1187342E-002  0.5253830E+03  0.7818608E-02  0.1007358E+00
         21   -1    0    0  503  502  0.00000000000E+00  0.00000000000E+00  0.27146618081E+03  0.27146618081E+03  0.00000000000E+00 0. -1.
         21   -1    0    0  501  503 -0.00000000000E+00 -0.00000000000E+00 -0.10890748879E+04  0.10890748879E+04  0.00000000000E+00 0. -1.
    9000007    1    1    2  501    0 -0.34054279234E+03 -0.76088078798E+01 -0.58404758277E+03  0.78558186481E+03  0.40000000000E+03 0. -1.
   -9000007    1    1    2    0  502  0.34054279234E+03  0.76088078798E+01 -0.23356112433E+03  0.57495920392E+03  0.40000000000E+03 0. -1.
<mgrwt>
<rscale>  2 0.52538299E+03</rscale>
<asrwt>0</asrwt>
<pdfrwt beam="1">  1       21 0.41764028E-01 0.52538299E+03</pdfrwt>
<pdfrwt beam="2">  1       21 0.16754998E+00 0.52538299E+03</pdfrwt>
<totfact> 0.10010905E+03</totfact>
</mgrwt>
</event>
<event>
 4    1  0.1187342E-002  0.5592928E+03  0.7818608E-02  0.9993656E-01
         21   -1    0    0  503  502  0.00000000000E+00  0.00000000000E+00  0.47501467684E+03  0.47501467684E+03  0.00000000000E+00 0. -1.
         21   -1    0    0  501  503 -0.00000000000E+00 -0.00000000000E+00 -0.71887527240E+03  0.71887527240E+03  0.00000000000E+00 0. -1.
    9000007    1    1    2  501    0 -0.22387849375E+03  0.32044795865E+03 -0.29489258981E+03  0.63227376482E+03  0.40000000000E+03 0. -1.
   -9000007    1    1    2    0  502  0.22387849375E+03 -0.32044795865E+03  0.51031994248E+02  0.56161618442E+03  0.40000000000E+03 0. -1.
<mgrwt>
<rscale>  2 0.55929283E+03</rscale>
<asrwt>0</asrwt>
<pdfrwt beam="1">  1       21 0.73079182E-01 0.55929283E+03</pdfrwt>
<pdfrwt beam="2">  1       21 0.11059619E+00 0.55929283E+03</pdfrwt>
<totfact> 0.88403985E+02</totfact>
</mgrwt>
</event>
<event>
 4    1  0.1187342E-002  0.4123291E+03  0.7818608E-02  0.1039592E+00
         21   -1    0    0  503  502  0.00000000000E+00  0.00000000000E+00  0.17809735303E+04  0.17809735303E+04  0.00000000000E+00 0.  1.
         21   -1    0    0  501  503 -0.00000000000E+00 -0.00000000000E+00 -0.10243291483E+03  0.10243291483E+03  0.00000000000E+00 0.  1.
    9000007    1    1    2  501    0 -0.99550435287E+02  0.10248510662E+02  0.10849327272E+04  0.11606439349E+04  0.40000000000E+03 0.  1.
   -9000007    1    1    2    0  502  0.99550435287E+02 -0.10248510662E+02  0.59360788830E+03  0.72276251023E+03  0.40000000000E+03 0.  1.
<mgrwt>
<rscale>  2 0.41232914E+03</rscale>
<asrwt>0</asrwt>
<pdfrwt beam="1">  1       21 0.27399591E+00 0.41232914E+03</pdfrwt>
<pdfrwt beam="2">  1       21 0.15758911E-01 0.41232914E+03</pdfrwt>
<totfact> 0.14448849E+03</totfact>
</mgrwt>
</event>
<event>
 4    1  0.1187342E-002  0.5719445E+03  0.7818608E-02  0.9965385E-01
         21   -1    0    0  503  502  0.00000000000E+00  0.00000000000E+00  0.22650764784E+04  0.22650764784E+04  0.00000000000E+00 0. -1.
         21   -1    0    0  501  503 -0.00000000000E+00 -0.00000000000E+00 -0.14492668024E+03  0.14492668024E+03  0.00000000000E+00 0. -1.
    9000007    1    1    2  501    0  0.33799411368E+03  0.22995758992E+03  0.98876881549E+03  0.11422715459E+04  0.40000000000E+03 0. -1.
   -9000007    1    1    2    0  502 -0.33799411368E+03 -0.22995758992E+03  0.11313809827E+04  0.12677316128E+04  0.40000000000E+03 0. -1.
<mgrwt>
<rscale>  2 0.57194450E+03</rscale>
<asrwt>0</asrwt>
<pdfrwt beam="1">  1       21 0.34847328E+00 0.57194450E+03</pdfrwt>
<pdfrwt beam="2">  1       21 0.22296414E-01 0.57194450E+03</pdfrwt>
<totfact> 0.24362989E+02</totfact>
</mgrwt>
</event>
<event>
 4    1  0.1187342E-002  0.5198472E+03  0.7818608E-02  0.1008725E+00
         21   -1    0    0  501  502  0.00000000000E+00  0.00000000000E+00  0.10678140843E+04  0.10678140843E+04  0.00000000000E+00 0.  1.
         21   -1    0    0  502  503 -0.00000000000E+00 -0.00000000000E+00 -0.26385762801E+03  0.26385762801E+03  0.00000000000E+00 0.  1.
    9000007    1    1    2  501    0  0.27813890349E+03  0.18132802658E+03  0.53655441006E+03  0.74708214931E+03  0.40000000000E+03 0.  1.
   -9000007    1    1    2    0  503 -0.27813890349E+03 -0.18132802658E+03  0.26740204625E+03  0.58458956303E+03  0.40000000000E+03 0.  1.
<mgrwt>
<rscale>  2 0.51984719E+03</rscale>
<asrwt>0</asrwt>
<pdfrwt beam="1">  1       21 0.16427909E+00 0.51984719E+03</pdfrwt>
<pdfrwt beam="2">  1       21 0.40593482E-01 0.51984719E+03</pdfrwt>
<totfact> 0.11253124E+03</totfact>
</mgrwt>
</event>
<event>
 4    1  0.1187342E-002  0.4274789E+03  0.7818608E-02  0.1034659E+00
         21   -1    0    0  503  502  0.00000000000E+00  0.00000000000E+00  0.11457822727E+03  0.11457822727E+03  0.00000000000E+00 0. -1.
         21   -1    0    0  501  503 -0.00000000000E+00 -0.00000000000E+00 -0.16115764865E+04  0.16115764865E+04  0.00000000000E+00 0. -1.
    9000007    1    1    2  501    0  0.10936885906E+03  0.10381058436E+03 -0.83635589464E+03  0.93927065708E+03  0.40000000000E+03 0. -1.
   -9000007    1    1    2    0  502 -0.10936885906E+03 -0.10381058436E+03 -0.66064236456E+03  0.78688405665E+03  0.40000000000E+03 0. -1.
<mgrwt>
<rscale>  2 0.42747887E+03</rscale>
<asrwt>0</asrwt>
<pdfrwt beam="1">  1       21 0.17627421E-01 0.42747887E+03</pdfrwt>
<pdfrwt beam="2">  1       21 0.24793482E+00 0.42747887E+03</pdfrwt>
<totfact> 0.16738893E+03</totfact>
</mgrwt>
</event>
<event>
 4    1  0.1187342E-002  0.4987373E+03  0.7818608E-02  0.1014109E+00
         21   -1    0    0  503  502  0.00000000000E+00  0.00000000000E+00  0.81688221424E+03  0.81688221424E+03  0.00000000000E+00 0.  1.
         21   -1    0    0  501  503 -0.00000000000E+00 -0.00000000000E+00 -0.37284490014E+03  0.37284490014E+03  0.00000000000E+00 0.  1.
    9000007    1    1    2  501    0  0.83327329870E+02  0.28599910271E+03 -0.32671958354E+02  0.49980635001E+03  0.40000000000E+03 0.  1.
   -9000007    1    1    2    0  502 -0.83327329870E+02 -0.28599910271E+03  0.47670927245E+03  0.68992076436E+03  0.40000000000E+03 0.  1.
<mgrwt>
<rscale>  2 0.49873734E+03</rscale>
<asrwt>0</asrwt>
<pdfrwt beam="1">  1       21 0.12567419E+00 0.49873734E+03</pdfrwt>
<pdfrwt beam="2">  1       21 0.57360754E-01 0.49873734E+03</pdfrwt>
<totfact> 0.11201561E+03</totfact>
</mgrwt>
</event>
<event>
 4    1  0.1187342E-002  0.4490327E+03  0.7818608E-02  0.1028011E+00
         21   -1    0    0  501  502  0.00000000000E+00  0.00000000000E+00  0.18292313217E+03  0.18292313217E+03  0.00000000000E+00 0. -1.
         21   -1    0    0  502  503 -0.00000000000E+00 -0.00000000000E+00 -0.12173460047E+04  0.12173460047E+04  0.00000000000E+00 0. -1.
    9000007    1    1    2  501    0 -0.18939785810E+03 -0.75886988999E+02 -0.73247471779E+03  0.85915632801E+03  0.40000000000E+03 0. -1.
   -9000007    1    1    2    0  503  0.18939785810E+03  0.75886988999E+02 -0.30194815471E+03  0.54111280883E+03  0.40000000000E+03 0. -1.
<mgrwt>
<rscale>  2 0.44903272E+03</rscale>
<asrwt>0</asrwt>
<pdfrwt beam="1">  1       21 0.28142021E-01 0.44903272E+03</pdfrwt>
<pdfrwt beam="2">  1       21 0.18728400E+00 0.44903272E+03</pdfrwt>
<totfact> 0.16590349E+03</totfact>
</mgrwt>
</event>
<event>
 4    1  0.1187342E-002  0.5653506E+03  0.7818608E-02  0.9980020E-01
         21   -1    0    0  501  502  0.00000000000E+00  0.00000000000E+00  0.54983357160E+03  0.54983357160E+03  0.00000000000E+00 0.  1.
         21   -1    0    0  502  503 -0.00000000000E+00 -0.00000000000E+00 -0.60960465213E+03  0.60960465213E+03  0.00000000000E+00 0.  1.
    9000007    1    1    2  501    0 -0.16175937805E+03  0.36531522536E+03 -0.15479052223E+03  0.58615818346E+03  0.40000000000E+03 0.  1.
   -9000007    1    1    2    0  503  0.16175937805E+03 -0.36531522536E+03  0.95019441694E+02  0.57328004027E+03  0.40000000000E+03 0.  1.
<mgrwt>
<rscale>  2 0.56535061E+03</rscale>
<asrwt>0</asrwt>
<pdfrwt beam="1">  1       21 0.84589780E-01 0.56535061E+03</pdfrwt>
<pdfrwt beam="2">  1       21 0.93785331E-01 0.56535061E+03</pdfrwt>
<totfact> 0.94259549E+02</totfact>
</mgrwt>
</event>
<event>
 4    1  0.1187342E-002  0.5147773E+03  0.7818608E-02  0.1009992E+00
         21   -1    0    0  503  502  0.00000000000E+00  0.00000000000E+00  0.47429976891E+03  0.47429976891E+03  0.00000000000E+00 0. -1.
         21   -1    0    0  501  503 -0.00000000000E+00 -0.00000000000E+00 -0.65510126968E+03  0.65510126968E+03  0.00000000000E+00 0.  1.
    9000007    1    1    2  501    0  0.32333010787E+03 -0.21291819018E+02 -0.30701366915E+03  0.59937725454E+03  0.40000000000E+03 0.  1.
   -9000007    1    1    2    0  502 -0.32333010787E+03  0.21291819018E+02  0.12621216838E+03  0.53002378405E+03  0.40000000000E+03 0. -1.
<mgrwt>
<rscale>  2 0.51477733E+03</rscale>
<asrwt>0</asrwt>
<pdfrwt beam="1">  1       21 0.72969195E-01 0.51477733E+03</pdfrwt>
<pdfrwt beam="2">  1       21 0.10078481E+00 0.51477733E+03</pdfrwt>
<totfact> 0.11334570E+03</totfact>
</mgrwt>
</event>
<event>
 4    1  0.1187342E-002  0.4039894E+03  0.7818608E-02  0.1042407E+00
         21   -1    0    0  501  502  0.00000000000E+00  0.00000000000E+00  0.31418851352E+03  0.31418851352E+03  0.00000000000E+00 0. -1.
         21   -1    0    0  502  503 -0.00000000000E+00 -0.00000000000E+00 -0.60512614579E+03  0.60512614579E+03  0.00000000000E+00 0. -1.
    9000007    1    1    2  501    0  0.50306671002E+02 -0.26012383391E+02  0.27482387833E+02  0.40492306291E+03  0.40000000000E+03 0. -1.
   -9000007    1    1    2    0  503 -0.50306671002E+02  0.26012383391E+02 -0.31842002011E+03  0.51439159640E+03  0.40000000000E+03 0. -1.
<mgrwt>
<rscale>  2 0.40398936E+03</rscale>
<asrwt>0</asrwt>
<pdfrwt beam="1">  1       21 0.48336695E-01 0.40398936E+03</pdfrwt>
<pdfrwt beam="2">  1       21 0.93096329E-01 0.40398936E+03</pdfrwt>
<totfact> 0.35234328E+03</totfact>
</mgrwt>
</event>
<event>
 4    1  0.1187342E-002  0.6249417E+03  0.7818608E-02  0.9854970E-01
         21   -1    0    0  501  502  0.00000000000E+00  0.00000000000E+00  0.22770841213E+04  0.22770841213E+04  0.00000000000E+00 0.  1.
         21   -1    0    0  502  503 -0.00000000000E+00 -0.00000000000E+00 -0.24918221119E+03  0.24918221119E+03  0.00000000000E+00 0.  1.
    9000007    1    1    2  501    0  0.13137814263E+03  0.46183537896E+03  0.17191502511E+04  0.18292156022E+04  0.40000000000E+03 0.  1.
   -9000007    1    1    2    0  503 -0.13137814263E+03 -0.46183537896E+03  0.30875165903E+03  0.69705073027E+03  0.40000000000E+03 0.  1.
<mgrwt>
<rscale>  2 0.62494170E+03</rscale>
<asrwt>0</asrwt>
<pdfrwt beam="1">  1       21 0.35032062E+00 0.62494170E+03</pdfrwt>
<pdfrwt beam="2">  1       21 0.38335726E-01 0.62494170E+03</pdfrwt>
<totfact> 0.78513251E+01</totfact>
</mgrwt>
</event>
<event>
 4    1  0.1187342E-002  0.4082556E+03  0.7818608E-02  0.1040958E+00
         21   -1    0    0  501  502  0.00000000000E+00  0.00000000000E+00  0.90818542313E+03  0.90818542313E+03  0.00000000000E+00 0.  1.
         21   -1    0    0  502  503 -0.00000000000E+00 -0.00000000000E+00 -0.19875173690E+03  0.19875173690E+03  0.00000000000E+00 0.  1.
    9000007    1    1    2  501    0 -0.27873581267E+02 -0.76783579690E+02  0.20151164192E+03  0.45527969038E+03  0.40000000000E+03 0.  1.
   -9000007    1    1    2    0  503  0.27873581267E+02  0.76783579690E+02  0.50792204431E+03  0.65165746964E+03  0.40000000000E+03 0.  1.
<mgrwt>
<rscale>  2 0.40825562E+03</rscale>
<asrwt>0</asrwt>
<pdfrwt beam="1">  1       21 0.13972083E+00 0.40825562E+03</pdfrwt>
<pdfrwt beam="2">  1       21 0.30577191E-01 0.40825562E+03</pdfrwt>
<totfact> 0.32487047E+03</totfact>
</mgrwt>
</event>
<event>
 4    1  0.1187342E-002  0.4434641E+03  0.7818608E-02  0.1029689E+00
         21   -1    0    0  501  502  0.00000000000E+00  0.00000000000E+00  0.39508512290E+04  0.39508512290E+04  0.00000000000E+00 0.  1.
         21   -1    0    0  502  503 -0.00000000000E+00 -0.00000000000E+00 -0.79023323431E+02  0.79023323431E+02  0.00000000000E+00 0.  1.
    9000007    1    1    2  501    0 -0.42803847559E+01  0.19142120680E+03  0.31617196429E+04  0.31926683981E+04  0.40000000000E+03 0. -1.
   -9000007    1    1    2    0  503  0.42803847559E+01 -0.19142120680E+03  0.71010826273E+03  0.83720615436E+03  0.40000000000E+03 0. -1.
<mgrwt>
<rscale>  2 0.44346409E+03</rscale>
<asrwt>0</asrwt>
<pdfrwt beam="1">  1       21 0.60782311E+00 0.44346409E+03</pdfrwt>
<pdfrwt beam="2">  1       21 0.12157437E-01 0.44346409E+03</pdfrwt>
<totfact> 0.12596192E+01</totfact>
</mgrwt>
</event>
<event>
 4    1  0.1187342E-002  0.6136088E+03  0.7818608E-02  0.9877567E-01
         21   -1    0    0  503  502  0.00000000000E+00  0.00000000000E+00  0.81118721521E+03  0.81118721521E+03  0.00000000000E+00 0.  1.
         21   -1    0    0  501  503 -0.00000000000E+00 -0.00000000000E+00 -0.48268395638E+03  0.48268395638E+03  0.00000000000E+00 0. -1.
    9000007    1    1    2  501    0 -0.19830682090E+03  0.42093968252E+03  0.37496218841E+02  0.61475342859E+03  0.40000000000E+03 0. -1.
   -9000007    1    1    2    0  502  0.19830682090E+03 -0.42093968252E+03  0.29100703999E+03  0.67911774300E+03  0.40000000000E+03 0.  1.
<mgrwt>
<rscale>  2 0.61360884E+03</rscale>
<asrwt>0</asrwt>
<pdfrwt beam="1">  1       21 0.12479803E+00 0.61360884E+03</pdfrwt>
<pdfrwt beam="2">  1       21 0.74259070E-01 0.61360884E+03</pdfrwt>
<totfact> 0.61589016E+02</totfact>
</mgrwt>
</event>
<event>
 4    1  0.1187342E-002  0.6534986E+03  0.7818608E-02  0.9800236E-01
         21   -1    0    0  503  502  0.00000000000E+00  0.00000000000E+00  0.23936795403E+03  0.23936795403E+03  0.00000000000E+00 0. -1.
         21   -1    0    0  501  503 -0.00000000000E+00 -0.00000000000E+00 -0.20471486231E+04  0.20471486231E+04  0.00000000000E+00 0.  1.
    9000007    1    1    2  501    0 -0.18332674337E+03 -0.48316848291E+03 -0.49408886575E+03  0.81925837497E+03  0.40000000000E+03 0. -1.
   -9000007    1    1    2    0  502  0.18332674337E+03  0.48316848291E+03 -0.13136918034E+04  0.14672582022E+04  0.40000000000E+03 0.  1.
<mgrwt>
<rscale>  2 0.65349864E+03</rscale>
<asrwt>0</asrwt>
<pdfrwt beam="1">  1       21 0.36825839E-01 0.65349864E+03</pdfrwt>
<pdfrwt beam="2">  1       21 0.31494595E+00 0.65349864E+03</pdfrwt>
<totfact> 0.13909068E+02</totfact>
</mgrwt>
</event>
<event>
 4    1  0.1187342E-002  0.4436922E+03  0.7818608E-02  0.1029620E+00
         21   -1    0    0  501  502  0.00000000000E+00  0.00000000000E+00  0.17024294830E+03  0.17024294830E+03  0.00000000000E+00 0. -1.
         21   -1    0    0  502  503 -0.00000000000E+00 -0.00000000000E+00 -0.17691342463E+04  0.17691342463E+04  0.00000000000E+00 0.  1.
    9000007    1    1    2  501    0  0.53809982487E+02  0.18430208291E+03 -0.22875491428E+03  0.49919092819E+03  0.40000000000E+03 0. -1.
   -9000007    1    1    2    0  503 -0.53809982487E+02 -0.18430208291E+03 -0.13701363837E+04  0.14401862664E+04  0.40000000000E+03 0.  1.
<mgrwt>
<rscale>  2 0.44369220E+03</rscale>
<asrwt>0</asrwt>
<pdfrwt beam="1">  1       21 0.26191223E-01 0.44369220E+03</pdfrwt>
<pdfrwt beam="2">  1       21 0.27217450E+00 0.44369220E+03</pdfrwt>
<totfact> 0.55348875E+02</totfact>
</mgrwt>
</event>
<event>
 4    1  0.1187342E-002  0.5719346E+03  0.7818608E-02  0.9965407E-01
         21   -1    0    0  501  502  0.00000000000E+00  0.00000000000E+00  0.58553460376E+03  0.58553460376E+03  0.00000000000E+00 0. -1.
         21   -1    0    0  502  503 -0.00000000000E+00 -0.00000000000E+00 -0.58531401867E+03  0.58531401867E+03  0.00000000000E+00 0. -1.
    9000007    1    1    2  501    0  0.11200116271E+03 -0.39314739744E+03  0.12506018644E+03  0.58544785147E+03  0.40000000000E+03 0. -1.
   -9000007    1    1    2    0  503 -0.11200116271E+03  0.39314739744E+03 -0.12483960135E+03  0.58540077095E+03  0.40000000000E+03 0. -1.
<mgrwt>
<rscale>  2 0.57193456E+03</rscale>
<asrwt>0</asrwt>
<pdfrwt beam="1">  1       21 0.90082246E-01 0.57193456E+03</pdfrwt>
<pdfrwt beam="2">  1       21 0.90048311E-01 0.57193456E+03</pdfrwt>
<totfact> 0.89329738E+02</totfact>
</mgrwt>
</event>
<event>
 4    1  0.1187342E-002  0.4280253E+03  0.7818608E-02  0.1034486E+00
         21   -1    0    0  501  502  0.00000000000E+00  0.00000000000E+00  0.72325412414E+03  0.72325412414E+03  0.00000000000E+00 0. -1.
         21   -1    0    0  502  503 -0.00000000000E+00 -0.00000000000E+00 -0.25348512306E+03  0.25348512306E+03  0.00000000000E+00 0. -1.
    9000007    1    1    2  501    0 -0.85974197700E+02  0.12575394683E+03  0.24781606007E+03  0.49458914003E+03  0.40000000000E+03 0. -1.
   -9000007    1    1    2    0  503  0.85974197700E+02 -0.12575394683E+03  0.22195294101E+03  0.48215010716E+03  0.40000000000E+03 0. -1.
<mgrwt>
<rscale>  2 0.42802525E+03</rscale>
<asrwt>0</asrwt>
<pdfrwt beam="1">  1       21 0.11126986E+00 0.42802525E+03</pdfrwt>
<pdfrwt beam="2">  1       21 0.38997711E-01 0.42802525E+03</pdfrwt>
<totfact> 0.35356658E+03</totfact>
</mgrwt>
</event>
<event>
 4    1  0.1187342E-002  0.5056218E+03  0.7818608E-02  0.1012322E+00
         21   -1    0    0  501  502  0.00000000000E+00  0.00000000000E+00  0.64195548716E+03  0.64195548716E+03  0.00000000000E+00 0. -1.
         21   -1    0    0  502  503 -0.00000000000E+00 -0.00000000000E+00 -0.39999136807E+03  0.39999136807E+03  0.00000000000E+00 0. -1.
    9000007    1    1    2  501    0  0.89616242944E+02  0.29601071044E+03  0.15543882001E+03  0.52897508303E+03  0.40000000000E+03 0. -1.
   -9000007    1    1    2    0  503 -0.89616242944E+02 -0.29601071044E+03  0.86525299073E+02  0.51297177220E+03  0.40000000000E+03 0. -1.
<mgrwt>
<rscale>  2 0.50562181E+03</rscale>
<asrwt>0</asrwt>
<pdfrwt beam="1">  1       21 0.98762383E-01 0.50562181E+03</pdfrwt>
<pdfrwt beam="2">  1       21 0.61537133E-01 0.50562181E+03</pdfrwt>
<totfact> 0.17500603E+03</totfact>
</mgrwt>
</event>
<event>
 4    1  0.1187342E-002  0.6769803E+03  0.7818608E-02  0.9757429E-01
         21   -1    0    0  503  502  0.00000000000E+00  0.00000000000E+00  0.59804623959E+03  0.59804623959E+03  0.00000000000E+00 0.  1.
         21   -1    0    0  501  503 -0.00000000000E+00 -0.00000000000E+00 -0.87158729793E+03  0.87158729793E+03  0.00000000000E+00 0. -1.
    9000007    1    1    2  501    0 -0.53780903425E+03  0.95204162685E+02 -0.39212540168E+03  0.78234565286E+03  0.40000000000E+03 0.  1.
   -9000007    1    1    2    0  502  0.53780903425E+03 -0.95204162685E+02  0.11858434334E+03  0.68728788466E+03  0.40000000000E+03 0. -1.
<mgrwt>
<rscale>  2 0.67698035E+03</rscale>
<asrwt>0</asrwt>
<pdfrwt beam="1">  1       21 0.92007114E-01 0.67698035E+03</pdfrwt>
<pdfrwt beam="2">  1       21 0.13409035E+00 0.67698035E+03</pdfrwt>
<totfact> 0.30254389E+02</totfact>
</mgrwt>
</event>
<event>
 4    1  0.1187342E-002  0.4115304E+03  0.7818608E-02  0.1039859E+00
         21   -1    0    0  503  502  0.00000000000E+00  0.00000000000E+00  0.11505618462E+03  0.11505618462E+03  0.00000000000E+00 0.  1.
         21   -1    0    0  501  503 -0.00000000000E+00 -0.00000000000E+00 -0.16530723761E+04  0.16530723761E+04  0.00000000000E+00 0.  1.
    9000007    1    1    2  501    0 -0.44779116297E+02 -0.85744485781E+02 -0.47637700196E+03  0.62951754074E+03  0.40000000000E+03 0.  1.
   -9000007    1    1    2    0  502  0.44779116297E+02  0.85744485781E+02 -0.10616391895E+04  0.11386110200E+04  0.40000000000E+03 0.  1.
<mgrwt>
<rscale>  2 0.41153042E+03</rscale>
<asrwt>0</asrwt>
<pdfrwt beam="1">  1       21 0.17700951E-01 0.41153042E+03</pdfrwt>
<pdfrwt beam="2">  1       21 0.25431884E+00 0.41153042E+03</pdfrwt>
<totfact> 0.15303113E+03</totfact>
</mgrwt>
</event>
<event>
 4    1  0.1187342E-002  0.5456813E+03  0.7818608E-02  0.1002499E+00
         21   -1    0    0  501  502  0.00000000000E+00  0.00000000000E+00  0.19215044234E+03  0.19215044234E+03  0.00000000000E+00 0. -1.
         21   -1    0    0  502  503 -0.00000000000E+00 -0.00000000000E+00 -0.22386007861E+04  0.22386007861E+04  0.00000000000E+00 0. -1.
    9000007    1    1    2  501    0 -0.34459017819E+03  0.13793366300E+03 -0.34898789463E+03  0.64773500515E+03  0.40000000000E+03 0. -1.
   -9000007    1    1    2    0  503  0.34459017819E+03 -0.13793366300E+03 -0.16974624492E+04  0.17830162233E+04  0.40000000000E+03 0. -1.
<mgrwt>
<rscale>  2 0.54568130E+03</rscale>
<asrwt>0</asrwt>
<pdfrwt beam="1">  1       21 0.29561607E-01 0.54568130E+03</pdfrwt>
<pdfrwt beam="2">  1       21 0.34440012E+00 0.54568130E+03</pdfrwt>
<totfact> 0.15049572E+02</totfact>
</mgrwt>
</event>
<event>
 4    1  0.1187342E-002  0.5002126E+03  0.7818608E-02  0.1013723E+00
         21   -1    0    0  503  502  0.00000000000E+00  0.00000000000E+00  0.10070681725E+04  0.10070681725E+04  0.00000000000E+00 0.  1.
         21   -1    0    0  501  503 -0.00000000000E+00 -0.00000000000E+00 -0.37223880176E+03  0.37223880176E+03  0.00000000000E+00 0. -1.
    9000007    1    1    2  501    0  0.29990147155E+03  0.16483947596E+02 -0.80279671074E+02  0.50661369776E+03  0.40000000000E+03 0. -1.
   -9000007    1    1    2    0  502 -0.29990147155E+03 -0.16483947596E+02  0.71510904182E+03  0.87269327651E+03  0.40000000000E+03 0.  1.
<mgrwt>
<rscale>  2 0.50021257E+03</rscale>
<asrwt>0</asrwt>
<pdfrwt beam="1">  1       21 0.15493356E+00 0.50021257E+03</pdfrwt>
<pdfrwt beam="2">  1       21 0.57267508E-01 0.50021257E+03</pdfrwt>
<totfact> 0.64332374E+02</totfact>
</mgrwt>
</event>
<event>
 4    1  0.1187342E-002  0.6490101E+03  0.7818608E-02  0.9808638E-01
         21   -1    0    0  501  502  0.00000000000E+00  0.00000000000E+00  0.23734548722E+03  0.23734548722E+03  0.00000000000E+00 0.  1.
         21   -1    0    0  502  503 -0.00000000000E+00 -0.00000000000E+00 -0.27599579161E+04  0.27599579161E+04  0.00000000000E+00 0.  1.
    9000007    1    1    2  501    0 -0.29841136083E+03  0.41492738576E+03 -0.36588537712E+03  0.74504106257E+03  0.40000000000E+03 0.  1.
   -9000007    1    1    2    0  503  0.29841136083E+03 -0.41492738576E+03 -0.21567270518E+04  0.22522623408E+04  0.40000000000E+03 0.  1.
<mgrwt>
<rscale>  2 0.64901007E+03</rscale>
<asrwt>0</asrwt>
<pdfrwt beam="1">  1       21 0.36514692E-01 0.64901007E+03</pdfrwt>
<pdfrwt beam="2">  1       21 0.42460889E+00 0.64901007E+03</pdfrwt>
<totfact> 0.28624925E+01</totfact>
</mgrwt>
</event>
<event>
 4    1  0.1187342E-002  0.5506687E+03  0.7818608E-02  0.1001339E+00
         21   -1    0    0  501  502  0.00000000000E+00  0.00000000000E+00  0.51585788754E+03  0.51585788754E+03  0.00000000000E+00 0.  1.
         21   -1    0    0  502  503 -0.00000000000E+00 -0.00000000000E+00 -0.73234837516E+03  0.73234837516E+03  0.00000000000E+00 0.  1.
    9000007    1    1    2  501    0  0.28322807830E+03 -0.25103371136E+03 -0.38548850391E+03  0.67218855630E+03  0.40000000000E+03 0.  1.
   -9000007    1    1    2    0  503 -0.28322807830E+03  0.25103371136E+03  0.16899801628E+03  0.57601770640E+03  0.40000000000E+03 0.  1.
<mgrwt>
<rscale>  2 0.55066875E+03</rscale>
<asrwt>0</asrwt>
<pdfrwt beam="1">  1       21 0.79362753E-01 0.55066875E+03</pdfrwt>
<pdfrwt beam="2">  1       21 0.11266898E+00 0.55066875E+03</pdfrwt>
<totfact> 0.70017934E+02</totfact>
</mgrwt>
</event>
<event>
 4    1  0.1187342E-002  0.5589848E+03  0.7818608E-02  0.9994354E-01
         21   -1    0    0  501  502  0.00000000000E+00  0.00000000000E+00  0.60661727764E+03  0.60661727764E+03  0.00000000000E+00 0.  1.
         21   -1    0    0  502  503 -0.00000000000E+00 -0.00000000000E+00 -0.14912719704E+04  0.14912719704E+04  0.00000000000E+00 0. -1.
    9000007    1    1    2  501    0  0.18214680202E+03 -0.34537892678E+03  0.40634284914E+03  0.69107059813E+03  0.40000000000E+03 0.  1.
   -9000007    1    1    2    0  503 -0.18214680202E+03  0.34537892678E+03 -0.12909975419E+04  0.14068186500E+04  0.40000000000E+03 0. -1.
<mgrwt>
<rscale>  2 0.55898485E+03</rscale>
<asrwt>0</asrwt>
<pdfrwt beam="1">  1       21 0.93325735E-01 0.55898485E+03</pdfrwt>
<pdfrwt beam="2">  1       21 0.22942646E+00 0.55898485E+03</pdfrwt>
<totfact> 0.62794288E+01</totfact>
</mgrwt>
</event>
<event>
 4    1  0.1187342E-002  0.4097534E+03  0.7818608E-02  0.1040454E+00
         21   -1    0    0  501  502  0.00000000000E+00  0.00000000000E+00  0.10218971540E+03  0.10218971540E+03  0.00000000000E+00 0.  1.
         21   -1    0    0  502  503 -0.00000000000E+00 -0.00000000000E+00 -0.16635503300E+04  0.16635503300E+04  0.00000000000E+00 0.  1.
    9000007    1    1    2  501    0 -0.71944783038E+02 -0.52170915087E+02 -0.68255697329E+03  0.79610418789E+03  0.40000000000E+03 0.  1.
   -9000007    1    1    2    0  503  0.71944783038E+02  0.52170915087E+02 -0.87880364136E+03  0.96963585756E+03  0.40000000000E+03 0.  1.
<mgrwt>
<rscale>  2 0.40975341E+03</rscale>
<asrwt>0</asrwt>
<pdfrwt beam="1">  1       21 0.15721497E-01 0.40975341E+03</pdfrwt>
<pdfrwt beam="2">  1       21 0.25593078E+00 0.40975341E+03</pdfrwt>
<totfact> 0.18688457E+03</totfact>
</mgrwt>
</event>
<event>
 4    1  0.1187342E-002  0.6383423E+03  0.7818608E-02  0.9828903E-01
         21   -1    0    0  503  502  0.00000000000E+00  0.00000000000E+00  0.68738715142E+03  0.68738715142E+03  0.00000000000E+00 0. -1.
         21   -1    0    0  501  503 -0.00000000000E+00 -0.00000000000E+00 -0.61376475642E+03  0.61376475642E+03  0.00000000000E+00 0.  1.
    9000007    1    1    2  501    0  0.16462696169E+03  0.46944522490E+03 -0.83436234414E+02  0.64377205664E+03  0.40000000000E+03 0.  1.
   -9000007    1    1    2    0  502 -0.16462696169E+03 -0.46944522490E+03  0.15705862942E+03  0.65737985120E+03  0.40000000000E+03 0. -1.
<mgrwt>
<rscale>  2 0.63834227E+03</rscale>
<asrwt>0</asrwt>
<pdfrwt beam="1">  1       21 0.10575187E+00 0.63834227E+03</pdfrwt>
<pdfrwt beam="2">  1       21 0.94425347E-01 0.63834227E+03</pdfrwt>
<totfact> 0.52842528E+02</totfact>
</mgrwt>
</event>
<event>
 4    1  0.1187342E-002  0.4105186E+03  0.7818608E-02  0.1040197E+00
         21   -1    0    0  503  502  0.00000000000E+00  0.00000000000E+00  0.21136055204E+03  0.21136055204E+03  0.00000000000E+00 0. -1.
         21   -1    0    0  501  503 -0.00000000000E+00 -0.00000000000E+00 -0.93647690237E+03  0.93647690237E+03  0.00000000000E+00 0. -1.
    9000007    1    1    2  501    0 -0.89447134618E+02 -0.22906749149E+02 -0.58378016517E+03  0.71366994493E+03  0.40000000000E+03 0. -1.
   -9000007    1    1    2    0  502  0.89447134618E+02  0.22906749149E+02 -0.14133618516E+03  0.43416750948E+03  0.40000000000E+03 0. -1.
<mgrwt>
<rscale>  2 0.41051859E+03</rscale>
<asrwt>0</asrwt>
<pdfrwt beam="1">  1       21 0.32517008E-01 0.41051859E+03</pdfrwt>
<pdfrwt beam="2">  1       21 0.14407337E+00 0.41051859E+03</pdfrwt>
<totfact> 0.26456259E+03</totfact>
</mgrwt>
</event>
<event>
 4    1  0.1187342E-002  0.5628419E+03  0.7818608E-02  0.9985645E-01
         21   -1    0    0  503  502  0.00000000000E+00  0.00000000000E+00  0.14446115674E+03  0.14446115674E+03  0.00000000000E+00 0.  1.
         21   -1    0    0  501  503 -0.00000000000E+00 -0.00000000000E+00 -0.26968773856E+04  0.26968773856E+04  0.00000000000E+00 0. -1.
    9000007    1    1    2  501    0  0.34134930790E+03  0.20067812209E+03 -0.18903396297E+04  0.19723526496E+04  0.40000000000E+03 0. -1.
   -9000007    1    1    2    0  502 -0.34134930790E+03 -0.20067812209E+03 -0.66207659918E+03  0.86898589279E+03  0.40000000000E+03 0.  1.
<mgrwt>
<rscale>  2 0.56284195E+03</rscale>
<asrwt>0</asrwt>
<pdfrwt beam="1">  1       21 0.22224795E-01 0.56284195E+03</pdfrwt>
<pdfrwt beam="2">  1       21 0.41490419E+00 0.56284195E+03</pdfrwt>
<totfact> 0.93145964E+01</totfact>
</mgrwt>
</event>
<event>
 4    1  0.1187342E-002  0.5214465E+03  0.7818608E-02  0.1008328E+00
         21   -1    0    0  503  502  0.00000000000E+00  0.00000000000E+00  0.93347661538E+03  0.93347661538E+03  0.00000000000E+00 0. -1.
         21   -1    0    0  501  503 -0.00000000000E+00 -0.00000000000E+00 -0.29616171931E+03  0.29616171931E+03  0.00000000000E+00 0.  1.
    9000007    1    1    2  501    0  0.47765196626E+01  0.33449015472E+03  0.39756285725E+03  0.65571541404E+03  0.40000000000E+03 0.  1.
   -9000007    1    1    2    0  502 -0.47765196626E+01 -0.33449015472E+03  0.23975203882E+03  0.57392292066E+03  0.40000000000E+03 0. -1.
<mgrwt>
<rscale>  2 0.52144653E+03</rscale>
<asrwt>0</asrwt>
<pdfrwt beam="1">  1       21 0.14361179E+00 0.52144653E+03</pdfrwt>
<pdfrwt beam="2">  1       21 0.45563342E-01 0.52144653E+03</pdfrwt>
<totfact> 0.12800890E+03</totfact>
</mgrwt>
</event>
<event>
 4    1  0.1187342E-002  0.4333404E+03  0.7818608E-02  0.1032810E+00
         21   -1    0    0  501  502  0.00000000000E+00  0.00000000000E+00  0.89391306043E+02  0.89391306043E+02  0.00000000000E+00 0.  1.
         21   -1    0    0  502  503 -0.00000000000E+00 -0.00000000000E+00 -0.28625767643E+04  0.28625767643E+04  0.00000000000E+00 0.  1.
    9000007    1    1    2  501    0  0.14178566472E+03  0.87639968836E+02 -0.62513349465E+03  0.76064171920E+03  0.40000000000E+03 0.  1.
   -9000007    1    1    2    0  503 -0.14178566472E+03 -0.87639968836E+02 -0.21480519637E+04  0.21913263512E+04  0.40000000000E+03 0.  1.
<mgrwt>
<rscale>  2 0.43334044E+03</rscale>
<asrwt>0</asrwt>
<pdfrwt beam="1">  1       21 0.13752508E-01 0.43334044E+03</pdfrwt>
<pdfrwt beam="2">  1       21 0.44039645E+00 0.43334044E+03</pdfrwt>
<totfact> 0.16921446E+02</totfact>
</mgrwt>
</event>
<event>
 4    1  0.1187342E-002  0.6774883E+03  0.7818608E-02  0.9756524E-01
         21   -1    0    0  503  502  0.00000000000E+00  0.00000000000E+00  0.15821842511E+04  0.15821842511E+04  0.00000000000E+00 0. -1.
         21   -1    0    0  501  503 -0.00000000000E+00 -0.00000000000E+00 -0.44540255698E+03  0.44540255698E+03  0.00000000000E+00 0. -1.
    9000007    1    1    2  501    0  0.17438588275E+03  0.51824706650E+03 -0.30246029033E+02  0.67816316644E+03  0.40000000000E+03 0. -1.
   -9000007    1    1    2    0  502 -0.17438588275E+03 -0.51824706650E+03  0.11670277232E+04  0.13494236417E+04  0.40000000000E+03 0. -1.
<mgrwt>
<rscale>  2 0.67748835E+03</rscale>
<asrwt>0</asrwt>
<pdfrwt beam="1">  1       21 0.24341296E+00 0.67748835E+03</pdfrwt>
<pdfrwt beam="2">  1       21 0.68523471E-01 0.67748835E+03</pdfrwt>
<totfact> 0.99945853E+01</totfact>
</mgrwt>
</event>
<event>
 4    1  0.1187342E-002  0.5639347E+03  0.7818608E-02  0.9983191E-01
         21   -1    0    0  501  502  0.00000000000E+00  0.00000000000E+00  0.57475077468E+03  0.57475077468E+03  0.00000000000E+00 0.  1.
         21   -1    0    0  502  503 -0.00000000000E+00 -0.00000000000E+00 -0.56150505948E+03  0.56150505948E+03  0.00000000000E+00 0.  1.
    9000007    1    1    2  501    0 -0.13809533919E+03  0.37276267575E+03  0.75206908243E+02  0.56892742435E+03  0.40000000000E+03 0.  1.
   -9000007    1    1    2    0  503  0.13809533919E+03 -0.37276267575E+03 -0.61961193041E+02  0.56732840981E+03  0.40000000000E+03 0.  1.
<mgrwt>
<rscale>  2 0.56393469E+03</rscale>
<asrwt>0</asrwt>
<pdfrwt beam="1">  1       21 0.88423196E-01 0.56393469E+03</pdfrwt>
<pdfrwt beam="2">  1       21 0.86385394E-01 0.56393469E+03</pdfrwt>
<totfact> 0.10329922E+03</totfact>
</mgrwt>
</event>
<event>
 4    1  0.1187342E-002  0.4502646E+03  0.7818608E-02  0.1027643E+00
         21   -1    0    0  501  502  0.00000000000E+00  0.00000000000E+00  0.38539031295E+03  0.38539031295E+03  0.00000000000E+00 0. -1.
         21   -1    0    0  502  503 -0.00000000000E+00 -0.00000000000E+00 -0.55548427480E+03  0.55548427480E+03  0.00000000000E+00 0. -1.
    9000007    1    1    2  501    0  0.84739566229E+02  0.18856680739E+03  0.23226584959E+02  0.45086329323E+03  0.40000000000E+03 0. -1.
   -9000007    1    1    2    0  503 -0.84739566229E+02 -0.18856680739E+03 -0.19332054680E+03  0.49001129451E+03  0.40000000000E+03 0. -1.
<mgrwt>
<rscale>  2 0.45026463E+03</rscale>
<asrwt>0</asrwt>
<pdfrwt beam="1">  1       21 0.59290817E-01 0.45026463E+03</pdfrwt>
<pdfrwt beam="2">  1       21 0.85459119E-01 0.45026463E+03</pdfrwt>
<totfact> 0.27333119E+03</totfact>
</mgrwt>
</event>
<event>
 4    1  0.1187342E-002  0.5280623E+03  0.7818608E-02  0.1006703E+00
         21   -1    0    0  503  502  0.00000000000E+00  0.00000000000E+00  0.58178024925E+03  0.58178024925E+03  0.00000000000E+00 0. -1.
         21   -1    0    0  501  503 -0.00000000000E+00 -0.00000000000E+00 -0.47931071054E+03  0.47931071054E+03  0.00000000000E+00 0.  1.
    9000007    1    1    2  501    0  0.29447900426E+03  0.17925388100E+03  0.53158662016E+02  0.53073127018E+03  0.40000000000E+03 0.  1.
   -9000007    1    1    2    0  502 -0.29447900426E+03 -0.17925388100E+03  0.49310876691E+02  0.53035968961E+03  0.40000000000E+03 0. -1.
<mgrwt>
<rscale>  2 0.52806234E+03</rscale>
<asrwt>0</asrwt>
<pdfrwt beam="1">  1       21 0.89504654E-01 0.52806234E+03</pdfrwt>
<pdfrwt beam="2">  1       21 0.73740109E-01 0.52806234E+03</pdfrwt>
<totfact> 0.14659765E+03</totfact>
</mgrwt>
</event>
<event>
 4    1  0.1187342E-002  0.5720959E+03  0.7818608E-02  0.9965051E-01
         21   -1    0    0  501  502  0.00000000000E+00  0.00000000000E+00  0.45612541377E+03  0.45612541377E+03  0.00000000000E+00 0. -1.
         21   -1    0    0  502  503 -0.00000000000E+00 -0.00000000000E+00 -0.91728358480E+03  0.91728358480E+03  0.00000000000E+00 0.  1.
    9000007    1    1    2  501    0 -0.39784948232E+03  0.94918186795E+02  0.89857081295E+02  0.57910963368E+03  0.40000000000E+03 0. -1.
   -9000007    1    1    2    0  503  0.39784948232E+03 -0.94918186795E+02 -0.55101525233E+03  0.79429936489E+03  0.40000000000E+03 0.  1.
<mgrwt>
<rscale>  2 0.57209586E+03</rscale>
<asrwt>0</asrwt>
<pdfrwt beam="1">  1       21 0.70173140E-01 0.57209586E+03</pdfrwt>
<pdfrwt beam="2">  1       21 0.14112055E+00 0.57209586E+03</pdfrwt>
<totfact> 0.51392703E+02</totfact>
</mgrwt>
</event>
<event>
 4    1  0.1187342E-002  0.4390400E+03  0.7818608E-02  0.1031042E+00
         21   -1    0    0  503  502  0.00000000000E+00  0.00000000000E+00  0.17471362996E+04  0.17471362996E+04  0.00000000000E+00 0.  1.
         21   -1    0    0  501  503 -0.00000000000E+00 -0.00000000000E+00 -0.43828348354E+03  0.43828348354E+03  0.00000000000E+00 0.  1.
    9000007    1    1    2  501    0 -0.91480915676E+02 -0.15616466310E+03 -0.29079921992E+03  0.52661214023E+03  0.40000000000E+03 0. -1.
   -9000007    1    1    2    0  502  0.91480915676E+02  0.15616466310E+03  0.15996520360E+04  0.16588076429E+04  0.40000000000E+03 0. -1.
<mgrwt>
<rscale>  2 0.43904004E+03</rscale>
<asrwt>0</asrwt>
<pdfrwt beam="1">  1       21 0.26879020E+00 0.43904004E+03</pdfrwt>
<pdfrwt beam="2">  1       21 0.67428229E-01 0.43904004E+03</pdfrwt>
<totfact> 0.81342465E+01</totfact>
</mgrwt>
</event>
<event>
 4    1  0.1187342E-002  0.4336194E+03  0.7818608E-02  0.1032723E+00
         21   -1    0    0  503  502  0.00000000000E+00  0.00000000000E+00  0.52824585832E+03  0.52824585832E+03  0.00000000000E+00 0. -1.
         21   -1    0    0  501  503 -0.00000000000E+00 -0.00000000000E+00 -0.35903605394E+03  0.35903605394E+03  0.00000000000E+00 0. -1.
    9000007    1    1    2  501    0  0.63392917034E+02 -0.15494230304E+03  0.12577747565E+03  0.45149280457E+03  0.40000000000E+03 0. -1.
   -9000007    1    1    2    0  502 -0.63392917034E+02  0.15494230304E+03  0.43432328731E+02  0.43578910769E+03  0.40000000000E+03 0. -1.
<mgrwt>
<rscale>  2 0.43361939E+03</rscale>
<asrwt>0</asrwt>
<pdfrwt beam="1">  1       21 0.81268594E-01 0.43361939E+03</pdfrwt>
<pdfrwt beam="2">  1       21 0.55236316E-01 0.43361939E+03</pdfrwt>
<totfact> 0.36055913E+03</totfact>
</mgrwt>
</event>
<event>
 4    1  0.1187342E-002  0.4341334E+03  0.7818608E-02  0.1032562E+00
         21   -1    0    0  503  502  0.00000000000E+00  0.00000000000E+00  0.17494055484E+03  0.17494055484E+03  0.00000000000E+00 0. -1.
         21   -1    0    0  501  503 -0.00000000000E+00 -0.00000000000E+00 -0.11790614941E+04  0.11790614941E+04  0.00000000000E+00 0. -1.
    9000007    1    1    2  501    0 -0.29335285435E+02  0.16616639939E+03 -0.70090364831E+03  0.82446210069E+03  0.40000000000E+03 0. -1.
   -9000007    1    1    2    0  502  0.29335285435E+02 -0.16616639939E+03 -0.30321729095E+03  0.52953994825E+03  0.40000000000E+03 0. -1.
<mgrwt>
<rscale>  2 0.43413343E+03</rscale>
<asrwt>0</asrwt>
<pdfrwt beam="1">  1       21 0.26913933E-01 0.43413343E+03</pdfrwt>
<pdfrwt beam="2">  1       21 0.18139407E+00 0.43413343E+03</pdfrwt>
<totfact> 0.20029108E+03</totfact>
</mgrwt>
</event>
<event>
 4    1  0.1187342E-002  0.4202426E+03  0.7818608E-02  0.1036987E+00
         21   -1    0    0  501  502  0.00000000000E+00  0.00000000000E+00  0.12103872751E+03  0.12103872751E+03  0.00000000000E+00 0.  1.
         21   -1    0    0  502  503 -0.00000000000E+00 -0.00000000000E+00 -0.14779890759E+04  0.14779890759E+04  0.00000000000E+00 0. -1.
    9000007    1    1    2  501    0  0.11077268505E+03 -0.65827261216E+02 -0.76893495805E+03  0.87627894291E+03  0.40000000000E+03 0.  1.
   -9000007    1    1    2    0  503 -0.11077268505E+03  0.65827261216E+02 -0.58801539034E+03  0.72274886049E+03  0.40000000000E+03 0. -1.
<mgrwt>
<rscale>  2 0.42024257E+03</rscale>
<asrwt>0</asrwt>
<pdfrwt beam="1">  1       21 0.18621343E-01 0.42024257E+03</pdfrwt>
<pdfrwt beam="2">  1       21 0.22738293E+00 0.42024257E+03</pdfrwt>
<totfact> 0.20327317E+03</totfact>
</mgrwt>
</event>
<event>
 4    1  0.1187342E-002  0.4388578E+03  0.7818608E-02  0.1031098E+00
         21   -1    0    0  503  502  0.00000000000E+00  0.00000000000E+00  0.22346145152E+04  0.22346145152E+04  0.00000000000E+00 0.  1.
         21   -1    0    0  501  503 -0.00000000000E+00 -0.00000000000E+00 -0.95930785190E+02  0.95930785190E+02  0.00000000000E+00 0.  1.
    9000007    1    1    2  501    0  0.90751832065E+02 -0.15607777751E+03  0.69797942331E+03  0.82448253045E+03  0.40000000000E+03 0.  1.
   -9000007    1    1    2    0  502 -0.90751832065E+02  0.15607777751E+03  0.14407043067E+04  0.15060627700E+04  0.40000000000E+03 0.  1.
<mgrwt>
<rscale>  2 0.43885780E+03</rscale>
<asrwt>0</asrwt>
<pdfrwt beam="1">  1       21 0.34378681E+00 0.43885780E+03</pdfrwt>
<pdfrwt beam="2">  1       21 0.14758584E-01 0.43885780E+03</pdfrwt>
<totfact> 0.61062313E+02</totfact>
</mgrwt>
</event>
<event>
 4    1  0.1187342E-002  0.5105332E+03  0.7818608E-02  0.1011066E+00
         21   -1    0    0  503  502  0.00000000000E+00  0.00000000000E+00  0.14061885046E+04  0.14061885046E+04  0.00000000000E+00 0.  1.
         21   -1    0    0  501  503 -0.00000000000E+00 -0.00000000000E+00 -0.24903311692E+03  0.24903311692E+03  0.00000000000E+00 0. -1.
    9000007    1    1    2  501    0  0.15759290622E+03  0.27533371835E+03  0.99707478282E+03  0.11201795852E+04  0.40000000000E+03 0.  1.
   -9000007    1    1    2    0  502 -0.15759290622E+03 -0.27533371835E+03  0.16008060482E+03  0.53504203629E+03  0.40000000000E+03 0. -1.
<mgrwt>
<rscale>  2 0.51053323E+03</rscale>
<asrwt>0</asrwt>
<pdfrwt beam="1">  1       21 0.21633669E+00 0.51053323E+03</pdfrwt>
<pdfrwt beam="2">  1       21 0.38312788E-01 0.51053323E+03</pdfrwt>
<totfact> 0.55602916E+02</totfact>
</mgrwt>
</event>
<event>
 4    1  0.1187342E-002  0.4145763E+03  0.7818608E-02  0.1038846E+00
         21   -1    0    0  501  502  0.00000000000E+00  0.00000000000E+00  0.24231266115E+03  0.24231266115E+03  0.00000000000E+00 0.  1.
         21   -1    0    0  502  503 -0.00000000000E+00 -0.00000000000E+00 -0.79389468789E+03  0.79389468789E+03  0.00000000000E+00 0.  1.
    9000007    1    1    2  501    0  0.31873098275E+02  0.10419982861E+03 -0.10667107191E+03  0.42807968447E+03  0.40000000000E+03 0.  1.
   -9000007    1    1    2    0  503 -0.31873098275E+02 -0.10419982861E+03 -0.44491095484E+03  0.60812766457E+03  0.40000000000E+03 0.  1.
<mgrwt>
<rscale>  2 0.41457629E+03</rscale>
<asrwt>0</asrwt>
<pdfrwt beam="1">  1       21 0.37278871E-01 0.41457629E+03</pdfrwt>
<pdfrwt beam="2">  1       21 0.12213764E+00 0.41457629E+03</pdfrwt>
<totfact> 0.30834281E+03</totfact>
</mgrwt>
</event>
<event>
 4    1  0.1187342E-002  0.4039161E+03  0.7818608E-02  0.1042432E+00
         21   -1    0    0  501  502  0.00000000000E+00  0.00000000000E+00  0.84949660631E+02  0.84949660631E+02  0.00000000000E+00 0.  1.
         21   -1    0    0  502  503 -0.00000000000E+00 -0.00000000000E+00 -0.27564733877E+04  0.27564733877E+04  0.00000000000E+00 0.  1.
    9000007    1    1    2  501    0 -0.19165543639E+02  0.52733931879E+02 -0.55338138840E+03  0.68511250657E+03  0.40000000000E+03 0.  1.
   -9000007    1    1    2    0  503  0.19165543639E+02 -0.52733931879E+02 -0.21181423387E+04  0.21563105418E+04  0.40000000000E+03 0.  1.
<mgrwt>
<rscale>  2 0.40391606E+03</rscale>
<asrwt>0</asrwt>
<pdfrwt beam="1">  1       21 0.13069178E-01 0.40391606E+03</pdfrwt>
<pdfrwt beam="2">  1       21 0.42407284E+00 0.40391606E+03</pdfrwt>
<totfact> 0.24353851E+02</totfact>
</mgrwt>
</event>
<event>
 4    1  0.1187342E-002  0.4189802E+03  0.7818608E-02  0.1037399E+00
         21   -1    0    0  501  502  0.00000000000E+00  0.00000000000E+00  0.48191972712E+03  0.48191972712E+03  0.00000000000E+00 0. -1.
         21   -1    0    0  502  503 -0.00000000000E+00 -0.00000000000E+00 -0.60125778168E+03  0.60125778168E+03  0.00000000000E+00 0.  1.
    9000007    1    1    2  501    0  0.10933066232E+03 -0.59926455004E+02  0.28035598472E+03  0.50412682125E+03  0.40000000000E+03 0. -1.
   -9000007    1    1    2    0  503 -0.10933066232E+03  0.59926455004E+02 -0.39969403928E+03  0.57905068756E+03  0.40000000000E+03 0.  1.
<mgrwt>
<rscale>  2 0.41898016E+03</rscale>
<asrwt>0</asrwt>
<pdfrwt beam="1">  1       21 0.74141497E-01 0.41898016E+03</pdfrwt>
<pdfrwt beam="2">  1       21 0.92501196E-01 0.41898016E+03</pdfrwt>
<totfact> 0.13946266E+03</totfact>
</mgrwt>
</event>
<event>
 4    1  0.1187342E-002  0.4598482E+03  0.7818608E-02  0.1024825E+00
         21   -1    0    0  501  502  0.00000000000E+00  0.00000000000E+00  0.36880076210E+03  0.36880076210E+03  0.00000000000E+00 0.  1.
         21   -1    0    0  502  503 -0.00000000000E+00 -0.00000000000E+00 -0.58332059846E+03  0.58332059846E+03  0.00000000000E+00 0.  1.
    9000007    1    1    2  501    0 -0.22682563144E+03 -0.32413674367E+01 -0.16942826353E+03  0.49006765862E+03  0.40000000000E+03 0. -1.
   -9000007    1    1    2    0  503  0.22682563144E+03  0.32413674367E+01 -0.45091572829E+02  0.46205370194E+03  0.40000000000E+03 0. -1.
<mgrwt>
<rscale>  2 0.45984821E+03</rscale>
<asrwt>0</asrwt>
<pdfrwt beam="1">  1       21 0.56738579E-01 0.45984821E+03</pdfrwt>
<pdfrwt beam="2">  1       21 0.89741630E-01 0.45984821E+03</pdfrwt>
<totfact> 0.26720038E+03</totfact>
</mgrwt>
</event>
<event>
 4    1  0.1187342E-002  0.4279133E+03  0.7818608E-02  0.1034521E+00
         21   -1    0    0  501  502  0.00000000000E+00  0.00000000000E+00  0.45577007468E+03  0.45577007468E+03  0.00000000000E+00 0.  1.
         21   -1    0    0  502  503 -0.00000000000E+00 -0.00000000000E+00 -0.40604003185E+03  0.40604003185E+03  0.00000000000E+00 0.  1.
    9000007    1    1    2  501    0  0.66528843023E+02 -0.13668846822E+03  0.69109678351E+02  0.43345815477E+03  0.40000000000E+03 0.  1.
   -9000007    1    1    2    0  503 -0.66528843023E+02  0.13668846822E+03 -0.19379635519E+02  0.42835195175E+03  0.40000000000E+03 0.  1.
<mgrwt>
<rscale>  2 0.42791334E+03</rscale>
<asrwt>0</asrwt>
<pdfrwt beam="1">  1       21 0.70118473E-01 0.42791334E+03</pdfrwt>
<pdfrwt beam="2">  1       21 0.62467697E-01 0.42791334E+03</pdfrwt>
<totfact> 0.38686326E+03</totfact>
</mgrwt>
</event>
<event>
 4    1  0.1187342E-002  0.4426329E+03  0.7818608E-02  0.1029942E+00
         21   -1    0    0  501  502  0.00000000000E+00  0.00000000000E+00  0.57497116308E+03  0.57497116308E+03  0.00000000000E+00 0.  1.
         21   -1    0    0  502  503 -0.00000000000E+00 -0.00000000000E+00 -0.48762977649E+03  0.48762977649E+03  0.00000000000E+00 0.  1.
    9000007    1    1    2  501    0 -0.15649394804E+03  0.10692774341E+03  0.33525874940E+03  0.55526779767E+03  0.40000000000E+03 0.  1.
   -9000007    1    1    2    0  503  0.15649394804E+03 -0.10692774341E+03 -0.24791736281E+03  0.50733314190E+03  0.40000000000E+03 0.  1.
<mgrwt>
<rscale>  2 0.44263292E+03</rscale>
<asrwt>0</asrwt>
<pdfrwt beam="1">  1       21 0.88457101E-01 0.44263292E+03</pdfrwt>
<pdfrwt beam="2">  1       21 0.75019966E-01 0.44263292E+03</pdfrwt>
<totfact> 0.14948331E+03</totfact>
</mgrwt>
</event>
<event>
 4    1  0.1187342E-002  0.4512302E+03  0.7818608E-02  0.1027356E+00
         21   -1    0    0  503  502  0.00000000000E+00  0.00000000000E+00  0.10955649555E+04  0.10955649555E+04  0.00000000000E+00 0.  1.
         21   -1    0    0  501  503 -0.00000000000E+00 -0.00000000000E+00 -0.19247914632E+03  0.19247914632E+03  0.00000000000E+00 0.  1.
    9000007    1    1    2  501    0 -0.21726746513E+02 -0.20769358120E+03  0.33200665269E+03  0.56021164984E+03  0.40000000000E+03 0.  1.
   -9000007    1    1    2    0  502  0.21726746513E+02  0.20769358120E+03  0.57107915653E+03  0.72783245202E+03  0.40000000000E+03 0.  1.
<mgrwt>
<rscale>  2 0.45123018E+03</rscale>
<asrwt>0</asrwt>
<pdfrwt beam="1">  1       21 0.16854845E+00 0.45123018E+03</pdfrwt>
<pdfrwt beam="2">  1       21 0.29612177E-01 0.45123018E+03</pdfrwt>
<totfact> 0.20355684E+03</totfact>
</mgrwt>
</event>
<event>
 4    1  0.1187342E-002  0.4467945E+03  0.7818608E-02  0.1028682E+00
         21   -1    0    0  501  502  0.00000000000E+00  0.00000000000E+00  0.28203079715E+03  0.28203079715E+03  0.00000000000E+00 0.  1.
         21   -1    0    0  502  503 -0.00000000000E+00 -0.00000000000E+00 -0.17628213393E+04  0.17628213393E+04  0.00000000000E+00 0.  1.
    9000007    1    1    2  501    0 -0.14454020811E+03 -0.13687032193E+03  0.50566506958E+02  0.44964689303E+03  0.40000000000E+03 0.  1.
   -9000007    1    1    2    0  503  0.14454020811E+03  0.13687032193E+03 -0.15313570491E+04  0.15952052434E+04  0.40000000000E+03 0.  1.
<mgrwt>
<rscale>  2 0.44679454E+03</rscale>
<asrwt>0</asrwt>
<pdfrwt beam="1">  1       21 0.43389352E-01 0.44679454E+03</pdfrwt>
<pdfrwt beam="2">  1       21 0.27120329E+00 0.44679454E+03</pdfrwt>
<totfact> 0.20242444E+02</totfact>
</mgrwt>
</event>
<event>
 4    1  0.1187342E-002  0.5482584E+03  0.7818608E-02  0.1001898E+00
         21   -1    0    0  503  502  0.00000000000E+00  0.00000000000E+00  0.10021313463E+04  0.10021313463E+04  0.00000000000E+00 0. -1.
         21   -1    0    0  501  503 -0.00000000000E+00 -0.00000000000E+00 -0.30835069828E+03  0.30835069828E+03  0.00000000000E+00 0.  1.
    9000007    1    1    2  501    0  0.15005083340E+03  0.34361613593E+03  0.45505557910E+03  0.71250465370E+03  0.40000000000E+03 0.  1.
   -9000007    1    1    2    0  502 -0.15005083340E+03 -0.34361613593E+03  0.23872506894E+03  0.59797739089E+03  0.40000000000E+03 0. -1.
<mgrwt>
<rscale>  2 0.54825843E+03</rscale>
<asrwt>0</asrwt>
<pdfrwt beam="1">  1       21 0.15417405E+00 0.54825843E+03</pdfrwt>
<pdfrwt beam="2">  1       21 0.47438569E-01 0.54825843E+03</pdfrwt>
<totfact> 0.95980747E+02</totfact>
</mgrwt>
</event>
<event>
 4    1  0.1187342E-002  0.5374303E+03  0.7818608E-02  0.1004446E+00
         21   -1    0    0  503  502  0.00000000000E+00  0.00000000000E+00  0.83514772255E+03  0.83514772255E+03  0.00000000000E+00 0. -1.
         21   -1    0    0  501  503 -0.00000000000E+00 -0.00000000000E+00 -0.40522709601E+03  0.40522709601E+03  0.00000000000E+00 0.  1.
    9000007    1    1    2  501    0  0.34986762887E+03 -0.80149441117E+02 -0.22451925389E+02  0.53789904219E+03  0.40000000000E+03 0.  1.
   -9000007    1    1    2    0  502 -0.34986762887E+03  0.80149441117E+02  0.45237255193E+03  0.70247577637E+03  0.40000000000E+03 0. -1.
<mgrwt>
<rscale>  2 0.53743027E+03</rscale>
<asrwt>0</asrwt>
<pdfrwt beam="1">  1       21 0.12848427E+00 0.53743027E+03</pdfrwt>
<pdfrwt beam="2">  1       21 0.62342630E-01 0.53743027E+03</pdfrwt>
<totfact> 0.86872221E+02</totfact>
</mgrwt>
</event>
<event>
 4    1  0.1187342E-002  0.4052865E+03  0.7818608E-02  0.1041964E+00
         21   -1    0    0  503  502  0.00000000000E+00  0.00000000000E+00  0.37859869927E+03  0.37859869927E+03  0.00000000000E+00 0. -1.
         21   -1    0    0  501  503 -0.00000000000E+00 -0.00000000000E+00 -0.59173375927E+03  0.59173375927E+03  0.00000000000E+00 0. -1.
    9000007    1    1    2  501    0 -0.15264102193E+02  0.63436463111E+02 -0.35717174662E+03  0.54021184201E+03  0.40000000000E+03 0. -1.
   -9000007    1    1    2    0  502  0.15264102193E+02 -0.63436463111E+02  0.14403668662E+03  0.43012061652E+03  0.40000000000E+03 0. -1.
<mgrwt>
<rscale>  2 0.40528654E+03</rscale>
<asrwt>0</asrwt>
<pdfrwt beam="1">  1       21 0.58245954E-01 0.40528654E+03</pdfrwt>
<pdfrwt beam="2">  1       21 0.91035962E-01 0.40528654E+03</pdfrwt>
<totfact> 0.24906997E+03</totfact>
</mgrwt>
</event>
<event>
 4    1  0.1187342E-002  0.5267233E+03  0.7818608E-02  0.1007030E+00
         21   -1    0    0  501  502  0.00000000000E+00  0.00000000000E+00  0.40210017522E+03  0.40210017522E+03  0.00000000000E+00 0.  1.
         21   -1    0    0  502  503 -0.00000000000E+00 -0.00000000000E+00 -0.12359286701E+04  0.12359286701E+04  0.00000000000E+00 0.  1.
    9000007    1    1    2  501    0 -0.65576443753E+02  0.33635867524E+03  0.12743090957E+03  0.54191887317E+03  0.40000000000E+03 0.  1.
   -9000007    1    1    2    0  503  0.65576443753E+02 -0.33635867524E+03 -0.96125940441E+03  0.10961099721E+04  0.40000000000E+03 0.  1.
<mgrwt>
<rscale>  2 0.52672329E+03</rscale>
<asrwt>0</asrwt>
<pdfrwt beam="1">  1       21 0.61861565E-01 0.52672329E+03</pdfrwt>
<pdfrwt beam="2">  1       21 0.19014287E+00 0.52672329E+03</pdfrwt>
<totfact> 0.29783423E+02</totfact>
</mgrwt>
</event>
<event>
 4    1  0.1187342E-002  0.4252453E+03  0.7818608E-02  0.1035373E+00
         21   -1    0    0  501  502  0.00000000000E+00  0.00000000000E+00  0.14392838583E+04  0.14392838583E+04  0.00000000000E+00 0. -1.
         21   -1    0    0  502  503 -0.00000000000E+00 -0.00000000000E+00 -0.13407967022E+03  0.13407967022E+03  0.00000000000E+00 0. -1.
    9000007    1    1    2  501    0  0.23118238846E+02  0.14247486249E+03  0.84995617483E+03  0.95039941001E+03  0.40000000000E+03 0. -1.
   -9000007    1    1    2    0  503 -0.23118238846E+02 -0.14247486249E+03  0.45524801328E+03  0.62296411855E+03  0.40000000000E+03 0. -1.
<mgrwt>
<rscale>  2 0.42524527E+03</rscale>
<asrwt>0</asrwt>
<pdfrwt beam="1">  1       21 0.22142828E+00 0.42524527E+03</pdfrwt>
<pdfrwt beam="2">  1       21 0.20627643E-01 0.42524527E+03</pdfrwt>
<totfact> 0.18213829E+03</totfact>
</mgrwt>
</event>
<event>
 4    1  0.1187342E-002  0.8150615E+03  0.7818608E-02  0.9538469E-01
         21   -1    0    0  503  502  0.00000000000E+00  0.00000000000E+00  0.10511813218E+04  0.10511813218E+04  0.00000000000E+00 0.  1.
         21   -1    0    0  501  503 -0.00000000000E+00 -0.00000000000E+00 -0.70483437291E+03  0.70483437291E+03  0.00000000000E+00 0. -1.
    9000007    1    1    2  501    0 -0.66211009314E+03 -0.25677894375E+03 -0.10910887422E+03  0.82233201800E+03  0.40000000000E+03 0. -1.
   -9000007    1    1    2    0  502  0.66211009314E+03  0.25677894375E+03  0.45545582314E+03  0.93368367675E+03  0.40000000000E+03 0.  1.
<mgrwt>
<rscale>  2 0.81506147E+03</rscale>
<asrwt>0</asrwt>
<pdfrwt beam="1">  1       21 0.16172020E+00 0.81506147E+03</pdfrwt>
<pdfrwt beam="2">  1       21 0.10843606E+00 0.81506147E+03</pdfrwt>
<totfact> 0.11583270E+02</totfact>
</mgrwt>
</event>
<event>
 4    1  0.1187342E-002  0.4284052E+03  0.7818608E-02  0.1034365E+00
         21   -1    0    0  503  502  0.00000000000E+00  0.00000000000E+00  0.51615225815E+03  0.51615225815E+03  0.00000000000E+00 0. -1.
         21   -1    0    0  501  503 -0.00000000000E+00 -0.00000000000E+00 -0.35758187715E+03  0.35758187715E+03  0.00000000000E+00 0. -1.
    9000007    1    1    2  501    0  0.14473463283E+03 -0.50822651401E+02  0.46560425854E+02  0.43092798597E+03  0.40000000000E+03 0.  1.
   -9000007    1    1    2    0  502 -0.14473463283E+03  0.50822651401E+02  0.11200995515E+03  0.44280614933E+03  0.40000000000E+03 0.  1.
<mgrwt>
<rscale>  2 0.42840525E+03</rscale>
<asrwt>0</asrwt>
<pdfrwt beam="1">  1       21 0.79408040E-01 0.42840525E+03</pdfrwt>
<pdfrwt beam="2">  1       21 0.55012596E-01 0.42840525E+03</pdfrwt>
<totfact> 0.38443314E+03</totfact>
</mgrwt>
</event>
<event>
 4    1  0.1187342E-002  0.5432709E+03  0.7818608E-02  0.1003064E+00
         21   -1    0    0  501  502  0.00000000000E+00  0.00000000000E+00  0.35914946010E+03  0.35914946010E+03  0.00000000000E+00 0.  1.
         21   -1    0    0  502  503 -0.00000000000E+00 -0.00000000000E+00 -0.84013842601E+03  0.84013842601E+03  0.00000000000E+00 0. -1.
    9000007    1    1    2  501    0  0.19360519840E+02 -0.36710823945E+03 -0.15186297773E+03  0.56409720191E+03  0.40000000000E+03 0.  1.
   -9000007    1    1    2    0  503 -0.19360519840E+02  0.36710823945E+03 -0.32912598817E+03  0.63519068420E+03  0.40000000000E+03 0. -1.
<mgrwt>
<rscale>  2 0.54327092E+03</rscale>
<asrwt>0</asrwt>
<pdfrwt beam="1">  1       21 0.55253764E-01 0.54327092E+03</pdfrwt>
<pdfrwt beam="2">  1       21 0.12925206E+00 0.54327092E+03</pdfrwt>
<totfact> 0.11122152E+03</totfact>
</mgrwt>
</event>
<event>
 4    1  0.1187342E-002  0.4292404E+03  0.7818608E-02  0.1034100E+00
         21   -1    0    0  503  502  0.00000000000E+00  0.00000000000E+00  0.34879761209E+03  0.34879761209E+03  0.00000000000E+00 0. -1.
         21   -1    0    0  501  503 -0.00000000000E+00 -0.00000000000E+00 -0.55863551302E+03  0.55863551302E+03  0.00000000000E+00 0. -1.
    9000007    1    1    2  501    0  0.94657609103E+02  0.12364159362E+03 -0.21076063006E+03  0.47819175005E+03  0.40000000000E+03 0. -1.
   -9000007    1    1    2    0  502 -0.94657609103E+02 -0.12364159362E+03  0.92272913125E+00  0.42924137506E+03  0.40000000000E+03 0. -1.
<mgrwt>
<rscale>  2 0.42924038E+03</rscale>
<asrwt>0</asrwt>
<pdfrwt beam="1">  1       21 0.53661171E-01 0.42924038E+03</pdfrwt>
<pdfrwt beam="2">  1       21 0.85943925E-01 0.42924038E+03</pdfrwt>
<totfact> 0.33739586E+03</totfact>
</mgrwt>
</event>
<event>
 4    1  0.1187342E-002  0.4836297E+03  0.7818608E-02  0.1018142E+00
         21   -1    0    0  501  502  0.00000000000E+00  0.00000000000E+00  0.20783816535E+03  0.20783816535E+03  0.00000000000E+00 0.  1.
         21   -1    0    0  502  503 -0.00000000000E+00 -0.00000000000E+00 -0.13050734097E+04  0.13050734097E+04  0.00000000000E+00 0. -1.
    9000007    1    1    2  501    0 -0.19265342139E+03 -0.19178731744E+03 -0.82930798031E+03  0.96002575076E+03  0.40000000000E+03 0. -1.
   -9000007    1    1    2    0  503  0.19265342139E+03  0.19178731744E+03 -0.26792726408E+03  0.55288582433E+03  0.40000000000E+03 0.  1.
<mgrwt>
<rscale>  2 0.48362973E+03</rscale>
<asrwt>0</asrwt>
<pdfrwt beam="1">  1       21 0.31975104E-01 0.48362973E+03</pdfrwt>
<pdfrwt beam="2">  1       21 0.20078052E+00 0.48362973E+03</pdfrwt>
<totfact> 0.10270374E+03</totfact>
</mgrwt>
</event>
<event>
 4    1  0.1187342E-002  0.5274090E+03  0.7818608E-02  0.1006862E+00
         21   -1    0    0  503  502  0.00000000000E+00  0.00000000000E+00  0.15885863328E+03  0.15885863328E+03  0.00000000000E+00 0. -1.
         21   -1    0    0  501  503 -0.00000000000E+00 -0.00000000000E+00 -0.21113966335E+04  0.21113966335E+04  0.00000000000E+00 0. -1.
    9000007    1    1    2  501    0  0.28541973789E+03  0.19156163999E+03 -0.14452493164E+04  0.15384751786E+04  0.40000000000E+03 0. -1.
   -9000007    1    1    2    0  502 -0.28541973789E+03 -0.19156163999E+03 -0.50728868385E+03  0.73178008818E+03  0.40000000000E+03 0. -1.
<mgrwt>
<rscale>  2 0.52740903E+03</rscale>
<asrwt>0</asrwt>
<pdfrwt beam="1">  1       21 0.24439790E-01 0.52740903E+03</pdfrwt>
<pdfrwt beam="2">  1       21 0.32483024E+00 0.52740903E+03</pdfrwt>
<totfact> 0.29117618E+02</totfact>
</mgrwt>
</event>
<event>
 4    1  0.1187342E-002  0.4352370E+03  0.7818608E-02  0.1032218E+00
         21   -1    0    0  503  502  0.00000000000E+00  0.00000000000E+00  0.37177206379E+03  0.37177206379E+03  0.00000000000E+00 0.  1.
         21   -1    0    0  501  503 -0.00000000000E+00 -0.00000000000E+00 -0.63692382056E+03  0.63692382056E+03  0.00000000000E+00 0.  1.
    9000007    1    1    2  501    0  0.92535056812E+02 -0.14445923046E+03 -0.35812994635E+03  0.56363841643E+03  0.40000000000E+03 0.  1.
   -9000007    1    1    2    0  502 -0.92535056812E+02  0.14445923046E+03  0.92978189579E+02  0.44505746791E+03  0.40000000000E+03 0.  1.
<mgrwt>
<rscale>  2 0.43523695E+03</rscale>
<asrwt>0</asrwt>
<pdfrwt beam="1">  1       21 0.57195703E-01 0.43523695E+03</pdfrwt>
<pdfrwt beam="2">  1       21 0.97988278E-01 0.43523695E+03</pdfrwt>
<totfact> 0.21477438E+03</totfact>
</mgrwt>
</event>
<event>
 4    1  0.1187342E-002  0.4630279E+03  0.7818608E-02  0.1023907E+00
         21   -1    0    0  503  502  0.00000000000E+00  0.00000000000E+00  0.28576713121E+04  0.28576713121E+04  0.00000000000E+00 0. -1.
         21   -1    0    0  501  503 -0.00000000000E+00 -0.00000000000E+00 -0.75966177025E+02  0.75966177025E+02  0.00000000000E+00 0.  1.
    9000007    1    1    2  501    0 -0.11420653898E+03 -0.20335124671E+03  0.12275257476E+04  0.13119505799E+04  0.40000000000E+03 0.  1.
   -9000007    1    1    2    0  502  0.11420653898E+03  0.20335124671E+03  0.15541793875E+04  0.16216869092E+04  0.40000000000E+03 0. -1.
<mgrwt>
<rscale>  2 0.46302793E+03</rscale>
<asrwt>0</asrwt>
<pdfrwt beam="1">  1       21 0.43964166E+00 0.46302793E+03</pdfrwt>
<pdfrwt beam="2">  1       21 0.11687106E-01 0.46302793E+03</pdfrwt>
<totfact> 0.22593902E+02</totfact>
</mgrwt>
</event>
<event>
 4    1  0.1187342E-002  0.4461481E+03  0.7818608E-02  0.1028877E+00
         21   -1    0    0  501  502  0.00000000000E+00  0.00000000000E+00  0.56379881115E+03  0.56379881115E+03  0.00000000000E+00 0. -1.
         21   -1    0    0  502  503 -0.00000000000E+00 -0.00000000000E+00 -0.35394463491E+03  0.35394463491E+03  0.00000000000E+00 0. -1.
    9000007    1    1    2  501    0 -0.17713209819E+03  0.87591716171E+02  0.81832428003E+02  0.45359082357E+03  0.40000000000E+03 0. -1.
   -9000007    1    1    2    0  503  0.17713209819E+03 -0.87591716171E+02  0.12802174823E+03  0.46415262250E+03  0.40000000000E+03 0. -1.
<mgrwt>
<rscale>  2 0.44614806E+03</rscale>
<asrwt>0</asrwt>
<pdfrwt beam="1">  1       21 0.86738278E-01 0.44614806E+03</pdfrwt>
<pdfrwt beam="2">  1       21 0.54453021E-01 0.44614806E+03</pdfrwt>
<totfact> 0.31800566E+03</totfact>
</mgrwt>
</event>
<event>
 4    1  0.1187342E-002  0.4073743E+03  0.7818608E-02  0.1041256E+00
         21   -1    0    0  503  502  0.00000000000E+00  0.00000000000E+00  0.43679318582E+03  0.43679318582E+03  0.00000000000E+00 0.  1.
         21   -1    0    0  501  503 -0.00000000000E+00 -0.00000000000E+00 -0.43509597908E+03  0.43509597908E+03  0.00000000000E+00 0.  1.
    9000007    1    1    2  501    0  0.29821653239E+02 -0.71165260719E+02 -0.15437132060E+03  0.43564243361E+03  0.40000000000E+03 0.  1.
   -9000007    1    1    2    0  502 -0.29821653239E+02  0.71165260719E+02  0.15606852734E+03  0.43624673129E+03  0.40000000000E+03 0.  1.
<mgrwt>
<rscale>  2 0.40737431E+03</rscale>
<asrwt>0</asrwt>
<pdfrwt beam="1">  1       21 0.67198952E-01 0.40737431E+03</pdfrwt>
<pdfrwt beam="2">  1       21 0.66937843E-01 0.40737431E+03</pdfrwt>
<totfact> 0.36786156E+03</totfact>
</mgrwt>
</event>
<event>
 4    1  0.1187342E-002  0.4065150E+03  0.7818608E-02  0.1041547E+00
         21   -1    0    0  503  502  0.00000000000E+00  0.00000000000E+00  0.23427854208E+03  0.23427854208E+03  0.00000000000E+00 0.  1.
         21   -1    0    0  501  503 -0.00000000000E+00 -0.00000000000E+00 -0.82249108695E+03  0.82249108695E+03  0.00000000000E+00 0.  1.
    9000007    1    1    2  501    0  0.66473674890E+02  0.28907968710E+02 -0.49349080889E+03  0.63936499636E+03  0.40000000000E+03 0.  1.
   -9000007    1    1    2    0  502 -0.66473674890E+02 -0.28907968710E+02 -0.94721735983E+02  0.41740463267E+03  0.40000000000E+03 0.  1.
<mgrwt>
<rscale>  2 0.40651497E+03</rscale>
<asrwt>0</asrwt>
<pdfrwt beam="1">  1       21 0.36042853E-01 0.40651497E+03</pdfrwt>
<pdfrwt beam="2">  1       21 0.12653709E+00 0.40651497E+03</pdfrwt>
<totfact> 0.30256705E+03</totfact>
</mgrwt>
</event>
<event>
 4    1  0.1187342E-002  0.5844053E+03  0.7818608E-02  0.9938299E-01
         21   -1    0    0  503  502  0.00000000000E+00  0.00000000000E+00  0.27762414032E+03  0.27762414032E+03  0.00000000000E+00 0. -1.
         21   -1    0    0  501  503 -0.00000000000E+00 -0.00000000000E+00 -0.12508046284E+04  0.12508046284E+04  0.00000000000E+00 0. -1.
    9000007    1    1    2  501    0  0.25781941423E+02 -0.42528213124E+03 -0.58470631545E+03  0.82668680586E+03  0.40000000000E+03 0. -1.
   -9000007    1    1    2    0  502 -0.25781941423E+02  0.42528213124E+03 -0.38847417268E+03  0.70174196290E+03  0.40000000000E+03 0. -1.
<mgrwt>
<rscale>  2 0.58440534E+03</rscale>
<asrwt>0</asrwt>
<pdfrwt beam="1">  1       21 0.42711407E-01 0.58440534E+03</pdfrwt>
<pdfrwt beam="2">  1       21 0.19243148E+00 0.58440534E+03</pdfrwt>
<totfact> 0.62213895E+02</totfact>
</mgrwt>
</event>
<event>
 4    1  0.1187342E-002  0.4276331E+03  0.7818608E-02  0.1034610E+00
         21   -1    0    0  501  502  0.00000000000E+00  0.00000000000E+00  0.60273650116E+03  0.60273650116E+03  0.00000000000E+00 0. -1.
         21   -1    0    0  502  503 -0.00000000000E+00 -0.00000000000E+00 -0.32273466220E+03  0.32273466220E+03  0.00000000000E+00 0. -1.
    9000007    1    1    2  501    0 -0.37873028944E+02  0.14640935102E+03  0.25326231947E+03  0.49700288415E+03  0.40000000000E+03 0. -1.
   -9000007    1    1    2    0  503  0.37873028944E+02 -0.14640935102E+03  0.26739519491E+02  0.42846827921E+03  0.40000000000E+03 0. -1.
<mgrwt>
<rscale>  2 0.42763310E+03</rscale>
<asrwt>0</asrwt>
<pdfrwt beam="1">  1       21 0.92728692E-01 0.42763310E+03</pdfrwt>
<pdfrwt beam="2">  1       21 0.49651487E-01 0.42763310E+03</pdfrwt>
<totfact> 0.33303158E+03</totfact>
</mgrwt>
</event>
<event>
 4    1  0.1187342E-002  0.4347991E+03  0.7818608E-02  0.1032355E+00
         21   -1    0    0  503  502  0.00000000000E+00  0.00000000000E+00  0.43201832640E+03  0.43201832640E+03  0.00000000000E+00 0.  1.
         21   -1    0    0  501  503 -0.00000000000E+00 -0.00000000000E+00 -0.43773716099E+03  0.43773716099E+03  0.00000000000E+00 0. -1.
    9000007    1    1    2  501    0  0.81189914921E+02 -0.14986153454E+03 -0.10618055894E+02  0.43492875845E+03  0.40000000000E+03 0. -1.
   -9000007    1    1    2    0  502 -0.81189914921E+02  0.14986153454E+03  0.48992213031E+01  0.43482672893E+03  0.40000000000E+03 0.  1.
<mgrwt>
<rscale>  2 0.43479913E+03</rscale>
<asrwt>0</asrwt>
<pdfrwt beam="1">  1       21 0.66464358E-01 0.43479913E+03</pdfrwt>
<pdfrwt beam="2">  1       21 0.67344178E-01 0.43479913E+03</pdfrwt>
<totfact> 0.36821362E+03</totfact>
</mgrwt>
</event>
<event>
 4    1  0.1187342E-002  0.4442563E+03  0.7818608E-02  0.1029449E+00
         21   -1    0    0  501  502  0.00000000000E+00  0.00000000000E+00  0.15794691497E+03  0.15794691497E+03  0.00000000000E+00 0.  1.
         21   -1    0    0  502  503 -0.00000000000E+00 -0.00000000000E+00 -0.13710977137E+04  0.13710977137E+04  0.00000000000E+00 0.  1.
    9000007    1    1    2  501    0 -0.75103807489E+02  0.17810978886E+03 -0.83419873893E+03  0.94511968280E+03  0.40000000000E+03 0.  1.
   -9000007    1    1    2    0  503  0.75103807489E+02 -0.17810978886E+03 -0.37895205979E+03  0.58392494587E+03  0.40000000000E+03 0.  1.
<mgrwt>
<rscale>  2 0.44425632E+03</rscale>
<asrwt>0</asrwt>
<pdfrwt beam="1">  1       21 0.24299525E-01 0.44425632E+03</pdfrwt>
<pdfrwt beam="2">  1       21 0.21093811E+00 0.44425632E+03</pdfrwt>
<totfact> 0.15391157E+03</totfact>
</mgrwt>
</event>
<event>
 4    1  0.1187342E-002  0.4043009E+03  0.7818608E-02  0.1042301E+00
         21   -1    0    0  503  502  0.00000000000E+00  0.00000000000E+00  0.14747394972E+03  0.14747394972E+03  0.00000000000E+00 0. -1.
         21   -1    0    0  501  503 -0.00000000000E+00 -0.00000000000E+00 -0.11659318308E+04  0.11659318308E+04  0.00000000000E+00 0. -1.
    9000007    1    1    2  501    0 -0.56889539803E+02 -0.14926325598E+02 -0.65511364455E+03  0.76982667024E+03  0.40000000000E+03 0. -1.
   -9000007    1    1    2    0  502  0.56889539803E+02  0.14926325598E+02 -0.36334423657E+03  0.54357911033E+03  0.40000000000E+03 0. -1.
<mgrwt>
<rscale>  2 0.40430090E+03</rscale>
<asrwt>0</asrwt>
<pdfrwt beam="1">  1       21 0.22688300E-01 0.40430090E+03</pdfrwt>
<pdfrwt beam="2">  1       21 0.17937413E+00 0.40430090E+03</pdfrwt>
<totfact> 0.29203767E+03</totfact>
</mgrwt>
</event>
<event>
 4    1  0.1187342E-002  0.4195251E+03  0.7818608E-02  0.1037221E+00
         21   -1    0    0  503  502  0.00000000000E+00  0.00000000000E+00  0.24567168614E+03  0.24567168614E+03  0.00000000000E+00 0. -1.
         21   -1    0    0  501  503 -0.00000000000E+00 -0.00000000000E+00 -0.11157968375E+04  0.11157968375E+04  0.00000000000E+00 0. -1.
    9000007    1    1    2  501    0 -0.17716598544E+02 -0.12524935721E+03 -0.84233288136E+03  0.94102389043E+03  0.40000000000E+03 0. -1.
   -9000007    1    1    2    0  502  0.17716598544E+02  0.12524935721E+03 -0.27792270033E+02  0.42044463324E+03  0.40000000000E+03 0. -1.
<mgrwt>
<rscale>  2 0.41952506E+03</rscale>
<asrwt>0</asrwt>
<pdfrwt beam="1">  1       21 0.37795644E-01 0.41952506E+03</pdfrwt>
<pdfrwt beam="2">  1       21 0.17166105E+00 0.41952506E+03</pdfrwt>
<totfact> 0.11991468E+03</totfact>
</mgrwt>
</event>
<event>
 4    1  0.1187342E-002  0.4506541E+03  0.7818608E-02  0.1027527E+00
         21   -1    0    0  501  502  0.00000000000E+00  0.00000000000E+00  0.16543835732E+04  0.16543835732E+04  0.00000000000E+00 0.  1.
         21   -1    0    0  502  503 -0.00000000000E+00 -0.00000000000E+00 -0.13724511016E+03  0.13724511016E+03  0.00000000000E+00 0.  1.
    9000007    1    1    2  501    0 -0.89208358420E+00 -0.20757736149E+03  0.10496123859E+04  0.11422676207E+04  0.40000000000E+03 0.  1.
   -9000007    1    1    2    0  503  0.89208358420E+00  0.20757736149E+03  0.46752607719E+03  0.64936106264E+03  0.40000000000E+03 0.  1.
<mgrwt>
<rscale>  2 0.45065414E+03</rscale>
<asrwt>0</asrwt>
<pdfrwt beam="1">  1       21 0.25452054E+00 0.45065414E+03</pdfrwt>
<pdfrwt beam="2">  1       21 0.21114633E-01 0.45065414E+03</pdfrwt>
<totfact> 0.10708593E+03</totfact>
</mgrwt>
</event>
<event>
 4    1  0.1187342E-002  0.4092634E+03  0.7818608E-02  0.1040618E+00
         21   -1    0    0  503  502  0.00000000000E+00  0.00000000000E+00  0.52663787115E+03  0.52663787115E+03  0.00000000000E+00 0. -1.
         21   -1    0    0  501  503 -0.00000000000E+00 -0.00000000000E+00 -0.32317561059E+03  0.32317561059E+03  0.00000000000E+00 0. -1.
    9000007    1    1    2  501    0  0.86340282063E+02 -0.64721554607E+01  0.48213267658E+02  0.41209349944E+03  0.40000000000E+03 0.  1.
   -9000007    1    1    2    0  502 -0.86340282063E+02  0.64721554607E+01  0.15524899290E+03  0.43771998229E+03  0.40000000000E+03 0.  1.
<mgrwt>
<rscale>  2 0.40926340E+03</rscale>
<asrwt>0</asrwt>
<pdfrwt beam="1">  1       21 0.81021211E-01 0.40926340E+03</pdfrwt>
<pdfrwt beam="2">  1       21 0.49719325E-01 0.40926340E+03</pdfrwt>
<totfact> 0.45880945E+03</totfact>
</mgrwt>
</event>
<event>
 4    1  0.1187342E-002  0.7588765E+03  0.7818608E-02  0.9621527E-01
         21   -1    0    0  503  502  0.00000000000E+00  0.00000000000E+00  0.34973788444E+03  0.34973788444E+03  0.00000000000E+00 0. -1.
         21   -1    0    0  501  503 -0.00000000000E+00 -0.00000000000E+00 -0.18174301255E+04  0.18174301255E+04  0.00000000000E+00 0.  1.
    9000007    1    1    2  501    0  0.22696690565E+03  0.60363855508E+03 -0.10660166781E+04  0.13085430980E+04  0.40000000000E+03 0.  1.
   -9000007    1    1    2    0  502 -0.22696690565E+03 -0.60363855508E+03 -0.40167556296E+03  0.85862491189E+03  0.40000000000E+03 0. -1.
<mgrwt>
<rscale>  2 0.75887646E+03</rscale>
<asrwt>0</asrwt>
<pdfrwt beam="1">  1       21 0.53805828E-01 0.75887646E+03</pdfrwt>
<pdfrwt beam="2">  1       21 0.27960464E+00 0.75887646E+03</pdfrwt>
<totfact> 0.98795851E+01</totfact>
</mgrwt>
</event>
<event>
 4    1  0.1187342E-002  0.4001279E+03  0.7818608E-02  0.1043735E+00
         21   -1    0    0  501  502  0.00000000000E+00  0.00000000000E+00  0.48669204768E+03  0.48669204768E+03  0.00000000000E+00 0.  1.
         21   -1    0    0  502  503 -0.00000000000E+00 -0.00000000000E+00 -0.40902397108E+03  0.40902397108E+03  0.00000000000E+00 0.  1.
    9000007    1    1    2  501    0  0.67010935345E+01 -0.75789832667E+01  0.23697935229E+03  0.46503930915E+03  0.40000000000E+03 0.  1.
   -9000007    1    1    2    0  503 -0.67010935345E+01  0.75789832667E+01 -0.15931127568E+03  0.43067670961E+03  0.40000000000E+03 0.  1.
<mgrwt>
<rscale>  2 0.40012791E+03</rscale>
<asrwt>0</asrwt>
<pdfrwt beam="1">  1       21 0.74875699E-01 0.40012791E+03</pdfrwt>
<pdfrwt beam="2">  1       21 0.62926765E-01 0.40012791E+03</pdfrwt>
<totfact> 0.33159362E+03</totfact>
</mgrwt>
</event>
<event>
 4    1  0.1187342E-002  0.8498451E+03  0.7818608E-02  0.9490545E-01
         21   -1    0    0  503  502  0.00000000000E+00  0.00000000000E+00  0.31699445903E+03  0.31699445903E+03  0.00000000000E+00 0.  1.
         21   -1    0    0  501  503 -0.00000000000E+00 -0.00000000000E+00 -0.22977680722E+04  0.22977680722E+04  0.00000000000E+00 0. -1.
    9000007    1    1    2  501    0 -0.23472724397E+03 -0.71213746764E+03 -0.87032166209E+03  0.12164277403E+04  0.40000000000E+03 0.  1.
   -9000007    1    1    2    0  502  0.23472724397E+03  0.71213746764E+03 -0.11104519511E+04  0.13983347910E+04  0.40000000000E+03 0.  1.
<mgrwt>
<rscale>  2 0.84984508E+03</rscale>
<asrwt>0</asrwt>
<pdfrwt beam="1">  1       21 0.48768378E-01 0.84984508E+03</pdfrwt>
<pdfrwt beam="2">  1       21 0.35350278E+00 0.84984508E+03</pdfrwt>
<totfact> 0.41225435E+01</totfact>
</mgrwt>
</event>
<event>
 4    1  0.1187342E-002  0.5564394E+03  0.7818608E-02  0.1000014E+00
         21   -1    0    0  501  502  0.00000000000E+00  0.00000000000E+00  0.21534918481E+04  0.21534918481E+04  0.00000000000E+00 0. -1.
         21   -1    0    0  502  503 -0.00000000000E+00 -0.00000000000E+00 -0.14399709297E+03  0.14399709297E+03  0.00000000000E+00 0.  1.
    9000007    1    1    2  501    0 -0.37175490415E+03 -0.10687904939E+03  0.10495516902E+04  0.11879324856E+04  0.40000000000E+03 0. -1.
   -9000007    1    1    2    0  503  0.37175490415E+03  0.10687904939E+03  0.95994306498E+03  0.11095564555E+04  0.40000000000E+03 0.  1.
<mgrwt>
<rscale>  2 0.55643943E+03</rscale>
<asrwt>0</asrwt>
<pdfrwt beam="1">  1       21 0.33130642E+00 0.55643943E+03</pdfrwt>
<pdfrwt beam="2">  1       21 0.22153400E-01 0.55643943E+03</pdfrwt>
<totfact> 0.31699754E+02</totfact>
</mgrwt>
</event>
<event>
 4    1  0.1187342E-002  0.5647255E+03  0.7818608E-02  0.9981419E-01
         21   -1    0    0  503  502  0.00000000000E+00  0.00000000000E+00  0.22798223601E+03  0.22798223601E+03  0.00000000000E+00 0.  1.
         21   -1    0    0  501  503 -0.00000000000E+00 -0.00000000000E+00 -0.14066941653E+04  0.14066941653E+04  0.00000000000E+00 0. -1.
    9000007    1    1    2  501    0  0.11583619450E+03  0.38144052201E+03 -0.52835467308E+03  0.77335215546E+03  0.40000000000E+03 0.  1.
   -9000007    1    1    2    0  502 -0.11583619450E+03 -0.38144052201E+03 -0.65035725621E+03  0.86132424585E+03  0.40000000000E+03 0.  1.
<mgrwt>
<rscale>  2 0.56472550E+03</rscale>
<asrwt>0</asrwt>
<pdfrwt beam="1">  1       21 0.35074191E-01 0.56472550E+03</pdfrwt>
<pdfrwt beam="2">  1       21 0.21641448E+00 0.56472550E+03</pdfrwt>
<totfact> 0.65070726E+02</totfact>
</mgrwt>
</event>
<event>
 4    1  0.1187342E-002  0.4529601E+03  0.7818608E-02  0.1026843E+00
         21   -1    0    0  503  502  0.00000000000E+00  0.00000000000E+00  0.56211858811E+03  0.56211858811E+03  0.00000000000E+00 0.  1.
         21   -1    0    0  501  503 -0.00000000000E+00 -0.00000000000E+00 -0.37909615461E+03  0.37909615461E+03  0.00000000000E+00 0. -1.
    9000007    1    1    2  501    0  0.20985850613E+03  0.33648746565E+02  0.76118150566E+00  0.45296071589E+03  0.40000000000E+03 0.  1.
   -9000007    1    1    2    0  502 -0.20985850613E+03 -0.33648746565E+02  0.18226125199E+03  0.48825402683E+03  0.40000000000E+03 0.  1.
<mgrwt>
<rscale>  2 0.45296008E+03</rscale>
<asrwt>0</asrwt>
<pdfrwt beam="1">  1       21 0.86479782E-01 0.45296008E+03</pdfrwt>
<pdfrwt beam="2">  1       21 0.58322486E-01 0.45296008E+03</pdfrwt>
<totfact> 0.27529494E+03</totfact>
</mgrwt>
</event>
<event>
 4    1  0.1187342E-002  0.4854092E+03  0.7818608E-02  0.1017659E+00
         21   -1    0    0  501  502  0.00000000000E+00  0.00000000000E+00  0.50222189726E+03  0.50222189726E+03  0.00000000000E+00 0.  1.
         21   -1    0    0  502  503 -0.00000000000E+00 -0.00000000000E+00 -0.48495114118E+03  0.48495114118E+03  0.00000000000E+00 0.  1.
    9000007    1    1    2  501    0  0.25192474994E+03 -0.11025450489E+03 -0.80434117152E+02  0.49202823362E+03  0.40000000000E+03 0.  1.
   -9000007    1    1    2    0  503 -0.25192474994E+03  0.11025450489E+03  0.97704873227E+02  0.49514480481E+03  0.40000000000E+03 0.  1.
<mgrwt>
<rscale>  2 0.48540925E+03</rscale>
<asrwt>0</asrwt>
<pdfrwt beam="1">  1       21 0.77264908E-01 0.48540925E+03</pdfrwt>
<pdfrwt beam="2">  1       21 0.74607867E-01 0.48540925E+03</pdfrwt>
<totfact> 0.20413682E+03</totfact>
</mgrwt>
</event>
<event>
 4    1  0.1187342E-002  0.4599601E+03  0.7818608E-02  0.1024793E+00
         21   -1    0    0  503  502  0.00000000000E+00  0.00000000000E+00  0.71337346512E+03  0.71337346512E+03  0.00000000000E+00 0.  1.
         21   -1    0    0  501  503 -0.00000000000E+00 -0.00000000000E+00 -0.29974394633E+03  0.29974394633E+03  0.00000000000E+00 0. -1.
    9000007    1    1    2  501    0 -0.16251838948E+03 -0.15859079413E+03  0.15466687882E+03  0.48526808086E+03  0.40000000000E+03 0. -1.
   -9000007    1    1    2    0  502  0.16251838948E+03  0.15859079413E+03  0.25896263997E+03  0.52784933058E+03  0.40000000000E+03 0. -1.
<mgrwt>
<rscale>  2 0.45996007E+03</rscale>
<asrwt>0</asrwt>
<pdfrwt beam="1">  1       21 0.10974976E+00 0.45996007E+03</pdfrwt>
<pdfrwt beam="2">  1       21 0.46114453E-01 0.45996007E+03</pdfrwt>
<totfact> 0.25529399E+03</totfact>
</mgrwt>
</event>
<event>
 4    1  0.1187342E-002  0.4655995E+03  0.7818608E-02  0.1023170E+00
         21   -1    0    0  503  502  0.00000000000E+00  0.00000000000E+00  0.92520369565E+03  0.92520369565E+03  0.00000000000E+00 0.  1.
         21   -1    0    0  501  503 -0.00000000000E+00 -0.00000000000E+00 -0.26375432625E+03  0.26375432625E+03  0.00000000000E+00 0.  1.
    9000007    1    1    2  501    0  0.26714355239E+02 -0.23678934410E+03  0.52935727870E+03  0.70498367270E+03  0.40000000000E+03 0.  1.
   -9000007    1    1    2    0  502 -0.26714355239E+02  0.23678934410E+03  0.13209209070E+03  0.48397434920E+03  0.40000000000E+03 0.  1.
<mgrwt>
<rscale>  2 0.46559945E+03</rscale>
<asrwt>0</asrwt>
<pdfrwt beam="1">  1       21 0.14233903E+00 0.46559945E+03</pdfrwt>
<pdfrwt beam="2">  1       21 0.40577589E-01 0.46559945E+03</pdfrwt>
<totfact> 0.17042924E+03</totfact>
</mgrwt>
</event>
<event>
 4    1  0.1187342E-002  0.6793002E+03  0.7818608E-02  0.9753301E-01
         21   -1    0    0  503  502  0.00000000000E+00  0.00000000000E+00  0.45978408870E+03  0.45978408870E+03  0.00000000000E+00 0. -1.
         21   -1    0    0  501  503 -0.00000000000E+00 -0.00000000000E+00 -0.11913125701E+04  0.11913125701E+04  0.00000000000E+00 0. -1.
    9000007    1    1    2  501    0 -0.54350628734E+03 -0.77779717194E+02 -0.69344619338E+03  0.97072982436E+03  0.40000000000E+03 0. -1.
   -9000007    1    1    2    0  502  0.54350628734E+03  0.77779717194E+02 -0.38082288061E+02  0.68036683447E+03  0.40000000000E+03 0. -1.
<mgrwt>
<rscale>  2 0.67930021E+03</rscale>
<asrwt>0</asrwt>
<pdfrwt beam="1">  1       21 0.70736013E-01 0.67930021E+03</pdfrwt>
<pdfrwt beam="2">  1       21 0.18327886E+00 0.67930021E+03</pdfrwt>
<totfact> 0.23246194E+02</totfact>
</mgrwt>
</event>
<event>
 4    1  0.1187342E-002  0.4900913E+03  0.7818608E-02  0.1016398E+00
         21   -1    0    0  501  502  0.00000000000E+00  0.00000000000E+00  0.81810641332E+03  0.81810641332E+03  0.00000000000E+00 0. -1.
         21   -1    0    0  502  503 -0.00000000000E+00 -0.00000000000E+00 -0.29700034418E+03  0.29700034418E+03  0.00000000000E+00 0. -1.
    9000007    1    1    2  501    0 -0.24329271968E+03  0.14490720260E+03  0.32028184256E+03  0.58546554424E+03  0.40000000000E+03 0. -1.
   -9000007    1    1    2    0  503  0.24329271968E+03 -0.14490720260E+03  0.20082422658E+03  0.52964121327E+03  0.40000000000E+03 0. -1.
<mgrwt>
<rscale>  2 0.49009126E+03</rscale>
<asrwt>0</asrwt>
<pdfrwt beam="1">  1       21 0.12586252E+00 0.49009126E+03</pdfrwt>
<pdfrwt beam="2">  1       21 0.45692361E-01 0.49009126E+03</pdfrwt>
<totfact> 0.18209936E+03</totfact>
</mgrwt>
</event>
<event>
 4    1  0.1187342E-002  0.4148699E+03  0.7818608E-02  0.1038749E+00
         21   -1    0    0  503  502  0.00000000000E+00  0.00000000000E+00  0.58340570313E+03  0.58340570313E+03  0.00000000000E+00 0.  1.
         21   -1    0    0  501  503 -0.00000000000E+00 -0.00000000000E+00 -0.32070502208E+03  0.32070502208E+03  0.00000000000E+00 0.  1.
    9000007    1    1    2  501    0 -0.97246103295E+02  0.51577587425E+02  0.34214746802E+01  0.41488403033E+03  0.40000000000E+03 0. -1.
   -9000007    1    1    2    0  502  0.97246103295E+02 -0.51577587425E+02  0.25927920637E+03  0.48922669488E+03  0.40000000000E+03 0. -1.
<mgrwt>
<rscale>  2 0.41486992E+03</rscale>
<asrwt>0</asrwt>
<pdfrwt beam="1">  1       21 0.89754723E-01 0.41486992E+03</pdfrwt>
<pdfrwt beam="2">  1       21 0.49339234E-01 0.41486992E+03</pdfrwt>
<totfact> 0.36637489E+03</totfact>
</mgrwt>
</event>
<event>
 4    1  0.1187342E-002  0.4383896E+03  0.7818608E-02  0.1031242E+00
         21   -1    0    0  503  502  0.00000000000E+00  0.00000000000E+00  0.14850160292E+03  0.14850160292E+03  0.00000000000E+00 0. -1.
         21   -1    0    0  501  503 -0.00000000000E+00 -0.00000000000E+00 -0.12998013341E+04  0.12998013341E+04  0.00000000000E+00 0. -1.
    9000007    1    1    2  501    0 -0.20246295927E+01 -0.17939163657E+03 -0.62333906652E+03  0.76206105414E+03  0.40000000000E+03 0. -1.
   -9000007    1    1    2    0  502  0.20246295927E+01  0.17939163657E+03 -0.52796066466E+03  0.68624188288E+03  0.40000000000E+03 0. -1.
<mgrwt>
<rscale>  2 0.43838962E+03</rscale>
<asrwt>0</asrwt>
<pdfrwt beam="1">  1       21 0.22846400E-01 0.43838962E+03</pdfrwt>
<pdfrwt beam="2">  1       21 0.19996944E+00 0.43838962E+03</pdfrwt>
<totfact> 0.20527089E+03</totfact>
</mgrwt>
</event>
<event>
 4    1  0.1187342E-002  0.4533944E+03  0.7818608E-02  0.1026715E+00
         21   -1    0    0  503  502  0.00000000000E+00  0.00000000000E+00  0.26524673224E+03  0.26524673224E+03  0.00000000000E+00 0.  1.
         21   -1    0    0  501  503 -0.00000000000E+00 -0.00000000000E+00 -0.83135997640E+03  0.83135997640E+03  0.00000000000E+00 0. -1.
    9000007    1    1    2  501    0 -0.20514741258E+03 -0.59000173800E+02 -0.14029617013E+03  0.47460456883E+03  0.40000000000E+03 0. -1.
   -9000007    1    1    2    0  502  0.20514741258E+03  0.59000173800E+02 -0.42581707403E+03  0.62200213982E+03  0.40000000000E+03 0. -1.
<mgrwt>
<rscale>  2 0.45339440E+03</rscale>
<asrwt>0</asrwt>
<pdfrwt beam="1">  1       21 0.40807190E-01 0.45339440E+03</pdfrwt>
<pdfrwt beam="2">  1       21 0.12790153E+00 0.45339440E+03</pdfrwt>
<totfact> 0.22415051E+03</totfact>
</mgrwt>
</event>
<event>
 4    1  0.1187342E-002  0.4856839E+03  0.7818608E-02  0.1017585E+00
         21   -1    0    0  503  502  0.00000000000E+00  0.00000000000E+00  0.10491349842E+04  0.10491349842E+04  0.00000000000E+00 0.  1.
         21   -1    0    0  501  503 -0.00000000000E+00 -0.00000000000E+00 -0.24551993369E+03  0.24551993369E+03  0.00000000000E+00 0.  1.
    9000007    1    1    2  501    0 -0.34209189136E+02  0.27334693156E+03  0.21394412774E+03  0.53071734795E+03  0.40000000000E+03 0.  1.
   -9000007    1    1    2    0  502  0.34209189136E+02 -0.27334693156E+03  0.58967092280E+03  0.76393756997E+03  0.40000000000E+03 0.  1.
<mgrwt>
<rscale>  2 0.48568386E+03</rscale>
<asrwt>0</asrwt>
<pdfrwt beam="1">  1       21 0.16140538E+00 0.48568386E+03</pdfrwt>
<pdfrwt beam="2">  1       21 0.37772298E-01 0.48568386E+03</pdfrwt>
<totfact> 0.13893633E+03</totfact>
</mgrwt>
</event>
<event>
 4    1  0.1187342E-002  0.4144996E+03  0.7818608E-02  0.1038871E+00
         21   -1    0    0  503  502  0.00000000000E+00  0.00000000000E+00  0.27116308907E+03  0.27116308907E+03  0.00000000000E+00 0.  1.
         21   -1    0    0  501  503 -0.00000000000E+00 -0.00000000000E+00 -0.69909798812E+03  0.69909798812E+03  0.00000000000E+00 0.  1.
    9000007    1    1    2  501    0  0.92836259801E+02 -0.56492102260E+02 -0.36245546263E+03  0.55062136822E+03  0.40000000000E+03 0.  1.
   -9000007    1    1    2    0  502 -0.92836259801E+02  0.56492102260E+02 -0.65479436426E+02  0.41963970897E+03  0.40000000000E+03 0.  1.
<mgrwt>
<rscale>  2 0.41449961E+03</rscale>
<asrwt>0</asrwt>
<pdfrwt beam="1">  1       21 0.41717399E-01 0.41449961E+03</pdfrwt>
<pdfrwt beam="2">  1       21 0.10755354E+00 0.41449961E+03</pdfrwt>
<totfact> 0.33641842E+03</totfact>
</mgrwt>
</event>
<event>
 4    1  0.1187342E-002  0.4156098E+03  0.7818608E-02  0.1038505E+00
         21   -1    0    0  503  502  0.00000000000E+00  0.00000000000E+00  0.11319327602E+03  0.11319327602E+03  0.00000000000E+00 0.  1.
         21   -1    0    0  501  503 -0.00000000000E+00 -0.00000000000E+00 -0.15332010976E+04  0.15332010976E+04  0.00000000000E+00 0.  1.
    9000007    1    1    2  501    0 -0.53397350194E+02 -0.99399520972E+02 -0.76646842876E+03  0.87189758233E+03  0.40000000000E+03 0.  1.
   -9000007    1    1    2    0  502  0.53397350194E+02  0.99399520972E+02 -0.65353939285E+03  0.77449679134E+03  0.40000000000E+03 0.  1.
<mgrwt>
<rscale>  2 0.41560984E+03</rscale>
<asrwt>0</asrwt>
<pdfrwt beam="1">  1       21 0.17414351E-01 0.41560984E+03</pdfrwt>
<pdfrwt beam="2">  1       21 0.23587708E+00 0.41560984E+03</pdfrwt>
<totfact> 0.20446777E+03</totfact>
</mgrwt>
</event>
<event>
 4    1  0.1187342E-002  0.4422608E+03  0.7818608E-02  0.1030055E+00
         21   -1    0    0  501  502  0.00000000000E+00  0.00000000000E+00  0.64603009902E+03  0.64603009902E+03  0.00000000000E+00 0.  1.
         21   -1    0    0  502  503 -0.00000000000E+00 -0.00000000000E+00 -0.34851324674E+03  0.34851324674E+03  0.00000000000E+00 0.  1.
    9000007    1    1    2  501    0 -0.22545247846E+02 -0.18731338364E+03  0.32892595706E+03  0.55116864671E+03  0.40000000000E+03 0.  1.
   -9000007    1    1    2    0  503  0.22545247846E+02  0.18731338364E+03 -0.31409104778E+02  0.44337469905E+03  0.40000000000E+03 0.  1.
<mgrwt>
<rscale>  2 0.44226077E+03</rscale>
<asrwt>0</asrwt>
<pdfrwt beam="1">  1       21 0.99389246E-01 0.44226077E+03</pdfrwt>
<pdfrwt beam="2">  1       21 0.53617423E-01 0.44226077E+03</pdfrwt>
<totfact> 0.23797215E+03</totfact>
</mgrwt>
</event>
<event>
 4    1  0.1187342E-002  0.5923159E+03  0.7818608E-02  0.9921478E-01
         21   -1    0    0  503  502  0.00000000000E+00  0.00000000000E+00  0.15926751996E+04  0.15926751996E+04  0.00000000000E+00 0. -1.
         21   -1    0    0  501  503 -0.00000000000E+00 -0.00000000000E+00 -0.22154637958E+03  0.22154637958E+03  0.00000000000E+00 0. -1.
    9000007    1    1    2  501    0 -0.40299455320E+03 -0.16862230003E+03  0.61704362231E+03  0.85532503869E+03  0.40000000000E+03 0. -1.
   -9000007    1    1    2    0  502  0.40299455320E+03  0.16862230003E+03  0.75408519771E+03  0.95889654050E+03  0.40000000000E+03 0. -1.
<mgrwt>
<rscale>  2 0.59231587E+03</rscale>
<asrwt>0</asrwt>
<pdfrwt beam="1">  1       21 0.24502695E+00 0.59231587E+03</pdfrwt>
<pdfrwt beam="2">  1       21 0.34084059E-01 0.59231587E+03</pdfrwt>
<totfact> 0.44865009E+02</totfact>
</mgrwt>
</event>
<event>
 4    1  0.1187342E-002  0.4304166E+03  0.7818608E-02  0.1033728E+00
         21   -1    0    0  501  502  0.00000000000E+00  0.00000000000E+00  0.19589606606E+03  0.19589606606E+03  0.00000000000E+00 0. -1.
         21   -1    0    0  502  503 -0.00000000000E+00 -0.00000000000E+00 -0.11772769364E+04  0.11772769364E+04  0.00000000000E+00 0. -1.
    9000007    1    1    2  501    0  0.15022961716E+03 -0.51860627902E+02 -0.18617750751E+03  0.46895684972E+03  0.40000000000E+03 0. -1.
   -9000007    1    1    2    0  503 -0.15022961716E+03  0.51860627902E+02 -0.79520336279E+03  0.90421615269E+03  0.40000000000E+03 0. -1.
<mgrwt>
<rscale>  2 0.43041662E+03</rscale>
<asrwt>0</asrwt>
<pdfrwt beam="1">  1       21 0.30137857E-01 0.43041662E+03</pdfrwt>
<pdfrwt beam="2">  1       21 0.18111952E+00 0.43041662E+03</pdfrwt>
<totfact> 0.16118396E+03</totfact>
</mgrwt>
</event>
<event>
 4    1  0.1187342E-002  0.4455801E+03  0.7818608E-02  0.1029048E+00
         21   -1    0    0  501  502  0.00000000000E+00  0.00000000000E+00  0.26902724659E+03  0.26902724659E+03  0.00000000000E+00 0. -1.
         21   -1    0    0  502  503 -0.00000000000E+00 -0.00000000000E+00 -0.12333189661E+04  0.12333189661E+04  0.00000000000E+00 0. -1.
    9000007    1    1    2  501    0 -0.17228258329E+03 -0.94129335911E+02 -0.95818821938E+03  0.10567243179E+04  0.40000000000E+03 0. -1.
   -9000007    1    1    2    0  503  0.17228258329E+03  0.94129335911E+02 -0.61035001564E+01  0.44562189477E+03  0.40000000000E+03 0. -1.
<mgrwt>
<rscale>  2 0.44558009E+03</rscale>
<asrwt>0</asrwt>
<pdfrwt beam="1">  1       21 0.41388809E-01 0.44558009E+03</pdfrwt>
<pdfrwt beam="2">  1       21 0.18974137E+00 0.44558009E+03</pdfrwt>
<totfact> 0.73369431E+02</totfact>
</mgrwt>
</event>
<event>
 4    1  0.1187342E-002  0.4555343E+03  0.7818608E-02  0.1026084E+00
         21   -1    0    0  501  502  0.00000000000E+00  0.00000000000E+00  0.25981714479E+03  0.25981714479E+03  0.00000000000E+00 0. -1.
         21   -1    0    0  502  503 -0.00000000000E+00 -0.00000000000E+00 -0.79885294195E+03  0.79885294195E+03  0.00000000000E+00 0. -1.
    9000007    1    1    2  501    0  0.70556444323E+02 -0.20623596377E+03 -0.27724298656E+03  0.53326837351E+03  0.40000000000E+03 0. -1.
   -9000007    1    1    2    0  503 -0.70556444323E+02  0.20623596377E+03 -0.26179281060E+03  0.52540171324E+03  0.40000000000E+03 0. -1.
<mgrwt>
<rscale>  2 0.45553428E+03</rscale>
<asrwt>0</asrwt>
<pdfrwt beam="1">  1       21 0.39971869E-01 0.45553428E+03</pdfrwt>
<pdfrwt beam="2">  1       21 0.12290045E+00 0.45553428E+03</pdfrwt>
<totfact> 0.25901476E+03</totfact>
</mgrwt>
</event>
<event>
 4    1  0.1187342E-002  0.6742078E+03  0.7818608E-02  0.9762386E-01
         21   -1    0    0  503  502  0.00000000000E+00  0.00000000000E+00  0.11562471446E+04  0.11562471446E+04  0.00000000000E+00 0. -1.
         21   -1    0    0  501  503 -0.00000000000E+00 -0.00000000000E+00 -0.43440244835E+03  0.43440244835E+03  0.00000000000E+00 0.  1.
    9000007    1    1    2  501    0 -0.28711773155E+03 -0.46056434175E+03  0.60606872703E+03  0.90657344244E+03  0.40000000000E+03 0. -1.
   -9000007    1    1    2    0  502  0.28711773155E+03  0.46056434175E+03  0.11577596925E+03  0.68407615053E+03  0.40000000000E+03 0.  1.
<mgrwt>
<rscale>  2 0.67420776E+03</rscale>
<asrwt>0</asrwt>
<pdfrwt beam="1">  1       21 0.17788417E+00 0.67420776E+03</pdfrwt>
<pdfrwt beam="2">  1       21 0.66831147E-01 0.67420776E+03</pdfrwt>
<totfact> 0.28939941E+02</totfact>
</mgrwt>
</event>
<event>
 4    1  0.1187342E-002  0.4497241E+03  0.7818608E-02  0.1027804E+00
         21   -1    0    0  501  502  0.00000000000E+00  0.00000000000E+00  0.74054817207E+03  0.74054817207E+03  0.00000000000E+00 0. -1.
         21   -1    0    0  502  503 -0.00000000000E+00 -0.00000000000E+00 -0.27891022826E+03  0.27891022826E+03  0.00000000000E+00 0.  1.
    9000007    1    1    2  501    0  0.10652769424E+03 -0.17579412232E+03  0.15731701471E+03  0.47644555429E+03  0.40000000000E+03 0.  1.
   -9000007    1    1    2    0  503 -0.10652769424E+03  0.17579412232E+03  0.30432092909E+03  0.54301284604E+03  0.40000000000E+03 0.  1.
<mgrwt>
<rscale>  2 0.44972405E+03</rscale>
<asrwt>0</asrwt>
<pdfrwt beam="1">  1       21 0.11393049E+00 0.44972405E+03</pdfrwt>
<pdfrwt beam="2">  1       21 0.42909266E-01 0.44972405E+03</pdfrwt>
<totfact> 0.27144988E+03</totfact>
</mgrwt>
</event>
<event>
 4    1  0.1187342E-002  0.6867102E+03  0.7818608E-02  0.9740233E-01
         21   -1    0    0  503  502  0.00000000000E+00  0.00000000000E+00  0.27298718828E+03  0.27298718828E+03  0.00000000000E+00 0.  1.
         21   -1    0    0  501  503 -0.00000000000E+00 -0.00000000000E+00 -0.17718968516E+04  0.17718968516E+04  0.00000000000E+00 0. -1.
    9000007    1    1    2  501    0 -0.64135910310E+02 -0.55448851941E+03 -0.91139479105E+03  0.11411447753E+04  0.40000000000E+03 0.  1.
   -9000007    1    1    2    0  502  0.64135910310E+02  0.55448851941E+03 -0.58751487229E+03  0.90373926456E+03  0.40000000000E+03 0. -1.
<mgrwt>
<rscale>  2 0.68671023E+03</rscale>
<asrwt>0</asrwt>
<pdfrwt beam="1">  1       21 0.41998030E-01 0.68671023E+03</pdfrwt>
<pdfrwt beam="2">  1       21 0.27259951E+00 0.68671023E+03</pdfrwt>
<totfact> 0.18998733E+02</totfact>
</mgrwt>
</event>
<event>
 4    1  0.1187342E-002  0.4143399E+03  0.7818608E-02  0.1038924E+00
         21   -1    0    0  503  502  0.00000000000E+00  0.00000000000E+00  0.21495014436E+03  0.21495014436E+03  0.00000000000E+00 0. -1.
         21   -1    0    0  501  503 -0.00000000000E+00 -0.00000000000E+00 -0.88007694660E+03  0.88007694660E+03  0.00000000000E+00 0. -1.
    9000007    1    1    2  501    0 -0.14567796421E+02  0.10707644506E+03 -0.49906701080E+03  0.64864895517E+03  0.40000000000E+03 0. -1.
   -9000007    1    1    2    0  502  0.14567796421E+02 -0.10707644506E+03 -0.16605979144E+03  0.44637813579E+03  0.40000000000E+03 0. -1.
<mgrwt>
<rscale>  2 0.41433994E+03</rscale>
<asrwt>0</asrwt>
<pdfrwt beam="1">  1       21 0.33069252E-01 0.41433994E+03</pdfrwt>
<pdfrwt beam="2">  1       21 0.13539646E+00 0.41433994E+03</pdfrwt>
<totfact> 0.30108427E+03</totfact>
</mgrwt>
</event>
<event>
 4    1  0.1187342E-002  0.7001469E+03  0.7818608E-02  0.9716981E-01
         21   -1    0    0  501  502  0.00000000000E+00  0.00000000000E+00  0.46492096717E+03  0.46492096717E+03  0.00000000000E+00 0. -1.
         21   -1    0    0  502  503 -0.00000000000E+00 -0.00000000000E+00 -0.11581015286E+04  0.11581015286E+04  0.00000000000E+00 0. -1.
    9000007    1    1    2  501    0  0.50319038484E+03  0.27749788552E+03 -0.10373617164E+03  0.70779010531E+03  0.40000000000E+03 0. -1.
   -9000007    1    1    2    0  503 -0.50319038484E+03 -0.27749788552E+03 -0.58944438976E+03  0.91523239042E+03  0.40000000000E+03 0. -1.
<mgrwt>
<rscale>  2 0.70014687E+03</rscale>
<asrwt>0</asrwt>
<pdfrwt beam="1">  1       21 0.71526304E-01 0.70014687E+03</pdfrwt>
<pdfrwt beam="2">  1       21 0.17816946E+00 0.70014687E+03</pdfrwt>
<totfact> 0.24485930E+02</totfact>
</mgrwt>
</event>
<event>
 4    1  0.1187342E-002  0.4650170E+03  0.7818608E-02  0.1023336E+00
         21   -1    0    0  501  502  0.00000000000E+00  0.00000000000E+00  0.32902544229E+03  0.32902544229E+03  0.00000000000E+00 0.  1.
         21   -1    0    0  502  503 -0.00000000000E+00 -0.00000000000E+00 -0.67438744571E+03  0.67438744571E+03  0.00000000000E+00 0.  1.
    9000007    1    1    2  501    0 -0.15922148595E+03  0.17575354640E+03 -0.92624214565E+02  0.47415191214E+03  0.40000000000E+03 0.  1.
   -9000007    1    1    2    0  503  0.15922148595E+03 -0.17575354640E+03 -0.25273778885E+03  0.52926097586E+03  0.40000000000E+03 0.  1.
<mgrwt>
<rscale>  2 0.46501698E+03</rscale>
<asrwt>0</asrwt>
<pdfrwt beam="1">  1       21 0.50619300E-01 0.46501698E+03</pdfrwt>
<pdfrwt beam="2">  1       21 0.10375191E+00 0.46501698E+03</pdfrwt>
<totfact> 0.24033312E+03</totfact>
</mgrwt>
</event>
<event>
 4    1  0.1187342E-002  0.4053521E+03  0.7818608E-02  0.1041942E+00
         21   -1    0    0  501  502  0.00000000000E+00  0.00000000000E+00  0.23719579671E+03  0.23719579671E+03  0.00000000000E+00 0. -1.
         21   -1    0    0  502  503 -0.00000000000E+00 -0.00000000000E+00 -0.74190474518E+03  0.74190474518E+03  0.00000000000E+00 0. -1.
    9000007    1    1    2  501    0  0.50757878218E+02  0.41641015022E+02 -0.12630610194E+03  0.42457457263E+03  0.40000000000E+03 0. -1.
   -9000007    1    1    2    0  503 -0.50757878218E+02 -0.41641015022E+02 -0.37840284652E+03  0.55452596927E+03  0.40000000000E+03 0. -1.
<mgrwt>
<rscale>  2 0.40535211E+03</rscale>
<asrwt>0</asrwt>
<pdfrwt beam="1">  1       21 0.36491661E-01 0.40535211E+03</pdfrwt>
<pdfrwt beam="2">  1       21 0.11413919E+00 0.40535211E+03</pdfrwt>
<totfact> 0.38331460E+03</totfact>
</mgrwt>
</event>
<event>
 4    1  0.1187342E-002  0.4909076E+03  0.7818608E-02  0.1016180E+00
         21   -1    0    0  503  502  0.00000000000E+00  0.00000000000E+00  0.34426212585E+03  0.34426212585E+03  0.00000000000E+00 0.  1.
         21   -1    0    0  501  503 -0.00000000000E+00 -0.00000000000E+00 -0.97037419605E+03  0.97037419605E+03  0.00000000000E+00 0.  1.
    9000007    1    1    2  501    0  0.23571551411E+03 -0.15946302527E+03 -0.66001078178E+03  0.82255971947E+03  0.40000000000E+03 0.  1.
   -9000007    1    1    2    0  502 -0.23571551411E+03  0.15946302527E+03  0.33898711578E+02  0.49207660244E+03  0.40000000000E+03 0.  1.
<mgrwt>
<rscale>  2 0.49090759E+03</rscale>
<asrwt>0</asrwt>
<pdfrwt beam="1">  1       21 0.52963405E-01 0.49090759E+03</pdfrwt>
<pdfrwt beam="2">  1       21 0.14928833E+00 0.49090759E+03</pdfrwt>
<totfact> 0.84637085E+02</totfact>
</mgrwt>
</event>
<event>
 4    1  0.1187342E-002  0.4826628E+03  0.7818608E-02  0.1018406E+00
         21   -1    0    0  501  502  0.00000000000E+00  0.00000000000E+00  0.29404541215E+03  0.29404541215E+03  0.00000000000E+00 0.  1.
         21   -1    0    0  502  503 -0.00000000000E+00 -0.00000000000E+00 -0.79568232704E+03  0.79568232704E+03  0.00000000000E+00 0.  1.
    9000007    1    1    2  501    0  0.17896281558E+03 -0.20232580633E+03 -0.21513803946E+03  0.52843901946E+03  0.40000000000E+03 0.  1.
   -9000007    1    1    2    0  503 -0.17896281558E+03  0.20232580633E+03 -0.28649887543E+03  0.56128871973E+03  0.40000000000E+03 0.  1.
<mgrwt>
<rscale>  2 0.48266284E+03</rscale>
<asrwt>0</asrwt>
<pdfrwt beam="1">  1       21 0.45237756E-01 0.48266284E+03</pdfrwt>
<pdfrwt beam="2">  1       21 0.12241266E+00 0.48266284E+03</pdfrwt>
<totfact> 0.20029122E+03</totfact>
</mgrwt>
</event>
<event>
 4    1  0.1187342E-002  0.4577192E+03  0.7818608E-02  0.1025445E+00
         21   -1    0    0  501  502  0.00000000000E+00  0.00000000000E+00  0.20512706683E+03  0.20512706683E+03  0.00000000000E+00 0. -1.
         21   -1    0    0  502  503 -0.00000000000E+00 -0.00000000000E+00 -0.10258411975E+04  0.10258411975E+04  0.00000000000E+00 0. -1.
    9000007    1    1    2  501    0 -0.22207518725E+03  0.13766028991E+02 -0.45107374690E+03  0.64263085632E+03  0.40000000000E+03 0. -1.
   -9000007    1    1    2    0  503  0.22207518725E+03 -0.13766028991E+02 -0.36964038377E+03  0.58833740801E+03  0.40000000000E+03 0. -1.
<mgrwt>
<rscale>  2 0.45771923E+03</rscale>
<asrwt>0</asrwt>
<pdfrwt beam="1">  1       21 0.31558010E-01 0.45771923E+03</pdfrwt>
<pdfrwt beam="2">  1       21 0.15782173E+00 0.45771923E+03</pdfrwt>
<totfact> 0.21510831E+03</totfact>
</mgrwt>
</event>
<event>
 4    1  0.1187342E-002  0.4655489E+03  0.7818608E-02  0.1023184E+00
         21   -1    0    0  501  502  0.00000000000E+00  0.00000000000E+00  0.61906979035E+02  0.61906979035E+02  0.00000000000E+00 0. -1.
         21   -1    0    0  502  503 -0.00000000000E+00 -0.00000000000E+00 -0.35223210214E+04  0.35223210214E+04  0.00000000000E+00 0. -1.
    9000007    1    1    2  501    0 -0.12921788064E+03  0.20009616388E+03 -0.15907457732E+04  0.16574703166E+04  0.40000000000E+03 0. -1.
   -9000007    1    1    2    0  503  0.12921788064E+03 -0.20009616388E+03 -0.18696682691E+04  0.19267576838E+04  0.40000000000E+03 0. -1.
<mgrwt>
<rscale>  2 0.46554885E+03</rscale>
<asrwt>0</asrwt>
<pdfrwt beam="1">  1       21 0.95241475E-02 0.46554885E+03</pdfrwt>
<pdfrwt beam="2">  1       21 0.54189572E+00 0.46554885E+03</pdfrwt>
<totfact> 0.61780245E+01</totfact>
</mgrwt>
</event>
<event>
 4    1  0.1187342E-002  0.5124493E+03  0.7818608E-02  0.1010580E+00
         21   -1    0    0  503  502  0.00000000000E+00  0.00000000000E+00  0.46764000361E+03  0.46764000361E+03  0.00000000000E+00 0. -1.
         21   -1    0    0  501  503 -0.00000000000E+00 -0.00000000000E+00 -0.58039898600E+03  0.58039898600E+03  0.00000000000E+00 0.  1.
    9000007    1    1    2  501    0 -0.30258818807E+03 -0.10509379562E+03  0.38048700362E+02  0.51385992356E+03  0.40000000000E+03 0.  1.
   -9000007    1    1    2    0  502  0.30258818807E+03  0.10509379562E+03 -0.15080768275E+03  0.53417906606E+03  0.40000000000E+03 0. -1.
<mgrwt>
<rscale>  2 0.51244933E+03</rscale>
<asrwt>0</asrwt>
<pdfrwt beam="1">  1       21 0.71944616E-01 0.51244933E+03</pdfrwt>
<pdfrwt beam="2">  1       21 0.89292152E-01 0.51244933E+03</pdfrwt>
<totfact> 0.15674339E+03</totfact>
</mgrwt>
</event>
<event>
 4    1  0.1187342E-002  0.4717043E+03  0.7818608E-02  0.1021440E+00
         21   -1    0    0  501  502  0.00000000000E+00  0.00000000000E+00  0.43984505257E+03  0.43984505257E+03  0.00000000000E+00 0. -1.
         21   -1    0    0  502  503 -0.00000000000E+00 -0.00000000000E+00 -0.57948456620E+03  0.57948456620E+03  0.00000000000E+00 0.  1.
    9000007    1    1    2  501    0 -0.80269130798E+02 -0.23677369803E+03  0.11183309986E+03  0.48477990848E+03  0.40000000000E+03 0. -1.
   -9000007    1    1    2    0  503  0.80269130798E+02  0.23677369803E+03 -0.25147261349E+03  0.53454971029E+03  0.40000000000E+03 0.  1.
<mgrwt>
<rscale>  2 0.47170427E+03</rscale>
<asrwt>0</asrwt>
<pdfrwt beam="1">  1       21 0.67668470E-01 0.47170427E+03</pdfrwt>
<pdfrwt beam="2">  1       21 0.89151471E-01 0.47170427E+03</pdfrwt>
<totfact> 0.18323529E+03</totfact>
</mgrwt>
</event>
<event>
 4    1  0.1187342E-002  0.4266719E+03  0.7818608E-02  0.1034916E+00
         21   -1    0    0  501  502  0.00000000000E+00  0.00000000000E+00  0.17727907788E+03  0.17727907788E+03  0.00000000000E+00 0.  1.
         21   -1    0    0  502  503 -0.00000000000E+00 -0.00000000000E+00 -0.10562039728E+04  0.10562039728E+04  0.00000000000E+00 0.  1.
    9000007    1    1    2  501    0 -0.11705222579E+03 -0.91365613517E+02 -0.54218130072E+03  0.68993438945E+03  0.40000000000E+03 0.  1.
   -9000007    1    1    2    0  503  0.11705222579E+03  0.91365613517E+02 -0.33674359422E+03  0.54354866125E+03  0.40000000000E+03 0.  1.
<mgrwt>
<rscale>  2 0.42667189E+03</rscale>
<asrwt>0</asrwt>
<pdfrwt beam="1">  1       21 0.27273704E-01 0.42667189E+03</pdfrwt>
<pdfrwt beam="2">  1       21 0.16249292E+00 0.42667189E+03</pdfrwt>
<totfact> 0.26810377E+03</totfact>
</mgrwt>
</event>
<event>
 4    1  0.1187342E-002  0.4058997E+03  0.7818608E-02  0.1041756E+00
         21   -1    0    0  503  502  0.00000000000E+00  0.00000000000E+00  0.14646023270E+03  0.14646023270E+03  0.00000000000E+00 0. -1.
         21   -1    0    0  501  503 -0.00000000000E+00 -0.00000000000E+00 -0.12317749962E+04  0.12317749962E+04  0.00000000000E+00 0. -1.
    9000007    1    1    2  501    0 -0.63873532948E+02 -0.25975502531E+02 -0.74563387677E+03  0.84895490642E+03  0.40000000000E+03 0. -1.
   -9000007    1    1    2    0  502  0.63873532948E+02  0.25975502531E+02 -0.33968088671E+03  0.52928032245E+03  0.40000000000E+03 0. -1.
<mgrwt>
<rscale>  2 0.40589969E+03</rscale>
<asrwt>0</asrwt>
<pdfrwt beam="1">  1       21 0.22532345E-01 0.40589969E+03</pdfrwt>
<pdfrwt beam="2">  1       21 0.18950384E+00 0.40589969E+03</pdfrwt>
<totfact> 0.25161612E+03</totfact>
</mgrwt>
</event>
<event>
 4    1  0.1187342E-002  0.4271328E+03  0.7818608E-02  0.1034770E+00
         21   -1    0    0  503  502  0.00000000000E+00  0.00000000000E+00  0.43149077341E+03  0.43149077341E+03  0.00000000000E+00 0. -1.
         21   -1    0    0  501  503 -0.00000000000E+00 -0.00000000000E+00 -0.56226490215E+03  0.56226490215E+03  0.00000000000E+00 0. -1.
    9000007    1    1    2  501    0 -0.13337047663E+03 -0.68225712195E+02 -0.31283409890E+03  0.52944084209E+03  0.40000000000E+03 0. -1.
   -9000007    1    1    2    0  502  0.13337047663E+03  0.68225712195E+02  0.18205997017E+03  0.46431483347E+03  0.40000000000E+03 0. -1.
<mgrwt>
<rscale>  2 0.42713280E+03</rscale>
<asrwt>0</asrwt>
<pdfrwt beam="1">  1       21 0.66383196E-01 0.42713280E+03</pdfrwt>
<pdfrwt beam="2">  1       21 0.86502292E-01 0.42713280E+03</pdfrwt>
<totfact> 0.20882787E+03</totfact>
</mgrwt>
</event>
<event>
 4    1  0.1187342E-002  0.4916782E+03  0.7818608E-02  0.1015974E+00
         21   -1    0    0  503  502  0.00000000000E+00  0.00000000000E+00  0.27857058696E+04  0.27857058696E+04  0.00000000000E+00 0. -1.
         21   -1    0    0  501  503 -0.00000000000E+00 -0.00000000000E+00 -0.92266295773E+02  0.92266295773E+02  0.00000000000E+00 0. -1.
    9000007    1    1    2  501    0  0.27416483368E+03  0.81123996220E+02  0.16975679377E+04  0.17673382138E+04  0.40000000000E+03 0. -1.
   -9000007    1    1    2    0  502 -0.27416483368E+03 -0.81123996220E+02  0.99587163616E+03  0.11106339516E+04  0.40000000000E+03 0. -1.
<mgrwt>
<rscale>  2 0.49167821E+03</rscale>
<asrwt>0</asrwt>
<pdfrwt beam="1">  1       21 0.42857007E+00 0.49167821E+03</pdfrwt>
<pdfrwt beam="2">  1       21 0.14194817E-01 0.49167821E+03</pdfrwt>
<totfact> 0.18397311E+02</totfact>
</mgrwt>
</event>
<event>
 4    1  0.1187342E-002  0.5204999E+03  0.7818608E-02  0.1008562E+00
         21   -1    0    0  501  502  0.00000000000E+00  0.00000000000E+00  0.27477403783E+03  0.27477403783E+03  0.00000000000E+00 0.  1.
         21   -1    0    0  502  503 -0.00000000000E+00 -0.00000000000E+00 -0.11880638973E+04  0.11880638973E+04  0.00000000000E+00 0. -1.
    9000007    1    1    2  501    0 -0.15419394309E+03  0.29520231211E+03 -0.15498463467E+03  0.54308416856E+03  0.40000000000E+03 0.  1.
   -9000007    1    1    2    0  503  0.15419394309E+03 -0.29520231211E+03 -0.75830522477E+03  0.91975376654E+03  0.40000000000E+03 0.  1.
<mgrwt>
<rscale>  2 0.52049993E+03</rscale>
<asrwt>0</asrwt>
<pdfrwt beam="1">  1       21 0.42272929E-01 0.52049993E+03</pdfrwt>
<pdfrwt beam="2">  1       21 0.18277906E+00 0.52049993E+03</pdfrwt>
<totfact> 0.75976754E+02</totfact>
</mgrwt>
</event>
<event>
 4    1  0.1187342E-002  0.5048145E+03  0.7818608E-02  0.1012530E+00
         21   -1    0    0  501  502  0.00000000000E+00  0.00000000000E+00  0.10352321842E+03  0.10352321842E+03  0.00000000000E+00 0.  1.
         21   -1    0    0  502  503 -0.00000000000E+00 -0.00000000000E+00 -0.26493219489E+04  0.26493219489E+04  0.00000000000E+00 0.  1.
    9000007    1    1    2  501    0 -0.17582423813E+03  0.25283105340E+03 -0.90655743227E+03  0.10376338864E+04  0.40000000000E+03 0.  1.
   -9000007    1    1    2    0  503  0.17582423813E+03 -0.25283105340E+03 -0.16392412982E+04  0.17152112808E+04  0.40000000000E+03 0.  1.
<mgrwt>
<rscale>  2 0.50481452E+03</rscale>
<asrwt>0</asrwt>
<pdfrwt beam="1">  1       21 0.15926649E-01 0.50481452E+03</pdfrwt>
<pdfrwt beam="2">  1       21 0.40758800E+00 0.50481452E+03</pdfrwt>
<totfact> 0.20229338E+02</totfact>
</mgrwt>
</event>
<event>
 4    1  0.1187342E-002  0.4259725E+03  0.7818608E-02  0.1035140E+00
         21   -1    0    0  501  502  0.00000000000E+00  0.00000000000E+00  0.41684481150E+03  0.41684481150E+03  0.00000000000E+00 0.  1.
         21   -1    0    0  502  503 -0.00000000000E+00 -0.00000000000E+00 -0.49706219560E+03  0.49706219560E+03  0.00000000000E+00 0.  1.
    9000007    1    1    2  501    0  0.14077844317E+03  0.40423102153E+02  0.12096609999E+03  0.44281530528E+03  0.40000000000E+03 0.  1.
   -9000007    1    1    2    0  503 -0.14077844317E+03 -0.40423102153E+02 -0.20118348408E+03  0.47109170181E+03  0.40000000000E+03 0.  1.
<mgrwt>
<rscale>  2 0.42597253E+03</rscale>
<asrwt>0</asrwt>
<pdfrwt beam="1">  1       21 0.64129971E-01 0.42597253E+03</pdfrwt>
<pdfrwt beam="2">  1       21 0.76471107E-01 0.42597253E+03</pdfrwt>
<totfact> 0.30007974E+03</totfact>
</mgrwt>
</event>
<event>
 4    1  0.1187342E-002  0.4175287E+03  0.7818608E-02  0.1037874E+00
         21   -1    0    0  503  502  0.00000000000E+00  0.00000000000E+00  0.10761744262E+04  0.10761744262E+04  0.00000000000E+00 0.  1.
         21   -1    0    0  501  503 -0.00000000000E+00 -0.00000000000E+00 -0.17552988365E+03  0.17552988365E+03  0.00000000000E+00 0.  1.
    9000007    1    1    2  501    0 -0.11093217910E+03 -0.44991450554E+02  0.62413977038E+03  0.75091985721E+03  0.40000000000E+03 0. -1.
   -9000007    1    1    2    0  502  0.11093217910E+03  0.44991450554E+02  0.27650477217E+03  0.50078445265E+03  0.40000000000E+03 0. -1.
<mgrwt>
<rscale>  2 0.41752866E+03</rscale>
<asrwt>0</asrwt>
<pdfrwt beam="1">  1       21 0.16556529E+00 0.41752866E+03</pdfrwt>
<pdfrwt beam="2">  1       21 0.27004598E-01 0.41752866E+03</pdfrwt>
<totfact> 0.26036434E+03</totfact>
</mgrwt>
</event>
<event>
 4    1  0.1187342E-002  0.4707688E+03  0.7818608E-02  0.1021703E+00
         21   -1    0    0  501  502  0.00000000000E+00  0.00000000000E+00  0.14842756222E+04  0.14842756222E+04  0.00000000000E+00 0. -1.
         21   -1    0    0  502  503 -0.00000000000E+00 -0.00000000000E+00 -0.15506320633E+03  0.15506320633E+03  0.00000000000E+00 0. -1.
    9000007    1    1    2  501    0  0.63601214792E+02  0.23995439993E+03  0.50677757470E+03  0.69169844498E+03  0.40000000000E+03 0. -1.
   -9000007    1    1    2    0  503 -0.63601214792E+02 -0.23995439993E+03  0.82243484117E+03  0.94764038356E+03  0.40000000000E+03 0. -1.
<mgrwt>
<rscale>  2 0.47076876E+03</rscale>
<asrwt>0</asrwt>
<pdfrwt beam="1">  1       21 0.22835009E+00 0.47076876E+03</pdfrwt>
<pdfrwt beam="2">  1       21 0.23855879E-01 0.47076876E+03</pdfrwt>
<totfact> 0.12190333E+03</totfact>
</mgrwt>
</event>
<event>
 4    1  0.1187342E-002  0.4045276E+03  0.7818608E-02  0.1042223E+00
         21   -1    0    0  501  502  0.00000000000E+00  0.00000000000E+00  0.19536161708E+04  0.19536161708E+04  0.00000000000E+00 0.  1.
         21   -1    0    0  502  503 -0.00000000000E+00 -0.00000000000E+00 -0.85563981188E+02  0.85563981188E+02  0.00000000000E+00 0.  1.
    9000007    1    1    2  501    0 -0.54961126153E+02  0.24937023284E+02  0.10819102939E+04  0.11550638357E+04  0.40000000000E+03 0. -1.
   -9000007    1    1    2    0  503  0.54961126153E+02 -0.24937023284E+02  0.78614189574E+03  0.88411631631E+03  0.40000000000E+03 0. -1.
<mgrwt>
<rscale>  2 0.40452760E+03</rscale>
<asrwt>0</asrwt>
<pdfrwt beam="1">  1       21 0.30055630E+00 0.40452760E+03</pdfrwt>
<pdfrwt beam="2">  1       21 0.13163691E-01 0.40452760E+03</pdfrwt>
<totfact> 0.14022319E+03</totfact>
</mgrwt>
</event>
<event>
 4    1  0.1187342E-002  0.4164040E+03  0.7818608E-02  0.1038243E+00
         21   -1    0    0  503  502  0.00000000000E+00  0.00000000000E+00  0.58532392755E+03  0.58532392755E+03  0.00000000000E+00 0. -1.
         21   -1    0    0  501  503 -0.00000000000E+00 -0.00000000000E+00 -0.31194347031E+03  0.31194347031E+03  0.00000000000E+00 0. -1.
    9000007    1    1    2  501    0  0.85219508233E+02 -0.78293692200E+02  0.36009013987E+02  0.41795803128E+03  0.40000000000E+03 0. -1.
   -9000007    1    1    2    0  502 -0.85219508233E+02  0.78293692200E+02  0.23737144325E+03  0.47930936658E+03  0.40000000000E+03 0. -1.
<mgrwt>
<rscale>  2 0.41640397E+03</rscale>
<asrwt>0</asrwt>
<pdfrwt beam="1">  1       21 0.90049835E-01 0.41640397E+03</pdfrwt>
<pdfrwt beam="2">  1       21 0.47991303E-01 0.41640397E+03</pdfrwt>
<totfact> 0.38525870E+03</totfact>
</mgrwt>
</event>
<event>
 4    1  0.1187342E-002  0.4148574E+03  0.7818608E-02  0.1038753E+00
         21   -1    0    0  501  502  0.00000000000E+00  0.00000000000E+00  0.13779809023E+04  0.13779809023E+04  0.00000000000E+00 0. -1.
         21   -1    0    0  502  503 -0.00000000000E+00 -0.00000000000E+00 -0.13217001537E+03  0.13217001537E+03  0.00000000000E+00 0. -1.
    9000007    1    1    2  501    0  0.10986566426E+03 -0.60191527605E+01  0.44578888116E+03  0.60896175656E+03  0.40000000000E+03 0. -1.
   -9000007    1    1    2    0  503 -0.10986566426E+03  0.60191527605E+01  0.80002200576E+03  0.90118916110E+03  0.40000000000E+03 0. -1.
<mgrwt>
<rscale>  2 0.41485744E+03</rscale>
<asrwt>0</asrwt>
<pdfrwt beam="1">  1       21 0.21199705E+00 0.41485744E+03</pdfrwt>
<pdfrwt beam="2">  1       21 0.20333849E-01 0.41485744E+03</pdfrwt>
<totfact> 0.21622637E+03</totfact>
</mgrwt>
</event>
<event>
 4    1  0.1187342E-002  0.4293158E+03  0.7818608E-02  0.1034076E+00
         21   -1    0    0  501  502  0.00000000000E+00  0.00000000000E+00  0.77095997261E+03  0.77095997261E+03  0.00000000000E+00 0.  1.
         21   -1    0    0  502  503 -0.00000000000E+00 -0.00000000000E+00 -0.29922594370E+03  0.29922594370E+03  0.00000000000E+00 0. -1.
    9000007    1    1    2  501    0 -0.15588321602E+03  0.35309932718E+01  0.47579186481E+03  0.64085095269E+03  0.40000000000E+03 0.  1.
   -9000007    1    1    2    0  503  0.15588321602E+03 -0.35309932718E+01 -0.40578358937E+01  0.42933496362E+03  0.40000000000E+03 0. -1.
<mgrwt>
<rscale>  2 0.42931579E+03</rscale>
<asrwt>0</asrwt>
<pdfrwt beam="1">  1       21 0.11860923E+00 0.42931579E+03</pdfrwt>
<pdfrwt beam="2">  1       21 0.46034761E-01 0.42931579E+03</pdfrwt>
<totfact> 0.21352975E+03</totfact>
</mgrwt>
</event>
<event>
 4    1  0.1187342E-002  0.4068608E+03  0.7818608E-02  0.1041430E+00
         21   -1    0    0  503  502  0.00000000000E+00  0.00000000000E+00  0.11074433425E+04  0.11074433425E+04  0.00000000000E+00 0. -1.
         21   -1    0    0  501  503 -0.00000000000E+00 -0.00000000000E+00 -0.17203287204E+03  0.17203287204E+03  0.00000000000E+00 0. -1.
    9000007    1    1    2  501    0 -0.69707802258E+02 -0.26010253514E+02  0.23605102421E+03  0.47037835517E+03  0.40000000000E+03 0. -1.
   -9000007    1    1    2    0  502  0.69707802258E+02  0.26010253514E+02  0.69935944624E+03  0.80909785937E+03  0.40000000000E+03 0. -1.
<mgrwt>
<rscale>  2 0.40686080E+03</rscale>
<asrwt>0</asrwt>
<pdfrwt beam="1">  1       21 0.17037589E+00 0.40686080E+03</pdfrwt>
<pdfrwt beam="2">  1       21 0.26466596E-01 0.40686080E+03</pdfrwt>
<totfact> 0.25091966E+03</totfact>
</mgrwt>
</event>
<event>
 4    1  0.1187342E-002  0.4568018E+03  0.7818608E-02  0.1025713E+00
         21   -1    0    0  503  502  0.00000000000E+00  0.00000000000E+00  0.80319765509E+03  0.80319765509E+03  0.00000000000E+00 0. -1.
         21   -1    0    0  501  503 -0.00000000000E+00 -0.00000000000E+00 -0.27916031427E+03  0.27916031427E+03  0.00000000000E+00 0. -1.
    9000007    1    1    2  501    0  0.21856203846E+03 -0.29975629434E+02  0.11948743509E+03  0.47217067906E+03  0.40000000000E+03 0. -1.
   -9000007    1    1    2    0  502 -0.21856203846E+03  0.29975629434E+02  0.40454990573E+03  0.61018729030E+03  0.40000000000E+03 0. -1.
<mgrwt>
<rscale>  2 0.45680182E+03</rscale>
<asrwt>0</asrwt>
<pdfrwt beam="1">  1       21 0.12356887E+00 0.45680182E+03</pdfrwt>
<pdfrwt beam="2">  1       21 0.42947741E-01 0.45680182E+03</pdfrwt>
<totfact> 0.22002926E+03</totfact>
</mgrwt>
</event>
<event>
 4    1  0.1187342E-002  0.6164964E+03  0.7818608E-02  0.9871760E-01
         21   -1    0    0  501  502  0.00000000000E+00  0.00000000000E+00  0.14077040929E+04  0.14077040929E+04  0.00000000000E+00 0.  1.
         21   -1    0    0  502  503 -0.00000000000E+00 -0.00000000000E+00 -0.27134152953E+03  0.27134152953E+03  0.00000000000E+00 0. -1.
    9000007    1    1    2  501    0 -0.46596968416E+03 -0.54222317522E+02  0.62740342020E+03  0.87960380738E+03  0.40000000000E+03 0. -1.
   -9000007    1    1    2    0  503  0.46596968416E+03  0.54222317522E+02  0.50895914321E+03  0.79944181510E+03  0.40000000000E+03 0.  1.
<mgrwt>
<rscale>  2 0.61649640E+03</rscale>
<asrwt>0</asrwt>
<pdfrwt beam="1">  1       21 0.21656986E+00 0.61649640E+03</pdfrwt>
<pdfrwt beam="2">  1       21 0.41744852E-01 0.61649640E+03</pdfrwt>
<totfact> 0.44492402E+02</totfact>
</mgrwt>
</event>
<event>
 4    1  0.1187342E-002  0.4076557E+03  0.7818608E-02  0.1041161E+00
         21   -1    0    0  503  502  0.00000000000E+00  0.00000000000E+00  0.60847051989E+03  0.60847051989E+03  0.00000000000E+00 0.  1.
         21   -1    0    0  501  503 -0.00000000000E+00 -0.00000000000E+00 -0.34245800079E+03  0.34245800079E+03  0.00000000000E+00 0.  1.
    9000007    1    1    2  501    0  0.66769597291E+02  0.41533236892E+02  0.34695592354E+03  0.53531448866E+03  0.40000000000E+03 0.  1.
   -9000007    1    1    2    0  502 -0.66769597291E+02 -0.41533236892E+02 -0.80943404443E+02  0.41561403202E+03  0.40000000000E+03 0.  1.
<mgrwt>
<rscale>  2 0.40765572E+03</rscale>
<asrwt>0</asrwt>
<pdfrwt beam="1">  1       21 0.93610849E-01 0.40765572E+03</pdfrwt>
<pdfrwt beam="2">  1       21 0.52685847E-01 0.40765572E+03</pdfrwt>
<totfact> 0.28913559E+03</totfact>
</mgrwt>
</event>
<event>
 4    1  0.1187342E-002  0.4471975E+03  0.7818608E-02  0.1028561E+00
         21   -1    0    0  501  502  0.00000000000E+00  0.00000000000E+00  0.88964545415E+02  0.88964545415E+02  0.00000000000E+00 0. -1.
         21   -1    0    0  502  503 -0.00000000000E+00 -0.00000000000E+00 -0.22486888226E+04  0.22486888226E+04  0.00000000000E+00 0. -1.
    9000007    1    1    2  501    0  0.12439092610E+03  0.15656475427E+03 -0.11014040785E+04  0.11887289720E+04  0.40000000000E+03 0.  1.
   -9000007    1    1    2    0  503 -0.12439092610E+03 -0.15656475427E+03 -0.10583201987E+04  0.11489243960E+04  0.40000000000E+03 0.  1.
<mgrwt>
<rscale>  2 0.44719752E+03</rscale>
<asrwt>0</asrwt>
<pdfrwt beam="1">  1       21 0.13686854E-01 0.44719752E+03</pdfrwt>
<pdfrwt beam="2">  1       21 0.34595211E+00 0.44719752E+03</pdfrwt>
<totfact> 0.67737753E+02</totfact>
</mgrwt>
</event>
<event>
 4    1  0.1187342E-002  0.4211529E+03  0.7818608E-02  0.1036692E+00
         21   -1    0    0  501  502  0.00000000000E+00  0.00000000000E+00  0.15414363413E+03  0.15414363413E+03  0.00000000000E+00 0.  1.
         21   -1    0    0  502  503 -0.00000000000E+00 -0.00000000000E+00 -0.18603403422E+04  0.18603403422E+04  0.00000000000E+00 0.  1.
    9000007    1    1    2  501    0 -0.13179413830E+03  0.30852262342E+00 -0.23099391773E+03  0.48034152445E+03  0.40000000000E+03 0.  1.
   -9000007    1    1    2    0  503  0.13179413830E+03 -0.30852262342E+00 -0.14752027903E+04  0.15341424519E+04  0.40000000000E+03 0.  1.
<mgrwt>
<rscale>  2 0.42115293E+03</rscale>
<asrwt>0</asrwt>
<pdfrwt beam="1">  1       21 0.23714407E-01 0.42115293E+03</pdfrwt>
<pdfrwt beam="2">  1       21 0.28620619E+00 0.42115293E+03</pdfrwt>
<totfact> 0.55984021E+02</totfact>
</mgrwt>
</event>
<event>
 4    1  0.1187342E-002  0.4349490E+03  0.7818608E-02  0.1032308E+00
         21   -1    0    0  501  502  0.00000000000E+00  0.00000000000E+00  0.19071110416E+03  0.19071110416E+03  0.00000000000E+00 0. -1.
         21   -1    0    0  502  503 -0.00000000000E+00 -0.00000000000E+00 -0.10595807110E+04  0.10595807110E+04  0.00000000000E+00 0. -1.
    9000007    1    1    2  501    0  0.17056150887E+03  0.94567966872E+01 -0.27652617372E+03  0.51540991847E+03  0.40000000000E+03 0. -1.
   -9000007    1    1    2    0  503 -0.17056150887E+03 -0.94567966872E+01 -0.59234343310E+03  0.73488189667E+03  0.40000000000E+03 0. -1.
<mgrwt>
<rscale>  2 0.43494903E+03</rscale>
<asrwt>0</asrwt>
<pdfrwt beam="1">  1       21 0.29340170E-01 0.43494903E+03</pdfrwt>
<pdfrwt beam="2">  1       21 0.16301242E+00 0.43494903E+03</pdfrwt>
<totfact> 0.22930011E+03</totfact>
</mgrwt>
</event>
<event>
 4    1  0.1187342E-002  0.4042299E+03  0.7818608E-02  0.1042325E+00
         21   -1    0    0  503  502  0.00000000000E+00  0.00000000000E+00  0.72587566530E+02  0.72587566530E+02  0.00000000000E+00 0.  1.
         21   -1    0    0  501  503 -0.00000000000E+00 -0.00000000000E+00 -0.22951357129E+04  0.22951357129E+04  0.00000000000E+00 0.  1.
    9000007    1    1    2  501    0 -0.13091890078E+02 -0.56836760385E+02 -0.94728946380E+03  0.10299316206E+04  0.40000000000E+03 0. -1.
   -9000007    1    1    2    0  502  0.13091890078E+02  0.56836760385E+02 -0.12752586825E+04  0.13377916588E+04  0.40000000000E+03 0. -1.
<mgrwt>
<rscale>  2 0.40422990E+03</rscale>
<asrwt>0</asrwt>
<pdfrwt beam="1">  1       21 0.11167319E-01 0.40422990E+03</pdfrwt>
<pdfrwt beam="2">  1       21 0.35309777E+00 0.40422990E+03</pdfrwt>
<totfact> 0.91163231E+02</totfact>
</mgrwt>
</event>
<event>
 4    1  0.1187342E-002  0.5702471E+03  0.7818608E-02  0.9969132E-01
         21   -1    0    0  503  502  0.00000000000E+00  0.00000000000E+00  0.40870136461E+03  0.40870136461E+03  0.00000000000E+00 0.  1.
         21   -1    0    0  501  503 -0.00000000000E+00 -0.00000000000E+00 -0.10272588760E+04  0.10272588760E+04  0.00000000000E+00 0. -1.
    9000007    1    1    2  501    0  0.39876522817E+03  0.78537136831E+02 -0.65019947641E+03  0.86483590824E+03  0.40000000000E+03 0. -1.
   -9000007    1    1    2    0  502 -0.39876522817E+03 -0.78537136831E+02  0.31641965038E+02  0.57112433235E+03  0.40000000000E+03 0.  1.
<mgrwt>
<rscale>  2 0.57024713E+03</rscale>
<asrwt>0</asrwt>
<pdfrwt beam="1">  1       21 0.62877134E-01 0.57024713E+03</pdfrwt>
<pdfrwt beam="2">  1       21 0.15803982E+00 0.57024713E+03</pdfrwt>
<totfact> 0.48257182E+02</totfact>
</mgrwt>
</event>
<event>
 4    1  0.1187342E-002  0.4166197E+03  0.7818608E-02  0.1038172E+00
         21   -1    0    0  503  502  0.00000000000E+00  0.00000000000E+00  0.16390596684E+03  0.16390596684E+03  0.00000000000E+00 0.  1.
         21   -1    0    0  501  503 -0.00000000000E+00 -0.00000000000E+00 -0.12891106684E+04  0.12891106684E+04  0.00000000000E+00 0.  1.
    9000007    1    1    2  501    0 -0.10704893203E+02  0.11600603185E+03 -0.86956768963E+03  0.96421987171E+03  0.40000000000E+03 0.  1.
   -9000007    1    1    2    0  502  0.10704893203E+02 -0.11600603185E+03 -0.25563701192E+03  0.48879676352E+03  0.40000000000E+03 0.  1.
<mgrwt>
<rscale>  2 0.41661972E+03</rscale>
<asrwt>0</asrwt>
<pdfrwt beam="1">  1       21 0.25216302E-01 0.41661972E+03</pdfrwt>
<pdfrwt beam="2">  1       21 0.19832472E+00 0.41661972E+03</pdfrwt>
<totfact> 0.17562159E+03</totfact>
</mgrwt>
</event>
<event>
 4    1  0.1187342E-002  0.8040961E+03  0.7818608E-02  0.9554107E-01
         21   -1    0    0  503  502  0.00000000000E+00  0.00000000000E+00  0.17209394200E+04  0.17209394200E+04  0.00000000000E+00 0.  1.
         21   -1    0    0  501  503 -0.00000000000E+00 -0.00000000000E+00 -0.39645546255E+03  0.39645546255E+03  0.00000000000E+00 0. -1.
    9000007    1    1    2  501    0 -0.67036989529E+03 -0.19280768042E+03  0.42005107888E+03  0.90720091876E+03  0.40000000000E+03 0.  1.
   -9000007    1    1    2    0  502  0.67036989529E+03  0.19280768042E+03  0.90443287858E+03  0.12101939638E+04  0.40000000000E+03 0. -1.
<mgrwt>
<rscale>  2 0.80409614E+03</rscale>
<asrwt>0</asrwt>
<pdfrwt beam="1">  1       21 0.26475991E+00 0.80409614E+03</pdfrwt>
<pdfrwt beam="2">  1       21 0.60993149E-01 0.80409614E+03</pdfrwt>
<totfact> 0.91266220E+01</totfact>
</mgrwt>
</event>
<event>
 4    1  0.1187342E-002  0.4041164E+03  0.7818608E-02  0.1042364E+00
         21   -1    0    0  501  502  0.00000000000E+00  0.00000000000E+00  0.54091484041E+03  0.54091484041E+03  0.00000000000E+00 0.  1.
         21   -1    0    0  502  503 -0.00000000000E+00 -0.00000000000E+00 -0.30797044476E+03  0.30797044476E+03  0.00000000000E+00 0.  1.
    9000007    1    1    2  501    0  0.57187243597E+02  0.62993292580E+01  0.17599091110E+03  0.44077529782E+03  0.40000000000E+03 0. -1.
   -9000007    1    1    2    0  503 -0.57187243597E+02 -0.62993292580E+01  0.56953484548E+02  0.40810998736E+03  0.40000000000E+03 0. -1.
<mgrwt>
<rscale>  2 0.40411640E+03</rscale>
<asrwt>0</asrwt>
<pdfrwt beam="1">  1       21 0.83217668E-01 0.40411640E+03</pdfrwt>
<pdfrwt beam="2">  1       21 0.47380069E-01 0.40411640E+03</pdfrwt>
<totfact> 0.47839387E+03</totfact>
</mgrwt>
</event>
<event>
 4    1  0.1187342E-002  0.4158167E+03  0.7818608E-02  0.1038436E+00
         21   -1    0    0  503  502  0.00000000000E+00  0.00000000000E+00  0.46485224903E+03  0.46485224903E+03  0.00000000000E+00 0. -1.
         21   -1    0    0  501  503 -0.00000000000E+00 -0.00000000000E+00 -0.69887340747E+03  0.69887340747E+03  0.00000000000E+00 0. -1.
    9000007    1    1    2  501    0 -0.99055247553E+02  0.55601984313E+02 -0.51497284432E+03  0.66189164756E+03  0.40000000000E+03 0. -1.
   -9000007    1    1    2    0  502  0.99055247553E+02 -0.55601984313E+02  0.28095168588E+03  0.50183400894E+03  0.40000000000E+03 0. -1.
<mgrwt>
<rscale>  2 0.41581669E+03</rscale>
<asrwt>0</asrwt>
<pdfrwt beam="1">  1       21 0.71515731E-01 0.41581669E+03</pdfrwt>
<pdfrwt beam="2">  1       21 0.10751898E+00 0.41581669E+03</pdfrwt>
<totfact> 0.10523636E+03</totfact>
</mgrwt>
</event>
<event>
 4    1  0.1187342E-002  0.6968547E+03  0.7818608E-02  0.9722626E-01
         21   -1    0    0  501  502  0.00000000000E+00  0.00000000000E+00  0.98253475928E+03  0.98253475928E+03  0.00000000000E+00 0.  1.
         21   -1    0    0  502  503 -0.00000000000E+00 -0.00000000000E+00 -0.49635404806E+03  0.49635404806E+03  0.00000000000E+00 0. -1.
    9000007    1    1    2  501    0 -0.54616737312E+03  0.16525029716E+03  0.19481494914E+03  0.72357399385E+03  0.40000000000E+03 0.  1.
   -9000007    1    1    2    0  503  0.54616737312E+03 -0.16525029716E+03  0.29136576209E+03  0.75531481349E+03  0.40000000000E+03 0. -1.
<mgrwt>
<rscale>  2 0.69685469E+03</rscale>
<asrwt>0</asrwt>
<pdfrwt beam="1">  1       21 0.15115919E+00 0.69685469E+03</pdfrwt>
<pdfrwt beam="2">  1       21 0.76362162E-01 0.69685469E+03</pdfrwt>
<totfact> 0.33728227E+02</totfact>
</mgrwt>
</event>
<event>
 4    1  0.1187342E-002  0.5022578E+03  0.7818608E-02  0.1013191E+00
         21   -1    0    0  503  502  0.00000000000E+00  0.00000000000E+00  0.18207847616E+04  0.18207847616E+04  0.00000000000E+00 0. -1.
         21   -1    0    0  501  503 -0.00000000000E+00 -0.00000000000E+00 -0.34640609543E+03  0.34640609543E+03  0.00000000000E+00 0. -1.
    9000007    1    1    2  501    0  0.17265894280E+03  0.24990346559E+03 -0.10219281629E+03  0.51254875314E+03  0.40000000000E+03 0. -1.
   -9000007    1    1    2    0  502 -0.17265894280E+03 -0.24990346559E+03  0.15765714825E+04  0.16546421039E+04  0.40000000000E+03 0. -1.
<mgrwt>
<rscale>  2 0.50225776E+03</rscale>
<asrwt>0</asrwt>
<pdfrwt beam="1">  1       21 0.28012073E+00 0.50225776E+03</pdfrwt>
<pdfrwt beam="2">  1       21 0.53293247E-01 0.50225776E+03</pdfrwt>
<totfact> 0.11202060E+02</totfact>
</mgrwt>
</event>
<event>
 4    1  0.1187342E-002  0.4342724E+03  0.7818608E-02  0.1032519E+00
         21   -1    0    0  503  502  0.00000000000E+00  0.00000000000E+00  0.30244930814E+03  0.30244930814E+03  0.00000000000E+00 0.  1.
         21   -1    0    0  501  503 -0.00000000000E+00 -0.00000000000E+00 -0.70219650328E+03  0.70219650328E+03  0.00000000000E+00 0. -1.
    9000007    1    1    2  501    0 -0.40008303180E+02  0.16429194977E+03 -0.36798266609E+03  0.56921327429E+03  0.40000000000E+03 0. -1.
   -9000007    1    1    2    0  502  0.40008303180E+02 -0.16429194977E+03 -0.31764529048E+02  0.43543253713E+03  0.40000000000E+03 0.  1.
<mgrwt>
<rscale>  2 0.43427239E+03</rscale>
<asrwt>0</asrwt>
<pdfrwt beam="1">  1       21 0.46530664E-01 0.43427239E+03</pdfrwt>
<pdfrwt beam="2">  1       21 0.10803023E+00 0.43427239E+03</pdfrwt>
<totfact> 0.26299419E+03</totfact>
</mgrwt>
</event>
<event>
 4    1  0.1187342E-002  0.4581557E+03  0.7818608E-02  0.1025317E+00
         21   -1    0    0  501  502  0.00000000000E+00  0.00000000000E+00  0.95479859381E+03  0.95479859381E+03  0.00000000000E+00 0. -1.
         21   -1    0    0  502  503 -0.00000000000E+00 -0.00000000000E+00 -0.29484896714E+03  0.29484896714E+03  0.00000000000E+00 0. -1.
    9000007    1    1    2  501    0  0.16460114318E+03 -0.15104021688E+03  0.64511438116E+03  0.79125169714E+03  0.40000000000E+03 0. -1.
   -9000007    1    1    2    0  503 -0.16460114318E+03  0.15104021688E+03  0.14835245514E+02  0.45839586381E+03  0.40000000000E+03 0. -1.
<mgrwt>
<rscale>  2 0.45815574E+03</rscale>
<asrwt>0</asrwt>
<pdfrwt beam="1">  1       21 0.14689209E+00 0.45815574E+03</pdfrwt>
<pdfrwt beam="2">  1       21 0.45361380E-01 0.45815574E+03</pdfrwt>
<totfact> 0.12453588E+03</totfact>
</mgrwt>
</event>
<event>
 4    1  0.1187342E-002  0.4672809E+03  0.7818608E-02  0.1022690E+00
         21   -1    0    0  503  502  0.00000000000E+00  0.00000000000E+00  0.85805063084E+03  0.85805063084E+03  0.00000000000E+00 0.  1.
         21   -1    0    0  501  503 -0.00000000000E+00 -0.00000000000E+00 -0.27331663206E+03  0.27331663206E+03  0.00000000000E+00 0. -1.
    9000007    1    1    2  501    0  0.22786048147E+03 -0.80194028926E+02  0.14383752609E+03  0.48891790232E+03  0.40000000000E+03 0.  1.
   -9000007    1    1    2    0  502 -0.22786048147E+03  0.80194028926E+02  0.44089647269E+03  0.64244936059E+03  0.40000000000E+03 0.  1.
<mgrwt>
<rscale>  2 0.46728094E+03</rscale>
<asrwt>0</asrwt>
<pdfrwt beam="1">  1       21 0.13200779E+00 0.46728094E+03</pdfrwt>
<pdfrwt beam="2">  1       21 0.42048713E-01 0.46728094E+03</pdfrwt>
<totfact> 0.19305048E+03</totfact>
</mgrwt>
</event>
<event>
 4    1  0.1187342E-002  0.5026531E+03  0.7818608E-02  0.1013089E+00
         21   -1    0    0  503  502  0.00000000000E+00  0.00000000000E+00  0.11327069243E+04  0.11327069243E+04  0.00000000000E+00 0. -1.
         21   -1    0    0  501  503 -0.00000000000E+00 -0.00000000000E+00 -0.27241502633E+03  0.27241502633E+03  0.00000000000E+00 0. -1.
    9000007    1    1    2  501    0 -0.69916205919E+02  0.29626318462E+03  0.72919321946E+03  0.88565394016E+03  0.40000000000E+03 0.  1.
   -9000007    1    1    2    0  502  0.69916205919E+02 -0.29626318462E+03  0.13109867854E+03  0.51946801049E+03  0.40000000000E+03 0.  1.
<mgrwt>
<rscale>  2 0.50265311E+03</rscale>
<asrwt>0</asrwt>
<pdfrwt beam="1">  1       21 0.17426260E+00 0.50265311E+03</pdfrwt>
<pdfrwt beam="2">  1       21 0.41910005E-01 0.50265311E+03</pdfrwt>
<totfact> 0.89567641E+02</totfact>
</mgrwt>
</event>
<event>
 4    1  0.1187342E-002  0.6136011E+03  0.7818608E-02  0.9877583E-01
         21   -1    0    0  503  502  0.00000000000E+00  0.00000000000E+00  0.26634647327E+03  0.26634647327E+03  0.00000000000E+00 0. -1.
         21   -1    0    0  501  503 -0.00000000000E+00 -0.00000000000E+00 -0.14145344671E+04  0.14145344671E+04  0.00000000000E+00 0.  1.
    9000007    1    1    2  501    0  0.22475523025E+03 -0.40742041656E+03 -0.55244640438E+03  0.82565328018E+03  0.40000000000E+03 0.  1.
   -9000007    1    1    2    0  502 -0.22475523025E+03  0.40742041656E+03 -0.59574158944E+03  0.85522766019E+03  0.40000000000E+03 0.  1.
<mgrwt>
<rscale>  2 0.61360110E+03</rscale>
<asrwt>0</asrwt>
<pdfrwt beam="1">  1       21 0.40976380E-01 0.61360110E+03</pdfrwt>
<pdfrwt beam="2">  1       21 0.21762069E+00 0.61360110E+03</pdfrwt>
<totfact> 0.45572188E+02</totfact>
</mgrwt>
</event>
<event>
 4    1  0.1187342E-002  0.4014132E+03  0.7818608E-02  0.1043291E+00
         21   -1    0    0  501  502  0.00000000000E+00  0.00000000000E+00  0.48603172852E+03  0.48603172852E+03  0.00000000000E+00 0.  1.
         21   -1    0    0  502  503 -0.00000000000E+00 -0.00000000000E+00 -0.39031814289E+03  0.39031814289E+03  0.00000000000E+00 0.  1.
    9000007    1    1    2  501    0  0.33652454436E+02  0.18809707397E+00 -0.12220040119E+03  0.41960155043E+03  0.40000000000E+03 0.  1.
   -9000007    1    1    2    0  503 -0.33652454436E+02 -0.18809707397E+00  0.21791398682E+03  0.45674832098E+03  0.40000000000E+03 0.  1.
<mgrwt>
<rscale>  2 0.40141316E+03</rscale>
<asrwt>0</asrwt>
<pdfrwt beam="1">  1       21 0.74774112E-01 0.40141316E+03</pdfrwt>
<pdfrwt beam="2">  1       21 0.60048945E-01 0.40141316E+03</pdfrwt>
<totfact> 0.36842791E+03</totfact>
</mgrwt>
</event>
<event>
 4    1  0.1187342E-002  0.5421945E+03  0.7818608E-02  0.1003317E+00
         21   -1    0    0  501  502  0.00000000000E+00  0.00000000000E+00  0.14816552190E+04  0.14816552190E+04  0.00000000000E+00 0. -1.
         21   -1    0    0  502  503 -0.00000000000E+00 -0.00000000000E+00 -0.26004857889E+03  0.26004857889E+03  0.00000000000E+00 0.  1.
    9000007    1    1    2  501    0  0.15614649050E+03  0.33104858178E+03  0.10347821139E+04  0.11682246844E+04  0.40000000000E+03 0.  1.
   -9000007    1    1    2    0  503 -0.15614649050E+03 -0.33104858178E+03  0.18682452618E+03  0.57347911346E+03  0.40000000000E+03 0.  1.
<mgrwt>
<rscale>  2 0.54219451E+03</rscale>
<asrwt>0</asrwt>
<pdfrwt beam="1">  1       21 0.22794695E+00 0.54219451E+03</pdfrwt>
<pdfrwt beam="2">  1       21 0.40007475E-01 0.54219451E+03</pdfrwt>
<totfact> 0.42270521E+02</totfact>
</mgrwt>
</event>
<event>
 4    1  0.1187342E-002  0.4255223E+03  0.7818608E-02  0.1035284E+00
         21   -1    0    0  503  502  0.00000000000E+00  0.00000000000E+00  0.33538977081E+03  0.33538977081E+03  0.00000000000E+00 0.  1.
         21   -1    0    0  501  503 -0.00000000000E+00 -0.00000000000E+00 -0.54113996405E+03  0.54113996405E+03  0.00000000000E+00 0.  1.
    9000007    1    1    2  501    0 -0.14320081265E+03 -0.23723198121E+02 -0.81703331944E+02  0.43329516190E+03  0.40000000000E+03 0. -1.
   -9000007    1    1    2    0  502  0.14320081265E+03  0.23723198121E+02 -0.12404686129E+03  0.44323457296E+03  0.40000000000E+03 0. -1.
<mgrwt>
<rscale>  2 0.42552234E+03</rscale>
<asrwt>0</asrwt>
<pdfrwt beam="1">  1       21 0.51598427E-01 0.42552234E+03</pdfrwt>
<pdfrwt beam="2">  1       21 0.83252301E-01 0.42552234E+03</pdfrwt>
<totfact> 0.39576869E+03</totfact>
</mgrwt>
</event>
<event>
 4    1  0.1187342E-002  0.6331603E+03  0.7818608E-02  0.9838901E-01
         21   -1    0    0  501  502  0.00000000000E+00  0.00000000000E+00  0.14584271366E+04  0.14584271366E+04  0.00000000000E+00 0. -1.
         21   -1    0    0  502  503 -0.00000000000E+00 -0.00000000000E+00 -0.30162630932E+03  0.30162630932E+03  0.00000000000E+00 0.  1.
    9000007    1    1    2  501    0 -0.48471245936E+03  0.77109213215E+02  0.31634345325E+03  0.70778893707E+03  0.40000000000E+03 0.  1.
   -9000007    1    1    2    0  503  0.48471245936E+03 -0.77109213215E+02  0.84045737407E+03  0.10522645089E+04  0.40000000000E+03 0. -1.
<mgrwt>
<rscale>  2 0.63316033E+03</rscale>
<asrwt>0</asrwt>
<pdfrwt beam="1">  1       21 0.22437340E+00 0.63316033E+03</pdfrwt>
<pdfrwt beam="2">  1       21 0.46404049E-01 0.63316033E+03</pdfrwt>
<totfact> 0.31512926E+02</totfact>
</mgrwt>
</event>
<event>
 4    1  0.1187342E-002  0.4903164E+03  0.7818608E-02  0.1016338E+00
         21   -1    0    0  501  502  0.00000000000E+00  0.00000000000E+00  0.98914740201E+03  0.98914740201E+03  0.00000000000E+00 0. -1.
         21   -1    0    0  502  503 -0.00000000000E+00 -0.00000000000E+00 -0.24366198971E+03  0.24366198971E+03  0.00000000000E+00 0.  1.
    9000007    1    1    2  501    0 -0.22411621998E+03  0.17372991010E+03  0.40368847159E+03  0.63511774012E+03  0.40000000000E+03 0. -1.
   -9000007    1    1    2    0  503  0.22411621998E+03 -0.17372991010E+03  0.34179694071E+03  0.59769165161E+03  0.40000000000E+03 0.  1.
<mgrwt>
<rscale>  2 0.49031639E+03</rscale>
<asrwt>0</asrwt>
<pdfrwt beam="1">  1       21 0.15217652E+00 0.49031639E+03</pdfrwt>
<pdfrwt beam="2">  1       21 0.37486460E-01 0.49031639E+03</pdfrwt>
<totfact> 0.16582061E+03</totfact>
</mgrwt>
</event>
<event>
 4    1  0.1187342E-002  0.5832084E+03  0.7818608E-02  0.9940869E-01
         21   -1    0    0  503  502  0.00000000000E+00  0.00000000000E+00  0.37875209346E+03  0.37875209346E+03  0.00000000000E+00 0. -1.
         21   -1    0    0  501  503 -0.00000000000E+00 -0.00000000000E+00 -0.11679547744E+04  0.11679547744E+04  0.00000000000E+00 0. -1.
    9000007    1    1    2  501    0  0.16506623745E+03 -0.39100539663E+03 -0.76637920751E+03  0.96305200932E+03  0.40000000000E+03 0. -1.
   -9000007    1    1    2    0  502 -0.16506623745E+03  0.39100539663E+03 -0.22823473404E+02  0.58365485853E+03  0.40000000000E+03 0. -1.
<mgrwt>
<rscale>  2 0.58320844E+03</rscale>
<asrwt>0</asrwt>
<pdfrwt beam="1">  1       21 0.58269553E-01 0.58320844E+03</pdfrwt>
<pdfrwt beam="2">  1       21 0.17968535E+00 0.58320844E+03</pdfrwt>
<totfact> 0.39315094E+02</totfact>
</mgrwt>
</event>
<event>
 4    1  0.1187342E-002  0.5170008E+03  0.7818608E-02  0.1009434E+00
         21   -1    0    0  501  502  0.00000000000E+00  0.00000000000E+00  0.53598216663E+03  0.53598216663E+03  0.00000000000E+00 0. -1.
         21   -1    0    0  502  503 -0.00000000000E+00 -0.00000000000E+00 -0.52682345785E+03  0.52682345785E+03  0.00000000000E+00 0. -1.
    9000007    1    1    2  501    0 -0.10045686541E+03  0.31176639111E+03  0.12737688585E+03  0.53246101781E+03  0.40000000000E+03 0. -1.
   -9000007    1    1    2    0  503  0.10045686541E+03 -0.31176639111E+03 -0.11821817707E+03  0.53034460667E+03  0.40000000000E+03 0. -1.
<mgrwt>
<rscale>  2 0.51700084E+03</rscale>
<asrwt>0</asrwt>
<pdfrwt beam="1">  1       21 0.82458795E-01 0.51700084E+03</pdfrwt>
<pdfrwt beam="2">  1       21 0.81049762E-01 0.51700084E+03</pdfrwt>
<totfact> 0.14355257E+03</totfact>
</mgrwt>
</event>
<event>
 4    1  0.1187342E-002  0.4092043E+03  0.7818608E-02  0.1040638E+00
         21   -1    0    0  503  502  0.00000000000E+00  0.00000000000E+00  0.12164875394E+04  0.12164875394E+04  0.00000000000E+00 0. -1.
         21   -1    0    0  501  503 -0.00000000000E+00 -0.00000000000E+00 -0.14096508143E+03  0.14096508143E+03  0.00000000000E+00 0. -1.
    9000007    1    1    2  501    0  0.74489726573E+02 -0.43582211700E+02  0.64186354085E+03  0.76120754963E+03  0.40000000000E+03 0.  1.
   -9000007    1    1    2    0  502 -0.74489726573E+02  0.43582211700E+02  0.43365891712E+03  0.59624507121E+03  0.40000000000E+03 0.  1.
<mgrwt>
<rscale>  2 0.40920426E+03</rscale>
<asrwt>0</asrwt>
<pdfrwt beam="1">  1       21 0.18715192E+00 0.40920426E+03</pdfrwt>
<pdfrwt beam="2">  1       21 0.21686936E-01 0.40920426E+03</pdfrwt>
<totfact> 0.28055783E+03</totfact>
</mgrwt>
</event>
<event>
 4    1  0.1187342E-002  0.4305451E+03  0.7818608E-02  0.1033688E+00
         21   -1    0    0  503  502  0.00000000000E+00  0.00000000000E+00  0.40282706325E+03  0.40282706325E+03  0.00000000000E+00 0.  1.
         21   -1    0    0  501  503 -0.00000000000E+00 -0.00000000000E+00 -0.46040982043E+03  0.46040982043E+03  0.00000000000E+00 0.  1.
    9000007    1    1    2  501    0  0.14492227866E+02  0.15861596330E+03 -0.18946652798E+02  0.43096174324E+03  0.40000000000E+03 0.  1.
   -9000007    1    1    2    0  502 -0.14492227866E+02 -0.15861596330E+03 -0.38636104374E+02  0.43227514044E+03  0.40000000000E+03 0.  1.
<mgrwt>
<rscale>  2 0.43054506E+03</rscale>
<asrwt>0</asrwt>
<pdfrwt beam="1">  1       21 0.61973394E-01 0.43054506E+03</pdfrwt>
<pdfrwt beam="2">  1       21 0.70832280E-01 0.43054506E+03</pdfrwt>
<totfact> 0.38445363E+03</totfact>
</mgrwt>
</event>
<event>
 4    1  0.1187342E-002  0.4244686E+03  0.7818608E-02  0.1035622E+00
         21   -1    0    0  503  502  0.00000000000E+00  0.00000000000E+00  0.56080737611E+03  0.56080737611E+03  0.00000000000E+00 0.  1.
         21   -1    0    0  501  503 -0.00000000000E+00 -0.00000000000E+00 -0.34068328123E+03  0.34068328123E+03  0.00000000000E+00 0.  1.
    9000007    1    1    2  501    0  0.39017658831E+01  0.14198014901E+03  0.24786048487E+01  0.42447582967E+03  0.40000000000E+03 0.  1.
   -9000007    1    1    2    0  502 -0.39017658831E+01 -0.14198014901E+03  0.21764549003E+03  0.47701482767E+03  0.40000000000E+03 0.  1.
<mgrwt>
<rscale>  2 0.42446859E+03</rscale>
<asrwt>0</asrwt>
<pdfrwt beam="1">  1       21 0.86278058E-01 0.42446859E+03</pdfrwt>
<pdfrwt beam="2">  1       21 0.52412813E-01 0.42446859E+03</pdfrwt>
<totfact> 0.35226216E+03</totfact>
</mgrwt>
</event>
<event>
 4    1  0.1187342E-002  0.4858684E+03  0.7818608E-02  0.1017535E+00
         21   -1    0    0  501  502  0.00000000000E+00  0.00000000000E+00  0.35800833709E+03  0.35800833709E+03  0.00000000000E+00 0. -1.
         21   -1    0    0  502  503 -0.00000000000E+00 -0.00000000000E+00 -0.66970493026E+03  0.66970493026E+03  0.00000000000E+00 0. -1.
    9000007    1    1    2  501    0  0.24902669302E+02 -0.27467796097E+03 -0.92084510096E+02  0.49451762575E+03  0.40000000000E+03 0. -1.
   -9000007    1    1    2    0  503 -0.24902669302E+02  0.27467796097E+03 -0.21961208308E+03  0.53319564159E+03  0.40000000000E+03 0. -1.
<mgrwt>
<rscale>  2 0.48586842E+03</rscale>
<asrwt>0</asrwt>
<pdfrwt beam="1">  1       21 0.55078206E-01 0.48586842E+03</pdfrwt>
<pdfrwt beam="2">  1       21 0.10303153E+00 0.48586842E+03</pdfrwt>
<totfact> 0.20243875E+03</totfact>
</mgrwt>
</event>
<event>
 4    1  0.1187342E-002  0.4132066E+03  0.7818608E-02  0.1039300E+00
         21   -1    0    0  501  502  0.00000000000E+00  0.00000000000E+00  0.13286459845E+03  0.13286459845E+03  0.00000000000E+00 0. -1.
         21   -1    0    0  502  503 -0.00000000000E+00 -0.00000000000E+00 -0.13075593579E+04  0.13075593579E+04  0.00000000000E+00 0. -1.
    9000007    1    1    2  501    0  0.17962676320E+02  0.10206400189E+03 -0.68181024800E+03  0.79724835058E+03  0.40000000000E+03 0. -1.
   -9000007    1    1    2    0  503 -0.17962676320E+02 -0.10206400189E+03 -0.49288451141E+03  0.64317560574E+03  0.40000000000E+03 0. -1.
<mgrwt>
<rscale>  2 0.41320663E+03</rscale>
<asrwt>0</asrwt>
<pdfrwt beam="1">  1       21 0.20440708E-01 0.41320663E+03</pdfrwt>
<pdfrwt beam="2">  1       21 0.20116298E+00 0.41320663E+03</pdfrwt>
<totfact> 0.25223374E+03</totfact>
</mgrwt>
</event>
<event>
 4    1  0.1187342E-002  0.5292654E+03  0.7818608E-02  0.1006410E+00
         21   -1    0    0  501  502  0.00000000000E+00  0.00000000000E+00  0.43800560228E+03  0.43800560228E+03  0.00000000000E+00 0.  1.
         21   -1    0    0  502  503 -0.00000000000E+00 -0.00000000000E+00 -0.70881900743E+03  0.70881900743E+03  0.00000000000E+00 0.  1.
    9000007    1    1    2  501    0  0.34453947262E+03  0.37608705665E+02  0.43860927141E+02  0.53107969634E+03  0.40000000000E+03 0.  1.
   -9000007    1    1    2    0  503 -0.34453947262E+03 -0.37608705665E+02 -0.31467433229E+03  0.61574491337E+03  0.40000000000E+03 0.  1.
<mgrwt>
<rscale>  2 0.52926540E+03</rscale>
<asrwt>0</asrwt>
<pdfrwt beam="1">  1       21 0.67385477E-01 0.52926540E+03</pdfrwt>
<pdfrwt beam="2">  1       21 0.10904908E+00 0.52926540E+03</pdfrwt>
<totfact> 0.11113441E+03</totfact>
</mgrwt>
</event>
<event>
 4    1  0.1187342E-002  0.5079875E+03  0.7818608E-02  0.1011715E+00
         21   -1    0    0  501  502  0.00000000000E+00  0.00000000000E+00  0.16422484366E+04  0.16422484366E+04  0.00000000000E+00 0. -1.
         21   -1    0    0  502  503 -0.00000000000E+00 -0.00000000000E+00 -0.15838006434E+03  0.15838006434E+03  0.00000000000E+00 0. -1.
    9000007    1    1    2  501    0  0.26737776693E+03  0.16297363508E+03  0.66204206590E+03  0.83447646642E+03  0.40000000000E+03 0. -1.
   -9000007    1    1    2    0  503 -0.26737776693E+03 -0.16297363508E+03  0.82182630633E+03  0.96615203449E+03  0.40000000000E+03 0. -1.
<mgrwt>
<rscale>  2 0.50798748E+03</rscale>
<asrwt>0</asrwt>
<pdfrwt beam="1">  1       21 0.25265359E+00 0.50798748E+03</pdfrwt>
<pdfrwt beam="2">  1       21 0.24366165E-01 0.50798748E+03</pdfrwt>
<totfact> 0.81171451E+02</totfact>
</mgrwt>
</event>
<event>
 4    1  0.1187342E-002  0.4003613E+03  0.7818608E-02  0.1043655E+00
         21   -1    0    0  503  502  0.00000000000E+00  0.00000000000E+00  0.12624720800E+04  0.12624720800E+04  0.00000000000E+00 0.  1.
         21   -1    0    0  501  503 -0.00000000000E+00 -0.00000000000E+00 -0.12903946988E+03  0.12903946988E+03  0.00000000000E+00 0.  1.
    9000007    1    1    2  501    0 -0.14233859458E+02  0.93024660053E+01  0.65494325138E+03  0.76761956798E+03  0.40000000000E+03 0. -1.
   -9000007    1    1    2    0  502  0.14233859458E+02 -0.93024660053E+01  0.47848935873E+03  0.62389198187E+03  0.40000000000E+03 0. -1.
<mgrwt>
<rscale>  2 0.40036126E+03</rscale>
<asrwt>0</asrwt>
<pdfrwt beam="1">  1       21 0.19422647E+00 0.40036126E+03</pdfrwt>
<pdfrwt beam="2">  1       21 0.19852227E-01 0.40036126E+03</pdfrwt>
<totfact> 0.29844253E+03</totfact>
</mgrwt>
</event>
<event>
 4    1  0.1187342E-002  0.4142226E+03  0.7818608E-02  0.1038963E+00
         21   -1    0    0  501  502  0.00000000000E+00  0.00000000000E+00  0.18125650549E+04  0.18125650549E+04  0.00000000000E+00 0. -1.
         21   -1    0    0  502  503 -0.00000000000E+00 -0.00000000000E+00 -0.94885077062E+02  0.94885077062E+02  0.00000000000E+00 0. -1.
    9000007    1    1    2  501    0  0.10173724031E+03  0.35069818767E+02  0.90512217701E+03  0.99540268915E+03  0.40000000000E+03 0. -1.
   -9000007    1    1    2    0  503 -0.10173724031E+03 -0.35069818767E+02  0.81255780084E+03  0.91204744282E+03  0.40000000000E+03 0. -1.
<mgrwt>
<rscale>  2 0.41422260E+03</rscale>
<asrwt>0</asrwt>
<pdfrwt beam="1">  1       21 0.27885614E+00 0.41422260E+03</pdfrwt>
<pdfrwt beam="2">  1       21 0.14597706E-01 0.41422260E+03</pdfrwt>
<totfact> 0.15552207E+03</totfact>
</mgrwt>
</event>
<event>
 4    1  0.1187342E-002  0.4295209E+03  0.7818608E-02  0.1034011E+00
         21   -1    0    0  501  502  0.00000000000E+00  0.00000000000E+00  0.71752746762E+03  0.71752746762E+03  0.00000000000E+00 0.  1.
         21   -1    0    0  502  503 -0.00000000000E+00 -0.00000000000E+00 -0.25909378561E+03  0.25909378561E+03  0.00000000000E+00 0.  1.
    9000007    1    1    2  501    0 -0.97125094222E+02 -0.12269838403E+03  0.18655904989E+03  0.46828672463E+03  0.40000000000E+03 0.  1.
   -9000007    1    1    2    0  503  0.97125094222E+02  0.12269838403E+03  0.27187463212E+03  0.50833452859E+03  0.40000000000E+03 0.  1.
<mgrwt>
<rscale>  2 0.42952087E+03</rscale>
<asrwt>0</asrwt>
<pdfrwt beam="1">  1       21 0.11038884E+00 0.42952087E+03</pdfrwt>
<pdfrwt beam="2">  1       21 0.39860583E-01 0.42952087E+03</pdfrwt>
<totfact> 0.34457058E+03</totfact>
</mgrwt>
</event>
<event>
 4    1  0.1187342E-002  0.4557039E+03  0.7818608E-02  0.1026035E+00
         21   -1    0    0  503  502  0.00000000000E+00  0.00000000000E+00  0.96467768936E+03  0.96467768936E+03  0.00000000000E+00 0.  1.
         21   -1    0    0  501  503 -0.00000000000E+00 -0.00000000000E+00 -0.23513461364E+03  0.23513461364E+03  0.00000000000E+00 0.  1.
    9000007    1    1    2  501    0 -0.14883510792E+03 -0.15973161768E+03  0.19040382081E+03  0.49388226737E+03  0.40000000000E+03 0.  1.
   -9000007    1    1    2    0  502  0.14883510792E+03  0.15973161768E+03  0.53913925490E+03  0.70593003564E+03  0.40000000000E+03 0.  1.
<mgrwt>
<rscale>  2 0.45570394E+03</rscale>
<asrwt>0</asrwt>
<pdfrwt beam="1">  1       21 0.14841195E+00 0.45570394E+03</pdfrwt>
<pdfrwt beam="2">  1       21 0.36174556E-01 0.45570394E+03</pdfrwt>
<totfact> 0.19344576E+03</totfact>
</mgrwt>
</event>
<event>
 4    1  0.1187342E-002  0.4339118E+03  0.7818608E-02  0.1032631E+00
         21   -1    0    0  501  502  0.00000000000E+00  0.00000000000E+00  0.13039221498E+03  0.13039221498E+03  0.00000000000E+00 0.  1.
         21   -1    0    0  502  503 -0.00000000000E+00 -0.00000000000E+00 -0.14451427621E+04  0.14451427621E+04  0.00000000000E+00 0.  1.
    9000007    1    1    2  501    0  0.16317730397E+03  0.40652767434E+02 -0.63471735732E+03  0.76885993764E+03  0.40000000000E+03 0.  1.
   -9000007    1    1    2    0  503 -0.16317730397E+03 -0.40652767434E+02 -0.68003318985E+03  0.80667503948E+03  0.40000000000E+03 0.  1.
<mgrwt>
<rscale>  2 0.43391183E+03</rscale>
<asrwt>0</asrwt>
<pdfrwt beam="1">  1       21 0.20060341E-01 0.43391183E+03</pdfrwt>
<pdfrwt beam="2">  1       21 0.22232965E+00 0.43391183E+03</pdfrwt>
<totfact> 0.18879293E+03</totfact>
</mgrwt>
</event>
<event>
 4    1  0.1187342E-002  0.5142712E+03  0.7818608E-02  0.1010120E+00
         21   -1    0    0  503  502  0.00000000000E+00  0.00000000000E+00  0.31553300256E+03  0.31553300256E+03  0.00000000000E+00 0.  1.
         21   -1    0    0  501  503 -0.00000000000E+00 -0.00000000000E+00 -0.99657806586E+03  0.99657806586E+03  0.00000000000E+00 0.  1.
    9000007    1    1    2  501    0  0.20482872104E+03  0.25004011637E+03 -0.60207193919E+03  0.79181152096E+03  0.40000000000E+03 0.  1.
   -9000007    1    1    2    0  502 -0.20482872104E+03 -0.25004011637E+03 -0.78973124106E+02  0.52029954746E+03  0.40000000000E+03 0.  1.
<mgrwt>
<rscale>  2 0.51427120E+03</rscale>
<asrwt>0</asrwt>
<pdfrwt beam="1">  1       21 0.48543539E-01 0.51427120E+03</pdfrwt>
<pdfrwt beam="2">  1       21 0.15331970E+00 0.51427120E+03</pdfrwt>
<totfact> 0.93957001E+02</totfact>
</mgrwt>
</event>
<event>
 4    1  0.1187342E-002  0.5996006E+03  0.7818608E-02  0.9906235E-01
         21   -1    0    0  503  502  0.00000000000E+00  0.00000000000E+00  0.31329186312E+03  0.31329186312E+03  0.00000000000E+00 0.  1.
         21   -1    0    0  501  503 -0.00000000000E+00 -0.00000000000E+00 -0.14642997449E+04  0.14642997449E+04  0.00000000000E+00 0.  1.
    9000007    1    1    2  501    0  0.31352638217E+03 -0.31815418415E+03 -0.98887399601E+03  0.11564569413E+04  0.40000000000E+03 0.  1.
   -9000007    1    1    2    0  502 -0.31352638217E+03  0.31815418415E+03 -0.16213388575E+03  0.62113466665E+03  0.40000000000E+03 0.  1.
<mgrwt>
<rscale>  2 0.59960060E+03</rscale>
<asrwt>0</asrwt>
<pdfrwt beam="1">  1       21 0.48198747E-01 0.59960060E+03</pdfrwt>
<pdfrwt beam="2">  1       21 0.22527689E+00 0.59960060E+03</pdfrwt>
<totfact> 0.29047303E+02</totfact>
</mgrwt>
</event>
<event>
 4    1  0.1187342E-002  0.4923150E+03  0.7818608E-02  0.1015805E+00
         21   -1    0    0  501  502  0.00000000000E+00  0.00000000000E+00  0.14200606321E+03  0.14200606321E+03  0.00000000000E+00 0. -1.
         21   -1    0    0  502  503 -0.00000000000E+00 -0.00000000000E+00 -0.18276051449E+04  0.18276051449E+04  0.00000000000E+00 0. -1.
    9000007    1    1    2  501    0 -0.28383288223E+03 -0.42578711884E+02 -0.58959234083E+03  0.76811013540E+03  0.40000000000E+03 0. -1.
   -9000007    1    1    2    0  503  0.28383288223E+03  0.42578711884E+02 -0.10960067409E+04  0.12015010727E+04  0.40000000000E+03 0. -1.
<mgrwt>
<rscale>  2 0.49231499E+03</rscale>
<asrwt>0</asrwt>
<pdfrwt beam="1">  1       21 0.21847088E-01 0.49231499E+03</pdfrwt>
<pdfrwt beam="2">  1       21 0.28117000E+00 0.49231499E+03</pdfrwt>
<totfact> 0.67659869E+02</totfact>
</mgrwt>
</event>
<event>
 4    1  0.1187342E-002  0.4293991E+03  0.7818608E-02  0.1034050E+00
         21   -1    0    0  501  502  0.00000000000E+00  0.00000000000E+00  0.15054748046E+04  0.15054748046E+04  0.00000000000E+00 0. -1.
         21   -1    0    0  502  503 -0.00000000000E+00 -0.00000000000E+00 -0.12337481878E+03  0.12337481878E+03  0.00000000000E+00 0. -1.
    9000007    1    1    2  501    0  0.52383309579E+02 -0.14710396590E+03  0.62151149916E+03  0.75542049978E+03  0.40000000000E+03 0. -1.
   -9000007    1    1    2    0  503 -0.52383309579E+02  0.14710396590E+03  0.76058848666E+03  0.87342912360E+03  0.40000000000E+03 0. -1.
<mgrwt>
<rscale>  2 0.42939910E+03</rscale>
<asrwt>0</asrwt>
<pdfrwt beam="1">  1       21 0.23161150E+00 0.42939910E+03</pdfrwt>
<pdfrwt beam="2">  1       21 0.18980742E-01 0.42939910E+03</pdfrwt>
<totfact> 0.18362739E+03</totfact>
</mgrwt>
</event>
<event>
 4    1  0.1187342E-002  0.5923767E+03  0.7818608E-02  0.9921349E-01
         21   -1    0    0  503  502  0.00000000000E+00  0.00000000000E+00  0.12307333729E+04  0.12307333729E+04  0.00000000000E+00 0. -1.
         21   -1    0    0  501  503 -0.00000000000E+00 -0.00000000000E+00 -0.30088911767E+03  0.30088911767E+03  0.00000000000E+00 0.  1.
    9000007    1    1    2  501    0 -0.22483529422E+03  0.37464546784E+03  0.64022286333E+03  0.87223589174E+03  0.40000000000E+03 0.  1.
   -9000007    1    1    2    0  502  0.22483529422E+03 -0.37464546784E+03  0.28962139195E+03  0.65938659888E+03  0.40000000000E+03 0.  1.
<mgrwt>
<rscale>  2 0.59237668E+03</rscale>
<asrwt>0</asrwt>
<pdfrwt beam="1">  1       21 0.18934359E+00 0.59237668E+03</pdfrwt>
<pdfrwt beam="2">  1       21 0.46290634E-01 0.59237668E+03</pdfrwt>
<totfact> 0.55006155E+02</totfact>
</mgrwt>
</event>
<event>
 4    1  0.1187342E-002  0.5051295E+03  0.7818608E-02  0.1012449E+00
         21   -1    0    0  501  502  0.00000000000E+00  0.00000000000E+00  0.13027104746E+04  0.13027104746E+04  0.00000000000E+00 0. -1.
         21   -1    0    0  502  503 -0.00000000000E+00 -0.00000000000E+00 -0.19593392877E+03  0.19593392877E+03  0.00000000000E+00 0. -1.
    9000007    1    1    2  501    0  0.21039981132E+03  0.22558317780E+03  0.53937014538E+03  0.73896955582E+03  0.40000000000E+03 0. -1.
   -9000007    1    1    2    0  503 -0.21039981132E+03 -0.22558317780E+03  0.56740640042E+03  0.75967484752E+03  0.40000000000E+03 0. -1.
<mgrwt>
<rscale>  2 0.50512954E+03</rscale>
<asrwt>0</asrwt>
<pdfrwt beam="1">  1       21 0.20041699E+00 0.50512954E+03</pdfrwt>
<pdfrwt beam="2">  1       21 0.30143682E-01 0.50512954E+03</pdfrwt>
<totfact> 0.11517913E+03</totfact>
</mgrwt>
</event>
<event>
 4    1  0.1187342E-002  0.4775819E+03  0.7818608E-02  0.1019802E+00
         21   -1    0    0  501  502  0.00000000000E+00  0.00000000000E+00  0.25993319704E+03  0.25993319704E+03  0.00000000000E+00 0.  1.
         21   -1    0    0  502  503 -0.00000000000E+00 -0.00000000000E+00 -0.98952056388E+03  0.98952056388E+03  0.00000000000E+00 0. -1.
    9000007    1    1    2  501    0 -0.23620070382E+03  0.11087707780E+03 -0.15457177643E+03  0.50197304005E+03  0.40000000000E+03 0.  1.
   -9000007    1    1    2    0  503  0.23620070382E+03 -0.11087707780E+03 -0.57501559041E+03  0.74748072088E+03  0.40000000000E+03 0. -1.
<mgrwt>
<rscale>  2 0.47758193E+03</rscale>
<asrwt>0</asrwt>
<pdfrwt beam="1">  1       21 0.39989722E-01 0.47758193E+03</pdfrwt>
<pdfrwt beam="2">  1       21 0.15223394E+00 0.47758193E+03</pdfrwt>
<totfact> 0.14576733E+03</totfact>
</mgrwt>
</event>
<event>
 4    1  0.1187342E-002  0.4001857E+03  0.7818608E-02  0.1043715E+00
         21   -1    0    0  503  502  0.00000000000E+00  0.00000000000E+00  0.36765726998E+03  0.36765726998E+03  0.00000000000E+00 0.  1.
         21   -1    0    0  501  503 -0.00000000000E+00 -0.00000000000E+00 -0.66205698969E+03  0.66205698969E+03  0.00000000000E+00 0.  1.
    9000007    1    1    2  501    0 -0.91155767201E+01 -0.80948037292E+01 -0.44831974687E+03  0.60094859599E+03  0.40000000000E+03 0.  1.
   -9000007    1    1    2    0  502  0.91155767201E+01  0.80948037292E+01  0.15392002716E+03  0.42876566367E+03  0.40000000000E+03 0.  1.
<mgrwt>
<rscale>  2 0.40018573E+03</rscale>
<asrwt>0</asrwt>
<pdfrwt beam="1">  1       21 0.56562657E-01 0.40018573E+03</pdfrwt>
<pdfrwt beam="2">  1       21 0.10185492E+00 0.40018573E+03</pdfrwt>
<totfact> 0.20317788E+03</totfact>
</mgrwt>
</event>
<event>
 4    1  0.1187342E-002  0.4835167E+03  0.7818608E-02  0.1018173E+00
         21   -1    0    0  503  502  0.00000000000E+00  0.00000000000E+00  0.64657330582E+03  0.64657330582E+03  0.00000000000E+00 0. -1.
         21   -1    0    0  501  503 -0.00000000000E+00 -0.00000000000E+00 -0.50976759881E+03  0.50976759881E+03  0.00000000000E+00 0. -1.
    9000007    1    1    2  501    0 -0.24295862845E+03 -0.12148873615E+03 -0.24332436899E+03  0.54129027027E+03  0.40000000000E+03 0. -1.
   -9000007    1    1    2    0  502  0.24295862845E+03  0.12148873615E+03  0.38013007599E+03  0.61505063436E+03  0.40000000000E+03 0. -1.
<mgrwt>
<rscale>  2 0.48351671E+03</rscale>
<asrwt>0</asrwt>
<pdfrwt beam="1">  1       21 0.99472816E-01 0.48351671E+03</pdfrwt>
<pdfrwt beam="2">  1       21 0.78425785E-01 0.48351671E+03</pdfrwt>
<totfact> 0.10034696E+03</totfact>
</mgrwt>
</event>
<event>
 4    1  0.1187342E-002  0.6143024E+03  0.7818608E-02  0.9876169E-01
         21   -1    0    0  501  502  0.00000000000E+00  0.00000000000E+00  0.12686619570E+04  0.12686619570E+04  0.00000000000E+00 0. -1.
         21   -1    0    0  502  503 -0.00000000000E+00 -0.00000000000E+00 -0.31580916124E+03  0.31580916124E+03  0.00000000000E+00 0. -1.
    9000007    1    1    2  501    0  0.46120677483E+03 -0.68233134403E+02  0.66742559972E+03  0.90709667674E+03  0.40000000000E+03 0. -1.
   -9000007    1    1    2    0  503 -0.46120677483E+03  0.68233134403E+02  0.28542719604E+03  0.67737444152E+03  0.40000000000E+03 0. -1.
<mgrwt>
<rscale>  2 0.61430241E+03</rscale>
<asrwt>0</asrwt>
<pdfrwt beam="1">  1       21 0.19517876E+00 0.61430241E+03</pdfrwt>
<pdfrwt beam="2">  1       21 0.48586025E-01 0.61430241E+03</pdfrwt>
<totfact> 0.44903745E+02</totfact>
</mgrwt>
</event>
<event>
 4    1  0.1187342E-002  0.5496914E+03  0.7818608E-02  0.1001565E+00
         21   -1    0    0  503  502  0.00000000000E+00  0.00000000000E+00  0.22119677588E+03  0.22119677588E+03  0.00000000000E+00 0. -1.
         21   -1    0    0  501  503 -0.00000000000E+00 -0.00000000000E+00 -0.14003554220E+04  0.14003554220E+04  0.00000000000E+00 0.  1.
    9000007    1    1    2  501    0  0.20462932636E+03 -0.31668200698E+03 -0.71652325989E+03  0.90308705932E+03  0.40000000000E+03 0.  1.
   -9000007    1    1    2    0  502 -0.20462932636E+03  0.31668200698E+03 -0.46263538625E+03  0.71846513859E+03  0.40000000000E+03 0. -1.
<mgrwt>
<rscale>  2 0.54969142E+03</rscale>
<asrwt>0</asrwt>
<pdfrwt beam="1">  1       21 0.34030274E-01 0.54969142E+03</pdfrwt>
<pdfrwt beam="2">  1       21 0.21543929E+00 0.54969142E+03</pdfrwt>
<totfact> 0.70615945E+02</totfact>
</mgrwt>
</event>
<event>
 4    1  0.1187342E-002  0.4640278E+03  0.7818608E-02  0.1023619E+00
         21   -1    0    0  501  502  0.00000000000E+00  0.00000000000E+00  0.67984515768E+03  0.67984515768E+03  0.00000000000E+00 0. -1.
         21   -1    0    0  502  503 -0.00000000000E+00 -0.00000000000E+00 -0.33135790043E+03  0.33135790043E+03  0.00000000000E+00 0. -1.
    9000007    1    1    2  501    0  0.89786027526E+01  0.23503448986E+03  0.28050402446E+03  0.54222166544E+03  0.40000000000E+03 0. -1.
   -9000007    1    1    2    0  503 -0.89786027526E+01 -0.23503448986E+03  0.67983232788E+02  0.46898139267E+03  0.40000000000E+03 0. -1.
<mgrwt>
<rscale>  2 0.46402783E+03</rscale>
<asrwt>0</asrwt>
<pdfrwt beam="1">  1       21 0.10459156E+00 0.46402783E+03</pdfrwt>
<pdfrwt beam="2">  1       21 0.50978139E-01 0.46402783E+03</pdfrwt>
<totfact> 0.23217343E+03</totfact>
</mgrwt>
</event>
<event>
 4    1  0.1187342E-002  0.5354721E+03  0.7818608E-02  0.1004914E+00
         21   -1    0    0  503  502  0.00000000000E+00  0.00000000000E+00  0.98105453008E+03  0.98105453008E+03  0.00000000000E+00 0.  1.
         21   -1    0    0  501  503 -0.00000000000E+00 -0.00000000000E+00 -0.29292437841E+03  0.29292437841E+03  0.00000000000E+00 0.  1.
    9000007    1    1    2  501    0  0.14238364908E+03  0.32627785427E+03  0.37422994248E+03  0.65328278070E+03  0.40000000000E+03 0.  1.
   -9000007    1    1    2    0  502 -0.14238364908E+03 -0.32627785427E+03  0.31390020920E+03  0.62069612779E+03  0.40000000000E+03 0.  1.
<mgrwt>
<rscale>  2 0.53547207E+03</rscale>
<asrwt>0</asrwt>
<pdfrwt beam="1">  1       21 0.15093146E+00 0.53547207E+03</pdfrwt>
<pdfrwt beam="2">  1       21 0.45065290E-01 0.53547207E+03</pdfrwt>
<totfact> 0.11390340E+03</totfact>
</mgrwt>
</event>
<event>
 4    1  0.1187342E-002  0.4149099E+03  0.7818608E-02  0.1038736E+00
         21   -1    0    0  503  502  0.00000000000E+00  0.00000000000E+00  0.17020111562E+03  0.17020111562E+03  0.00000000000E+00 0.  1.
         21   -1    0    0  501  503 -0.00000000000E+00 -0.00000000000E+00 -0.10115684561E+04  0.10115684561E+04  0.00000000000E+00 0.  1.
    9000007    1    1    2  501    0  0.49140535162E+02  0.98668187174E+02 -0.42703248641E+03  0.59540486041E+03  0.40000000000E+03 0.  1.
   -9000007    1    1    2    0  502 -0.49140535162E+02 -0.98668187174E+02 -0.41433485407E+03  0.58636471130E+03  0.40000000000E+03 0.  1.
<mgrwt>
<rscale>  2 0.41490987E+03</rscale>
<asrwt>0</asrwt>
<pdfrwt beam="1">  1       21 0.26184787E-01 0.41490987E+03</pdfrwt>
<pdfrwt beam="2">  1       21 0.15562592E+00 0.41490987E+03</pdfrwt>
<totfact> 0.32887908E+03</totfact>
</mgrwt>
</event>
<event>
 4    1  0.1187342E-002  0.5069830E+03  0.7818608E-02  0.1011972E+00
         21   -1    0    0  503  502  0.00000000000E+00  0.00000000000E+00  0.93065968838E+03  0.93065968838E+03  0.00000000000E+00 0. -1.
         21   -1    0    0  501  503 -0.00000000000E+00 -0.00000000000E+00 -0.32136224285E+03  0.32136224285E+03  0.00000000000E+00 0.  1.
    9000007    1    1    2  501    0 -0.30456907510E+03  0.65341116604E+02  0.69924939030E+02  0.51178245390E+03  0.40000000000E+03 0.  1.
   -9000007    1    1    2    0  502  0.30456907510E+03 -0.65341116604E+02  0.53937250650E+03  0.74023947732E+03  0.40000000000E+03 0. -1.
<mgrwt>
<rscale>  2 0.50698302E+03</rscale>
<asrwt>0</asrwt>
<pdfrwt beam="1">  1       21 0.14317841E+00 0.50698302E+03</pdfrwt>
<pdfrwt beam="2">  1       21 0.49440346E-01 0.50698302E+03</pdfrwt>
<totfact> 0.10912939E+03</totfact>
</mgrwt>
</event>
<event>
 4    1  0.1187342E-002  0.4429015E+03  0.7818608E-02  0.1029860E+00
         21   -1    0    0  501  502  0.00000000000E+00  0.00000000000E+00  0.61740861599E+03  0.61740861599E+03  0.00000000000E+00 0. -1.
         21   -1    0    0  502  503 -0.00000000000E+00 -0.00000000000E+00 -0.33004489919E+03  0.33004489919E+03  0.00000000000E+00 0. -1.
    9000007    1    1    2  501    0 -0.16088760581E+03  0.10137509227E+03  0.23523456071E+03  0.50149479518E+03  0.40000000000E+03 0.  1.
   -9000007    1    1    2    0  503  0.16088760581E+03 -0.10137509227E+03  0.52129156092E+02  0.44595872001E+03  0.40000000000E+03 0.  1.
<mgrwt>
<rscale>  2 0.44290149E+03</rscale>
<asrwt>0</asrwt>
<pdfrwt beam="1">  1       21 0.94985941E-01 0.44290149E+03</pdfrwt>
<pdfrwt beam="2">  1       21 0.50776138E-01 0.44290149E+03</pdfrwt>
<totfact> 0.29814351E+03</totfact>
</mgrwt>
</event>
<event>
 4    1  0.1187342E-002  0.4116464E+03  0.7818608E-02  0.1039820E+00
         21   -1    0    0  503  502  0.00000000000E+00  0.00000000000E+00  0.46707261648E+03  0.46707261648E+03  0.00000000000E+00 0.  1.
         21   -1    0    0  501  503 -0.00000000000E+00 -0.00000000000E+00 -0.37858815636E+03  0.37858815636E+03  0.00000000000E+00 0.  1.
    9000007    1    1    2  501    0  0.79360570847E+02 -0.56166173281E+02 -0.42112056124E+02  0.41379483382E+03  0.40000000000E+03 0.  1.
   -9000007    1    1    2    0  502 -0.79360570847E+02  0.56166173281E+02  0.13059651625E+03  0.43186593902E+03  0.40000000000E+03 0.  1.
<mgrwt>
<rscale>  2 0.41164638E+03</rscale>
<asrwt>0</asrwt>
<pdfrwt beam="1">  1       21 0.71857326E-01 0.41164638E+03</pdfrwt>
<pdfrwt beam="2">  1       21 0.58244332E-01 0.41164638E+03</pdfrwt>
<totfact> 0.42926209E+03</totfact>
</mgrwt>
</event>
<event>
 4    1  0.1187342E-002  0.4664618E+03  0.7818608E-02  0.1022924E+00
         21   -1    0    0  501  502  0.00000000000E+00  0.00000000000E+00  0.29300102699E+03  0.29300102699E+03  0.00000000000E+00 0. -1.
         21   -1    0    0  502  503 -0.00000000000E+00 -0.00000000000E+00 -0.87423523458E+03  0.87423523458E+03  0.00000000000E+00 0.  1.
    9000007    1    1    2  501    0  0.23415222142E+03  0.52529489113E+02 -0.64164191680E+02  0.47085417436E+03  0.40000000000E+03 0. -1.
   -9000007    1    1    2    0  503 -0.23415222142E+03 -0.52529489113E+02 -0.51707001592E+03  0.69638208721E+03  0.40000000000E+03 0.  1.
<mgrwt>
<rscale>  2 0.46646180E+03</rscale>
<asrwt>0</asrwt>
<pdfrwt beam="1">  1       21 0.45077082E-01 0.46646180E+03</pdfrwt>
<pdfrwt beam="2">  1       21 0.13449773E+00 0.46646180E+03</pdfrwt>
<totfact> 0.15906739E+03</totfact>
</mgrwt>
</event>
<event>
 4    1  0.1187342E-002  0.5589749E+03  0.7818608E-02  0.9994377E-01
         21   -1    0    0  501  502  0.00000000000E+00  0.00000000000E+00  0.86588047717E+03  0.86588047717E+03  0.00000000000E+00 0.  1.
         21   -1    0    0  502  503 -0.00000000000E+00 -0.00000000000E+00 -0.39907401432E+03  0.39907401432E+03  0.00000000000E+00 0.  1.
    9000007    1    1    2  501    0 -0.35615999874E+03  0.16000922570E+03  0.42914648765E+03  0.70471242708E+03  0.40000000000E+03 0.  1.
   -9000007    1    1    2    0  503  0.35615999874E+03 -0.16000922570E+03  0.37659975198E+02  0.56024206442E+03  0.40000000000E+03 0.  1.
<mgrwt>
<rscale>  2 0.55897486E+03</rscale>
<asrwt>0</asrwt>
<pdfrwt beam="1">  1       21 0.13321238E+00 0.55897486E+03</pdfrwt>
<pdfrwt beam="2">  1       21 0.61396002E-01 0.55897486E+03</pdfrwt>
<totfact> 0.81155004E+02</totfact>
</mgrwt>
</event>
<event>
 4    1  0.1187342E-002  0.4132305E+03  0.7818608E-02  0.1039292E+00
         21   -1    0    0  501  502  0.00000000000E+00  0.00000000000E+00  0.33096120151E+03  0.33096120151E+03  0.00000000000E+00 0.  1.
         21   -1    0    0  502  503 -0.00000000000E+00 -0.00000000000E+00 -0.55705626660E+03  0.55705626660E+03  0.00000000000E+00 0.  1.
    9000007    1    1    2  501    0  0.97171940266E+02  0.36291584579E+02  0.75658421417E+01  0.41329977868E+03  0.40000000000E+03 0.  1.
   -9000007    1    1    2    0  503 -0.97171940266E+02 -0.36291584579E+02 -0.23366090724E+03  0.47471768943E+03  0.40000000000E+03 0.  1.
<mgrwt>
<rscale>  2 0.41323052E+03</rscale>
<asrwt>0</asrwt>
<pdfrwt beam="1">  1       21 0.50917108E-01 0.41323052E+03</pdfrwt>
<pdfrwt beam="2">  1       21 0.85700964E-01 0.41323052E+03</pdfrwt>
<totfact> 0.38223493E+03</totfact>
</mgrwt>
</event>
<event>
 4    1  0.1187342E-002  0.5034014E+03  0.7818608E-02  0.1012895E+00
         21   -1    0    0  503  502  0.00000000000E+00  0.00000000000E+00  0.12300973015E+04  0.12300973015E+04  0.00000000000E+00 0.  1.
         21   -1    0    0  501  503 -0.00000000000E+00 -0.00000000000E+00 -0.22333969437E+03  0.22333969437E+03  0.00000000000E+00 0. -1.
    9000007    1    1    2  501    0  0.12268322149E+03 -0.27993171576E+03  0.70580777322E+03  0.86693572487E+03  0.40000000000E+03 0.  1.
   -9000007    1    1    2    0  502 -0.12268322149E+03  0.27993171576E+03  0.30094983388E+03  0.58650127096E+03  0.40000000000E+03 0.  1.
<mgrwt>
<rscale>  2 0.50340137E+03</rscale>
<asrwt>0</asrwt>
<pdfrwt beam="1">  1       21 0.18924573E+00 0.50340137E+03</pdfrwt>
<pdfrwt beam="2">  1       21 0.34359954E-01 0.50340137E+03</pdfrwt>
<totfact> 0.10552400E+03</totfact>
</mgrwt>
</event>
<event>
 4    1  0.1187342E-002  0.4578603E+03  0.7818608E-02  0.1025404E+00
         21   -1    0    0  503  502  0.00000000000E+00  0.00000000000E+00  0.39312681405E+03  0.39312681405E+03  0.00000000000E+00 0. -1.
         21   -1    0    0  501  503 -0.00000000000E+00 -0.00000000000E+00 -0.71656859215E+03  0.71656859215E+03  0.00000000000E+00 0. -1.
    9000007    1    1    2  501    0 -0.22072292525E+03 -0.30289045843E+02 -0.44235771658E+03  0.63664463043E+03  0.40000000000E+03 0. -1.
   -9000007    1    1    2    0  502  0.22072292525E+03  0.30289045843E+02  0.11891593848E+03  0.47305077577E+03  0.40000000000E+03 0. -1.
<mgrwt>
<rscale>  2 0.45786028E+03</rscale>
<asrwt>0</asrwt>
<pdfrwt beam="1">  1       21 0.60481049E-01 0.45786028E+03</pdfrwt>
<pdfrwt beam="2">  1       21 0.11024132E+00 0.45786028E+03</pdfrwt>
<totfact> 0.14114556E+03</totfact>
</mgrwt>
</event>
<event>
 4    1  0.1187342E-002  0.6434352E+03  0.7818608E-02  0.9819176E-01
         21   -1    0    0  501  502  0.00000000000E+00  0.00000000000E+00  0.89706884766E+03  0.89706884766E+03  0.00000000000E+00 0. -1.
         21   -1    0    0  502  503 -0.00000000000E+00 -0.00000000000E+00 -0.47334145658E+03  0.47334145658E+03  0.00000000000E+00 0.  1.
    9000007    1    1    2  501    0 -0.42772335997E+03 -0.26657372682E+03  0.10354594017E+03  0.65171357683E+03  0.40000000000E+03 0.  1.
   -9000007    1    1    2    0  503  0.42772335997E+03  0.26657372682E+03  0.32018145090E+03  0.71869672742E+03  0.40000000000E+03 0. -1.
<mgrwt>
<rscale>  2 0.64343518E+03</rscale>
<asrwt>0</asrwt>
<pdfrwt beam="1">  1       21 0.13801059E+00 0.64343518E+03</pdfrwt>
<pdfrwt beam="2">  1       21 0.72821763E-01 0.64343518E+03</pdfrwt>
<totfact> 0.48981309E+02</totfact>
</mgrwt>
</event>
<event>
 4    1  0.1187342E-002  0.4390670E+03  0.7818608E-02  0.1031033E+00
         21   -1    0    0  501  502  0.00000000000E+00  0.00000000000E+00  0.25764364794E+03  0.25764364794E+03  0.00000000000E+00 0.  1.
         21   -1    0    0  502  503 -0.00000000000E+00 -0.00000000000E+00 -0.94905272043E+03  0.94905272043E+03  0.00000000000E+00 0.  1.
    9000007    1    1    2  501    0  0.15730947065E+03 -0.89629892122E+02 -0.62323862592E+03  0.76236878999E+03  0.40000000000E+03 0.  1.
   -9000007    1    1    2    0  503 -0.15730947065E+03  0.89629892122E+02 -0.68170446578E+02  0.44432757838E+03  0.40000000000E+03 0.  1.
<mgrwt>
<rscale>  2 0.43906695E+03</rscale>
<asrwt>0</asrwt>
<pdfrwt beam="1">  1       21 0.39637484E-01 0.43906695E+03</pdfrwt>
<pdfrwt beam="2">  1       21 0.14600811E+00 0.43906695E+03</pdfrwt>
<totfact> 0.16883547E+03</totfact>
</mgrwt>
</event>
<event>
 4    1  0.1187342E-002  0.4590715E+03  0.7818608E-02  0.1025051E+00
         21   -1    0    0  501  502  0.00000000000E+00  0.00000000000E+00  0.47176865275E+03  0.47176865275E+03  0.00000000000E+00 0. -1.
         21   -1    0    0  502  503 -0.00000000000E+00 -0.00000000000E+00 -0.46185253318E+03  0.46185253318E+03  0.00000000000E+00 0.  1.
    9000007    1    1    2  501    0 -0.33883038652E+02  0.22270738045E+03 -0.79550610662E+02  0.46591301470E+03  0.40000000000E+03 0.  1.
   -9000007    1    1    2    0  503  0.33883038652E+02 -0.22270738045E+03  0.89466730226E+02  0.46770817123E+03  0.40000000000E+03 0.  1.
<mgrwt>
<rscale>  2 0.45907150E+03</rscale>
<asrwt>0</asrwt>
<pdfrwt beam="1">  1       21 0.72579793E-01 0.45907150E+03</pdfrwt>
<pdfrwt beam="2">  1       21 0.71054236E-01 0.45907150E+03</pdfrwt>
<totfact> 0.26551637E+03</totfact>
</mgrwt>
</event>
<event>
 4    1  0.1187342E-002  0.4767061E+03  0.7818608E-02  0.1020044E+00
         21   -1    0    0  503  502  0.00000000000E+00  0.00000000000E+00  0.18930569313E+03  0.18930569313E+03  0.00000000000E+00 0. -1.
         21   -1    0    0  501  503 -0.00000000000E+00 -0.00000000000E+00 -0.12531230976E+04  0.12531230976E+04  0.00000000000E+00 0. -1.
    9000007    1    1    2  501    0 -0.25887262026E+03  0.15286526171E+02 -0.67979705571E+03  0.83028473933E+03  0.40000000000E+03 0. -1.
   -9000007    1    1    2    0  502  0.25887262026E+03 -0.15286526171E+02 -0.38402034877E+03  0.61214405140E+03  0.40000000000E+03 0. -1.
<mgrwt>
<rscale>  2 0.47670611E+03</rscale>
<asrwt>0</asrwt>
<pdfrwt beam="1">  1       21 0.29123953E-01 0.47670611E+03</pdfrwt>
<pdfrwt beam="2">  1       21 0.19278817E+00 0.47670611E+03</pdfrwt>
<totfact> 0.14048914E+03</totfact>
</mgrwt>
</event>
<event>
 4    1  0.1187342E-002  0.4449220E+03  0.7818608E-02  0.1029247E+00
         21   -1    0    0  501  502  0.00000000000E+00  0.00000000000E+00  0.79883041126E+03  0.79883041126E+03  0.00000000000E+00 0. -1.
         21   -1    0    0  502  503 -0.00000000000E+00 -0.00000000000E+00 -0.29449762398E+03  0.29449762398E+03  0.00000000000E+00 0. -1.
    9000007    1    1    2  501    0  0.16611176118E+03  0.10179641744E+03  0.46983472339E+03  0.64707054878E+03  0.40000000000E+03 0. -1.
   -9000007    1    1    2    0  503 -0.16611176118E+03 -0.10179641744E+03  0.34498063893E+02  0.44625748646E+03  0.40000000000E+03 0. -1.
<mgrwt>
<rscale>  2 0.44492205E+03</rscale>
<asrwt>0</asrwt>
<pdfrwt beam="1">  1       21 0.12289699E+00 0.44492205E+03</pdfrwt>
<pdfrwt beam="2">  1       21 0.45307327E-01 0.44492205E+03</pdfrwt>
<totfact> 0.20044580E+03</totfact>
</mgrwt>
</event>
<event>
 4    1  0.1187342E-002  0.4344196E+03  0.7818608E-02  0.1032473E+00
         21   -1    0    0  503  502  0.00000000000E+00  0.00000000000E+00  0.26636590895E+03  0.26636590895E+03  0.00000000000E+00 0.  1.
         21   -1    0    0  501  503 -0.00000000000E+00 -0.00000000000E+00 -0.74998911428E+03  0.74998911428E+03  0.00000000000E+00 0. -1.
    9000007    1    1    2  501    0  0.14816256618E+03  0.82269185003E+02 -0.36133494222E+03  0.56505159525E+03  0.40000000000E+03 0. -1.
   -9000007    1    1    2    0  502 -0.14816256618E+03 -0.82269185003E+02 -0.12228826310E+03  0.45130342798E+03  0.40000000000E+03 0.  1.
<mgrwt>
<rscale>  2 0.43441957E+03</rscale>
<asrwt>0</asrwt>
<pdfrwt beam="1">  1       21 0.40979371E-01 0.43441957E+03</pdfrwt>
<pdfrwt beam="2">  1       21 0.11538294E+00 0.43441957E+03</pdfrwt>
<totfact> 0.29097354E+03</totfact>
</mgrwt>
</event>
<event>
 4    1  0.1187342E-002  0.5278557E+03  0.7818608E-02  0.1006753E+00
         21   -1    0    0  501  502  0.00000000000E+00  0.00000000000E+00  0.19648602514E+03  0.19648602514E+03  0.00000000000E+00 0.  1.
         21   -1    0    0  502  503 -0.00000000000E+00 -0.00000000000E+00 -0.15116310683E+04  0.15116310683E+04  0.00000000000E+00 0.  1.
    9000007    1    1    2  501    0 -0.34284645307E+03 -0.32984319195E+02 -0.44509947609E+03  0.69046737744E+03  0.40000000000E+03 0.  1.
   -9000007    1    1    2    0  503  0.34284645307E+03  0.32984319195E+02 -0.87004556705E+03  0.10176497160E+04  0.40000000000E+03 0.  1.
<mgrwt>
<rscale>  2 0.52785571E+03</rscale>
<asrwt>0</asrwt>
<pdfrwt beam="1">  1       21 0.30228619E-01 0.52785571E+03</pdfrwt>
<pdfrwt beam="2">  1       21 0.23255863E+00 0.52785571E+03</pdfrwt>
<totfact> 0.70229135E+02</totfact>
</mgrwt>
</event>
<event>
 4    1  0.1187342E-002  0.5844371E+03  0.7818608E-02  0.9938231E-01
         21   -1    0    0  501  502  0.00000000000E+00  0.00000000000E+00  0.19000457670E+03  0.19000457670E+03  0.00000000000E+00 0. -1.
         21   -1    0    0  502  503 -0.00000000000E+00 -0.00000000000E+00 -0.27675883121E+04  0.27675883121E+04  0.00000000000E+00 0.  1.
    9000007    1    1    2  501    0  0.33636082987E+03 -0.26158775212E+03 -0.41335711937E+03  0.71584276770E+03  0.40000000000E+03 0. -1.
   -9000007    1    1    2    0  503 -0.33636082987E+03  0.26158775212E+03 -0.21642266160E+04  0.22417501211E+04  0.40000000000E+03 0.  1.
<mgrwt>
<rscale>  2 0.58443713E+03</rscale>
<asrwt>0</asrwt>
<pdfrwt beam="1">  1       21 0.29231476E-01 0.58443713E+03</pdfrwt>
<pdfrwt beam="2">  1       21 0.42578277E+00 0.58443713E+03</pdfrwt>
<totfact> 0.45584045E+01</totfact>
</mgrwt>
</event>
<event>
 4    1  0.1187342E-002  0.4926121E+03  0.7818608E-02  0.1015725E+00
         21   -1    0    0  503  502  0.00000000000E+00  0.00000000000E+00  0.22855283588E+03  0.22855283588E+03  0.00000000000E+00 0.  1.
         21   -1    0    0  501  503 -0.00000000000E+00 -0.00000000000E+00 -0.11657730526E+04  0.11657730526E+04  0.00000000000E+00 0. -1.
    9000007    1    1    2  501    0 -0.15837744688E+03 -0.23996509448E+03 -0.26035973173E+03  0.55718385848E+03  0.40000000000E+03 0.  1.
   -9000007    1    1    2    0  502  0.15837744688E+03  0.23996509448E+03 -0.67686048499E+03  0.83714203000E+03  0.40000000000E+03 0. -1.
<mgrwt>
<rscale>  2 0.49261208E+03</rscale>
<asrwt>0</asrwt>
<pdfrwt beam="1">  1       21 0.35161975E-01 0.49261208E+03</pdfrwt>
<pdfrwt beam="2">  1       21 0.17934970E+00 0.49261208E+03</pdfrwt>
<totfact> 0.11857569E+03</totfact>
</mgrwt>
</event>
<event>
 4    1  0.1187342E-002  0.6018657E+03  0.7818608E-02  0.9901543E-01
         21   -1    0    0  501  502  0.00000000000E+00  0.00000000000E+00  0.32291843637E+03  0.32291843637E+03  0.00000000000E+00 0.  1.
         21   -1    0    0  502  503 -0.00000000000E+00 -0.00000000000E+00 -0.12557588900E+04  0.12557588900E+04  0.00000000000E+00 0. -1.
    9000007    1    1    2  501    0 -0.23348123810E+03 -0.38435512063E+03 -0.20858993808E+03  0.63698674206E+03  0.40000000000E+03 0. -1.
   -9000007    1    1    2    0  503  0.23348123810E+03  0.38435512063E+03 -0.72425051557E+03  0.94169058433E+03  0.40000000000E+03 0. -1.
<mgrwt>
<rscale>  2 0.60186572E+03</rscale>
<asrwt>0</asrwt>
<pdfrwt beam="1">  1       21 0.49679759E-01 0.60186572E+03</pdfrwt>
<pdfrwt beam="2">  1       21 0.19319368E+00 0.60186572E+03</pdfrwt>
<totfact> 0.44374626E+02</totfact>
</mgrwt>
</event>
<event>
 4    1  0.1187342E-002  0.5251178E+03  0.7818608E-02  0.1007423E+00
         21   -1    0    0  503  502  0.00000000000E+00  0.00000000000E+00  0.98121135416E+03  0.98121135416E+03  0.00000000000E+00 0.  1.
         21   -1    0    0  501  503 -0.00000000000E+00 -0.00000000000E+00 -0.28867840050E+03  0.28867840050E+03  0.00000000000E+00 0.  1.
    9000007    1    1    2  501    0  0.59216747255E+02  0.33502554104E+03  0.24290808540E+03  0.57857849447E+03  0.40000000000E+03 0.  1.
   -9000007    1    1    2    0  502 -0.59216747255E+02 -0.33502554104E+03  0.44962486826E+03  0.69131126019E+03  0.40000000000E+03 0.  1.
<mgrwt>
<rscale>  2 0.52511783E+03</rscale>
<asrwt>0</asrwt>
<pdfrwt beam="1">  1       21 0.15095559E+00 0.52511783E+03</pdfrwt>
<pdfrwt beam="2">  1       21 0.44412062E-01 0.52511783E+03</pdfrwt>
<totfact> 0.11782839E+03</totfact>
</mgrwt>
</event>
<event>
 4    1  0.1187342E-002  0.4297581E+03  0.7818608E-02  0.1033936E+00
         21   -1    0    0  503  502  0.00000000000E+00  0.00000000000E+00  0.47380659155E+03  0.47380659155E+03  0.00000000000E+00 0. -1.
         21   -1    0    0  501  503 -0.00000000000E+00 -0.00000000000E+00 -0.39812051635E+03  0.39812051635E+03  0.00000000000E+00 0. -1.
    9000007    1    1    2  501    0 -0.14241417754E+03  0.66409509585E+02 -0.25165035126E+02  0.43049425074E+03  0.40000000000E+03 0. -1.
   -9000007    1    1    2    0  502  0.14241417754E+03 -0.66409509585E+02  0.10085111032E+03  0.44143285716E+03  0.40000000000E+03 0. -1.
<mgrwt>
<rscale>  2 0.42975810E+03</rscale>
<asrwt>0</asrwt>
<pdfrwt beam="1">  1       21 0.72893322E-01 0.42975810E+03</pdfrwt>
<pdfrwt beam="2">  1       21 0.61249310E-01 0.42975810E+03</pdfrwt>
<totfact> 0.36985787E+03</totfact>
</mgrwt>
</event>
<event>
 4    1  0.1187342E-002  0.4146703E+03  0.7818608E-02  0.1038815E+00
         21   -1    0    0  503  502  0.00000000000E+00  0.00000000000E+00  0.71059462640E+03  0.71059462640E+03  0.00000000000E+00 0.  1.
         21   -1    0    0  501  503 -0.00000000000E+00 -0.00000000000E+00 -0.25651228987E+03  0.25651228987E+03  0.00000000000E+00 0.  1.
    9000007    1    1    2  501    0  0.10929727031E+03 -0.23539989521E+01  0.11195564584E+03  0.42951775428E+03  0.40000000000E+03 0. -1.
   -9000007    1    1    2    0  502 -0.10929727031E+03  0.23539989521E+01  0.34212669069E+03  0.53758916199E+03  0.40000000000E+03 0. -1.
<mgrwt>
<rscale>  2 0.41467027E+03</rscale>
<asrwt>0</asrwt>
<pdfrwt beam="1">  1       21 0.10932225E+00 0.41467027E+03</pdfrwt>
<pdfrwt beam="2">  1       21 0.39463429E-01 0.41467027E+03</pdfrwt>
<totfact> 0.36230769E+03</totfact>
</mgrwt>
</event>
<event>
 4    1  0.1187342E-002  0.4141733E+03  0.7818608E-02  0.1038980E+00
         21   -1    0    0  501  502  0.00000000000E+00  0.00000000000E+00  0.10579265209E+04  0.10579265209E+04  0.00000000000E+00 0. -1.
         21   -1    0    0  502  503 -0.00000000000E+00 -0.00000000000E+00 -0.16803735019E+03  0.16803735019E+03  0.00000000000E+00 0. -1.
    9000007    1    1    2  501    0 -0.60550311478E+02  0.88730903668E+02  0.55971203740E+03  0.69628807134E+03  0.40000000000E+03 0.  1.
   -9000007    1    1    2    0  503  0.60550311478E+02 -0.88730903668E+02  0.33017713335E+03  0.52967579978E+03  0.40000000000E+03 0.  1.
<mgrwt>
<rscale>  2 0.41417329E+03</rscale>
<asrwt>0</asrwt>
<pdfrwt beam="1">  1       21 0.16275792E+00 0.41417329E+03</pdfrwt>
<pdfrwt beam="2">  1       21 0.25851901E-01 0.41417329E+03</pdfrwt>
<totfact> 0.29787310E+03</totfact>
</mgrwt>
</event>
<event>
 4    1  0.1187342E-002  0.4638872E+03  0.7818608E-02  0.1023660E+00
         21   -1    0    0  503  502  0.00000000000E+00  0.00000000000E+00  0.44743930345E+03  0.44743930345E+03  0.00000000000E+00 0.  1.
         21   -1    0    0  501  503 -0.00000000000E+00 -0.00000000000E+00 -0.49913650962E+03  0.49913650962E+03  0.00000000000E+00 0.  1.
    9000007    1    1    2  501    0  0.20093673468E+02  0.23406739244E+03 -0.11621646693E+03  0.47822334437E+03  0.40000000000E+03 0.  1.
   -9000007    1    1    2    0  502 -0.20093673468E+02 -0.23406739244E+03  0.64519260767E+02  0.46835246869E+03  0.40000000000E+03 0.  1.
<mgrwt>
<rscale>  2 0.46388716E+03</rscale>
<asrwt>0</asrwt>
<pdfrwt beam="1">  1       21 0.68836816E-01 0.46388716E+03</pdfrwt>
<pdfrwt beam="2">  1       21 0.76790233E-01 0.46388716E+03</pdfrwt>
<totfact> 0.25033491E+03</totfact>
</mgrwt>
</event>
<event>
 4    1  0.1187342E-002  0.4135238E+03  0.7818608E-02  0.1039195E+00
         21   -1    0    0  503  502  0.00000000000E+00  0.00000000000E+00  0.32314306439E+04  0.32314306439E+04  0.00000000000E+00 0. -1.
         21   -1    0    0  501  503 -0.00000000000E+00 -0.00000000000E+00 -0.68982363330E+02  0.68982363330E+02  0.00000000000E+00 0. -1.
    9000007    1    1    2  501    0  0.90510008825E+02  0.53008493258E+02  0.78488813241E+03  0.88715914156E+03  0.40000000000E+03 0. -1.
   -9000007    1    1    2    0  502 -0.90510008825E+02 -0.53008493258E+02  0.23775601482E+04  0.24132538657E+04  0.40000000000E+03 0. -1.
<mgrwt>
<rscale>  2 0.41352383E+03</rscale>
<asrwt>0</asrwt>
<pdfrwt beam="1">  1       21 0.49714306E+00 0.41352383E+03</pdfrwt>
<pdfrwt beam="2">  1       21 0.10612674E-01 0.41352383E+03</pdfrwt>
<totfact> 0.11172318E+02</totfact>
</mgrwt>
</event>
<event>
 4    1  0.1187342E-002  0.6466491E+03  0.7818608E-02  0.9813087E-01
         21   -1    0    0  501  502  0.00000000000E+00  0.00000000000E+00  0.16188979364E+04  0.16188979364E+04  0.00000000000E+00 0. -1.
         21   -1    0    0  502  503 -0.00000000000E+00 -0.00000000000E+00 -0.27165096772E+03  0.27165096772E+03  0.00000000000E+00 0. -1.
    9000007    1    1    2  501    0 -0.49711210996E+03  0.10504561649E+03  0.46403278552E+03  0.79591548387E+03  0.40000000000E+03 0. -1.
   -9000007    1    1    2    0  503  0.49711210996E+03 -0.10504561649E+03  0.88321418314E+03  0.10946334202E+04  0.40000000000E+03 0. -1.
<mgrwt>
<rscale>  2 0.64664908E+03</rscale>
<asrwt>0</asrwt>
<pdfrwt beam="1">  1       21 0.24906121E+00 0.64664908E+03</pdfrwt>
<pdfrwt beam="2">  1       21 0.41792458E-01 0.64664908E+03</pdfrwt>
<totfact> 0.27263246E+02</totfact>
</mgrwt>
</event>
<event>
 4    1  0.1187342E-002  0.4102682E+03  0.7818608E-02  0.1040281E+00
         21   -1    0    0  503  502  0.00000000000E+00  0.00000000000E+00  0.13100696853E+03  0.13100696853E+03  0.00000000000E+00 0. -1.
         21   -1    0    0  501  503 -0.00000000000E+00 -0.00000000000E+00 -0.14422382470E+04  0.14422382470E+04  0.00000000000E+00 0. -1.
    9000007    1    1    2  501    0  0.52342347672E+02 -0.74701310778E+02 -0.91549950045E+03  0.10032244726E+04  0.40000000000E+03 0. -1.
   -9000007    1    1    2    0  502 -0.52342347672E+02  0.74701310778E+02 -0.39573177806E+03  0.57002074292E+03  0.40000000000E+03 0. -1.
<mgrwt>
<rscale>  2 0.41026821E+03</rscale>
<asrwt>0</asrwt>
<pdfrwt beam="1">  1       21 0.20154917E-01 0.41026821E+03</pdfrwt>
<pdfrwt beam="2">  1       21 0.22188282E+00 0.41026821E+03</pdfrwt>
<totfact> 0.19045207E+03</totfact>
</mgrwt>
</event>
<event>
 4    1  0.1187342E-002  0.4145514E+03  0.7818608E-02  0.1038854E+00
         21   -1    0    0  501  502  0.00000000000E+00  0.00000000000E+00  0.92847282090E+03  0.92847282090E+03  0.00000000000E+00 0. -1.
         21   -1    0    0  502  503 -0.00000000000E+00 -0.00000000000E+00 -0.21364134872E+03  0.21364134872E+03  0.00000000000E+00 0. -1.
    9000007    1    1    2  501    0 -0.56319632017E+02  0.93171800778E+02  0.14866163318E+03  0.44040114281E+03  0.40000000000E+03 0. -1.
   -9000007    1    1    2    0  503  0.56319632017E+02 -0.93171800778E+02  0.56616983900E+03  0.70171302681E+03  0.40000000000E+03 0. -1.
<mgrwt>
<rscale>  2 0.41455143E+03</rscale>
<asrwt>0</asrwt>
<pdfrwt beam="1">  1       21 0.14284197E+00 0.41455143E+03</pdfrwt>
<pdfrwt beam="2">  1       21 0.32867900E-01 0.41455143E+03</pdfrwt>
<totfact> 0.26450493E+03</totfact>
</mgrwt>
</event>
<event>
 4    1  0.1187342E-002  0.5577533E+03  0.7818608E-02  0.9997151E-01
         21   -1    0    0  501  502  0.00000000000E+00  0.00000000000E+00  0.27342088810E+03  0.27342088810E+03  0.00000000000E+00 0. -1.
         21   -1    0    0  502  503 -0.00000000000E+00 -0.00000000000E+00 -0.14674523129E+04  0.14674523129E+04  0.00000000000E+00 0.  1.
    9000007    1    1    2  501    0 -0.34606740179E+03 -0.17699194319E+03 -0.18443770348E+03  0.58745728441E+03  0.40000000000E+03 0. -1.
   -9000007    1    1    2    0  503  0.34606740179E+03  0.17699194319E+03 -0.10095937213E+04  0.11534159166E+04  0.40000000000E+03 0.  1.
<mgrwt>
<rscale>  2 0.55775335E+03</rscale>
<asrwt>0</asrwt>
<pdfrwt beam="1">  1       21 0.42064753E-01 0.55775335E+03</pdfrwt>
<pdfrwt beam="2">  1       21 0.22576189E+00 0.55775335E+03</pdfrwt>
<totfact> 0.39075237E+02</totfact>
</mgrwt>
</event>
<event>
 4    1  0.1187342E-002  0.4460434E+03  0.7818608E-02  0.1028909E+00
         21   -1    0    0  501  502  0.00000000000E+00  0.00000000000E+00  0.14511982473E+04  0.14511982473E+04  0.00000000000E+00 0. -1.
         21   -1    0    0  502  503 -0.00000000000E+00 -0.00000000000E+00 -0.14963033968E+03  0.14963033968E+03  0.00000000000E+00 0. -1.
    9000007    1    1    2  501    0  0.19284185308E+03 -0.42032208438E+02  0.88243873391E+03  0.98876327094E+03  0.40000000000E+03 0. -1.
   -9000007    1    1    2    0  503 -0.19284185308E+03  0.42032208438E+02  0.41912917369E+03  0.61206531603E+03  0.40000000000E+03 0. -1.
<mgrwt>
<rscale>  2 0.44604337E+03</rscale>
<asrwt>0</asrwt>
<pdfrwt beam="1">  1       21 0.22326126E+00 0.44604337E+03</pdfrwt>
<pdfrwt beam="2">  1       21 0.23020053E-01 0.44604337E+03</pdfrwt>
<totfact> 0.14227322E+03</totfact>
</mgrwt>
</event>
<event>
 4    1  0.1187342E-002  0.5638989E+03  0.7818608E-02  0.9983271E-01
         21   -1    0    0  503  502  0.00000000000E+00  0.00000000000E+00  0.37991866596E+03  0.37991866596E+03  0.00000000000E+00 0. -1.
         21   -1    0    0  501  503 -0.00000000000E+00 -0.00000000000E+00 -0.10640308830E+04  0.10640308830E+04  0.00000000000E+00 0.  1.
    9000007    1    1    2  501    0 -0.10772769918E+03 -0.38259213969E+03 -0.67556878922E+03  0.87998590414E+03  0.40000000000E+03 0.  1.
   -9000007    1    1    2    0  502  0.10772769918E+03  0.38259213969E+03 -0.85434278118E+01  0.56396364482E+03  0.40000000000E+03 0. -1.
<mgrwt>
<rscale>  2 0.56389893E+03</rscale>
<asrwt>0</asrwt>
<pdfrwt beam="1">  1       21 0.58449026E-01 0.56389893E+03</pdfrwt>
<pdfrwt beam="2">  1       21 0.16369706E+00 0.56389893E+03</pdfrwt>
<totfact> 0.51473149E+02</totfact>
</mgrwt>
</event>
<event>
 4    1  0.1187342E-002  0.4218310E+03  0.7818608E-02  0.1036472E+00
         21   -1    0    0  503  502  0.00000000000E+00  0.00000000000E+00  0.33601287802E+03  0.33601287802E+03  0.00000000000E+00 0. -1.
         21   -1    0    0  501  503 -0.00000000000E+00 -0.00000000000E+00 -0.52977844168E+03  0.52977844168E+03  0.00000000000E+00 0.  1.
    9000007    1    1    2  501    0  0.12613907040E+03 -0.45058950287E+02 -0.88237044325E+02  0.43096072915E+03  0.40000000000E+03 0.  1.
   -9000007    1    1    2    0  502 -0.12613907040E+03  0.45058950287E+02 -0.10552851934E+03  0.43483059055E+03  0.40000000000E+03 0.  1.
<mgrwt>
<rscale>  2 0.42183098E+03</rscale>
<asrwt>0</asrwt>
<pdfrwt beam="1">  1       21 0.51694289E-01 0.42183098E+03</pdfrwt>
<pdfrwt beam="2">  1       21 0.81504376E-01 0.42183098E+03</pdfrwt>
<totfact> 0.41465057E+03</totfact>
</mgrwt>
</event>
<event>
 4    1  0.1187342E-002  0.4034310E+03  0.7818608E-02  0.1042598E+00
         21   -1    0    0  503  502  0.00000000000E+00  0.00000000000E+00  0.90572088555E+03  0.90572088555E+03  0.00000000000E+00 0.  1.
         21   -1    0    0  501  503 -0.00000000000E+00 -0.00000000000E+00 -0.20997013883E+03  0.20997013883E+03  0.00000000000E+00 0.  1.
    9000007    1    1    2  501    0  0.44948863555E+02 -0.27132109736E+02  0.55968914551E+03  0.68993368618E+03  0.40000000000E+03 0.  1.
   -9000007    1    1    2    0  502 -0.44948863555E+02  0.27132109736E+02  0.13606160120E+03  0.42575733821E+03  0.40000000000E+03 0.  1.
<mgrwt>
<rscale>  2 0.40343098E+03</rscale>
<asrwt>0</asrwt>
<pdfrwt beam="1">  1       21 0.13934167E+00 0.40343098E+03</pdfrwt>
<pdfrwt beam="2">  1       21 0.32303099E-01 0.40343098E+03</pdfrwt>
<totfact> 0.29388974E+03</totfact>
</mgrwt>
</event>
<event>
 4    1  0.1187342E-002  0.1045555E+04  0.7818608E-02  0.9259945E-01
         21   -1    0    0  503  502  0.00000000000E+00  0.00000000000E+00  0.16835084377E+04  0.16835084377E+04  0.00000000000E+00 0. -1.
         21   -1    0    0  501  503 -0.00000000000E+00 -0.00000000000E+00 -0.66976090942E+03  0.66976090942E+03  0.00000000000E+00 0.  1.
    9000007    1    1    2  501    0 -0.34677948472E+03 -0.90162607952E+03  0.30146604997E+03  0.10881486009E+04  0.40000000000E+03 0. -1.
   -9000007    1    1    2    0  502  0.34677948472E+03  0.90162607952E+03  0.71228147834E+03  0.12651207463E+04  0.40000000000E+03 0.  1.
<mgrwt>
<rscale>  2 0.10455552E+04</rscale>
<asrwt>0</asrwt>
<pdfrwt beam="1">  1       21 0.25900130E+00 0.10455552E+04</pdfrwt>
<pdfrwt beam="2">  1       21 0.10304014E+00 0.10455552E+04</pdfrwt>
<totfact> 0.26933374E+01</totfact>
</mgrwt>
</event>
<event>
 4    1  0.1187342E-002  0.7282682E+03  0.7818608E-02  0.9670075E-01
         21   -1    0    0  501  502  0.00000000000E+00  0.00000000000E+00  0.67816746892E+03  0.67816746892E+03  0.00000000000E+00 0.  1.
         21   -1    0    0  502  503 -0.00000000000E+00 -0.00000000000E+00 -0.81144957167E+03  0.81144957167E+03  0.00000000000E+00 0. -1.
    9000007    1    1    2  501    0 -0.45300032907E+03  0.40640536045E+03 -0.20836218153E+03  0.75748888694E+03  0.40000000000E+03 0. -1.
   -9000007    1    1    2    0  503  0.45300032907E+03 -0.40640536045E+03  0.75080078791E+02  0.73212815365E+03  0.40000000000E+03 0.  1.
<mgrwt>
<rscale>  2 0.72826823E+03</rscale>
<asrwt>0</asrwt>
<pdfrwt beam="1">  1       21 0.10433346E+00 0.72826823E+03</pdfrwt>
<pdfrwt beam="2">  1       21 0.12483839E+00 0.72826823E+03</pdfrwt>
<totfact> 0.26430356E+02</totfact>
</mgrwt>
</event>
<event>
 4    1  0.1187342E-002  0.4300907E+03  0.7818608E-02  0.1033831E+00
         21   -1    0    0  503  502  0.00000000000E+00  0.00000000000E+00  0.22376578873E+03  0.22376578873E+03  0.00000000000E+00 0.  1.
         21   -1    0    0  501  503 -0.00000000000E+00 -0.00000000000E+00 -0.83341237280E+03  0.83341237280E+03  0.00000000000E+00 0.  1.
    9000007    1    1    2  501    0 -0.40545149910E+02 -0.15275505224E+03 -0.35240574760E+03  0.55602861986E+03  0.40000000000E+03 0. -1.
   -9000007    1    1    2    0  502  0.40545149910E+02  0.15275505224E+03 -0.25724083648E+03  0.50114954167E+03  0.40000000000E+03 0. -1.
<mgrwt>
<rscale>  2 0.43009071E+03</rscale>
<asrwt>0</asrwt>
<pdfrwt beam="1">  1       21 0.34425507E-01 0.43009071E+03</pdfrwt>
<pdfrwt beam="2">  1       21 0.12821729E+00 0.43009071E+03</pdfrwt>
<totfact> 0.31795063E+03</totfact>
</mgrwt>
</event>
<event>
 4    1  0.1187342E-002  0.5820497E+03  0.7818608E-02  0.9943363E-01
         21   -1    0    0  503  502  0.00000000000E+00  0.00000000000E+00  0.31184420496E+03  0.31184420496E+03  0.00000000000E+00 0. -1.
         21   -1    0    0  501  503 -0.00000000000E+00 -0.00000000000E+00 -0.12280044099E+04  0.12280044099E+04  0.00000000000E+00 0. -1.
    9000007    1    1    2  501    0  0.30037291856E+03  0.29758694729E+03 -0.19661465677E+03  0.61436080983E+03  0.40000000000E+03 0. -1.
   -9000007    1    1    2    0  502 -0.30037291856E+03 -0.29758694729E+03 -0.71954554821E+03  0.92548780508E+03  0.40000000000E+03 0. -1.
<mgrwt>
<rscale>  2 0.58204972E+03</rscale>
<asrwt>0</asrwt>
<pdfrwt beam="1">  1       21 0.47976030E-01 0.58204972E+03</pdfrwt>
<pdfrwt beam="2">  1       21 0.18892376E+00 0.58204972E+03</pdfrwt>
<totfact> 0.51525375E+02</totfact>
</mgrwt>
</event>
<event>
 4    1  0.1187342E-002  0.4595637E+03  0.7818608E-02  0.1024908E+00
         21   -1    0    0  503  502  0.00000000000E+00  0.00000000000E+00  0.52984319586E+03  0.52984319586E+03  0.00000000000E+00 0. -1.
         21   -1    0    0  501  503 -0.00000000000E+00 -0.00000000000E+00 -0.49411697722E+03  0.49411697722E+03  0.00000000000E+00 0. -1.
    9000007    1    1    2  501    0 -0.21600981359E+03  0.67369019967E+02 -0.20723103273E+03  0.50412649736E+03  0.40000000000E+03 0. -1.
   -9000007    1    1    2    0  502  0.21600981359E+03 -0.67369019967E+02  0.24295725137E+03  0.51983367572E+03  0.40000000000E+03 0. -1.
<mgrwt>
<rscale>  2 0.45956373E+03</rscale>
<asrwt>0</asrwt>
<pdfrwt beam="1">  1       21 0.81514338E-01 0.45956373E+03</pdfrwt>
<pdfrwt beam="2">  1       21 0.76017997E-01 0.45956373E+03</pdfrwt>
<totfact> 0.17445996E+03</totfact>
</mgrwt>
</event>
<event>
 4    1  0.1187342E-002  0.4067005E+03  0.7818608E-02  0.1041484E+00
         21   -1    0    0  503  502  0.00000000000E+00  0.00000000000E+00  0.69389531361E+03  0.69389531361E+03  0.00000000000E+00 0. -1.
         21   -1    0    0  501  503 -0.00000000000E+00 -0.00000000000E+00 -0.27543878283E+03  0.27543878283E+03  0.00000000000E+00 0. -1.
    9000007    1    1    2  501    0  0.59454642691E+02 -0.43248552702E+02  0.31431958654E+02  0.40791329946E+03  0.40000000000E+03 0. -1.
   -9000007    1    1    2    0  502 -0.59454642691E+02  0.43248552702E+02  0.38702457213E+03  0.56142079698E+03  0.40000000000E+03 0. -1.
<mgrwt>
<rscale>  2 0.40670049E+03</rscale>
<asrwt>0</asrwt>
<pdfrwt beam="1">  1       21 0.10675312E+00 0.40670049E+03</pdfrwt>
<pdfrwt beam="2">  1       21 0.42375198E-01 0.40670049E+03</pdfrwt>
<totfact> 0.33275539E+03</totfact>
</mgrwt>
</event>
<event>
 4    1  0.1187342E-002  0.4185833E+03  0.7818608E-02  0.1037528E+00
         21   -1    0    0  503  502  0.00000000000E+00  0.00000000000E+00  0.23063952767E+03  0.23063952767E+03  0.00000000000E+00 0.  1.
         21   -1    0    0  501  503 -0.00000000000E+00 -0.00000000000E+00 -0.91046387304E+03  0.91046387304E+03  0.00000000000E+00 0.  1.
    9000007    1    1    2  501    0 -0.61431106875E+02 -0.10694960492E+03 -0.57210167210E+03  0.70888103523E+03  0.40000000000E+03 0.  1.
   -9000007    1    1    2    0  502  0.61431106875E+02  0.10694960492E+03 -0.10772267327E+03  0.43222236548E+03  0.40000000000E+03 0.  1.
<mgrwt>
<rscale>  2 0.41858332E+03</rscale>
<asrwt>0</asrwt>
<pdfrwt beam="1">  1       21 0.35483004E-01 0.41858332E+03</pdfrwt>
<pdfrwt beam="2">  1       21 0.14007137E+00 0.41858332E+03</pdfrwt>
<totfact> 0.23844973E+03</totfact>
</mgrwt>
</event>
<event>
 4    1  0.1187342E-002  0.5086400E+03  0.7818608E-02  0.1011548E+00
         21   -1    0    0  503  502  0.00000000000E+00  0.00000000000E+00  0.26106401187E+03  0.26106401187E+03  0.00000000000E+00 0. -1.
         21   -1    0    0  501  503 -0.00000000000E+00 -0.00000000000E+00 -0.10825680003E+04  0.10825680003E+04  0.00000000000E+00 0.  1.
    9000007    1    1    2  501    0 -0.31222526325E+03  0.35072458907E+02 -0.60613747495E+03  0.79127576162E+03  0.40000000000E+03 0.  1.
   -9000007    1    1    2    0  502  0.31222526325E+03 -0.35072458907E+02 -0.21536651348E+03  0.55235625054E+03  0.40000000000E+03 0. -1.
<mgrwt>
<rscale>  2 0.50864004E+03</rscale>
<asrwt>0</asrwt>
<pdfrwt beam="1">  1       21 0.40163695E-01 0.50864004E+03</pdfrwt>
<pdfrwt beam="2">  1       21 0.16654892E+00 0.50864004E+03</pdfrwt>
<totfact> 0.11111168E+03</totfact>
</mgrwt>
</event>
<event>
 4    1  0.1187342E-002  0.4112201E+03  0.7818608E-02  0.1039962E+00
         21   -1    0    0  501  502  0.00000000000E+00  0.00000000000E+00  0.12851995392E+04  0.12851995392E+04  0.00000000000E+00 0.  1.
         21   -1    0    0  502  503 -0.00000000000E+00 -0.00000000000E+00 -0.14692407624E+03  0.14692407624E+03  0.00000000000E+00 0.  1.
    9000007    1    1    2  501    0 -0.91279539484E+02  0.27748710173E+02  0.33770479919E+03  0.53211509717E+03  0.40000000000E+03 0. -1.
   -9000007    1    1    2    0  503  0.91279539484E+02 -0.27748710173E+02  0.80057066378E+03  0.90000851826E+03  0.40000000000E+03 0. -1.
<mgrwt>
<rscale>  2 0.41122007E+03</rscale>
<asrwt>0</asrwt>
<pdfrwt beam="1">  1       21 0.19772300E+00 0.41122007E+03</pdfrwt>
<pdfrwt beam="2">  1       21 0.22603705E-01 0.41122007E+03</pdfrwt>
<totfact> 0.21954059E+03</totfact>
</mgrwt>
</event>
<event>
 4    1  0.1187342E-002  0.6486490E+03  0.7818608E-02  0.9809318E-01
         21   -1    0    0  503  502  0.00000000000E+00  0.00000000000E+00  0.23040730069E+04  0.23040730069E+04  0.00000000000E+00 0.  1.
         21   -1    0    0  501  503 -0.00000000000E+00 -0.00000000000E+00 -0.18770583136E+03  0.18770583136E+03  0.00000000000E+00 0. -1.
    9000007    1    1    2  501    0  0.50828082018E+03 -0.48950389458E+02  0.85289204796E+03  0.10715271244E+04  0.40000000000E+03 0.  1.
   -9000007    1    1    2    0  502 -0.50828082018E+03  0.48950389458E+02  0.12634751276E+04  0.14202517139E+04  0.40000000000E+03 0.  1.
<mgrwt>
<rscale>  2 0.64864901E+03</rscale>
<asrwt>0</asrwt>
<pdfrwt beam="1">  1       21 0.35447275E+00 0.64864901E+03</pdfrwt>
<pdfrwt beam="2">  1       21 0.28877822E-01 0.64864901E+03</pdfrwt>
<totfact> 0.12992531E+02</totfact>
</mgrwt>
</event>
<event>
 4    1  0.1187342E-002  0.4217061E+03  0.7818608E-02  0.1036512E+00
         21   -1    0    0  503  502  0.00000000000E+00  0.00000000000E+00  0.50992964941E+03  0.50992964941E+03  0.00000000000E+00 0.  1.
         21   -1    0    0  501  503 -0.00000000000E+00 -0.00000000000E+00 -0.41409066993E+03  0.41409066993E+03  0.00000000000E+00 0. -1.
    9000007    1    1    2  501    0  0.31307513805E+02  0.12983032540E+03  0.23144985166E+03  0.48104584776E+03  0.40000000000E+03 0.  1.
   -9000007    1    1    2    0  502 -0.31307513805E+02 -0.12983032540E+03 -0.13561087218E+03  0.44297447158E+03  0.40000000000E+03 0. -1.
<mgrwt>
<rscale>  2 0.42170615E+03</rscale>
<asrwt>0</asrwt>
<pdfrwt beam="1">  1       21 0.78450715E-01 0.42170615E+03</pdfrwt>
<pdfrwt beam="2">  1       21 0.63706257E-01 0.42170615E+03</pdfrwt>
<totfact> 0.28764774E+03</totfact>
</mgrwt>
</event>
<event>
 4    1  0.1187342E-002  0.6917944E+03  0.7818608E-02  0.9731369E-01
         21   -1    0    0  503  502  0.00000000000E+00  0.00000000000E+00  0.16782442565E+04  0.16782442565E+04  0.00000000000E+00 0.  1.
         21   -1    0    0  501  503 -0.00000000000E+00 -0.00000000000E+00 -0.64193166066E+03  0.64193166066E+03  0.00000000000E+00 0. -1.
    9000007    1    1    2  501    0  0.34144116930E+03 -0.44944126833E+03 -0.34668727789E+03  0.77380333059E+03  0.40000000000E+03 0. -1.
   -9000007    1    1    2    0  502 -0.34144116930E+03  0.44944126833E+03  0.13829998738E+04  0.15463725866E+04  0.40000000000E+03 0.  1.
<mgrwt>
<rscale>  2 0.69179442E+03</rscale>
<asrwt>0</asrwt>
<pdfrwt beam="1">  1       21 0.25819142E+00 0.69179442E+03</pdfrwt>
<pdfrwt beam="2">  1       21 0.98758718E-01 0.69179442E+03</pdfrwt>
<totfact> 0.34032894E+01</totfact>
</mgrwt>
</event>
<event>
 4    1  0.1187342E-002  0.4092833E+03  0.7818608E-02  0.1040612E+00
         21   -1    0    0  503  502  0.00000000000E+00  0.00000000000E+00  0.55126955394E+03  0.55126955394E+03  0.00000000000E+00 0.  1.
         21   -1    0    0  501  503 -0.00000000000E+00 -0.00000000000E+00 -0.36138047992E+03  0.36138047992E+03  0.00000000000E+00 0.  1.
    9000007    1    1    2  501    0 -0.14908716172E+02 -0.85384504493E+02 -0.87099171876E+02  0.41844838292E+03  0.40000000000E+03 0.  1.
   -9000007    1    1    2    0  502  0.14908716172E+02  0.85384504493E+02  0.27698824589E+03  0.49420165094E+03  0.40000000000E+03 0.  1.
<mgrwt>
<rscale>  2 0.40928326E+03</rscale>
<asrwt>0</asrwt>
<pdfrwt beam="1">  1       21 0.84810701E-01 0.40928326E+03</pdfrwt>
<pdfrwt beam="2">  1       21 0.55596997E-01 0.40928326E+03</pdfrwt>
<totfact> 0.32488140E+03</totfact>
</mgrwt>
</event>
<event>
 4    1  0.1187342E-002  0.4000113E+03  0.7818608E-02  0.1043776E+00
         21   -1    0    0  501  502  0.00000000000E+00  0.00000000000E+00  0.44753690710E+03  0.44753690710E+03  0.00000000000E+00 0.  1.
         21   -1    0    0  502  503 -0.00000000000E+00 -0.00000000000E+00 -0.45850998792E+03  0.45850998792E+03  0.00000000000E+00 0.  1.
    9000007    1    1    2  501    0  0.27252274160E+01  0.12592683095E+01  0.20711110451E+03  0.45044868990E+03  0.40000000000E+03 0.  1.
   -9000007    1    1    2    0  503 -0.27252274160E+01 -0.12592683095E+01 -0.21808418532E+03  0.45559820512E+03  0.40000000000E+03 0.  1.
<mgrwt>
<rscale>  2 0.40001127E+03</rscale>
<asrwt>0</asrwt>
<pdfrwt beam="1">  1       21 0.68851832E-01 0.40001127E+03</pdfrwt>
<pdfrwt beam="2">  1       21 0.70539998E-01 0.40001127E+03</pdfrwt>
<totfact> 0.31074454E+03</totfact>
</mgrwt>
</event>
<event>
 4    1  0.1187342E-002  0.4213609E+03  0.7818608E-02  0.1036624E+00
         21   -1    0    0  503  502  0.00000000000E+00  0.00000000000E+00  0.65668583816E+03  0.65668583816E+03  0.00000000000E+00 0.  1.
         21   -1    0    0  501  503 -0.00000000000E+00 -0.00000000000E+00 -0.29088815531E+03  0.29088815531E+03  0.00000000000E+00 0. -1.
    9000007    1    1    2  501    0 -0.12428204748E+03 -0.45814476193E+02  0.57052631852E+02  0.42520582822E+03  0.40000000000E+03 0. -1.
   -9000007    1    1    2    0  502  0.12428204748E+03  0.45814476193E+02  0.30874505099E+03  0.52236816525E+03  0.40000000000E+03 0.  1.
<mgrwt>
<rscale>  2 0.42136088E+03</rscale>
<asrwt>0</asrwt>
<pdfrwt beam="1">  1       21 0.10102859E+00 0.42136088E+03</pdfrwt>
<pdfrwt beam="2">  1       21 0.44752024E-01 0.42136088E+03</pdfrwt>
<totfact> 0.33806146E+03</totfact>
</mgrwt>
</event>
<event>
 4    1  0.1187342E-002  0.4032937E+03  0.7818608E-02  0.1042645E+00
         21   -1    0    0  501  502  0.00000000000E+00  0.00000000000E+00  0.26723303717E+03  0.26723303717E+03  0.00000000000E+00 0. -1.
         21   -1    0    0  502  503 -0.00000000000E+00 -0.00000000000E+00 -0.61441617122E+03  0.61441617122E+03  0.00000000000E+00 0. -1.
    9000007    1    1    2  501    0 -0.46851549035E+02  0.21231201895E+02 -0.21637344989E+03  0.45767160869E+03  0.40000000000E+03 0. -1.
   -9000007    1    1    2    0  503  0.46851549035E+02 -0.21231201895E+02 -0.13080968415E+03  0.42397759970E+03  0.40000000000E+03 0. -1.
<mgrwt>
<rscale>  2 0.40329373E+03</rscale>
<asrwt>0</asrwt>
<pdfrwt beam="1">  1       21 0.41112776E-01 0.40329373E+03</pdfrwt>
<pdfrwt beam="2">  1       21 0.94525563E-01 0.40329373E+03</pdfrwt>
<totfact> 0.47648219E+03</totfact>
</mgrwt>
</event>
<event>
 4    1  0.1187342E-002  0.4392729E+03  0.7818608E-02  0.1030970E+00
         21   -1    0    0  503  502  0.00000000000E+00  0.00000000000E+00  0.10230841309E+03  0.10230841309E+03  0.00000000000E+00 0.  1.
         21   -1    0    0  501  503 -0.00000000000E+00 -0.00000000000E+00 -0.18908256651E+04  0.18908256651E+04  0.00000000000E+00 0. -1.
    9000007    1    1    2  501    0  0.96609876745E+02  0.15371140686E+03 -0.94424590518E+03  0.10414225820E+04  0.40000000000E+03 0.  1.
   -9000007    1    1    2    0  502 -0.96609876745E+02 -0.15371140686E+03 -0.84427134684E+03  0.95171149619E+03  0.40000000000E+03 0. -1.
<mgrwt>
<rscale>  2 0.43927288E+03</rscale>
<asrwt>0</asrwt>
<pdfrwt beam="1">  1       21 0.15739758E-01 0.43927288E+03</pdfrwt>
<pdfrwt beam="2">  1       21 0.29089622E+00 0.43927288E+03</pdfrwt>
<totfact> 0.11297038E+03</totfact>
</mgrwt>
</event>
<event>
 4    1  0.1187342E-002  0.4829271E+03  0.7818608E-02  0.1018334E+00
         21   -1    0    0  503  502  0.00000000000E+00  0.00000000000E+00  0.57315460796E+03  0.57315460796E+03  0.00000000000E+00 0.  1.
         21   -1    0    0  501  503 -0.00000000000E+00 -0.00000000000E+00 -0.47341592100E+03  0.47341592100E+03  0.00000000000E+00 0.  1.
    9000007    1    1    2  501    0  0.20406501257E+03 -0.17769661585E+03 -0.14627168592E+03  0.50459292776E+03  0.40000000000E+03 0.  1.
   -9000007    1    1    2    0  502 -0.20406501257E+03  0.17769661585E+03  0.24601037288E+03  0.54197760120E+03  0.40000000000E+03 0.  1.
<mgrwt>
<rscale>  2 0.48292713E+03</rscale>
<asrwt>0</asrwt>
<pdfrwt beam="1">  1       21 0.88177632E-01 0.48292713E+03</pdfrwt>
<pdfrwt beam="2">  1       21 0.72833219E-01 0.48292713E+03</pdfrwt>
<totfact> 0.15865125E+03</totfact>
</mgrwt>
</event>
<event>
 4    1  0.1187342E-002  0.4069745E+03  0.7818608E-02  0.1041391E+00
         21   -1    0    0  501  502  0.00000000000E+00  0.00000000000E+00  0.44875932461E+03  0.44875932461E+03  0.00000000000E+00 0. -1.
         21   -1    0    0  502  503 -0.00000000000E+00 -0.00000000000E+00 -0.37041195771E+03  0.37041195771E+03  0.00000000000E+00 0. -1.
    9000007    1    1    2  501    0  0.65406477280E+01 -0.74736049865E+02  0.14616008885E+02  0.40723689044E+03  0.40000000000E+03 0.  1.
   -9000007    1    1    2    0  503 -0.65406477280E+01  0.74736049865E+02  0.63731358018E+02  0.41193439188E+03  0.40000000000E+03 0.  1.
<mgrwt>
<rscale>  2 0.40697452E+03</rscale>
<asrwt>0</asrwt>
<pdfrwt beam="1">  1       21 0.69039896E-01 0.40697452E+03</pdfrwt>
<pdfrwt beam="2">  1       21 0.56986455E-01 0.40697452E+03</pdfrwt>
<totfact> 0.49333502E+03</totfact>
</mgrwt>
</event>
<event>
 4    1  0.1187342E-002  0.6211899E+03  0.7818608E-02  0.9862393E-01
         21   -1    0    0  501  502  0.00000000000E+00  0.00000000000E+00  0.17436811554E+04  0.17436811554E+04  0.00000000000E+00 0. -1.
         21   -1    0    0  502  503 -0.00000000000E+00 -0.00000000000E+00 -0.24560037255E+03  0.24560037255E+03  0.00000000000E+00 0.  1.
    9000007    1    1    2  501    0  0.40429184270E+03 -0.24985000908E+03  0.10619052370E+04  0.12302518659E+04  0.40000000000E+03 0. -1.
   -9000007    1    1    2    0  503 -0.40429184270E+03  0.24985000908E+03  0.43617554583E+03  0.75902966206E+03  0.40000000000E+03 0.  1.
<mgrwt>
<rscale>  2 0.62118992E+03</rscale>
<asrwt>0</asrwt>
<pdfrwt beam="1">  1       21 0.26825863E+00 0.62118992E+03</pdfrwt>
<pdfrwt beam="2">  1       21 0.37784674E-01 0.62118992E+03</pdfrwt>
<totfact> 0.25803811E+02</totfact>
</mgrwt>
</event>
<event>
 4    1  0.1187342E-002  0.7322549E+03  0.7818608E-02  0.9663608E-01
         21   -1    0    0  501  502  0.00000000000E+00  0.00000000000E+00  0.41227934233E+03  0.41227934233E+03  0.00000000000E+00 0.  1.
         21   -1    0    0  502  503 -0.00000000000E+00 -0.00000000000E+00 -0.13134117604E+04  0.13134117604E+04  0.00000000000E+00 0. -1.
    9000007    1    1    2  501    0  0.41715780542E+03 -0.44964048268E+03 -0.36523975655E+03  0.81828923863E+03  0.40000000000E+03 0.  1.
   -9000007    1    1    2    0  503 -0.41715780542E+03  0.44964048268E+03 -0.53589266150E+03  0.90740186408E+03  0.40000000000E+03 0.  1.
<mgrwt>
<rscale>  2 0.73225487E+03</rscale>
<asrwt>0</asrwt>
<pdfrwt beam="1">  1       21 0.63427591E-01 0.73225487E+03</pdfrwt>
<pdfrwt beam="2">  1       21 0.20206335E+00 0.73225487E+03</pdfrwt>
<totfact> 0.21669311E+02</totfact>
</mgrwt>
</event>
<event>
 4    1  0.1187342E-002  0.4148646E+03  0.7818608E-02  0.1038751E+00
         21   -1    0    0  503  502  0.00000000000E+00  0.00000000000E+00  0.63002476151E+03  0.63002476151E+03  0.00000000000E+00 0.  1.
         21   -1    0    0  501  503 -0.00000000000E+00 -0.00000000000E+00 -0.28905595434E+03  0.28905595434E+03  0.00000000000E+00 0.  1.
    9000007    1    1    2  501    0 -0.55796968528E+02 -0.94864738532E+02  0.62800871155E+02  0.41959095525E+03  0.40000000000E+03 0.  1.
   -9000007    1    1    2    0  502  0.55796968528E+02  0.94864738532E+02  0.27816793601E+03  0.49948976060E+03  0.40000000000E+03 0.  1.
<mgrwt>
<rscale>  2 0.41486458E+03</rscale>
<asrwt>0</asrwt>
<pdfrwt beam="1">  1       21 0.96926886E-01 0.41486458E+03</pdfrwt>
<pdfrwt beam="2">  1       21 0.44470147E-01 0.41486458E+03</pdfrwt>
<totfact> 0.37957540E+03</totfact>
</mgrwt>
</event>
<event>
 4    1  0.1187342E-002  0.4303390E+03  0.7818608E-02  0.1033753E+00
         21   -1    0    0  501  502  0.00000000000E+00  0.00000000000E+00  0.73930648373E+03  0.73930648373E+03  0.00000000000E+00 0. -1.
         21   -1    0    0  502  503 -0.00000000000E+00 -0.00000000000E+00 -0.29457508747E+03  0.29457508747E+03  0.00000000000E+00 0.  1.
    9000007    1    1    2  501    0  0.15871754233E+03  0.65428550367E+00  0.42233804964E+03  0.60296029265E+03  0.40000000000E+03 0.  1.
   -9000007    1    1    2    0  503 -0.15871754233E+03 -0.65428550367E+00  0.22393346614E+02  0.43092127855E+03  0.40000000000E+03 0.  1.
<mgrwt>
<rscale>  2 0.43033904E+03</rscale>
<asrwt>0</asrwt>
<pdfrwt beam="1">  1       21 0.11373946E+00 0.43033904E+03</pdfrwt>
<pdfrwt beam="2">  1       21 0.45319244E-01 0.43033904E+03</pdfrwt>
<totfact> 0.24498328E+03</totfact>
</mgrwt>
</event>
<event>
 4    1  0.1187342E-002  0.4475504E+03  0.7818608E-02  0.1028455E+00
         21   -1    0    0  501  502  0.00000000000E+00  0.00000000000E+00  0.81422490885E+03  0.81422490885E+03  0.00000000000E+00 0.  1.
         21   -1    0    0  502  503 -0.00000000000E+00 -0.00000000000E+00 -0.30417962576E+03  0.30417962576E+03  0.00000000000E+00 0.  1.
    9000007    1    1    2  501    0  0.13639991749E+03  0.14729719077E+03  0.49957948770E+03  0.67073173805E+03  0.40000000000E+03 0.  1.
   -9000007    1    1    2    0  503 -0.13639991749E+03 -0.14729719077E+03  0.10465795389E+02  0.44767279655E+03  0.40000000000E+03 0.  1.
<mgrwt>
<rscale>  2 0.44755044E+03</rscale>
<asrwt>0</asrwt>
<pdfrwt beam="1">  1       21 0.12526537E+00 0.44755044E+03</pdfrwt>
<pdfrwt beam="2">  1       21 0.46796866E-01 0.44755044E+03</pdfrwt>
<totfact> 0.17813629E+03</totfact>
</mgrwt>
</event>
<event>
 4    1  0.1187342E-002  0.4434375E+03  0.7818608E-02  0.1029697E+00
         21   -1    0    0  501  502  0.00000000000E+00  0.00000000000E+00  0.19115317667E+04  0.19115317667E+04  0.00000000000E+00 0.  1.
         21   -1    0    0  502  503 -0.00000000000E+00 -0.00000000000E+00 -0.10553553462E+03  0.10553553462E+03  0.00000000000E+00 0.  1.
    9000007    1    1    2  501    0 -0.10167394865E+03  0.16217040629E+03  0.10633179209E+04  0.11520771820E+04  0.40000000000E+03 0.  1.
   -9000007    1    1    2    0  503  0.10167394865E+03 -0.16217040629E+03  0.74267831123E+03  0.86499011930E+03  0.40000000000E+03 0.  1.
<mgrwt>
<rscale>  2 0.44343752E+03</rscale>
<asrwt>0</asrwt>
<pdfrwt beam="1">  1       21 0.29408178E+00 0.44343752E+03</pdfrwt>
<pdfrwt beam="2">  1       21 0.16236238E-01 0.44343752E+03</pdfrwt>
<totfact> 0.10179113E+03</totfact>
</mgrwt>
</event>
<event>
 4    1  0.1187342E-002  0.6063847E+03  0.7818608E-02  0.9892248E-01
         21   -1    0    0  501  502  0.00000000000E+00  0.00000000000E+00  0.18192415836E+04  0.18192415836E+04  0.00000000000E+00 0.  1.
         21   -1    0    0  502  503 -0.00000000000E+00 -0.00000000000E+00 -0.20336954153E+03  0.20336954153E+03  0.00000000000E+00 0.  1.
    9000007    1    1    2  501    0  0.43329206897E+03  0.14128105199E+03  0.88725514537E+03  0.10746739253E+04  0.40000000000E+03 0.  1.
   -9000007    1    1    2    0  503 -0.43329206897E+03 -0.14128105199E+03  0.72861689668E+03  0.94793719983E+03  0.40000000000E+03 0.  1.
<mgrwt>
<rscale>  2 0.60638466E+03</rscale>
<asrwt>0</asrwt>
<pdfrwt beam="1">  1       21 0.27988331E+00 0.60638466E+03</pdfrwt>
<pdfrwt beam="2">  1       21 0.31287623E-01 0.60638466E+03</pdfrwt>
<totfact> 0.32327484E+02</totfact>
</mgrwt>
</event>
<event>
 4    1  0.1187342E-002  0.4197270E+03  0.7818608E-02  0.1037155E+00
         21   -1    0    0  501  502  0.00000000000E+00  0.00000000000E+00  0.13996120991E+03  0.13996120991E+03  0.00000000000E+00 0.  1.
         21   -1    0    0  502  503 -0.00000000000E+00 -0.00000000000E+00 -0.19923303252E+04  0.19923303252E+04  0.00000000000E+00 0.  1.
    9000007    1    1    2  501    0  0.27191540418E+01  0.12713509730E+03 -0.27923373405E+03  0.50412518782E+03  0.40000000000E+03 0.  1.
   -9000007    1    1    2    0  503 -0.27191540418E+01 -0.12713509730E+03 -0.15731353813E+04  0.16281663473E+04  0.40000000000E+03 0.  1.
<mgrwt>
<rscale>  2 0.41972697E+03</rscale>
<asrwt>0</asrwt>
<pdfrwt beam="1">  1       21 0.21532494E-01 0.41972697E+03</pdfrwt>
<pdfrwt beam="2">  1       21 0.30651236E+00 0.41972697E+03</pdfrwt>
<totfact> 0.50969361E+02</totfact>
</mgrwt>
</event>
<event>
 4    1  0.1187342E-002  0.4662097E+03  0.7818608E-02  0.1022995E+00
         21   -1    0    0  501  502  0.00000000000E+00  0.00000000000E+00  0.23751835357E+03  0.23751835357E+03  0.00000000000E+00 0.  1.
         21   -1    0    0  502  503 -0.00000000000E+00 -0.00000000000E+00 -0.91521896348E+03  0.91521896348E+03  0.00000000000E+00 0. -1.
    9000007    1    1    2  501    0  0.10804033737E+03 -0.21372596972E+03 -0.34559828193E+03  0.58033583131E+03  0.40000000000E+03 0. -1.
   -9000007    1    1    2    0  503 -0.10804033737E+03  0.21372596972E+03 -0.33210232798E+03  0.57240148574E+03  0.40000000000E+03 0.  1.
<mgrwt>
<rscale>  2 0.46620972E+03</rscale>
<asrwt>0</asrwt>
<pdfrwt beam="1">  1       21 0.36541285E-01 0.46620972E+03</pdfrwt>
<pdfrwt beam="2">  1       21 0.14080292E+00 0.46620972E+03</pdfrwt>
<totfact> 0.21744494E+03</totfact>
</mgrwt>
</event>
<event>
 4    1  0.1187342E-002  0.4418908E+03  0.7818608E-02  0.1030168E+00
         21   -1    0    0  503  502  0.00000000000E+00  0.00000000000E+00  0.37901814271E+03  0.37901814271E+03  0.00000000000E+00 0. -1.
         21   -1    0    0  501  503 -0.00000000000E+00 -0.00000000000E+00 -0.57457925723E+03  0.57457925723E+03  0.00000000000E+00 0. -1.
    9000007    1    1    2  501    0  0.99411417546E+02 -0.15932615240E+03 -0.25106690123E+03  0.50823423898E+03  0.40000000000E+03 0. -1.
   -9000007    1    1    2    0  502 -0.99411417546E+02  0.15932615240E+03  0.55505786716E+02  0.44536316096E+03  0.40000000000E+03 0. -1.
<mgrwt>
<rscale>  2 0.44189077E+03</rscale>
<asrwt>0</asrwt>
<pdfrwt beam="1">  1       21 0.58310484E-01 0.44189077E+03</pdfrwt>
<pdfrwt beam="2">  1       21 0.88396809E-01 0.44189077E+03</pdfrwt>
<totfact> 0.26261894E+03</totfact>
</mgrwt>
</event>
<event>
 4    1  0.1187342E-002  0.5495589E+03  0.7818608E-02  0.1001596E+00
         21   -1    0    0  501  502  0.00000000000E+00  0.00000000000E+00  0.27283185581E+04  0.27283185581E+04  0.00000000000E+00 0.  1.
         21   -1    0    0  502  503 -0.00000000000E+00 -0.00000000000E+00 -0.11882578617E+03  0.11882578617E+03  0.00000000000E+00 0.  1.
    9000007    1    1    2  501    0 -0.31924905878E+03  0.20023730868E+03  0.16770986586E+04  0.17648441438E+04  0.40000000000E+03 0.  1.
   -9000007    1    1    2    0  503  0.31924905878E+03 -0.20023730868E+03  0.93239411334E+03  0.10823002005E+04  0.40000000000E+03 0.  1.
<mgrwt>
<rscale>  2 0.54955886E+03</rscale>
<asrwt>0</asrwt>
<pdfrwt beam="1">  1       21 0.41974127E+00 0.54955886E+03</pdfrwt>
<pdfrwt beam="2">  1       21 0.18280892E-01 0.54955886E+03</pdfrwt>
<totfact> 0.12673892E+02</totfact>
</mgrwt>
</event>
<event>
 4    1  0.1187342E-002  0.5521557E+03  0.7818608E-02  0.1000996E+00
         21   -1    0    0  503  502  0.00000000000E+00  0.00000000000E+00  0.65544637996E+03  0.65544637996E+03  0.00000000000E+00 0.  1.
         21   -1    0    0  501  503 -0.00000000000E+00 -0.00000000000E+00 -0.47746289493E+03  0.47746289493E+03  0.00000000000E+00 0.  1.
    9000007    1    1    2  501    0 -0.46667954037E+02 -0.37775387061E+03 -0.20016531850E+01  0.55215929885E+03  0.40000000000E+03 0.  1.
   -9000007    1    1    2    0  502  0.46667954037E+02  0.37775387061E+03  0.17998513821E+03  0.58074997604E+03  0.40000000000E+03 0.  1.
<mgrwt>
<rscale>  2 0.55215567E+03</rscale>
<asrwt>0</asrwt>
<pdfrwt beam="1">  1       21 0.10083790E+00 0.55215567E+03</pdfrwt>
<pdfrwt beam="2">  1       21 0.73455830E-01 0.55215567E+03</pdfrwt>
<totfact> 0.11009865E+03</totfact>
</mgrwt>
</event>
<event>
 4    1  0.1187342E-002  0.4879895E+03  0.7818608E-02  0.1016962E+00
         21   -1    0    0  501  502  0.00000000000E+00  0.00000000000E+00  0.22019427016E+04  0.22019427016E+04  0.00000000000E+00 0. -1.
         21   -1    0    0  502  503 -0.00000000000E+00 -0.00000000000E+00 -0.13765367197E+03  0.13765367197E+03  0.00000000000E+00 0. -1.
    9000007    1    1    2  501    0  0.19187631055E+03  0.20326639672E+03  0.49054742167E+03  0.69193245298E+03  0.40000000000E+03 0. -1.
   -9000007    1    1    2    0  503 -0.19187631055E+03 -0.20326639672E+03  0.15737416080E+04  0.16476639206E+04  0.40000000000E+03 0. -1.
<mgrwt>
<rscale>  2 0.48798949E+03</rscale>
<asrwt>0</asrwt>
<pdfrwt beam="1">  1       21 0.33876039E+00 0.48798949E+03</pdfrwt>
<pdfrwt beam="2">  1       21 0.21177490E-01 0.48798949E+03</pdfrwt>
<totfact> 0.32249908E+02</totfact>
</mgrwt>
</event>
<event>
 4    1  0.1187342E-002  0.4048690E+03  0.7818608E-02  0.1042107E+00
         21   -1    0    0  501  502  0.00000000000E+00  0.00000000000E+00  0.13111331423E+04  0.13111331423E+04  0.00000000000E+00 0.  1.
         21   -1    0    0  502  503 -0.00000000000E+00 -0.00000000000E+00 -0.28732388482E+03  0.28732388482E+03  0.00000000000E+00 0.  1.
    9000007    1    1    2  501    0 -0.32113306566E+02 -0.53737119771E+02  0.11125919468E+04  0.11839678132E+04  0.40000000000E+03 0.  1.
   -9000007    1    1    2    0  503  0.32113306566E+02  0.53737119771E+02 -0.88782689391E+02  0.41448921389E+03  0.40000000000E+03 0.  1.
<mgrwt>
<rscale>  2 0.40486904E+03</rscale>
<asrwt>0</asrwt>
<pdfrwt beam="1">  1       21 0.20171279E+00 0.40486904E+03</pdfrwt>
<pdfrwt beam="2">  1       21 0.44203675E-01 0.40486904E+03</pdfrwt>
<totfact> 0.54269655E+02</totfact>
</mgrwt>
</event>
<event>
 4    1  0.1187342E-002  0.4069004E+03  0.7818608E-02  0.1041416E+00
         21   -1    0    0  503  502  0.00000000000E+00  0.00000000000E+00  0.30478006201E+03  0.30478006201E+03  0.00000000000E+00 0. -1.
         21   -1    0    0  501  503 -0.00000000000E+00 -0.00000000000E+00 -0.91179103862E+03  0.91179103862E+03  0.00000000000E+00 0. -1.
    9000007    1    1    2  501    0  0.37009411332E+02 -0.64793655521E+02 -0.69023758635E+03  0.80124642896E+03  0.40000000000E+03 0. -1.
   -9000007    1    1    2    0  502 -0.37009411332E+02  0.64793655521E+02  0.83226609741E+02  0.41532467166E+03  0.40000000000E+03 0. -1.
<mgrwt>
<rscale>  2 0.40690037E+03</rscale>
<asrwt>0</asrwt>
<pdfrwt beam="1">  1       21 0.46889241E-01 0.40690037E+03</pdfrwt>
<pdfrwt beam="2">  1       21 0.14027554E+00 0.40690037E+03</pdfrwt>
<totfact> 0.13435740E+03</totfact>
</mgrwt>
</event>
<event>
 4    1  0.1187342E-002  0.6590745E+03  0.7818608E-02  0.9789899E-01
         21   -1    0    0  501  502  0.00000000000E+00  0.00000000000E+00  0.96901749337E+03  0.96901749337E+03  0.00000000000E+00 0.  1.
         21   -1    0    0  502  503 -0.00000000000E+00 -0.00000000000E+00 -0.48123547295E+03  0.48123547295E+03  0.00000000000E+00 0.  1.
    9000007    1    1    2  501    0  0.51529278620E+03  0.94087643086E+02  0.54097894526E+02  0.66129095131E+03  0.40000000000E+03 0.  1.
   -9000007    1    1    2    0  503 -0.51529278620E+03 -0.94087643086E+02  0.43368412589E+03  0.78896201502E+03  0.40000000000E+03 0.  1.
<mgrwt>
<rscale>  2 0.65907446E+03</rscale>
<asrwt>0</asrwt>
<pdfrwt beam="1">  1       21 0.14907961E+00 0.65907446E+03</pdfrwt>
<pdfrwt beam="2">  1       21 0.74036227E-01 0.65907446E+03</pdfrwt>
<totfact> 0.38068518E+02</totfact>
</mgrwt>
</event>
<event>
 4    1  0.1187342E-002  0.4215757E+03  0.7818608E-02  0.1036555E+00
         21   -1    0    0  501  502  0.00000000000E+00  0.00000000000E+00  0.10007892503E+03  0.10007892503E+03  0.00000000000E+00 0.  1.
         21   -1    0    0  502  503 -0.00000000000E+00 -0.00000000000E+00 -0.19066954551E+04  0.19066954551E+04  0.00000000000E+00 0.  1.
    9000007    1    1    2  501    0 -0.10245614028E+03  0.85022526208E+02 -0.64046808364E+03  0.76676297302E+03  0.40000000000E+03 0.  1.
   -9000007    1    1    2    0  503  0.10245614028E+03 -0.85022526208E+02 -0.11661484464E+04  0.12400114071E+04  0.40000000000E+03 0.  1.
<mgrwt>
<rscale>  2 0.42157572E+03</rscale>
<asrwt>0</asrwt>
<pdfrwt beam="1">  1       21 0.15396761E-01 0.42157572E+03</pdfrwt>
<pdfrwt beam="2">  1       21 0.29333770E+00 0.42157572E+03</pdfrwt>
<totfact> 0.11489342E+03</totfact>
</mgrwt>
</event>
<event>
 4    1  0.1187342E-002  0.6744124E+03  0.7818608E-02  0.9762019E-01
         21   -1    0    0  501  502  0.00000000000E+00  0.00000000000E+00  0.10108564154E+04  0.10108564154E+04  0.00000000000E+00 0. -1.
         21   -1    0    0  502  503 -0.00000000000E+00 -0.00000000000E+00 -0.49382876989E+03  0.49382876989E+03  0.00000000000E+00 0.  1.
    9000007    1    1    2  501    0 -0.52141447957E+03  0.15152242502E+03  0.48278222430E+03  0.82940387079E+03  0.40000000000E+03 0. -1.
   -9000007    1    1    2    0  503  0.52141447957E+03 -0.15152242502E+03  0.34245421159E+02  0.67528131446E+03  0.40000000000E+03 0.  1.
<mgrwt>
<rscale>  2 0.67441241E+03</rscale>
<asrwt>0</asrwt>
<pdfrwt beam="1">  1       21 0.15551637E+00 0.67441241E+03</pdfrwt>
<pdfrwt beam="2">  1       21 0.75973657E-01 0.67441241E+03</pdfrwt>
<totfact> 0.31761647E+02</totfact>
</mgrwt>
</event>
<event>
 4    1  0.1187342E-002  0.4799502E+03  0.7818608E-02  0.1019149E+00
         21   -1    0    0  503  502  0.00000000000E+00  0.00000000000E+00  0.85738456724E+03  0.85738456724E+03  0.00000000000E+00 0.  1.
         21   -1    0    0  501  503 -0.00000000000E+00 -0.00000000000E+00 -0.27058176680E+03  0.27058176680E+03  0.00000000000E+00 0.  1.
    9000007    1    1    2  501    0  0.26198003818E+03 -0.41457025142E+02  0.24597669058E+03  0.53931137355E+03  0.40000000000E+03 0.  1.
   -9000007    1    1    2    0  502 -0.26198003818E+03  0.41457025142E+02  0.34082610986E+03  0.58865496048E+03  0.40000000000E+03 0.  1.
<mgrwt>
<rscale>  2 0.47995023E+03</rscale>
<asrwt>0</asrwt>
<pdfrwt beam="1">  1       21 0.13190532E+00 0.47995023E+03</pdfrwt>
<pdfrwt beam="2">  1       21 0.41627965E-01 0.47995023E+03</pdfrwt>
<totfact> 0.19659499E+03</totfact>
</mgrwt>
</event>
<event>
 4    1  0.1187342E-002  0.4507792E+03  0.7818608E-02  0.1027490E+00
         21   -1    0    0  501  502  0.00000000000E+00  0.00000000000E+00  0.53790955718E+03  0.53790955718E+03  0.00000000000E+00 0.  1.
         21   -1    0    0  502  503 -0.00000000000E+00 -0.00000000000E+00 -0.47007037405E+03  0.47007037405E+03  0.00000000000E+00 0.  1.
    9000007    1    1    2  501    0  0.13748265650E+02 -0.20739538400E+03  0.25725659971E+03  0.51902101904E+03  0.40000000000E+03 0.  1.
   -9000007    1    1    2    0  503 -0.13748265650E+02  0.20739538400E+03 -0.18941741658E+03  0.48895891220E+03  0.40000000000E+03 0.  1.
<mgrwt>
<rscale>  2 0.45077917E+03</rscale>
<asrwt>0</asrwt>
<pdfrwt beam="1">  1       21 0.82755316E-01 0.45077917E+03</pdfrwt>
<pdfrwt beam="2">  1       21 0.72318519E-01 0.45077917E+03</pdfrwt>
<totfact> 0.18932944E+03</totfact>
</mgrwt>
</event>
<event>
 4    1  0.1187342E-002  0.7618102E+03  0.7818608E-02  0.9617002E-01
         21   -1    0    0  503  502  0.00000000000E+00  0.00000000000E+00  0.91697741532E+03  0.91697741532E+03  0.00000000000E+00 0.  1.
         21   -1    0    0  501  503 -0.00000000000E+00 -0.00000000000E+00 -0.10987777638E+04  0.10987777638E+04  0.00000000000E+00 0.  1.
    9000007    1    1    2  501    0 -0.20793578306E+03  0.61409898035E+03 -0.74717981149E+03  0.10670672510E+04  0.40000000000E+03 0.  1.
   -9000007    1    1    2    0  502  0.20793578306E+03 -0.61409898035E+03  0.56537946305E+03  0.94868792803E+03  0.40000000000E+03 0.  1.
<mgrwt>
<rscale>  2 0.76181024E+03</rscale>
<asrwt>0</asrwt>
<pdfrwt beam="1">  1       21 0.14107345E+00 0.76181024E+03</pdfrwt>
<pdfrwt beam="2">  1       21 0.16904273E+00 0.76181024E+03</pdfrwt>
<totfact> 0.52273079E+01</totfact>
</mgrwt>
</event>
<event>
 4    1  0.1187342E-002  0.5159827E+03  0.7818608E-02  0.1009689E+00
         21   -1    0    0  501  502  0.00000000000E+00  0.00000000000E+00  0.18234853033E+03  0.18234853033E+03  0.00000000000E+00 0. -1.
         21   -1    0    0  502  503 -0.00000000000E+00 -0.00000000000E+00 -0.15275029101E+04  0.15275029101E+04  0.00000000000E+00 0. -1.
    9000007    1    1    2  501    0  0.16733020765E+03  0.27971194332E+03 -0.85223008113E+03  0.99626014715E+03  0.40000000000E+03 0. -1.
   -9000007    1    1    2    0  503 -0.16733020765E+03 -0.27971194332E+03 -0.49292429861E+03  0.71359129324E+03  0.40000000000E+03 0. -1.
<mgrwt>
<rscale>  2 0.51598272E+03</rscale>
<asrwt>0</asrwt>
<pdfrwt beam="1">  1       21 0.28053619E-01 0.51598272E+03</pdfrwt>
<pdfrwt beam="2">  1       21 0.23500045E+00 0.51598272E+03</pdfrwt>
<totfact> 0.79014235E+02</totfact>
</mgrwt>
</event>
<event>
 4    1  0.1187342E-002  0.4052311E+03  0.7818608E-02  0.1041983E+00
         21   -1    0    0  501  502  0.00000000000E+00  0.00000000000E+00  0.51764435172E+03  0.51764435172E+03  0.00000000000E+00 0. -1.
         21   -1    0    0  502  503 -0.00000000000E+00 -0.00000000000E+00 -0.42024625741E+03  0.42024625741E+03  0.00000000000E+00 0.  1.
    9000007    1    1    2  501    0  0.23897104079E+02 -0.60341969830E+02 -0.18348026824E+03  0.44483393951E+03  0.40000000000E+03 0. -1.
   -9000007    1    1    2    0  503 -0.23897104079E+02  0.60341969830E+02  0.28087836255E+03  0.49305666962E+03  0.40000000000E+03 0. -1.
<mgrwt>
<rscale>  2 0.40523108E+03</rscale>
<asrwt>0</asrwt>
<pdfrwt beam="1">  1       21 0.79637592E-01 0.40523108E+03</pdfrwt>
<pdfrwt beam="2">  1       21 0.64653271E-01 0.40523108E+03</pdfrwt>
<totfact> 0.27069047E+03</totfact>
</mgrwt>
</event>
<event>
 4    1  0.1187342E-002  0.5178885E+03  0.7818608E-02  0.1009212E+00
         21   -1    0    0  501  502  0.00000000000E+00  0.00000000000E+00  0.73847105917E+03  0.73847105917E+03  0.00000000000E+00 0.  1.
         21   -1    0    0  502  503 -0.00000000000E+00 -0.00000000000E+00 -0.42541090839E+03  0.42541090839E+03  0.00000000000E+00 0.  1.
    9000007    1    1    2  501    0 -0.32812954869E+03 -0.23226733053E+02 -0.66020021535E+02  0.52207961567E+03  0.40000000000E+03 0.  1.
   -9000007    1    1    2    0  503  0.32812954869E+03  0.23226733053E+02  0.37908017232E+03  0.64180235189E+03  0.40000000000E+03 0.  1.
<mgrwt>
<rscale>  2 0.51788848E+03</rscale>
<asrwt>0</asrwt>
<pdfrwt beam="1">  1       21 0.11361093E+00 0.51788848E+03</pdfrwt>
<pdfrwt beam="2">  1       21 0.65447832E-01 0.51788848E+03</pdfrwt>
<totfact> 0.10751827E+03</totfact>
</mgrwt>
</event>
<event>
 4    1  0.1187342E-002  0.5956053E+03  0.7818608E-02  0.9914566E-01
         21   -1    0    0  503  502  0.00000000000E+00  0.00000000000E+00  0.11615465715E+04  0.11615465715E+04  0.00000000000E+00 0.  1.
         21   -1    0    0  501  503 -0.00000000000E+00 -0.00000000000E+00 -0.31554454327E+03  0.31554454327E+03  0.00000000000E+00 0.  1.
    9000007    1    1    2  501    0  0.10712949551E+03  0.42809916594E+03  0.29063035865E+03  0.66273043544E+03  0.40000000000E+03 0.  1.
   -9000007    1    1    2    0  502 -0.10712949551E+03 -0.42809916594E+03  0.55537166962E+03  0.81436067937E+03  0.40000000000E+03 0.  1.
<mgrwt>
<rscale>  2 0.59560526E+03</rscale>
<asrwt>0</asrwt>
<pdfrwt beam="1">  1       21 0.17869947E+00 0.59560526E+03</pdfrwt>
<pdfrwt beam="2">  1       21 0.48545315E-01 0.59560526E+03</pdfrwt>
<totfact> 0.59014400E+02</totfact>
</mgrwt>
</event>
<event>
 4    1  0.1187342E-002  0.4015149E+03  0.7818608E-02  0.1043256E+00
         21   -1    0    0  501  502  0.00000000000E+00  0.00000000000E+00  0.62280952491E+03  0.62280952491E+03  0.00000000000E+00 0.  1.
         21   -1    0    0  502  503 -0.00000000000E+00 -0.00000000000E+00 -0.33019847313E+03  0.33019847313E+03  0.00000000000E+00 0.  1.
    9000007    1    1    2  501    0 -0.32716717483E+01 -0.34691797233E+02  0.36780436953E+03  0.54451288220E+03  0.40000000000E+03 0.  1.
   -9000007    1    1    2    0  503  0.32716717483E+01  0.34691797233E+02 -0.75193317753E+02  0.40849511584E+03  0.40000000000E+03 0.  1.
<mgrwt>
<rscale>  2 0.40151491E+03</rscale>
<asrwt>0</asrwt>
<pdfrwt beam="1">  1       21 0.95816849E-01 0.40151491E+03</pdfrwt>
<pdfrwt beam="2">  1       21 0.50799765E-01 0.40151491E+03</pdfrwt>
<totfact> 0.29634435E+03</totfact>
</mgrwt>
</event>
<event>
 4    1  0.1187342E-002  0.6489128E+03  0.7818608E-02  0.9808821E-01
         21   -1    0    0  503  502  0.00000000000E+00  0.00000000000E+00  0.31073443117E+03  0.31073443117E+03  0.00000000000E+00 0. -1.
         21   -1    0    0  501  503 -0.00000000000E+00 -0.00000000000E+00 -0.13637108412E+04  0.13637108412E+04  0.00000000000E+00 0. -1.
    9000007    1    1    2  501    0  0.32426719588E+03 -0.39489059510E+03 -0.59287194261E+03  0.87896810907E+03  0.40000000000E+03 0. -1.
   -9000007    1    1    2    0  502 -0.32426719588E+03  0.39489059510E+03 -0.46010446746E+03  0.79547716334E+03  0.40000000000E+03 0. -1.
<mgrwt>
<rscale>  2 0.64891278E+03</rscale>
<asrwt>0</asrwt>
<pdfrwt beam="1">  1       21 0.47805296E-01 0.64891278E+03</pdfrwt>
<pdfrwt beam="2">  1       21 0.20980167E+00 0.64891278E+03</pdfrwt>
<totfact> 0.36625763E+02</totfact>
</mgrwt>
</event>
<event>
 4    1  0.1187342E-002  0.4089353E+03  0.7818608E-02  0.1040729E+00
         21   -1    0    0  503  502  0.00000000000E+00  0.00000000000E+00  0.64080560662E+03  0.64080560662E+03  0.00000000000E+00 0. -1.
         21   -1    0    0  501  503 -0.00000000000E+00 -0.00000000000E+00 -0.31382097535E+03  0.31382097535E+03  0.00000000000E+00 0. -1.
    9000007    1    1    2  501    0  0.29840752623E+02 -0.79609255690E+02 -0.32395699139E+02  0.41021651043E+03  0.40000000000E+03 0. -1.
   -9000007    1    1    2    0  502 -0.29840752623E+02  0.79609255690E+02  0.35938033040E+03  0.54441007154E+03  0.40000000000E+03 0. -1.
<mgrwt>
<rscale>  2 0.40893533E+03</rscale>
<asrwt>0</asrwt>
<pdfrwt beam="1">  1       21 0.98585478E-01 0.40893533E+03</pdfrwt>
<pdfrwt beam="2">  1       21 0.48280150E-01 0.40893533E+03</pdfrwt>
<totfact> 0.30732023E+03</totfact>
</mgrwt>
</event>
<event>
 4    1  0.1187342E-002  0.6818989E+03  0.7818608E-02  0.9748698E-01
         21   -1    0    0  501  502  0.00000000000E+00  0.00000000000E+00  0.62899134835E+03  0.62899134835E+03  0.00000000000E+00 0. -1.
         21   -1    0    0  502  503 -0.00000000000E+00 -0.00000000000E+00 -0.74287988709E+03  0.74287988709E+03  0.00000000000E+00 0.  1.
    9000007    1    1    2  501    0 -0.55211044888E+03 -0.12656143782E+02 -0.90411294910E+01  0.68195884609E+03  0.40000000000E+03 0. -1.
   -9000007    1    1    2    0  503  0.55211044888E+03  0.12656143782E+02 -0.10484740925E+03  0.68991238934E+03  0.40000000000E+03 0. -1.
<mgrwt>
<rscale>  2 0.68189891E+03</rscale>
<asrwt>0</asrwt>
<pdfrwt beam="1">  1       21 0.96767900E-01 0.68189891E+03</pdfrwt>
<pdfrwt beam="2">  1       21 0.11428921E+00 0.68189891E+03</pdfrwt>
<totfact> 0.40455887E+02</totfact>
</mgrwt>
</event>
<event>
 4    1  0.1187342E-002  0.4538087E+03  0.7818608E-02  0.1026592E+00
         21   -1    0    0  501  502  0.00000000000E+00  0.00000000000E+00  0.73266410417E+03  0.73266410417E+03  0.00000000000E+00 0. -1.
         21   -1    0    0  502  503 -0.00000000000E+00 -0.00000000000E+00 -0.28408627355E+03  0.28408627355E+03  0.00000000000E+00 0.  1.
    9000007    1    1    2  501    0  0.11093409164E+03 -0.18340118213E+03  0.27652446260E+03  0.53142087343E+03  0.40000000000E+03 0. -1.
   -9000007    1    1    2    0  503 -0.11093409164E+03  0.18340118213E+03  0.17205336802E+03  0.48532950430E+03  0.40000000000E+03 0. -1.
<mgrwt>
<rscale>  2 0.45380873E+03</rscale>
<asrwt>0</asrwt>
<pdfrwt beam="1">  1       21 0.11271755E+00 0.45380873E+03</pdfrwt>
<pdfrwt beam="2">  1       21 0.43705581E-01 0.45380873E+03</pdfrwt>
<totfact> 0.26791482E+03</totfact>
</mgrwt>
</event>
<event>
 4    1  0.1187342E-002  0.5601853E+03  0.7818608E-02  0.9991635E-01
         21   -1    0    0  501  502  0.00000000000E+00  0.00000000000E+00  0.75037657532E+03  0.75037657532E+03  0.00000000000E+00 0. -1.
         21   -1    0    0  502  503 -0.00000000000E+00 -0.00000000000E+00 -0.47477010825E+03  0.47477010825E+03  0.00000000000E+00 0.  1.
    9000007    1    1    2  501    0 -0.38881706147E+03 -0.51272383415E+02  0.34925411543E+03  0.66014089537E+03  0.40000000000E+03 0. -1.
   -9000007    1    1    2    0  503  0.38881706147E+03  0.51272383415E+02 -0.73647648355E+02  0.56500578820E+03  0.40000000000E+03 0. -1.
<mgrwt>
<rscale>  2 0.56018529E+03</rscale>
<asrwt>0</asrwt>
<pdfrwt beam="1">  1       21 0.11544255E+00 0.56018529E+03</pdfrwt>
<pdfrwt beam="2">  1       21 0.73041555E-01 0.56018529E+03</pdfrwt>
<totfact> 0.79458183E+02</totfact>
</mgrwt>
</event>
<event>
 4    1  0.1187342E-002  0.6743530E+03  0.7818608E-02  0.9762126E-01
         21   -1    0    0  501  502  0.00000000000E+00  0.00000000000E+00  0.48441535141E+03  0.48441535141E+03  0.00000000000E+00 0.  1.
         21   -1    0    0  502  503 -0.00000000000E+00 -0.00000000000E+00 -0.10629213206E+04  0.10629213206E+04  0.00000000000E+00 0. -1.
    9000007    1    1    2  501    0  0.40852311457E+03  0.35757639343E+03 -0.24836043645E+02  0.67481022616E+03  0.40000000000E+03 0. -1.
   -9000007    1    1    2    0  503 -0.40852311457E+03 -0.35757639343E+03 -0.55366992559E+03  0.87252644589E+03  0.40000000000E+03 0. -1.
<mgrwt>
<rscale>  2 0.67435303E+03</rscale>
<asrwt>0</asrwt>
<pdfrwt beam="1">  1       21 0.74525439E-01 0.67435303E+03</pdfrwt>
<pdfrwt beam="2">  1       21 0.16352636E+00 0.67435303E+03</pdfrwt>
<totfact> 0.28813984E+02</totfact>
</mgrwt>
</event>
<event>
 4    1  0.1187342E-002  0.5410967E+03  0.7818608E-02  0.1003576E+00
         21   -1    0    0  501  502  0.00000000000E+00  0.00000000000E+00  0.14760513008E+03  0.14760513008E+03  0.00000000000E+00 0.  1.
         21   -1    0    0  502  503 -0.00000000000E+00 -0.00000000000E+00 -0.20134465956E+04  0.20134465956E+04  0.00000000000E+00 0.  1.
    9000007    1    1    2  501    0 -0.14120278219E+03  0.33592769020E+03 -0.10645354701E+04  0.11941613818E+04  0.40000000000E+03 0.  1.
   -9000007    1    1    2    0  503  0.14120278219E+03 -0.33592769020E+03 -0.80130599550E+03  0.96689034392E+03  0.40000000000E+03 0.  1.
<mgrwt>
<rscale>  2 0.54109670E+03</rscale>
<asrwt>0</asrwt>
<pdfrwt beam="1">  1       21 0.22708483E-01 0.54109670E+03</pdfrwt>
<pdfrwt beam="2">  1       21 0.30976099E+00 0.54109670E+03</pdfrwt>
<totfact> 0.41184693E+02</totfact>
</mgrwt>
</event>
<event>
 4    1  0.1187342E-002  0.4192195E+03  0.7818608E-02  0.1037321E+00
         21   -1    0    0  503  502  0.00000000000E+00  0.00000000000E+00  0.79725422085E+03  0.79725422085E+03  0.00000000000E+00 0. -1.
         21   -1    0    0  501  503 -0.00000000000E+00 -0.00000000000E+00 -0.22045307668E+03  0.22045307668E+03  0.00000000000E+00 0. -1.
    9000007    1    1    2  501    0 -0.25089923885E+02 -0.12294516310E+03  0.29262764218E+03  0.51124940526E+03  0.40000000000E+03 0. -1.
   -9000007    1    1    2    0  502  0.25089923885E+02  0.12294516310E+03  0.28417350199E+03  0.50645789227E+03  0.40000000000E+03 0. -1.
<mgrwt>
<rscale>  2 0.41921953E+03</rscale>
<asrwt>0</asrwt>
<pdfrwt beam="1">  1       21 0.12265449E+00 0.41921953E+03</pdfrwt>
<pdfrwt beam="2">  1       21 0.33915858E-01 0.41921953E+03</pdfrwt>
<totfact> 0.36872117E+03</totfact>
</mgrwt>
</event>
<event>
 4    1  0.1187342E-002  0.4066681E+03  0.7818608E-02  0.1041495E+00
         21   -1    0    0  501  502  0.00000000000E+00  0.00000000000E+00  0.86078152221E+03  0.86078152221E+03  0.00000000000E+00 0. -1.
         21   -1    0    0  502  503 -0.00000000000E+00 -0.00000000000E+00 -0.22965503126E+03  0.22965503126E+03  0.00000000000E+00 0. -1.
    9000007    1    1    2  501    0  0.55240320263E+02 -0.48243943257E+02  0.53596396421E+03  0.67278253691E+03  0.40000000000E+03 0.  1.
   -9000007    1    1    2    0  503 -0.55240320263E+02  0.48243943257E+02  0.95162526736E+02  0.41765401655E+03  0.40000000000E+03 0.  1.
<mgrwt>
<rscale>  2 0.40666813E+03</rscale>
<asrwt>0</asrwt>
<pdfrwt beam="1">  1       21 0.13242793E+00 0.40666813E+03</pdfrwt>
<pdfrwt beam="2">  1       21 0.35331544E-01 0.40666813E+03</pdfrwt>
<totfact> 0.28006055E+03</totfact>
</mgrwt>
</event>
<event>
 4    1  0.1187342E-002  0.7106720E+03  0.7818608E-02  0.9699154E-01
         21   -1    0    0  503  502  0.00000000000E+00  0.00000000000E+00  0.89079553142E+03  0.89079553142E+03  0.00000000000E+00 0. -1.
         21   -1    0    0  501  503 -0.00000000000E+00 -0.00000000000E+00 -0.58274393309E+03  0.58274393309E+03  0.00000000000E+00 0. -1.
    9000007    1    1    2  501    0  0.57585636297E+03 -0.11594893742E+03  0.27524104903E+03  0.76211045258E+03  0.40000000000E+03 0. -1.
   -9000007    1    1    2    0  502 -0.57585636297E+03  0.11594893742E+03  0.32810549294E+02  0.71142901192E+03  0.40000000000E+03 0. -1.
<mgrwt>
<rscale>  2 0.71067201E+03</rscale>
<asrwt>0</asrwt>
<pdfrwt beam="1">  1       21 0.13704547E+00 0.71067201E+03</pdfrwt>
<pdfrwt beam="2">  1       21 0.89652912E-01 0.71067201E+03</pdfrwt>
<totfact> 0.30072916E+02</totfact>
</mgrwt>
</event>
<event>
 4    1  0.1187342E-002  0.4385507E+03  0.7818608E-02  0.1031192E+00
         21   -1    0    0  501  502  0.00000000000E+00  0.00000000000E+00  0.83908458417E+03  0.83908458417E+03  0.00000000000E+00 0. -1.
         21   -1    0    0  502  503 -0.00000000000E+00 -0.00000000000E+00 -0.22986715265E+03  0.22986715265E+03  0.00000000000E+00 0. -1.
    9000007    1    1    2  501    0 -0.17970169605E+03  0.58320243933E+01  0.33318263334E+03  0.55076072775E+03  0.40000000000E+03 0. -1.
   -9000007    1    1    2    0  503  0.17970169605E+03 -0.58320243933E+01  0.27603479817E+03  0.51819100906E+03  0.40000000000E+03 0. -1.
<mgrwt>
<rscale>  2 0.43855069E+03</rscale>
<asrwt>0</asrwt>
<pdfrwt beam="1">  1       21 0.12908993E+00 0.43855069E+03</pdfrwt>
<pdfrwt beam="2">  1       21 0.35364178E-01 0.43855069E+03</pdfrwt>
<totfact> 0.29494031E+03</totfact>
</mgrwt>
</event>
<event>
 4    1  0.1187342E-002  0.4651577E+03  0.7818608E-02  0.1023296E+00
         21   -1    0    0  503  502  0.00000000000E+00  0.00000000000E+00  0.11189187030E+03  0.11189187030E+03  0.00000000000E+00 0. -1.
         21   -1    0    0  501  503 -0.00000000000E+00 -0.00000000000E+00 -0.20805712463E+04  0.20805712463E+04  0.00000000000E+00 0. -1.
    9000007    1    1    2  501    0  0.18233003801E+03  0.15207699541E+03 -0.12755424763E+04  0.13577114068E+04  0.40000000000E+03 0. -1.
   -9000007    1    1    2    0  502 -0.18233003801E+03 -0.15207699541E+03 -0.69313689973E+03  0.83475170983E+03  0.40000000000E+03 0. -1.
<mgrwt>
<rscale>  2 0.46515767E+03</rscale>
<asrwt>0</asrwt>
<pdfrwt beam="1">  1       21 0.17214134E-01 0.46515767E+03</pdfrwt>
<pdfrwt beam="2">  1       21 0.32008788E+00 0.46515767E+03</pdfrwt>
<totfact> 0.62860280E+02</totfact>
</mgrwt>
</event>
<event>
 4    1  0.1187342E-002  0.4660266E+03  0.7818608E-02  0.1023048E+00
         21   -1    0    0  501  502  0.00000000000E+00  0.00000000000E+00  0.14891964790E+04  0.14891964790E+04  0.00000000000E+00 0. -1.
         21   -1    0    0  502  503 -0.00000000000E+00 -0.00000000000E+00 -0.17788962734E+03  0.17788962734E+03  0.00000000000E+00 0. -1.
    9000007    1    1    2  501    0 -0.23855927143E+03 -0.16440326069E+02  0.10094719878E+04  0.11118518357E+04  0.40000000000E+03 0. -1.
   -9000007    1    1    2    0  503  0.23855927143E+03  0.16440326069E+02  0.30183486388E+03  0.55523427070E+03  0.40000000000E+03 0. -1.
<mgrwt>
<rscale>  2 0.46602662E+03</rscale>
<asrwt>0</asrwt>
<pdfrwt beam="1">  1       21 0.22910714E+00 0.46602662E+03</pdfrwt>
<pdfrwt beam="2">  1       21 0.27367636E-01 0.46602662E+03</pdfrwt>
<totfact> 0.92418770E+02</totfact>
</mgrwt>
</event>
<event>
 4    1  0.1187342E-002  0.4151553E+03  0.7818608E-02  0.1038655E+00
         21   -1    0    0  501  502  0.00000000000E+00  0.00000000000E+00  0.18596526467E+04  0.18596526467E+04  0.00000000000E+00 0. -1.
         21   -1    0    0  502  503 -0.00000000000E+00 -0.00000000000E+00 -0.10063415089E+03  0.10063415089E+03  0.00000000000E+00 0. -1.
    9000007    1    1    2  501    0  0.10838872130E+03 -0.24613946052E+02  0.11550551533E+04  0.12273982110E+04  0.40000000000E+03 0. -1.
   -9000007    1    1    2    0  503 -0.10838872130E+03  0.24613946052E+02  0.60396334253E+03  0.73288858660E+03  0.40000000000E+03 0. -1.
<mgrwt>
<rscale>  2 0.41515535E+03</rscale>
<asrwt>0</asrwt>
<pdfrwt beam="1">  1       21 0.28610038E+00 0.41515535E+03</pdfrwt>
<pdfrwt beam="2">  1       21 0.15482178E-01 0.41515535E+03</pdfrwt>
<totfact> 0.12611854E+03</totfact>
</mgrwt>
</event>
<event>
 4    1  0.1187342E-002  0.4273393E+03  0.7818608E-02  0.1034704E+00
         21   -1    0    0  501  502  0.00000000000E+00  0.00000000000E+00  0.20469138908E+03  0.20469138908E+03  0.00000000000E+00 0. -1.
         21   -1    0    0  502  503 -0.00000000000E+00 -0.00000000000E+00 -0.95599505902E+03  0.95599505902E+03  0.00000000000E+00 0. -1.
    9000007    1    1    2  501    0 -0.76021085763E+01  0.15020343703E+03 -0.22569593959E+03  0.48327789283E+03  0.40000000000E+03 0. -1.
   -9000007    1    1    2    0  503  0.76021085763E+01 -0.15020343703E+03 -0.52560773035E+03  0.67740855527E+03  0.40000000000E+03 0. -1.
<mgrwt>
<rscale>  2 0.42733929E+03</rscale>
<asrwt>0</asrwt>
<pdfrwt beam="1">  1       21 0.31490982E-01 0.42733929E+03</pdfrwt>
<pdfrwt beam="2">  1       21 0.14707617E+00 0.42733929E+03</pdfrwt>
<totfact> 0.26505254E+03</totfact>
</mgrwt>
</event>
<event>
 4    1  0.1187342E-002  0.4953648E+03  0.7818608E-02  0.1014996E+00
         21   -1    0    0  501  502  0.00000000000E+00  0.00000000000E+00  0.13718532406E+04  0.13718532406E+04  0.00000000000E+00 0. -1.
         21   -1    0    0  502  503 -0.00000000000E+00 -0.00000000000E+00 -0.23353618193E+03  0.23353618193E+03  0.00000000000E+00 0.  1.
    9000007    1    1    2  501    0  0.87341272151E+02  0.27885078750E+03  0.95750948076E+03  0.10780587485E+04  0.40000000000E+03 0.  1.
   -9000007    1    1    2    0  503 -0.87341272151E+02 -0.27885078750E+03  0.18080757788E+03  0.52733067399E+03  0.40000000000E+03 0.  1.
<mgrwt>
<rscale>  2 0.49536477E+03</rscale>
<asrwt>0</asrwt>
<pdfrwt beam="1">  1       21 0.21105434E+00 0.49536477E+03</pdfrwt>
<pdfrwt beam="2">  1       21 0.35928644E-01 0.49536477E+03</pdfrwt>
<totfact> 0.69073720E+02</totfact>
</mgrwt>
</event>
<event>
 4    1  0.1187342E-002  0.5605388E+03  0.7818608E-02  0.9990836E-01
         21   -1    0    0  501  502  0.00000000000E+00  0.00000000000E+00  0.40709885799E+03  0.40709885799E+03  0.00000000000E+00 0.  1.
         21   -1    0    0  502  503 -0.00000000000E+00 -0.00000000000E+00 -0.82787900831E+03  0.82787900831E+03  0.00000000000E+00 0. -1.
    9000007    1    1    2  501    0  0.34595331757E+02 -0.39116094064E+03 -0.49695929114E+02  0.56273741996E+03  0.40000000000E+03 0.  1.
   -9000007    1    1    2    0  503 -0.34595331757E+02  0.39116094064E+03 -0.37108422121E+03  0.67224044634E+03  0.40000000000E+03 0. -1.
<mgrwt>
<rscale>  2 0.56053878E+03</rscale>
<asrwt>0</asrwt>
<pdfrwt beam="1">  1       21 0.62630594E-01 0.56053878E+03</pdfrwt>
<pdfrwt beam="2">  1       21 0.12736600E+00 0.56053878E+03</pdfrwt>
<totfact> 0.87268904E+02</totfact>
</mgrwt>
</event>
<event>
 4    1  0.1187342E-002  0.4187992E+03  0.7818608E-02  0.1037458E+00
         21   -1    0    0  501  502  0.00000000000E+00  0.00000000000E+00  0.49906728747E+03  0.49906728747E+03  0.00000000000E+00 0. -1.
         21   -1    0    0  502  503 -0.00000000000E+00 -0.00000000000E+00 -0.35237970067E+03  0.35237970067E+03  0.00000000000E+00 0. -1.
    9000007    1    1    2  501    0  0.12025008325E+03 -0.30540575514E+02  0.95314201952E+02  0.42950856379E+03  0.40000000000E+03 0. -1.
   -9000007    1    1    2    0  503 -0.12025008325E+03  0.30540575514E+02  0.51373384848E+02  0.42193842435E+03  0.40000000000E+03 0. -1.
<mgrwt>
<rscale>  2 0.41879925E+03</rscale>
<asrwt>0</asrwt>
<pdfrwt beam="1">  1       21 0.76779583E-01 0.41879925E+03</pdfrwt>
<pdfrwt beam="2">  1       21 0.54212262E-01 0.41879925E+03</pdfrwt>
<totfact> 0.43011517E+03</totfact>
</mgrwt>
</event>
<event>
 4    1  0.1187342E-002  0.8519319E+03  0.7818608E-02  0.9487748E-01
         21   -1    0    0  503  502  0.00000000000E+00  0.00000000000E+00  0.15384881019E+04  0.15384881019E+04  0.00000000000E+00 0.  1.
         21   -1    0    0  501  503 -0.00000000000E+00 -0.00000000000E+00 -0.51245933631E+03  0.51245933631E+03  0.00000000000E+00 0. -1.
    9000007    1    1    2  501    0 -0.40982134288E+03  0.63074117175E+03  0.22399940166E+03  0.88088801261E+03  0.40000000000E+03 0. -1.
   -9000007    1    1    2    0  502  0.40982134288E+03 -0.63074117175E+03  0.80202936397E+03  0.11700594256E+04  0.40000000000E+03 0.  1.
<mgrwt>
<rscale>  2 0.85193190E+03</rscale>
<asrwt>0</asrwt>
<pdfrwt beam="1">  1       21 0.23669048E+00 0.85193190E+03</pdfrwt>
<pdfrwt beam="2">  1       21 0.78839899E-01 0.85193190E+03</pdfrwt>
<totfact> 0.75277519E+01</totfact>
</mgrwt>
</event>
<event>
 4    1  0.1187342E-002  0.6164759E+03  0.7818608E-02  0.9871801E-01
         21   -1    0    0  503  502  0.00000000000E+00  0.00000000000E+00  0.11638651797E+04  0.11638651797E+04  0.00000000000E+00 0. -1.
         21   -1    0    0  501  503 -0.00000000000E+00 -0.00000000000E+00 -0.45280919351E+03  0.45280919351E+03  0.00000000000E+00 0.  1.
    9000007    1    1    2  501    0  0.19791380615E+03  0.42529132993E+03 -0.71338856742E+02  0.62058989877E+03  0.40000000000E+03 0.  1.
   -9000007    1    1    2    0  502 -0.19791380615E+03 -0.42529132993E+03  0.78239484297E+03  0.99608447447E+03  0.40000000000E+03 0. -1.
<mgrwt>
<rscale>  2 0.61647594E+03</rscale>
<asrwt>0</asrwt>
<pdfrwt beam="1">  1       21 0.17905618E+00 0.61647594E+03</pdfrwt>
<pdfrwt beam="2">  1       21 0.69662953E-01 0.61647594E+03</pdfrwt>
<totfact> 0.26357256E+02</totfact>
</mgrwt>
</event>
<event>
 4    1  0.1187342E-002  0.7072999E+03  0.7818608E-02  0.9704829E-01
         21   -1    0    0  503  502  0.00000000000E+00  0.00000000000E+00  0.11364139309E+04  0.11364139309E+04  0.00000000000E+00 0.  1.
         21   -1    0    0  501  503 -0.00000000000E+00 -0.00000000000E+00 -0.59558305930E+03  0.59558305930E+03  0.00000000000E+00 0. -1.
    9000007    1    1    2  501    0 -0.58332122062E+03  0.30811529988E+01 -0.17188627828E+03  0.72788600247E+03  0.40000000000E+03 0. -1.
   -9000007    1    1    2    0  502  0.58332122062E+03 -0.30811529988E+01  0.71271714983E+03  0.10041109877E+04  0.40000000000E+03 0.  1.
<mgrwt>
<rscale>  2 0.70729989E+03</rscale>
<asrwt>0</asrwt>
<pdfrwt beam="1">  1       21 0.17483291E+00 0.70729989E+03</pdfrwt>
<pdfrwt beam="2">  1       21 0.91628163E-01 0.70729989E+03</pdfrwt>
<totfact> 0.14461742E+02</totfact>
</mgrwt>
</event>
<event>
 4    1  0.1187342E-002  0.4057649E+03  0.7818608E-02  0.1041802E+00
         21   -1    0    0  503  502  0.00000000000E+00  0.00000000000E+00  0.56676876537E+03  0.56676876537E+03  0.00000000000E+00 0.  1.
         21   -1    0    0  501  503 -0.00000000000E+00 -0.00000000000E+00 -0.29088726667E+03  0.29088726667E+03  0.00000000000E+00 0. -1.
    9000007    1    1    2  501    0 -0.67684973530E+02 -0.79951399448E+01  0.15362844190E+03  0.43387426297E+03  0.40000000000E+03 0. -1.
   -9000007    1    1    2    0  502  0.67684973530E+02  0.79951399448E+01  0.12225305679E+03  0.42378176907E+03  0.40000000000E+03 0. -1.
<mgrwt>
<rscale>  2 0.40576493E+03</rscale>
<asrwt>0</asrwt>
<pdfrwt beam="1">  1       21 0.87195194E-01 0.40576493E+03</pdfrwt>
<pdfrwt beam="2">  1       21 0.44751887E-01 0.40576493E+03</pdfrwt>
<totfact> 0.48321632E+03</totfact>
</mgrwt>
</event>
<event>
 4    1  0.1187342E-002  0.4450293E+03  0.7818608E-02  0.1029215E+00
         21   -1    0    0  501  502  0.00000000000E+00  0.00000000000E+00  0.37628007551E+03  0.37628007551E+03  0.00000000000E+00 0. -1.
         21   -1    0    0  502  503 -0.00000000000E+00 -0.00000000000E+00 -0.56164580179E+03  0.56164580179E+03  0.00000000000E+00 0. -1.
    9000007    1    1    2  501    0  0.10607027831E+03 -0.16370759042E+03  0.24897061526E+02  0.44572518750E+03  0.40000000000E+03 0.  1.
   -9000007    1    1    2    0  503 -0.10607027831E+03  0.16370759042E+03 -0.21026278781E+03  0.49220068980E+03  0.40000000000E+03 0.  1.
<mgrwt>
<rscale>  2 0.44502930E+03</rscale>
<asrwt>0</asrwt>
<pdfrwt beam="1">  1       21 0.57889243E-01 0.44502930E+03</pdfrwt>
<pdfrwt beam="2">  1       21 0.86407046E-01 0.44502930E+03</pdfrwt>
<totfact> 0.28116027E+03</totfact>
</mgrwt>
</event>
<event>
 4    1  0.1187342E-002  0.4250155E+03  0.7818608E-02  0.1035446E+00
         21   -1    0    0  503  502  0.00000000000E+00  0.00000000000E+00  0.29980922771E+04  0.29980922771E+04  0.00000000000E+00 0.  1.
         21   -1    0    0  501  503 -0.00000000000E+00 -0.00000000000E+00 -0.10369001750E+03  0.10369001750E+03  0.00000000000E+00 0.  1.
    9000007    1    1    2  501    0 -0.68457172545E+02 -0.12630035953E+03  0.44338848806E+03  0.61419175884E+03  0.40000000000E+03 0.  1.
   -9000007    1    1    2    0  502  0.68457172545E+02  0.12630035953E+03  0.24510137716E+04  0.24875905358E+04  0.40000000000E+03 0.  1.
<mgrwt>
<rscale>  2 0.42501549E+03</rscale>
<asrwt>0</asrwt>
<pdfrwt beam="1">  1       21 0.46124490E+00 0.42501549E+03</pdfrwt>
<pdfrwt beam="2">  1       21 0.15952313E-01 0.42501549E+03</pdfrwt>
<totfact> 0.93462180E+01</totfact>
</mgrwt>
</event>
<event>
 4    1  0.1187342E-002  0.4912462E+03  0.7818608E-02  0.1016089E+00
         21   -1    0    0  503  502  0.00000000000E+00  0.00000000000E+00  0.59639555772E+03  0.59639555772E+03  0.00000000000E+00 0.  1.
         21   -1    0    0  501  503 -0.00000000000E+00 -0.00000000000E+00 -0.41596664973E+03  0.41596664973E+03  0.00000000000E+00 0. -1.
    9000007    1    1    2  501    0 -0.65857080235E+02 -0.27746289619E+03  0.66707568010E+01  0.49129147436E+03  0.40000000000E+03 0. -1.
   -9000007    1    1    2    0  502  0.65857080235E+02  0.27746289619E+03  0.17375815118E+03  0.52107073309E+03  0.40000000000E+03 0.  1.
<mgrwt>
<rscale>  2 0.49124618E+03</rscale>
<asrwt>0</asrwt>
<pdfrwt beam="1">  1       21 0.91753163E-01 0.49124618E+03</pdfrwt>
<pdfrwt beam="2">  1       21 0.63994869E-01 0.49124618E+03</pdfrwt>
<totfact> 0.19248091E+03</totfact>
</mgrwt>
</event>
<event>
 4    1  0.1187342E-002  0.4470637E+03  0.7818608E-02  0.1028601E+00
         21   -1    0    0  501  502  0.00000000000E+00  0.00000000000E+00  0.22578378006E+03  0.22578378006E+03  0.00000000000E+00 0.  1.
         21   -1    0    0  502  503 -0.00000000000E+00 -0.00000000000E+00 -0.95204291837E+03  0.95204291837E+03  0.00000000000E+00 0.  1.
    9000007    1    1    2  501    0 -0.84801505676E+02 -0.18076127053E+03 -0.20709523027E+03  0.49270109264E+03  0.40000000000E+03 0.  1.
   -9000007    1    1    2    0  503  0.84801505676E+02  0.18076127053E+03 -0.51916390805E+03  0.68512560579E+03  0.40000000000E+03 0.  1.
<mgrwt>
<rscale>  2 0.44706368E+03</rscale>
<asrwt>0</asrwt>
<pdfrwt beam="1">  1       21 0.34735966E-01 0.44706368E+03</pdfrwt>
<pdfrwt beam="2">  1       21 0.14646814E+00 0.44706368E+03</pdfrwt>
<totfact> 0.21838749E+03</totfact>
</mgrwt>
</event>
<event>
 4    1  0.1187342E-002  0.4518846E+03  0.7818608E-02  0.1027162E+00
         21   -1    0    0  503  502  0.00000000000E+00  0.00000000000E+00  0.90194664145E+03  0.90194664145E+03  0.00000000000E+00 0.  1.
         21   -1    0    0  501  503 -0.00000000000E+00 -0.00000000000E+00 -0.22731966428E+03  0.22731966428E+03  0.00000000000E+00 0.  1.
    9000007    1    1    2  501    0  0.12551478144E+03  0.16865875499E+03  0.30137830409E+03  0.54316536908E+03  0.40000000000E+03 0.  1.
   -9000007    1    1    2    0  502 -0.12551478144E+03 -0.16865875499E+03  0.37324867308E+03  0.58610093666E+03  0.40000000000E+03 0.  1.
<mgrwt>
<rscale>  2 0.45188465E+03</rscale>
<asrwt>0</asrwt>
<pdfrwt beam="1">  1       21 0.13876102E+00 0.45188465E+03</pdfrwt>
<pdfrwt beam="2">  1       21 0.34972257E-01 0.45188465E+03</pdfrwt>
<totfact> 0.24847443E+03</totfact>
</mgrwt>
</event>
<event>
 4    1  0.1187342E-002  0.4581406E+03  0.7818608E-02  0.1025322E+00
         21   -1    0    0  501  502  0.00000000000E+00  0.00000000000E+00  0.11929128813E+03  0.11929128813E+03  0.00000000000E+00 0.  1.
         21   -1    0    0  502  503 -0.00000000000E+00 -0.00000000000E+00 -0.26532989387E+04  0.26532989387E+04  0.00000000000E+00 0.  1.
    9000007    1    1    2  501    0 -0.10475425045E+03  0.19727993832E+03 -0.46239847891E+03  0.65092640164E+03  0.40000000000E+03 0.  1.
   -9000007    1    1    2    0  503  0.10475425045E+03 -0.19727993832E+03 -0.20716091717E+04  0.21216638252E+04  0.40000000000E+03 0.  1.
<mgrwt>
<rscale>  2 0.45814062E+03</rscale>
<asrwt>0</asrwt>
<pdfrwt beam="1">  1       21 0.18352506E-01 0.45814062E+03</pdfrwt>
<pdfrwt beam="2">  1       21 0.40819983E+00 0.45814062E+03</pdfrwt>
<totfact> 0.15823336E+02</totfact>
</mgrwt>
</event>
<event>
 4    1  0.1187342E-002  0.4147312E+03  0.7818608E-02  0.1038795E+00
         21   -1    0    0  503  502  0.00000000000E+00  0.00000000000E+00  0.17603963517E+03  0.17603963517E+03  0.00000000000E+00 0. -1.
         21   -1    0    0  501  503 -0.00000000000E+00 -0.00000000000E+00 -0.12851854225E+04  0.12851854225E+04  0.00000000000E+00 0. -1.
    9000007    1    1    2  501    0 -0.10430796036E+03  0.33493344296E+02 -0.91231108651E+03  0.10021544159E+04  0.40000000000E+03 0. -1.
   -9000007    1    1    2    0  502  0.10430796036E+03 -0.33493344296E+02 -0.19683470084E+03  0.45907064180E+03  0.40000000000E+03 0. -1.
<mgrwt>
<rscale>  2 0.41473118E+03</rscale>
<asrwt>0</asrwt>
<pdfrwt beam="1">  1       21 0.27083021E-01 0.41473118E+03</pdfrwt>
<pdfrwt beam="2">  1       21 0.19772084E+00 0.41473118E+03</pdfrwt>
<totfact> 0.15433457E+03</totfact>
</mgrwt>
</event>
<event>
 4    1  0.1187342E-002  0.4278386E+03  0.7818608E-02  0.1034545E+00
         21   -1    0    0  503  502  0.00000000000E+00  0.00000000000E+00  0.50622473130E+03  0.50622473130E+03  0.00000000000E+00 0. -1.
         21   -1    0    0  501  503 -0.00000000000E+00 -0.00000000000E+00 -0.37207502453E+03  0.37207502453E+03  0.00000000000E+00 0. -1.
    9000007    1    1    2  501    0  0.10425752493E+03 -0.11034597722E+03  0.14079387255E+03  0.45040956999E+03  0.40000000000E+03 0. -1.
   -9000007    1    1    2    0  502 -0.10425752493E+03  0.11034597722E+03 -0.66441657839E+01  0.42789018583E+03  0.40000000000E+03 0. -1.
<mgrwt>
<rscale>  2 0.42783860E+03</rscale>
<asrwt>0</asrwt>
<pdfrwt beam="1">  1       21 0.77880728E-01 0.42783860E+03</pdfrwt>
<pdfrwt beam="2">  1       21 0.57242311E-01 0.42783860E+03</pdfrwt>
<totfact> 0.36895859E+03</totfact>
</mgrwt>
</event>
<event>
 4    1  0.1187342E-002  0.5664142E+03  0.7818608E-02  0.9977645E-01
         21   -1    0    0  503  502  0.00000000000E+00  0.00000000000E+00  0.82134037629E+03  0.82134037629E+03  0.00000000000E+00 0. -1.
         21   -1    0    0  501  503 -0.00000000000E+00 -0.00000000000E+00 -0.39261154250E+03  0.39261154250E+03  0.00000000000E+00 0. -1.
    9000007    1    1    2  501    0  0.20524325814E+03  0.34452906454E+03  0.17104329796E+03  0.59167633137E+03  0.40000000000E+03 0. -1.
   -9000007    1    1    2    0  502 -0.20524325814E+03 -0.34452906454E+03  0.25768553584E+03  0.62227558742E+03  0.40000000000E+03 0. -1.
<mgrwt>
<rscale>  2 0.56641422E+03</rscale>
<asrwt>0</asrwt>
<pdfrwt beam="1">  1       21 0.12636006E+00 0.56641422E+03</pdfrwt>
<pdfrwt beam="2">  1       21 0.60401776E-01 0.56641422E+03</pdfrwt>
<totfact> 0.96330777E+02</totfact>
</mgrwt>
</event>
<event>
 4    1  0.1187342E-002  0.7493152E+03  0.7818608E-02  0.9636425E-01
         21   -1    0    0  503  502  0.00000000000E+00  0.00000000000E+00  0.10906713462E+04  0.10906713462E+04  0.00000000000E+00 0. -1.
         21   -1    0    0  501  503 -0.00000000000E+00 -0.00000000000E+00 -0.58600986653E+03  0.58600986653E+03  0.00000000000E+00 0. -1.
    9000007    1    1    2  501    0  0.47741996959E+03  0.41658548139E+03 -0.39916351537E+02  0.75037764212E+03  0.40000000000E+03 0. -1.
   -9000007    1    1    2    0  502 -0.47741996959E+03 -0.41658548139E+03  0.54457783119E+03  0.92630357059E+03  0.40000000000E+03 0. -1.
<mgrwt>
<rscale>  2 0.74931521E+03</rscale>
<asrwt>0</asrwt>
<pdfrwt beam="1">  1       21 0.16779559E+00 0.74931521E+03</pdfrwt>
<pdfrwt beam="2">  1       21 0.90155364E-01 0.74931521E+03</pdfrwt>
<totfact> 0.16721133E+02</totfact>
</mgrwt>
</event>
<event>
 4    1  0.1187342E-002  0.4503447E+03  0.7818608E-02  0.1027619E+00
         21   -1    0    0  501  502  0.00000000000E+00  0.00000000000E+00  0.25058663256E+03  0.25058663256E+03  0.00000000000E+00 0.  1.
         21   -1    0    0  502  503 -0.00000000000E+00 -0.00000000000E+00 -0.81024986348E+03  0.81024986348E+03  0.00000000000E+00 0.  1.
    9000007    1    1    2  501    0 -0.10552827009E+02 -0.20663730167E+03 -0.29758459696E+03  0.53978415033E+03  0.40000000000E+03 0.  1.
   -9000007    1    1    2    0  503  0.10552827009E+02  0.20663730167E+03 -0.26207863396E+03  0.52105234572E+03  0.40000000000E+03 0.  1.
<mgrwt>
<rscale>  2 0.45034469E+03</rscale>
<asrwt>0</asrwt>
<pdfrwt beam="1">  1       21 0.38551790E-01 0.45034469E+03</pdfrwt>
<pdfrwt beam="2">  1       21 0.12465383E+00 0.45034469E+03</pdfrwt>
<totfact> 0.26955391E+03</totfact>
</mgrwt>
</event>
<event>
 4    1  0.1187342E-002  0.6312346E+03  0.7818608E-02  0.9842642E-01
         21   -1    0    0  503  502  0.00000000000E+00  0.00000000000E+00  0.88911233787E+03  0.88911233787E+03  0.00000000000E+00 0. -1.
         21   -1    0    0  501  503 -0.00000000000E+00 -0.00000000000E+00 -0.46362043059E+03  0.46362043059E+03  0.00000000000E+00 0.  1.
    9000007    1    1    2  501    0  0.48649254017E+03 -0.42215482349E+02  0.33629207891E+03  0.71522688773E+03  0.40000000000E+03 0. -1.
   -9000007    1    1    2    0  502 -0.48649254017E+03  0.42215482349E+02  0.89199828373E+02  0.63750588074E+03  0.40000000000E+03 0.  1.
<mgrwt>
<rscale>  2 0.63123461E+03</rscale>
<asrwt>0</asrwt>
<pdfrwt beam="1">  1       21 0.13678651E+00 0.63123461E+03</pdfrwt>
<pdfrwt beam="2">  1       21 0.71326220E-01 0.63123461E+03</pdfrwt>
<totfact> 0.52796046E+02</totfact>
</mgrwt>
</event>
<event>
 4    1  0.1187342E-002  0.5083148E+03  0.7818608E-02  0.1011631E+00
         21   -1    0    0  501  502  0.00000000000E+00  0.00000000000E+00  0.68849071467E+03  0.68849071467E+03  0.00000000000E+00 0.  1.
         21   -1    0    0  502  503 -0.00000000000E+00 -0.00000000000E+00 -0.39531592592E+03  0.39531592592E+03  0.00000000000E+00 0.  1.
    9000007    1    1    2  501    0 -0.26206492409E+01  0.31365122536E+03  0.26855417775E+03  0.57489590828E+03  0.40000000000E+03 0.  1.
   -9000007    1    1    2    0  503  0.26206492409E+01 -0.31365122536E+03  0.24620610998E+02  0.50891073230E+03  0.40000000000E+03 0.  1.
<mgrwt>
<rscale>  2 0.50831482E+03</rscale>
<asrwt>0</asrwt>
<pdfrwt beam="1">  1       21 0.10592165E+00 0.50831482E+03</pdfrwt>
<pdfrwt beam="2">  1       21 0.60817835E-01 0.50831482E+03</pdfrwt>
<totfact> 0.15112448E+03</totfact>
</mgrwt>
</event>
<event>
 4    1  0.1187342E-002  0.4150968E+03  0.7818608E-02  0.1038674E+00
         21   -1    0    0  503  502  0.00000000000E+00  0.00000000000E+00  0.21324561220E+04  0.21324561220E+04  0.00000000000E+00 0.  1.
         21   -1    0    0  501  503 -0.00000000000E+00 -0.00000000000E+00 -0.84939699963E+02  0.84939699963E+02  0.00000000000E+00 0.  1.
    9000007    1    1    2  501    0 -0.23822647305E+02 -0.10834115013E+03  0.77903693723E+03  0.88272525335E+03  0.40000000000E+03 0.  1.
   -9000007    1    1    2    0  502  0.23822647305E+02  0.10834115013E+03  0.12684794848E+04  0.13346705686E+04  0.40000000000E+03 0.  1.
<mgrwt>
<rscale>  2 0.41509676E+03</rscale>
<asrwt>0</asrwt>
<pdfrwt beam="1">  1       21 0.32807013E+00 0.41509676E+03</pdfrwt>
<pdfrwt beam="2">  1       21 0.13067648E-01 0.41509676E+03</pdfrwt>
<totfact> 0.96535419E+02</totfact>
</mgrwt>
</event>
<event>
 4    1  0.1187342E-002  0.4815566E+03  0.7818608E-02  0.1018708E+00
         21   -1    0    0  501  502  0.00000000000E+00  0.00000000000E+00  0.10199456836E+04  0.10199456836E+04  0.00000000000E+00 0.  1.
         21   -1    0    0  502  503 -0.00000000000E+00 -0.00000000000E+00 -0.22806996774E+03  0.22806996774E+03  0.00000000000E+00 0.  1.
    9000007    1    1    2  501    0  0.20139022795E+03 -0.17702750478E+03  0.36116810861E+03  0.60194614713E+03  0.40000000000E+03 0. -1.
   -9000007    1    1    2    0  503 -0.20139022795E+03  0.17702750478E+03  0.43070760729E+03  0.64606950426E+03  0.40000000000E+03 0. -1.
<mgrwt>
<rscale>  2 0.48155660E+03</rscale>
<asrwt>0</asrwt>
<pdfrwt beam="1">  1       21 0.15691472E+00 0.48155660E+03</pdfrwt>
<pdfrwt beam="2">  1       21 0.35087688E-01 0.48155660E+03</pdfrwt>
<totfact> 0.17494512E+03</totfact>
</mgrwt>
</event>
<event>
 4    1  0.1187342E-002  0.7763163E+03  0.7818608E-02  0.9594945E-01
         21   -1    0    0  503  502  0.00000000000E+00  0.00000000000E+00  0.13487881717E+04  0.13487881717E+04  0.00000000000E+00 0.  1.
         21   -1    0    0  501  503 -0.00000000000E+00 -0.00000000000E+00 -0.47520310382E+03  0.47520310382E+03  0.00000000000E+00 0. -1.
    9000007    1    1    2  501    0 -0.84735409093E+02 -0.65991435626E+03  0.65967426338E+03  0.10187429415E+04  0.40000000000E+03 0.  1.
   -9000007    1    1    2    0  502  0.84735409093E+02  0.65991435626E+03  0.21391080454E+03  0.80524833402E+03  0.40000000000E+03 0. -1.
<mgrwt>
<rscale>  2 0.77631633E+03</rscale>
<asrwt>0</asrwt>
<pdfrwt beam="1">  1       21 0.20750587E+00 0.77631633E+03</pdfrwt>
<pdfrwt beam="2">  1       21 0.73108171E-01 0.77631633E+03</pdfrwt>
<totfact> 0.14240682E+02</totfact>
</mgrwt>
</event>
<event>
 4    1  0.1187342E-002  0.4914032E+03  0.7818608E-02  0.1016047E+00
         21   -1    0    0  501  502  0.00000000000E+00  0.00000000000E+00  0.25808734283E+04  0.25808734283E+04  0.00000000000E+00 0. -1.
         21   -1    0    0  502  503 -0.00000000000E+00 -0.00000000000E+00 -0.10079329294E+03  0.10079329294E+03  0.00000000000E+00 0. -1.
    9000007    1    1    2  501    0  0.23468836515E+03  0.16247618663E+03  0.15991301639E+04  0.16729298913E+04  0.40000000000E+03 0. -1.
   -9000007    1    1    2    0  503 -0.23468836515E+03 -0.16247618663E+03  0.88094997147E+03  0.10087368300E+04  0.40000000000E+03 0. -1.
<mgrwt>
<rscale>  2 0.49140324E+03</rscale>
<asrwt>0</asrwt>
<pdfrwt beam="1">  1       21 0.39705740E+00 0.49140324E+03</pdfrwt>
<pdfrwt beam="2">  1       21 0.15506662E-01 0.49140324E+03</pdfrwt>
<totfact> 0.25059772E+02</totfact>
</mgrwt>
</event>
<event>
 4    1  0.1187342E-002  0.5065333E+03  0.7818608E-02  0.1012088E+00
         21   -1    0    0  501  502  0.00000000000E+00  0.00000000000E+00  0.57376334557E+03  0.57376334557E+03  0.00000000000E+00 0. -1.
         21   -1    0    0  502  503 -0.00000000000E+00 -0.00000000000E+00 -0.67740657292E+03  0.67740657292E+03  0.00000000000E+00 0.  1.
    9000007    1    1    2  501    0 -0.75558217849E+01 -0.31067483402E+03  0.31288075162E+03  0.59537409052E+03  0.40000000000E+03 0. -1.
   -9000007    1    1    2    0  503  0.75558217849E+01  0.31067483402E+03 -0.41652397897E+03  0.65579582797E+03  0.40000000000E+03 0.  1.
<mgrwt>
<rscale>  2 0.50653326E+03</rscale>
<asrwt>0</asrwt>
<pdfrwt beam="1">  1       21 0.88271284E-01 0.50653326E+03</pdfrwt>
<pdfrwt beam="2">  1       21 0.10421640E+00 0.50653326E+03</pdfrwt>
<totfact> 0.67325307E+02</totfact>
</mgrwt>
</event>
<event>
 4    1  0.1187342E-002  0.4126667E+03  0.7818608E-02  0.1039480E+00
         21   -1    0    0  501  502  0.00000000000E+00  0.00000000000E+00  0.15224135251E+04  0.15224135251E+04  0.00000000000E+00 0. -1.
         21   -1    0    0  502  503 -0.00000000000E+00 -0.00000000000E+00 -0.11186017884E+03  0.11186017884E+03  0.00000000000E+00 0. -1.
    9000007    1    1    2  501    0 -0.43802555274E+02  0.91515745170E+02  0.70906161200E+03  0.82040365984E+03  0.40000000000E+03 0.  1.
   -9000007    1    1    2    0  503  0.43802555274E+02 -0.91515745170E+02  0.70149173426E+03  0.81387004411E+03  0.40000000000E+03 0.  1.
<mgrwt>
<rscale>  2 0.41266669E+03</rscale>
<asrwt>0</asrwt>
<pdfrwt beam="1">  1       21 0.23421745E+00 0.41266669E+03</pdfrwt>
<pdfrwt beam="2">  1       21 0.17209259E-01 0.41266669E+03</pdfrwt>
<totfact> 0.21439882E+03</totfact>
</mgrwt>
</event>
<event>
 4    1  0.1187342E-002  0.7108864E+03  0.7818608E-02  0.9698794E-01
         21   -1    0    0  503  502  0.00000000000E+00  0.00000000000E+00  0.36452978298E+03  0.36452978298E+03  0.00000000000E+00 0.  1.
         21   -1    0    0  501  503 -0.00000000000E+00 -0.00000000000E+00 -0.14016383074E+04  0.14016383074E+04  0.00000000000E+00 0. -1.
    9000007    1    1    2  501    0  0.45872313448E+03 -0.36733165648E+03 -0.42627307572E+03  0.82889576850E+03  0.40000000000E+03 0. -1.
   -9000007    1    1    2    0  502 -0.45872313448E+03  0.36733165648E+03 -0.61083544868E+03  0.93727232185E+03  0.40000000000E+03 0.  1.
<mgrwt>
<rscale>  2 0.71088639E+03</rscale>
<asrwt>0</asrwt>
<pdfrwt beam="1">  1       21 0.56081505E-01 0.71088639E+03</pdfrwt>
<pdfrwt beam="2">  1       21 0.21563666E+00 0.71088639E+03</pdfrwt>
<totfact> 0.23258485E+02</totfact>
</mgrwt>
</event>
<event>
 4    1  0.1187342E-002  0.4786816E+03  0.7818608E-02  0.1019498E+00
         21   -1    0    0  501  502  0.00000000000E+00  0.00000000000E+00  0.92439289416E+03  0.92439289416E+03  0.00000000000E+00 0. -1.
         21   -1    0    0  502  503 -0.00000000000E+00 -0.00000000000E+00 -0.29641496638E+03  0.29641496638E+03  0.00000000000E+00 0. -1.
    9000007    1    1    2  501    0 -0.19900718478E+03 -0.17184938778E+03  0.56099435254E+03  0.73746236193E+03  0.40000000000E+03 0. -1.
   -9000007    1    1    2    0  503  0.19900718478E+03  0.17184938778E+03  0.66983575233E+02  0.48334549861E+03  0.40000000000E+03 0. -1.
<mgrwt>
<rscale>  2 0.47868160E+03</rscale>
<asrwt>0</asrwt>
<pdfrwt beam="1">  1       21 0.14221429E+00 0.47868160E+03</pdfrwt>
<pdfrwt beam="2">  1       21 0.45602303E-01 0.47868160E+03</pdfrwt>
<totfact> 0.13326182E+03</totfact>
</mgrwt>
</event>
<event>
 4    1  0.1187342E-002  0.5530447E+03  0.7818608E-02  0.1000792E+00
         21   -1    0    0  501  502  0.00000000000E+00  0.00000000000E+00  0.22584788355E+03  0.22584788355E+03  0.00000000000E+00 0. -1.
         21   -1    0    0  502  503 -0.00000000000E+00 -0.00000000000E+00 -0.14080876877E+04  0.14080876877E+04  0.00000000000E+00 0. -1.
    9000007    1    1    2  501    0  0.25631795961E+03 -0.28312469309E+03 -0.75084088631E+03  0.93253446306E+03  0.40000000000E+03 0. -1.
   -9000007    1    1    2    0  503 -0.25631795961E+03  0.28312469309E+03 -0.43139891787E+03  0.70140110821E+03  0.40000000000E+03 0. -1.
<mgrwt>
<rscale>  2 0.55304474E+03</rscale>
<asrwt>0</asrwt>
<pdfrwt beam="1">  1       21 0.34745829E-01 0.55304474E+03</pdfrwt>
<pdfrwt beam="2">  1       21 0.21662887E+00 0.55304474E+03</pdfrwt>
<totfact> 0.66415625E+02</totfact>
</mgrwt>
</event>
<event>
 4    1  0.1187342E-002  0.4312169E+03  0.7818608E-02  0.1033476E+00
         21   -1    0    0  501  502  0.00000000000E+00  0.00000000000E+00  0.21434957736E+03  0.21434957736E+03  0.00000000000E+00 0.  1.
         21   -1    0    0  502  503 -0.00000000000E+00 -0.00000000000E+00 -0.97675909228E+03  0.97675909228E+03  0.00000000000E+00 0.  1.
    9000007    1    1    2  501    0 -0.86720291326E+02 -0.13574816637E+03 -0.18201862774E+03  0.46805849468E+03  0.40000000000E+03 0. -1.
   -9000007    1    1    2    0  503  0.86720291326E+02  0.13574816637E+03 -0.58039088717E+03  0.72305017496E+03  0.40000000000E+03 0. -1.
<mgrwt>
<rscale>  2 0.43121685E+03</rscale>
<asrwt>0</asrwt>
<pdfrwt beam="1">  1       21 0.32976858E-01 0.43121685E+03</pdfrwt>
<pdfrwt beam="2">  1       21 0.15027063E+00 0.43121685E+03</pdfrwt>
<totfact> 0.22769006E+03</totfact>
</mgrwt>
</event>
<event>
 4    1  0.1187342E-002  0.6342494E+03  0.7818608E-02  0.9836791E-01
         21   -1    0    0  501  502  0.00000000000E+00  0.00000000000E+00  0.17552906420E+04  0.17552906420E+04  0.00000000000E+00 0.  1.
         21   -1    0    0  502  503 -0.00000000000E+00 -0.00000000000E+00 -0.23067166391E+03  0.23067166391E+03  0.00000000000E+00 0. -1.
    9000007    1    1    2  501    0  0.40363216106E+03  0.28169731183E+03  0.84223975011E+03  0.10543434420E+04  0.40000000000E+03 0.  1.
   -9000007    1    1    2    0  503 -0.40363216106E+03 -0.28169731183E+03  0.68237922801E+03  0.93161886399E+03  0.40000000000E+03 0. -1.
<mgrwt>
<rscale>  2 0.63424940E+03</rscale>
<asrwt>0</asrwt>
<pdfrwt beam="1">  1       21 0.27004471E+00 0.63424940E+03</pdfrwt>
<pdfrwt beam="2">  1       21 0.35487949E-01 0.63424940E+03</pdfrwt>
<totfact> 0.28463478E+02</totfact>
</mgrwt>
</event>
<event>
 4    1  0.1187342E-002  0.4317218E+03  0.7818608E-02  0.1033317E+00
         21   -1    0    0  501  502  0.00000000000E+00  0.00000000000E+00  0.90276226587E+03  0.90276226587E+03  0.00000000000E+00 0.  1.
         21   -1    0    0  502  503 -0.00000000000E+00 -0.00000000000E+00 -0.26432166714E+03  0.26432166714E+03  0.00000000000E+00 0.  1.
    9000007    1    1    2  501    0 -0.15611618118E+03 -0.44848816581E+02  0.59224614245E+03  0.73289779071E+03  0.40000000000E+03 0.  1.
   -9000007    1    1    2    0  503  0.15611618118E+03  0.44848816581E+02  0.46194456273E+02  0.43418614230E+03  0.40000000000E+03 0.  1.
<mgrwt>
<rscale>  2 0.43172176E+03</rscale>
<asrwt>0</asrwt>
<pdfrwt beam="1">  1       21 0.13888650E+00 0.43172176E+03</pdfrwt>
<pdfrwt beam="2">  1       21 0.40664872E-01 0.43172176E+03</pdfrwt>
<totfact> 0.18361570E+03</totfact>
</mgrwt>
</event>
<event>
 4    1  0.1187342E-002  0.4085963E+03  0.7818608E-02  0.1040843E+00
         21   -1    0    0  501  502  0.00000000000E+00  0.00000000000E+00  0.57058282307E+03  0.57058282307E+03  0.00000000000E+00 0. -1.
         21   -1    0    0  502  503 -0.00000000000E+00 -0.00000000000E+00 -0.33091643705E+03  0.33091643705E+03  0.00000000000E+00 0.  1.
    9000007    1    1    2  501    0  0.82389260805E+02  0.12765930721E+02  0.27321872912E+03  0.49152765256E+03  0.40000000000E+03 0. -1.
   -9000007    1    1    2    0  503 -0.82389260805E+02 -0.12765930721E+02 -0.33552343110E+02  0.40997160757E+03  0.40000000000E+03 0.  1.
<mgrwt>
<rscale>  2 0.40859633E+03</rscale>
<asrwt>0</asrwt>
<pdfrwt beam="1">  1       21 0.87781973E-01 0.40859633E+03</pdfrwt>
<pdfrwt beam="2">  1       21 0.50910221E-01 0.40859633E+03</pdfrwt>
<totfact> 0.36206379E+03</totfact>
</mgrwt>
</event>
<event>
 4    1  0.1187342E-002  0.4560083E+03  0.7818608E-02  0.1025945E+00
         21   -1    0    0  503  502  0.00000000000E+00  0.00000000000E+00  0.42285391717E+03  0.42285391717E+03  0.00000000000E+00 0.  1.
         21   -1    0    0  501  503 -0.00000000000E+00 -0.00000000000E+00 -0.49179141339E+03  0.49179141339E+03  0.00000000000E+00 0.  1.
    9000007    1    1    2  501    0  0.20551653119E+03  0.75541616990E+02 -0.30945166862E+02  0.45705709035E+03  0.40000000000E+03 0.  1.
   -9000007    1    1    2    0  502 -0.20551653119E+03 -0.75541616990E+02 -0.37992329358E+02  0.45758824021E+03  0.40000000000E+03 0.  1.
<mgrwt>
<rscale>  2 0.45600831E+03</rscale>
<asrwt>0</asrwt>
<pdfrwt beam="1">  1       21 0.65054449E-01 0.45600831E+03</pdfrwt>
<pdfrwt beam="2">  1       21 0.75660217E-01 0.45600831E+03</pdfrwt>
<totfact> 0.29465720E+03</totfact>
</mgrwt>
</event>
<event>
 4    1  0.1187342E-002  0.4986023E+03  0.7818608E-02  0.1014144E+00
         21   -1    0    0  503  502  0.00000000000E+00  0.00000000000E+00  0.37160945347E+03  0.37160945347E+03  0.00000000000E+00 0.  1.
         21   -1    0    0  501  503 -0.00000000000E+00 -0.00000000000E+00 -0.68727946873E+03  0.68727946873E+03  0.00000000000E+00 0.  1.
    9000007    1    1    2  501    0 -0.11148426889E+03  0.27599919749E+03 -0.24419508443E+03  0.55518964191E+03  0.40000000000E+03 0.  1.
   -9000007    1    1    2    0  502  0.11148426889E+03 -0.27599919749E+03 -0.71474930821E+02  0.50369928029E+03  0.40000000000E+03 0.  1.
<mgrwt>
<rscale>  2 0.49860235E+03</rscale>
<asrwt>0</asrwt>
<pdfrwt beam="1">  1       21 0.57170685E-01 0.49860235E+03</pdfrwt>
<pdfrwt beam="2">  1       21 0.10573530E+00 0.49860235E+03</pdfrwt>
<totfact> 0.17438440E+03</totfact>
</mgrwt>
</event>
<event>
 4    1  0.1187342E-002  0.4483634E+03  0.7818608E-02  0.1028211E+00
         21   -1    0    0  503  502  0.00000000000E+00  0.00000000000E+00  0.22944514593E+04  0.22944514593E+04  0.00000000000E+00 0.  1.
         21   -1    0    0  501  503 -0.00000000000E+00 -0.00000000000E+00 -0.87652308819E+02  0.87652308819E+02  0.00000000000E+00 0. -1.
    9000007    1    1    2  501    0 -0.91169971809E+02 -0.18088060528E+03  0.10790274535E+04  0.11684733640E+04  0.40000000000E+03 0. -1.
   -9000007    1    1    2    0  502  0.91169971809E+02  0.18088060528E+03  0.11277716970E+04  0.12136304041E+04  0.40000000000E+03 0.  1.
<mgrwt>
<rscale>  2 0.44836342E+03</rscale>
<asrwt>0</asrwt>
<pdfrwt beam="1">  1       21 0.35299249E+00 0.44836342E+03</pdfrwt>
<pdfrwt beam="2">  1       21 0.13484972E-01 0.44836342E+03</pdfrwt>
<totfact> 0.62984012E+02</totfact>
</mgrwt>
</event>
<event>
 4    1  0.1187342E-002  0.5211337E+03  0.7818608E-02  0.1008405E+00
         21   -1    0    0  501  502  0.00000000000E+00  0.00000000000E+00  0.91484599229E+03  0.91484599229E+03  0.00000000000E+00 0.  1.
         21   -1    0    0  502  503 -0.00000000000E+00 -0.00000000000E+00 -0.31577950279E+03  0.31577950279E+03  0.00000000000E+00 0. -1.
    9000007    1    1    2  501    0  0.17662642167E+03  0.28351973940E+03  0.45014865699E+03  0.68863208526E+03  0.40000000000E+03 0.  1.
   -9000007    1    1    2    0  503 -0.17662642167E+03 -0.28351973940E+03  0.14891783251E+03  0.54199340983E+03  0.40000000000E+03 0. -1.
<mgrwt>
<rscale>  2 0.52113370E+03</rscale>
<asrwt>0</asrwt>
<pdfrwt beam="1">  1       21 0.14074554E+00 0.52113370E+03</pdfrwt>
<pdfrwt beam="2">  1       21 0.48581462E-01 0.52113370E+03</pdfrwt>
<totfact> 0.11800478E+03</totfact>
</mgrwt>
</event>
<event>
 4    1  0.1187342E-002  0.6059226E+03  0.7818608E-02  0.9893194E-01
         21   -1    0    0  501  502  0.00000000000E+00  0.00000000000E+00  0.82855856025E+03  0.82855856025E+03  0.00000000000E+00 0. -1.
         21   -1    0    0  502  503 -0.00000000000E+00 -0.00000000000E+00 -0.47132943612E+03  0.47132943612E+03  0.00000000000E+00 0.  1.
    9000007    1    1    2  501    0  0.43235461913E+03 -0.14216763690E+03  0.33764923302E+03  0.69364916076E+03  0.40000000000E+03 0. -1.
   -9000007    1    1    2    0  503 -0.43235461913E+03  0.14216763690E+03  0.19579891113E+02  0.60623883561E+03  0.40000000000E+03 0.  1.
<mgrwt>
<rscale>  2 0.60592256E+03</rscale>
<asrwt>0</asrwt>
<pdfrwt beam="1">  1       21 0.12747055E+00 0.60592256E+03</pdfrwt>
<pdfrwt beam="2">  1       21 0.72512221E-01 0.60592256E+03</pdfrwt>
<totfact> 0.61698755E+02</totfact>
</mgrwt>
</event>
<event>
 4    1  0.1187342E-002  0.4223187E+03  0.7818608E-02  0.1036314E+00
         21   -1    0    0  503  502  0.00000000000E+00  0.00000000000E+00  0.48154385146E+03  0.48154385146E+03  0.00000000000E+00 0.  1.
         21   -1    0    0  501  503 -0.00000000000E+00 -0.00000000000E+00 -0.37131923662E+03  0.37131923662E+03  0.00000000000E+00 0.  1.
    9000007    1    1    2  501    0 -0.64175593067E+02 -0.11930863898E+03  0.76586471694E+02  0.42920687987E+03  0.40000000000E+03 0.  1.
   -9000007    1    1    2    0  502  0.64175593067E+02  0.11930863898E+03  0.33638143142E+02  0.42365620821E+03  0.40000000000E+03 0.  1.
<mgrwt>
<rscale>  2 0.42231867E+03</rscale>
<asrwt>0</asrwt>
<pdfrwt beam="1">  1       21 0.74083669E-01 0.42231867E+03</pdfrwt>
<pdfrwt beam="2">  1       21 0.57126037E-01 0.42231867E+03</pdfrwt>
<totfact> 0.41622567E+03</totfact>
</mgrwt>
</event>
<event>
 4    1  0.1187342E-002  0.4145927E+03  0.7818608E-02  0.1038841E+00
         21   -1    0    0  501  502  0.00000000000E+00  0.00000000000E+00  0.20479153206E+04  0.20479153206E+04  0.00000000000E+00 0.  1.
         21   -1    0    0  502  503 -0.00000000000E+00 -0.00000000000E+00 -0.94205274618E+02  0.94205274618E+02  0.00000000000E+00 0. -1.
    9000007    1    1    2  501    0  0.85381370513E+02 -0.67801927064E+02  0.13305393235E+04  0.13936362406E+04  0.40000000000E+03 0.  1.
   -9000007    1    1    2    0  503 -0.85381370513E+02  0.67801927064E+02  0.62317072249E+03  0.74848435463E+03  0.40000000000E+03 0. -1.
<mgrwt>
<rscale>  2 0.41459267E+03</rscale>
<asrwt>0</asrwt>
<pdfrwt beam="1">  1       21 0.31506386E+00 0.41459267E+03</pdfrwt>
<pdfrwt beam="2">  1       21 0.14493121E-01 0.41459267E+03</pdfrwt>
<totfact> 0.95586250E+02</totfact>
</mgrwt>
</event>
<event>
 4    1  0.1187342E-002  0.4824805E+03  0.7818608E-02  0.1018456E+00
         21   -1    0    0  501  502  0.00000000000E+00  0.00000000000E+00  0.11023493901E+04  0.11023493901E+04  0.00000000000E+00 0. -1.
         21   -1    0    0  502  503 -0.00000000000E+00 -0.00000000000E+00 -0.23630861405E+03  0.23630861405E+03  0.00000000000E+00 0.  1.
    9000007    1    1    2  501    0 -0.22911413272E+03 -0.14245758300E+03  0.65131178223E+03  0.81055196406E+03  0.40000000000E+03 0. -1.
   -9000007    1    1    2    0  503  0.22911413272E+03  0.14245758300E+03  0.21472899378E+03  0.52810604005E+03  0.40000000000E+03 0. -1.
<mgrwt>
<rscale>  2 0.48248052E+03</rscale>
<asrwt>0</asrwt>
<pdfrwt beam="1">  1       21 0.16959221E+00 0.48248052E+03</pdfrwt>
<pdfrwt beam="2">  1       21 0.36355172E-01 0.48248052E+03</pdfrwt>
<totfact> 0.13077585E+03</totfact>
</mgrwt>
</event>
<event>
 4    1  0.1187342E-002  0.4720514E+03  0.7818608E-02  0.1021343E+00
         21   -1    0    0  501  502  0.00000000000E+00  0.00000000000E+00  0.22285634779E+03  0.22285634779E+03  0.00000000000E+00 0. -1.
         21   -1    0    0  502  503 -0.00000000000E+00 -0.00000000000E+00 -0.12171398719E+04  0.12171398719E+04  0.00000000000E+00 0. -1.
    9000007    1    1    2  501    0 -0.61868305609E+02 -0.24290907162E+03 -0.19295671055E+03  0.50996548556E+03  0.40000000000E+03 0. -1.
   -9000007    1    1    2    0  503  0.61868305609E+02  0.24290907162E+03 -0.80132681354E+03  0.93003073412E+03  0.40000000000E+03 0. -1.
<mgrwt>
<rscale>  2 0.47205138E+03</rscale>
<asrwt>0</asrwt>
<pdfrwt beam="1">  1       21 0.34285592E-01 0.47205138E+03</pdfrwt>
<pdfrwt beam="2">  1       21 0.18725229E+00 0.47205138E+03</pdfrwt>
<totfact> 0.11081861E+03</totfact>
</mgrwt>
</event>
<event>
 4    1  0.1187342E-002  0.4069585E+03  0.7818608E-02  0.1041396E+00
         21   -1    0    0  503  502  0.00000000000E+00  0.00000000000E+00  0.77259018994E+03  0.77259018994E+03  0.00000000000E+00 0.  1.
         21   -1    0    0  501  503 -0.00000000000E+00 -0.00000000000E+00 -0.22553210278E+03  0.22553210278E+03  0.00000000000E+00 0.  1.
    9000007    1    1    2  501    0 -0.54492917453E+02 -0.51436715922E+02  0.16247175406E+03  0.43819206367E+03  0.40000000000E+03 0.  1.
   -9000007    1    1    2    0  502  0.54492917453E+02  0.51436715922E+02  0.38458633310E+03  0.55993022905E+03  0.40000000000E+03 0.  1.
<mgrwt>
<rscale>  2 0.40695849E+03</rscale>
<asrwt>0</asrwt>
<pdfrwt beam="1">  1       21 0.11886003E+00 0.40695849E+03</pdfrwt>
<pdfrwt beam="2">  1       21 0.34697247E-01 0.40695849E+03</pdfrwt>
<totfact> 0.38330707E+03</totfact>
</mgrwt>
</event>
<event>
 4    1  0.1187342E-002  0.4139727E+03  0.7818608E-02  0.1039046E+00
         21   -1    0    0  503  502  0.00000000000E+00  0.00000000000E+00  0.18856554106E+03  0.18856554106E+03  0.00000000000E+00 0. -1.
         21   -1    0    0  501  503 -0.00000000000E+00 -0.00000000000E+00 -0.92886675753E+03  0.92886675753E+03  0.00000000000E+00 0. -1.
    9000007    1    1    2  501    0  0.85505895320E+02 -0.63734817998E+02 -0.28808432630E+03  0.50434706723E+03  0.40000000000E+03 0. -1.
   -9000007    1    1    2    0  502 -0.85505895320E+02  0.63734817998E+02 -0.45221689017E+03  0.61308523136E+03  0.40000000000E+03 0. -1.
<mgrwt>
<rscale>  2 0.41397269E+03</rscale>
<asrwt>0</asrwt>
<pdfrwt beam="1">  1       21 0.29010084E-01 0.41397269E+03</pdfrwt>
<pdfrwt beam="2">  1       21 0.14290258E+00 0.41397269E+03</pdfrwt>
<totfact> 0.33881222E+03</totfact>
</mgrwt>
</event>
<event>
 4    1  0.1187342E-002  0.4145355E+03  0.7818608E-02  0.1038860E+00
         21   -1    0    0  501  502  0.00000000000E+00  0.00000000000E+00  0.20778061193E+03  0.20778061193E+03  0.00000000000E+00 0. -1.
         21   -1    0    0  502  503 -0.00000000000E+00 -0.00000000000E+00 -0.11906872134E+04  0.11906872134E+04  0.00000000000E+00 0. -1.
    9000007    1    1    2  501    0  0.75367012647E+02  0.78482513492E+02 -0.10502144041E+03  0.42763207839E+03  0.40000000000E+03 0. -1.
   -9000007    1    1    2    0  503 -0.75367012647E+02 -0.78482513492E+02 -0.87788516105E+03  0.97083574692E+03  0.40000000000E+03 0. -1.
<mgrwt>
<rscale>  2 0.41453551E+03</rscale>
<asrwt>0</asrwt>
<pdfrwt beam="1">  1       21 0.31966249E-01 0.41453551E+03</pdfrwt>
<pdfrwt beam="2">  1       21 0.18318264E+00 0.41453551E+03</pdfrwt>
<totfact> 0.13966313E+03</totfact>
</mgrwt>
</event>
<event>
 4    1  0.1187342E-002  0.4852976E+03  0.7818608E-02  0.1017689E+00
         21   -1    0    0  503  502  0.00000000000E+00  0.00000000000E+00  0.23234980260E+03  0.23234980260E+03  0.00000000000E+00 0.  1.
         21   -1    0    0  501  503 -0.00000000000E+00 -0.00000000000E+00 -0.10485814734E+04  0.10485814734E+04  0.00000000000E+00 0.  1.
    9000007    1    1    2  501    0  0.27456632448E+03 -0.11271863629E+02 -0.29116376077E+03  0.56594174350E+03  0.40000000000E+03 0.  1.
   -9000007    1    1    2    0  502 -0.27456632448E+03  0.11271863629E+02 -0.52506791005E+03  0.71498953252E+03  0.40000000000E+03 0.  1.
<mgrwt>
<rscale>  2 0.48529756E+03</rscale>
<asrwt>0</asrwt>
<pdfrwt beam="1">  1       21 0.35746124E-01 0.48529756E+03</pdfrwt>
<pdfrwt beam="2">  1       21 0.16132023E+00 0.48529756E+03</pdfrwt>
<totfact> 0.15572415E+03</totfact>
</mgrwt>
</event>
<event>
 4    1  0.1187342E-002  0.4044896E+03  0.7818608E-02  0.1042236E+00
         21   -1    0    0  503  502  0.00000000000E+00  0.00000000000E+00  0.25732742643E+03  0.25732742643E+03  0.00000000000E+00 0.  1.
         21   -1    0    0  501  503 -0.00000000000E+00 -0.00000000000E+00 -0.11349887267E+04  0.11349887267E+04  0.00000000000E+00 0.  1.
    9000007    1    1    2  501    0  0.60818195652E+01 -0.59790343842E+02 -0.90050871695E+03  0.98718175785E+03  0.40000000000E+03 0.  1.
   -9000007    1    1    2    0  502 -0.60818195652E+01  0.59790343842E+02  0.22847416728E+02  0.40513439523E+03  0.40000000000E+03 0.  1.
<mgrwt>
<rscale>  2 0.40448965E+03</rscale>
<asrwt>0</asrwt>
<pdfrwt beam="1">  1       21 0.39588835E-01 0.40448965E+03</pdfrwt>
<pdfrwt beam="2">  1       21 0.17461365E+00 0.40448965E+03</pdfrwt>
<totfact> 0.10462208E+03</totfact>
</mgrwt>
</event>
<event>
 4    1  0.1187342E-002  0.5318597E+03  0.7818608E-02  0.1005782E+00
         21   -1    0    0  501  502  0.00000000000E+00  0.00000000000E+00  0.34295161779E+03  0.34295161779E+03  0.00000000000E+00 0. -1.
         21   -1    0    0  502  503 -0.00000000000E+00 -0.00000000000E+00 -0.82486705122E+03  0.82486705122E+03  0.00000000000E+00 0. -1.
    9000007    1    1    2  501    0  0.15320298062E+03  0.31528329742E+03 -0.24517814227E+03  0.58565094754E+03  0.40000000000E+03 0. -1.
   -9000007    1    1    2    0  503 -0.15320298062E+03 -0.31528329742E+03 -0.23673729116E+03  0.58216772148E+03  0.40000000000E+03 0. -1.
<mgrwt>
<rscale>  2 0.53185967E+03</rscale>
<asrwt>0</asrwt>
<pdfrwt beam="1">  1       21 0.52761788E-01 0.53185967E+03</pdfrwt>
<pdfrwt beam="2">  1       21 0.12690262E+00 0.53185967E+03</pdfrwt>
<totfact> 0.12938465E+03</totfact>
</mgrwt>
</event>
<event>
 4    1  0.1187342E-002  0.4077527E+03  0.7818608E-02  0.1041128E+00
         21   -1    0    0  501  502  0.00000000000E+00  0.00000000000E+00  0.15735209787E+04  0.15735209787E+04  0.00000000000E+00 0. -1.
         21   -1    0    0  502  503 -0.00000000000E+00 -0.00000000000E+00 -0.10574391764E+03  0.10574391764E+03  0.00000000000E+00 0. -1.
    9000007    1    1    2  501    0 -0.56117765549E+02  0.55795049889E+02  0.75717474855E+03  0.85998598305E+03  0.40000000000E+03 0. -1.
   -9000007    1    1    2    0  503  0.56117765549E+02 -0.55795049889E+02  0.71060231251E+03  0.81927891328E+03  0.40000000000E+03 0. -1.
<mgrwt>
<rscale>  2 0.40775273E+03</rscale>
<asrwt>0</asrwt>
<pdfrwt beam="1">  1       21 0.24208013E+00 0.40775273E+03</pdfrwt>
<pdfrwt beam="2">  1       21 0.16268296E-01 0.40775273E+03</pdfrwt>
<totfact> 0.21339851E+03</totfact>
</mgrwt>
</event>
<event>
 4    1  0.1187342E-002  0.4946254E+03  0.7818608E-02  0.1015191E+00
         21   -1    0    0  501  502  0.00000000000E+00  0.00000000000E+00  0.13909091929E+04  0.13909091929E+04  0.00000000000E+00 0. -1.
         21   -1    0    0  502  503 -0.00000000000E+00 -0.00000000000E+00 -0.18223180098E+03  0.18223180098E+03  0.00000000000E+00 0. -1.
    9000007    1    1    2  501    0  0.12929695750E+03  0.26064638918E+03  0.45766442854E+03  0.67387756497E+03  0.40000000000E+03 0. -1.
   -9000007    1    1    2    0  503 -0.12929695750E+03 -0.26064638918E+03  0.75101296333E+03  0.89926342887E+03  0.40000000000E+03 0. -1.
<mgrwt>
<rscale>  2 0.49462536E+03</rscale>
<asrwt>0</asrwt>
<pdfrwt beam="1">  1       21 0.21398602E+00 0.49462536E+03</pdfrwt>
<pdfrwt beam="2">  1       21 0.28035663E-01 0.49462536E+03</pdfrwt>
<totfact> 0.10870945E+03</totfact>
</mgrwt>
</event>
<event>
 4    1  0.1187342E-002  0.4292116E+03  0.7818608E-02  0.1034109E+00
         21   -1    0    0  501  502  0.00000000000E+00  0.00000000000E+00  0.49967062652E+03  0.49967062652E+03  0.00000000000E+00 0.  1.
         21   -1    0    0  502  503 -0.00000000000E+00 -0.00000000000E+00 -0.42785225898E+03  0.42785225898E+03  0.00000000000E+00 0.  1.
    9000007    1    1    2  501    0  0.15124542716E+03  0.36707450439E+02  0.20836468595E+03  0.47711472258E+03  0.40000000000E+03 0.  1.
   -9000007    1    1    2    0  503 -0.15124542716E+03 -0.36707450439E+02 -0.13654631840E+03  0.45040816292E+03  0.40000000000E+03 0.  1.
<mgrwt>
<rscale>  2 0.42921162E+03</rscale>
<asrwt>0</asrwt>
<pdfrwt beam="1">  1       21 0.76872404E-01 0.42921162E+03</pdfrwt>
<pdfrwt beam="2">  1       21 0.65823425E-01 0.42921162E+03</pdfrwt>
<totfact> 0.27950351E+03</totfact>
</mgrwt>
</event>
<event>
 4    1  0.1187342E-002  0.4598504E+03  0.7818608E-02  0.1024825E+00
         21   -1    0    0  503  502  0.00000000000E+00  0.00000000000E+00  0.84947047039E+03  0.84947047039E+03  0.00000000000E+00 0.  1.
         21   -1    0    0  501  503 -0.00000000000E+00 -0.00000000000E+00 -0.25181365622E+03  0.25181365622E+03  0.00000000000E+00 0. -1.
    9000007    1    1    2  501    0  0.78598981041E+02  0.21280169791E+03  0.35770940691E+03  0.58259624290E+03  0.40000000000E+03 0.  1.
   -9000007    1    1    2    0  502 -0.78598981041E+02 -0.21280169791E+03  0.23994740726E+03  0.51868788371E+03  0.40000000000E+03 0. -1.
<mgrwt>
<rscale>  2 0.45985037E+03</rscale>
<asrwt>0</asrwt>
<pdfrwt beam="1">  1       21 0.13068776E+00 0.45985037E+03</pdfrwt>
<pdfrwt beam="2">  1       21 0.38740563E-01 0.45985037E+03</pdfrwt>
<totfact> 0.23534282E+03</totfact>
</mgrwt>
</event>
<event>
 4    1  0.1187342E-002  0.5498163E+03  0.7818608E-02  0.1001536E+00
         21   -1    0    0  503  502  0.00000000000E+00  0.00000000000E+00  0.11432869340E+04  0.11432869340E+04  0.00000000000E+00 0. -1.
         21   -1    0    0  501  503 -0.00000000000E+00 -0.00000000000E+00 -0.44908805622E+03  0.44908805622E+03  0.00000000000E+00 0. -1.
    9000007    1    1    2  501    0  0.91367606431E+02  0.36599170230E+03 -0.16347108435E+03  0.57360331334E+03  0.40000000000E+03 0. -1.
   -9000007    1    1    2    0  502 -0.91367606431E+02 -0.36599170230E+03  0.85766996215E+03  0.10187716769E+04  0.40000000000E+03 0. -1.
<mgrwt>
<rscale>  2 0.54981630E+03</rscale>
<asrwt>0</asrwt>
<pdfrwt beam="1">  1       21 0.17589030E+00 0.54981630E+03</pdfrwt>
<pdfrwt beam="2">  1       21 0.69090470E-01 0.54981630E+03</pdfrwt>
<totfact> 0.29029261E+02</totfact>
</mgrwt>
</event>
<event>
 4    1  0.1187342E-002  0.5748923E+03  0.7818608E-02  0.9958911E-01
         21   -1    0    0  503  502  0.00000000000E+00  0.00000000000E+00  0.10566783395E+04  0.10566783395E+04  0.00000000000E+00 0. -1.
         21   -1    0    0  501  503 -0.00000000000E+00 -0.00000000000E+00 -0.31342655789E+03  0.31342655789E+03  0.00000000000E+00 0.  1.
    9000007    1    1    2  501    0  0.48041614265E+02 -0.41011353190E+03  0.34035840065E+03  0.66809052279E+03  0.40000000000E+03 0. -1.
   -9000007    1    1    2    0  502 -0.48041614265E+02  0.41011353190E+03  0.40289338097E+03  0.70201437462E+03  0.40000000000E+03 0. -1.
<mgrwt>
<rscale>  2 0.57489226E+03</rscale>
<asrwt>0</asrwt>
<pdfrwt beam="1">  1       21 0.16256590E+00 0.57489226E+03</pdfrwt>
<pdfrwt beam="2">  1       21 0.48219471E-01 0.57489226E+03</pdfrwt>
<totfact> 0.79201380E+02</totfact>
</mgrwt>
</event>
<event>
 4    1  0.1187342E-002  0.4513716E+03  0.7818608E-02  0.1027314E+00
         21   -1    0    0  503  502  0.00000000000E+00  0.00000000000E+00  0.12272203555E+04  0.12272203555E+04  0.00000000000E+00 0. -1.
         21   -1    0    0  501  503 -0.00000000000E+00 -0.00000000000E+00 -0.33898805164E+03  0.33898805164E+03  0.00000000000E+00 0. -1.
    9000007    1    1    2  501    0 -0.48778711876E+02  0.20336415552E+03 -0.11527712581E+03  0.46585959067E+03  0.40000000000E+03 0. -1.
   -9000007    1    1    2    0  502  0.48778711876E+02 -0.20336415552E+03  0.10035094297E+04  0.11003488165E+04  0.40000000000E+03 0. -1.
<mgrwt>
<rscale>  2 0.45137162E+03</rscale>
<asrwt>0</asrwt>
<pdfrwt beam="1">  1       21 0.18880313E+00 0.45137162E+03</pdfrwt>
<pdfrwt beam="2">  1       21 0.52152009E-01 0.45137162E+03</pdfrwt>
<totfact> 0.45651035E+02</totfact>
</mgrwt>
</event>
<event>
 4    1  0.1187342E-002  0.4454506E+03  0.7818608E-02  0.1029087E+00
         21   -1    0    0  501  502  0.00000000000E+00  0.00000000000E+00  0.55365927385E+03  0.55365927385E+03  0.00000000000E+00 0.  1.
         21   -1    0    0  502  503 -0.00000000000E+00 -0.00000000000E+00 -0.45836447085E+03  0.45836447085E+03  0.00000000000E+00 0.  1.
    9000007    1    1    2  501    0  0.19390019105E+03  0.28791520117E+02  0.28396641129E+03  0.52826428846E+03  0.40000000000E+03 0.  1.
   -9000007    1    1    2    0  503 -0.19390019105E+03 -0.28791520117E+02 -0.18867160830E+03  0.48375945623E+03  0.40000000000E+03 0.  1.
<mgrwt>
<rscale>  2 0.44545060E+03</rscale>
<asrwt>0</asrwt>
<pdfrwt beam="1">  1       21 0.85178350E-01 0.44545060E+03</pdfrwt>
<pdfrwt beam="2">  1       21 0.70517611E-01 0.44545060E+03</pdfrwt>
<totfact> 0.18775866E+03</totfact>
</mgrwt>
</event>
<event>
 4    1  0.1187342E-002  0.4686371E+03  0.7818608E-02  0.1022306E+00
         21   -1    0    0  503  502  0.00000000000E+00  0.00000000000E+00  0.43501110308E+03  0.43501110308E+03  0.00000000000E+00 0.  1.
         21   -1    0    0  501  503 -0.00000000000E+00 -0.00000000000E+00 -0.74862734120E+03  0.74862734120E+03  0.00000000000E+00 0.  1.
    9000007    1    1    2  501    0 -0.11152532697E+03 -0.21721615610E+03 -0.49451649451E+03  0.68129826095E+03  0.40000000000E+03 0.  1.
   -9000007    1    1    2    0  502  0.11152532697E+03  0.21721615610E+03  0.18090025638E+03  0.50234018333E+03  0.40000000000E+03 0.  1.
<mgrwt>
<rscale>  2 0.46863713E+03</rscale>
<asrwt>0</asrwt>
<pdfrwt beam="1">  1       21 0.66924786E-01 0.46863713E+03</pdfrwt>
<pdfrwt beam="2">  1       21 0.11517344E+00 0.46863713E+03</pdfrwt>
<totfact> 0.10069312E+03</totfact>
</mgrwt>
</event>
<event>
 4    1  0.1187342E-002  0.4143006E+03  0.7818608E-02  0.1038937E+00
         21   -1    0    0  503  502  0.00000000000E+00  0.00000000000E+00  0.56795506930E+03  0.56795506930E+03  0.00000000000E+00 0. -1.
         21   -1    0    0  501  503 -0.00000000000E+00 -0.00000000000E+00 -0.50011217967E+03  0.50011217967E+03  0.00000000000E+00 0. -1.
    9000007    1    1    2  501    0  0.86234587763E+02 -0.64873638384E+02 -0.30201244315E+03  0.51269533731E+03  0.40000000000E+03 0. -1.
   -9000007    1    1    2    0  502 -0.86234587763E+02  0.64873638384E+02  0.36985533277E+03  0.55537191166E+03  0.40000000000E+03 0. -1.
<mgrwt>
<rscale>  2 0.41430061E+03</rscale>
<asrwt>0</asrwt>
<pdfrwt beam="1">  1       21 0.87377703E-01 0.41430061E+03</pdfrwt>
<pdfrwt beam="2">  1       21 0.76940335E-01 0.41430061E+03</pdfrwt>
<totfact> 0.14692971E+03</totfact>
</mgrwt>
</event>
<event>
 4    1  0.1187342E-002  0.7040899E+03  0.7818608E-02  0.9710263E-01
         21   -1    0    0  501  502  0.00000000000E+00  0.00000000000E+00  0.30484930773E+03  0.30484930773E+03  0.00000000000E+00 0.  1.
         21   -1    0    0  502  503 -0.00000000000E+00 -0.00000000000E+00 -0.17277169087E+04  0.17277169087E+04  0.00000000000E+00 0. -1.
    9000007    1    1    2  501    0 -0.50966580292E+03 -0.27565069342E+03 -0.95779455447E+03  0.11887442719E+04  0.40000000000E+03 0. -1.
   -9000007    1    1    2    0  503  0.50966580292E+03  0.27565069342E+03 -0.46507304650E+03  0.84382194451E+03  0.40000000000E+03 0.  1.
<mgrwt>
<rscale>  2 0.70408986E+03</rscale>
<asrwt>0</asrwt>
<pdfrwt beam="1">  1       21 0.46899895E-01 0.70408986E+03</pdfrwt>
<pdfrwt beam="2">  1       21 0.26580259E+00 0.70408986E+03</pdfrwt>
<totfact> 0.16472074E+02</totfact>
</mgrwt>
</event>
<event>
 4    1  0.1187342E-002  0.5613065E+03  0.7818608E-02  0.9989103E-01
         21   -1    0    0  503  502  0.00000000000E+00  0.00000000000E+00  0.95327148443E+03  0.95327148443E+03  0.00000000000E+00 0. -1.
         21   -1    0    0  501  503 -0.00000000000E+00 -0.00000000000E+00 -0.36424646286E+03  0.36424646286E+03  0.00000000000E+00 0.  1.
    9000007    1    1    2  501    0 -0.92788147495E+02 -0.38269485864E+03  0.94026627186E+02  0.56912740381E+03  0.40000000000E+03 0.  1.
   -9000007    1    1    2    0  502  0.92788147495E+02  0.38269485864E+03  0.49499839438E+03  0.74839054348E+03  0.40000000000E+03 0. -1.
<mgrwt>
<rscale>  2 0.56130651E+03</rscale>
<asrwt>0</asrwt>
<pdfrwt beam="1">  1       21 0.14665715E+00 0.56130651E+03</pdfrwt>
<pdfrwt beam="2">  1       21 0.56037918E-01 0.56130651E+03</pdfrwt>
<totfact> 0.76605702E+02</totfact>
</mgrwt>
</event>
<event>
 4    1  0.1187342E-002  0.4104163E+03  0.7818608E-02  0.1040231E+00
         21   -1    0    0  501  502  0.00000000000E+00  0.00000000000E+00  0.83524949557E+03  0.83524949557E+03  0.00000000000E+00 0. -1.
         21   -1    0    0  502  503 -0.00000000000E+00 -0.00000000000E+00 -0.23214593377E+03  0.23214593377E+03  0.00000000000E+00 0. -1.
    9000007    1    1    2  501    0 -0.53389147640E+02  0.74773690185E+02  0.49493603992E+03  0.64296437649E+03  0.40000000000E+03 0. -1.
   -9000007    1    1    2    0  503  0.53389147640E+02 -0.74773690185E+02  0.10816752188E+03  0.42443105284E+03  0.40000000000E+03 0. -1.
<mgrwt>
<rscale>  2 0.41041626E+03</rscale>
<asrwt>0</asrwt>
<pdfrwt beam="1">  1       21 0.12849992E+00 0.41041626E+03</pdfrwt>
<pdfrwt beam="2">  1       21 0.35714759E-01 0.41041626E+03</pdfrwt>
<totfact> 0.29576864E+03</totfact>
</mgrwt>
</event>
<event>
 4    1  0.1187342E-002  0.4306013E+03  0.7818608E-02  0.1033670E+00
         21   -1    0    0  503  502  0.00000000000E+00  0.00000000000E+00  0.18146420839E+03  0.18146420839E+03  0.00000000000E+00 0.  1.
         21   -1    0    0  501  503 -0.00000000000E+00 -0.00000000000E+00 -0.10218758575E+04  0.10218758575E+04  0.00000000000E+00 0.  1.
    9000007    1    1    2  501    0  0.11108972407E+03 -0.11435288290E+03 -0.42586152037E+03  0.60561996595E+03  0.40000000000E+03 0.  1.
   -9000007    1    1    2    0  502 -0.11108972407E+03  0.11435288290E+03 -0.41455012872E+03  0.59772009992E+03  0.40000000000E+03 0.  1.
<mgrwt>
<rscale>  2 0.43060133E+03</rscale>
<asrwt>0</asrwt>
<pdfrwt beam="1">  1       21 0.27917571E-01 0.43060133E+03</pdfrwt>
<pdfrwt beam="2">  1       21 0.15721167E+00 0.43060133E+03</pdfrwt>
<totfact> 0.28028043E+03</totfact>
</mgrwt>
</event>
<event>
 4    1  0.1187342E-002  0.4735186E+03  0.7818608E-02  0.1020932E+00
         21   -1    0    0  503  502  0.00000000000E+00  0.00000000000E+00  0.57119905847E+03  0.57119905847E+03  0.00000000000E+00 0. -1.
         21   -1    0    0  501  503 -0.00000000000E+00 -0.00000000000E+00 -0.47216588864E+03  0.47216588864E+03  0.00000000000E+00 0. -1.
    9000007    1    1    2  501    0 -0.25252636106E+03 -0.21219438009E+02 -0.16471309888E+03  0.50134841430E+03  0.40000000000E+03 0. -1.
   -9000007    1    1    2    0  502  0.25252636106E+03  0.21219438009E+02  0.26374626871E+03  0.54201653281E+03  0.40000000000E+03 0. -1.
<mgrwt>
<rscale>  2 0.47351856E+03</rscale>
<asrwt>0</asrwt>
<pdfrwt beam="1">  1       21 0.87876778E-01 0.47351856E+03</pdfrwt>
<pdfrwt beam="2">  1       21 0.72640906E-01 0.47351856E+03</pdfrwt>
<totfact> 0.16145448E+03</totfact>
</mgrwt>
</event>
<event>
 4    1  0.1187342E-002  0.5261751E+03  0.7818608E-02  0.1007164E+00
         21   -1    0    0  503  502  0.00000000000E+00  0.00000000000E+00  0.28202760253E+03  0.28202760253E+03  0.00000000000E+00 0. -1.
         21   -1    0    0  501  503 -0.00000000000E+00 -0.00000000000E+00 -0.11878562245E+04  0.11878562245E+04  0.00000000000E+00 0.  1.
    9000007    1    1    2  501    0  0.14084260317E+02  0.34155802053E+03 -0.75910546720E+03  0.92363486190E+03  0.40000000000E+03 0. -1.
   -9000007    1    1    2    0  502 -0.14084260317E+02 -0.34155802053E+03 -0.14672315477E+03  0.54624896514E+03  0.40000000000E+03 0.  1.
<mgrwt>
<rscale>  2 0.52617511E+03</rscale>
<asrwt>0</asrwt>
<pdfrwt beam="1">  1       21 0.43388862E-01 0.52617511E+03</pdfrwt>
<pdfrwt beam="2">  1       21 0.18274711E+00 0.52617511E+03</pdfrwt>
<totfact> 0.71833985E+02</totfact>
</mgrwt>
</event>
<event>
 4    1  0.1187342E-002  0.6030144E+03  0.7818608E-02  0.9899172E-01
         21   -1    0    0  503  502  0.00000000000E+00  0.00000000000E+00  0.36778185809E+03  0.36778185809E+03  0.00000000000E+00 0. -1.
         21   -1    0    0  501  503 -0.00000000000E+00 -0.00000000000E+00 -0.98988713197E+03  0.98988713197E+03  0.00000000000E+00 0.  1.
    9000007    1    1    2  501    0  0.41462673772E+02  0.44934084354E+03 -0.33454948649E+03  0.68960112086E+03  0.40000000000E+03 0. -1.
   -9000007    1    1    2    0  502 -0.41462673772E+02 -0.44934084354E+03 -0.28755578739E+03  0.66806786919E+03  0.40000000000E+03 0.  1.
<mgrwt>
<rscale>  2 0.60301438E+03</rscale>
<asrwt>0</asrwt>
<pdfrwt beam="1">  1       21 0.56581825E-01 0.60301438E+03</pdfrwt>
<pdfrwt beam="2">  1       21 0.15229033E+00 0.60301438E+03</pdfrwt>
<totfact> 0.66712240E+02</totfact>
</mgrwt>
</event>
<event>
 4    1  0.1187342E-002  0.4251502E+03  0.7818608E-02  0.1035403E+00
         21   -1    0    0  503  502  0.00000000000E+00  0.00000000000E+00  0.15129903224E+03  0.15129903224E+03  0.00000000000E+00 0. -1.
         21   -1    0    0  501  503 -0.00000000000E+00 -0.00000000000E+00 -0.11958779173E+04  0.11958779173E+04  0.00000000000E+00 0. -1.
    9000007    1    1    2  501    0  0.39713857840E+02 -0.13847552122E+03 -0.54368274207E+03  0.69017648794E+03  0.40000000000E+03 0. -1.
   -9000007    1    1    2    0  502 -0.39713857840E+02  0.13847552122E+03 -0.50089614301E+03  0.65700046161E+03  0.40000000000E+03 0. -1.
<mgrwt>
<rscale>  2 0.42515016E+03</rscale>
<asrwt>0</asrwt>
<pdfrwt beam="1">  1       21 0.23276774E-01 0.42515016E+03</pdfrwt>
<pdfrwt beam="2">  1       21 0.18398122E+00 0.42515016E+03</pdfrwt>
<totfact> 0.25578362E+03</totfact>
</mgrwt>
</event>
<event>
 4    1  0.1187342E-002  0.4131845E+03  0.7818608E-02  0.1039308E+00
         21   -1    0    0  501  502  0.00000000000E+00  0.00000000000E+00  0.27267586996E+03  0.27267586996E+03  0.00000000000E+00 0. -1.
         21   -1    0    0  502  503 -0.00000000000E+00 -0.00000000000E+00 -0.62744013668E+03  0.62744013668E+03  0.00000000000E+00 0. -1.
    9000007    1    1    2  501    0 -0.48475146759E+02 -0.91496268107E+02 -0.15655527361E+03  0.44184947734E+03  0.40000000000E+03 0.  1.
   -9000007    1    1    2    0  503  0.48475146759E+02  0.91496268107E+02 -0.19820899311E+03  0.45826652930E+03  0.40000000000E+03 0.  1.
<mgrwt>
<rscale>  2 0.41318447E+03</rscale>
<asrwt>0</asrwt>
<pdfrwt beam="1">  1       21 0.41950135E-01 0.41318447E+03</pdfrwt>
<pdfrwt beam="2">  1       21 0.96529250E-01 0.41318447E+03</pdfrwt>
<totfact> 0.43303978E+03</totfact>
</mgrwt>
</event>
<event>
 4    1  0.1187342E-002  0.4985934E+03  0.7818608E-02  0.1014147E+00
         21   -1    0    0  501  502  0.00000000000E+00  0.00000000000E+00  0.14253373731E+03  0.14253373731E+03  0.00000000000E+00 0. -1.
         21   -1    0    0  502  503 -0.00000000000E+00 -0.00000000000E+00 -0.17567404079E+04  0.17567404079E+04  0.00000000000E+00 0. -1.
    9000007    1    1    2  501    0  0.26003041939E+03 -0.14484326663E+03 -0.88760540873E+03  0.10180563602E+04  0.40000000000E+03 0. -1.
   -9000007    1    1    2    0  503 -0.26003041939E+03  0.14484326663E+03 -0.72660126185E+03  0.88121778501E+03  0.40000000000E+03 0. -1.
<mgrwt>
<rscale>  2 0.49859341E+03</rscale>
<asrwt>0</asrwt>
<pdfrwt beam="1">  1       21 0.21928267E-01 0.49859341E+03</pdfrwt>
<pdfrwt beam="2">  1       21 0.27026776E+00 0.49859341E+03</pdfrwt>
<totfact> 0.77993380E+02</totfact>
</mgrwt>
</event>
<event>
 4    1  0.1187342E-002  0.4269530E+03  0.7818608E-02  0.1034827E+00
         21   -1    0    0  501  502  0.00000000000E+00  0.00000000000E+00  0.11097442829E+04  0.11097442829E+04  0.00000000000E+00 0. -1.
         21   -1    0    0  502  503 -0.00000000000E+00 -0.00000000000E+00 -0.17640234192E+03  0.17640234192E+03  0.00000000000E+00 0. -1.
    9000007    1    1    2  501    0 -0.14543558384E+03 -0.33724215645E+02  0.29796769735E+03  0.52064727065E+03  0.40000000000E+03 0. -1.
   -9000007    1    1    2    0  503  0.14543558384E+03  0.33724215645E+02  0.63537424360E+03  0.76549935415E+03  0.40000000000E+03 0. -1.
<mgrwt>
<rscale>  2 0.42695296E+03</rscale>
<asrwt>0</asrwt>
<pdfrwt beam="1">  1       21 0.17072988E+00 0.42695296E+03</pdfrwt>
<pdfrwt beam="2">  1       21 0.27138823E-01 0.42695296E+03</pdfrwt>
<totfact> 0.23545430E+03</totfact>
</mgrwt>
</event>
<event>
 4    1  0.1187342E-002  0.4717078E+03  0.7818608E-02  0.1021439E+00
         21   -1    0    0  501  502  0.00000000000E+00  0.00000000000E+00  0.44786163837E+03  0.44786163837E+03  0.00000000000E+00 0. -1.
         21   -1    0    0  502  503 -0.00000000000E+00 -0.00000000000E+00 -0.84290970967E+03  0.84290970967E+03  0.00000000000E+00 0. -1.
    9000007    1    1    2  501    0  0.15164020117E+02 -0.24955616089E+03  0.21601916651E+03  0.51881837404E+03  0.40000000000E+03 0. -1.
   -9000007    1    1    2    0  503 -0.15164020117E+02  0.24955616089E+03 -0.61106723781E+03  0.77195297400E+03  0.40000000000E+03 0. -1.
<mgrwt>
<rscale>  2 0.47170777E+03</rscale>
<asrwt>0</asrwt>
<pdfrwt beam="1">  1       21 0.68901791E-01 0.47170777E+03</pdfrwt>
<pdfrwt beam="2">  1       21 0.12967842E+00 0.47170777E+03</pdfrwt>
<totfact> 0.69569566E+02</totfact>
</mgrwt>
</event>
<event>
 4    1  0.1187342E-002  0.1167651E+04  0.7818608E-02  0.9141652E-01
         21   -1    0    0  503  502  0.00000000000E+00  0.00000000000E+00  0.15646813640E+04  0.15646813640E+04  0.00000000000E+00 0. -1.
         21   -1    0    0  501  503 -0.00000000000E+00 -0.00000000000E+00 -0.87319187735E+03  0.87319187735E+03  0.00000000000E+00 0.  1.
    9000007    1    1    2  501    0 -0.80813728068E+03  0.74183818182E+03  0.40148791107E+03  0.12347478670E+04  0.40000000000E+03 0. -1.
   -9000007    1    1    2    0  502  0.80813728068E+03 -0.74183818182E+03  0.29000157558E+03  0.12031253743E+04  0.40000000000E+03 0.  1.
<mgrwt>
<rscale>  2 0.11676514E+04</rscale>
<asrwt>0</asrwt>
<pdfrwt beam="1">  1       21 0.24072021E+00 0.11676514E+04</pdfrwt>
<pdfrwt beam="2">  1       21 0.13433721E+00 0.11676514E+04</pdfrwt>
<totfact> 0.17189509E+01</totfact>
</mgrwt>
</event>
<event>
 4    1  0.1187342E-002  0.5980602E+03  0.7818608E-02  0.9909439E-01
         21   -1    0    0  503  502  0.00000000000E+00  0.00000000000E+00  0.78112651072E+03  0.78112651072E+03  0.00000000000E+00 0. -1.
         21   -1    0    0  501  503 -0.00000000000E+00 -0.00000000000E+00 -0.46083861159E+03  0.46083861159E+03  0.00000000000E+00 0.  1.
    9000007    1    1    2  501    0 -0.43740948819E+03 -0.79679916578E+02  0.11053570910E+03  0.60818919133E+03  0.40000000000E+03 0.  1.
   -9000007    1    1    2    0  502  0.43740948819E+03  0.79679916578E+02  0.20975219003E+03  0.63377593098E+03  0.40000000000E+03 0. -1.
<mgrwt>
<rscale>  2 0.59806016E+03</rscale>
<asrwt>0</asrwt>
<pdfrwt beam="1">  1       21 0.12017331E+00 0.59806016E+03</pdfrwt>
<pdfrwt beam="2">  1       21 0.70898248E-01 0.59806016E+03</pdfrwt>
<totfact> 0.75834032E+02</totfact>
</mgrwt>
</event>
<event>
 4    1  0.1187342E-002  0.4304468E+03  0.7818608E-02  0.1033719E+00
         21   -1    0    0  501  502  0.00000000000E+00  0.00000000000E+00  0.99844321333E+03  0.99844321333E+03  0.00000000000E+00 0.  1.
         21   -1    0    0  502  503 -0.00000000000E+00 -0.00000000000E+00 -0.18565018974E+03  0.18565018974E+03  0.00000000000E+00 0.  1.
    9000007    1    1    2  501    0  0.12783931708E+03  0.94559696588E+02  0.41844329324E+03  0.60031593088E+03  0.40000000000E+03 0.  1.
   -9000007    1    1    2    0  503 -0.12783931708E+03 -0.94559696588E+02  0.39434973036E+03  0.58377747220E+03  0.40000000000E+03 0.  1.
<mgrwt>
<rscale>  2 0.43044678E+03</rscale>
<asrwt>0</asrwt>
<pdfrwt beam="1">  1       21 0.15360665E+00 0.43044678E+03</pdfrwt>
<pdfrwt beam="2">  1       21 0.28561568E-01 0.43044678E+03</pdfrwt>
<totfact> 0.28561926E+03</totfact>
</mgrwt>
</event>
<event>
 4    1  0.1187342E-002  0.4210363E+03  0.7818608E-02  0.1036730E+00
         21   -1    0    0  503  502  0.00000000000E+00  0.00000000000E+00  0.40176795434E+03  0.40176795434E+03  0.00000000000E+00 0. -1.
         21   -1    0    0  501  503 -0.00000000000E+00 -0.00000000000E+00 -0.44136683493E+03  0.44136683493E+03  0.00000000000E+00 0. -1.
    9000007    1    1    2  501    0 -0.87676873726E+02 -0.97899704647E+02 -0.12343795442E+02  0.42121723094E+03  0.40000000000E+03 0.  1.
   -9000007    1    1    2    0  502  0.87676873726E+02  0.97899704647E+02 -0.27255085151E+02  0.42191755833E+03  0.40000000000E+03 0.  1.
<mgrwt>
<rscale>  2 0.42103632E+03</rscale>
<asrwt>0</asrwt>
<pdfrwt beam="1">  1       21 0.61810455E-01 0.42103632E+03</pdfrwt>
<pdfrwt beam="2">  1       21 0.67902590E-01 0.42103632E+03</pdfrwt>
<totfact> 0.42660107E+03</totfact>
</mgrwt>
</event>
<event>
 4    1  0.1187342E-002  0.4748291E+03  0.7818608E-02  0.1020566E+00
         21   -1    0    0  501  502  0.00000000000E+00  0.00000000000E+00  0.89138849448E+03  0.89138849448E+03  0.00000000000E+00 0.  1.
         21   -1    0    0  502  503 -0.00000000000E+00 -0.00000000000E+00 -0.25500782344E+03  0.25500782344E+03  0.00000000000E+00 0. -1.
    9000007    1    1    2  501    0  0.22719739285E+03 -0.11766078728E+03  0.36987759804E+03  0.60189048316E+03  0.40000000000E+03 0. -1.
   -9000007    1    1    2    0  503 -0.22719739285E+03  0.11766078728E+03  0.26650307299E+03  0.54450583477E+03  0.40000000000E+03 0. -1.
<mgrwt>
<rscale>  2 0.47482914E+03</rscale>
<asrwt>0</asrwt>
<pdfrwt beam="1">  1       21 0.13713669E+00 0.47482914E+03</pdfrwt>
<pdfrwt beam="2">  1       21 0.39231973E-01 0.47482914E+03</pdfrwt>
<totfact> 0.20105017E+03</totfact>
</mgrwt>
</event>
<event>
 4    1  0.1187342E-002  0.8113227E+03  0.7818608E-02  0.9543771E-01
         21   -1    0    0  503  502  0.00000000000E+00  0.00000000000E+00  0.13599831549E+04  0.13599831549E+04  0.00000000000E+00 0.  1.
         21   -1    0    0  501  503 -0.00000000000E+00 -0.00000000000E+00 -0.48488797551E+03  0.48488797551E+03  0.00000000000E+00 0.  1.
    9000007    1    1    2  501    0 -0.64268443808E+03 -0.29189240012E+03  0.47681532750E+03  0.94106180282E+03  0.40000000000E+03 0.  1.
   -9000007    1    1    2    0  502  0.64268443808E+03  0.29189240012E+03  0.39827985185E+03  0.90380932756E+03  0.40000000000E+03 0.  1.
<mgrwt>
<rscale>  2 0.81132266E+03</rscale>
<asrwt>0</asrwt>
<pdfrwt beam="1">  1       21 0.20922818E+00 0.81132266E+03</pdfrwt>
<pdfrwt beam="2">  1       21 0.74598151E-01 0.81132266E+03</pdfrwt>
<totfact> 0.13099731E+02</totfact>
</mgrwt>
</event>
<event>
 4    1  0.1187342E-002  0.5397848E+03  0.7818608E-02  0.1003886E+00
         21   -1    0    0  503  502  0.00000000000E+00  0.00000000000E+00  0.45581065566E+03  0.45581065566E+03  0.00000000000E+00 0. -1.
         21   -1    0    0  501  503 -0.00000000000E+00 -0.00000000000E+00 -0.70712700281E+03  0.70712700281E+03  0.00000000000E+00 0. -1.
    9000007    1    1    2  501    0 -0.14323161735E+03  0.33294498974E+03 -0.30583723218E+03  0.62040637891E+03  0.40000000000E+03 0. -1.
   -9000007    1    1    2    0  502  0.14323161735E+03 -0.33294498974E+03  0.54520885034E+02  0.54253127957E+03  0.40000000000E+03 0. -1.
<mgrwt>
<rscale>  2 0.53978483E+03</rscale>
<asrwt>0</asrwt>
<pdfrwt beam="1">  1       21 0.70124716E-01 0.53978483E+03</pdfrwt>
<pdfrwt beam="2">  1       21 0.10878877E+00 0.53978483E+03</pdfrwt>
<totfact> 0.10183172E+03</totfact>
</mgrwt>
</event>
<event>
 4    1  0.1187342E-002  0.5019784E+03  0.7818608E-02  0.1013264E+00
         21   -1    0    0  503  502  0.00000000000E+00  0.00000000000E+00  0.15322082629E+04  0.15322082629E+04  0.00000000000E+00 0.  1.
         21   -1    0    0  501  503 -0.00000000000E+00 -0.00000000000E+00 -0.18088601436E+03  0.18088601436E+03  0.00000000000E+00 0.  1.
    9000007    1    1    2  501    0 -0.17907586546E+03 -0.24477359630E+03  0.41752109786E+03  0.65292124042E+03  0.40000000000E+03 0.  1.
   -9000007    1    1    2    0  502  0.17907586546E+03  0.24477359630E+03  0.93380115065E+03  0.10601730368E+04  0.40000000000E+03 0.  1.
<mgrwt>
<rscale>  2 0.50197837E+03</rscale>
<asrwt>0</asrwt>
<pdfrwt beam="1">  1       21 0.23572434E+00 0.50197837E+03</pdfrwt>
<pdfrwt beam="2">  1       21 0.27828619E-01 0.50197837E+03</pdfrwt>
<totfact> 0.79922173E+02</totfact>
</mgrwt>
</event>
<event>
 4    1  0.1187342E-002  0.4415285E+03  0.7818608E-02  0.1030279E+00
         21   -1    0    0  503  502  0.00000000000E+00  0.00000000000E+00  0.22355484936E+03  0.22355484936E+03  0.00000000000E+00 0.  1.
         21   -1    0    0  501  503 -0.00000000000E+00 -0.00000000000E+00 -0.92178467357E+03  0.92178467357E+03  0.00000000000E+00 0.  1.
    9000007    1    1    2  501    0  0.14400214631E+03  0.11920900521E+03 -0.48215712808E+03  0.65377587996E+03  0.40000000000E+03 0.  1.
   -9000007    1    1    2    0  502 -0.14400214631E+03 -0.11920900521E+03 -0.21607269613E+03  0.49156364296E+03  0.40000000000E+03 0.  1.
<mgrwt>
<rscale>  2 0.44152849E+03</rscale>
<asrwt>0</asrwt>
<pdfrwt beam="1">  1       21 0.34393054E-01 0.44152849E+03</pdfrwt>
<pdfrwt beam="2">  1       21 0.14181303E+00 0.44152849E+03</pdfrwt>
<totfact> 0.24350517E+03</totfact>
</mgrwt>
</event>
<event>
 4    1  0.1187342E-002  0.4567774E+03  0.7818608E-02  0.1025720E+00
         21   -1    0    0  503  502  0.00000000000E+00  0.00000000000E+00  0.36331635390E+03  0.36331635390E+03  0.00000000000E+00 0.  1.
         21   -1    0    0  501  503 -0.00000000000E+00 -0.00000000000E+00 -0.57793049138E+03  0.57793049138E+03  0.00000000000E+00 0.  1.
    9000007    1    1    2  501    0  0.20868599620E+03  0.71384701392E+02 -0.14470619656E+03  0.47915081543E+03  0.40000000000E+03 0.  1.
   -9000007    1    1    2    0  502 -0.20868599620E+03 -0.71384701392E+02 -0.69907940917E+02  0.46209602985E+03  0.40000000000E+03 0.  1.
<mgrwt>
<rscale>  2 0.45677743E+03</rscale>
<asrwt>0</asrwt>
<pdfrwt beam="1">  1       21 0.55894824E-01 0.45677743E+03</pdfrwt>
<pdfrwt beam="2">  1       21 0.88912382E-01 0.45677743E+03</pdfrwt>
<totfact> 0.28245678E+03</totfact>
</mgrwt>
</event>
<event>
 4    1  0.1187342E-002  0.4967572E+03  0.7818608E-02  0.1014629E+00
         21   -1    0    0  503  502  0.00000000000E+00  0.00000000000E+00  0.19797128531E+03  0.19797128531E+03  0.00000000000E+00 0.  1.
         21   -1    0    0  501  503 -0.00000000000E+00 -0.00000000000E+00 -0.12500353239E+04  0.12500353239E+04  0.00000000000E+00 0.  1.
    9000007    1    1    2  501    0  0.15148981801E+03 -0.25262328807E+03 -0.56463157443E+03  0.75204820689E+03  0.40000000000E+03 0.  1.
   -9000007    1    1    2    0  502 -0.15148981801E+03  0.25262328807E+03 -0.48743246413E+03  0.69595840230E+03  0.40000000000E+03 0.  1.
<mgrwt>
<rscale>  2 0.49675717E+03</rscale>
<asrwt>0</asrwt>
<pdfrwt beam="1">  1       21 0.30457120E-01 0.49675717E+03</pdfrwt>
<pdfrwt beam="2">  1       21 0.19231313E+00 0.49675717E+03</pdfrwt>
<totfact> 0.12842997E+03</totfact>
</mgrwt>
</event>
<event>
 4    1  0.1187342E-002  0.6675360E+03  0.7818608E-02  0.9774419E-01
         21   -1    0    0  501  502  0.00000000000E+00  0.00000000000E+00  0.65575119668E+03  0.65575119668E+03  0.00000000000E+00 0.  1.
         21   -1    0    0  502  503 -0.00000000000E+00 -0.00000000000E+00 -0.74309969718E+03  0.74309969718E+03  0.00000000000E+00 0. -1.
    9000007    1    1    2  501    0 -0.52614916805E+03  0.93655413784E+02  0.16089212208E+03  0.68665170103E+03  0.40000000000E+03 0.  1.
   -9000007    1    1    2    0  503  0.52614916805E+03 -0.93655413784E+02 -0.24824062258E+03  0.71219919283E+03  0.40000000000E+03 0. -1.
<mgrwt>
<rscale>  2 0.66753598E+03</rscale>
<asrwt>0</asrwt>
<pdfrwt beam="1">  1       21 0.10088480E+00 0.66753598E+03</pdfrwt>
<pdfrwt beam="2">  1       21 0.11432303E+00 0.66753598E+03</pdfrwt>
<totfact> 0.36666999E+02</totfact>
</mgrwt>
</event>
<event>
 4    1  0.1187342E-002  0.4355071E+03  0.7818608E-02  0.1032134E+00
         21   -1    0    0  501  502  0.00000000000E+00  0.00000000000E+00  0.41941573771E+03  0.41941573771E+03  0.00000000000E+00 0.  1.
         21   -1    0    0  502  503 -0.00000000000E+00 -0.00000000000E+00 -0.45224254716E+03  0.45224254716E+03  0.00000000000E+00 0. -1.
    9000007    1    1    2  501    0 -0.17178325202E+03  0.12526765196E+02 -0.19767802116E+02  0.43595546965E+03  0.40000000000E+03 0.  1.
   -9000007    1    1    2    0  503  0.17178325202E+03 -0.12526765196E+02 -0.13059007334E+02  0.43570281522E+03  0.40000000000E+03 0. -1.
<mgrwt>
<rscale>  2 0.43550707E+03</rscale>
<asrwt>0</asrwt>
<pdfrwt beam="1">  1       21 0.64525498E-01 0.43550707E+03</pdfrwt>
<pdfrwt beam="2">  1       21 0.69575776E-01 0.43550707E+03</pdfrwt>
<totfact> 0.36546841E+03</totfact>
</mgrwt>
</event>
<event>
 4    1  0.1187342E-002  0.5081613E+03  0.7818608E-02  0.1011670E+00
         21   -1    0    0  503  502  0.00000000000E+00  0.00000000000E+00  0.98572859342E+03  0.98572859342E+03  0.00000000000E+00 0.  1.
         21   -1    0    0  501  503 -0.00000000000E+00 -0.00000000000E+00 -0.26836237119E+03  0.26836237119E+03  0.00000000000E+00 0.  1.
    9000007    1    1    2  501    0 -0.13388159602E+03 -0.28337888774E+03  0.26188032135E+03  0.57167226492E+03  0.40000000000E+03 0.  1.
   -9000007    1    1    2    0  502  0.13388159602E+03  0.28337888774E+03  0.45548590088E+03  0.68241869968E+03  0.40000000000E+03 0.  1.
<mgrwt>
<rscale>  2 0.50816127E+03</rscale>
<asrwt>0</asrwt>
<pdfrwt beam="1">  1       21 0.15165055E+00 0.50816127E+03</pdfrwt>
<pdfrwt beam="2">  1       21 0.41286519E-01 0.50816127E+03</pdfrwt>
<totfact> 0.13631688E+03</totfact>
</mgrwt>
</event>
<event>
 4    1  0.1187342E-002  0.6039152E+03  0.7818608E-02  0.9897316E-01
         21   -1    0    0  501  502  0.00000000000E+00  0.00000000000E+00  0.34777512245E+03  0.34777512245E+03  0.00000000000E+00 0. -1.
         21   -1    0    0  502  503 -0.00000000000E+00 -0.00000000000E+00 -0.11532627561E+04  0.11532627561E+04  0.00000000000E+00 0. -1.
    9000007    1    1    2  501    0 -0.15442109602E+03 -0.42528546825E+03 -0.62872646042E+03  0.87178584895E+03  0.40000000000E+03 0. -1.
   -9000007    1    1    2    0  503  0.15442109602E+03  0.42528546825E+03 -0.17676117325E+03  0.62925202961E+03  0.40000000000E+03 0. -1.
<mgrwt>
<rscale>  2 0.60391523E+03</rscale>
<asrwt>0</asrwt>
<pdfrwt beam="1">  1       21 0.53503865E-01 0.60391523E+03</pdfrwt>
<pdfrwt beam="2">  1       21 0.17742504E+00 0.60391523E+03</pdfrwt>
<totfact> 0.48775015E+02</totfact>
</mgrwt>
</event>
<event>
 4    1  0.1187342E-002  0.4886524E+03  0.7818608E-02  0.1016784E+00
         21   -1    0    0  501  502  0.00000000000E+00  0.00000000000E+00  0.35772759860E+03  0.35772759860E+03  0.00000000000E+00 0. -1.
         21   -1    0    0  502  503 -0.00000000000E+00 -0.00000000000E+00 -0.82867492212E+03  0.82867492212E+03  0.00000000000E+00 0.  1.
    9000007    1    1    2  501    0 -0.25582123433E+03  0.11548427817E+03  0.26143615024E+02  0.48935121441E+03  0.40000000000E+03 0. -1.
   -9000007    1    1    2    0  503  0.25582123433E+03 -0.11548427817E+03 -0.49709093855E+03  0.69705130631E+03  0.40000000000E+03 0.  1.
<mgrwt>
<rscale>  2 0.48865235E+03</rscale>
<asrwt>0</asrwt>
<pdfrwt beam="1">  1       21 0.55035016E-01 0.48865235E+03</pdfrwt>
<pdfrwt beam="2">  1       21 0.12748845E+00 0.48865235E+03</pdfrwt>
<totfact> 0.11853189E+03</totfact>
</mgrwt>
</event>
<event>
 4    1  0.1187342E-002  0.4519909E+03  0.7818608E-02  0.1027130E+00
         21   -1    0    0  503  502  0.00000000000E+00  0.00000000000E+00  0.24424814088E+03  0.24424814088E+03  0.00000000000E+00 0.  1.
         21   -1    0    0  501  503 -0.00000000000E+00 -0.00000000000E+00 -0.96883009591E+03  0.96883009591E+03  0.00000000000E+00 0.  1.
    9000007    1    1    2  501    0 -0.19274059714E+03  0.84539077585E+02 -0.58651581325E+03  0.74047052110E+03  0.40000000000E+03 0.  1.
   -9000007    1    1    2    0  502  0.19274059714E+03 -0.84539077585E+02 -0.13806614179E+03  0.47260771570E+03  0.40000000000E+03 0.  1.
<mgrwt>
<rscale>  2 0.45199092E+03</rscale>
<asrwt>0</asrwt>
<pdfrwt beam="1">  1       21 0.37576637E-01 0.45199092E+03</pdfrwt>
<pdfrwt beam="2">  1       21 0.14905078E+00 0.45199092E+03</pdfrwt>
<totfact> 0.17721447E+03</totfact>
</mgrwt>
</event>
<event>
 4    1  0.1187342E-002  0.4306256E+03  0.7818608E-02  0.1033663E+00
         21   -1    0    0  501  502  0.00000000000E+00  0.00000000000E+00  0.33391833617E+03  0.33391833617E+03  0.00000000000E+00 0.  1.
         21   -1    0    0  502  503 -0.00000000000E+00 -0.00000000000E+00 -0.56983769255E+03  0.56983769255E+03  0.00000000000E+00 0.  1.
    9000007    1    1    2  501    0  0.15942269540E+03 -0.47802874569E+01 -0.45884722259E+02  0.43306333797E+03  0.40000000000E+03 0.  1.
   -9000007    1    1    2    0  503 -0.15942269540E+03  0.47802874569E+01 -0.19003463413E+03  0.47069269075E+03  0.40000000000E+03 0.  1.
<mgrwt>
<rscale>  2 0.43062565E+03</rscale>
<asrwt>0</asrwt>
<pdfrwt beam="1">  1       21 0.51372052E-01 0.43062565E+03</pdfrwt>
<pdfrwt beam="2">  1       21 0.87667337E-01 0.43062565E+03</pdfrwt>
<totfact> 0.35335708E+03</totfact>
</mgrwt>
</event>
<event>
 4    1  0.1187342E-002  0.5666610E+03  0.7818608E-02  0.9977095E-01
         21   -1    0    0  501  502  0.00000000000E+00  0.00000000000E+00  0.13156991965E+04  0.13156991965E+04  0.00000000000E+00 0. -1.
         21   -1    0    0  502  503 -0.00000000000E+00 -0.00000000000E+00 -0.25155526578E+03  0.25155526578E+03  0.00000000000E+00 0.  1.
    9000007    1    1    2  501    0 -0.36437149717E+03  0.16833918818E+03  0.66737067832E+03  0.87549317103E+03  0.40000000000E+03 0.  1.
   -9000007    1    1    2    0  503  0.36437149717E+03 -0.16833918818E+03  0.39677325236E+03  0.69176129121E+03  0.40000000000E+03 0.  1.
<mgrwt>
<rscale>  2 0.56666098E+03</rscale>
<asrwt>0</asrwt>
<pdfrwt beam="1">  1       21 0.20241526E+00 0.56666098E+03</pdfrwt>
<pdfrwt beam="2">  1       21 0.38700811E-01 0.56666098E+03</pdfrwt>
<totfact> 0.65751417E+02</totfact>
</mgrwt>
</event>
<event>
 4    1  0.1187342E-002  0.4104271E+03  0.7818608E-02  0.1040228E+00
         21   -1    0    0  501  502  0.00000000000E+00  0.00000000000E+00  0.22243378662E+03  0.22243378662E+03  0.00000000000E+00 0.  1.
         21   -1    0    0  502  503 -0.00000000000E+00 -0.00000000000E+00 -0.79148241822E+03  0.79148241822E+03  0.00000000000E+00 0.  1.
    9000007    1    1    2  501    0  0.66804926579E+02  0.63146756946E+02 -0.17917891871E+03  0.44783422830E+03  0.40000000000E+03 0.  1.
   -9000007    1    1    2    0  503 -0.66804926579E+02 -0.63146756946E+02 -0.38986971289E+03  0.56608197654E+03  0.40000000000E+03 0.  1.
<mgrwt>
<rscale>  2 0.41042711E+03</rscale>
<asrwt>0</asrwt>
<pdfrwt beam="1">  1       21 0.34220582E-01 0.41042711E+03</pdfrwt>
<pdfrwt beam="2">  1       21 0.12176653E+00 0.41042711E+03</pdfrwt>
<totfact> 0.37016303E+03</totfact>
</mgrwt>
</event>
<event>
 4    1  0.1187342E-002  0.4620598E+03  0.7818608E-02  0.1024186E+00
         21   -1    0    0  503  502  0.00000000000E+00  0.00000000000E+00  0.94645816968E+03  0.94645816968E+03  0.00000000000E+00 0.  1.
         21   -1    0    0  501  503 -0.00000000000E+00 -0.00000000000E+00 -0.23046474106E+03  0.23046474106E+03  0.00000000000E+00 0.  1.
    9000007    1    1    2  501    0 -0.67120172014E+01  0.23120174123E+03  0.27229981810E+03  0.53632684742E+03  0.40000000000E+03 0.  1.
   -9000007    1    1    2    0  502  0.67120172014E+01 -0.23120174123E+03  0.44369361052E+03  0.64059606332E+03  0.40000000000E+03 0.  1.
<mgrwt>
<rscale>  2 0.46205984E+03</rscale>
<asrwt>0</asrwt>
<pdfrwt beam="1">  1       21 0.14560895E+00 0.46205984E+03</pdfrwt>
<pdfrwt beam="2">  1       21 0.35456115E-01 0.46205984E+03</pdfrwt>
<totfact> 0.21161399E+03</totfact>
</mgrwt>
</event>
<event>
 4    1  0.1187342E-002  0.5275744E+03  0.7818608E-02  0.1006822E+00
         21   -1    0    0  501  502  0.00000000000E+00  0.00000000000E+00  0.23549495962E+04  0.23549495962E+04  0.00000000000E+00 0.  1.
         21   -1    0    0  502  503 -0.00000000000E+00 -0.00000000000E+00 -0.11919604773E+03  0.11919604773E+03  0.00000000000E+00 0. -1.
    9000007    1    1    2  501    0 -0.27325185637E+03 -0.20896925569E+03  0.12314502752E+04  0.13397031414E+04  0.40000000000E+03 0. -1.
   -9000007    1    1    2    0  503  0.27325185637E+03  0.20896925569E+03  0.10043032733E+04  0.11344425026E+04  0.40000000000E+03 0.  1.
<mgrwt>
<rscale>  2 0.52757438E+03</rscale>
<asrwt>0</asrwt>
<pdfrwt beam="1">  1       21 0.36229990E+00 0.52757438E+03</pdfrwt>
<pdfrwt beam="2">  1       21 0.18337855E-01 0.52757438E+03</pdfrwt>
<totfact> 0.29725287E+02</totfact>
</mgrwt>
</event>
<event>
 4    1  0.1187342E-002  0.6473583E+03  0.7818608E-02  0.9811749E-01
         21   -1    0    0  501  502  0.00000000000E+00  0.00000000000E+00  0.19907246462E+04  0.19907246462E+04  0.00000000000E+00 0.  1.
         21   -1    0    0  502  503 -0.00000000000E+00 -0.00000000000E+00 -0.21301376243E+03  0.21301376243E+03  0.00000000000E+00 0.  1.
    9000007    1    1    2  501    0  0.39387063658E+03  0.32239532430E+03  0.76945983780E+03  0.10055552026E+04  0.40000000000E+03 0.  1.
   -9000007    1    1    2    0  503 -0.39387063658E+03 -0.32239532430E+03  0.10082510460E+04  0.11981832060E+04  0.40000000000E+03 0.  1.
<mgrwt>
<rscale>  2 0.64735834E+03</rscale>
<asrwt>0</asrwt>
<pdfrwt beam="1">  1       21 0.30626532E+00 0.64735834E+03</pdfrwt>
<pdfrwt beam="2">  1       21 0.32771350E-01 0.64735834E+03</pdfrwt>
<totfact> 0.19985421E+02</totfact>
</mgrwt>
</event>
<event>
 4    1  0.1187342E-002  0.4472934E+03  0.7818608E-02  0.1028532E+00
         21   -1    0    0  503  502  0.00000000000E+00  0.00000000000E+00  0.63660150546E+03  0.63660150546E+03  0.00000000000E+00 0.  1.
         21   -1    0    0  501  503 -0.00000000000E+00 -0.00000000000E+00 -0.60662965065E+03  0.60662965065E+03  0.00000000000E+00 0.  1.
    9000007    1    1    2  501    0  0.19307254105E+03 -0.52861627827E+02 -0.41654416488E+03  0.61121223736E+03  0.40000000000E+03 0.  1.
   -9000007    1    1    2    0  502 -0.19307254105E+03  0.52861627827E+02  0.44651601970E+03  0.63201891875E+03  0.40000000000E+03 0.  1.
<mgrwt>
<rscale>  2 0.44729337E+03</rscale>
<asrwt>0</asrwt>
<pdfrwt beam="1">  1       21 0.97938694E-01 0.44729337E+03</pdfrwt>
<pdfrwt beam="2">  1       21 0.93327638E-01 0.44729337E+03</pdfrwt>
<totfact> 0.70323857E+02</totfact>
</mgrwt>
</event>
<event>
 4    1  0.1187342E-002  0.5048806E+03  0.7818608E-02  0.1012513E+00
         21   -1    0    0  501  502  0.00000000000E+00  0.00000000000E+00  0.25362226539E+04  0.25362226539E+04  0.00000000000E+00 0. -1.
         21   -1    0    0  502  503 -0.00000000000E+00 -0.00000000000E+00 -0.10629223415E+03  0.10629223415E+03  0.00000000000E+00 0.  1.
    9000007    1    1    2  501    0  0.29823528842E+03  0.77201577472E+02  0.15232504844E+04  0.16047418513E+04  0.40000000000E+03 0. -1.
   -9000007    1    1    2    0  503 -0.29823528842E+03 -0.77201577472E+02  0.90667993528E+03  0.10377730368E+04  0.40000000000E+03 0.  1.
<mgrwt>
<rscale>  2 0.50488055E+03</rscale>
<asrwt>0</asrwt>
<pdfrwt beam="1">  1       21 0.39018806E+00 0.50488055E+03</pdfrwt>
<pdfrwt beam="2">  1       21 0.16352653E-01 0.50488055E+03</pdfrwt>
<totfact> 0.24913355E+02</totfact>
</mgrwt>
</event>
<event>
 4    1  0.1187342E-002  0.4119311E+03  0.7818608E-02  0.1039725E+00
         21   -1    0    0  503  502  0.00000000000E+00  0.00000000000E+00  0.12820583082E+04  0.12820583082E+04  0.00000000000E+00 0.  1.
         21   -1    0    0  501  503 -0.00000000000E+00 -0.00000000000E+00 -0.17043084316E+03  0.17043084316E+03  0.00000000000E+00 0.  1.
    9000007    1    1    2  501    0 -0.94972848419E+02  0.25834160525E+02  0.21254700577E+03  0.46353368319E+03  0.40000000000E+03 0.  1.
   -9000007    1    1    2    0  502  0.94972848419E+02 -0.25834160525E+02  0.89908045925E+03  0.98895546816E+03  0.40000000000E+03 0.  1.
<mgrwt>
<rscale>  2 0.41193112E+03</rscale>
<asrwt>0</asrwt>
<pdfrwt beam="1">  1       21 0.19723973E+00 0.41193112E+03</pdfrwt>
<pdfrwt beam="2">  1       21 0.26220131E-01 0.41193112E+03</pdfrwt>
<totfact> 0.16586453E+03</totfact>
</mgrwt>
</event>
<event>
 4    1  0.1187342E-002  0.5849237E+03  0.7818608E-02  0.9937188E-01
         21   -1    0    0  503  502  0.00000000000E+00  0.00000000000E+00  0.54605652356E+03  0.54605652356E+03  0.00000000000E+00 0. -1.
         21   -1    0    0  501  503 -0.00000000000E+00 -0.00000000000E+00 -0.78588465710E+03  0.78588465710E+03  0.00000000000E+00 0. -1.
    9000007    1    1    2  501    0 -0.41214105734E+03  0.11079463290E+03 -0.41977564332E+03  0.71996339667E+03  0.40000000000E+03 0. -1.
   -9000007    1    1    2    0  502  0.41214105734E+03 -0.11079463290E+03  0.17994750977E+03  0.61197778399E+03  0.40000000000E+03 0. -1.
<mgrwt>
<rscale>  2 0.58492367E+03</rscale>
<asrwt>0</asrwt>
<pdfrwt beam="1">  1       21 0.84008696E-01 0.58492367E+03</pdfrwt>
<pdfrwt beam="2">  1       21 0.12090533E+00 0.58492367E+03</pdfrwt>
<totfact> 0.50678239E+02</totfact>
</mgrwt>
</event>
<event>
 4    1  0.1187342E-002  0.4197654E+03  0.7818608E-02  0.1037143E+00
         21   -1    0    0  501  502  0.00000000000E+00  0.00000000000E+00  0.99628621480E+03  0.99628621480E+03  0.00000000000E+00 0. -1.
         21   -1    0    0  502  503 -0.00000000000E+00 -0.00000000000E+00 -0.20528700420E+03  0.20528700420E+03  0.00000000000E+00 0. -1.
    9000007    1    1    2  501    0 -0.34632932713E+02  0.12248905825E+03  0.61906592122E+03  0.74796097775E+03  0.40000000000E+03 0. -1.
   -9000007    1    1    2    0  503  0.34632932713E+02 -0.12248905825E+03  0.17193328938E+03  0.45361224125E+03  0.40000000000E+03 0. -1.
<mgrwt>
<rscale>  2 0.41976542E+03</rscale>
<asrwt>0</asrwt>
<pdfrwt beam="1">  1       21 0.15327480E+00 0.41976542E+03</pdfrwt>
<pdfrwt beam="2">  1       21 0.31582617E-01 0.41976542E+03</pdfrwt>
<totfact> 0.23635473E+03</totfact>
</mgrwt>
</event>
<event>
 4    1  0.1187342E-002  0.5327920E+03  0.7818608E-02  0.1005557E+00
         21   -1    0    0  501  502  0.00000000000E+00  0.00000000000E+00  0.16226200134E+04  0.16226200134E+04  0.00000000000E+00 0.  1.
         21   -1    0    0  502  503 -0.00000000000E+00 -0.00000000000E+00 -0.39684372374E+03  0.39684372374E+03  0.00000000000E+00 0.  1.
    9000007    1    1    2  501    0  0.28469685478E+03 -0.20691794629E+03  0.13679366760E+04  0.14680320450E+04  0.40000000000E+03 0.  1.
   -9000007    1    1    2    0  503 -0.28469685478E+03  0.20691794629E+03 -0.14216038636E+03  0.55143169211E+03  0.40000000000E+03 0.  1.
<mgrwt>
<rscale>  2 0.53279202E+03</rscale>
<asrwt>0</asrwt>
<pdfrwt beam="1">  1       21 0.24963384E+00 0.53279202E+03</pdfrwt>
<pdfrwt beam="2">  1       21 0.61052882E-01 0.53279202E+03</pdfrwt>
<totfact> 0.12595924E+02</totfact>
</mgrwt>
</event>
<event>
 4    1  0.1187342E-002  0.4127844E+03  0.7818608E-02  0.1039441E+00
         21   -1    0    0  501  502  0.00000000000E+00  0.00000000000E+00  0.12695740435E+03  0.12695740435E+03  0.00000000000E+00 0. -1.
         21   -1    0    0  502  503 -0.00000000000E+00 -0.00000000000E+00 -0.17897861091E+04  0.17897861091E+04  0.00000000000E+00 0. -1.
    9000007    1    1    2  501    0  0.57560290747E+02  0.84129306963E+02 -0.35210608507E+03  0.54255840469E+03  0.40000000000E+03 0. -1.
   -9000007    1    1    2    0  503 -0.57560290747E+02 -0.84129306963E+02 -0.13107226196E+04  0.13741851087E+04  0.40000000000E+03 0. -1.
<mgrwt>
<rscale>  2 0.41278436E+03</rscale>
<asrwt>0</asrwt>
<pdfrwt beam="1">  1       21 0.19531908E-01 0.41278436E+03</pdfrwt>
<pdfrwt beam="2">  1       21 0.27535171E+00 0.41278436E+03</pdfrwt>
<totfact> 0.94758659E+02</totfact>
</mgrwt>
</event>
<event>
 4    1  0.1187342E-002  0.6225764E+03  0.7818608E-02  0.9859643E-01
         21   -1    0    0  501  502  0.00000000000E+00  0.00000000000E+00  0.22232865800E+03  0.22232865800E+03  0.00000000000E+00 0. -1.
         21   -1    0    0  502  503 -0.00000000000E+00 -0.00000000000E+00 -0.17433813585E+04  0.17433813585E+04  0.00000000000E+00 0. -1.
    9000007    1    1    2  501    0 -0.23774990760E+03 -0.41361382898E+03 -0.75817429939E+03  0.98103500770E+03  0.40000000000E+03 0. -1.
   -9000007    1    1    2    0  503  0.23774990760E+03  0.41361382898E+03 -0.76287840114E+03  0.98467500883E+03  0.40000000000E+03 0. -1.
<mgrwt>
<rscale>  2 0.62257644E+03</rscale>
<asrwt>0</asrwt>
<pdfrwt beam="1">  1       21 0.34204410E-01 0.62257644E+03</pdfrwt>
<pdfrwt beam="2">  1       21 0.26821251E+00 0.62257644E+03</pdfrwt>
<totfact> 0.31630549E+02</totfact>
</mgrwt>
</event>
<event>
 4    1  0.1187342E-002  0.4582814E+03  0.7818608E-02  0.1025281E+00
         21   -1    0    0  503  502  0.00000000000E+00  0.00000000000E+00  0.22421708267E+04  0.22421708267E+04  0.00000000000E+00 0.  1.
         21   -1    0    0  501  503 -0.00000000000E+00 -0.00000000000E+00 -0.10833699370E+03  0.10833699370E+03  0.00000000000E+00 0.  1.
    9000007    1    1    2  501    0  0.14582821320E+03  0.16957587649E+03  0.63447376308E+03  0.78267413506E+03  0.40000000000E+03 0.  1.
   -9000007    1    1    2    0  502 -0.14582821320E+03 -0.16957587649E+03  0.14993600699E+04  0.15678336854E+04  0.40000000000E+03 0.  1.
<mgrwt>
<rscale>  2 0.45828140E+03</rscale>
<asrwt>0</asrwt>
<pdfrwt beam="1">  1       21 0.34494932E+00 0.45828140E+03</pdfrwt>
<pdfrwt beam="2">  1       21 0.16667232E-01 0.45828140E+03</pdfrwt>
<totfact> 0.47343782E+02</totfact>
</mgrwt>
</event>
<event>
 4    1  0.1187342E-002  0.4514226E+03  0.7818608E-02  0.1027299E+00
         21   -1    0    0  503  502  0.00000000000E+00  0.00000000000E+00  0.14422078927E+04  0.14422078927E+04  0.00000000000E+00 0. -1.
         21   -1    0    0  501  503 -0.00000000000E+00 -0.00000000000E+00 -0.17821080133E+03  0.17821080133E+03  0.00000000000E+00 0. -1.
    9000007    1    1    2  501    0  0.20109941588E+03  0.57804967273E+02  0.26326432571E+03  0.52258061053E+03  0.40000000000E+03 0. -1.
   -9000007    1    1    2    0  502 -0.20109941588E+03 -0.57804967273E+02  0.10007327657E+04  0.10978380835E+04  0.40000000000E+03 0. -1.
<mgrwt>
<rscale>  2 0.45142263E+03</rscale>
<asrwt>0</asrwt>
<pdfrwt beam="1">  1       21 0.22187813E+00 0.45142263E+03</pdfrwt>
<pdfrwt beam="2">  1       21 0.27417047E-01 0.45142263E+03</pdfrwt>
<totfact> 0.10304551E+03</totfact>
</mgrwt>
</event>
<event>
 4    1  0.1187342E-002  0.4846835E+03  0.7818608E-02  0.1017856E+00
         21   -1    0    0  501  502  0.00000000000E+00  0.00000000000E+00  0.66576300719E+03  0.66576300719E+03  0.00000000000E+00 0. -1.
         21   -1    0    0  502  503 -0.00000000000E+00 -0.00000000000E+00 -0.47350239347E+03  0.47350239347E+03  0.00000000000E+00 0.  1.
    9000007    1    1    2  501    0  0.27371017822E+03 -0.93670064546E+00  0.38366608665E+03  0.61815678037E+03  0.40000000000E+03 0. -1.
   -9000007    1    1    2    0  503 -0.27371017822E+03  0.93670064546E+00 -0.19140547294E+03  0.52110862029E+03  0.40000000000E+03 0.  1.
<mgrwt>
<rscale>  2 0.48468355E+03</rscale>
<asrwt>0</asrwt>
<pdfrwt beam="1">  1       21 0.10242508E+00 0.48468355E+03</pdfrwt>
<pdfrwt beam="2">  1       21 0.72846523E-01 0.48468355E+03</pdfrwt>
<totfact> 0.11056363E+03</totfact>
</mgrwt>
</event>
<event>
 4    1  0.1187342E-002  0.7231726E+03  0.7818608E-02  0.9678405E-01
         21   -1    0    0  503  502  0.00000000000E+00  0.00000000000E+00  0.45763858304E+03  0.45763858304E+03  0.00000000000E+00 0.  1.
         21   -1    0    0  501  503 -0.00000000000E+00 -0.00000000000E+00 -0.11589136700E+04  0.11589136700E+04  0.00000000000E+00 0.  1.
    9000007    1    1    2  501    0 -0.43213989990E+03 -0.41980198452E+03 -0.44601559624E+03  0.84965199428E+03  0.40000000000E+03 0.  1.
   -9000007    1    1    2    0  502  0.43213989990E+03  0.41980198452E+03 -0.25525949074E+03  0.76690025877E+03  0.40000000000E+03 0.  1.
<mgrwt>
<rscale>  2 0.72317259E+03</rscale>
<asrwt>0</asrwt>
<pdfrwt beam="1">  1       21 0.70405935E-01 0.72317259E+03</pdfrwt>
<pdfrwt beam="2">  1       21 0.17829441E+00 0.72317259E+03</pdfrwt>
<totfact> 0.25148974E+02</totfact>
</mgrwt>
</event>
<event>
 4    1  0.1187342E-002  0.4814826E+03  0.7818608E-02  0.1018729E+00
         21   -1    0    0  501  502  0.00000000000E+00  0.00000000000E+00  0.13531119407E+04  0.13531119407E+04  0.00000000000E+00 0. -1.
         21   -1    0    0  502  503 -0.00000000000E+00 -0.00000000000E+00 -0.26468730683E+03  0.26468730683E+03  0.00000000000E+00 0. -1.
    9000007    1    1    2  501    0 -0.17066523274E+03 -0.20663694228E+03  0.10246175952E+04  0.11321071786E+04  0.40000000000E+03 0. -1.
   -9000007    1    1    2    0  503  0.17066523274E+03  0.20663694228E+03  0.63807038667E+02  0.48569206887E+03  0.40000000000E+03 0. -1.
<mgrwt>
<rscale>  2 0.48148255E+03</rscale>
<asrwt>0</asrwt>
<pdfrwt beam="1">  1       21 0.20817106E+00 0.48148255E+03</pdfrwt>
<pdfrwt beam="2">  1       21 0.40721125E-01 0.48148255E+03</pdfrwt>
<totfact> 0.56155812E+02</totfact>
</mgrwt>
</event>
<event>
 4    1  0.1187342E-002  0.4938396E+03  0.7818608E-02  0.1015400E+00
         21   -1    0    0  503  502  0.00000000000E+00  0.00000000000E+00  0.34826971890E+03  0.34826971890E+03  0.00000000000E+00 0.  1.
         21   -1    0    0  501  503 -0.00000000000E+00 -0.00000000000E+00 -0.70268405775E+03  0.70268405775E+03  0.00000000000E+00 0.  1.
    9000007    1    1    2  501    0  0.19499301907E+03 -0.21413834309E+03 -0.20810438353E+03  0.53589639103E+03  0.40000000000E+03 0.  1.
   -9000007    1    1    2    0  502 -0.19499301907E+03  0.21413834309E+03 -0.14630995532E+03  0.51505738563E+03  0.40000000000E+03 0.  1.
<mgrwt>
<rscale>  2 0.49383956E+03</rscale>
<asrwt>0</asrwt>
<pdfrwt beam="1">  1       21 0.53579957E-01 0.49383956E+03</pdfrwt>
<pdfrwt beam="2">  1       21 0.10810524E+00 0.49383956E+03</pdfrwt>
<totfact> 0.19027676E+03</totfact>
</mgrwt>
</event>
<event>
 4    1  0.1187342E-002  0.4084626E+03  0.7818608E-02  0.1040888E+00
         21   -1    0    0  501  502  0.00000000000E+00  0.00000000000E+00  0.18210553192E+03  0.18210553192E+03  0.00000000000E+00 0.  1.
         21   -1    0    0  502  503 -0.00000000000E+00 -0.00000000000E+00 -0.98168720355E+03  0.98168720355E+03  0.00000000000E+00 0.  1.
    9000007    1    1    2  501    0 -0.78069268820E+02  0.27329266793E+02 -0.24947698529E+03  0.47862351149E+03  0.40000000000E+03 0.  1.
   -9000007    1    1    2    0  503  0.78069268820E+02 -0.27329266793E+02 -0.55010468633E+03  0.68516922398E+03  0.40000000000E+03 0.  1.
<mgrwt>
<rscale>  2 0.40846260E+03</rscale>
<asrwt>0</asrwt>
<pdfrwt beam="1">  1       21 0.28016236E-01 0.40846260E+03</pdfrwt>
<pdfrwt beam="2">  1       21 0.15102880E+00 0.40846260E+03</pdfrwt>
<totfact> 0.31343756E+03</totfact>
</mgrwt>
</event>
<event>
 4    1  0.1187342E-002  0.5093825E+03  0.7818608E-02  0.1011359E+00
         21   -1    0    0  503  502  0.00000000000E+00  0.00000000000E+00  0.38135237447E+03  0.38135237447E+03  0.00000000000E+00 0. -1.
         21   -1    0    0  501  503 -0.00000000000E+00 -0.00000000000E+00 -0.68052732508E+03  0.68052732508E+03  0.00000000000E+00 0.  1.
    9000007    1    1    2  501    0  0.31407471939E+03 -0.28767523146E+02 -0.14220229363E+03  0.52885914199E+03  0.40000000000E+03 0. -1.
   -9000007    1    1    2    0  502 -0.31407471939E+03  0.28767523146E+02 -0.15697265698E+03  0.53302055757E+03  0.40000000000E+03 0. -1.
<mgrwt>
<rscale>  2 0.50938247E+03</rscale>
<asrwt>0</asrwt>
<pdfrwt beam="1">  1       21 0.58669596E-01 0.50938247E+03</pdfrwt>
<pdfrwt beam="2">  1       21 0.10469651E+00 0.50938247E+03</pdfrwt>
<totfact> 0.16825275E+03</totfact>
</mgrwt>
</event>
<event>
 4    1  0.1187342E-002  0.4818693E+03  0.7818608E-02  0.1018623E+00
         21   -1    0    0  501  502  0.00000000000E+00  0.00000000000E+00  0.17345710752E+04  0.17345710752E+04  0.00000000000E+00 0.  1.
         21   -1    0    0  502  503 -0.00000000000E+00 -0.00000000000E+00 -0.35969997480E+03  0.35969997480E+03  0.00000000000E+00 0.  1.
    9000007    1    1    2  501    0 -0.25013806426E+03 -0.98127437796E+02  0.15171496369E+04  0.15918357534E+04  0.40000000000E+03 0.  1.
   -9000007    1    1    2    0  503  0.25013806426E+03  0.98127437796E+02 -0.14227853651E+03  0.50243529653E+03  0.40000000000E+03 0.  1.
<mgrwt>
<rscale>  2 0.48186932E+03</rscale>
<asrwt>0</asrwt>
<pdfrwt beam="1">  1       21 0.26685708E+00 0.48186932E+03</pdfrwt>
<pdfrwt beam="2">  1       21 0.55338459E-01 0.48186932E+03</pdfrwt>
<totfact> 0.12573960E+02</totfact>
</mgrwt>
</event>
<event>
 4    1  0.1187342E-002  0.6136564E+03  0.7818608E-02  0.9877472E-01
         21   -1    0    0  501  502  0.00000000000E+00  0.00000000000E+00  0.45862993758E+03  0.45862993758E+03  0.00000000000E+00 0. -1.
         21   -1    0    0  502  503 -0.00000000000E+00 -0.00000000000E+00 -0.16214768043E+04  0.16214768043E+04  0.00000000000E+00 0. -1.
    9000007    1    1    2  501    0 -0.41547492529E+03  0.20965388025E+03  0.14929753840E+03  0.63155674173E+03  0.40000000000E+03 0. -1.
   -9000007    1    1    2    0  503  0.41547492529E+03 -0.20965388025E+03 -0.13121444051E+04  0.14485500002E+04  0.40000000000E+03 0. -1.
<mgrwt>
<rscale>  2 0.61365639E+03</rscale>
<asrwt>0</asrwt>
<pdfrwt beam="1">  1       21 0.70558451E-01 0.61365639E+03</pdfrwt>
<pdfrwt beam="2">  1       21 0.24945797E+00 0.61365639E+03</pdfrwt>
<totfact> 0.87971393E+01</totfact>
</mgrwt>
</event>
<event>
 4    1  0.1187342E-002  0.5403123E+03  0.7818608E-02  0.1003761E+00
         21   -1    0    0  503  502  0.00000000000E+00  0.00000000000E+00  0.13337225047E+03  0.13337225047E+03  0.00000000000E+00 0.  1.
         21   -1    0    0  501  503 -0.00000000000E+00 -0.00000000000E+00 -0.23489329299E+04  0.23489329299E+04  0.00000000000E+00 0.  1.
    9000007    1    1    2  501    0 -0.30254700627E+03  0.20100432517E+03 -0.14317509619E+04  0.15303098532E+04  0.40000000000E+03 0.  1.
   -9000007    1    1    2    0  502  0.30254700627E+03 -0.20100432517E+03 -0.78380971748E+03  0.95199532717E+03  0.40000000000E+03 0.  1.
<mgrwt>
<rscale>  2 0.54031234E+03</rscale>
<asrwt>0</asrwt>
<pdfrwt beam="1">  1       21 0.20518808E-01 0.54031234E+03</pdfrwt>
<pdfrwt beam="2">  1       21 0.36137429E+00 0.54031234E+03</pdfrwt>
<totfact> 0.24157081E+02</totfact>
</mgrwt>
</event>
<event>
 4    1  0.1187342E-002  0.5481826E+03  0.7818608E-02  0.1001915E+00
         21   -1    0    0  503  502  0.00000000000E+00  0.00000000000E+00  0.79899171954E+03  0.79899171954E+03  0.00000000000E+00 0.  1.
         21   -1    0    0  501  503 -0.00000000000E+00 -0.00000000000E+00 -0.39469356498E+03  0.39469356498E+03  0.00000000000E+00 0. -1.
    9000007    1    1    2  501    0  0.37474468691E+03 -0.84038753441E+01  0.33167633256E+03  0.64071319252E+03  0.40000000000E+03 0.  1.
   -9000007    1    1    2    0  502 -0.37474468691E+03  0.84038753441E+01  0.72621822007E+02  0.55297209199E+03  0.40000000000E+03 0. -1.
<mgrwt>
<rscale>  2 0.54818264E+03</rscale>
<asrwt>0</asrwt>
<pdfrwt beam="1">  1       21 0.12292180E+00 0.54818264E+03</pdfrwt>
<pdfrwt beam="2">  1       21 0.60722087E-01 0.54818264E+03</pdfrwt>
<totfact> 0.10287879E+03</totfact>
</mgrwt>
</event>
<event>
 4    1  0.1187342E-002  0.4708465E+03  0.7818608E-02  0.1021682E+00
         21   -1    0    0  503  502  0.00000000000E+00  0.00000000000E+00  0.26731295020E+03  0.26731295020E+03  0.00000000000E+00 0. -1.
         21   -1    0    0  501  503 -0.00000000000E+00 -0.00000000000E+00 -0.83798953831E+03  0.83798953831E+03  0.00000000000E+00 0. -1.
    9000007    1    1    2  501    0  0.19872082951E+03  0.14901816409E+03 -0.34144836510E+03  0.58162132641E+03  0.40000000000E+03 0.  1.
   -9000007    1    1    2    0  502 -0.19872082951E+03 -0.14901816409E+03 -0.22922822302E+03  0.52368116210E+03  0.40000000000E+03 0.  1.
<mgrwt>
<rscale>  2 0.47084645E+03</rscale>
<asrwt>0</asrwt>
<pdfrwt beam="1">  1       21 0.41125070E-01 0.47084645E+03</pdfrwt>
<pdfrwt beam="2">  1       21 0.12892147E+00 0.47084645E+03</pdfrwt>
<totfact> 0.21468843E+03</totfact>
</mgrwt>
</event>
<event>
 4    1  0.1187342E-002  0.4670922E+03  0.7818608E-02  0.1022744E+00
         21   -1    0    0  501  502  0.00000000000E+00  0.00000000000E+00  0.68313870688E+03  0.68313870688E+03  0.00000000000E+00 0. -1.
         21   -1    0    0  502  503 -0.00000000000E+00 -0.00000000000E+00 -0.31981366380E+03  0.31981366380E+03  0.00000000000E+00 0. -1.
    9000007    1    1    2  501    0 -0.21637993205E+03 -0.10655916089E+03  0.16301916095E+03  0.49472252486E+03  0.40000000000E+03 0. -1.
   -9000007    1    1    2    0  503  0.21637993205E+03  0.10655916089E+03  0.20030588212E+03  0.50822984582E+03  0.40000000000E+03 0. -1.
<mgrwt>
<rscale>  2 0.46709221E+03</rscale>
<asrwt>0</asrwt>
<pdfrwt beam="1">  1       21 0.10509826E+00 0.46709221E+03</pdfrwt>
<pdfrwt beam="2">  1       21 0.49202102E-01 0.46709221E+03</pdfrwt>
<totfact> 0.24714906E+03</totfact>
</mgrwt>
</event>
<event>
 4    1  0.1187342E-002  0.4636669E+03  0.7818608E-02  0.1023723E+00
         21   -1    0    0  503  502  0.00000000000E+00  0.00000000000E+00  0.26993503790E+03  0.26993503790E+03  0.00000000000E+00 0. -1.
         21   -1    0    0  501  503 -0.00000000000E+00 -0.00000000000E+00 -0.81248036305E+03  0.81248036305E+03  0.00000000000E+00 0. -1.
    9000007    1    1    2  501    0 -0.21579522488E+03 -0.91757143871E+02 -0.19522776202E+03  0.50309127561E+03  0.40000000000E+03 0. -1.
   -9000007    1    1    2    0  502  0.21579522488E+03  0.91757143871E+02 -0.34731756313E+03  0.57932412533E+03  0.40000000000E+03 0. -1.
<mgrwt>
<rscale>  2 0.46366686E+03</rscale>
<asrwt>0</asrwt>
<pdfrwt beam="1">  1       21 0.41528467E-01 0.46366686E+03</pdfrwt>
<pdfrwt beam="2">  1       21 0.12499698E+00 0.46366686E+03</pdfrwt>
<totfact> 0.22848703E+03</totfact>
</mgrwt>
</event>
<event>
 4    1  0.1187342E-002  0.5161386E+03  0.7818608E-02  0.1009650E+00
         21   -1    0    0  503  502  0.00000000000E+00  0.00000000000E+00  0.20915886941E+03  0.20915886941E+03  0.00000000000E+00 0. -1.
         21   -1    0    0  501  503 -0.00000000000E+00 -0.00000000000E+00 -0.13359710174E+04  0.13359710174E+04  0.00000000000E+00 0. -1.
    9000007    1    1    2  501    0 -0.32216653146E+03 -0.51066122780E+02 -0.73024214461E+03  0.89423297448E+03  0.40000000000E+03 0. -1.
   -9000007    1    1    2    0  502  0.32216653146E+03  0.51066122780E+02 -0.39657000338E+03  0.65089691232E+03  0.40000000000E+03 0. -1.
<mgrwt>
<rscale>  2 0.51613857E+03</rscale>
<asrwt>0</asrwt>
<pdfrwt beam="1">  1       21 0.32178289E-01 0.51613857E+03</pdfrwt>
<pdfrwt beam="2">  1       21 0.20553399E+00 0.51613857E+03</pdfrwt>
<totfact> 0.93038930E+02</totfact>
</mgrwt>
</event>
<event>
 4    1  0.1187342E-002  0.5657673E+03  0.7818608E-02  0.9979089E-01
         21   -1    0    0  503  502  0.00000000000E+00  0.00000000000E+00  0.16283221678E+04  0.16283221678E+04  0.00000000000E+00 0. -1.
         21   -1    0    0  501  503 -0.00000000000E+00 -0.00000000000E+00 -0.22206121936E+03  0.22206121936E+03  0.00000000000E+00 0.  1.
    9000007    1    1    2  501    0  0.13175377821E+03 -0.37780098068E+03  0.38971472519E+03  0.68700087781E+03  0.40000000000E+03 0.  1.
   -9000007    1    1    2    0  502 -0.13175377821E+03  0.37780098068E+03  0.10165462233E+04  0.11633825094E+04  0.40000000000E+03 0. -1.
<mgrwt>
<rscale>  2 0.56576730E+03</rscale>
<asrwt>0</asrwt>
<pdfrwt beam="1">  1       21 0.25051109E+00 0.56576730E+03</pdfrwt>
<pdfrwt beam="2">  1       21 0.34163266E-01 0.56576730E+03</pdfrwt>
<totfact> 0.41730914E+02</totfact>
</mgrwt>
</event>
<event>
 4    1  0.1187342E-002  0.4406550E+03  0.7818608E-02  0.1030546E+00
         21   -1    0    0  503  502  0.00000000000E+00  0.00000000000E+00  0.91594400391E+03  0.91594400391E+03  0.00000000000E+00 0. -1.
         21   -1    0    0  501  503 -0.00000000000E+00 -0.00000000000E+00 -0.23066146971E+03  0.23066146971E+03  0.00000000000E+00 0. -1.
    9000007    1    1    2  501    0  0.13684512259E+03 -0.12429908970E+03  0.50572515019E+03  0.67077177849E+03  0.40000000000E+03 0. -1.
   -9000007    1    1    2    0  502 -0.13684512259E+03  0.12429908970E+03  0.17955738401E+03  0.47583369514E+03  0.40000000000E+03 0. -1.
<mgrwt>
<rscale>  2 0.44065503E+03</rscale>
<asrwt>0</asrwt>
<pdfrwt beam="1">  1       21 0.14091446E+00 0.44065503E+03</pdfrwt>
<pdfrwt beam="2">  1       21 0.35486380E-01 0.44065503E+03</pdfrwt>
<totfact> 0.23255984E+03</totfact>
</mgrwt>
</event>
<event>
 4    1  0.1187342E-002  0.4697877E+03  0.7818608E-02  0.1021980E+00
         21   -1    0    0  503  502  0.00000000000E+00  0.00000000000E+00  0.11166054357E+03  0.11166054357E+03  0.00000000000E+00 0. -1.
         21   -1    0    0  501  503 -0.00000000000E+00 -0.00000000000E+00 -0.21318205880E+04  0.21318205880E+04  0.00000000000E+00 0. -1.
    9000007    1    1    2  501    0  0.24573616605E+03 -0.17726771427E+02 -0.13128331024E+04  0.13943569330E+04  0.40000000000E+03 0. -1.
   -9000007    1    1    2    0  502 -0.24573616605E+03  0.17726771427E+02 -0.70732694201E+03  0.84912419859E+03  0.40000000000E+03 0. -1.
<mgrwt>
<rscale>  2 0.46978772E+03</rscale>
<asrwt>0</asrwt>
<pdfrwt beam="1">  1       21 0.17178547E-01 0.46978772E+03</pdfrwt>
<pdfrwt beam="2">  1       21 0.32797236E+00 0.46978772E+03</pdfrwt>
<totfact> 0.56385980E+02</totfact>
</mgrwt>
</event>
<event>
 4    1  0.1187342E-002  0.4324679E+03  0.7818608E-02  0.1033083E+00
         21   -1    0    0  503  502  0.00000000000E+00  0.00000000000E+00  0.15034908549E+03  0.15034908549E+03  0.00000000000E+00 0.  1.
         21   -1    0    0  501  503 -0.00000000000E+00 -0.00000000000E+00 -0.14293124117E+04  0.14293124117E+04  0.00000000000E+00 0.  1.
    9000007    1    1    2  501    0  0.14365852927E+03  0.79942180819E+02 -0.92390643431E+03  0.10201135352E+04  0.40000000000E+03 0.  1.
   -9000007    1    1    2    0  502 -0.14365852927E+03 -0.79942180819E+02 -0.35505689191E+03  0.55954796202E+03  0.40000000000E+03 0.  1.
<mgrwt>
<rscale>  2 0.43246795E+03</rscale>
<asrwt>0</asrwt>
<pdfrwt beam="1">  1       21 0.23130628E-01 0.43246795E+03</pdfrwt>
<pdfrwt beam="2">  1       21 0.21989422E+00 0.43246795E+03</pdfrwt>
<totfact> 0.14904355E+03</totfact>
</mgrwt>
</event>
<event>
 4    1  0.1187342E-002  0.4933386E+03  0.7818608E-02  0.1015532E+00
         21   -1    0    0  501  502  0.00000000000E+00  0.00000000000E+00  0.74705557557E+03  0.74705557557E+03  0.00000000000E+00 0.  1.
         21   -1    0    0  502  503 -0.00000000000E+00 -0.00000000000E+00 -0.32639848216E+03  0.32639848216E+03  0.00000000000E+00 0. -1.
    9000007    1    1    2  501    0 -0.19177192992E+03  0.21588537620E+03  0.18714761265E+03  0.52764305897E+03  0.40000000000E+03 0. -1.
   -9000007    1    1    2    0  503  0.19177192992E+03 -0.21588537620E+03  0.23350948076E+03  0.54581099876E+03  0.40000000000E+03 0. -1.
<mgrwt>
<rscale>  2 0.49333859E+03</rscale>
<asrwt>0</asrwt>
<pdfrwt beam="1">  1       21 0.11493163E+00 0.49333859E+03</pdfrwt>
<pdfrwt beam="2">  1       21 0.50215151E-01 0.49333859E+03</pdfrwt>
<totfact> 0.18772730E+03</totfact>
</mgrwt>
</event>
<event>
 4    1  0.1187342E-002  0.6025370E+03  0.7818608E-02  0.9900157E-01
         21   -1    0    0  501  502  0.00000000000E+00  0.00000000000E+00  0.63279447174E+03  0.63279447174E+03  0.00000000000E+00 0.  1.
         21   -1    0    0  502  503 -0.00000000000E+00 -0.00000000000E+00 -0.65735828231E+03  0.65735828231E+03  0.00000000000E+00 0.  1.
    9000007    1    1    2  501    0  0.23187512524E+03  0.38637383299E+03  0.21780735056E+03  0.64069560205E+03  0.40000000000E+03 0.  1.
   -9000007    1    1    2    0  503 -0.23187512524E+03 -0.38637383299E+03 -0.24237116113E+03  0.64945715199E+03  0.40000000000E+03 0.  1.
<mgrwt>
<rscale>  2 0.60253698E+03</rscale>
<asrwt>0</asrwt>
<pdfrwt beam="1">  1       21 0.97352995E-01 0.60253698E+03</pdfrwt>
<pdfrwt beam="2">  1       21 0.10113204E+00 0.60253698E+03</pdfrwt>
<totfact> 0.55427896E+02</totfact>
</mgrwt>
</event>
<event>
 4    1  0.1187342E-002  0.4843554E+03  0.7818608E-02  0.1017945E+00
         21   -1    0    0  503  502  0.00000000000E+00  0.00000000000E+00  0.55697880690E+03  0.55697880690E+03  0.00000000000E+00 0.  1.
         21   -1    0    0  501  503 -0.00000000000E+00 -0.00000000000E+00 -0.44441195237E+03  0.44441195237E+03  0.00000000000E+00 0.  1.
    9000007    1    1    2  501    0  0.92888584494E+02 -0.25684979482E+03 -0.58142891342E+02  0.48783265783E+03  0.40000000000E+03 0.  1.
   -9000007    1    1    2    0  502 -0.92888584494E+02  0.25684979482E+03  0.17070974587E+03  0.51355810145E+03  0.40000000000E+03 0.  1.
<mgrwt>
<rscale>  2 0.48435535E+03</rscale>
<asrwt>0</asrwt>
<pdfrwt beam="1">  1       21 0.85689048E-01 0.48435535E+03</pdfrwt>
<pdfrwt beam="2">  1       21 0.68371069E-01 0.48435535E+03</pdfrwt>
<totfact> 0.19567453E+03</totfact>
</mgrwt>
</event>
<event>
 4    1  0.1187342E-002  0.6476468E+03  0.7818608E-02  0.9811205E-01
         21   -1    0    0  501  502  0.00000000000E+00  0.00000000000E+00  0.95701136020E+03  0.95701136020E+03  0.00000000000E+00 0.  1.
         21   -1    0    0  502  503 -0.00000000000E+00 -0.00000000000E+00 -0.44231329191E+03  0.44231329191E+03  0.00000000000E+00 0. -1.
    9000007    1    1    2  501    0 -0.49355340466E+03 -0.12590242025E+03  0.32409640365E+03  0.72421327075E+03  0.40000000000E+03 0. -1.
   -9000007    1    1    2    0  503  0.49355340466E+03  0.12590242025E+03  0.19060166464E+03  0.67511138136E+03  0.40000000000E+03 0.  1.
<mgrwt>
<rscale>  2 0.64764680E+03</rscale>
<asrwt>0</asrwt>
<pdfrwt beam="1">  1       21 0.14723252E+00 0.64764680E+03</pdfrwt>
<pdfrwt beam="2">  1       21 0.68048199E-01 0.64764680E+03</pdfrwt>
<totfact> 0.47900762E+02</totfact>
</mgrwt>
</event>
<event>
 4    1  0.1187342E-002  0.6979338E+03  0.7818608E-02  0.9720772E-01
         21   -1    0    0  503  502  0.00000000000E+00  0.00000000000E+00  0.54194074970E+03  0.54194074970E+03  0.00000000000E+00 0.  1.
         21   -1    0    0  501  503 -0.00000000000E+00 -0.00000000000E+00 -0.10438498105E+04  0.10438498105E+04  0.00000000000E+00 0.  1.
    9000007    1    1    2  501    0 -0.48053339007E+03  0.31015999297E+03  0.44583500210E+02  0.69935631026E+03  0.40000000000E+03 0.  1.
   -9000007    1    1    2    0  502  0.48053339007E+03 -0.31015999297E+03 -0.54649256098E+03  0.88643424992E+03  0.40000000000E+03 0.  1.
<mgrwt>
<rscale>  2 0.69793378E+03</rscale>
<asrwt>0</asrwt>
<pdfrwt beam="1">  1       21 0.83375501E-01 0.69793378E+03</pdfrwt>
<pdfrwt beam="2">  1       21 0.16059228E+00 0.69793378E+03</pdfrwt>
<totfact> 0.23189749E+02</totfact>
</mgrwt>
</event>
<event>
 4    1  0.1187342E-002  0.4376596E+03  0.7818608E-02  0.1031467E+00
         21   -1    0    0  501  502  0.00000000000E+00  0.00000000000E+00  0.90271869495E+03  0.90271869495E+03  0.00000000000E+00 0.  1.
         21   -1    0    0  502  503 -0.00000000000E+00 -0.00000000000E+00 -0.21546052292E+03  0.21546052292E+03  0.00000000000E+00 0.  1.
    9000007    1    1    2  501    0 -0.16669837258E+03 -0.61299139973E+02  0.41253387162E+03  0.60144004457E+03  0.40000000000E+03 0.  1.
   -9000007    1    1    2    0  503  0.16669837258E+03  0.61299139973E+02  0.27472430042E+03  0.51673917330E+03  0.40000000000E+03 0.  1.
<mgrwt>
<rscale>  2 0.43765961E+03</rscale>
<asrwt>0</asrwt>
<pdfrwt beam="1">  1       21 0.13887980E+00 0.43765961E+03</pdfrwt>
<pdfrwt beam="2">  1       21 0.33147773E-01 0.43765961E+03</pdfrwt>
<totfact> 0.27770144E+03</totfact>
</mgrwt>
</event>
<event>
 4    1  0.1187342E-002  0.4322376E+03  0.7818608E-02  0.1033155E+00
         21   -1    0    0  503  502  0.00000000000E+00  0.00000000000E+00  0.20305977739E+03  0.20305977739E+03  0.00000000000E+00 0. -1.
         21   -1    0    0  501  503 -0.00000000000E+00 -0.00000000000E+00 -0.10692451659E+04  0.10692451659E+04  0.00000000000E+00 0. -1.
    9000007    1    1    2  501    0  0.14797109849E+03  0.70241605979E+02 -0.67070557353E+03  0.79791935405E+03  0.40000000000E+03 0. -1.
   -9000007    1    1    2    0  502 -0.14797109849E+03 -0.70241605979E+02 -0.19547981493E+03  0.47438558920E+03  0.40000000000E+03 0. -1.
<mgrwt>
<rscale>  2 0.43223758E+03</rscale>
<asrwt>0</asrwt>
<pdfrwt beam="1">  1       21 0.31239966E-01 0.43223758E+03</pdfrwt>
<pdfrwt beam="2">  1       21 0.16449926E+00 0.43223758E+03</pdfrwt>
<totfact> 0.19754911E+03</totfact>
</mgrwt>
</event>
<event>
 4    1  0.1187342E-002  0.4003811E+03  0.7818608E-02  0.1043648E+00
         21   -1    0    0  501  502  0.00000000000E+00  0.00000000000E+00  0.16131482685E+03  0.16131482685E+03  0.00000000000E+00 0. -1.
         21   -1    0    0  502  503 -0.00000000000E+00 -0.00000000000E+00 -0.10498446798E+04  0.10498446798E+04  0.00000000000E+00 0. -1.
    9000007    1    1    2  501    0 -0.19172700622E+01  0.17359339920E+02 -0.30427147296E+03  0.50287786973E+03  0.40000000000E+03 0. -1.
   -9000007    1    1    2    0  503  0.19172700622E+01 -0.17359339920E+02 -0.58425837997E+03  0.70828163690E+03  0.40000000000E+03 0. -1.
<mgrwt>
<rscale>  2 0.40038110E+03</rscale>
<asrwt>0</asrwt>
<pdfrwt beam="1">  1       21 0.24817665E-01 0.40038110E+03</pdfrwt>
<pdfrwt beam="2">  1       21 0.16151457E+00 0.40038110E+03</pdfrwt>
<totfact> 0.33140682E+03</totfact>
</mgrwt>
</event>
<event>
 4    1  0.1187342E-002  0.4056875E+03  0.7818608E-02  0.1041828E+00
         21   -1    0    0  501  502  0.00000000000E+00  0.00000000000E+00  0.90814237918E+03  0.90814237918E+03  0.00000000000E+00 0. -1.
         21   -1    0    0  502  503 -0.00000000000E+00 -0.00000000000E+00 -0.29897741997E+03  0.29897741997E+03  0.00000000000E+00 0. -1.
    9000007    1    1    2  501    0  0.35534190410E+02  0.57616777931E+02  0.68335410197E+03  0.79470447367E+03  0.40000000000E+03 0. -1.
   -9000007    1    1    2    0  503 -0.35534190410E+02 -0.57616777931E+02 -0.74189142767E+02  0.41241532548E+03  0.40000000000E+03 0. -1.
<mgrwt>
<rscale>  2 0.40568753E+03</rscale>
<asrwt>0</asrwt>
<pdfrwt beam="1">  1       21 0.13971421E+00 0.40568753E+03</pdfrwt>
<pdfrwt beam="2">  1       21 0.45996527E-01 0.40568753E+03</pdfrwt>
<totfact> 0.14146687E+03</totfact>
</mgrwt>
</event>
<event>
 4    1  0.1187342E-002  0.4715398E+03  0.7818608E-02  0.1021487E+00
         21   -1    0    0  503  502  0.00000000000E+00  0.00000000000E+00  0.36271428354E+03  0.36271428354E+03  0.00000000000E+00 0.  1.
         21   -1    0    0  501  503 -0.00000000000E+00 -0.00000000000E+00 -0.68417299296E+03  0.68417299296E+03  0.00000000000E+00 0.  1.
    9000007    1    1    2  501    0  0.23318832528E+03  0.89291630356E+02 -0.32953798780E+03  0.57527825937E+03  0.40000000000E+03 0.  1.
   -9000007    1    1    2    0  502 -0.23318832528E+03 -0.89291630356E+02  0.80792783767E+01  0.47160901713E+03  0.40000000000E+03 0.  1.
<mgrwt>
<rscale>  2 0.47153981E+03</rscale>
<asrwt>0</asrwt>
<pdfrwt beam="1">  1       21 0.55802198E-01 0.47153981E+03</pdfrwt>
<pdfrwt beam="2">  1       21 0.10525738E+00 0.47153981E+03</pdfrwt>
<totfact> 0.18767404E+03</totfact>
</mgrwt>
</event>
<event>
 4    1  0.1187342E-002  0.6347314E+03  0.7818608E-02  0.9835859E-01
         21   -1    0    0  503  502  0.00000000000E+00  0.00000000000E+00  0.75754971310E+03  0.75754971310E+03  0.00000000000E+00 0.  1.
         21   -1    0    0  501  503 -0.00000000000E+00 -0.00000000000E+00 -0.65071415769E+03  0.65071415769E+03  0.00000000000E+00 0. -1.
    9000007    1    1    2  501    0 -0.34762267245E+03 -0.34934564868E+03 -0.24755690852E+03  0.68129900015E+03  0.40000000000E+03 0. -1.
   -9000007    1    1    2    0  502  0.34762267245E+03  0.34934564868E+03  0.35439246392E+03  0.72696487064E+03  0.40000000000E+03 0. -1.
<mgrwt>
<rscale>  2 0.63473136E+03</rscale>
<asrwt>0</asrwt>
<pdfrwt beam="1">  1       21 0.11654611E+00 0.63473136E+03</pdfrwt>
<pdfrwt beam="2">  1       21 0.10010987E+00 0.63473136E+03</pdfrwt>
<totfact> 0.35962616E+02</totfact>
</mgrwt>
</event>
<event>
 4    1  0.1187342E-002  0.4234054E+03  0.7818608E-02  0.1035964E+00
         21   -1    0    0  503  502  0.00000000000E+00  0.00000000000E+00  0.27167611710E+03  0.27167611710E+03  0.00000000000E+00 0.  1.
         21   -1    0    0  501  503 -0.00000000000E+00 -0.00000000000E+00 -0.66160944036E+03  0.66160944036E+03  0.00000000000E+00 0.  1.
    9000007    1    1    2  501    0 -0.10624144171E+03 -0.89358124171E+02 -0.21886330306E+03  0.47662696495E+03  0.40000000000E+03 0. -1.
   -9000007    1    1    2    0  502  0.10624144171E+03  0.89358124171E+02 -0.17107002020E+03  0.45665859250E+03  0.40000000000E+03 0. -1.
<mgrwt>
<rscale>  2 0.42340538E+03</rscale>
<asrwt>0</asrwt>
<pdfrwt beam="1">  1       21 0.41796326E-01 0.42340538E+03</pdfrwt>
<pdfrwt beam="2">  1       21 0.10178607E+00 0.42340538E+03</pdfrwt>
<totfact> 0.38236884E+03</totfact>
</mgrwt>
</event>
<event>
 4    1  0.1187342E-002  0.5219954E+03  0.7818608E-02  0.1008192E+00
         21   -1    0    0  503  502  0.00000000000E+00  0.00000000000E+00  0.32359240996E+03  0.32359240996E+03  0.00000000000E+00 0.  1.
         21   -1    0    0  501  503 -0.00000000000E+00 -0.00000000000E+00 -0.89501532411E+03  0.89501532411E+03  0.00000000000E+00 0.  1.
    9000007    1    1    2  501    0 -0.33526348560E+03  0.88084080721E+01 -0.43394185319E+03  0.67881125858E+03  0.40000000000E+03 0.  1.
   -9000007    1    1    2    0  502  0.33526348560E+03 -0.88084080721E+01 -0.13748106095E+03  0.53979647548E+03  0.40000000000E+03 0.  1.
<mgrwt>
<rscale>  2 0.52199540E+03</rscale>
<asrwt>0</asrwt>
<pdfrwt beam="1">  1       21 0.49783449E-01 0.52199540E+03</pdfrwt>
<pdfrwt beam="2">  1       21 0.13769466E+00 0.52199540E+03</pdfrwt>
<totfact> 0.11873781E+03</totfact>
</mgrwt>
</event>
<event>
 4    1  0.1187342E-002  0.4287339E+03  0.7818608E-02  0.1034261E+00
         21   -1    0    0  501  502  0.00000000000E+00  0.00000000000E+00  0.31923350828E+03  0.31923350828E+03  0.00000000000E+00 0. -1.
         21   -1    0    0  502  503 -0.00000000000E+00 -0.00000000000E+00 -0.58714818503E+03  0.58714818503E+03  0.00000000000E+00 0. -1.
    9000007    1    1    2  501    0  0.16356451962E+02 -0.15344455066E+03 -0.70936561120E+02  0.43456272200E+03  0.40000000000E+03 0. -1.
   -9000007    1    1    2    0  503 -0.16356451962E+02  0.15344455066E+03 -0.19697811563E+03  0.47181897131E+03  0.40000000000E+03 0. -1.
<mgrwt>
<rscale>  2 0.42873391E+03</rscale>
<asrwt>0</asrwt>
<pdfrwt beam="1">  1       21 0.49112848E-01 0.42873391E+03</pdfrwt>
<pdfrwt beam="2">  1       21 0.90330489E-01 0.42873391E+03</pdfrwt>
<totfact> 0.36255615E+03</totfact>
</mgrwt>
</event>
<event>
 4    1  0.1187342E-002  0.5011995E+03  0.7818608E-02  0.1013466E+00
         21   -1    0    0  503  502  0.00000000000E+00  0.00000000000E+00  0.67280673111E+03  0.67280673111E+03  0.00000000000E+00 0. -1.
         21   -1    0    0  501  503 -0.00000000000E+00 -0.00000000000E+00 -0.37372752885E+03  0.37372752885E+03  0.00000000000E+00 0.  1.
    9000007    1    1    2  501    0 -0.19214394663E+03  0.23298417182E+03  0.13319005582E+03  0.51859474690E+03  0.40000000000E+03 0.  1.
   -9000007    1    1    2    0  502  0.19214394663E+03 -0.23298417182E+03  0.16588914644E+03  0.52793951306E+03  0.40000000000E+03 0.  1.
<mgrwt>
<rscale>  2 0.50119948E+03</rscale>
<asrwt>0</asrwt>
<pdfrwt beam="1">  1       21 0.10350873E+00 0.50119948E+03</pdfrwt>
<pdfrwt beam="2">  1       21 0.57496543E-01 0.50119948E+03</pdfrwt>
<totfact> 0.18135998E+03</totfact>
</mgrwt>
</event>
<event>
 4    1  0.1187342E-002  0.4759165E+03  0.7818608E-02  0.1020263E+00
         21   -1    0    0  503  502  0.00000000000E+00  0.00000000000E+00  0.55002829083E+03  0.55002829083E+03  0.00000000000E+00 0. -1.
         21   -1    0    0  501  503 -0.00000000000E+00 -0.00000000000E+00 -0.43754942112E+03  0.43754942112E+03  0.00000000000E+00 0. -1.
    9000007    1    1    2  501    0 -0.21521585796E+03 -0.14205156344E+03 -0.63569780591E+02  0.48014334234E+03  0.40000000000E+03 0. -1.
   -9000007    1    1    2    0  502  0.21521585796E+03  0.14205156344E+03  0.17604865030E+03  0.50743436961E+03  0.40000000000E+03 0. -1.
<mgrwt>
<rscale>  2 0.47591650E+03</rscale>
<asrwt>0</asrwt>
<pdfrwt beam="1">  1       21 0.84619736E-01 0.47591650E+03</pdfrwt>
<pdfrwt beam="2">  1       21 0.67315296E-01 0.47591650E+03</pdfrwt>
<totfact> 0.20930032E+03</totfact>
</mgrwt>
</event>
<event>
 4    1  0.1187342E-002  0.4734002E+03  0.7818608E-02  0.1020965E+00
         21   -1    0    0  503  502  0.00000000000E+00  0.00000000000E+00  0.28154087816E+03  0.28154087816E+03  0.00000000000E+00 0.  1.
         21   -1    0    0  501  503 -0.00000000000E+00 -0.00000000000E+00 -0.84389498518E+03  0.84389498518E+03  0.00000000000E+00 0.  1.
    9000007    1    1    2  501    0  0.95374147853E+02 -0.23454529265E+03 -0.14712529485E+03  0.49573538785E+03  0.40000000000E+03 0.  1.
   -9000007    1    1    2    0  502 -0.95374147853E+02  0.23454529265E+03 -0.41522881217E+03  0.62970047549E+03  0.40000000000E+03 0.  1.
<mgrwt>
<rscale>  2 0.47340017E+03</rscale>
<asrwt>0</asrwt>
<pdfrwt beam="1">  1       21 0.43313982E-01 0.47340017E+03</pdfrwt>
<pdfrwt beam="2">  1       21 0.12983000E+00 0.47340017E+03</pdfrwt>
<totfact> 0.18909422E+03</totfact>
</mgrwt>
</event>
<event>
 4    1  0.1187342E-002  0.4421531E+03  0.7818608E-02  0.1030088E+00
         21   -1    0    0  501  502  0.00000000000E+00  0.00000000000E+00  0.15927494906E+03  0.15927494906E+03  0.00000000000E+00 0.  1.
         21   -1    0    0  502  503 -0.00000000000E+00 -0.00000000000E+00 -0.13667743660E+04  0.13667743660E+04  0.00000000000E+00 0. -1.
    9000007    1    1    2  501    0  0.18840315678E+03 -0.19070842062E+01 -0.84737906907E+03  0.95579844798E+03  0.40000000000E+03 0. -1.
   -9000007    1    1    2    0  503 -0.18840315678E+03  0.19070842062E+01 -0.36012034787E+03  0.57025086708E+03  0.40000000000E+03 0.  1.
<mgrwt>
<rscale>  2 0.44215313E+03</rscale>
<asrwt>0</asrwt>
<pdfrwt beam="1">  1       21 0.24503838E-01 0.44215313E+03</pdfrwt>
<pdfrwt beam="2">  1       21 0.21027298E+00 0.44215313E+03</pdfrwt>
<totfact> 0.15309555E+03</totfact>
</mgrwt>
</event>
<event>
 4    1  0.1187342E-002  0.4540560E+03  0.7818608E-02  0.1026519E+00
         21   -1    0    0  501  502  0.00000000000E+00  0.00000000000E+00  0.58087714617E+03  0.58087714617E+03  0.00000000000E+00 0. -1.
         21   -1    0    0  502  503 -0.00000000000E+00 -0.00000000000E+00 -0.36922435621E+03  0.36922435621E+03  0.00000000000E+00 0. -1.
    9000007    1    1    2  501    0  0.57888219202E+02  0.20691989678E+03  0.12333753246E+02  0.45422352545E+03  0.40000000000E+03 0. -1.
   -9000007    1    1    2    0  503 -0.57888219202E+02 -0.20691989678E+03  0.19931903672E+03  0.49587797693E+03  0.40000000000E+03 0. -1.
<mgrwt>
<rscale>  2 0.45405604E+03</rscale>
<asrwt>0</asrwt>
<pdfrwt beam="1">  1       21 0.89365714E-01 0.45405604E+03</pdfrwt>
<pdfrwt beam="2">  1       21 0.56803747E-01 0.45405604E+03</pdfrwt>
<totfact> 0.26975239E+03</totfact>
</mgrwt>
</event>
<event>
 4    1  0.1187342E-002  0.8490616E+03  0.7818608E-02  0.9491597E-01
         21   -1    0    0  501  502  0.00000000000E+00  0.00000000000E+00  0.15606392553E+04  0.15606392553E+04  0.00000000000E+00 0. -1.
         21   -1    0    0  502  503 -0.00000000000E+00 -0.00000000000E+00 -0.47915651401E+03  0.47915651401E+03  0.00000000000E+00 0.  1.
    9000007    1    1    2  501    0 -0.12847456432E+01 -0.74893515892E+03  0.73412570240E+03  0.11224286480E+04  0.40000000000E+03 0.  1.
   -9000007    1    1    2    0  503  0.12847456432E+01  0.74893515892E+03  0.34735703887E+03  0.91736712132E+03  0.40000000000E+03 0. -1.
<mgrwt>
<rscale>  2 0.84906155E+03</rscale>
<asrwt>0</asrwt>
<pdfrwt beam="1">  1       21 0.24009835E+00 0.84906155E+03</pdfrwt>
<pdfrwt beam="2">  1       21 0.73716387E-01 0.84906155E+03</pdfrwt>
<totfact> 0.83754767E+01</totfact>
</mgrwt>
</event>
<event>
 4    1  0.1187342E-002  0.4424708E+03  0.7818608E-02  0.1029991E+00
         21   -1    0    0  503  502  0.00000000000E+00  0.00000000000E+00  0.14465010940E+04  0.14465010940E+04  0.00000000000E+00 0. -1.
         21   -1    0    0  501  503 -0.00000000000E+00 -0.00000000000E+00 -0.22872510632E+03  0.22872510632E+03  0.00000000000E+00 0. -1.
    9000007    1    1    2  501    0  0.12824927530E+03 -0.13904149503E+03  0.73698304282E+02  0.44856644325E+03  0.40000000000E+03 0. -1.
   -9000007    1    1    2    0  502 -0.12824927530E+03  0.13904149503E+03  0.11440776834E+04  0.12266597571E+04  0.40000000000E+03 0. -1.
<mgrwt>
<rscale>  2 0.44247081E+03</rscale>
<asrwt>0</asrwt>
<pdfrwt beam="1">  1       21 0.22253862E+00 0.44247081E+03</pdfrwt>
<pdfrwt beam="2">  1       21 0.35188479E-01 0.44247081E+03</pdfrwt>
<totfact> 0.62302820E+02</totfact>
</mgrwt>
</event>
<event>
 4    1  0.1187342E-002  0.6138868E+03  0.7818608E-02  0.9877007E-01
         21   -1    0    0  503  502  0.00000000000E+00  0.00000000000E+00  0.51269805032E+03  0.51269805032E+03  0.00000000000E+00 0. -1.
         21   -1    0    0  501  503 -0.00000000000E+00 -0.00000000000E+00 -0.86718369044E+03  0.86718369044E+03  0.00000000000E+00 0.  1.
    9000007    1    1    2  501    0  0.38623039656E+03  0.26015962754E+03  0.92077248330E+02  0.62075371178E+03  0.40000000000E+03 0. -1.
   -9000007    1    1    2    0  502 -0.38623039656E+03 -0.26015962754E+03 -0.44656288845E+03  0.75912802897E+03  0.40000000000E+03 0.  1.
<mgrwt>
<rscale>  2 0.61388676E+03</rscale>
<asrwt>0</asrwt>
<pdfrwt beam="1">  1       21 0.78876623E-01 0.61388676E+03</pdfrwt>
<pdfrwt beam="2">  1       21 0.13341288E+00 0.61388676E+03</pdfrwt>
<totfact> 0.45003149E+02</totfact>
</mgrwt>
</event>
<event>
 4    1  0.1187342E-002  0.4106792E+03  0.7818608E-02  0.1040143E+00
         21   -1    0    0  501  502  0.00000000000E+00  0.00000000000E+00  0.17535831793E+04  0.17535831793E+04  0.00000000000E+00 0.  1.
         21   -1    0    0  502  503 -0.00000000000E+00 -0.00000000000E+00 -0.10741045758E+03  0.10741045758E+03  0.00000000000E+00 0.  1.
    9000007    1    1    2  501    0 -0.61876003676E+02 -0.69489063120E+02  0.11239815597E+04  0.11966586465E+04  0.40000000000E+03 0. -1.
   -9000007    1    1    2    0  503  0.61876003676E+02  0.69489063120E+02  0.52219116194E+03  0.66433499030E+03  0.40000000000E+03 0. -1.
<mgrwt>
<rscale>  2 0.41067916E+03</rscale>
<asrwt>0</asrwt>
<pdfrwt beam="1">  1       21 0.26978201E+00 0.41067916E+03</pdfrwt>
<pdfrwt beam="2">  1       21 0.16524687E-01 0.41067916E+03</pdfrwt>
<totfact> 0.14035042E+03</totfact>
</mgrwt>
</event>
<event>
 4    1  0.1187342E-002  0.5081574E+03  0.7818608E-02  0.1011671E+00
         21   -1    0    0  501  502  0.00000000000E+00  0.00000000000E+00  0.54976371506E+03  0.54976371506E+03  0.00000000000E+00 0. -1.
         21   -1    0    0  502  503 -0.00000000000E+00 -0.00000000000E+00 -0.71425727460E+03  0.71425727460E+03  0.00000000000E+00 0. -1.
    9000007    1    1    2  501    0 -0.24144939865E+03 -0.19981517720E+03  0.28757067731E+03  0.58388424503E+03  0.40000000000E+03 0. -1.
   -9000007    1    1    2    0  503  0.24144939865E+03  0.19981517720E+03 -0.45206423685E+03  0.68013674462E+03  0.40000000000E+03 0. -1.
<mgrwt>
<rscale>  2 0.50815737E+03</rscale>
<asrwt>0</asrwt>
<pdfrwt beam="1">  1       21 0.84579033E-01 0.50815737E+03</pdfrwt>
<pdfrwt beam="2">  1       21 0.10988573E+00 0.50815737E+03</pdfrwt>
<totfact> 0.65255287E+02</totfact>
</mgrwt>
</event>
<event>
 4    1  0.1187342E-002  0.4039973E+03  0.7818608E-02  0.1042404E+00
         21   -1    0    0  503  502  0.00000000000E+00  0.00000000000E+00  0.60156186685E+03  0.60156186685E+03  0.00000000000E+00 0.  1.
         21   -1    0    0  501  503 -0.00000000000E+00 -0.00000000000E+00 -0.48397709678E+03  0.48397709678E+03  0.00000000000E+00 0.  1.
    9000007    1    1    2  501    0  0.43805547314E+01 -0.56521071039E+02 -0.30099526964E+03  0.50379755168E+03  0.40000000000E+03 0.  1.
   -9000007    1    1    2    0  502 -0.43805547314E+01  0.56521071039E+02  0.41858003971E+03  0.58174141195E+03  0.40000000000E+03 0.  1.
<mgrwt>
<rscale>  2 0.40399730E+03</rscale>
<asrwt>0</asrwt>
<pdfrwt beam="1">  1       21 0.92547980E-01 0.40399730E+03</pdfrwt>
<pdfrwt beam="2">  1       21 0.74458015E-01 0.40399730E+03</pdfrwt>
<totfact> 0.13885364E+03</totfact>
</mgrwt>
</event>
<event>
 4    1  0.1187342E-002  0.4312462E+03  0.7818608E-02  0.1033467E+00
         21   -1    0    0  503  502  0.00000000000E+00  0.00000000000E+00  0.35567810440E+03  0.35567810440E+03  0.00000000000E+00 0. -1.
         21   -1    0    0  501  503 -0.00000000000E+00 -0.00000000000E+00 -0.72789245717E+03  0.72789245717E+03  0.00000000000E+00 0.  1.
    9000007    1    1    2  501    0  0.88907572221E+02  0.13441998921E+03 -0.47364479296E+03  0.64055653911E+03  0.40000000000E+03 0.  1.
   -9000007    1    1    2    0  502 -0.88907572221E+02 -0.13441998921E+03  0.10143044019E+03  0.44301402246E+03  0.40000000000E+03 0. -1.
<mgrwt>
<rscale>  2 0.43124621E+03</rscale>
<asrwt>0</asrwt>
<pdfrwt beam="1">  1       21 0.54719709E-01 0.43124621E+03</pdfrwt>
<pdfrwt beam="2">  1       21 0.11198345E+00 0.43124621E+03</pdfrwt>
<totfact> 0.17057260E+03</totfact>
</mgrwt>
</event>
<event>
 4    1  0.1187342E-002  0.5536368E+03  0.7818608E-02  0.1000656E+00
         21   -1    0    0  501  502  0.00000000000E+00  0.00000000000E+00  0.27785081703E+03  0.27785081703E+03  0.00000000000E+00 0. -1.
         21   -1    0    0  502  503 -0.00000000000E+00 -0.00000000000E+00 -0.12109673168E+04  0.12109673168E+04  0.00000000000E+00 0. -1.
    9000007    1    1    2  501    0  0.34089752463E+03  0.17407638629E+03 -0.24444677910E+03  0.60520074221E+03  0.40000000000E+03 0. -1.
   -9000007    1    1    2    0  503 -0.34089752463E+03 -0.17407638629E+03 -0.68866972063E+03  0.88361739156E+03  0.40000000000E+03 0. -1.
<mgrwt>
<rscale>  2 0.55363680E+03</rscale>
<asrwt>0</asrwt>
<pdfrwt beam="1">  1       21 0.42746278E-01 0.55363680E+03</pdfrwt>
<pdfrwt beam="2">  1       21 0.18630267E+00 0.55363680E+03</pdfrwt>
<totfact> 0.69253669E+02</totfact>
</mgrwt>
</event>
<event>
 4    1  0.1187342E-002  0.6271294E+03  0.7818608E-02  0.9850667E-01
         21   -1    0    0  501  502  0.00000000000E+00  0.00000000000E+00  0.53886116109E+03  0.53886116109E+03  0.00000000000E+00 0.  1.
         21   -1    0    0  502  503 -0.00000000000E+00 -0.00000000000E+00 -0.75588505011E+03  0.75588505011E+03  0.00000000000E+00 0.  1.
    9000007    1    1    2  501    0  0.21894541688E+03 -0.43052774249E+03  0.11618513276E+02  0.62723697474E+03  0.40000000000E+03 0.  1.
   -9000007    1    1    2    0  503 -0.21894541688E+03  0.43052774249E+03 -0.22864240229E+03  0.66750923646E+03  0.40000000000E+03 0.  1.
<mgrwt>
<rscale>  2 0.62712936E+03</rscale>
<asrwt>0</asrwt>
<pdfrwt beam="1">  1       21 0.82901717E-01 0.62712936E+03</pdfrwt>
<pdfrwt beam="2">  1       21 0.11629001E+00 0.62712936E+03</pdfrwt>
<totfact> 0.56956208E+02</totfact>
</mgrwt>
</event>
<event>
 4    1  0.1187342E-002  0.4080095E+03  0.7818608E-02  0.1041041E+00
         21   -1    0    0  501  502  0.00000000000E+00  0.00000000000E+00  0.22418009294E+03  0.22418009294E+03  0.00000000000E+00 0. -1.
         21   -1    0    0  502  503 -0.00000000000E+00 -0.00000000000E+00 -0.11416124060E+04  0.11416124060E+04  0.00000000000E+00 0. -1.
    9000007    1    1    2  501    0  0.29416822099E+02  0.74875988708E+02 -0.54978549296E+02  0.41169698079E+03  0.40000000000E+03 0. -1.
   -9000007    1    1    2    0  503 -0.29416822099E+02 -0.74875988708E+02 -0.86245376375E+03  0.95409551813E+03  0.40000000000E+03 0. -1.
<mgrwt>
<rscale>  2 0.40800951E+03</rscale>
<asrwt>0</asrwt>
<pdfrwt beam="1">  1       21 0.34489245E-01 0.40800951E+03</pdfrwt>
<pdfrwt beam="2">  1       21 0.17563268E+00 0.40800951E+03</pdfrwt>
<totfact> 0.13594579E+03</totfact>
</mgrwt>
</event>
<event>
 4    1  0.1187342E-002  0.5614453E+03  0.7818608E-02  0.9988790E-01
         21   -1    0    0  501  502  0.00000000000E+00  0.00000000000E+00  0.84770803202E+03  0.84770803202E+03  0.00000000000E+00 0. -1.
         21   -1    0    0  502  503 -0.00000000000E+00 -0.00000000000E+00 -0.39429327420E+03  0.39429327420E+03  0.00000000000E+00 0.  1.
    9000007    1    1    2  501    0  0.98617755466E+02 -0.38143850492E+03  0.37486331403E+03  0.67508762315E+03  0.40000000000E+03 0. -1.
   -9000007    1    1    2    0  503 -0.98617755466E+02  0.38143850492E+03  0.78551443801E+02  0.56691368307E+03  0.40000000000E+03 0.  1.
<mgrwt>
<rscale>  2 0.56144527E+03</rscale>
<asrwt>0</asrwt>
<pdfrwt beam="1">  1       21 0.13041662E+00 0.56144527E+03</pdfrwt>
<pdfrwt beam="2">  1       21 0.60660504E-01 0.56144527E+03</pdfrwt>
<totfact> 0.88033138E+02</totfact>
</mgrwt>
</event>
<event>
 4    1  0.1187342E-002  0.4001558E+03  0.7818608E-02  0.1043726E+00
         21   -1    0    0  503  502  0.00000000000E+00  0.00000000000E+00  0.82437633817E+03  0.82437633817E+03  0.00000000000E+00 0. -1.
         21   -1    0    0  501  503 -0.00000000000E+00 -0.00000000000E+00 -0.24739494660E+03  0.24739494660E+03  0.00000000000E+00 0. -1.
    9000007    1    1    2  501    0  0.95004185586E+01  0.58676729355E+01  0.40086276855E+02  0.40215867158E+03  0.40000000000E+03 0. -1.
   -9000007    1    1    2    0  502 -0.95004185586E+01 -0.58676729355E+01  0.53689511472E+03  0.66961261319E+03  0.40000000000E+03 0. -1.
<mgrwt>
<rscale>  2 0.40015583E+03</rscale>
<asrwt>0</asrwt>
<pdfrwt beam="1">  1       21 0.12682713E+00 0.40015583E+03</pdfrwt>
<pdfrwt beam="2">  1       21 0.38060761E-01 0.40015583E+03</pdfrwt>
<totfact> 0.26997220E+03</totfact>
</mgrwt>
</event>
<event>
 4    1  0.1187342E-002  0.4668993E+03  0.7818608E-02  0.1022799E+00
         21   -1    0    0  501  502  0.00000000000E+00  0.00000000000E+00  0.24897036217E+03  0.24897036217E+03  0.00000000000E+00 0.  1.
         21   -1    0    0  502  503 -0.00000000000E+00 -0.00000000000E+00 -0.87671608829E+03  0.87671608829E+03  0.00000000000E+00 0.  1.
    9000007    1    1    2  501    0  0.22839095406E+03 -0.76371057418E+02 -0.33408033578E+03  0.57411204225E+03  0.40000000000E+03 0.  1.
   -9000007    1    1    2    0  503 -0.22839095406E+03  0.76371057418E+02 -0.29366539034E+03  0.55157440821E+03  0.40000000000E+03 0.  1.
<mgrwt>
<rscale>  2 0.46689931E+03</rscale>
<asrwt>0</asrwt>
<pdfrwt beam="1">  1       21 0.38303132E-01 0.46689931E+03</pdfrwt>
<pdfrwt beam="2">  1       21 0.13487940E+00 0.46689931E+03</pdfrwt>
<totfact> 0.22125488E+03</totfact>
</mgrwt>
</event>
<event>
 4    1  0.1187342E-002  0.4837900E+03  0.7818608E-02  0.1018099E+00
         21   -1    0    0  501  502  0.00000000000E+00  0.00000000000E+00  0.11836599111E+04  0.11836599111E+04  0.00000000000E+00 0.  1.
         21   -1    0    0  502  503 -0.00000000000E+00 -0.00000000000E+00 -0.20310576420E+03  0.20310576420E+03  0.00000000000E+00 0. -1.
    9000007    1    1    2  501    0 -0.27030328957E+03 -0.31446281744E+02  0.60301509542E+03  0.77309762792E+03  0.40000000000E+03 0.  1.
   -9000007    1    1    2    0  503  0.27030328957E+03  0.31446281744E+02  0.37753905148E+03  0.61366804738E+03  0.40000000000E+03 0. -1.
<mgrwt>
<rscale>  2 0.48378997E+03</rscale>
<asrwt>0</asrwt>
<pdfrwt beam="1">  1       21 0.18210152E+00 0.48378997E+03</pdfrwt>
<pdfrwt beam="2">  1       21 0.31247041E-01 0.48378997E+03</pdfrwt>
<totfact> 0.14433280E+03</totfact>
</mgrwt>
</event>
<event>
 4    1  0.1187342E-002  0.4062081E+03  0.7818608E-02  0.1041651E+00
         21   -1    0    0  501  502  0.00000000000E+00  0.00000000000E+00  0.71968743498E+03  0.71968743498E+03  0.00000000000E+00 0.  1.
         21   -1    0    0  502  503 -0.00000000000E+00 -0.00000000000E+00 -0.30597622164E+03  0.30597622164E+03  0.00000000000E+00 0.  1.
    9000007    1    1    2  501    0  0.24967936833E+02  0.66193546266E+02 -0.49910441111E+02  0.40926279524E+03  0.40000000000E+03 0.  1.
   -9000007    1    1    2    0  503 -0.24967936833E+02 -0.66193546266E+02  0.46362165444E+03  0.61640086138E+03  0.40000000000E+03 0.  1.
<mgrwt>
<rscale>  2 0.40620805E+03</rscale>
<asrwt>0</asrwt>
<pdfrwt beam="1">  1       21 0.11072114E+00 0.40620805E+03</pdfrwt>
<pdfrwt beam="2">  1       21 0.47073265E-01 0.40620805E+03</pdfrwt>
<totfact> 0.24418898E+03</totfact>
</mgrwt>
</event>
<event>
 4    1  0.1187342E-002  0.4273433E+03  0.7818608E-02  0.1034702E+00
         21   -1    0    0  501  502  0.00000000000E+00  0.00000000000E+00  0.11949098764E+03  0.11949098764E+03  0.00000000000E+00 0.  1.
         21   -1    0    0  502  503 -0.00000000000E+00 -0.00000000000E+00 -0.15342940525E+04  0.15342940525E+04  0.00000000000E+00 0.  1.
    9000007    1    1    2  501    0  0.29033087154E+02 -0.14757841500E+03 -0.65587059069E+03  0.78280811215E+03  0.40000000000E+03 0.  1.
   -9000007    1    1    2    0  503 -0.29033087154E+02  0.14757841500E+03 -0.75893247414E+03  0.87097692796E+03  0.40000000000E+03 0.  1.
<mgrwt>
<rscale>  2 0.42734331E+03</rscale>
<asrwt>0</asrwt>
<pdfrwt beam="1">  1       21 0.18383230E-01 0.42734331E+03</pdfrwt>
<pdfrwt beam="2">  1       21 0.23604522E+00 0.42734331E+03</pdfrwt>
<totfact> 0.18319049E+03</totfact>
</mgrwt>
</event>
<event>
 4    1  0.1187342E-002  0.5609453E+03  0.7818608E-02  0.9989918E-01
         21   -1    0    0  503  502  0.00000000000E+00  0.00000000000E+00  0.16965219087E+03  0.16965219087E+03  0.00000000000E+00 0.  1.
         21   -1    0    0  501  503 -0.00000000000E+00 -0.00000000000E+00 -0.22169901868E+04  0.22169901868E+04  0.00000000000E+00 0.  1.
    9000007    1    1    2  501    0  0.35296239342E+03  0.17342771423E+03 -0.15060426702E+04  0.16071167187E+04  0.40000000000E+03 0.  1.
   -9000007    1    1    2    0  502 -0.35296239342E+03 -0.17342771423E+03 -0.54129532572E+03  0.77952565890E+03  0.40000000000E+03 0.  1.
<mgrwt>
<rscale>  2 0.56094529E+03</rscale>
<asrwt>0</asrwt>
<pdfrwt beam="1">  1       21 0.26100338E-01 0.56094529E+03</pdfrwt>
<pdfrwt beam="2">  1       21 0.34107540E+00 0.56094529E+03</pdfrwt>
<totfact> 0.20022719E+02</totfact>
</mgrwt>
</event>
<event>
 4    1  0.1187342E-002  0.5476649E+03  0.7818608E-02  0.1002036E+00
         21   -1    0    0  503  502  0.00000000000E+00  0.00000000000E+00  0.34270272336E+03  0.34270272336E+03  0.00000000000E+00 0. -1.
         21   -1    0    0  501  503 -0.00000000000E+00 -0.00000000000E+00 -0.99816995082E+03  0.99816995082E+03  0.00000000000E+00 0. -1.
    9000007    1    1    2  501    0 -0.46541056685E+02 -0.37117488853E+03 -0.56304180739E+03  0.78546352220E+03  0.40000000000E+03 0. -1.
   -9000007    1    1    2    0  502  0.46541056685E+02  0.37117488853E+03 -0.92425420065E+02  0.55540915199E+03  0.40000000000E+03 0. -1.
<mgrwt>
<rscale>  2 0.54766492E+03</rscale>
<asrwt>0</asrwt>
<pdfrwt beam="1">  1       21 0.52723497E-01 0.54766492E+03</pdfrwt>
<pdfrwt beam="2">  1       21 0.15356461E+00 0.54766492E+03</pdfrwt>
<totfact> 0.77447847E+02</totfact>
</mgrwt>
</event>
<event>
 4    1  0.1187342E-002  0.5559274E+03  0.7818608E-02  0.1000131E+00
         21   -1    0    0  501  502  0.00000000000E+00  0.00000000000E+00  0.68790687910E+03  0.68790687910E+03  0.00000000000E+00 0. -1.
         21   -1    0    0  502  503 -0.00000000000E+00 -0.00000000000E+00 -0.59891610572E+03  0.59891610572E+03  0.00000000000E+00 0.  1.
    9000007    1    1    2  501    0  0.38474134335E+03 -0.32083399418E+02  0.36611309817E+03  0.66565309768E+03  0.40000000000E+03 0. -1.
   -9000007    1    1    2    0  503 -0.38474134335E+03  0.32083399418E+02 -0.27712232478E+03  0.62116988714E+03  0.40000000000E+03 0.  1.
<mgrwt>
<rscale>  2 0.55592737E+03</rscale>
<asrwt>0</asrwt>
<pdfrwt beam="1">  1       21 0.10583183E+00 0.55592737E+03</pdfrwt>
<pdfrwt beam="2">  1       21 0.92140939E-01 0.55592737E+03</pdfrwt>
<totfact> 0.57475786E+02</totfact>
</mgrwt>
</event>
<event>
 4    1  0.1187342E-002  0.4148831E+03  0.7818608E-02  0.1038745E+00
         21   -1    0    0  501  502  0.00000000000E+00  0.00000000000E+00  0.17482545692E+03  0.17482545692E+03  0.00000000000E+00 0.  1.
         21   -1    0    0  502  503 -0.00000000000E+00 -0.00000000000E+00 -0.99947087965E+03  0.99947087965E+03  0.00000000000E+00 0.  1.
    9000007    1    1    2  501    0 -0.98142303308E+02  0.49960566135E+02 -0.34063201859E+03  0.53680363445E+03  0.40000000000E+03 0.  1.
   -9000007    1    1    2    0  503  0.98142303308E+02 -0.49960566135E+02 -0.48401340414E+03  0.63749270212E+03  0.40000000000E+03 0.  1.
<mgrwt>
<rscale>  2 0.41488308E+03</rscale>
<asrwt>0</asrwt>
<pdfrwt beam="1">  1       21 0.26896225E-01 0.41488308E+03</pdfrwt>
<pdfrwt beam="2">  1       21 0.15376475E+00 0.41488308E+03</pdfrwt>
<totfact> 0.32254024E+03</totfact>
</mgrwt>
</event>
<event>
 4    1  0.1187342E-002  0.4163827E+03  0.7818608E-02  0.1038250E+00
         21   -1    0    0  503  502  0.00000000000E+00  0.00000000000E+00  0.12655098090E+04  0.12655098090E+04  0.00000000000E+00 0.  1.
         21   -1    0    0  501  503 -0.00000000000E+00 -0.00000000000E+00 -0.40414710663E+03  0.40414710663E+03  0.00000000000E+00 0.  1.
    9000007    1    1    2  501    0 -0.11560355036E+03  0.32188297635E+01 -0.24805786016E+03  0.48467230549E+03  0.40000000000E+03 0.  1.
   -9000007    1    1    2    0  502  0.11560355036E+03 -0.32188297635E+01  0.11094205626E+04  0.11849846102E+04  0.40000000000E+03 0.  1.
<mgrwt>
<rscale>  2 0.41638269E+03</rscale>
<asrwt>0</asrwt>
<pdfrwt beam="1">  1       21 0.19469381E+00 0.41638269E+03</pdfrwt>
<pdfrwt beam="2">  1       21 0.62176479E-01 0.41638269E+03</pdfrwt>
<totfact> 0.28944785E+02</totfact>
</mgrwt>
</event>
<event>
 4    1  0.1187342E-002  0.4373626E+03  0.7818608E-02  0.1031559E+00
         21   -1    0    0  503  502  0.00000000000E+00  0.00000000000E+00  0.27596145595E+03  0.27596145595E+03  0.00000000000E+00 0.  1.
         21   -1    0    0  501  503 -0.00000000000E+00 -0.00000000000E+00 -0.71877400627E+03  0.71877400627E+03  0.00000000000E+00 0. -1.
    9000007    1    1    2  501    0 -0.14134299051E+03 -0.10634004475E+03 -0.12752010023E+03  0.45557372844E+03  0.40000000000E+03 0. -1.
   -9000007    1    1    2    0  502  0.14134299051E+03  0.10634004475E+03 -0.31529245009E+03  0.53916173378E+03  0.40000000000E+03 0.  1.
<mgrwt>
<rscale>  2 0.43736260E+03</rscale>
<asrwt>0</asrwt>
<pdfrwt beam="1">  1       21 0.42455609E-01 0.43736260E+03</pdfrwt>
<pdfrwt beam="2">  1       21 0.11058062E+00 0.43736260E+03</pdfrwt>
<totfact> 0.30027982E+03</totfact>
</mgrwt>
</event>
<event>
 4    1  0.1187342E-002  0.4766498E+03  0.7818608E-02  0.1020060E+00
         21   -1    0    0  503  502  0.00000000000E+00  0.00000000000E+00  0.49449793220E+03  0.49449793220E+03  0.00000000000E+00 0. -1.
         21   -1    0    0  501  503 -0.00000000000E+00 -0.00000000000E+00 -0.61039986647E+03  0.61039986647E+03  0.00000000000E+00 0.  1.
    9000007    1    1    2  501    0 -0.21968941108E+03  0.13759214464E+03 -0.33268166973E+03  0.58126769133E+03  0.40000000000E+03 0.  1.
   -9000007    1    1    2    0  502  0.21968941108E+03 -0.13759214464E+03  0.21677973546E+03  0.52363010734E+03  0.40000000000E+03 0. -1.
<mgrwt>
<rscale>  2 0.47664980E+03</rscale>
<asrwt>0</asrwt>
<pdfrwt beam="1">  1       21 0.76076605E-01 0.47664980E+03</pdfrwt>
<pdfrwt beam="2">  1       21 0.93907671E-01 0.47664980E+03</pdfrwt>
<totfact> 0.12395494E+03</totfact>
</mgrwt>
</event>
<event>
 4    1  0.1187342E-002  0.5190084E+03  0.7818608E-02  0.1008933E+00
         21   -1    0    0  503  502  0.00000000000E+00  0.00000000000E+00  0.11560339074E+03  0.11560339074E+03  0.00000000000E+00 0.  1.
         21   -1    0    0  501  503 -0.00000000000E+00 -0.00000000000E+00 -0.23441717371E+04  0.23441717371E+04  0.00000000000E+00 0. -1.
    9000007    1    1    2  501    0  0.30892246436E+03 -0.11805349753E+03 -0.10190608936E+04  0.11436148050E+04  0.40000000000E+03 0. -1.
   -9000007    1    1    2    0  502 -0.30892246436E+03  0.11805349753E+03 -0.12095074528E+04  0.13161603229E+04  0.40000000000E+03 0.  1.
<mgrwt>
<rscale>  2 0.51900840E+03</rscale>
<asrwt>0</asrwt>
<pdfrwt beam="1">  1       21 0.17785139E-01 0.51900840E+03</pdfrwt>
<pdfrwt beam="2">  1       21 0.36064177E+00 0.51900840E+03</pdfrwt>
<totfact> 0.32399404E+02</totfact>
</mgrwt>
</event>
<event>
 4    1  0.1187342E-002  0.4042623E+03  0.7818608E-02  0.1042314E+00
         21   -1    0    0  503  502  0.00000000000E+00  0.00000000000E+00  0.98838208105E+02  0.98838208105E+02  0.00000000000E+00 0.  1.
         21   -1    0    0  501  503 -0.00000000000E+00 -0.00000000000E+00 -0.17333411670E+04  0.17333411670E+04  0.00000000000E+00 0.  1.
    9000007    1    1    2  501    0 -0.30939062756E+02  0.49707271679E+02 -0.10138748940E+04  0.10914991247E+04  0.40000000000E+03 0.  1.
   -9000007    1    1    2    0  502  0.30939062756E+02 -0.49707271679E+02 -0.62062806493E+03  0.74068025047E+03  0.40000000000E+03 0.  1.
<mgrwt>
<rscale>  2 0.40426234E+03</rscale>
<asrwt>0</asrwt>
<pdfrwt beam="1">  1       21 0.15205878E-01 0.40426234E+03</pdfrwt>
<pdfrwt beam="2">  1       21 0.26666788E+00 0.40426234E+03</pdfrwt>
<totfact> 0.17168750E+03</totfact>
</mgrwt>
</event>
<event>
 4    1  0.1187342E-002  0.5176751E+03  0.7818608E-02  0.1009266E+00
         21   -1    0    0  503  502  0.00000000000E+00  0.00000000000E+00  0.19949674091E+03  0.19949674091E+03  0.00000000000E+00 0.  1.
         21   -1    0    0  501  503 -0.00000000000E+00 -0.00000000000E+00 -0.16151202779E+04  0.16151202779E+04  0.00000000000E+00 0. -1.
    9000007    1    1    2  501    0 -0.25025833324E+03  0.21297486192E+03 -0.10800142350E+04  0.11976720223E+04  0.40000000000E+03 0. -1.
   -9000007    1    1    2    0  502  0.25025833324E+03 -0.21297486192E+03 -0.33560930201E+03  0.61694499654E+03  0.40000000000E+03 0.  1.
<mgrwt>
<rscale>  2 0.51767512E+03</rscale>
<asrwt>0</asrwt>
<pdfrwt beam="1">  1       21 0.30691806E-01 0.51767512E+03</pdfrwt>
<pdfrwt beam="2">  1       21 0.24848005E+00 0.51767512E+03</pdfrwt>
<totfact> 0.54419755E+02</totfact>
</mgrwt>
</event>
<event>
 4    1  0.1187342E-002  0.4100673E+03  0.7818608E-02  0.1040348E+00
         21   -1    0    0  501  502  0.00000000000E+00  0.00000000000E+00  0.68940505802E+03  0.68940505802E+03  0.00000000000E+00 0.  1.
         21   -1    0    0  502  503 -0.00000000000E+00 -0.00000000000E+00 -0.33481624798E+03  0.33481624798E+03  0.00000000000E+00 0.  1.
    9000007    1    1    2  501    0 -0.30063304907E+02  0.85155202945E+02 -0.89544418985E+02  0.41973016792E+03  0.40000000000E+03 0.  1.
   -9000007    1    1    2    0  503  0.30063304907E+02 -0.85155202945E+02  0.44413322903E+03  0.60449113808E+03  0.40000000000E+03 0.  1.
<mgrwt>
<rscale>  2 0.41006732E+03</rscale>
<asrwt>0</asrwt>
<pdfrwt beam="1">  1       21 0.10606232E+00 0.41006732E+03</pdfrwt>
<pdfrwt beam="2">  1       21 0.51510192E-01 0.41006732E+03</pdfrwt>
<totfact> 0.22400528E+03</totfact>
</mgrwt>
</event>
<event>
 4    1  0.1187342E-002  0.4255956E+03  0.7818608E-02  0.1035260E+00
         21   -1    0    0  503  502  0.00000000000E+00  0.00000000000E+00  0.62678735303E+03  0.62678735303E+03  0.00000000000E+00 0.  1.
         21   -1    0    0  501  503 -0.00000000000E+00 -0.00000000000E+00 -0.30201183481E+03  0.30201183481E+03  0.00000000000E+00 0.  1.
    9000007    1    1    2  501    0 -0.13497803524E+03  0.53967841381E+02  0.65935188798E+02  0.43067278417E+03  0.40000000000E+03 0.  1.
   -9000007    1    1    2    0  502  0.13497803524E+03 -0.53967841381E+02  0.25884032942E+03  0.49812640367E+03  0.40000000000E+03 0.  1.
<mgrwt>
<rscale>  2 0.42559558E+03</rscale>
<asrwt>0</asrwt>
<pdfrwt beam="1">  1       21 0.96428823E-01 0.42559558E+03</pdfrwt>
<pdfrwt beam="2">  1       21 0.46463359E-01 0.42559558E+03</pdfrwt>
<totfact> 0.34918565E+03</totfact>
</mgrwt>
</event>
<event>
 4    1  0.1187342E-002  0.4666237E+03  0.7818608E-02  0.1022877E+00
         21   -1    0    0  501  502  0.00000000000E+00  0.00000000000E+00  0.55776023176E+03  0.55776023176E+03  0.00000000000E+00 0. -1.
         21   -1    0    0  502  503 -0.00000000000E+00 -0.00000000000E+00 -0.49591961501E+03  0.49591961501E+03  0.00000000000E+00 0.  1.
    9000007    1    1    2  501    0 -0.22770402120E+03 -0.76736797956E+02  0.27396361866E+03  0.54110416907E+03  0.40000000000E+03 0.  1.
   -9000007    1    1    2    0  503  0.22770402120E+03  0.76736797956E+02 -0.21212300191E+03  0.51257567770E+03  0.40000000000E+03 0. -1.
<mgrwt>
<rscale>  2 0.46662368E+03</rscale>
<asrwt>0</asrwt>
<pdfrwt beam="1">  1       21 0.85809267E-01 0.46662368E+03</pdfrwt>
<pdfrwt beam="2">  1       21 0.76295325E-01 0.46662368E+03</pdfrwt>
<totfact> 0.15306885E+03</totfact>
</mgrwt>
</event>
<event>
 4    1  0.1187342E-002  0.5024227E+03  0.7818608E-02  0.1013148E+00
         21   -1    0    0  501  502  0.00000000000E+00  0.00000000000E+00  0.37660079301E+03  0.37660079301E+03  0.00000000000E+00 0. -1.
         21   -1    0    0  502  503 -0.00000000000E+00 -0.00000000000E+00 -0.75238632319E+03  0.75238632319E+03  0.00000000000E+00 0.  1.
    9000007    1    1    2  501    0  0.14930528750E+03 -0.26483292982E+03 -0.14168088384E+01  0.50242467788E+03  0.40000000000E+03 0. -1.
   -9000007    1    1    2    0  503 -0.14930528750E+03  0.26483292982E+03 -0.37436872135E+03  0.62656243832E+03  0.40000000000E+03 0.  1.
<mgrwt>
<rscale>  2 0.50242268E+03</rscale>
<asrwt>0</asrwt>
<pdfrwt beam="1">  1       21 0.57938585E-01 0.50242268E+03</pdfrwt>
<pdfrwt beam="2">  1       21 0.11575174E+00 0.50242268E+03</pdfrwt>
<totfact> 0.13500971E+03</totfact>
</mgrwt>
</event>
<event>
 4    1  0.1187342E-002  0.4338539E+03  0.7818608E-02  0.1032649E+00
         21   -1    0    0  501  502  0.00000000000E+00  0.00000000000E+00  0.58259773729E+03  0.58259773729E+03  0.00000000000E+00 0.  1.
         21   -1    0    0  502  503 -0.00000000000E+00 -0.00000000000E+00 -0.33005834377E+03  0.33005834377E+03  0.00000000000E+00 0.  1.
    9000007    1    1    2  501    0  0.14544516936E+03 -0.84112263045E+02  0.59945602820E+02  0.43797562191E+03  0.40000000000E+03 0.  1.
   -9000007    1    1    2    0  503 -0.14544516936E+03  0.84112263045E+02  0.19259379071E+03  0.47468045916E+03  0.40000000000E+03 0.  1.
<mgrwt>
<rscale>  2 0.43385386E+03</rscale>
<asrwt>0</asrwt>
<pdfrwt beam="1">  1       21 0.89630421E-01 0.43385386E+03</pdfrwt>
<pdfrwt beam="2">  1       21 0.50778207E-01 0.43385386E+03</pdfrwt>
<totfact> 0.34339288E+03</totfact>
</mgrwt>
</event>
<event>
 4    1  0.1187342E-002  0.5389481E+03  0.7818608E-02  0.1004085E+00
         21   -1    0    0  501  502  0.00000000000E+00  0.00000000000E+00  0.76699043937E+03  0.76699043937E+03  0.00000000000E+00 0. -1.
         21   -1    0    0  502  503 -0.00000000000E+00 -0.00000000000E+00 -0.64444018720E+03  0.64444018720E+03  0.00000000000E+00 0. -1.
    9000007    1    1    2  501    0 -0.33875927382E+03 -0.12532860786E+03  0.51444459715E+03  0.74506264776E+03  0.40000000000E+03 0. -1.
   -9000007    1    1    2    0  503  0.33875927382E+03  0.12532860786E+03 -0.39189434498E+03  0.66636797880E+03  0.40000000000E+03 0. -1.
<mgrwt>
<rscale>  2 0.53894815E+03</rscale>
<asrwt>0</asrwt>
<pdfrwt beam="1">  1       21 0.11799853E+00 0.53894815E+03</pdfrwt>
<pdfrwt beam="2">  1       21 0.99144644E-01 0.53894815E+03</pdfrwt>
<totfact> 0.36916443E+02</totfact>
</mgrwt>
</event>
<event>
 4    1  0.1187342E-002  0.5743662E+03  0.7818608E-02  0.9960063E-01
         21   -1    0    0  503  502  0.00000000000E+00  0.00000000000E+00  0.13640373785E+04  0.13640373785E+04  0.00000000000E+00 0.  1.
         21   -1    0    0  501  503 -0.00000000000E+00 -0.00000000000E+00 -0.24305971686E+03  0.24305971686E+03  0.00000000000E+00 0.  1.
    9000007    1    1    2  501    0  0.95273681849E+02 -0.40102298142E+03  0.50386988868E+03  0.76405586889E+03  0.40000000000E+03 0.  1.
   -9000007    1    1    2    0  502 -0.95273681849E+02  0.40102298142E+03  0.61710777300E+03  0.84304122650E+03  0.40000000000E+03 0.  1.
<mgrwt>
<rscale>  2 0.57436618E+03</rscale>
<asrwt>0</asrwt>
<pdfrwt beam="1">  1       21 0.20985190E+00 0.57436618E+03</pdfrwt>
<pdfrwt beam="2">  1       21 0.37393803E-01 0.57436618E+03</pdfrwt>
<totfact> 0.62799998E+02</totfact>
</mgrwt>
</event>
<event>
 4    1  0.1187342E-002  0.4132419E+03  0.7818608E-02  0.1039289E+00
         21   -1    0    0  501  502  0.00000000000E+00  0.00000000000E+00  0.11873395919E+04  0.11873395919E+04  0.00000000000E+00 0. -1.
         21   -1    0    0  502  503 -0.00000000000E+00 -0.00000000000E+00 -0.15040916749E+03  0.15040916749E+03  0.00000000000E+00 0. -1.
    9000007    1    1    2  501    0 -0.70893230074E+02 -0.75782877584E+02  0.65841234801E+03  0.77735173159E+03  0.40000000000E+03 0. -1.
   -9000007    1    1    2    0  503  0.70893230074E+02  0.75782877584E+02  0.37851807642E+03  0.56039702781E+03  0.40000000000E+03 0. -1.
<mgrwt>
<rscale>  2 0.41324193E+03</rscale>
<asrwt>0</asrwt>
<pdfrwt beam="1">  1       21 0.18266762E+00 0.41324193E+03</pdfrwt>
<pdfrwt beam="2">  1       21 0.23139873E-01 0.41324193E+03</pdfrwt>
<totfact> 0.26556841E+03</totfact>
</mgrwt>
</event>
<event>
 4    1  0.1187342E-002  0.4044182E+03  0.7818608E-02  0.1042260E+00
         21   -1    0    0  501  502  0.00000000000E+00  0.00000000000E+00  0.45597997832E+03  0.45597997832E+03  0.00000000000E+00 0. -1.
         21   -1    0    0  502  503 -0.00000000000E+00 -0.00000000000E+00 -0.36689578858E+03  0.36689578858E+03  0.00000000000E+00 0. -1.
    9000007    1    1    2  501    0  0.27152355870E+02  0.53073591188E+02 -0.17000303902E+02  0.40477532885E+03  0.40000000000E+03 0. -1.
   -9000007    1    1    2    0  503 -0.27152355870E+02 -0.53073591188E+02  0.10608449365E+03  0.41810043806E+03  0.40000000000E+03 0. -1.
<mgrwt>
<rscale>  2 0.40441817E+03</rscale>
<asrwt>0</asrwt>
<pdfrwt beam="1">  1       21 0.70150766E-01 0.40441817E+03</pdfrwt>
<pdfrwt beam="2">  1       21 0.56445506E-01 0.40441817E+03</pdfrwt>
<totfact> 0.48636565E+03</totfact>
</mgrwt>
</event>
<event>
 4    1  0.1187342E-002  0.4030124E+03  0.7818608E-02  0.1042742E+00
         21   -1    0    0  503  502  0.00000000000E+00  0.00000000000E+00  0.92258538847E+03  0.92258538847E+03  0.00000000000E+00 0. -1.
         21   -1    0    0  501  503 -0.00000000000E+00 -0.00000000000E+00 -0.17605861748E+03  0.17605861748E+03  0.00000000000E+00 0. -1.
    9000007    1    1    2  501    0  0.46212306726E+02 -0.16835840401E+02  0.37759188261E+03  0.55226320955E+03  0.40000000000E+03 0. -1.
   -9000007    1    1    2    0  502 -0.46212306726E+02  0.16835840401E+02  0.36893488838E+03  0.54638079640E+03  0.40000000000E+03 0. -1.
<mgrwt>
<rscale>  2 0.40301244E+03</rscale>
<asrwt>0</asrwt>
<pdfrwt beam="1">  1       21 0.14193621E+00 0.40301244E+03</pdfrwt>
<pdfrwt beam="2">  1       21 0.27085942E-01 0.40301244E+03</pdfrwt>
<totfact> 0.39663738E+03</totfact>
</mgrwt>
</event>
<event>
 4    1  0.1187342E-002  0.4131021E+03  0.7818608E-02  0.1039335E+00
         21   -1    0    0  503  502  0.00000000000E+00  0.00000000000E+00  0.84429989119E+03  0.84429989119E+03  0.00000000000E+00 0. -1.
         21   -1    0    0  501  503 -0.00000000000E+00 -0.00000000000E+00 -0.26796028611E+03  0.26796028611E+03  0.00000000000E+00 0. -1.
    9000007    1    1    2  501    0 -0.92042618567E+02 -0.46706631095E+02  0.12509950613E+02  0.41329148538E+03  0.40000000000E+03 0. -1.
   -9000007    1    1    2    0  502  0.92042618567E+02  0.46706631095E+02  0.56382965447E+03  0.69896869191E+03  0.40000000000E+03 0. -1.
<mgrwt>
<rscale>  2 0.41310211E+03</rscale>
<asrwt>0</asrwt>
<pdfrwt beam="1">  1       21 0.12989229E+00 0.41310211E+03</pdfrwt>
<pdfrwt beam="2">  1       21 0.41224660E-01 0.41310211E+03</pdfrwt>
<totfact> 0.21428651E+03</totfact>
</mgrwt>
</event>
<event>
 4    1  0.1187342E-002  0.4472364E+03  0.7818608E-02  0.1028549E+00
         21   -1    0    0  501  502  0.00000000000E+00  0.00000000000E+00  0.39315105365E+03  0.39315105365E+03  0.00000000000E+00 0.  1.
         21   -1    0    0  502  503 -0.00000000000E+00 -0.00000000000E+00 -0.60774294640E+03  0.60774294640E+03  0.00000000000E+00 0.  1.
    9000007    1    1    2  501    0  0.29262826359E+02  0.19789925841E+03  0.94667743384E+02  0.45714594073E+03  0.40000000000E+03 0. -1.
   -9000007    1    1    2    0  503 -0.29262826359E+02 -0.19789925841E+03 -0.30925963613E+03  0.54374805933E+03  0.40000000000E+03 0. -1.
<mgrwt>
<rscale>  2 0.44723644E+03</rscale>
<asrwt>0</asrwt>
<pdfrwt beam="1">  1       21 0.60484777E-01 0.44723644E+03</pdfrwt>
<pdfrwt beam="2">  1       21 0.93498915E-01 0.44723644E+03</pdfrwt>
<totfact> 0.21176410E+03</totfact>
</mgrwt>
</event>
<event>
 4    1  0.1187342E-002  0.4165784E+03  0.7818608E-02  0.1038186E+00
         21   -1    0    0  501  502  0.00000000000E+00  0.00000000000E+00  0.23921047368E+03  0.23921047368E+03  0.00000000000E+00 0.  1.
         21   -1    0    0  502  503 -0.00000000000E+00 -0.00000000000E+00 -0.73212684511E+03  0.73212684511E+03  0.00000000000E+00 0.  1.
    9000007    1    1    2  501    0  0.24745794741E+02  0.11368918968E+03 -0.20011209676E+03  0.46214979983E+03  0.40000000000E+03 0.  1.
   -9000007    1    1    2    0  503 -0.24745794741E+02 -0.11368918968E+03 -0.29280427467E+03  0.50918751897E+03  0.40000000000E+03 0.  1.
<mgrwt>
<rscale>  2 0.41657843E+03</rscale>
<asrwt>0</asrwt>
<pdfrwt beam="1">  1       21 0.36801611E-01 0.41657843E+03</pdfrwt>
<pdfrwt beam="2">  1       21 0.11263490E+00 0.41657843E+03</pdfrwt>
<totfact> 0.38775152E+03</totfact>
</mgrwt>
</event>
<event>
 4    1  0.1187342E-002  0.4613930E+03  0.7818608E-02  0.1024378E+00
         21   -1    0    0  501  502  0.00000000000E+00  0.00000000000E+00  0.53369544845E+03  0.53369544845E+03  0.00000000000E+00 0. -1.
         21   -1    0    0  502  503 -0.00000000000E+00 -0.00000000000E+00 -0.40284487390E+03  0.40284487390E+03  0.00000000000E+00 0. -1.
    9000007    1    1    2  501    0  0.22424059642E+03 -0.50986371927E+02  0.19002345046E+02  0.46178408842E+03  0.40000000000E+03 0. -1.
   -9000007    1    1    2    0  503 -0.22424059642E+03  0.50986371927E+02  0.11184822951E+03  0.47475623392E+03  0.40000000000E+03 0. -1.
<mgrwt>
<rscale>  2 0.46139295E+03</rscale>
<asrwt>0</asrwt>
<pdfrwt beam="1">  1       21 0.82106992E-01 0.46139295E+03</pdfrwt>
<pdfrwt beam="2">  1       21 0.61976135E-01 0.46139295E+03</pdfrwt>
<totfact> 0.27118903E+03</totfact>
</mgrwt>
</event>
<event>
 4    1  0.1187342E-002  0.4037731E+03  0.7818608E-02  0.1042481E+00
         21   -1    0    0  501  502  0.00000000000E+00  0.00000000000E+00  0.18008535665E+03  0.18008535665E+03  0.00000000000E+00 0.  1.
         21   -1    0    0  502  503 -0.00000000000E+00 -0.00000000000E+00 -0.97294739654E+03  0.97294739654E+03  0.00000000000E+00 0.  1.
    9000007    1    1    2  501    0  0.34006976718E+02 -0.43315980454E+02 -0.24442310073E+03  0.47199089059E+03  0.40000000000E+03 0.  1.
   -9000007    1    1    2    0  503 -0.34006976718E+02  0.43315980454E+02 -0.54843893915E+03  0.68104186259E+03  0.40000000000E+03 0.  1.
<mgrwt>
<rscale>  2 0.40377314E+03</rscale>
<asrwt>0</asrwt>
<pdfrwt beam="1">  1       21 0.27705440E-01 0.40377314E+03</pdfrwt>
<pdfrwt beam="2">  1       21 0.14968421E+00 0.40377314E+03</pdfrwt>
<totfact> 0.32889430E+03</totfact>
</mgrwt>
</event>
<event>
 4    1  0.1187342E-002  0.4084758E+03  0.7818608E-02  0.1040884E+00
         21   -1    0    0  501  502  0.00000000000E+00  0.00000000000E+00  0.33799044474E+03  0.33799044474E+03  0.00000000000E+00 0. -1.
         21   -1    0    0  502  503 -0.00000000000E+00 -0.00000000000E+00 -0.49815720709E+03  0.49815720709E+03  0.00000000000E+00 0. -1.
    9000007    1    1    2  501    0  0.31352636089E+02 -0.76612553550E+02 -0.11980489168E+03  0.42568260855E+03  0.40000000000E+03 0. -1.
   -9000007    1    1    2    0  503 -0.31352636089E+02  0.76612553550E+02 -0.40361870657E+02  0.41046504328E+03  0.40000000000E+03 0. -1.
<mgrwt>
<rscale>  2 0.40847579E+03</rscale>
<asrwt>0</asrwt>
<pdfrwt beam="1">  1       21 0.51998530E-01 0.40847579E+03</pdfrwt>
<pdfrwt beam="2">  1       21 0.76639570E-01 0.40847579E+03</pdfrwt>
<totfact> 0.47404590E+03</totfact>
</mgrwt>
</event>
<event>
 4    1  0.1187342E-002  0.4260407E+03  0.7818608E-02  0.1035118E+00
         21   -1    0    0  503  502  0.00000000000E+00  0.00000000000E+00  0.39893370594E+03  0.39893370594E+03  0.00000000000E+00 0. -1.
         21   -1    0    0  501  503 -0.00000000000E+00 -0.00000000000E+00 -0.45794100943E+03  0.45794100943E+03  0.00000000000E+00 0. -1.
    9000007    1    1    2  501    0 -0.13954536544E+03  0.45141313555E+02 -0.63899394108E+02  0.43080596534E+03  0.40000000000E+03 0. -1.
   -9000007    1    1    2    0  502  0.13954536544E+03 -0.45141313555E+02  0.48920906158E+01  0.42606875004E+03  0.40000000000E+03 0. -1.
<mgrwt>
<rscale>  2 0.42604066E+03</rscale>
<asrwt>0</asrwt>
<pdfrwt beam="1">  1       21 0.61374416E-01 0.42604066E+03</pdfrwt>
<pdfrwt beam="2">  1       21 0.70452463E-01 0.42604066E+03</pdfrwt>
<totfact> 0.39818091E+03</totfact>
</mgrwt>
</event>
<event>
 4    1  0.1187342E-002  0.4106428E+03  0.7818608E-02  0.1040156E+00
         21   -1    0    0  503  502  0.00000000000E+00  0.00000000000E+00  0.79770748284E+03  0.79770748284E+03  0.00000000000E+00 0.  1.
         21   -1    0    0  501  503 -0.00000000000E+00 -0.00000000000E+00 -0.25897063107E+03  0.25897063107E+03  0.00000000000E+00 0.  1.
    9000007    1    1    2  501    0  0.69167730412E+02  0.61994345001E+02  0.42902926570E+02  0.41287786917E+03  0.40000000000E+03 0.  1.
   -9000007    1    1    2    0  502 -0.69167730412E+02 -0.61994345001E+02  0.49583392521E+03  0.64380024474E+03  0.40000000000E+03 0.  1.
<mgrwt>
<rscale>  2 0.41064276E+03</rscale>
<asrwt>0</asrwt>
<pdfrwt beam="1">  1       21 0.12272423E+00 0.41064276E+03</pdfrwt>
<pdfrwt beam="2">  1       21 0.39841636E-01 0.41064276E+03</pdfrwt>
<totfact> 0.26628507E+03</totfact>
</mgrwt>
</event>
<event>
 4    1  0.1187342E-002  0.4693051E+03  0.7818608E-02  0.1022117E+00
         21   -1    0    0  503  502  0.00000000000E+00  0.00000000000E+00  0.13550256546E+03  0.13550256546E+03  0.00000000000E+00 0. -1.
         21   -1    0    0  501  503 -0.00000000000E+00 -0.00000000000E+00 -0.17080943396E+04  0.17080943396E+04  0.00000000000E+00 0.  1.
    9000007    1    1    2  501    0  0.22213173811E+03 -0.10442601538E+03 -0.98910627223E+03  0.10947961087E+04  0.40000000000E+03 0.  1.
   -9000007    1    1    2    0  502 -0.22213173811E+03  0.10442601538E+03 -0.58348550197E+03  0.74880079645E+03  0.40000000000E+03 0. -1.
<mgrwt>
<rscale>  2 0.46930513E+03</rscale>
<asrwt>0</asrwt>
<pdfrwt beam="1">  1       21 0.20846548E-01 0.46930513E+03</pdfrwt>
<pdfrwt beam="2">  1       21 0.26278376E+00 0.46930513E+03</pdfrwt>
<totfact> 0.96808722E+02</totfact>
</mgrwt>
</event>
<event>
 4    1  0.1187342E-002  0.6201945E+03  0.7818608E-02  0.9864373E-01
         21   -1    0    0  503  502  0.00000000000E+00  0.00000000000E+00  0.12154142329E+04  0.12154142329E+04  0.00000000000E+00 0. -1.
         21   -1    0    0  501  503 -0.00000000000E+00 -0.00000000000E+00 -0.31886777590E+03  0.31886777590E+03  0.00000000000E+00 0.  1.
    9000007    1    1    2  501    0  0.30484411804E+03 -0.36292047965E+03  0.51480721821E+03  0.80601965409E+03  0.40000000000E+03 0. -1.
   -9000007    1    1    2    0  502 -0.30484411804E+03  0.36292047965E+03  0.38173923878E+03  0.72826235470E+03  0.40000000000E+03 0.  1.
<mgrwt>
<rscale>  2 0.62019449E+03</rscale>
<asrwt>0</asrwt>
<pdfrwt beam="1">  1       21 0.18698680E+00 0.62019449E+03</pdfrwt>
<pdfrwt beam="2">  1       21 0.49056582E-01 0.62019449E+03</pdfrwt>
<totfact> 0.50010545E+02</totfact>
</mgrwt>
</event>
<event>
 4    1  0.1187342E-002  0.4483379E+03  0.7818608E-02  0.1028219E+00
         21   -1    0    0  501  502  0.00000000000E+00  0.00000000000E+00  0.10613500819E+04  0.10613500819E+04  0.00000000000E+00 0. -1.
         21   -1    0    0  502  503 -0.00000000000E+00 -0.00000000000E+00 -0.20568420078E+03  0.20568420078E+03  0.00000000000E+00 0. -1.
    9000007    1    1    2  501    0 -0.14489102368E+03  0.14146897632E+03  0.60615382444E+03  0.75394253023E+03  0.40000000000E+03 0. -1.
   -9000007    1    1    2    0  503  0.14489102368E+03 -0.14146897632E+03  0.24951205668E+03  0.51309175245E+03  0.40000000000E+03 0. -1.
<mgrwt>
<rscale>  2 0.44833791E+03</rscale>
<asrwt>0</asrwt>
<pdfrwt beam="1">  1       21 0.16328462E+00 0.44833791E+03</pdfrwt>
<pdfrwt beam="2">  1       21 0.31643724E-01 0.44833791E+03</pdfrwt>
<totfact> 0.19529274E+03</totfact>
</mgrwt>
</event>
<event>
 4    1  0.1187342E-002  0.5037220E+03  0.7818608E-02  0.1012812E+00
         21   -1    0    0  501  502  0.00000000000E+00  0.00000000000E+00  0.18704083678E+03  0.18704083678E+03  0.00000000000E+00 0. -1.
         21   -1    0    0  502  503 -0.00000000000E+00 -0.00000000000E+00 -0.14174734425E+04  0.14174734425E+04  0.00000000000E+00 0. -1.
    9000007    1    1    2  501    0  0.13003634147E+03  0.27717576278E+03 -0.78149686344E+03  0.92977050993E+03  0.40000000000E+03 0. -1.
   -9000007    1    1    2    0  503 -0.13003634147E+03 -0.27717576278E+03 -0.44893574232E+03  0.67474376938E+03  0.40000000000E+03 0. -1.
<mgrwt>
<rscale>  2 0.50372200E+03</rscale>
<asrwt>0</asrwt>
<pdfrwt beam="1">  1       21 0.28775514E-01 0.50372200E+03</pdfrwt>
<pdfrwt beam="2">  1       21 0.21807284E+00 0.50372200E+03</pdfrwt>
<totfact> 0.96781257E+02</totfact>
</mgrwt>
</event>
<event>
 4    1  0.1187342E-002  0.6343316E+03  0.7818608E-02  0.9836632E-01
         21   -1    0    0  501  502  0.00000000000E+00  0.00000000000E+00  0.12137433970E+04  0.12137433970E+04  0.00000000000E+00 0.  1.
         21   -1    0    0  502  503 -0.00000000000E+00 -0.00000000000E+00 -0.42002231168E+03  0.42002231168E+03  0.00000000000E+00 0. -1.
    9000007    1    1    2  501    0 -0.48354819475E+03 -0.92507805705E+02  0.77184071699E+03  0.99905687684E+03  0.40000000000E+03 0.  1.
   -9000007    1    1    2    0  503  0.48354819475E+03  0.92507805705E+02  0.21880368373E+02  0.63470883189E+03  0.40000000000E+03 0. -1.
<mgrwt>
<rscale>  2 0.63433158E+03</rscale>
<asrwt>0</asrwt>
<pdfrwt beam="1">  1       21 0.18672975E+00 0.63433158E+03</pdfrwt>
<pdfrwt beam="2">  1       21 0.64618818E-01 0.63433158E+03</pdfrwt>
<totfact> 0.27375957E+02</totfact>
</mgrwt>
</event>
<event>
 4    1  0.1187342E-002  0.4289950E+03  0.7818608E-02  0.1034178E+00
         21   -1    0    0  501  502  0.00000000000E+00  0.00000000000E+00  0.10156986346E+03  0.10156986346E+03  0.00000000000E+00 0.  1.
         21   -1    0    0  502  503 -0.00000000000E+00 -0.00000000000E+00 -0.18723464018E+04  0.18723464018E+04  0.00000000000E+00 0.  1.
    9000007    1    1    2  501    0 -0.34477998465E+01 -0.15499955582E+03 -0.10626883760E+04  0.11460119258E+04  0.40000000000E+03 0.  1.
   -9000007    1    1    2    0  503  0.34477998465E+01  0.15499955582E+03 -0.70808816242E+03  0.82790433952E+03  0.40000000000E+03 0.  1.
<mgrwt>
<rscale>  2 0.42899505E+03</rscale>
<asrwt>0</asrwt>
<pdfrwt beam="1">  1       21 0.15626135E-01 0.42899505E+03</pdfrwt>
<pdfrwt beam="2">  1       21 0.28805325E+00 0.42899505E+03</pdfrwt>
<totfact> 0.11975723E+03</totfact>
</mgrwt>
</event>
<event>
 4    1  0.1187342E-002  0.5041357E+03  0.7818608E-02  0.1012705E+00
         21   -1    0    0  503  502  0.00000000000E+00  0.00000000000E+00  0.15102996714E+04  0.15102996714E+04  0.00000000000E+00 0.  1.
         21   -1    0    0  501  503 -0.00000000000E+00 -0.00000000000E+00 -0.17747389380E+03  0.17747389380E+03  0.00000000000E+00 0.  1.
    9000007    1    1    2  501    0 -0.27260410183E+03  0.14085388979E+03  0.47433686221E+03  0.69220536942E+03  0.40000000000E+03 0.  1.
   -9000007    1    1    2    0  502  0.27260410183E+03 -0.14085388979E+03  0.85848891542E+03  0.99556819581E+03  0.40000000000E+03 0.  1.
<mgrwt>
<rscale>  2 0.50413571E+03</rscale>
<asrwt>0</asrwt>
<pdfrwt beam="1">  1       21 0.23235379E+00 0.50413571E+03</pdfrwt>
<pdfrwt beam="2">  1       21 0.27303677E-01 0.50413571E+03</pdfrwt>
<totfact> 0.87053135E+02</totfact>
</mgrwt>
</event>
<event>
 4    1  0.1187342E-002  0.5443902E+03  0.7818608E-02  0.1002801E+00
         21   -1    0    0  503  502  0.00000000000E+00  0.00000000000E+00  0.95033642632E+03  0.95033642632E+03  0.00000000000E+00 0. -1.
         21   -1    0    0  501  503 -0.00000000000E+00 -0.00000000000E+00 -0.35619841707E+03  0.35619841707E+03  0.00000000000E+00 0.  1.
    9000007    1    1    2  501    0  0.56955171939E+02 -0.36485176047E+03  0.66557338511E+02  0.54844377837E+03  0.40000000000E+03 0.  1.
   -9000007    1    1    2    0  502 -0.56955171939E+02  0.36485176047E+03  0.52758067074E+03  0.75809106502E+03  0.40000000000E+03 0. -1.
<mgrwt>
<rscale>  2 0.54439021E+03</rscale>
<asrwt>0</asrwt>
<pdfrwt beam="1">  1       21 0.14620560E+00 0.54439021E+03</pdfrwt>
<pdfrwt beam="2">  1       21 0.54799757E-01 0.54439021E+03</pdfrwt>
<totfact> 0.81573324E+02</totfact>
</mgrwt>
</event>
<event>
 4    1  0.1187342E-002  0.4067548E+03  0.7818608E-02  0.1041466E+00
         21   -1    0    0  501  502  0.00000000000E+00  0.00000000000E+00  0.10188230302E+04  0.10188230302E+04  0.00000000000E+00 0. -1.
         21   -1    0    0  502  503 -0.00000000000E+00 -0.00000000000E+00 -0.17609725406E+03  0.17609725406E+03  0.00000000000E+00 0.  1.
    9000007    1    1    2  501    0  0.54173072496E+02  0.50147252684E+02  0.58803555475E+03  0.71500719044E+03  0.40000000000E+03 0. -1.
   -9000007    1    1    2    0  503 -0.54173072496E+02 -0.50147252684E+02  0.25469022136E+03  0.47991309379E+03  0.40000000000E+03 0.  1.
<mgrwt>
<rscale>  2 0.40675480E+03</rscale>
<asrwt>0</asrwt>
<pdfrwt beam="1">  1       21 0.15674200E+00 0.40675480E+03</pdfrwt>
<pdfrwt beam="2">  1       21 0.27091886E-01 0.40675480E+03</pdfrwt>
<totfact> 0.30272079E+03</totfact>
</mgrwt>
</event>
<event>
 4    1  0.1187342E-002  0.4062427E+03  0.7818608E-02  0.1041639E+00
         21   -1    0    0  503  502  0.00000000000E+00  0.00000000000E+00  0.94265606787E+03  0.94265606787E+03  0.00000000000E+00 0. -1.
         21   -1    0    0  501  503 -0.00000000000E+00 -0.00000000000E+00 -0.18620925130E+03  0.18620925130E+03  0.00000000000E+00 0. -1.
    9000007    1    1    2  501    0 -0.40251357743E+02  0.58420543946E+02  0.24018776671E+03  0.47193568951E+03  0.40000000000E+03 0. -1.
   -9000007    1    1    2    0  502  0.40251357743E+02 -0.58420543946E+02  0.51625904985E+03  0.65692962965E+03  0.40000000000E+03 0. -1.
<mgrwt>
<rscale>  2 0.40624270E+03</rscale>
<asrwt>0</asrwt>
<pdfrwt beam="1">  1       21 0.14502401E+00 0.40624270E+03</pdfrwt>
<pdfrwt beam="2">  1       21 0.28647578E-01 0.40624270E+03</pdfrwt>
<totfact> 0.33495480E+03</totfact>
</mgrwt>
</event>
<event>
 4    1  0.1187342E-002  0.6075343E+03  0.7818608E-02  0.9889897E-01
         21   -1    0    0  501  502  0.00000000000E+00  0.00000000000E+00  0.67374729760E+03  0.67374729760E+03  0.00000000000E+00 0. -1.
         21   -1    0    0  502  503 -0.00000000000E+00 -0.00000000000E+00 -0.60844511731E+03  0.60844511731E+03  0.00000000000E+00 0.  1.
    9000007    1    1    2  501    0  0.25422736871E+03 -0.38008738461E+03  0.23500347742E+03  0.65140203357E+03  0.40000000000E+03 0. -1.
   -9000007    1    1    2    0  503 -0.25422736871E+03  0.38008738461E+03 -0.16970129714E+03  0.63079038134E+03  0.40000000000E+03 0.  1.
<mgrwt>
<rscale>  2 0.60753434E+03</rscale>
<asrwt>0</asrwt>
<pdfrwt beam="1">  1       21 0.10365343E+00 0.60753434E+03</pdfrwt>
<pdfrwt beam="2">  1       21 0.93606941E-01 0.60753434E+03</pdfrwt>
<totfact> 0.57258878E+02</totfact>
</mgrwt>
</event>
<event>
 4    1  0.1187342E-002  0.4090516E+03  0.7818608E-02  0.1040690E+00
         21   -1    0    0  503  502  0.00000000000E+00  0.00000000000E+00  0.84608918791E+02  0.84608918791E+02  0.00000000000E+00 0. -1.
         21   -1    0    0  501  503 -0.00000000000E+00 -0.00000000000E+00 -0.19945728723E+04  0.19945728723E+04  0.00000000000E+00 0. -1.
    9000007    1    1    2  501    0 -0.76040030700E+02 -0.39257078623E+02 -0.85910299182E+03  0.95151518908E+03  0.40000000000E+03 0.  1.
   -9000007    1    1    2    0  502  0.76040030700E+02  0.39257078623E+02 -0.10508609617E+04  0.11276666020E+04  0.40000000000E+03 0.  1.
<mgrwt>
<rscale>  2 0.40905159E+03</rscale>
<asrwt>0</asrwt>
<pdfrwt beam="1">  1       21 0.13016756E-01 0.40905159E+03</pdfrwt>
<pdfrwt beam="2">  1       21 0.30685739E+00 0.40905159E+03</pdfrwt>
<totfact> 0.13086555E+03</totfact>
</mgrwt>
</event>
<event>
 4    1  0.1187342E-002  0.6231080E+03  0.7818608E-02  0.9858591E-01
         21   -1    0    0  503  502  0.00000000000E+00  0.00000000000E+00  0.93255766459E+03  0.93255766459E+03  0.00000000000E+00 0.  1.
         21   -1    0    0  501  503 -0.00000000000E+00 -0.00000000000E+00 -0.54219052976E+03  0.54219052976E+03  0.00000000000E+00 0. -1.
    9000007    1    1    2  501    0 -0.44341569937E+03 -0.17789334488E+03 -0.16006707664E+03  0.64333894148E+03  0.40000000000E+03 0. -1.
   -9000007    1    1    2    0  502  0.44341569937E+03  0.17789334488E+03  0.55043421147E+03  0.83140925287E+03  0.40000000000E+03 0.  1.
<mgrwt>
<rscale>  2 0.62310796E+03</rscale>
<asrwt>0</asrwt>
<pdfrwt beam="1">  1       21 0.14347041E+00 0.62310796E+03</pdfrwt>
<pdfrwt beam="2">  1       21 0.83413928E-01 0.62310796E+03</pdfrwt>
<totfact> 0.32420256E+02</totfact>
</mgrwt>
</event>
<event>
 4    1  0.1187342E-002  0.4742140E+03  0.7818608E-02  0.1020738E+00
         21   -1    0    0  501  502  0.00000000000E+00  0.00000000000E+00  0.28870013522E+03  0.28870013522E+03  0.00000000000E+00 0.  1.
         21   -1    0    0  502  503 -0.00000000000E+00 -0.00000000000E+00 -0.84459810220E+03  0.84459810220E+03  0.00000000000E+00 0. -1.
    9000007    1    1    2  501    0  0.14096080714E+03 -0.21215319495E+03 -0.11995280860E+03  0.48914987843E+03  0.40000000000E+03 0. -1.
   -9000007    1    1    2    0  503 -0.14096080714E+03  0.21215319495E+03 -0.43594515838E+03  0.64414835899E+03  0.40000000000E+03 0. -1.
<mgrwt>
<rscale>  2 0.47421401E+03</rscale>
<asrwt>0</asrwt>
<pdfrwt beam="1">  1       21 0.44415405E-01 0.47421401E+03</pdfrwt>
<pdfrwt beam="2">  1       21 0.12993817E+00 0.47421401E+03</pdfrwt>
<totfact> 0.17898598E+03</totfact>
</mgrwt>
</event>
<event>
 4    1  0.1187342E-002  0.4248525E+03  0.7818608E-02  0.1035498E+00
         21   -1    0    0  501  502  0.00000000000E+00  0.00000000000E+00  0.60650313529E+03  0.60650313529E+03  0.00000000000E+00 0. -1.
         21   -1    0    0  502  503 -0.00000000000E+00 -0.00000000000E+00 -0.36124588455E+03  0.36124588455E+03  0.00000000000E+00 0.  1.
    9000007    1    1    2  501    0 -0.13785423324E+03 -0.38676631946E+02  0.32572026562E+03  0.53534415372E+03  0.40000000000E+03 0. -1.
   -9000007    1    1    2    0  503  0.13785423324E+03  0.38676631946E+02 -0.80463014886E+02  0.43240486612E+03  0.40000000000E+03 0.  1.
<mgrwt>
<rscale>  2 0.42485253E+03</rscale>
<asrwt>0</asrwt>
<pdfrwt beam="1">  1       21 0.93308175E-01 0.42485253E+03</pdfrwt>
<pdfrwt beam="2">  1       21 0.55576290E-01 0.42485253E+03</pdfrwt>
<totfact> 0.25803882E+03</totfact>
</mgrwt>
</event>
<event>
 4    1  0.1187342E-002  0.4463261E+03  0.7818608E-02  0.1028823E+00
         21   -1    0    0  503  502  0.00000000000E+00  0.00000000000E+00  0.19987602415E+03  0.19987602415E+03  0.00000000000E+00 0.  1.
         21   -1    0    0  501  503 -0.00000000000E+00 -0.00000000000E+00 -0.11111231634E+04  0.11111231634E+04  0.00000000000E+00 0.  1.
    9000007    1    1    2  501    0  0.14854259411E+03  0.13092762692E+03 -0.66601999816E+03  0.80174159410E+03  0.40000000000E+03 0.  1.
   -9000007    1    1    2    0  502 -0.14854259411E+03 -0.13092762692E+03 -0.24522714108E+03  0.50925759344E+03  0.40000000000E+03 0.  1.
<mgrwt>
<rscale>  2 0.44632605E+03</rscale>
<asrwt>0</asrwt>
<pdfrwt beam="1">  1       21 0.30750158E-01 0.44632605E+03</pdfrwt>
<pdfrwt beam="2">  1       21 0.17094202E+00 0.44632605E+03</pdfrwt>
<totfact> 0.18179340E+03</totfact>
</mgrwt>
</event>
<event>
 4    1  0.1187342E-002  0.4195327E+03  0.7818608E-02  0.1037219E+00
         21   -1    0    0  503  502  0.00000000000E+00  0.00000000000E+00  0.91355199908E+03  0.91355199908E+03  0.00000000000E+00 0. -1.
         21   -1    0    0  501  503 -0.00000000000E+00 -0.00000000000E+00 -0.21924408434E+03  0.21924408434E+03  0.00000000000E+00 0. -1.
    9000007    1    1    2  501    0  0.96845761386E+02 -0.81416033040E+02  0.14993706109E+03  0.44552081233E+03  0.40000000000E+03 0. -1.
   -9000007    1    1    2    0  502 -0.96845761386E+02  0.81416033040E+02  0.54437085366E+03  0.68727527109E+03  0.40000000000E+03 0. -1.
<mgrwt>
<rscale>  2 0.41953268E+03</rscale>
<asrwt>0</asrwt>
<pdfrwt beam="1">  1       21 0.14054646E+00 0.41953268E+03</pdfrwt>
<pdfrwt beam="2">  1       21 0.33729860E-01 0.41953268E+03</pdfrwt>
<totfact> 0.26165223E+03</totfact>
</mgrwt>
</event>
<event>
 4    1  0.1187342E-002  0.4542086E+03  0.7818608E-02  0.1026474E+00
         21   -1    0    0  503  502  0.00000000000E+00  0.00000000000E+00  0.33310310414E+03  0.33310310414E+03  0.00000000000E+00 0.  1.
         21   -1    0    0  501  503 -0.00000000000E+00 -0.00000000000E+00 -0.61962747512E+03  0.61962747512E+03  0.00000000000E+00 0.  1.
    9000007    1    1    2  501    0 -0.14521307183E+03  0.15880379248E+03 -0.15344732668E+03  0.47942837088E+03  0.40000000000E+03 0.  1.
   -9000007    1    1    2    0  502  0.14521307183E+03 -0.15880379248E+03 -0.13307704430E+03  0.47330220838E+03  0.40000000000E+03 0.  1.
<mgrwt>
<rscale>  2 0.45420863E+03</rscale>
<asrwt>0</asrwt>
<pdfrwt beam="1">  1       21 0.51246632E-01 0.45420863E+03</pdfrwt>
<pdfrwt beam="2">  1       21 0.95327303E-01 0.45420863E+03</pdfrwt>
<totfact> 0.28865618E+03</totfact>
</mgrwt>
</event>
<event>
 4    1  0.1187342E-002  0.4186739E+03  0.7818608E-02  0.1037499E+00
         21   -1    0    0  501  502  0.00000000000E+00  0.00000000000E+00  0.20759429103E+03  0.20759429103E+03  0.00000000000E+00 0.  1.
         21   -1    0    0  502  503 -0.00000000000E+00 -0.00000000000E+00 -0.84437743943E+03  0.84437743943E+03  0.00000000000E+00 0.  1.
    9000007    1    1    2  501    0  0.53228316186E+02  0.11160020513E+03 -0.31873899620E+03  0.52619616791E+03  0.40000000000E+03 0.  1.
   -9000007    1    1    2    0  503 -0.53228316186E+02 -0.11160020513E+03 -0.31804415221E+03  0.52577556256E+03  0.40000000000E+03 0.  1.
<mgrwt>
<rscale>  2 0.41867393E+03</rscale>
<asrwt>0</asrwt>
<pdfrwt beam="1">  1       21 0.31937583E-01 0.41867393E+03</pdfrwt>
<pdfrwt beam="2">  1       21 0.12990422E+00 0.41867393E+03</pdfrwt>
<totfact> 0.35891794E+03</totfact>
</mgrwt>
</event>
<event>
 4    1  0.1187342E-002  0.4419769E+03  0.7818608E-02  0.1030142E+00
         21   -1    0    0  501  502  0.00000000000E+00  0.00000000000E+00  0.20465314283E+03  0.20465314283E+03  0.00000000000E+00 0. -1.
         21   -1    0    0  502  503 -0.00000000000E+00 -0.00000000000E+00 -0.10868194033E+04  0.10868194033E+04  0.00000000000E+00 0. -1.
    9000007    1    1    2  501    0  0.73196605597E+01  0.18785622547E+03 -0.21577788361E+03  0.49183699935E+03  0.40000000000E+03 0. -1.
   -9000007    1    1    2    0  503 -0.73196605597E+01 -0.18785622547E+03 -0.66638837689E+03  0.79963554682E+03  0.40000000000E+03 0. -1.
<mgrwt>
<rscale>  2 0.44197685E+03</rscale>
<asrwt>0</asrwt>
<pdfrwt beam="1">  1       21 0.31485098E-01 0.44197685E+03</pdfrwt>
<pdfrwt beam="2">  1       21 0.16720299E+00 0.44197685E+03</pdfrwt>
<totfact> 0.18500131E+03</totfact>
</mgrwt>
</event>
<event>
 4    1  0.1187342E-002  0.5636532E+03  0.7818608E-02  0.9983822E-01
         21   -1    0    0  503  502  0.00000000000E+00  0.00000000000E+00  0.28395259981E+04  0.28395259981E+04  0.00000000000E+00 0. -1.
         21   -1    0    0  501  503 -0.00000000000E+00 -0.00000000000E+00 -0.11800112310E+03  0.11800112310E+03  0.00000000000E+00 0.  1.
    9000007    1    1    2  501    0  0.37354991481E+03  0.13477913786E+03  0.10241451639E+04  0.11690073873E+04  0.40000000000E+03 0.  1.
   -9000007    1    1    2    0  502 -0.37354991481E+03 -0.13477913786E+03  0.16973797111E+04  0.17885197339E+04  0.40000000000E+03 0. -1.
<mgrwt>
<rscale>  2 0.56365322E+03</rscale>
<asrwt>0</asrwt>
<pdfrwt beam="1">  1       21 0.43685010E+00 0.56365322E+03</pdfrwt>
<pdfrwt beam="2">  1       21 0.18154021E-01 0.56365322E+03</pdfrwt>
<totfact> 0.98066979E+01</totfact>
</mgrwt>
</event>
<event>
 4    1  0.1187342E-002  0.4341432E+03  0.7818608E-02  0.1032559E+00
         21   -1    0    0  501  502  0.00000000000E+00  0.00000000000E+00  0.10352971398E+04  0.10352971398E+04  0.00000000000E+00 0. -1.
         21   -1    0    0  502  503 -0.00000000000E+00 -0.00000000000E+00 -0.20942430183E+03  0.20942430183E+03  0.00000000000E+00 0. -1.
    9000007    1    1    2  501    0  0.27217817570E+02  0.16655187324E+03  0.63792772867E+03  0.77164248398E+03  0.40000000000E+03 0. -1.
   -9000007    1    1    2    0  503 -0.27217817570E+02 -0.16655187324E+03  0.18794510933E+03  0.47307895767E+03  0.40000000000E+03 0. -1.
<mgrwt>
<rscale>  2 0.43414322E+03</rscale>
<asrwt>0</asrwt>
<pdfrwt beam="1">  1       21 0.15927648E+00 0.43414322E+03</pdfrwt>
<pdfrwt beam="2">  1       21 0.32219124E-01 0.43414322E+03</pdfrwt>
<totfact> 0.20309419E+03</totfact>
</mgrwt>
</event>
<event>
 4    1  0.1187342E-002  0.4541577E+03  0.7818608E-02  0.1026489E+00
         21   -1    0    0  501  502  0.00000000000E+00  0.00000000000E+00  0.61412455943E+03  0.61412455943E+03  0.00000000000E+00 0.  1.
         21   -1    0    0  502  503 -0.00000000000E+00 -0.00000000000E+00 -0.37863917488E+03  0.37863917488E+03  0.00000000000E+00 0.  1.
    9000007    1    1    2  501    0  0.27053038121E+02 -0.21337143042E+03  0.28459208499E+03  0.53595885012E+03  0.40000000000E+03 0.  1.
   -9000007    1    1    2    0  503 -0.27053038121E+02  0.21337143042E+03 -0.49106700437E+02  0.45680488419E+03  0.40000000000E+03 0.  1.
<mgrwt>
<rscale>  2 0.45415772E+03</rscale>
<asrwt>0</asrwt>
<pdfrwt beam="1">  1       21 0.94480701E-01 0.45415772E+03</pdfrwt>
<pdfrwt beam="2">  1       21 0.58252181E-01 0.45415772E+03</pdfrwt>
<totfact> 0.22367890E+03</totfact>
</mgrwt>
</event>
<event>
 4    1  0.1187342E-002  0.5379856E+03  0.7818608E-02  0.1004314E+00
         21   -1    0    0  501  502  0.00000000000E+00  0.00000000000E+00  0.91351833018E+03  0.91351833018E+03  0.00000000000E+00 0. -1.
         21   -1    0    0  502  503 -0.00000000000E+00 -0.00000000000E+00 -0.31729460415E+03  0.31729460415E+03  0.00000000000E+00 0.  1.
    9000007    1    1    2  501    0  0.34139352938E+03  0.11348552792E+03  0.27452114281E+03  0.60397877844E+03  0.40000000000E+03 0. -1.
   -9000007    1    1    2    0  503 -0.34139352938E+03 -0.11348552792E+03  0.32170258322E+03  0.62683415590E+03  0.40000000000E+03 0.  1.
<mgrwt>
<rscale>  2 0.53798560E+03</rscale>
<asrwt>0</asrwt>
<pdfrwt beam="1">  1       21 0.14054128E+00 0.53798560E+03</pdfrwt>
<pdfrwt beam="2">  1       21 0.48814555E-01 0.53798560E+03</pdfrwt>
<totfact> 0.11657929E+03</totfact>
</mgrwt>
</event>
<event>
 4    1  0.1187342E-002  0.4016800E+03  0.7818608E-02  0.1043199E+00
         21   -1    0    0  503  502  0.00000000000E+00  0.00000000000E+00  0.10557448717E+04  0.10557448717E+04  0.00000000000E+00 0. -1.
         21   -1    0    0  501  503 -0.00000000000E+00 -0.00000000000E+00 -0.15311611474E+03  0.15311611474E+03  0.00000000000E+00 0. -1.
    9000007    1    1    2  501    0 -0.19959739660E+02 -0.30796875909E+02  0.42507202793E+03  0.58483593229E+03  0.40000000000E+03 0. -1.
   -9000007    1    1    2    0  502  0.19959739660E+02  0.30796875909E+02  0.47755672904E+03  0.62402505417E+03  0.40000000000E+03 0. -1.
<mgrwt>
<rscale>  2 0.40168002E+03</rscale>
<asrwt>0</asrwt>
<pdfrwt beam="1">  1       21 0.16242228E+00 0.40168002E+03</pdfrwt>
<pdfrwt beam="2">  1       21 0.23556326E-01 0.40168002E+03</pdfrwt>
<totfact> 0.36070896E+03</totfact>
</mgrwt>
</event>
<event>
 4    1  0.1187342E-002  0.4478231E+03  0.7818608E-02  0.1028373E+00
         21   -1    0    0  501  502  0.00000000000E+00  0.00000000000E+00  0.10430109606E+04  0.10430109606E+04  0.00000000000E+00 0. -1.
         21   -1    0    0  502  503 -0.00000000000E+00 -0.00000000000E+00 -0.19231151938E+03  0.19231151938E+03  0.00000000000E+00 0.  1.
    9000007    1    1    2  501    0  0.19664769554E+03  0.43303331831E+02  0.41690121071E+03  0.61184321047E+03  0.40000000000E+03 0. -1.
   -9000007    1    1    2    0  503 -0.19664769554E+03 -0.43303331831E+02  0.43379823048E+03  0.62347926949E+03  0.40000000000E+03 0. -1.
<mgrwt>
<rscale>  2 0.44782306E+03</rscale>
<asrwt>0</asrwt>
<pdfrwt beam="1">  1       21 0.16046322E+00 0.44782306E+03</pdfrwt>
<pdfrwt beam="2">  1       21 0.29586388E-01 0.44782306E+03</pdfrwt>
<totfact> 0.23447162E+03</totfact>
</mgrwt>
</event>
<event>
 4    1  0.1187342E-002  0.6573803E+03  0.7818608E-02  0.9793028E-01
         21   -1    0    0  501  502  0.00000000000E+00  0.00000000000E+00  0.11438700791E+04  0.11438700791E+04  0.00000000000E+00 0.  1.
         21   -1    0    0  502  503 -0.00000000000E+00 -0.00000000000E+00 -0.41872412672E+03  0.41872412672E+03  0.00000000000E+00 0.  1.
    9000007    1    1    2  501    0  0.32826249957E+03 -0.40545355203E+03  0.60684084901E+03  0.89465337841E+03  0.40000000000E+03 0.  1.
   -9000007    1    1    2    0  503 -0.32826249957E+03  0.40545355203E+03  0.11830510341E+03  0.66794082744E+03  0.40000000000E+03 0.  1.
<mgrwt>
<rscale>  2 0.65738029E+03</rscale>
<asrwt>0</asrwt>
<pdfrwt beam="1">  1       21 0.17598001E+00 0.65738029E+03</pdfrwt>
<pdfrwt beam="2">  1       21 0.64419097E-01 0.65738029E+03</pdfrwt>
<totfact> 0.32620996E+02</totfact>
</mgrwt>
</event>
<event>
 4    1  0.1187342E-002  0.4360979E+03  0.7818608E-02  0.1031951E+00
         21   -1    0    0  501  502  0.00000000000E+00  0.00000000000E+00  0.27589889019E+04  0.27589889019E+04  0.00000000000E+00 0. -1.
         21   -1    0    0  502  503 -0.00000000000E+00 -0.00000000000E+00 -0.81562379385E+02  0.81562379385E+02  0.00000000000E+00 0.  1.
    9000007    1    1    2  501    0  0.11266730013E+03  0.13223999252E+03  0.77980064659E+03  0.89345978341E+03  0.40000000000E+03 0.  1.
   -9000007    1    1    2    0  503 -0.11266730013E+03 -0.13223999252E+03  0.18976258759E+04  0.19470914979E+04  0.40000000000E+03 0. -1.
<mgrwt>
<rscale>  2 0.43609785E+03</rscale>
<asrwt>0</asrwt>
<pdfrwt beam="1">  1       21 0.42445976E+00 0.43609785E+03</pdfrwt>
<pdfrwt beam="2">  1       21 0.12548060E-01 0.43609785E+03</pdfrwt>
<totfact> 0.25488754E+02</totfact>
</mgrwt>
</event>
<event>
 4    1  0.1187342E-002  0.5297332E+03  0.7818608E-02  0.1006297E+00
         21   -1    0    0  501  502  0.00000000000E+00  0.00000000000E+00  0.59942723691E+03  0.59942723691E+03  0.00000000000E+00 0.  1.
         21   -1    0    0  502  503 -0.00000000000E+00 -0.00000000000E+00 -0.69897040284E+03  0.69897040284E+03  0.00000000000E+00 0. -1.
    9000007    1    1    2  501    0  0.34703106254E+03  0.13664623844E+02  0.32330038213E+03  0.62059682355E+03  0.40000000000E+03 0.  1.
   -9000007    1    1    2    0  503 -0.34703106254E+03 -0.13664623844E+02 -0.42284354806E+03  0.67780081621E+03  0.40000000000E+03 0. -1.
<mgrwt>
<rscale>  2 0.52973322E+03</rscale>
<asrwt>0</asrwt>
<pdfrwt beam="1">  1       21 0.92219575E-01 0.52973322E+03</pdfrwt>
<pdfrwt beam="2">  1       21 0.10753391E+00 0.52973322E+03</pdfrwt>
<totfact> 0.55658905E+02</totfact>
</mgrwt>
</event>
<event>
 4    1  0.1187342E-002  0.4841055E+03  0.7818608E-02  0.1018013E+00
         21   -1    0    0  503  502  0.00000000000E+00  0.00000000000E+00  0.16269277837E+04  0.16269277837E+04  0.00000000000E+00 0. -1.
         21   -1    0    0  501  503 -0.00000000000E+00 -0.00000000000E+00 -0.15154542232E+03  0.15154542232E+03  0.00000000000E+00 0.  1.
    9000007    1    1    2  501    0  0.13661970874E+03 -0.23599413383E+03  0.53992241351E+03  0.72517197176E+03  0.40000000000E+03 0.  1.
   -9000007    1    1    2    0  502 -0.13661970874E+03  0.23599413383E+03  0.93545994792E+03  0.10533012343E+04  0.40000000000E+03 0. -1.
<mgrwt>
<rscale>  2 0.48410554E+03</rscale>
<asrwt>0</asrwt>
<pdfrwt beam="1">  1       21 0.25029657E+00 0.48410554E+03</pdfrwt>
<pdfrwt beam="2">  1       21 0.23314682E-01 0.48410554E+03</pdfrwt>
<totfact> 0.92428358E+02</totfact>
</mgrwt>
</event>
<event>
 4    1  0.1187342E-002  0.5453280E+03  0.7818608E-02  0.1002581E+00
         21   -1    0    0  501  502  0.00000000000E+00  0.00000000000E+00  0.10661368633E+04  0.10661368633E+04  0.00000000000E+00 0.  1.
         21   -1    0    0  502  503 -0.00000000000E+00 -0.00000000000E+00 -0.33539679327E+03  0.33539679327E+03  0.00000000000E+00 0. -1.
    9000007    1    1    2  501    0 -0.27102607893E+03  0.25283893385E+03  0.65289279238E+03  0.85067717747E+03  0.40000000000E+03 0.  1.
   -9000007    1    1    2    0  503  0.27102607893E+03 -0.25283893385E+03  0.77847277653E+02  0.55085647910E+03  0.40000000000E+03 0. -1.
<mgrwt>
<rscale>  2 0.54532803E+03</rscale>
<asrwt>0</asrwt>
<pdfrwt beam="1">  1       21 0.16402105E+00 0.54532803E+03</pdfrwt>
<pdfrwt beam="2">  1       21 0.51599507E-01 0.54532803E+03</pdfrwt>
<totfact> 0.67532957E+02</totfact>
</mgrwt>
</event>
<event>
 4    1  0.1187342E-002  0.4073396E+03  0.7818608E-02  0.1041267E+00
         21   -1    0    0  501  502  0.00000000000E+00  0.00000000000E+00  0.14237486326E+03  0.14237486326E+03  0.00000000000E+00 0. -1.
         21   -1    0    0  502  503 -0.00000000000E+00 -0.00000000000E+00 -0.12693064551E+04  0.12693064551E+04  0.00000000000E+00 0. -1.
    9000007    1    1    2  501    0 -0.73787243136E+02  0.21931033105E+02 -0.76540347550E+03  0.86704556268E+03  0.40000000000E+03 0.  1.
   -9000007    1    1    2    0  503  0.73787243136E+02 -0.21931033105E+02 -0.36152811634E+03  0.54463575568E+03  0.40000000000E+03 0.  1.
<mgrwt>
<rscale>  2 0.40733957E+03</rscale>
<asrwt>0</asrwt>
<pdfrwt beam="1">  1       21 0.21903824E-01 0.40733957E+03</pdfrwt>
<pdfrwt beam="2">  1       21 0.19527792E+00 0.40733957E+03</pdfrwt>
<totfact> 0.24261319E+03</totfact>
</mgrwt>
</event>
<event>
 4    1  0.1187342E-002  0.4066912E+03  0.7818608E-02  0.1041487E+00
         21   -1    0    0  501  502  0.00000000000E+00  0.00000000000E+00  0.95670724049E+03  0.95670724049E+03  0.00000000000E+00 0.  1.
         21   -1    0    0  502  503 -0.00000000000E+00 -0.00000000000E+00 -0.18247376384E+03  0.18247376384E+03  0.00000000000E+00 0.  1.
    9000007    1    1    2  501    0  0.69614588908E+02  0.23484464483E+02  0.25652796313E+03  0.48083708980E+03  0.40000000000E+03 0.  1.
   -9000007    1    1    2    0  503 -0.69614588908E+02 -0.23484464483E+02  0.51770551352E+03  0.65834391453E+03  0.40000000000E+03 0.  1.
<mgrwt>
<rscale>  2 0.40669117E+03</rscale>
<asrwt>0</asrwt>
<pdfrwt beam="1">  1       21 0.14718573E+00 0.40669117E+03</pdfrwt>
<pdfrwt beam="2">  1       21 0.28072887E-01 0.40669117E+03</pdfrwt>
<totfact> 0.33495528E+03</totfact>
</mgrwt>
</event>
<event>
 4    1  0.1187342E-002  0.5574161E+03  0.7818608E-02  0.9997918E-01
         21   -1    0    0  501  502  0.00000000000E+00  0.00000000000E+00  0.53976337315E+03  0.53976337315E+03  0.00000000000E+00 0. -1.
         21   -1    0    0  502  503 -0.00000000000E+00 -0.00000000000E+00 -0.67685143202E+03  0.67685143202E+03  0.00000000000E+00 0.  1.
    9000007    1    1    2  501    0  0.38736655344E+03 -0.25687047432E+02  0.16667809085E+03  0.58180259290E+03  0.40000000000E+03 0. -1.
   -9000007    1    1    2    0  503 -0.38736655344E+03  0.25687047432E+02 -0.30376614973E+03  0.63481221227E+03  0.40000000000E+03 0.  1.
<mgrwt>
<rscale>  2 0.55741607E+03</rscale>
<asrwt>0</asrwt>
<pdfrwt beam="1">  1       21 0.83040519E-01 0.55741607E+03</pdfrwt>
<pdfrwt beam="2">  1       21 0.10413099E+00 0.55741607E+03</pdfrwt>
<totfact> 0.76482791E+02</totfact>
</mgrwt>
</event>
<event>
 4    1  0.1187342E-002  0.4974258E+03  0.7818608E-02  0.1014453E+00
         21   -1    0    0  501  502  0.00000000000E+00  0.00000000000E+00  0.38300320801E+03  0.38300320801E+03  0.00000000000E+00 0.  1.
         21   -1    0    0  502  503 -0.00000000000E+00 -0.00000000000E+00 -0.64661233773E+03  0.64661233773E+03  0.00000000000E+00 0. -1.
    9000007    1    1    2  501    0 -0.25880431505E+03 -0.14301323786E+03 -0.11638630798E+03  0.51086028655E+03  0.40000000000E+03 0.  1.
   -9000007    1    1    2    0  503  0.25880431505E+03  0.14301323786E+03 -0.14722282174E+03  0.51875525918E+03  0.40000000000E+03 0.  1.
<mgrwt>
<rscale>  2 0.49742583E+03</rscale>
<asrwt>0</asrwt>
<pdfrwt beam="1">  1       21 0.58923571E-01 0.49742583E+03</pdfrwt>
<pdfrwt beam="2">  1       21 0.99478821E-01 0.49742583E+03</pdfrwt>
<totfact> 0.18970032E+03</totfact>
</mgrwt>
</event>
<event>
 4    1  0.1187342E-002  0.4760548E+03  0.7818608E-02  0.1020225E+00
         21   -1    0    0  501  502  0.00000000000E+00  0.00000000000E+00  0.10346270702E+03  0.10346270702E+03  0.00000000000E+00 0.  1.
         21   -1    0    0  502  503 -0.00000000000E+00 -0.00000000000E+00 -0.22191777134E+04  0.22191777134E+04  0.00000000000E+00 0. -1.
    9000007    1    1    2  501    0 -0.22277367520E+03 -0.13038418807E+03 -0.92568730616E+03  0.10409251345E+04  0.40000000000E+03 0.  1.
   -9000007    1    1    2    0  503  0.22277367520E+03  0.13038418807E+03 -0.11900277002E+04  0.12817152859E+04  0.40000000000E+03 0. -1.
<mgrwt>
<rscale>  2 0.47605477E+03</rscale>
<asrwt>0</asrwt>
<pdfrwt beam="1">  1       21 0.15917340E-01 0.47605477E+03</pdfrwt>
<pdfrwt beam="2">  1       21 0.34141195E+00 0.47605477E+03</pdfrwt>
<totfact> 0.53674812E+02</totfact>
</mgrwt>
</event>
<event>
 4    1  0.1187342E-002  0.4663168E+03  0.7818608E-02  0.1022965E+00
         21   -1    0    0  503  502  0.00000000000E+00  0.00000000000E+00  0.24107483540E+03  0.24107483540E+03  0.00000000000E+00 0.  1.
         21   -1    0    0  501  503 -0.00000000000E+00 -0.00000000000E+00 -0.97814277221E+03  0.97814277221E+03  0.00000000000E+00 0.  1.
    9000007    1    1    2  501    0 -0.22955618496E+03  0.68958465049E+02 -0.53860996706E+03  0.71242684437E+03  0.40000000000E+03 0.  1.
   -9000007    1    1    2    0  502  0.22955618496E+03 -0.68958465049E+02 -0.19845796974E+03  0.50679076324E+03  0.40000000000E+03 0.  1.
<mgrwt>
<rscale>  2 0.46631675E+03</rscale>
<asrwt>0</asrwt>
<pdfrwt beam="1">  1       21 0.37088436E-01 0.46631675E+03</pdfrwt>
<pdfrwt beam="2">  1       21 0.15048350E+00 0.46631675E+03</pdfrwt>
<totfact> 0.17634028E+03</totfact>
</mgrwt>
</event>
<event>
 4    1  0.1187342E-002  0.6487458E+03  0.7818608E-02  0.9809135E-01
         21   -1    0    0  501  502  0.00000000000E+00  0.00000000000E+00  0.13894356624E+04  0.13894356624E+04  0.00000000000E+00 0.  1.
         21   -1    0    0  502  503 -0.00000000000E+00 -0.00000000000E+00 -0.65363451422E+03  0.65363451422E+03  0.00000000000E+00 0. -1.
    9000007    1    1    2  501    0  0.27533698301E+03 -0.43018676020E+03  0.11161909045E+04  0.12910279773E+04  0.40000000000E+03 0.  1.
   -9000007    1    1    2    0  503 -0.27533698301E+03  0.43018676020E+03 -0.38038975631E+03  0.75204219933E+03  0.40000000000E+03 0. -1.
<mgrwt>
<rscale>  2 0.64874579E+03</rscale>
<asrwt>0</asrwt>
<pdfrwt beam="1">  1       21 0.21375933E+00 0.64874579E+03</pdfrwt>
<pdfrwt beam="2">  1       21 0.10055916E+00 0.64874579E+03</pdfrwt>
<totfact> 0.63557868E+01</totfact>
</mgrwt>
</event>
<event>
 4    1  0.1187342E-002  0.4024508E+03  0.7818608E-02  0.1042934E+00
         21   -1    0    0  503  502  0.00000000000E+00  0.00000000000E+00  0.91071544613E+02  0.91071544613E+02  0.00000000000E+00 0. -1.
         21   -1    0    0  501  503 -0.00000000000E+00 -0.00000000000E+00 -0.18732310673E+04  0.18732310673E+04  0.00000000000E+00 0. -1.
    9000007    1    1    2  501    0  0.97219214232E+01 -0.43268442426E+02 -0.67016165601E+03  0.78171818390E+03  0.40000000000E+03 0. -1.
   -9000007    1    1    2    0  502 -0.97219214232E+01  0.43268442426E+02 -0.11119978667E+04  0.11825844280E+04  0.40000000000E+03 0. -1.
<mgrwt>
<rscale>  2 0.40245083E+03</rscale>
<asrwt>0</asrwt>
<pdfrwt beam="1">  1       21 0.14011007E-01 0.40245083E+03</pdfrwt>
<pdfrwt beam="2">  1       21 0.28818939E+00 0.40245083E+03</pdfrwt>
<totfact> 0.14845530E+03</totfact>
</mgrwt>
</event>
<event>
 4    1  0.1187342E-002  0.4358884E+03  0.7818608E-02  0.1032016E+00
         21   -1    0    0  503  502  0.00000000000E+00  0.00000000000E+00  0.71802469093E+03  0.71802469093E+03  0.00000000000E+00 0. -1.
         21   -1    0    0  501  503 -0.00000000000E+00 -0.00000000000E+00 -0.41399195767E+03  0.41399195767E+03  0.00000000000E+00 0.  1.
    9000007    1    1    2  501    0  0.87220906442E+02 -0.14963693650E+03 -0.18797783795E+03  0.47469397178E+03  0.40000000000E+03 0.  1.
   -9000007    1    1    2    0  502 -0.87220906442E+02  0.14963693650E+03  0.49201057121E+03  0.65732267682E+03  0.40000000000E+03 0. -1.
<mgrwt>
<rscale>  2 0.43588840E+03</rscale>
<asrwt>0</asrwt>
<pdfrwt beam="1">  1       21 0.11046534E+00 0.43588840E+03</pdfrwt>
<pdfrwt beam="2">  1       21 0.63691070E-01 0.43588840E+03</pdfrwt>
<totfact> 0.12642203E+03</totfact>
</mgrwt>
</event>
<event>
 4    1  0.1187342E-002  0.4637387E+03  0.7818608E-02  0.1023702E+00
         21   -1    0    0  501  502  0.00000000000E+00  0.00000000000E+00  0.66131774958E+03  0.66131774958E+03  0.00000000000E+00 0.  1.
         21   -1    0    0  502  503 -0.00000000000E+00 -0.00000000000E+00 -0.32527358851E+03  0.32527358851E+03  0.00000000000E+00 0. -1.
    9000007    1    1    2  501    0 -0.19957991719E+03 -0.12337527131E+03  0.17595260781E+03  0.49599689628E+03  0.40000000000E+03 0. -1.
   -9000007    1    1    2    0  503  0.19957991719E+03  0.12337527131E+03  0.16009155325E+03  0.49059444182E+03  0.40000000000E+03 0.  1.
<mgrwt>
<rscale>  2 0.46373872E+03</rscale>
<asrwt>0</asrwt>
<pdfrwt beam="1">  1       21 0.10174119E+00 0.46373872E+03</pdfrwt>
<pdfrwt beam="2">  1       21 0.50042091E-01 0.46373872E+03</pdfrwt>
<totfact> 0.25850658E+03</totfact>
</mgrwt>
</event>
<event>
 4    1  0.1187342E-002  0.4399941E+03  0.7818608E-02  0.1030749E+00
         21   -1    0    0  501  502  0.00000000000E+00  0.00000000000E+00  0.80835324550E+03  0.80835324550E+03  0.00000000000E+00 0. -1.
         21   -1    0    0  502  503 -0.00000000000E+00 -0.00000000000E+00 -0.24045678703E+03  0.24045678703E+03  0.00000000000E+00 0. -1.
    9000007    1    1    2  501    0  0.15709049777E+03  0.94431959605E+02  0.31715093753E+03  0.54238320094E+03  0.40000000000E+03 0. -1.
   -9000007    1    1    2    0  503 -0.15709049777E+03 -0.94431959605E+02  0.25074552094E+03  0.50642683159E+03  0.40000000000E+03 0. -1.
<mgrwt>
<rscale>  2 0.43999411E+03</rscale>
<asrwt>0</asrwt>
<pdfrwt beam="1">  1       21 0.12436204E+00 0.43999411E+03</pdfrwt>
<pdfrwt beam="2">  1       21 0.36993352E-01 0.43999411E+03</pdfrwt>
<totfact> 0.29617099E+03</totfact>
</mgrwt>
</event>
<event>
 4    1  0.1187342E-002  0.5235975E+03  0.7818608E-02  0.1007797E+00
         21   -1    0    0  501  502  0.00000000000E+00  0.00000000000E+00  0.12017560007E+04  0.12017560007E+04  0.00000000000E+00 0. -1.
         21   -1    0    0  502  503 -0.00000000000E+00 -0.00000000000E+00 -0.22815592167E+03  0.22815592167E+03  0.00000000000E+00 0. -1.
    9000007    1    1    2  501    0  0.11185262695E+02  0.33768211621E+03  0.47890600362E+03  0.70958106092E+03  0.40000000000E+03 0. -1.
   -9000007    1    1    2    0  503 -0.11185262695E+02 -0.33768211621E+03  0.49469407541E+03  0.72033086145E+03  0.40000000000E+03 0. -1.
<mgrwt>
<rscale>  2 0.52359748E+03</rscale>
<asrwt>0</asrwt>
<pdfrwt beam="1">  1       21 0.18488553E+00 0.52359748E+03</pdfrwt>
<pdfrwt beam="2">  1       21 0.35100912E-01 0.52359748E+03</pdfrwt>
<totfact> 0.10750339E+03</totfact>
</mgrwt>
</event>
<event>
 4    1  0.1187342E-002  0.4504040E+03  0.7818608E-02  0.1027602E+00
         21   -1    0    0  501  502  0.00000000000E+00  0.00000000000E+00  0.13495835136E+04  0.13495835136E+04  0.00000000000E+00 0. -1.
         21   -1    0    0  502  503 -0.00000000000E+00 -0.00000000000E+00 -0.29312602064E+03  0.29312602064E+03  0.00000000000E+00 0. -1.
    9000007    1    1    2  501    0  0.87599370072E+02 -0.18759021361E+03  0.11015304432E+04  0.11900559042E+04  0.40000000000E+03 0. -1.
   -9000007    1    1    2    0  503 -0.87599370072E+02  0.18759021361E+03 -0.45072950281E+02  0.45265362997E+03  0.40000000000E+03 0. -1.
<mgrwt>
<rscale>  2 0.45040397E+03</rscale>
<asrwt>0</asrwt>
<pdfrwt beam="1">  1       21 0.20762823E+00 0.45040397E+03</pdfrwt>
<pdfrwt beam="2">  1       21 0.45096312E-01 0.45040397E+03</pdfrwt>
<totfact> 0.46471017E+02</totfact>
</mgrwt>
</event>
<event>
 4    1  0.1187342E-002  0.4401658E+03  0.7818608E-02  0.1030696E+00
         21   -1    0    0  503  502  0.00000000000E+00  0.00000000000E+00  0.15082711542E+03  0.15082711542E+03  0.00000000000E+00 0.  1.
         21   -1    0    0  501  503 -0.00000000000E+00 -0.00000000000E+00 -0.15853675188E+04  0.15853675188E+04  0.00000000000E+00 0.  1.
    9000007    1    1    2  501    0  0.10023451774E+03 -0.15394483771E+03 -0.10954081034E+04  0.11805358464E+04  0.40000000000E+03 0.  1.
   -9000007    1    1    2    0  502 -0.10023451774E+03  0.15394483771E+03 -0.33913229995E+03  0.55565878781E+03  0.40000000000E+03 0.  1.
<mgrwt>
<rscale>  2 0.44016585E+03</rscale>
<asrwt>0</asrwt>
<pdfrwt beam="1">  1       21 0.23204171E-01 0.44016585E+03</pdfrwt>
<pdfrwt beam="2">  1       21 0.24390270E+00 0.44016585E+03</pdfrwt>
<totfact> 0.10435061E+03</totfact>
</mgrwt>
</event>
<event>
 4    1  0.1187342E-002  0.4452275E+03  0.7818608E-02  0.1029155E+00
         21   -1    0    0  501  502  0.00000000000E+00  0.00000000000E+00  0.18551792417E+03  0.18551792417E+03  0.00000000000E+00 0.  1.
         21   -1    0    0  502  503 -0.00000000000E+00 -0.00000000000E+00 -0.13425710493E+04  0.13425710493E+04  0.00000000000E+00 0. -1.
    9000007    1    1    2  501    0  0.66127590275E+02  0.18399649887E+03 -0.23332363866E+03  0.50266041236E+03  0.40000000000E+03 0.  1.
   -9000007    1    1    2    0  503 -0.66127590275E+02 -0.18399649887E+03 -0.92372948651E+03  0.10254285612E+04  0.40000000000E+03 0. -1.
<mgrwt>
<rscale>  2 0.44522755E+03</rscale>
<asrwt>0</asrwt>
<pdfrwt beam="1">  1       21 0.28541219E-01 0.44522755E+03</pdfrwt>
<pdfrwt beam="2">  1       21 0.20654939E+00 0.44522755E+03</pdfrwt>
<totfact> 0.11995285E+03</totfact>
</mgrwt>
</event>
<event>
 4    1  0.1187342E-002  0.4352584E+03  0.7818608E-02  0.1032212E+00
         21   -1    0    0  503  502  0.00000000000E+00  0.00000000000E+00  0.36369097439E+03  0.36369097439E+03  0.00000000000E+00 0. -1.
         21   -1    0    0  501  503 -0.00000000000E+00 -0.00000000000E+00 -0.59098861339E+03  0.59098861339E+03  0.00000000000E+00 0.  1.
    9000007    1    1    2  501    0 -0.17158448051E+03  0.29337030022E+01 -0.27802332326E+03  0.51647537099E+03  0.40000000000E+03 0. -1.
   -9000007    1    1    2    0  502  0.17158448051E+03 -0.29337030022E+01  0.50725684268E+02  0.43820421679E+03  0.40000000000E+03 0. -1.
<mgrwt>
<rscale>  2 0.43525836E+03</rscale>
<asrwt>0</asrwt>
<pdfrwt beam="1">  1       21 0.55952458E-01 0.43525836E+03</pdfrwt>
<pdfrwt beam="2">  1       21 0.90921325E-01 0.43525836E+03</pdfrwt>
<totfact> 0.26940311E+03</totfact>
</mgrwt>
</event>
<event>
 4    1  0.1187342E-002  0.4347159E+03  0.7818608E-02  0.1032381E+00
         21   -1    0    0  501  502  0.00000000000E+00  0.00000000000E+00  0.40038869128E+03  0.40038869128E+03  0.00000000000E+00 0. -1.
         21   -1    0    0  502  503 -0.00000000000E+00 -0.00000000000E+00 -0.58308548708E+03  0.58308548708E+03  0.00000000000E+00 0. -1.
    9000007    1    1    2  501    0 -0.67855800677E+02  0.15612015444E+03  0.12329750653E+03  0.45186301843E+03  0.40000000000E+03 0. -1.
   -9000007    1    1    2    0  503  0.67855800677E+02 -0.15612015444E+03 -0.30599430233E+03  0.53161115993E+03  0.40000000000E+03 0. -1.
<mgrwt>
<rscale>  2 0.43471590E+03</rscale>
<asrwt>0</asrwt>
<pdfrwt beam="1">  1       21 0.61598260E-01 0.43471590E+03</pdfrwt>
<pdfrwt beam="2">  1       21 0.89705460E-01 0.43471590E+03</pdfrwt>
<totfact> 0.22555333E+03</totfact>
</mgrwt>
</event>
<event>
 4    1  0.1187342E-002  0.5752451E+03  0.7818608E-02  0.9958139E-01
         21   -1    0    0  503  502  0.00000000000E+00  0.00000000000E+00  0.22829591760E+03  0.22829591760E+03  0.00000000000E+00 0.  1.
         21   -1    0    0  501  503 -0.00000000000E+00 -0.00000000000E+00 -0.14528465306E+04  0.14528465306E+04  0.00000000000E+00 0. -1.
    9000007    1    1    2  501    0 -0.31503572209E+03  0.26769274403E+03 -0.57172165410E+03  0.81103178801E+03  0.40000000000E+03 0.  1.
   -9000007    1    1    2    0  502  0.31503572209E+03 -0.26769274403E+03 -0.65282895893E+03  0.87011066022E+03  0.40000000000E+03 0.  1.
<mgrwt>
<rscale>  2 0.57524509E+03</rscale>
<asrwt>0</asrwt>
<pdfrwt beam="1">  1       21 0.35122449E-01 0.57524509E+03</pdfrwt>
<pdfrwt beam="2">  1       21 0.22351485E+00 0.57524509E+03</pdfrwt>
<totfact> 0.58146066E+02</totfact>
</mgrwt>
</event>
<event>
 4    1  0.1187342E-002  0.6170023E+03  0.7818608E-02  0.9870746E-01
         21   -1    0    0  501  502  0.00000000000E+00  0.00000000000E+00  0.15770297364E+03  0.15770297364E+03  0.00000000000E+00 0. -1.
         21   -1    0    0  502  503 -0.00000000000E+00 -0.00000000000E+00 -0.26343671695E+04  0.26343671695E+04  0.00000000000E+00 0. -1.
    9000007    1    1    2  501    0 -0.28847908397E+03 -0.37077165527E+03 -0.83454590225E+03  0.10378625464E+04  0.40000000000E+03 0. -1.
   -9000007    1    1    2    0  503  0.28847908397E+03  0.37077165527E+03 -0.16421182936E+04  0.17542075967E+04  0.40000000000E+03 0. -1.
<mgrwt>
<rscale>  2 0.61700227E+03</rscale>
<asrwt>0</asrwt>
<pdfrwt beam="1">  1       21 0.24261997E-01 0.61700227E+03</pdfrwt>
<pdfrwt beam="2">  1       21 0.40528723E+00 0.61700227E+03</pdfrwt>
<totfact> 0.88238732E+01</totfact>
</mgrwt>
</event>
<event>
 4    1  0.1187342E-002  0.4099365E+03  0.7818608E-02  0.1040392E+00
         21   -1    0    0  501  502  0.00000000000E+00  0.00000000000E+00  0.10357706587E+03  0.10357706587E+03  0.00000000000E+00 0. -1.
         21   -1    0    0  502  503 -0.00000000000E+00 -0.00000000000E+00 -0.17878591417E+04  0.17878591417E+04  0.00000000000E+00 0. -1.
    9000007    1    1    2  501    0  0.89704993135E+02  0.97865061459E+00 -0.55447853131E+03  0.68956100907E+03  0.40000000000E+03 0. -1.
   -9000007    1    1    2    0  503 -0.89704993135E+02 -0.97865061459E+00 -0.11298035446E+04  0.12018751985E+04  0.40000000000E+03 0. -1.
<mgrwt>
<rscale>  2 0.40993651E+03</rscale>
<asrwt>0</asrwt>
<pdfrwt beam="1">  1       21 0.15934933E-01 0.40993651E+03</pdfrwt>
<pdfrwt beam="2">  1       21 0.27505526E+00 0.40993651E+03</pdfrwt>
<totfact> 0.13965302E+03</totfact>
</mgrwt>
</event>
<event>
 4    1  0.1187342E-002  0.4789468E+03  0.7818608E-02  0.1019425E+00
         21   -1    0    0  503  502  0.00000000000E+00  0.00000000000E+00  0.44402861322E+03  0.44402861322E+03  0.00000000000E+00 0.  1.
         21   -1    0    0  501  503 -0.00000000000E+00 -0.00000000000E+00 -0.51678228045E+03  0.51678228045E+03  0.00000000000E+00 0. -1.
    9000007    1    1    2  501    0  0.24905429892E+03 -0.85801856852E+02 -0.45126452171E+02  0.48106797766E+03  0.40000000000E+03 0.  1.
   -9000007    1    1    2    0  502 -0.24905429892E+03  0.85801856852E+02 -0.27627215055E+02  0.47974291601E+03  0.40000000000E+03 0. -1.
<mgrwt>
<rscale>  2 0.47894676E+03</rscale>
<asrwt>0</asrwt>
<pdfrwt beam="1">  1       21 0.68312094E-01 0.47894676E+03</pdfrwt>
<pdfrwt beam="2">  1       21 0.79504966E-01 0.47894676E+03</pdfrwt>
<totfact> 0.23386618E+03</totfact>
</mgrwt>
</event>
<event>
 4    1  0.1187342E-002  0.5269972E+03  0.7818608E-02  0.1006963E+00
         21   -1    0    0  503  502  0.00000000000E+00  0.00000000000E+00  0.32516099466E+03  0.32516099466E+03  0.00000000000E+00 0. -1.
         21   -1    0    0  501  503 -0.00000000000E+00 -0.00000000000E+00 -0.88756874855E+03  0.88756874855E+03  0.00000000000E+00 0. -1.
    9000007    1    1    2  501    0  0.22613898819E+03  0.25804496677E+03 -0.16348877284E+03  0.55177407125E+03  0.40000000000E+03 0. -1.
   -9000007    1    1    2    0  502 -0.22613898819E+03 -0.25804496677E+03 -0.39891898105E+03  0.66095567196E+03  0.40000000000E+03 0. -1.
<mgrwt>
<rscale>  2 0.52699720E+03</rscale>
<asrwt>0</asrwt>
<pdfrwt beam="1">  1       21 0.50024770E-01 0.52699720E+03</pdfrwt>
<pdfrwt beam="2">  1       21 0.13654903E+00 0.52699720E+03</pdfrwt>
<totfact> 0.11994643E+03</totfact>
</mgrwt>
</event>
<event>
 4    1  0.1187342E-002  0.5028085E+03  0.7818608E-02  0.1013048E+00
         21   -1    0    0  503  502  0.00000000000E+00  0.00000000000E+00  0.81345245947E+03  0.81345245947E+03  0.00000000000E+00 0. -1.
         21   -1    0    0  501  503 -0.00000000000E+00 -0.00000000000E+00 -0.62582818178E+03  0.62582818178E+03  0.00000000000E+00 0. -1.
    9000007    1    1    2  501    0  0.24346849032E+03 -0.18313779702E+03 -0.41677113937E+03  0.65308080747E+03  0.40000000000E+03 0. -1.
   -9000007    1    1    2    0  502 -0.24346849032E+03  0.18313779702E+03  0.60439541706E+03  0.78619983378E+03  0.40000000000E+03 0. -1.
<mgrwt>
<rscale>  2 0.50280847E+03</rscale>
<asrwt>0</asrwt>
<pdfrwt beam="1">  1       21 0.12514653E+00 0.50280847E+03</pdfrwt>
<pdfrwt beam="2">  1       21 0.96281259E-01 0.50280847E+03</pdfrwt>
<totfact> 0.34579067E+02</totfact>
</mgrwt>
</event>
<event>
 4    1  0.1187342E-002  0.4635259E+03  0.7818608E-02  0.1023764E+00
         21   -1    0    0  501  502  0.00000000000E+00  0.00000000000E+00  0.35786685700E+03  0.35786685700E+03  0.00000000000E+00 0.  1.
         21   -1    0    0  502  503 -0.00000000000E+00 -0.00000000000E+00 -0.72222304828E+03  0.72222304828E+03  0.00000000000E+00 0.  1.
    9000007    1    1    2  501    0  0.81999011390E+02  0.21939108252E+03  0.39638335813E+02  0.46521767231E+03  0.40000000000E+03 0.  1.
   -9000007    1    1    2    0  503 -0.81999011390E+02 -0.21939108252E+03 -0.40399452710E+03  0.61487223298E+03  0.40000000000E+03 0.  1.
<mgrwt>
<rscale>  2 0.46352593E+03</rscale>
<asrwt>0</asrwt>
<pdfrwt beam="1">  1       21 0.55056440E-01 0.46352593E+03</pdfrwt>
<pdfrwt beam="2">  1       21 0.11111124E+00 0.46352593E+03</pdfrwt>
<totfact> 0.16948160E+03</totfact>
</mgrwt>
</event>
<event>
 4    1  0.1187342E-002  0.4741511E+03  0.7818608E-02  0.1020755E+00
         21   -1    0    0  503  502  0.00000000000E+00  0.00000000000E+00  0.18183315137E+03  0.18183315137E+03  0.00000000000E+00 0.  1.
         21   -1    0    0  501  503 -0.00000000000E+00 -0.00000000000E+00 -0.17799638219E+04  0.17799638219E+04  0.00000000000E+00 0. -1.
    9000007    1    1    2  501    0 -0.25340101162E+03 -0.24641081869E+02 -0.13411187778E+04  0.14224692727E+04  0.40000000000E+03 0. -1.
   -9000007    1    1    2    0  502  0.25340101162E+03  0.24641081869E+02 -0.25701189273E+03  0.53932770058E+03  0.40000000000E+03 0.  1.
<mgrwt>
<rscale>  2 0.47415109E+03</rscale>
<asrwt>0</asrwt>
<pdfrwt beam="1">  1       21 0.27974332E-01 0.47415109E+03</pdfrwt>
<pdfrwt beam="2">  1       21 0.27384058E+00 0.47415109E+03</pdfrwt>
<totfact> 0.46743408E+02</totfact>
</mgrwt>
</event>
<event>
 4    1  0.1187342E-002  0.6039632E+03  0.7818608E-02  0.9897218E-01
         21   -1    0    0  501  502  0.00000000000E+00  0.00000000000E+00  0.55208299171E+03  0.55208299171E+03  0.00000000000E+00 0.  1.
         21   -1    0    0  502  503 -0.00000000000E+00 -0.00000000000E+00 -0.66132994705E+03  0.66132994705E+03  0.00000000000E+00 0.  1.
    9000007    1    1    2  501    0 -0.55571151670E+02 -0.44909173090E+03 -0.73069017770E+02  0.60836717286E+03  0.40000000000E+03 0.  1.
   -9000007    1    1    2    0  503  0.55571151670E+02  0.44909173090E+03 -0.36177937570E+02  0.60504576589E+03  0.40000000000E+03 0.  1.
<mgrwt>
<rscale>  2 0.60396319E+03</rscale>
<asrwt>0</asrwt>
<pdfrwt beam="1">  1       21 0.84935845E-01 0.60396319E+03</pdfrwt>
<pdfrwt beam="2">  1       21 0.10174307E+00 0.60396319E+03</pdfrwt>
<totfact> 0.75651402E+02</totfact>
</mgrwt>
</event>
<event>
 4    1  0.1187342E-002  0.7734522E+03  0.7818608E-02  0.9599259E-01
         21   -1    0    0  503  502  0.00000000000E+00  0.00000000000E+00  0.14985161222E+04  0.14985161222E+04  0.00000000000E+00 0.  1.
         21   -1    0    0  501  503 -0.00000000000E+00 -0.00000000000E+00 -0.50603929684E+03  0.50603929684E+03  0.00000000000E+00 0.  1.
    9000007    1    1    2  501    0  0.65303072844E+03  0.10853201674E+03  0.35734430822E+02  0.77427726332E+03  0.40000000000E+03 0.  1.
   -9000007    1    1    2    0  502 -0.65303072844E+03 -0.10853201674E+03  0.95674239453E+03  0.12302781557E+04  0.40000000000E+03 0.  1.
<mgrwt>
<rscale>  2 0.77345222E+03</rscale>
<asrwt>0</asrwt>
<pdfrwt beam="1">  1       21 0.23054094E+00 0.77345222E+03</pdfrwt>
<pdfrwt beam="2">  1       21 0.77852200E-01 0.77345222E+03</pdfrwt>
<totfact> 0.87041482E+01</totfact>
</mgrwt>
</event>
<event>
 4    1  0.1187342E-002  0.4387901E+03  0.7818608E-02  0.1031119E+00
         21   -1    0    0  503  502  0.00000000000E+00  0.00000000000E+00  0.16005882681E+03  0.16005882681E+03  0.00000000000E+00 0.  1.
         21   -1    0    0  501  503 -0.00000000000E+00 -0.00000000000E+00 -0.12570485181E+04  0.12570485181E+04  0.00000000000E+00 0.  1.
    9000007    1    1    2  501    0 -0.10460903277E+03  0.14694806844E+03 -0.40145353677E+03  0.59472827976E+03  0.40000000000E+03 0.  1.
   -9000007    1    1    2    0  502  0.10460903277E+03 -0.14694806844E+03 -0.69553615450E+03  0.82237906514E+03  0.40000000000E+03 0.  1.
<mgrwt>
<rscale>  2 0.43879014E+03</rscale>
<asrwt>0</asrwt>
<pdfrwt beam="1">  1       21 0.24624435E-01 0.43879014E+03</pdfrwt>
<pdfrwt beam="2">  1       21 0.19339208E+00 0.43879014E+03</pdfrwt>
<totfact> 0.19656524E+03</totfact>
</mgrwt>
</event>
