<event>
11    0  0.3443539E-009  0.9118800E+02  0.7816531E-02  0.1126479E+00
         25   -1    0    0    0    0  0.00000000000E+00  0.00000000000E+00  0.99999998245E-14  0.12500000000E+03  0.12500000000E+03 0.  0.
    3000001    1    3    3    0    0  0.83779593511E+01 -0.37694218921E+01 -0.11880129705E+02  0.15051120427E+02  0.10000000000E+01 0.  1.
    1000022    2    1    0    0    0  0.44939991221E+02 -0.21396663191E+02 -0.36453108109E+02  0.62499993568E+02  0.10000004923E+02 0.  0.
    3000022    2    3    3    0    0  0.36562031870E+02 -0.17627241299E+02 -0.24572978404E+02  0.47448873141E+02  0.24996881169E+00 0.  0.
    1000022    2    1    0    0    0 -0.44939991221E+02  0.21396663191E+02  0.36453108109E+02  0.62500006432E+02  0.10000085325E+02 0.  0.
    3000022    2    5    5    0    0 -0.67986742845E+01 -0.14090000689E+00  0.33356896383E+01  0.75783340946E+01  0.24999489432E+00 0.  0.
        -13    1    4    4    0    0  0.13594689056E+02 -0.66206513560E+01 -0.91521328032E+01  0.17675439308E+02  0.10500000000E+00 0. -1.
         13    1    4    4    0    0  0.22967342815E+02 -0.11006589943E+02 -0.15420845601E+02  0.29773433833E+02  0.10500000000E+00 0.  1.
    3000001    1    5    5    0    0 -0.38141316937E+02  0.21537563198E+02  0.33117418471E+02  0.54921672338E+02  0.10000000000E+01 0.  1.
        -13    1    6    6    0    0 -0.51444929953E+01 -0.12815647591E+00  0.25282680764E+01  0.57345790366E+01  0.10500000000E+00 0.  1.
         13    1    6    6    0    0 -0.16541812892E+01 -0.12743530977E-01  0.80742156187E+00  0.18437550579E+01  0.10500000000E+00 0. -1.
</event>
<event>
11    0  0.3443539E-009  0.9118800E+02  0.7816531E-02  0.1126479E+00
         25   -1    0    0    0    0  0.00000000000E+00  0.00000000000E+00  0.99999998245E-14  0.12500000000E+03  0.12500000000E+03 0.  0.
    3000001    1    3    3    0    0  0.84020275894E+01  0.31214236838E+02 -0.50516748859E+02  0.59982202063E+02  0.10000000000E+01 0.  1.
    1000022    2    1    0    0    0  0.84379570573E+01  0.30549254363E+02 -0.52931976765E+02  0.62500001621E+02  0.99999988470E+01 0.  0.
    3000022    2    3    3    0    0  0.35929467845E-01 -0.66498247512E+00 -0.24152279061E+01  0.25177995585E+01  0.24999231843E+00 0.  0.
    1000022    2    1    0    0    0 -0.84379570573E+01 -0.30549254363E+02  0.52931976765E+02  0.62499998379E+02  0.99999785843E+01 0.  0.
    3000022    2    5    5    0    0 -0.87422146222E+01 -0.23664678080E+02  0.47039030281E+02  0.53377675126E+02  0.25005394039E+00 0.  0.
        -13    1    4    4    0    0  0.57825041080E-01 -0.50253279602E+00 -0.17649866995E+01  0.18390448597E+01  0.10500000000E+00 0. -1.
         13    1    4    4    0    0 -0.21895573235E-01 -0.16244967910E+00 -0.65024120659E+00  0.67875469878E+00  0.10500000000E+00 0.  1.
    3000001    1    5    5    0    0  0.30425756490E+00 -0.68845762832E+01  0.58929464836E+01  0.91223232525E+01  0.10000000000E+01 0. -1.
        -13    1    6    6    0    0 -0.24886221810E+01 -0.68563058987E+01  0.13579260893E+02  0.15414587972E+02  0.10500000000E+00 0.  1.
         13    1    6    6    0    0 -0.62535924412E+01 -0.16808372181E+02  0.33459769388E+02  0.37963087155E+02  0.10500000000E+00 0. -1.
</event>
<event>
11    0  0.3443539E-009  0.9118800E+02  0.7816531E-02  0.1126479E+00
         25   -1    0    0    0    0  0.00000000000E+00  0.00000000000E+00  0.99999998245E-14  0.12500000000E+03  0.12500000000E+03 0.  0.
    3000001    1    3    3    0    0  0.51775614731E+01  0.17780497890E+02 -0.89915197855E+01  0.20610693246E+02  0.10000000000E+01 0.  1.
    1000022    2    1    0    0    0  0.23736435208E+02  0.54712730395E+02 -0.15790780800E+02  0.62500000287E+02  0.10000002698E+02 0.  0.
    3000022    2    3    3    0    0  0.18558873735E+02  0.36932232504E+02 -0.67992610148E+01  0.41889307041E+02  0.25000387531E+00 0.  0.
    1000022    2    1    0    0    0 -0.23736435208E+02 -0.54712730395E+02  0.15790780800E+02  0.62499999713E+02  0.99999991106E+01 0.  0.
    3000022    2    5    5    0    0 -0.16852890118E+02 -0.37984533909E+02  0.15584066511E+02  0.44382094717E+02  0.24996155676E+00 0.  0.
        -13    1    4    4    0    0  0.10974406875E+02  0.21765174078E+02 -0.39542497051E+01  0.24694281213E+02  0.10500000000E+00 0.  1.
         13    1    4    4    0    0  0.75844668603E+01  0.15167058427E+02 -0.28450113098E+01  0.17195025828E+02  0.10500000000E+00 0. -1.
    3000001    1    5    5    0    0 -0.68835450900E+01 -0.16728196485E+02  0.20671428938E+00  0.18117904996E+02  0.10000000000E+01 0.  1.
        -13    1    6    6    0    0 -0.38579483465E+01 -0.86974298540E+01  0.35706854011E+01  0.10163162438E+02  0.10500000000E+00 0.  1.
         13    1    6    6    0    0 -0.12994941772E+02 -0.29287104055E+02  0.12013381110E+02  0.34218932278E+02  0.10500000000E+00 0. -1.
</event>
<event>
11    0  0.3443539E-009  0.9118800E+02  0.7816531E-02  0.1126479E+00
         25   -1    0    0    0    0  0.00000000000E+00  0.00000000000E+00  0.99999998245E-14  0.12500000000E+03  0.12500000000E+03 0.  0.
    3000001    1    3    3    0    0  0.39399614069E+02 -0.45240717029E+02  0.14796958501E+02  0.61798074783E+02  0.10000000000E+01 0.  1.
    1000022    2    1    0    0    0  0.39632813096E+02 -0.45097985481E+02  0.14200765356E+02  0.62500000475E+02  0.10000007713E+02 0.  0.
    3000022    2    3    3    0    0  0.23319902746E+00  0.14273154762E+00 -0.59619314534E+00  0.70192569121E+00  0.24999865667E+00 0.  0.
    1000022    2    1    0    0    0 -0.39632813096E+02  0.45097985481E+02 -0.14200765356E+02  0.62499999525E+02  0.10000001780E+02 0.  0.
    3000022    2    5    5    0    0 -0.10012042201E+02  0.12052550337E+02  0.67361971443E+00  0.15685064051E+02  0.25002417695E+00 0.  0.
        -13    1    4    4    0    0  0.12788492678E+00  0.81022461634E-01 -0.18846921806E+00  0.26356183324E+00  0.10500000000E+00 0. -1.
         13    1    4    4    0    0  0.10531410068E+00  0.61709085989E-01 -0.40772392728E+00  0.43836385797E+00  0.10500000000E+00 0.  1.
    3000001    1    5    5    0    0 -0.29620770895E+02  0.33045435145E+02 -0.14874385070E+02  0.46814935475E+02  0.10000000000E+01 0. -1.
        -13    1    6    6    0    0 -0.31868776209E+01  0.39123954264E+01  0.23323583167E+00  0.50525687424E+01  0.10500000000E+00 0.  1.
         13    1    6    6    0    0 -0.68251645805E+01  0.81401549104E+01  0.44038388276E+00  0.10632495308E+02  0.10500000000E+00 0. -1.
</event>
<event>
11    0  0.3443539E-009  0.9118800E+02  0.7816531E-02  0.1126479E+00
         25   -1    0    0    0    0  0.00000000000E+00  0.00000000000E+00  0.99999998245E-14  0.12500000000E+03  0.12500000000E+03 0.  0.
    3000001    1    3    3    0    0  0.28272364528E+02  0.12335237014E+02  0.10894878494E+02  0.32728932851E+02  0.10000000000E+01 0.  1.
    1000022    2    1    0    0    0  0.48052292725E+02  0.28232233423E+02  0.26460678230E+02  0.62500004002E+02  0.10000058384E+02 0.  0.
    3000022    2    3    3    0    0  0.19779928197E+02  0.15896996409E+02  0.15565799736E+02  0.29771071151E+02  0.25000344561E+00 0.  0.
    1000022    2    1    0    0    0 -0.48052292725E+02 -0.28232233423E+02 -0.26460678230E+02  0.62499995998E+02  0.10000008361E+02 0.  0.
    3000022    2    5    5    0    0 -0.28721651740E+02 -0.21612400828E+02 -0.19479022749E+02  0.40884275383E+02  0.24999616703E+00 0.  0.
        -13    1    4    4    0    0  0.75891003762E+01  0.60397263494E+01  0.59960961684E+01  0.11403373762E+02  0.10500000000E+00 0.  1.
         13    1    4    4    0    0  0.12190827821E+02  0.98572700597E+01  0.95697035675E+01  0.18367697389E+02  0.10500000000E+00 0. -1.
    3000001    1    5    5    0    0 -0.19330640985E+02 -0.66198325946E+01 -0.69816554805E+01  0.21615720615E+02  0.10000000000E+01 0. -1.
        -13    1    6    6    0    0 -0.10142569021E+02 -0.76112384235E+01 -0.68100767639E+01  0.14394124746E+02  0.10500000000E+00 0.  1.
         13    1    6    6    0    0 -0.18579082720E+02 -0.14001162405E+02 -0.12668945985E+02  0.26490150637E+02  0.10500000000E+00 0. -1.
</event>
<event>
11    0  0.3443539E-009  0.9118800E+02  0.7816531E-02  0.1126479E+00
         25   -1    0    0    0    0  0.00000000000E+00  0.00000000000E+00  0.99999998245E-14  0.12500000000E+03  0.12500000000E+03 0.  0.
    3000001    1    3    3    0    0  0.75630808537E+00  0.11591185819E+02  0.52445026818E+00  0.11670588618E+02  0.10000000000E+01 0.  1.
    1000022    2    1    0    0    0 -0.14264262624E+02  0.59007258221E+02  0.10996558508E+02  0.62499999556E+02  0.99999967248E+01 0.  0.
    3000022    2    3    3    0    0 -0.15020570709E+02  0.47416072402E+02  0.10472108239E+02  0.50829410938E+02  0.24999763756E+00 0.  0.
    1000022    2    1    0    0    0  0.14264262624E+02 -0.59007258221E+02 -0.10996558508E+02  0.62500000444E+02  0.10000002272E+02 0.  0.
    3000022    2    5    5    0    0  0.11223318217E+02 -0.50015887285E+02 -0.56775999277E+01  0.51573728684E+02  0.24999335342E+00 0.  0.
        -13    1    4    4    0    0 -0.47472783644E+01  0.14856524869E+02  0.33144658495E+01  0.15945209059E+02  0.10500000000E+00 0. -1.
         13    1    4    4    0    0 -0.10273292345E+02  0.32559547533E+02  0.71576423900E+01  0.34884201879E+02  0.10500000000E+00 0.  1.
    3000001    1    5    5    0    0  0.30409444068E+01 -0.89913709363E+01 -0.53189585800E+01  0.10926271760E+02  0.10000000000E+01 0. -1.
        -13    1    6    6    0    0  0.64312560488E+01 -0.28460553176E+02 -0.32809370436E+01  0.29362215760E+02  0.10500000000E+00 0. -1.
         13    1    6    6    0    0  0.47920621683E+01 -0.21555334109E+02 -0.23966628841E+01  0.22211512924E+02  0.10500000000E+00 0.  1.
</event>
<event>
11    0  0.3443539E-009  0.9118800E+02  0.7816531E-02  0.1126479E+00
         25   -1    0    0    0    0  0.00000000000E+00  0.00000000000E+00  0.99999998245E-14  0.12500000000E+03  0.12500000000E+03 0.  0.
    3000001    1    3    3    0    0 -0.58270496522E+01 -0.76771508224E+01 -0.69737410290E+01  0.11938434417E+02  0.10000000000E+01 0. -1.
    1000022    2    1    0    0    0 -0.12101621163E+02 -0.48082317156E+02 -0.36713642124E+02  0.62500000168E+02  0.10000002256E+02 0.  0.
    3000022    2    3    3    0    0 -0.62745715103E+01 -0.40405166333E+02 -0.29739901095E+02  0.50561565750E+02  0.24999982004E+00 0.  0.
    1000022    2    1    0    0    0  0.12101621163E+02  0.48082317156E+02  0.36713642124E+02  0.62499999832E+02  0.10000000160E+02 0.  0.
    3000022    2    5    5    0    0  0.26111198142E+01  0.72275367949E+01  0.17475781268E+01  0.78849073612E+01  0.24999995596E+00 0.  0.
        -13    1    4    4    0    0 -0.40965906197E+01 -0.26155934796E+02 -0.19311685318E+02  0.32769912948E+02  0.10500000000E+00 0. -1.
         13    1    4    4    0    0 -0.21779808906E+01 -0.14249231537E+02 -0.10428215777E+02  0.17791652803E+02  0.10500000000E+00 0.  1.
    3000001    1    5    5    0    0  0.94905013483E+01  0.40854780361E+02  0.34966063997E+02  0.54615092471E+02  0.10000000000E+01 0.  1.
        -13    1    6    6    0    0  0.11956866190E+01  0.32513103806E+01  0.85317855125E+00  0.35692610331E+01  0.10500000000E+00 0. -1.
         13    1    6    6    0    0  0.14154331952E+01  0.39762264144E+01  0.89439957559E+00  0.43156463281E+01  0.10500000000E+00 0.  1.
</event>
<event>
11    0  0.3443539E-009  0.9118800E+02  0.7816531E-02  0.1126479E+00
         25   -1    0    0    0    0  0.00000000000E+00  0.00000000000E+00  0.99999998245E-14  0.12500000000E+03  0.12500000000E+03 0.  0.
    3000001    1    3    3    0    0 -0.74273397823E+00 -0.18682722396E+01  0.52983174308E+01  0.57544993285E+01  0.10000000000E+01 0.  1.
    1000022    2    1    0    0    0 -0.89857849069E+01 -0.45011894443E+02  0.41224204796E+02  0.62500000358E+02  0.10000000601E+02 0.  0.
    3000022    2    3    3    0    0 -0.82430509287E+01 -0.43143622203E+02  0.35925887365E+02  0.56745501030E+02  0.24995747654E+00 0.  0.
    1000022    2    1    0    0    0  0.89857849069E+01  0.45011894443E+02 -0.41224204796E+02  0.62499999642E+02  0.99999961248E+01 0.  0.
    3000022    2    5    5    0    0 -0.12507275818E+01  0.16497330467E+01 -0.53292620993E+00  0.21523121816E+01  0.24999754562E+00 0.  0.
        -13    1    4    4    0    0 -0.44202111377E+01 -0.23303981229E+02  0.19324007244E+02  0.30594804928E+02  0.10500000000E+00 0.  1.
         13    1    4    4    0    0 -0.38228397910E+01 -0.19839640974E+02  0.16601880121E+02  0.26150696102E+02  0.10500000000E+00 0. -1.
    3000001    1    5    5    0    0  0.10236512489E+02  0.43362161396E+02 -0.40691278586E+02  0.60347687460E+02  0.10000000000E+01 0.  1.
        -13    1    6    6    0    0 -0.73608767837E+00  0.10006297403E+01 -0.25651416518E+00  0.12727566399E+01  0.10500000000E+00 0. -1.
         13    1    6    6    0    0 -0.51463990345E+00  0.64910330640E+00 -0.27641204475E+00  0.87955554178E+00  0.10500000000E+00 0.  1.
</event>
<event>
11    0  0.3443539E-009  0.9118800E+02  0.7816531E-02  0.1126479E+00
         25   -1    0    0    0    0  0.00000000000E+00  0.00000000000E+00  0.99999998245E-14  0.12500000000E+03  0.12500000000E+03 0.  0.
    3000001    1    3    3    0    0  0.43022450557E+01  0.12630744497E+02 -0.12716500809E+02  0.18459534444E+02  0.10000000000E+01 0. -1.
    1000022    2    1    0    0    0  0.15591292751E+02  0.51287452144E+02 -0.30541100889E+02  0.62499998851E+02  0.99999927896E+01 0.  0.
    3000022    2    3    3    0    0  0.11289047695E+02  0.38656707647E+02 -0.17824600080E+02  0.44040464407E+02  0.24998635887E+00 0.  0.
    1000022    2    1    0    0    0 -0.15591292751E+02 -0.51287452144E+02  0.30541100889E+02  0.62500001149E+02  0.10000007154E+02 0.  0.
    3000022    2    5    5    0    0 -0.10682487183E+01 -0.77869338643E-02  0.69494585026E-01  0.10993361465E+01  0.24998901003E+00 0.  0.
        -13    1    4    4    0    0  0.44329338806E+01  0.15231211675E+02 -0.70876953033E+01  0.17374900333E+02  0.10500000000E+00 0. -1.
         13    1    4    4    0    0  0.68561138144E+01  0.23425495972E+02 -0.10736904776E+02  0.26665564073E+02  0.10500000000E+00 0.  1.
    3000001    1    5    5    0    0 -0.14523044032E+02 -0.51279665210E+02  0.30471606304E+02  0.61400665003E+02  0.10000000000E+01 0. -1.
        -13    1    6    6    0    0 -0.75029910729E+00 -0.41203342359E-01  0.18210925786E-01  0.75894868314E+00  0.10500000000E+00 0.  1.
         13    1    6    6    0    0 -0.31794961100E+00  0.33416408495E-01  0.51283659239E-01  0.34038746334E+00  0.10500000000E+00 0.  1.
</event>
<event>
11    0  0.3443539E-009  0.9118800E+02  0.7816531E-02  0.1126479E+00
         25   -1    0    0    0    0  0.00000000000E+00  0.00000000000E+00  0.99999998245E-14  0.12500000000E+03  0.12500000000E+03 0.  0.
    3000001    1    3    3    0    0  0.82391378691E+00  0.19411023353E+01  0.12085454643E+02  0.12308733734E+02  0.10000000000E+01 0. -1.
    1000022    2    1    0    0    0 -0.15013400338E+02  0.59985086173E+01  0.59538775411E+02  0.62500000061E+02  0.99999967458E+01 0.  0.
    3000022    2    3    3    0    0 -0.15837314125E+02  0.40574062820E+01  0.47453320768E+02  0.50191266328E+02  0.24999848089E+00 0.  0.
    1000022    2    1    0    0    0  0.15013400338E+02 -0.59985086173E+01 -0.59538775411E+02  0.62499999939E+02  0.99999959777E+01 0.  0.
    3000022    2    5    5    0    0  0.15460897275E+02 -0.62460134398E+01 -0.58883796192E+02  0.61199803829E+02  0.25001247701E+00 0.  0.
        -13    1    4    4    0    0 -0.10804513259E+02  0.27799657036E+01  0.32230125517E+02  0.34106564352E+02  0.10500000000E+00 0. -1.
         13    1    4    4    0    0 -0.50328008657E+01  0.12774405784E+01  0.15223195251E+02  0.16084701976E+02  0.10500000000E+00 0.  1.
    3000001    1    5    5    0    0 -0.44749693760E+00  0.24750482257E+00 -0.65497921846E+00  0.13001961094E+01  0.10000000000E+01 0.  1.
        -13    1    6    6    0    0  0.49944663748E+01 -0.20240579771E+01 -0.18844893217E+02  0.19600574748E+02  0.10500000000E+00 0. -1.
         13    1    6    6    0    0  0.10466430900E+02 -0.42219554627E+01 -0.40038902975E+02  0.41599229082E+02  0.10500000000E+00 0.  1.
</event>
<event>
11    0  0.3443539E-009  0.9118800E+02  0.7816531E-02  0.1126479E+00
         25   -1    0    0    0    0  0.00000000000E+00  0.00000000000E+00  0.99999998245E-14  0.12500000000E+03  0.12500000000E+03 0.  0.
    3000001    1    3    3    0    0  0.30544534561E+02  0.81292225889E+01  0.42520238935E+02  0.52990787601E+02  0.10000000000E+01 0.  1.
    1000022    2    1    0    0    0  0.37276422564E+02  0.12612542554E+02  0.47514650966E+02  0.62500000179E+02  0.10000002853E+02 0.  0.
    3000022    2    3    3    0    0  0.67318880030E+01  0.44833199650E+01  0.49944120305E+01  0.95092125775E+01  0.24999663953E+00 0.  0.
    1000022    2    1    0    0    0 -0.37276422564E+02 -0.12612542554E+02 -0.47514650966E+02  0.62499999821E+02  0.10000000620E+02 0.  0.
    3000022    2    5    5    0    0 -0.19678019950E+02 -0.61797115984E+01 -0.17244432837E+02  0.26885800487E+02  0.24999871277E+00 0.  0.
        -13    1    4    4    0    0  0.15680604269E+01  0.10600008671E+01  0.11660724347E+01  0.22255707726E+01  0.10500000000E+00 0. -1.
         13    1    4    4    0    0  0.51638275761E+01  0.34233190980E+01  0.38283395958E+01  0.72836418050E+01  0.10500000000E+00 0.  1.
    3000001    1    5    5    0    0 -0.17598402614E+02 -0.64328309555E+01 -0.30270218129E+02  0.35614199335E+02  0.10000000000E+01 0.  1.
        -13    1    6    6    0    0 -0.11859773328E+02 -0.37259131124E+01 -0.10474976518E+02  0.16256469789E+02  0.10500000000E+00 0.  1.
         13    1    6    6    0    0 -0.78182466214E+01 -0.24537984861E+01 -0.67694563186E+01  0.10629330698E+02  0.10500000000E+00 0. -1.
</event>
<event>
11    0  0.3443539E-009  0.9118800E+02  0.7816531E-02  0.1126479E+00
         25   -1    0    0    0    0  0.00000000000E+00  0.00000000000E+00  0.99999998245E-14  0.12500000000E+03  0.12500000000E+03 0.  0.
    3000001    1    3    3    0    0  0.35806090166E+02  0.24201827834E+02 -0.54768331542E+01  0.43575225357E+02  0.10000000000E+01 0.  1.
    1000022    2    1    0    0    0  0.50454652019E+02  0.32633918829E+02 -0.13985883317E+02  0.62499996368E+02  0.10000002271E+02 0.  0.
    3000022    2    3    3    0    0  0.14648561853E+02  0.84320909949E+01 -0.85090501627E+01  0.18924771011E+02  0.25000054253E+00 0.  0.
    1000022    2    1    0    0    0 -0.50454652019E+02 -0.32633918829E+02  0.13985883317E+02  0.62500003632E+02  0.10000047668E+02 0.  0.
    3000022    2    5    5    0    0 -0.12259668051E+02 -0.13275854302E+02  0.36190682009E+01  0.18431167498E+02  0.25002506725E+00 0.  0.
        -13    1    4    4    0    0  0.54501865509E+01  0.30686249566E+01 -0.31515133760E+01  0.70045738002E+01  0.10500000000E+00 0. -1.
         13    1    4    4    0    0  0.91983753017E+01  0.53634660382E+01 -0.53575367867E+01  0.11920197211E+02  0.10500000000E+00 0.  1.
    3000001    1    5    5    0    0 -0.38194983967E+02 -0.19358064527E+02  0.10366815116E+02  0.44068836133E+02  0.10000000000E+01 0.  1.
        -13    1    6    6    0    0 -0.66201495548E+01 -0.72640621376E+01  0.19863036223E+01  0.10027432670E+02  0.10500000000E+00 0.  1.
         13    1    6    6    0    0 -0.56395184965E+01 -0.60117921645E+01  0.16327645786E+01  0.84037348287E+01  0.10500000000E+00 0. -1.
</event>
<event>
11    0  0.3443539E-009  0.9118800E+02  0.7816531E-02  0.1126479E+00
         25   -1    0    0    0    0  0.00000000000E+00  0.00000000000E+00  0.99999998245E-14  0.12500000000E+03  0.12500000000E+03 0.  0.
    3000001    1    3    3    0    0  0.21338980490E+02 -0.19098288238E+02 -0.45820037882E+01  0.29018812186E+02  0.10000000000E+01 0.  1.
    1000022    2    1    0    0    0  0.38263042200E+02 -0.45863954187E+02 -0.15449510107E+02  0.62499999427E+02  0.99999936901E+01 0.  0.
    3000022    2    3    3    0    0  0.16924061710E+02 -0.26765665949E+02 -0.10867506318E+02  0.33481187241E+02  0.24993407397E+00 0.  0.
    1000022    2    1    0    0    0 -0.38263042200E+02  0.45863954187E+02  0.15449510107E+02  0.62500000573E+02  0.10000000852E+02 0.  0.
    3000022    2    5    5    0    0 -0.23574608318E+02  0.35175061273E+02  0.10035333957E+02  0.43518013717E+02  0.24999468603E+00 0.  0.
        -13    1    4    4    0    0  0.63213403336E+01 -0.10099272922E+02 -0.40615462470E+01  0.12588162697E+02  0.10500000000E+00 0. -1.
         13    1    4    4    0    0  0.10602721376E+02 -0.16666393027E+02 -0.68059600714E+01  0.20893024545E+02  0.10500000000E+00 0.  1.
    3000001    1    5    5    0    0 -0.14688433882E+02  0.10688892914E+02  0.54141761491E+01  0.18981986856E+02  0.10000000000E+01 0. -1.
        -13    1    6    6    0    0 -0.12858521018E+02  0.19065678567E+02  0.54525264625E+01  0.23634354906E+02  0.10500000000E+00 0.  1.
         13    1    6    6    0    0 -0.10716087300E+02  0.16109382706E+02  0.45828074949E+01  0.19883658811E+02  0.10500000000E+00 0. -1.
</event>
<event>
11    0  0.3443539E-009  0.9118800E+02  0.7816531E-02  0.1126479E+00
         25   -1    0    0    0    0  0.00000000000E+00  0.00000000000E+00  0.99999998245E-14  0.12500000000E+03  0.12500000000E+03 0.  0.
    3000001    1    3    3    0    0  0.12983647719E+02  0.28134908665E+01 -0.51454804713E+02  0.53151554700E+02  0.10000000000E+01 0. -1.
    1000022    2    1    0    0    0  0.11201072535E+02  0.24360887656E+01 -0.60620552388E+02  0.62500000359E+02  0.10000005930E+02 0.  0.
    3000022    2    3    3    0    0 -0.17825751842E+01 -0.37740210093E+00 -0.91657476745E+01  0.93484456583E+01  0.24999832332E+00 0.  0.
    1000022    2    1    0    0    0 -0.11201072535E+02 -0.24360887656E+01  0.60620552388E+02  0.62499999641E+02  0.10000001448E+02 0.  0.
    3000022    2    5    5    0    0 -0.36736668121E+01 -0.57597082514E+01  0.30746719299E+02  0.31497512857E+02  0.25000305693E+00 0.  0.
        -13    1    4    4    0    0 -0.57187715119E+00 -0.17307845127E+00 -0.30902727727E+01  0.31492555368E+01  0.10500000000E+00 0.  1.
         13    1    4    4    0    0 -0.12106980330E+01 -0.20432364966E+00 -0.60754749018E+01  0.61991901216E+01  0.10500000000E+00 0. -1.
    3000001    1    5    5    0    0 -0.75274057232E+01  0.33236194858E+01  0.29873833089E+02  0.31002486785E+02  0.10000000000E+01 0. -1.
        -13    1    6    6    0    0 -0.14673364163E+01 -0.23695832721E+01  0.12785723991E+02  0.13086396143E+02  0.10500000000E+00 0.  1.
         13    1    6    6    0    0 -0.22063303958E+01 -0.33901249792E+01  0.17960995308E+02  0.18411116714E+02  0.10500000000E+00 0. -1.
</event>
<event>
11    0  0.3443539E-009  0.9118800E+02  0.7816531E-02  0.1126479E+00
         25   -1    0    0    0    0  0.00000000000E+00  0.00000000000E+00  0.99999998245E-14  0.12500000000E+03  0.12500000000E+03 0.  0.
    3000001    1    3    3    0    0 -0.21892066992E+02  0.16866100440E+02  0.53614721467E+02  0.60326331724E+02  0.10000000000E+01 0.  1.
    1000022    2    1    0    0    0 -0.21938474151E+02  0.15758125063E+02  0.55467431525E+02  0.62499991396E+02  0.99998905441E+01 0.  0.
    3000022    2    3    3    0    0 -0.46407159517E-01 -0.11079753768E+01  0.18527100578E+01  0.21736596721E+01  0.24999750375E+00 0.  0.
    1000022    2    1    0    0    0  0.21938474151E+02 -0.15758125063E+02 -0.55467431525E+02  0.62500008604E+02  0.99999980981E+01 0.  0.
    3000022    2    5    5    0    0  0.13348507681E+01  0.52127409908E+00 -0.43939859666E+00  0.15195810758E+01  0.25000451908E+00 0.  0.
        -13    1    4    4    0    0 -0.19499462760E-01 -0.49379087914E+00  0.95764505294E+00  0.10827366756E+01  0.10500000000E+00 0. -1.
         13    1    4    4    0    0 -0.26907696757E-01 -0.61418449766E+00  0.89506500487E+00  0.10909229965E+01  0.10500000000E+00 0.  1.
    3000001    1    5    5    0    0  0.20603623383E+02 -0.16279399162E+02 -0.55028032928E+02  0.60980427529E+02  0.10000000000E+01 0.  1.
        -13    1    6    6    0    0  0.88678319097E+00  0.30511977811E+00 -0.32829818447E+00  0.99914323533E+00  0.10500000000E+00 0.  1.
         13    1    6    6    0    0  0.44806757713E+00  0.21615432098E+00 -0.11110041219E+00  0.52043784042E+00  0.10500000000E+00 0. -1.
</event>
<event>
11    0  0.3443539E-009  0.9118800E+02  0.7816531E-02  0.1126479E+00
         25   -1    0    0    0    0  0.00000000000E+00  0.00000000000E+00  0.99999998245E-14  0.12500000000E+03  0.12500000000E+03 0.  0.
    3000001    1    3    3    0    0  0.39078192278E+02  0.29610087589E+02  0.18959563208E+02  0.52576871681E+02  0.10000000000E+01 0.  1.
    1000022    2    1    0    0    0  0.47818677838E+02  0.31197095966E+02  0.23374457580E+02  0.62500000227E+02  0.10000000720E+02 0.  0.
    3000022    2    3    3    0    0  0.87404855596E+01  0.15870083768E+01  0.44148943723E+01  0.99231285462E+01  0.25000883720E+00 0.  0.
    1000022    2    1    0    0    0 -0.47818677838E+02 -0.31197095966E+02 -0.23374457580E+02  0.62499999773E+02  0.99999978770E+01 0.  0.
    3000022    2    5    5    0    0 -0.83969421036E+01 -0.10440497955E+02 -0.55024062945E+01  0.14486253549E+02  0.24986518798E+00 0.  0.
        -13    1    4    4    0    0  0.29145436805E+01  0.56836321897E+00  0.14344421123E+01  0.32994318886E+01  0.10500000000E+00 0.  1.
         13    1    4    4    0    0  0.58259418792E+01  0.10186451578E+01  0.29804522601E+01  0.66236966576E+01  0.10500000000E+00 0. -1.
    3000001    1    5    5    0    0 -0.39421735734E+02 -0.20756598011E+02 -0.17872051286E+02  0.48013746224E+02  0.10000000000E+01 0.  1.
        -13    1    6    6    0    0 -0.50886709639E+01 -0.63806839334E+01 -0.32951846740E+01  0.88021001286E+01  0.10500000000E+00 0. -1.
         13    1    6    6    0    0 -0.33082711397E+01 -0.40598140212E+01 -0.22072216205E+01  0.56841534200E+01  0.10500000000E+00 0.  1.
</event>
<event>
11    0  0.3443539E-009  0.9118800E+02  0.7816531E-02  0.1126479E+00
         25   -1    0    0    0    0  0.00000000000E+00  0.00000000000E+00  0.99999998245E-14  0.12500000000E+03  0.12500000000E+03 0.  0.
    3000001    1    3    3    0    0  0.15620304903E+02  0.41969381970E+02  0.18476078430E+02  0.48453982524E+02  0.10000000000E+01 0. -1.
    1000022    2    1    0    0    0  0.22930676411E+02  0.50639553019E+02  0.26759477750E+02  0.62499999759E+02  0.10000003490E+02 0.  0.
    3000022    2    3    3    0    0  0.73103715079E+01  0.86701710485E+01  0.82833993196E+01  0.14046017235E+02  0.24999658327E+00 0.  0.
    1000022    2    1    0    0    0 -0.22930676411E+02 -0.50639553019E+02 -0.26759477750E+02  0.62500000241E+02  0.10000006505E+02 0.  0.
    3000022    2    5    5    0    0 -0.83120959181E+01 -0.17946724136E+02 -0.14892885259E+02  0.24759571344E+02  0.24999208759E+00 0.  0.
        -13    1    4    4    0    0  0.28526259158E+01  0.33223202143E+01  0.31400592353E+01  0.53894603833E+01  0.10500000000E+00 0.  1.
         13    1    4    4    0    0  0.44577455921E+01  0.53478508342E+01  0.51433400843E+01  0.86565568519E+01  0.10500000000E+00 0. -1.
    3000001    1    5    5    0    0 -0.14618580493E+02 -0.32692828883E+02 -0.11866592491E+02  0.37740428898E+02  0.10000000000E+01 0.  1.
        -13    1    6    6    0    0 -0.22004337389E+01 -0.48259764022E+01 -0.39746625385E+01  0.66287950767E+01  0.10500000000E+00 0.  1.
         13    1    6    6    0    0 -0.61116621792E+01 -0.13120747733E+02 -0.10918222720E+02  0.18130776267E+02  0.10500000000E+00 0. -1.
</event>
<event>
11    0  0.3443539E-009  0.9118800E+02  0.7816531E-02  0.1126479E+00
         25   -1    0    0    0    0  0.00000000000E+00  0.00000000000E+00  0.99999998245E-14  0.12500000000E+03  0.12500000000E+03 0.  0.
    3000001    1    3    3    0    0 -0.83706197602E+01 -0.20577485835E+02 -0.42019376489E+02  0.47540805620E+02  0.10000000000E+01 0. -1.
    1000022    2    1    0    0    0 -0.57854733811E+01 -0.28732757426E+02 -0.54288183492E+02  0.62500001921E+02  0.10000016086E+02 0.  0.
    3000022    2    3    3    0    0  0.25851463791E+01 -0.81552715904E+01 -0.12268807003E+02  0.14959196301E+02  0.24998434952E+00 0.  0.
    1000022    2    1    0    0    0  0.57854733811E+01  0.28732757426E+02  0.54288183492E+02  0.62499998079E+02  0.99999920736E+01 0.  0.
    3000022    2    5    5    0    0  0.65722516571E+01  0.24280658047E+02  0.38043459118E+02  0.45608246277E+02  0.24999962924E+00 0.  0.
        -13    1    4    4    0    0  0.69011937852E+00 -0.21267819059E+01 -0.31591776456E+01  0.38718076435E+01  0.10500000000E+00 0.  1.
         13    1    4    4    0    0  0.18950270006E+01 -0.60284896845E+01 -0.91096293572E+01  0.11087388657E+02  0.10500000000E+00 0. -1.
    3000001    1    5    5    0    0 -0.78677827595E+00  0.44520993794E+01  0.16244724374E+02  0.16891751802E+02  0.10000000000E+01 0. -1.
        -13    1    6    6    0    0  0.30777236523E+01  0.11144115917E+02  0.17427795101E+02  0.20914176281E+02  0.10500000000E+00 0.  1.
         13    1    6    6    0    0  0.34945280047E+01  0.13136542130E+02  0.20615664017E+02  0.24694069996E+02  0.10500000000E+00 0. -1.
</event>
<event>
11    0  0.3443539E-009  0.9118800E+02  0.7816531E-02  0.1126479E+00
         25   -1    0    0    0    0  0.00000000000E+00  0.00000000000E+00  0.99999998245E-14  0.12500000000E+03  0.12500000000E+03 0.  0.
    3000001    1    3    3    0    0  0.14329858359E+02  0.62911172679E+01 -0.27150141020E+01  0.15915222231E+02  0.10000000000E+01 0. -1.
    1000022    2    1    0    0    0  0.52726361046E+02  0.18795031777E+02 -0.25940852575E+02  0.62499998394E+02  0.99999799146E+01 0.  0.
    3000022    2    3    3    0    0  0.38396502687E+02  0.12503914509E+02 -0.23225838473E+02  0.46584776163E+02  0.25000161488E+00 0.  0.
    1000022    2    1    0    0    0 -0.52726361046E+02 -0.18795031777E+02  0.25940852575E+02  0.62500001606E+02  0.99999999890E+01 0.  0.
    3000022    2    5    5    0    0 -0.44399185865E+02 -0.14299999681E+02  0.25039882403E+02  0.52941816251E+02  0.25000160498E+00 0.  0.
        -13    1    4    4    0    0  0.27329130183E+02  0.89062079989E+01 -0.16483812586E+02  0.33135011692E+02  0.10500000000E+00 0.  1.
         13    1    4    4    0    0  0.11067372504E+02  0.35977065099E+01 -0.67420258866E+01  0.13449764471E+02  0.10500000000E+00 0. -1.
    3000001    1    5    5    0    0 -0.83271751810E+01 -0.44950320955E+01  0.90097017198E+00  0.95581853553E+01  0.10000000000E+01 0.  1.
        -13    1    6    6    0    0 -0.33419961590E+02 -0.10787375394E+02  0.18840159795E+02  0.39852527481E+02  0.10500000000E+00 0. -1.
         13    1    6    6    0    0 -0.10979224276E+02 -0.35126242876E+01  0.61997226079E+01  0.13089288770E+02  0.10500000000E+00 0.  1.
</event>
<event>
11    0  0.3443539E-009  0.9118800E+02  0.7816531E-02  0.1126479E+00
         25   -1    0    0    0    0  0.00000000000E+00  0.00000000000E+00  0.99999998245E-14  0.12500000000E+03  0.12500000000E+03 0.  0.
    3000001    1    3    3    0    0 -0.32793185361E-01 -0.35178351528E+00 -0.22707191055E+01  0.25061907930E+01  0.10000000000E+01 0.  1.
    1000022    2    1    0    0    0 -0.41389754520E+02 -0.10484567007E+02 -0.44533269081E+02  0.62500000289E+02  0.10000002822E+02 0.  0.
    3000022    2    3    3    0    0 -0.41356961335E+02 -0.10132783492E+02 -0.42262549976E+02  0.59993809496E+02  0.24999041157E+00 0.  0.
    1000022    2    1    0    0    0  0.41389754520E+02  0.10484567007E+02  0.44533269081E+02  0.62499999711E+02  0.99999992148E+01 0.  0.
    3000022    2    5    5    0    0  0.23423184852E+02  0.10929201966E+02  0.25842583300E+02  0.36551260612E+02  0.24999292558E+00 0.  0.
        -13    1    4    4    0    0 -0.28977036758E+02 -0.71381697564E+01 -0.29583778702E+02  0.42021817120E+02  0.10500000000E+00 0.  1.
         13    1    4    4    0    0 -0.12379924576E+02 -0.29946137353E+01 -0.12678771274E+02  0.17971992376E+02  0.10500000000E+00 0. -1.
    3000001    1    5    5    0    0  0.17966569668E+02 -0.44463495917E+00  0.18690685781E+02  0.25948739099E+02  0.10000000000E+01 0.  1.
        -13    1    6    6    0    0  0.67282324559E+01  0.31775940146E+01  0.74055845552E+01  0.10498567679E+02  0.10500000000E+00 0.  1.
         13    1    6    6    0    0  0.16694952397E+02  0.77516079516E+01  0.18436998745E+02  0.26052692933E+02  0.10500000000E+00 0. -1.
</event>
<event>
11    0  0.3443539E-009  0.9118800E+02  0.7816531E-02  0.1126479E+00
         25   -1    0    0    0    0  0.00000000000E+00  0.00000000000E+00  0.99999998245E-14  0.12500000000E+03  0.12500000000E+03 0.  0.
    3000001    1    3    3    0    0  0.11445725890E+02 -0.21394524330E+02  0.31419918399E+02  0.39710723799E+02  0.10000000000E+01 0. -1.
    1000022    2    1    0    0    0  0.10640078106E+02 -0.33317198147E+02  0.50823253733E+02  0.62500000761E+02  0.10000001030E+02 0.  0.
    3000022    2    3    3    0    0 -0.80564778387E+00 -0.11922673817E+02  0.19403335334E+02  0.22789276961E+02  0.25000608914E+00 0.  0.
    1000022    2    1    0    0    0 -0.10640078106E+02  0.33317198147E+02 -0.50823253733E+02  0.62499999239E+02  0.99999915229E+01 0.  0.
    3000022    2    5    5    0    0 -0.11442177281E+02  0.28149245065E+02 -0.38288611841E+02  0.48881322744E+02  0.24999556080E+00 0.  0.
        -13    1    4    4    0    0 -0.40648170218E+00 -0.69702396559E+01  0.11328733540E+02  0.13307918577E+02  0.10500000000E+00 0. -1.
         13    1    4    4    0    0 -0.39916608169E+00 -0.49524341608E+01  0.80746017946E+01  0.94813583847E+01  0.10500000000E+00 0.  1.
    3000001    1    5    5    0    0  0.80209917470E+00  0.51679530818E+01 -0.12534641892E+02  0.13618676496E+02  0.10000000000E+01 0. -1.
        -13    1    6    6    0    0 -0.68642206671E+01  0.16877333242E+02 -0.23059446893E+02  0.29388960832E+02  0.10500000000E+00 0.  1.
         13    1    6    6    0    0 -0.45779566135E+01  0.11271911823E+02 -0.15229164948E+02  0.19492361912E+02  0.10500000000E+00 0. -1.
</event>
<event>
11    0  0.3443539E-009  0.9118800E+02  0.7816531E-02  0.1126479E+00
         25   -1    0    0    0    0  0.00000000000E+00  0.00000000000E+00  0.99999998245E-14  0.12500000000E+03  0.12500000000E+03 0.  0.
    3000001    1    3    3    0    0  0.17248416295E+02  0.89070106992E+01  0.16519085246E+01  0.19508242003E+02  0.10000000000E+01 0.  1.
    1000022    2    1    0    0    0  0.46428164697E+02  0.40079952495E+02  0.66537883938E+01  0.62500000749E+02  0.10000006222E+02 0.  0.
    3000022    2    3    3    0    0  0.29179748402E+02  0.31172941796E+02  0.50018798692E+01  0.42991758746E+02  0.25000155878E+00 0.  0.
    1000022    2    1    0    0    0 -0.46428164697E+02 -0.40079952495E+02 -0.66537883938E+01  0.62499999251E+02  0.99999968586E+01 0.  0.
    3000022    2    5    5    0    0 -0.40833026514E+02 -0.32496768115E+02 -0.84156814804E+01  0.52860781239E+02  0.25001234993E+00 0.  0.
        -13    1    4    4    0    0  0.15009843109E+02  0.16004099324E+02  0.25055017270E+01  0.22084273799E+02  0.10500000000E+00 0.  1.
         13    1    4    4    0    0  0.14169905293E+02  0.15168842472E+02  0.24963781422E+01  0.20907484947E+02  0.10500000000E+00 0. -1.
    3000001    1    5    5    0    0 -0.55951381832E+01 -0.75831843799E+01  0.17618930866E+01  0.96392180117E+01  0.10000000000E+01 0.  1.
        -13    1    6    6    0    0 -0.22651889299E+02 -0.17984811134E+02 -0.46060119276E+01  0.29288016171E+02  0.10500000000E+00 0. -1.
         13    1    6    6    0    0 -0.18181137215E+02 -0.14511956981E+02 -0.38096695528E+01  0.23572765069E+02  0.10500000000E+00 0.  1.
</event>
<event>
11    0  0.3443539E-009  0.9118800E+02  0.7816531E-02  0.1126479E+00
         25   -1    0    0    0    0  0.00000000000E+00  0.00000000000E+00  0.99999998245E-14  0.12500000000E+03  0.12500000000E+03 0.  0.
    3000001    1    3    3    0    0 -0.27843032340E+02  0.55848342057E+01 -0.35362515399E+02  0.45364438918E+02  0.10000000000E+01 0. -1.
    1000022    2    1    0    0    0 -0.42411764049E+02  0.75311298967E+01 -0.44167569973E+02  0.62500001259E+02  0.10000013638E+02 0.  0.
    3000022    2    3    3    0    0 -0.14568731709E+02  0.19462956910E+01 -0.88050545742E+01  0.17135562341E+02  0.25000033342E+00 0.  0.
    1000022    2    1    0    0    0  0.42411764049E+02 -0.75311298967E+01  0.44167569973E+02  0.62499998741E+02  0.99999978983E+01 0.  0.
    3000022    2    5    5    0    0  0.36779799404E+02 -0.34678312990E+01  0.34447327490E+02  0.50511982425E+02  0.24999833984E+00 0.  0.
        -13    1    4    4    0    0 -0.38763137739E+01  0.54099182997E+00 -0.23152319242E+01  0.45486046758E+01  0.10500000000E+00 0. -1.
         13    1    4    4    0    0 -0.10692417935E+02  0.14053038610E+01 -0.64898226499E+01  0.12586957665E+02  0.10500000000E+00 0.  1.
    3000001    1    5    5    0    0  0.56319646453E+01 -0.40632985977E+01  0.97202424830E+01  0.11988016316E+02  0.10000000000E+01 0.  1.
        -13    1    6    6    0    0  0.26051219898E+02 -0.24126105009E+01  0.24396556782E+02  0.35772751578E+02  0.10500000000E+00 0.  1.
         13    1    6    6    0    0  0.10728579505E+02 -0.10552207981E+01  0.10050770708E+02  0.14739230847E+02  0.10500000000E+00 0. -1.
</event>
<event>
11    0  0.3443539E-009  0.9118800E+02  0.7816531E-02  0.1126479E+00
         25   -1    0    0    0    0  0.00000000000E+00  0.00000000000E+00  0.99999998245E-14  0.12500000000E+03  0.12500000000E+03 0.  0.
    3000001    1    3    3    0    0  0.88450271209E+01  0.10734504945E+02  0.53948878495E+02  0.55722038656E+02  0.10000000000E+01 0. -1.
    1000022    2    1    0    0    0  0.11613559319E+02  0.14538016342E+02  0.58821938598E+02  0.62499993853E+02  0.10000004601E+02 0.  0.
    3000022    2    3    3    0    0  0.27685321977E+01  0.38035113976E+01  0.48730601033E+01  0.67779551969E+01  0.24998479958E+00 0.  0.
    1000022    2    1    0    0    0 -0.11613559319E+02 -0.14538016342E+02 -0.58821938598E+02  0.62500006147E+02  0.10000081433E+02 0.  0.
    3000022    2    5    5    0    0 -0.32965485845E+01 -0.94233355254E+01 -0.18750501320E+02  0.21244064600E+02  0.24999191793E+00 0.  0.
        -13    1    4    4    0    0  0.16711649860E+01  0.21882403765E+01  0.28336636201E+01  0.39524502359E+01  0.10500000000E+00 0. -1.
         13    1    4    4    0    0  0.10973672117E+01  0.16152710211E+01  0.20393964832E+01  0.28255049610E+01  0.10500000000E+00 0.  1.
    3000001    1    5    5    0    0 -0.83170107341E+01 -0.51146808170E+01 -0.40071437278E+02  0.41255941547E+02  0.10000000000E+01 0. -1.
        -13    1    6    6    0    0 -0.23753652268E+01 -0.66619364322E+01 -0.13260554692E+02  0.15029207988E+02  0.10500000000E+00 0.  1.
         13    1    6    6    0    0 -0.92118335766E+00 -0.27613990931E+01 -0.54899466280E+01  0.62148566120E+01  0.10500000000E+00 0. -1.
</event>
<event>
11    0  0.3443539E-009  0.9118800E+02  0.7816531E-02  0.1126479E+00
         25   -1    0    0    0    0  0.00000000000E+00  0.00000000000E+00  0.99999998245E-14  0.12500000000E+03  0.12500000000E+03 0.  0.
    3000001    1    3    3    0    0  0.81540417238E+01 -0.19454170191E+01 -0.15891222909E+02  0.17994554992E+02  0.10000000000E+01 0.  1.
    1000022    2    1    0    0    0  0.40006743288E+02 -0.10436224768E+02 -0.45790781458E+02  0.62499998668E+02  0.99999935559E+01 0.  0.
    3000022    2    3    3    0    0  0.31852701564E+02 -0.84908077485E+01 -0.29899558549E+02  0.44505443676E+02  0.25000456142E+00 0.  0.
    1000022    2    1    0    0    0 -0.40006743288E+02  0.10436224768E+02  0.45790781458E+02  0.62500001332E+02  0.10000010205E+02 0.  0.
    3000022    2    5    5    0    0 -0.37052822377E+02  0.72502585840E+01  0.43073814659E+02  0.57279087824E+02  0.24999416751E+00 0.  0.
        -13    1    4    4    0    0  0.14946930554E+02 -0.39577666444E+01 -0.13940146922E+02  0.20818582348E+02  0.10500000000E+00 0.  1.
         13    1    4    4    0    0  0.16905771010E+02 -0.45330411040E+01 -0.15959411627E+02  0.23686861328E+02  0.10500000000E+00 0. -1.
    3000001    1    5    5    0    0 -0.29539209109E+01  0.31859661836E+01  0.27169667990E+01  0.52209135079E+01  0.10000000000E+01 0.  1.
        -13    1    6    6    0    0 -0.21818622714E+02  0.42369364885E+01  0.25441260097E+02  0.33782727366E+02  0.10500000000E+00 0.  1.
         13    1    6    6    0    0 -0.15234199662E+02  0.30133220955E+01  0.17632554561E+02  0.23496360458E+02  0.10500000000E+00 0. -1.
</event>
<event>
11    0  0.3443539E-009  0.9118800E+02  0.7816531E-02  0.1126479E+00
         25   -1    0    0    0    0  0.00000000000E+00  0.00000000000E+00  0.99999998245E-14  0.12500000000E+03  0.12500000000E+03 0.  0.
    3000001    1    3    3    0    0 -0.96218752277E+01  0.10180673306E+01  0.98451055914E+01  0.13839907806E+02  0.10000000000E+01 0.  1.
    1000022    2    1    0    0    0 -0.31204024044E+02 -0.61123280873E+01  0.52869634620E+02  0.62499997068E+02  0.99999848735E+01 0.  0.
    3000022    2    3    3    0    0 -0.21582148816E+02 -0.71303954179E+01  0.43024529029E+02  0.48660089262E+02  0.25000492267E+00 0.  0.
    1000022    2    1    0    0    0  0.31204024044E+02  0.61123280873E+01 -0.52869634620E+02  0.62500002932E+02  0.10000021521E+02 0.  0.
    3000022    2    5    5    0    0  0.31395478376E+02  0.55653588321E+01 -0.52188599674E+02  0.61158496791E+02  0.25002482843E+00 0.  0.
        -13    1    4    4    0    0 -0.87630903262E+01 -0.28869802800E+01  0.17329881545E+02  0.19633191961E+02  0.10500000000E+00 0.  1.
         13    1    4    4    0    0 -0.12819058490E+02 -0.42434151379E+01  0.25694647484E+02  0.29026897301E+02  0.10500000000E+00 0. -1.
    3000001    1    5    5    0    0 -0.19145433207E+00  0.54696925521E+00 -0.68103494587E+00  0.13415061405E+01  0.10000000000E+01 0.  1.
        -13    1    6    6    0    0  0.22247378113E+02  0.39679896369E+01 -0.36918651429E+02  0.43286125064E+02  0.10500000000E+00 0. -1.
         13    1    6    6    0    0  0.91481002624E+01  0.15973691953E+01 -0.15269948245E+02  0.17872371728E+02  0.10500000000E+00 0.  1.
</event>
<event>
11    0  0.3443539E-009  0.9118800E+02  0.7816531E-02  0.1126479E+00
         25   -1    0    0    0    0  0.00000000000E+00  0.00000000000E+00  0.99999998245E-14  0.12500000000E+03  0.12500000000E+03 0.  0.
    3000001    1    3    3    0    0  0.43398754591E+01  0.16186131357E+02 -0.30529175376E+02  0.34840435078E+02  0.10000000000E+01 0. -1.
    1000022    2    1    0    0    0  0.16169490464E+02  0.28964492425E+02 -0.52017839882E+02  0.62499999533E+02  0.10000001616E+02 0.  0.
    3000022    2    3    3    0    0  0.11829615005E+02  0.12778361068E+02 -0.21488664507E+02  0.27659564455E+02  0.25000164233E+00 0.  0.
    1000022    2    1    0    0    0 -0.16169490464E+02 -0.28964492425E+02  0.52017839882E+02  0.62500000467E+02  0.10000007451E+02 0.  0.
    3000022    2    5    5    0    0 -0.54672575265E+01 -0.58453211429E+01  0.20187143124E+02  0.21717318766E+02  0.25000545880E+00 0.  0.
        -13    1    4    4    0    0  0.69226415675E+01  0.74588846891E+01 -0.12657848829E+02  0.16241615962E+02  0.10500000000E+00 0.  1.
         13    1    4    4    0    0  0.49069734377E+01  0.53194763786E+01 -0.88308156774E+01  0.11417948493E+02  0.10500000000E+00 0. -1.
    3000001    1    5    5    0    0 -0.10702232938E+02 -0.23119171282E+02  0.31830696758E+02  0.40782681701E+02  0.10000000000E+01 0.  1.
        -13    1    6    6    0    0 -0.36780707379E+01 -0.39741730029E+01  0.13770605658E+02  0.14797393710E+02  0.10500000000E+00 0.  1.
         13    1    6    6    0    0 -0.17891867887E+01 -0.18711481400E+01  0.64165374661E+01  0.69199250559E+01  0.10500000000E+00 0. -1.
</event>
<event>
11    0  0.3443539E-009  0.9118800E+02  0.7816531E-02  0.1126479E+00
         25   -1    0    0    0    0  0.00000000000E+00  0.00000000000E+00  0.99999998245E-14  0.12500000000E+03  0.12500000000E+03 0.  0.
    3000001    1    3    3    0    0  0.74410033630E+01  0.76393946275E+00  0.24647452689E+01  0.79389611279E+01  0.10000000000E+01 0. -1.
    1000022    2    1    0    0    0  0.45472123608E+02  0.14945398561E+02  0.38925197326E+02  0.62499999902E+02  0.10000001866E+02 0.  0.
    3000022    2    3    3    0    0  0.38031120245E+02  0.14181459098E+02  0.36460452057E+02  0.54561038774E+02  0.24999729158E+00 0.  0.
    1000022    2    1    0    0    0 -0.45472123608E+02 -0.14945398561E+02 -0.38925197326E+02  0.62500000098E+02  0.10000003094E+02 0.  0.
    3000022    2    5    5    0    0 -0.30935964020E+02 -0.54570481879E+01 -0.26914219997E+02  0.41367269448E+02  0.24999744281E+00 0.  0.
        -13    1    4    4    0    0  0.14744423813E+02  0.55108566283E+01  0.14221080528E+02  0.21213621349E+02  0.10500000000E+00 0.  1.
         13    1    4    4    0    0  0.23286696432E+02  0.86706024699E+01  0.22239371529E+02  0.33347417425E+02  0.10500000000E+00 0. -1.
    3000001    1    5    5    0    0 -0.14536159587E+02 -0.94883503730E+01 -0.12010977329E+02  0.21132730650E+02  0.10000000000E+01 0. -1.
        -13    1    6    6    0    0 -0.20158548804E+02 -0.35396821866E+01 -0.17464198011E+02  0.26905495294E+02  0.10500000000E+00 0.  1.
         13    1    6    6    0    0 -0.10777415217E+02 -0.19173660013E+01 -0.94500219863E+01  0.14461774154E+02  0.10500000000E+00 0. -1.
</event>
<event>
11    0  0.3443539E-009  0.9118800E+02  0.7816531E-02  0.1126479E+00
         25   -1    0    0    0    0  0.00000000000E+00  0.00000000000E+00  0.99999998245E-14  0.12500000000E+03  0.12500000000E+03 0.  0.
    3000001    1    3    3    0    0  0.24047421494E+02  0.34778808697E+02  0.35796616902E+01  0.42445942006E+02  0.10000000000E+01 0.  1.
    1000022    2    1    0    0    0  0.29220053879E+02  0.54057107394E+02  0.55015980254E+01  0.62500000623E+02  0.10000004425E+02 0.  0.
    3000022    2    3    3    0    0  0.51726323846E+01  0.19278298697E+02  0.19219363352E+01  0.20054058617E+02  0.25000261886E+00 0.  0.
    1000022    2    1    0    0    0 -0.29220053879E+02 -0.54057107394E+02 -0.55015980254E+01  0.62499999377E+02  0.99999966370E+01 0.  0.
    3000022    2    5    5    0    0 -0.95647907138E+01 -0.27700035549E+02 -0.12544413641E+01  0.29332802540E+02  0.24998171458E+00 0.  0.
        -13    1    4    4    0    0  0.26954597316E+01  0.10249958487E+02  0.97852492543E+00  0.10644044728E+02  0.10500000000E+00 0.  1.
         13    1    4    4    0    0  0.24771726530E+01  0.90283402101E+01  0.94341140973E+00  0.94100138890E+01  0.10500000000E+00 0. -1.
    3000001    1    5    5    0    0 -0.19655263165E+02 -0.26357071845E+02 -0.42471566613E+01  0.33167196837E+02  0.10000000000E+01 0. -1.
        -13    1    6    6    0    0 -0.40048676136E+01 -0.11631480364E+02 -0.59051595811E+00  0.12316250815E+02  0.10500000000E+00 0. -1.
         13    1    6    6    0    0 -0.55599231002E+01 -0.16068555186E+02 -0.66392540600E+00  0.17016551724E+02  0.10500000000E+00 0.  1.
</event>
<event>
11    0  0.3443539E-009  0.9118800E+02  0.7816531E-02  0.1126479E+00
         25   -1    0    0    0    0  0.00000000000E+00  0.00000000000E+00  0.99999998245E-14  0.12500000000E+03  0.12500000000E+03 0.  0.
    3000001    1    3    3    0    0 -0.63358225003E+01  0.38479956330E+02  0.10603209308E+02  0.40426201077E+02  0.10000000000E+01 0. -1.
    1000022    2    1    0    0    0 -0.16691980580E+02  0.57478429857E+02  0.14961885741E+02  0.62499999171E+02  0.99999878470E+01 0.  0.
    3000022    2    3    3    0    0 -0.10356158080E+02  0.18998473528E+02  0.43586764325E+01  0.22073798094E+02  0.24999100681E+00 0.  0.
    1000022    2    1    0    0    0  0.16691980580E+02 -0.57478429857E+02 -0.14961885741E+02  0.62500000829E+02  0.99999982076E+01 0.  0.
    3000022    2    5    5    0    0  0.86787455064E+01 -0.26949698407E+02 -0.20641641397E+01  0.28388908750E+02  0.24999727299E+00 0.  0.
        -13    1    4    4    0    0 -0.42662558541E+01  0.78711913181E+01  0.17416773526E+01  0.91214613291E+01  0.10500000000E+00 0. -1.
         13    1    4    4    0    0 -0.60899022260E+01  0.11127282209E+02  0.26169990800E+01  0.12952336765E+02  0.10500000000E+00 0.  1.
    3000001    1    5    5    0    0  0.80132350740E+01 -0.30528731451E+02 -0.12897721601E+02  0.34111092079E+02  0.10000000000E+01 0. -1.
        -13    1    6    6    0    0  0.38486079653E+01 -0.11929802632E+02 -0.84775099941E+00  0.12564301845E+02  0.10500000000E+00 0.  1.
         13    1    6    6    0    0  0.48301375411E+01 -0.15019895775E+02 -0.12164131403E+01  0.15824606904E+02  0.10500000000E+00 0. -1.
</event>
<event>
11    0  0.3443539E-009  0.9118800E+02  0.7816531E-02  0.1126479E+00
         25   -1    0    0    0    0  0.00000000000E+00  0.00000000000E+00  0.99999998245E-14  0.12500000000E+03  0.12500000000E+03 0.  0.
    3000001    1    3    3    0    0 -0.25495563230E+02  0.13095854806E+02 -0.24960458559E+02  0.38020384650E+02  0.10000000000E+01 0. -1.
    1000022    2    1    0    0    0 -0.38010793309E+02  0.16435687822E+02 -0.45730714059E+02  0.62499998536E+02  0.99999683212E+01 0.  0.
    3000022    2    3    3    0    0 -0.12515230080E+02  0.33398330157E+01 -0.20770255500E+02  0.24479613885E+02  0.25002780470E+00 0.  0.
    1000022    2    1    0    0    0  0.38010793309E+02 -0.16435687822E+02  0.45730714059E+02  0.62500001464E+02  0.99999866263E+01 0.  0.
    3000022    2    5    5    0    0  0.27606341894E+02 -0.16279599508E+02  0.32596510144E+02  0.45713569882E+02  0.25004959495E+00 0.  0.
        -13    1    4    4    0    0 -0.59660452371E+01  0.15759639568E+01 -0.10019014150E+02  0.11767286335E+02  0.10500000000E+00 0.  1.
         13    1    4    4    0    0 -0.65491848426E+01  0.17638690589E+01 -0.10751241351E+02  0.12712327550E+02  0.10500000000E+00 0. -1.
    3000001    1    5    5    0    0  0.10404451415E+02 -0.15608831329E+00  0.13134203915E+02  0.16786431583E+02  0.10000000000E+01 0.  1.
        -13    1    6    6    0    0  0.11058530233E+02 -0.65945899702E+01  0.13090229675E+02  0.18361504452E+02  0.10500000000E+00 0.  1.
         13    1    6    6    0    0  0.16547811661E+02 -0.96850095381E+01  0.19506280469E+02  0.27352065430E+02  0.10500000000E+00 0. -1.
</event>
<event>
11    0  0.3443539E-009  0.9118800E+02  0.7816531E-02  0.1126479E+00
         25   -1    0    0    0    0  0.00000000000E+00  0.00000000000E+00  0.99999998245E-14  0.12500000000E+03  0.12500000000E+03 0.  0.
    3000001    1    3    3    0    0 -0.47752960821E-01  0.35641372875E+01  0.18047856877E+00  0.37064710255E+01  0.10000000000E+01 0. -1.
    1000022    2    1    0    0    0 -0.30327929875E+02  0.49354379977E+02  0.21227607029E+02  0.62500004317E+02  0.10000054305E+02 0.  0.
    3000022    2    3    3    0    0 -0.30280176914E+02  0.45790242689E+02  0.21047128460E+02  0.58793533292E+02  0.25000204432E+00 0.  0.
    1000022    2    1    0    0    0  0.30327929875E+02 -0.49354379977E+02 -0.21227607029E+02  0.62499995683E+02  0.10000000337E+02 0.  0.
    3000022    2    5    5    0    0  0.15564618473E+02 -0.33906051599E+02 -0.15093370052E+02  0.40246117897E+02  0.25000594607E+00 0.  0.
        -13    1    4    4    0    0 -0.19569986752E+02  0.29503019621E+02  0.13603110900E+02  0.37927143307E+02  0.10500000000E+00 0.  1.
         13    1    4    4    0    0 -0.10710190162E+02  0.16287223068E+02  0.74440175601E+01  0.20866389985E+02  0.10500000000E+00 0. -1.
    3000001    1    5    5    0    0  0.14763311402E+02 -0.15448328377E+02 -0.61342369765E+01  0.22253877785E+02  0.10000000000E+01 0. -1.
        -13    1    6    6    0    0  0.75231365446E+01 -0.16544096854E+02 -0.73317513007E+01  0.19597712272E+02  0.10500000000E+00 0. -1.
         13    1    6    6    0    0  0.80414819285E+01 -0.17361954746E+02 -0.77616187517E+01  0.20648405625E+02  0.10500000000E+00 0.  1.
</event>
<event>
11    0  0.3443539E-009  0.9118800E+02  0.7816531E-02  0.1126479E+00
         25   -1    0    0    0    0  0.00000000000E+00  0.00000000000E+00  0.99999998245E-14  0.12500000000E+03  0.12500000000E+03 0.  0.
    3000001    1    3    3    0    0  0.32815681279E+02 -0.52469499112E+01 -0.41474627299E+02  0.53155847569E+02  0.10000000000E+01 0. -1.
    1000022    2    1    0    0    0  0.38128987003E+02 -0.10085802112E+02 -0.47441612217E+02  0.62499996691E+02  0.99999981279E+01 0.  0.
    3000022    2    3    3    0    0  0.53133057234E+01 -0.48388522005E+01 -0.59669849179E+01  0.93441491220E+01  0.25001095055E+00 0.  0.
    1000022    2    1    0    0    0 -0.38128987003E+02  0.10085802112E+02  0.47441612217E+02  0.62500003309E+02  0.10000039494E+02 0.  0.
    3000022    2    5    5    0    0 -0.14812070358E+02 -0.21055254388E+00  0.13518579991E+02  0.20056327262E+02  0.24999523083E+00 0.  0.
        -13    1    4    4    0    0  0.38739121777E+01 -0.35607915907E+01 -0.44002514784E+01  0.68600051302E+01  0.10500000000E+00 0.  1.
         13    1    4    4    0    0  0.14393935456E+01 -0.12780606099E+01 -0.15667334395E+01  0.24841439918E+01  0.10500000000E+00 0. -1.
    3000001    1    5    5    0    0 -0.23316916645E+02  0.10296354656E+02  0.33923032226E+02  0.42443676047E+02  0.10000000000E+01 0. -1.
        -13    1    6    6    0    0 -0.10031521249E+02 -0.13616316292E+00  0.92236969059E+01  0.13628557099E+02  0.10500000000E+00 0. -1.
         13    1    6    6    0    0 -0.47805491087E+01 -0.74389380961E-01  0.42948830847E+01  0.64277701632E+01  0.10500000000E+00 0.  1.
</event>
<event>
11    0  0.3443539E-009  0.9118800E+02  0.7816531E-02  0.1126479E+00
         25   -1    0    0    0    0  0.00000000000E+00  0.00000000000E+00  0.99999998245E-14  0.12500000000E+03  0.12500000000E+03 0.  0.
    3000001    1    3    3    0    0  0.72670827789E+01 -0.20864128307E+02 -0.22242321998E+02  0.31366275360E+02  0.10000000000E+01 0. -1.
    1000022    2    1    0    0    0  0.17957696820E+02 -0.46410548332E+02 -0.36466880023E+02  0.62500008749E+02  0.99999941744E+01 0.  0.
    3000022    2    3    3    0    0  0.10690614041E+02 -0.25546420026E+02 -0.14224558025E+02  0.31133733389E+02  0.24999806945E+00 0.  0.
    1000022    2    1    0    0    0 -0.17957696820E+02  0.46410548332E+02  0.36466880023E+02  0.62499991251E+02  0.99998848075E+01 0.  0.
    3000022    2    5    5    0    0 -0.11016940882E+02  0.15385165587E+02  0.14572444960E+02  0.23885036192E+02  0.24999047693E+00 0.  0.
        -13    1    4    4    0    0  0.41116715313E+01 -0.99840924224E+01 -0.55358850794E+01  0.12134454784E+02  0.10500000000E+00 0.  1.
         13    1    4    4    0    0  0.65789425099E+01 -0.15562327603E+02 -0.86886729451E+01  0.18999278605E+02  0.10500000000E+00 0. -1.
    3000001    1    5    5    0    0 -0.69407559380E+01  0.31025382745E+02  0.21894435063E+02  0.38614955059E+02  0.10000000000E+01 0.  1.
        -13    1    6    6    0    0 -0.63406548654E+01  0.89647424062E+01  0.84678840848E+01  0.13866744261E+02  0.10500000000E+00 0.  1.
         13    1    6    6    0    0 -0.46762860168E+01  0.64204231810E+01  0.61045608751E+01  0.10018291931E+02  0.10500000000E+00 0. -1.
</event>
<event>
11    0  0.3443539E-009  0.9118800E+02  0.7816531E-02  0.1126479E+00
         25   -1    0    0    0    0  0.00000000000E+00  0.00000000000E+00  0.99999998245E-14  0.12500000000E+03  0.12500000000E+03 0.  0.
    3000001    1    3    3    0    0 -0.88375910088E+01 -0.20273626353E+02 -0.50335822601E+02  0.54989253288E+02  0.10000000000E+01 0.  1.
    1000022    2    1    0    0    0 -0.12764026154E+02 -0.20634449639E+02 -0.56723444629E+02  0.62499999211E+02  0.99999927596E+01 0.  0.
    3000022    2    3    3    0    0 -0.39264351450E+01 -0.36082328638E+00 -0.63876220284E+01  0.75107459223E+01  0.25000548112E+00 0.  0.
    1000022    2    1    0    0    0  0.12764026154E+02  0.20634449639E+02  0.56723444629E+02  0.62500000789E+02  0.10000002627E+02 0.  0.
    3000022    2    5    5    0    0  0.91916689400E+01  0.16324087859E+02  0.31563097788E+02  0.36704962353E+02  0.24999417139E+00 0.  0.
        -13    1    4    4    0    0 -0.12151973852E+01 -0.64338136318E-01 -0.19564160198E+01  0.23063895428E+01  0.10500000000E+00 0.  1.
         13    1    4    4    0    0 -0.27112377599E+01 -0.29648515007E+00 -0.44312060086E+01  0.52043563795E+01  0.10500000000E+00 0. -1.
    3000001    1    5    5    0    0  0.35723572139E+01  0.43103617803E+01  0.25160346841E+02  0.25795038436E+02  0.10000000000E+01 0. -1.
        -13    1    6    6    0    0  0.30737069544E+01  0.53864764373E+01  0.10372234209E+02  0.12085365958E+02  0.10500000000E+00 0. -1.
         13    1    6    6    0    0  0.61179619856E+01  0.10937611421E+02  0.21190863579E+02  0.24619596396E+02  0.10500000000E+00 0.  1.
</event>
<event>
11    0  0.3443539E-009  0.9118800E+02  0.7816531E-02  0.1126479E+00
         25   -1    0    0    0    0  0.00000000000E+00  0.00000000000E+00  0.99999998245E-14  0.12500000000E+03  0.12500000000E+03 0.  0.
    3000001    1    3    3    0    0 -0.29716275985E+02 -0.61498571366E+01  0.46586004316E+02  0.55606956393E+02  0.10000000000E+01 0. -1.
    1000022    2    1    0    0    0 -0.30816311637E+02 -0.47342257115E+01  0.53237127935E+02  0.62499998931E+02  0.10000005980E+02 0.  0.
    3000022    2    3    3    0    0 -0.11000356525E+01  0.14156314251E+01  0.66511236193E+01  0.68930425379E+01  0.24999852398E+00 0.  0.
    1000022    2    1    0    0    0  0.30816311637E+02  0.47342257115E+01 -0.53237127935E+02  0.62500001069E+02  0.10000019340E+02 0.  0.
    3000022    2    5    5    0    0  0.15263317415E+02  0.70310239566E+01 -0.30759798605E+02  0.35051845479E+02  0.25000975563E+00 0.  0.
        -13    1    4    4    0    0 -0.37486190437E+00  0.57457570543E+00  0.26399599898E+01  0.27296652608E+01  0.10500000000E+00 0. -1.
         13    1    4    4    0    0 -0.72517374816E+00  0.84105571971E+00  0.40111636295E+01  0.41633772771E+01  0.10500000000E+00 0.  1.
    3000001    1    5    5    0    0  0.15552994222E+02 -0.22967982451E+01 -0.22477329330E+02  0.27448155589E+02  0.10000000000E+01 0.  1.
        -13    1    6    6    0    0  0.56009747588E+01  0.26042135193E+01 -0.11421593327E+02  0.12985247993E+02  0.10500000000E+00 0.  1.
         13    1    6    6    0    0  0.96623426564E+01  0.44268104373E+01 -0.19338205279E+02  0.22066597487E+02  0.10500000000E+00 0. -1.
</event>
<event>
11    0  0.3443539E-009  0.9118800E+02  0.7816531E-02  0.1126479E+00
         25   -1    0    0    0    0  0.00000000000E+00  0.00000000000E+00  0.99999998245E-14  0.12500000000E+03  0.12500000000E+03 0.  0.
    3000001    1    3    3    0    0 -0.18093307470E+02 -0.44492081992E+01  0.14556085395E+02  0.23665224504E+02  0.10000000000E+01 0. -1.
    1000022    2    1    0    0    0 -0.38299052527E+02 -0.15910899614E+02  0.45675769476E+02  0.62499999314E+02  0.99999923030E+01 0.  0.
    3000022    2    3    3    0    0 -0.20205745057E+02 -0.11461691415E+02  0.31119684081E+02  0.38834774810E+02  0.24998770727E+00 0.  0.
    1000022    2    1    0    0    0  0.38299052527E+02  0.15910899614E+02 -0.45675769476E+02  0.62500000686E+02  0.10000000880E+02 0.  0.
    3000022    2    5    5    0    0  0.15422827909E+02  0.56568230318E+01 -0.25360474240E+02  0.30217204032E+02  0.24999659740E+00 0.  0.
        -13    1    4    4    0    0 -0.71670034791E+01 -0.40758778538E+01  0.11140172415E+02  0.13859768598E+02  0.10500000000E+00 0. -1.
         13    1    4    4    0    0 -0.13038741577E+02 -0.73858135610E+01  0.19979511666E+02  0.24975006212E+02  0.10500000000E+00 0.  1.
    3000001    1    5    5    0    0  0.22876224617E+02  0.10254076582E+02 -0.20315295235E+02  0.32282796654E+02  0.10000000000E+01 0.  1.
        -13    1    6    6    0    0  0.84032327158E+01  0.31126831905E+01 -0.13944887492E+02  0.16576309266E+02  0.10500000000E+00 0. -1.
         13    1    6    6    0    0  0.70195951936E+01  0.25441398413E+01 -0.11415586748E+02  0.13640894766E+02  0.10500000000E+00 0.  1.
</event>
<event>
11    0  0.3443539E-009  0.9118800E+02  0.7816531E-02  0.1126479E+00
         25   -1    0    0    0    0  0.00000000000E+00  0.00000000000E+00  0.99999998245E-14  0.12500000000E+03  0.12500000000E+03 0.  0.
    3000001    1    3    3    0    0 -0.31508745067E+02  0.30806916687E+02 -0.64223554177E+01  0.44543392108E+02  0.10000000000E+01 0.  1.
    1000022    2    1    0    0    0 -0.39176222217E+02  0.46936460267E+02 -0.82729903471E+01  0.62499998987E+02  0.99999907252E+01 0.  0.
    3000022    2    3    3    0    0 -0.76674771502E+01  0.16129543581E+02 -0.18506349294E+01  0.17956606879E+02  0.24999797297E+00 0.  0.
    1000022    2    1    0    0    0  0.39176222217E+02 -0.46936460267E+02  0.82729903471E+01  0.62500001013E+02  0.10000003387E+02 0.  0.
    3000022    2    5    5    0    0  0.54392428620E+01 -0.36692780151E+01 -0.15662881909E+01  0.67501647964E+01  0.25000403523E+00 0.  0.
        -13    1    4    4    0    0 -0.22928175858E+01  0.47425179167E+01 -0.57383896368E+00  0.52998872467E+01  0.10500000000E+00 0. -1.
         13    1    4    4    0    0 -0.53746595644E+01  0.11387025664E+02 -0.12767959657E+01  0.12656719632E+02  0.10500000000E+00 0.  1.
    3000001    1    5    5    0    0  0.33736979355E+02 -0.43267182252E+02  0.98392785380E+01  0.55749836217E+02  0.10000000000E+01 0.  1.
        -13    1    6    6    0    0  0.38550456642E+01 -0.25479236667E+01 -0.11123844612E+01  0.47541262366E+01  0.10500000000E+00 0. -1.
         13    1    6    6    0    0  0.15841971978E+01 -0.11213543484E+01 -0.45390372971E+00  0.19960385597E+01  0.10500000000E+00 0.  1.
</event>
<event>
11    0  0.3443539E-009  0.9118800E+02  0.7816531E-02  0.1126479E+00
         25   -1    0    0    0    0  0.00000000000E+00  0.00000000000E+00  0.99999998245E-14  0.12500000000E+03  0.12500000000E+03 0.  0.
    3000001    1    3    3    0    0 -0.38660917013E+01  0.41739086832E+01 -0.32606971006E+01  0.66332740273E+01  0.10000000000E+01 0. -1.
    1000022    2    1    0    0    0 -0.18885666550E+02  0.30558894142E+02 -0.50157104143E+02  0.62499995624E+02  0.99999972419E+01 0.  0.
    3000022    2    3    3    0    0 -0.15019574848E+02  0.26384985458E+02 -0.46896407043E+02  0.55866721597E+02  0.25000449563E+00 0.  0.
    1000022    2    1    0    0    0  0.18885666550E+02 -0.30558894142E+02  0.50157104143E+02  0.62500004376E+02  0.10000051937E+02 0.  0.
    3000022    2    5    5    0    0  0.11772267431E+02 -0.26349475021E+02  0.40788373205E+02  0.49966338681E+02  0.24999624485E+00 0.  0.
        -13    1    4    4    0    0 -0.84141471808E+01  0.14811495399E+02 -0.26193993209E+02  0.31246032932E+02  0.10500000000E+00 0.  1.
         13    1    4    4    0    0 -0.66054276675E+01  0.11573490059E+02 -0.20702413833E+02  0.24620688665E+02  0.10500000000E+00 0. -1.
    3000001    1    5    5    0    0  0.71133991185E+01 -0.42094191206E+01  0.93687309379E+01  0.12533665694E+02  0.10000000000E+01 0.  1.
        -13    1    6    6    0    0  0.66952339193E+01 -0.14866136413E+02  0.23119613974E+02  0.28290559280E+02  0.10500000000E+00 0. -1.
         13    1    6    6    0    0  0.50770335119E+01 -0.11483338608E+02  0.17668759232E+02  0.21675779401E+02  0.10500000000E+00 0.  1.
</event>
<event>
11    0  0.3443539E-009  0.9118800E+02  0.7816531E-02  0.1126479E+00
         25   -1    0    0    0    0  0.00000000000E+00  0.00000000000E+00  0.99999998245E-14  0.12500000000E+03  0.12500000000E+03 0.  0.
    3000001    1    3    3    0    0 -0.56609435590E+00  0.26933375490E+01  0.54741964596E+01  0.62081685586E+01  0.10000000000E+01 0.  1.
    1000022    2    1    0    0    0  0.10861724726E+02  0.45131374881E+01  0.60563225063E+02  0.62500000108E+02  0.10000015475E+02 0.  0.
    3000022    2    3    3    0    0  0.11427819082E+02  0.18197999390E+01  0.55089028603E+02  0.56291831549E+02  0.25001195517E+00 0.  0.
    1000022    2    1    0    0    0 -0.10861724726E+02 -0.45131374881E+01 -0.60563225063E+02  0.62499999892E+02  0.10000014126E+02 0.  0.
    3000022    2    5    5    0    0  0.15763603201E+01  0.89698082922E+00 -0.65957057724E+01  0.68450946442E+01  0.24999916926E+00 0.  0.
        -13    1    4    4    0    0  0.80709548722E+01  0.12450003807E+01  0.38966085829E+02  0.39812776949E+02  0.10500000000E+00 0.  1.
         13    1    4    4    0    0  0.33568642096E+01  0.57479955831E+00  0.16122942774E+02  0.16479054601E+02  0.10500000000E+00 0. -1.
    3000001    1    5    5    0    0 -0.12438085046E+02 -0.54101183173E+01 -0.53967519290E+02  0.55654905248E+02  0.10000000000E+01 0.  1.
        -13    1    6    6    0    0  0.12192268242E+01  0.68695848884E+00 -0.50318663442E+01  0.52238998766E+01  0.10500000000E+00 0.  1.
         13    1    6    6    0    0  0.35713349589E+00  0.21002234038E+00 -0.15638394282E+01  0.16211947676E+01  0.10500000000E+00 0. -1.
</event>
<event>
11    0  0.3443539E-009  0.9118800E+02  0.7816531E-02  0.1126479E+00
         25   -1    0    0    0    0  0.00000000000E+00  0.00000000000E+00  0.99999998245E-14  0.12500000000E+03  0.12500000000E+03 0.  0.
    3000001    1    3    3    0    0 -0.37421304366E+02  0.26640909491E+02 -0.93490089591E+01  0.46888122669E+02  0.10000000000E+01 0.  1.
    1000022    2    1    0    0    0 -0.48935138223E+02  0.36914701070E+02 -0.69933615005E+01  0.62500000621E+02  0.10000003231E+02 0.  0.
    3000022    2    3    3    0    0 -0.11513833857E+02  0.10273791579E+02  0.23556474586E+01  0.15611877952E+02  0.24998947927E+00 0.  0.
    1000022    2    1    0    0    0  0.48935138223E+02 -0.36914701070E+02  0.69933615005E+01  0.62499999379E+02  0.99999954654E+01 0.  0.
    3000022    2    5    5    0    0  0.34431146778E+02 -0.21488070896E+02  0.15600587208E+01  0.40616958789E+02  0.24999756392E+00 0.  0.
        -13    1    4    4    0    0 -0.33938781954E+01  0.29948964275E+01  0.65452516871E+00  0.45746302597E+01  0.10500000000E+00 0.  1.
         13    1    4    4    0    0 -0.81199556619E+01  0.72788951517E+01  0.17011222898E+01  0.11037247693E+02  0.10500000000E+00 0. -1.
    3000001    1    5    5    0    0  0.14503991445E+02 -0.15426630174E+02  0.54333027798E+01  0.21883040589E+02  0.10000000000E+01 0. -1.
        -13    1    6    6    0    0  0.13024503046E+02 -0.80582125331E+01  0.57819347841E+00  0.15327028463E+02  0.10500000000E+00 0. -1.
         13    1    6    6    0    0  0.21406643733E+02 -0.13429858363E+02  0.98186524235E+00  0.25289930326E+02  0.10500000000E+00 0.  1.
</event>
<event>
11    0  0.3443539E-009  0.9118800E+02  0.7816531E-02  0.1126479E+00
         25   -1    0    0    0    0  0.00000000000E+00  0.00000000000E+00  0.99999998245E-14  0.12500000000E+03  0.12500000000E+03 0.  0.
    3000001    1    3    3    0    0 -0.28636257328E+02 -0.89361532120E+01  0.84596316261E+01  0.31184217727E+02  0.10000000000E+01 0.  1.
    1000022    2    1    0    0    0 -0.58295421778E+02 -0.18895363374E+02  0.71315568298E+01  0.62499999341E+02  0.99999928717E+01 0.  0.
    3000022    2    3    3    0    0 -0.29659164450E+02 -0.99592101621E+01 -0.13280747963E+01  0.31315781614E+02  0.24998497660E+00 0.  0.
    1000022    2    1    0    0    0  0.58295421778E+02  0.18895363374E+02 -0.71315568298E+01  0.62500000659E+02  0.10000001115E+02 0.  0.
    3000022    2    5    5    0    0  0.29414405919E+02  0.94122124698E+01  0.13847936032E+01  0.30915646102E+02  0.25000285974E+00 0.  0.
        -13    1    4    4    0    0 -0.15285044738E+02 -0.50764273483E+01 -0.72559643852E+00  0.16122661767E+02  0.10500000000E+00 0. -1.
         13    1    4    4    0    0 -0.14374119712E+02 -0.48827828138E+01 -0.60247835778E+00  0.15193119847E+02  0.10500000000E+00 0.  1.
    3000001    1    5    5    0    0  0.28881015859E+02  0.94831509043E+01 -0.85163504330E+01  0.31584354558E+02  0.10000000000E+01 0. -1.
        -13    1    6    6    0    0  0.11309829225E+02  0.36579509770E+01  0.48400375972E+00  0.11896979747E+02  0.10500000000E+00 0. -1.
         13    1    6    6    0    0  0.18104576693E+02  0.57542614929E+01  0.90078984353E+00  0.19018666355E+02  0.10500000000E+00 0.  1.
</event>
<event>
11    0  0.3443539E-009  0.9118800E+02  0.7816531E-02  0.1126479E+00
         25   -1    0    0    0    0  0.00000000000E+00  0.00000000000E+00  0.99999998245E-14  0.12500000000E+03  0.12500000000E+03 0.  0.
    3000001    1    3    3    0    0  0.11711416191E+02  0.87807823452E+01 -0.78443152766E+01  0.16637087785E+02  0.10000000000E+01 0. -1.
    1000022    2    1    0    0    0  0.36533613215E+02  0.44924717536E+02 -0.21291192506E+02  0.62499997895E+02  0.99999859155E+01 0.  0.
    3000022    2    3    3    0    0  0.24822197024E+02  0.36143935191E+02 -0.13446877230E+02  0.45862910110E+02  0.25000079756E+00 0.  0.
    1000022    2    1    0    0    0 -0.36533613215E+02 -0.44924717536E+02  0.21291192506E+02  0.62500002105E+02  0.10000012229E+02 0.  0.
    3000022    2    5    5    0    0 -0.30428070498E+02 -0.31177298248E+02  0.14045373750E+02  0.45773643315E+02  0.24999642580E+00 0.  0.
        -13    1    4    4    0    0  0.12000229540E+02  0.17417817460E+02 -0.64241568286E+01  0.22105806704E+02  0.10500000000E+00 0.  1.
         13    1    4    4    0    0  0.12821967484E+02  0.18726117731E+02 -0.70227204013E+01  0.23757103407E+02  0.10500000000E+00 0. -1.
    3000001    1    5    5    0    0 -0.61055427164E+01 -0.13747419288E+02  0.72458187565E+01  0.16726358790E+02  0.10000000000E+01 0.  1.
        -13    1    6    6    0    0 -0.14597494240E+02 -0.15009645340E+02  0.68098919305E+01  0.22017310109E+02  0.10500000000E+00 0. -1.
         13    1    6    6    0    0 -0.15830576258E+02 -0.16167652909E+02  0.72354818194E+01  0.23756333206E+02  0.10500000000E+00 0.  1.
</event>
<event>
11    0  0.3443539E-009  0.9118800E+02  0.7816531E-02  0.1126479E+00
         25   -1    0    0    0    0  0.00000000000E+00  0.00000000000E+00  0.99999998245E-14  0.12500000000E+03  0.12500000000E+03 0.  0.
    3000001    1    3    3    0    0  0.49824086553E+02  0.67272803190E+01 -0.99519857290E+01  0.51261466242E+02  0.10000000000E+01 0.  1.
    1000022    2    1    0    0    0  0.60743018148E+02  0.40782765534E+01 -0.99951702274E+01  0.62500000558E+02  0.10000002423E+02 0.  0.
    3000022    2    3    3    0    0  0.10918931596E+02 -0.26490037656E+01 -0.43184498439E-01  0.11238534316E+02  0.25000107094E+00 0.  0.
    1000022    2    1    0    0    0 -0.60743018148E+02 -0.40782765534E+01  0.99951702274E+01  0.62499999442E+02  0.99999954490E+01 0.  0.
    3000022    2    5    5    0    0 -0.40657931346E+02  0.18359403339E+01  0.75764738719E+01  0.41399317811E+02  0.25000124745E+00 0.  0.
        -13    1    4    4    0    0  0.80991850443E+01 -0.19478475868E+01 -0.58440289827E-02  0.83307843422E+01  0.10500000000E+00 0. -1.
         13    1    4    4    0    0  0.28197465513E+01 -0.70115617883E+00 -0.37340469457E-01  0.29077499740E+01  0.10500000000E+00 0.  1.
    3000001    1    5    5    0    0 -0.20085086802E+02 -0.59142168873E+01  0.24186963555E+01  0.21100681631E+02  0.10000000000E+01 0. -1.
        -13    1    6    6    0    0 -0.21299203362E+02  0.99657579928E+00  0.40282518079E+01  0.21699932368E+02  0.10500000000E+00 0.  1.
         13    1    6    6    0    0 -0.19358727985E+02  0.83936453459E+00  0.35482220641E+01  0.19699385443E+02  0.10500000000E+00 0. -1.
</event>
<event>
11    0  0.3443539E-009  0.9118800E+02  0.7816531E-02  0.1126479E+00
         25   -1    0    0    0    0  0.00000000000E+00  0.00000000000E+00  0.99999998245E-14  0.12500000000E+03  0.12500000000E+03 0.  0.
    3000001    1    3    3    0    0  0.17833653050E+01  0.54037114172E+01  0.18778615411E+01  0.60751010575E+01  0.10000000000E+01 0.  1.
    1000022    2    1    0    0    0  0.57081444567E+01  0.61134366861E+02 -0.60213143103E+01  0.62500000926E+02  0.10000008259E+02 0.  0.
    3000022    2    3    3    0    0  0.39247791517E+01  0.55730655443E+02 -0.78991758514E+01  0.56424899869E+02  0.24999704484E+00 0.  0.
    1000022    2    1    0    0    0 -0.57081444567E+01 -0.61134366861E+02  0.60213143103E+01  0.62499999074E+02  0.99999966793E+01 0.  0.
    3000022    2    5    5    0    0 -0.51011735595E+01 -0.60764658299E+02  0.58095551220E+01  0.61255033193E+02  0.24998169231E+00 0.  0.
        -13    1    4    4    0    0  0.27518782984E+01  0.39210287057E+02 -0.55132152552E+01  0.39691636558E+02  0.10500000000E+00 0.  1.
         13    1    4    4    0    0  0.11729008533E+01  0.16520368387E+02 -0.23859605962E+01  0.16733263310E+02  0.10500000000E+00 0. -1.
    3000001    1    5    5    0    0 -0.60697089728E+00 -0.36970856162E+00  0.21175918834E+00  0.12449658809E+01  0.10000000000E+01 0.  1.
        -13    1    6    6    0    0 -0.23662646153E+01 -0.27527860270E+02  0.26702014788E+01  0.27758301465E+02  0.10500000000E+00 0. -1.
         13    1    6    6    0    0 -0.27349089441E+01 -0.33236798029E+02  0.31393536432E+01  0.33496731728E+02  0.10500000000E+00 0.  1.
</event>
<event>
11    0  0.3443539E-009  0.9118800E+02  0.7816531E-02  0.1126479E+00
         25   -1    0    0    0    0  0.00000000000E+00  0.00000000000E+00  0.99999998245E-14  0.12500000000E+03  0.12500000000E+03 0.  0.
    3000001    1    3    3    0    0  0.24108017570E+02 -0.21893425689E+02 -0.42095776008E+02  0.53231315569E+02  0.10000000000E+01 0. -1.
    1000022    2    1    0    0    0  0.31476417767E+02 -0.24698473192E+02 -0.46962437250E+02  0.62499999827E+02  0.10000000622E+02 0.  0.
    3000022    2    3    3    0    0  0.73684001966E+01 -0.28050475032E+01 -0.48666612420E+01  0.92686842572E+01  0.25000652497E+00 0.  0.
    1000022    2    1    0    0    0 -0.31476417767E+02  0.24698473192E+02  0.46962437250E+02  0.62500000173E+02  0.10000002789E+02 0.  0.
    3000022    2    5    5    0    0 -0.49278934101E+00  0.34929866670E+01  0.26965577450E+01  0.44472140428E+01  0.24998375893E+00 0.  0.
        -13    1    4    4    0    0  0.44805988703E+01 -0.16996509284E+01 -0.30303196746E+01  0.56708413701E+01  0.10500000000E+00 0. -1.
         13    1    4    4    0    0  0.28878013263E+01 -0.11053965748E+01 -0.18363415675E+01  0.35978428871E+01  0.10500000000E+00 0.  1.
    3000001    1    5    5    0    0 -0.30983628425E+02  0.21205486525E+02  0.44265879505E+02  0.58052786131E+02  0.10000000000E+01 0. -1.
        -13    1    6    6    0    0 -0.31467556393E+00  0.23304862899E+01  0.18604217230E+01  0.30003968146E+01  0.10500000000E+00 0. -1.
         13    1    6    6    0    0 -0.17811377707E+00  0.11625003771E+01  0.83613602210E+00  0.14468172282E+01  0.10500000000E+00 0. -1.
</event>
<event>
11    0  0.3443539E-009  0.9118800E+02  0.7816531E-02  0.1126479E+00
         25   -1    0    0    0    0  0.00000000000E+00  0.00000000000E+00  0.99999998245E-14  0.12500000000E+03  0.12500000000E+03 0.  0.
    3000001    1    3    3    0    0  0.14520492264E+02 -0.17451172568E+02  0.76687329792E+01  0.23983277197E+02  0.10000000000E+01 0.  1.
    1000022    2    1    0    0    0  0.46021293583E+02 -0.38917014754E+02  0.13181676029E+02  0.62499999603E+02  0.99999933502E+01 0.  0.
    3000022    2    3    3    0    0  0.31500801319E+02 -0.21465842186E+02  0.55129430500E+01  0.38516722406E+02  0.24999870474E+00 0.  0.
    1000022    2    1    0    0    0 -0.46021293583E+02  0.38917014754E+02 -0.13181676029E+02  0.62500000397E+02  0.99999983185E+01 0.  0.
    3000022    2    5    5    0    0 -0.25075942229E+02  0.23855528695E+02 -0.29789933157E+01  0.34739401697E+02  0.25000226338E+00 0.  0.
        -13    1    4    4    0    0  0.18877595037E+02 -0.12919139088E+02  0.32642994674E+01  0.23107021123E+02  0.10500000000E+00 0. -1.
         13    1    4    4    0    0  0.12623206281E+02 -0.85467030979E+01  0.22486435826E+01  0.15409701283E+02  0.10500000000E+00 0.  1.
    3000001    1    5    5    0    0 -0.20945351354E+02  0.15061486059E+02 -0.10202682714E+02  0.27760598700E+02  0.10000000000E+01 0. -1.
        -13    1    6    6    0    0 -0.11176191737E+02  0.10545536564E+02 -0.13011489232E+01  0.15421401256E+02  0.10500000000E+00 0.  1.
         13    1    6    6    0    0 -0.13899750492E+02  0.13309992131E+02 -0.16778443925E+01  0.19318000442E+02  0.10500000000E+00 0. -1.
</event>
<event>
11    0  0.3443539E-009  0.9118800E+02  0.7816531E-02  0.1126479E+00
         25   -1    0    0    0    0  0.00000000000E+00  0.00000000000E+00  0.99999998245E-14  0.12500000000E+03  0.12500000000E+03 0.  0.
    3000001    1    3    3    0    0 -0.44893090429E+00 -0.97649528457E+01 -0.15979581995E+01  0.99553660627E+01  0.10000000000E+01 0.  1.
    1000022    2    1    0    0    0  0.18841294756E+02 -0.57284734901E+02 -0.13027461488E+02  0.62499999985E+02  0.10000000230E+02 0.  0.
    3000022    2    3    3    0    0  0.19290225661E+02 -0.47519782055E+02 -0.11429503289E+02  0.52544633923E+02  0.25003209122E+00 0.  0.
    1000022    2    1    0    0    0 -0.18841294756E+02  0.57284734901E+02  0.13027461488E+02  0.62500000015E+02  0.10000000412E+02 0.  0.
    3000022    2    5    5    0    0 -0.12121719726E+02  0.27238260214E+02  0.23911511442E+01  0.29910516627E+02  0.24998506189E+00 0.  0.
        -13    1    4    4    0    0  0.78675892952E+01 -0.19538584420E+02 -0.46690617912E+01  0.21574670460E+02  0.10500000000E+00 0.  1.
         13    1    4    4    0    0  0.11422636365E+02 -0.27981197635E+02 -0.67604414975E+01  0.30969963463E+02  0.10500000000E+00 0. -1.
    3000001    1    5    5    0    0 -0.67195750301E+01  0.30046474687E+02  0.10636310344E+02  0.32589483387E+02  0.10000000000E+01 0.  1.
        -13    1    6    6    0    0 -0.46721534588E+01  0.10634936082E+02  0.90389768920E+00  0.11651563820E+02  0.10500000000E+00 0. -1.
         13    1    6    6    0    0 -0.74495662674E+01  0.16603324132E+02  0.14872534550E+01  0.18258952808E+02  0.10500000000E+00 0.  1.
</event>
<event>
11    0  0.3443539E-009  0.9118800E+02  0.7816531E-02  0.1126479E+00
         25   -1    0    0    0    0  0.00000000000E+00  0.00000000000E+00  0.99999998245E-14  0.12500000000E+03  0.12500000000E+03 0.  0.
    3000001    1    3    3    0    0  0.81038478158E+01 -0.62251895044E+01  0.18737874386E+01  0.10437260807E+02  0.10000000000E+01 0. -1.
    1000022    2    1    0    0    0  0.35256399366E+02 -0.50625637968E+02  0.53011315650E+00  0.62500000192E+02  0.10000004403E+02 0.  0.
    3000022    2    3    3    0    0  0.27152551551E+02 -0.44400448464E+02 -0.13436742821E+01  0.52062739385E+02  0.24998439537E+00 0.  0.
    1000022    2    1    0    0    0 -0.35256399366E+02  0.50625637968E+02 -0.53011315650E+00  0.62499999808E+02  0.10000002002E+02 0.  0.
    3000022    2    5    5    0    0 -0.27423998333E+01  0.78280054233E+00  0.77900772055E+00  0.29669635525E+01  0.24997231511E+00 0.  0.
        -13    1    4    4    0    0  0.16486949461E+02 -0.26989272597E+02 -0.75618952257E+00  0.31635789628E+02  0.10500000000E+00 0.  1.
         13    1    4    4    0    0  0.10665602090E+02 -0.17411175867E+02 -0.58748475952E+00  0.20426949757E+02  0.10500000000E+00 0. -1.
    3000001    1    5    5    0    0 -0.32513999533E+02  0.49842837426E+02 -0.13091208770E+01  0.59533036255E+02  0.10000000000E+01 0. -1.
        -13    1    6    6    0    0 -0.79999787010E+00  0.18440541341E+00  0.22193387615E+00  0.85690232468E+00  0.10500000000E+00 0.  1.
         13    1    6    6    0    0 -0.19424019633E+01  0.59839512892E+00  0.55707384440E+00  0.21100612279E+01  0.10500000000E+00 0. -1.
</event>
<event>
11    0  0.3443539E-009  0.9118800E+02  0.7816531E-02  0.1126479E+00
         25   -1    0    0    0    0  0.00000000000E+00  0.00000000000E+00  0.99999998245E-14  0.12500000000E+03  0.12500000000E+03 0.  0.
    3000001    1    3    3    0    0 -0.41125843960E+01  0.10692978290E+01  0.34793797723E+02  0.35066581074E+02  0.10000000000E+01 0.  1.
    1000022    2    1    0    0    0 -0.53455281724E+01  0.10317912140E+02  0.60590560147E+02  0.62499999941E+02  0.10000001566E+02 0.  0.
    3000022    2    3    3    0    0 -0.12329437764E+01  0.92486143109E+01  0.25796762424E+02  0.27433418867E+02  0.25000424107E+00 0.  0.
    1000022    2    1    0    0    0  0.53455281724E+01 -0.10317912140E+02 -0.60590560147E+02  0.62500000059E+02  0.10000002304E+02 0.  0.
    3000022    2    5    5    0    0 -0.18839020942E+01 -0.53533036699E+01 -0.34300767074E+02  0.34767974906E+02  0.25001989150E+00 0.  0.
        -13    1    4    4    0    0 -0.82819731605E+00  0.60944796493E+01  0.17156691700E+02  0.18226126524E+02  0.10500000000E+00 0. -1.
         13    1    4    4    0    0 -0.40474646033E+00  0.31541346616E+01  0.86400707243E+01  0.92072923426E+01  0.10500000000E+00 0.  1.
    3000001    1    5    5    0    0  0.72294302666E+01 -0.49646084699E+01 -0.26289793073E+02  0.27732025153E+02  0.10000000000E+01 0. -1.
        -13    1    6    6    0    0 -0.93661947203E+00 -0.25310390194E+01 -0.16628531598E+02  0.16846438872E+02  0.10500000000E+00 0.  1.
         13    1    6    6    0    0 -0.94728262218E+00 -0.28222646505E+01 -0.17672235476E+02  0.17921536034E+02  0.10500000000E+00 0. -1.
</event>
<event>
11    0  0.3443539E-009  0.9118800E+02  0.7816531E-02  0.1126479E+00
         25   -1    0    0    0    0  0.00000000000E+00  0.00000000000E+00  0.99999998245E-14  0.12500000000E+03  0.12500000000E+03 0.  0.
    3000001    1    3    3    0    0 -0.87667760896E+01 -0.22218791548E+02  0.10538383649E+02  0.26126396438E+02  0.10000000000E+01 0.  1.
    1000022    2    1    0    0    0 -0.15033533813E+02 -0.49003554730E+02  0.34335032980E+02  0.62499997053E+02  0.99999813421E+01 0.  0.
    3000022    2    3    3    0    0 -0.62667577229E+01 -0.26784763182E+02  0.23796649331E+02  0.36373600616E+02  0.25002262537E+00 0.  0.
    1000022    2    1    0    0    0  0.15033533813E+02  0.49003554730E+02 -0.34335032980E+02  0.62500002947E+02  0.10000018179E+02 0.  0.
    3000022    2    5    5    0    0  0.10437689151E+00  0.14417387057E+01  0.63569988093E+00  0.15987859911E+01  0.24999455100E+00 0.  0.
        -13    1    4    4    0    0 -0.31839404928E+01 -0.13365551488E+02  0.11833805544E+02  0.18133544118E+02  0.10500000000E+00 0. -1.
         13    1    4    4    0    0 -0.30828172301E+01 -0.13419211694E+02  0.11962843787E+02  0.18240056498E+02  0.10500000000E+00 0.  1.
    3000001    1    5    5    0    0  0.14929156921E+02  0.47561816024E+02 -0.34970732861E+02  0.60901216956E+02  0.10000000000E+01 0. -1.
        -13    1    6    6    0    0  0.66151424915E-01  0.39510272648E+00  0.19288549557E+00  0.45685007376E+00  0.10500000000E+00 0. -1.
         13    1    6    6    0    0  0.38225466596E-01  0.10466359792E+01  0.44281438535E+00  0.11419359173E+01  0.10500000000E+00 0.  1.
</event>
<event>
11    0  0.3443539E-009  0.9118800E+02  0.7816531E-02  0.1126479E+00
         25   -1    0    0    0    0  0.00000000000E+00  0.00000000000E+00  0.99999998245E-14  0.12500000000E+03  0.12500000000E+03 0.  0.
    3000001    1    3    3    0    0 -0.12120275274E+01  0.22389262323E+02  0.31433933308E+02  0.38624347778E+02  0.10000000000E+01 0.  1.
    1000022    2    1    0    0    0  0.57170319692E+01  0.34949465550E+02  0.50518317001E+02  0.62500000060E+02  0.10000002904E+02 0.  0.
    3000022    2    3    3    0    0  0.69290594966E+01  0.12560203227E+02  0.19084383693E+02  0.23875652281E+02  0.25000061461E+00 0.  0.
    1000022    2    1    0    0    0 -0.57170319692E+01 -0.34949465550E+02 -0.50518317001E+02  0.62499999940E+02  0.10000002160E+02 0.  0.
    3000022    2    5    5    0    0 -0.67858626341E+01 -0.25296147670E+02 -0.42229649979E+02  0.49692543281E+02  0.25000356645E+00 0.  0.
        -13    1    4    4    0    0  0.22271501464E+01  0.39515511043E+01  0.59890177510E+01  0.75136084890E+01  0.10500000000E+00 0. -1.
         13    1    4    4    0    0  0.47019093502E+01  0.86086521224E+01  0.13095365942E+02  0.16362043792E+02  0.10500000000E+00 0.  1.
    3000001    1    5    5    0    0  0.10688306649E+01 -0.96533178799E+01 -0.82886670224E+01  0.12807456660E+02  0.10000000000E+01 0. -1.
        -13    1    6    6    0    0 -0.36167409181E+01 -0.13307660044E+02 -0.22140428163E+02  0.26084175566E+02  0.10500000000E+00 0. -1.
         13    1    6    6    0    0 -0.31691217160E+01 -0.11988487626E+02 -0.20089221816E+02  0.23608367715E+02  0.10500000000E+00 0.  1.
</event>
<event>
11    0  0.3443539E-009  0.9118800E+02  0.7816531E-02  0.1126479E+00
         25   -1    0    0    0    0  0.00000000000E+00  0.00000000000E+00  0.99999998245E-14  0.12500000000E+03  0.12500000000E+03 0.  0.
    3000001    1    3    3    0    0 -0.15202956560E+02 -0.21611459235E+02 -0.22980301304E+02  0.35032546388E+02  0.10000000000E+01 0. -1.
    1000022    2    1    0    0    0 -0.25745426165E+02 -0.31677532266E+02 -0.46259670021E+02  0.62500000351E+02  0.99999977300E+01 0.  0.
    3000022    2    3    3    0    0 -0.10542469605E+02 -0.10066073031E+02 -0.23279368717E+02  0.27467453963E+02  0.25005541739E+00 0.  0.
    1000022    2    1    0    0    0  0.25745426165E+02  0.31677532266E+02  0.46259670021E+02  0.62499999649E+02  0.99999933404E+01 0.  0.
    3000022    2    5    5    0    0  0.13244088885E+02  0.12716597821E+02  0.27285367135E+02  0.32888774770E+02  0.24999132543E+00 0.  0.
        -13    1    4    4    0    0 -0.68417884102E+01 -0.65507920421E+01 -0.15230446280E+02  0.17936010257E+02  0.10500000000E+00 0. -1.
         13    1    4    4    0    0 -0.37006811943E+01 -0.35152809887E+01 -0.80489224366E+01  0.95314437060E+01  0.10500000000E+00 0.  1.
    3000001    1    5    5    0    0  0.12501337280E+02  0.18960934445E+02  0.18974302886E+02  0.29611224879E+02  0.10000000000E+01 0.  1.
        -13    1    6    6    0    0  0.69317769693E+01  0.67062829478E+01  0.14434483375E+02  0.17360561576E+02  0.10500000000E+00 0. -1.
         13    1    6    6    0    0  0.63123119155E+01  0.60103148730E+01  0.12850883759E+02  0.15528213193E+02  0.10500000000E+00 0.  1.
</event>
<event>
11    0  0.3443539E-009  0.9118800E+02  0.7816531E-02  0.1126479E+00
         25   -1    0    0    0    0  0.00000000000E+00  0.00000000000E+00  0.99999998245E-14  0.12500000000E+03  0.12500000000E+03 0.  0.
    3000001    1    3    3    0    0 -0.25215392357E+02 -0.16823089758E+02 -0.17312661056E+02  0.34922207742E+02  0.10000000000E+01 0.  1.
    1000022    2    1    0    0    0 -0.49955014513E+02 -0.23699054873E+02 -0.27369715334E+02  0.62500000241E+02  0.10000001791E+02 0.  0.
    3000022    2    3    3    0    0 -0.24739622156E+02 -0.68759651144E+01 -0.10057054279E+02  0.27577792499E+02  0.24999540431E+00 0.  0.
    1000022    2    1    0    0    0  0.49955014513E+02  0.23699054873E+02  0.27369715334E+02  0.62499999759E+02  0.99999987774E+01 0.  0.
    3000022    2    5    5    0    0  0.44744611834E+02  0.17703632042E+02  0.22413053417E+02  0.53083955560E+02  0.24999755006E+00 0.  0.
        -13    1    4    4    0    0 -0.12236122307E+02 -0.34707571747E+01 -0.49733146185E+01  0.13657002884E+02  0.10500000000E+00 0.  1.
         13    1    4    4    0    0 -0.12503499848E+02 -0.34052079397E+01 -0.50837396602E+01  0.13920789615E+02  0.10500000000E+00 0. -1.
    3000001    1    5    5    0    0  0.52104026790E+01  0.59954228306E+01  0.49566619171E+01  0.94160441989E+01  0.10000000000E+01 0. -1.
        -13    1    6    6    0    0  0.26071209443E+02  0.10259298580E+02  0.13007499493E+02  0.30889597557E+02  0.10500000000E+00 0. -1.
         13    1    6    6    0    0  0.18673402391E+02  0.74443334623E+01  0.94055539239E+01  0.22194358003E+02  0.10500000000E+00 0.  1.
</event>
<event>
11    0  0.3443539E-009  0.9118800E+02  0.7816531E-02  0.1126479E+00
         25   -1    0    0    0    0  0.00000000000E+00  0.00000000000E+00  0.99999998245E-14  0.12500000000E+03  0.12500000000E+03 0.  0.
    3000001    1    3    3    0    0  0.39149910810E+02 -0.42555951300E+02 -0.17858434696E+02  0.60528077760E+02  0.10000000000E+01 0. -1.
    1000022    2    1    0    0    0  0.38693627685E+02 -0.44328578643E+02 -0.18548054790E+02  0.62499999843E+02  0.99999967978E+01 0.  0.
    3000022    2    3    3    0    0 -0.45628312537E+00 -0.17726273429E+01 -0.68962009443E+00  0.19719220833E+01  0.24999768146E+00 0.  0.
    1000022    2    1    0    0    0 -0.38693627685E+02  0.44328578643E+02  0.18548054790E+02  0.62500000157E+02  0.99999987572E+01 0.  0.
    3000022    2    5    5    0    0 -0.10280253162E+02  0.93023163186E+01  0.39559031385E+00  0.13872118538E+02  0.24997410363E+00 0.  0.
        -13    1    4    4    0    0 -0.22721083316E+00 -0.96999563785E+00 -0.44226140674E+00  0.10950508902E+01  0.10500000000E+00 0. -1.
         13    1    4    4    0    0 -0.22907229220E+00 -0.80263170503E+00 -0.24735868769E+00  0.87687119313E+00  0.10500000000E+00 0.  1.
    3000001    1    5    5    0    0 -0.28413374522E+02  0.35026262325E+02  0.18152464477E+02  0.48627881619E+02  0.10000000000E+01 0. -1.
        -13    1    6    6    0    0 -0.63354987345E+01  0.56533586646E+01  0.26058922434E+00  0.84957601278E+01  0.10500000000E+00 0.  1.
         13    1    6    6    0    0 -0.39447544279E+01  0.36489576540E+01  0.13500108951E+00  0.53763584099E+01  0.10500000000E+00 0. -1.
</event>
<event>
11    0  0.3443539E-009  0.9118800E+02  0.7816531E-02  0.1126479E+00
         25   -1    0    0    0    0  0.00000000000E+00  0.00000000000E+00  0.99999998245E-14  0.12500000000E+03  0.12500000000E+03 0.  0.
    3000001    1    3    3    0    0 -0.16664400374E+02 -0.30813068291E+02  0.50838246985E+02  0.61746860437E+02  0.10000000000E+01 0. -1.
    1000022    2    1    0    0    0 -0.16923376280E+02 -0.31305559490E+02  0.50396542462E+02  0.62500002089E+02  0.10000002464E+02 0.  0.
    3000022    2    3    3    0    0 -0.25897590651E+00 -0.49249119923E+00 -0.44170452296E+00  0.75314165206E+00  0.25000672189E+00 0.  0.
    1000022    2    1    0    0    0  0.16923376280E+02  0.31305559490E+02 -0.50396542462E+02  0.62499997911E+02  0.99999763532E+01 0.  0.
    3000022    2    5    5    0    0  0.13025754462E+02  0.15754586519E+02 -0.33020172932E+02  0.38836472514E+02  0.25000237077E+00 0.  0.
        -13    1    4    4    0    0 -0.11972196533E+00 -0.24693924553E+00 -0.13527037042E+00  0.32347397589E+00  0.10500000000E+00 0.  1.
         13    1    4    4    0    0 -0.13925394119E+00 -0.24555195370E+00 -0.30643415254E+00  0.42966767618E+00  0.10500000000E+00 0.  1.
    3000001    1    5    5    0    0  0.38976218186E+01  0.15550972971E+02 -0.17376369530E+02  0.23663525397E+02  0.10000000000E+01 0. -1.
        -13    1    6    6    0    0  0.84862145008E+01  0.10174928115E+02 -0.21396537486E+02  0.25166800354E+02  0.10500000000E+00 0.  1.
         13    1    6    6    0    0  0.45395399610E+01  0.55796584043E+01 -0.11623635446E+02  0.13669672159E+02  0.10500000000E+00 0. -1.
</event>
<event>
11    0  0.3443539E-009  0.9118800E+02  0.7816531E-02  0.1126479E+00
         25   -1    0    0    0    0  0.00000000000E+00  0.00000000000E+00  0.99999998245E-14  0.12500000000E+03  0.12500000000E+03 0.  0.
    3000001    1    3    3    0    0 -0.21330532272E+02  0.41866774141E+01  0.29843858629E+02  0.36934750204E+02  0.10000000000E+01 0. -1.
    1000022    2    1    0    0    0 -0.41969317210E+02  0.60301930944E+01  0.44815878652E+02  0.62499997698E+02  0.99999958554E+01 0.  0.
    3000022    2    3    3    0    0 -0.20638784938E+02  0.18435156802E+01  0.14972020024E+02  0.25565247494E+02  0.25000418903E+00 0.  0.
    1000022    2    1    0    0    0  0.41969317210E+02 -0.60301930944E+01 -0.44815878652E+02  0.62500002302E+02  0.10000024627E+02 0.  0.
    3000022    2    5    5    0    0  0.69028050674E+00 -0.66978051217E+00 -0.42636094881E+01  0.43778943863E+01  0.25000055539E+00 0.  0.
        -13    1    4    4    0    0 -0.14984877076E+02  0.13148570854E+01  0.10832396824E+02  0.18537185226E+02  0.10500000000E+00 0. -1.
         13    1    4    4    0    0 -0.56539078614E+01  0.52865859486E+00  0.41396231994E+01  0.70280622683E+01  0.10500000000E+00 0.  1.
    3000001    1    5    5    0    0  0.41279036703E+02 -0.53604125822E+01 -0.40552269164E+02  0.58122107915E+02  0.10000000000E+01 0. -1.
        -13    1    6    6    0    0  0.37797371531E+00 -0.45360254786E+00 -0.25701159196E+01  0.26391552135E+01  0.10500000000E+00 0. -1.
         13    1    6    6    0    0  0.31230679144E+00 -0.21617796431E+00 -0.16934935686E+01  0.17387391728E+01  0.10500000000E+00 0.  1.
</event>
<event>
11    0  0.3443539E-009  0.9118800E+02  0.7816531E-02  0.1126479E+00
         25   -1    0    0    0    0  0.00000000000E+00  0.00000000000E+00  0.99999998245E-14  0.12500000000E+03  0.12500000000E+03 0.  0.
    3000001    1    3    3    0    0  0.24070607263E+02 -0.48351082556E+01  0.11263461931E+02  0.27030315953E+02  0.10000000000E+01 0. -1.
    1000022    2    1    0    0    0  0.59013161624E+02 -0.47610020680E+01  0.17350203164E+02  0.62500000381E+02  0.10000005616E+02 0.  0.
    3000022    2    3    3    0    0  0.34942554360E+02  0.74106187671E-01  0.60867412330E+01  0.35469684428E+02  0.24999524965E+00 0.  0.
    1000022    2    1    0    0    0 -0.59013161624E+02  0.47610020680E+01 -0.17350203164E+02  0.62499999619E+02  0.10000000851E+02 0.  0.
    3000022    2    5    5    0    0 -0.54318430673E+02  0.23187757566E+01 -0.17490348371E+02  0.57112550433E+02  0.24999796551E+00 0.  0.
        -13    1    4    4    0    0  0.22387085606E+02  0.10060199908E+00  0.39232412915E+01  0.22728716856E+02  0.10500000000E+00 0.  1.
         13    1    4    4    0    0  0.12555468754E+02 -0.26495811414E-01  0.21634999416E+01  0.12740967572E+02  0.10500000000E+00 0. -1.
    3000001    1    5    5    0    0 -0.46947309502E+01  0.24422263114E+01  0.14014520738E+00  0.53874491858E+01  0.10000000000E+01 0.  1.
        -13    1    6    6    0    0 -0.34572200487E+02  0.15342742705E+01 -0.11138270450E+02  0.36354685223E+02  0.10500000000E+00 0. -1.
         13    1    6    6    0    0 -0.19746230186E+02  0.78450148607E+00 -0.63520779216E+01  0.20757865210E+02  0.10500000000E+00 0.  1.
</event>
<event>
11    0  0.3443539E-009  0.9118800E+02  0.7816531E-02  0.1126479E+00
         25   -1    0    0    0    0  0.00000000000E+00  0.00000000000E+00  0.99999998245E-14  0.12500000000E+03  0.12500000000E+03 0.  0.
    3000001    1    3    3    0    0  0.28143207997E+02  0.78658017169E+01 -0.21588821937E+02  0.36345401712E+02  0.10000000000E+01 0. -1.
    1000022    2    1    0    0    0  0.48662281417E+02  0.20236780435E+02 -0.32073431580E+02  0.62500000333E+02  0.10000005661E+02 0.  0.
    3000022    2    3    3    0    0  0.20519073420E+02  0.12370978718E+02 -0.10484609644E+02  0.26154598621E+02  0.25000235604E+00 0.  0.
    1000022    2    1    0    0    0 -0.48662281417E+02 -0.20236780435E+02  0.32073431580E+02  0.62499999667E+02  0.10000001497E+02 0.  0.
    3000022    2    5    5    0    0 -0.84119347623E+01 -0.97330263744E+00  0.85927885295E+01  0.12066750904E+02  0.24999640190E+00 0.  0.
        -13    1    4    4    0    0  0.61845076667E+01  0.37828577333E+01 -0.31692639894E+01  0.79128633847E+01  0.10500000000E+00 0. -1.
         13    1    4    4    0    0  0.14334565753E+02  0.85881209850E+01 -0.73153456542E+01  0.18241735236E+02  0.10500000000E+00 0.  1.
    3000001    1    5    5    0    0 -0.40250346654E+02 -0.19263477798E+02  0.23480643051E+02  0.50433248763E+02  0.10000000000E+01 0. -1.
        -13    1    6    6    0    0 -0.51521623542E+01 -0.65741497606E+00  0.52555976134E+01  0.73898107315E+01  0.10500000000E+00 0.  1.
         13    1    6    6    0    0 -0.32597724081E+01 -0.31588766139E+00  0.33371909161E+01  0.46769401726E+01  0.10500000000E+00 0. -1.
</event>
<event>
11    0  0.3443539E-009  0.9118800E+02  0.7816531E-02  0.1126479E+00
         25   -1    0    0    0    0  0.00000000000E+00  0.00000000000E+00  0.99999998245E-14  0.12500000000E+03  0.12500000000E+03 0.  0.
    3000001    1    3    3    0    0  0.17406986613E+02 -0.23643272714E+02  0.15194966892E+02  0.33074076653E+02  0.10000000000E+01 0. -1.
    1000022    2    1    0    0    0  0.24312731410E+02 -0.48138694645E+02  0.29963429192E+02  0.62499999912E+02  0.10000003470E+02 0.  0.
    3000022    2    3    3    0    0  0.69057447969E+01 -0.24495421931E+02  0.14768462300E+02  0.29425923260E+02  0.24994843985E+00 0.  0.
    1000022    2    1    0    0    0 -0.24312731410E+02  0.48138694645E+02 -0.29963429192E+02  0.62500000088E+02  0.10000004564E+02 0.  0.
    3000022    2    5    5    0    0 -0.17561501186E+02  0.29179051053E+02 -0.23345723359E+02  0.41290539340E+02  0.24999131408E+00 0.  0.
        -13    1    4    4    0    0  0.17699275388E+01 -0.62467515499E+01  0.37357690422E+01  0.74914313556E+01  0.10500000000E+00 0.  1.
         13    1    4    4    0    0  0.51358172581E+01 -0.18248670381E+02  0.11032693258E+02  0.21934491904E+02  0.10500000000E+00 0. -1.
    3000001    1    5    5    0    0 -0.67512302238E+01  0.18959643592E+02 -0.66177058331E+01  0.21209460747E+02  0.10000000000E+01 0.  1.
        -13    1    6    6    0    0 -0.61463696773E+01  0.10322420679E+02 -0.82294226808E+01  0.14562439753E+02  0.10500000000E+00 0. -1.
         13    1    6    6    0    0 -0.11415131508E+02  0.18856630373E+02 -0.15116300678E+02  0.26728099588E+02  0.10500000000E+00 0.  1.
</event>
<event>
11    0  0.3443539E-009  0.9118800E+02  0.7816531E-02  0.1126479E+00
         25   -1    0    0    0    0  0.00000000000E+00  0.00000000000E+00  0.99999998245E-14  0.12500000000E+03  0.12500000000E+03 0.  0.
    3000001    1    3    3    0    0  0.29821305459E+01  0.42260504121E+01  0.53187683403E+01  0.74861139008E+01  0.10000000000E+01 0. -1.
    1000022    2    1    0    0    0  0.39737065257E+02  0.14013947137E+02  0.45064674112E+02  0.62500000106E+02  0.10000004542E+02 0.  0.
    3000022    2    3    3    0    0  0.36754934711E+02  0.97878967252E+01  0.39745905772E+02  0.55013886205E+02  0.25000373658E+00 0.  0.
    1000022    2    1    0    0    0 -0.39737065257E+02 -0.14013947137E+02 -0.45064674112E+02  0.62499999894E+02  0.10000003218E+02 0.  0.
    3000022    2    5    5    0    0  0.55268440785E+00 -0.32819074974E-01 -0.35131932885E+00  0.70178013091E+00  0.25006586122E+00 0.  0.
        -13    1    4    4    0    0  0.21465038089E+02  0.57605647347E+01  0.23153962945E+02  0.32094376318E+02  0.10500000000E+00 0.  1.
         13    1    4    4    0    0  0.15289896622E+02  0.40273319905E+01  0.16591942827E+02  0.22919509887E+02  0.10500000000E+00 0. -1.
    3000001    1    5    5    0    0 -0.40289749665E+02 -0.13981128062E+02 -0.44713354783E+02  0.61798219763E+02  0.10000000000E+01 0.  1.
        -13    1    6    6    0    0  0.32693933225E+00 -0.80369360811E-01 -0.18099598088E+00  0.39640018444E+00  0.10500000000E+00 0.  1.
         13    1    6    6    0    0  0.22574507560E+00  0.47550285837E-01 -0.17032334797E+00  0.30537994647E+00  0.10500000000E+00 0. -1.
</event>
<event>
11    0  0.3443539E-009  0.9118800E+02  0.7816531E-02  0.1126479E+00
         25   -1    0    0    0    0  0.00000000000E+00  0.00000000000E+00  0.99999998245E-14  0.12500000000E+03  0.12500000000E+03 0.  0.
    3000001    1    3    3    0    0  0.23521958323E+01 -0.31546070603E+01 -0.17938694075E+01  0.44387316194E+01  0.10000000000E+01 0.  1.
    1000022    2    1    0    0    0  0.35785505201E+02 -0.18744143597E+02 -0.46629440523E+02  0.62499998981E+02  0.99999923726E+01 0.  0.
    3000022    2    3    3    0    0  0.33433309369E+02 -0.15589536537E+02 -0.44835571115E+02  0.58061267362E+02  0.25001119610E+00 0.  0.
    1000022    2    1    0    0    0 -0.35785505201E+02  0.18744143597E+02  0.46629440523E+02  0.62500001019E+02  0.10000005110E+02 0.  0.
    3000022    2    5    5    0    0 -0.30638583347E+02  0.12229855789E+02  0.34190367090E+02  0.47511428769E+02  0.24999960131E+00 0.  0.
        -13    1    4    4    0    0  0.11561417409E+02 -0.54498162184E+01 -0.15508529131E+02  0.20097073671E+02  0.10500000000E+00 0. -1.
         13    1    4    4    0    0  0.21871891960E+02 -0.10139720319E+02 -0.29327041984E+02  0.37964193690E+02  0.10500000000E+00 0.  1.
    3000001    1    5    5    0    0 -0.51469218542E+01  0.65142878089E+01  0.12439073433E+02  0.14988572250E+02  0.10000000000E+01 0. -1.
        -13    1    6    6    0    0 -0.14166270063E+02  0.56311435602E+01  0.15708077187E+02  0.21889442643E+02  0.10500000000E+00 0. -1.
         13    1    6    6    0    0 -0.16472313284E+02  0.65987122284E+01  0.18482289903E+02  0.25621986127E+02  0.10500000000E+00 0.  1.
</event>
<event>
11    0  0.3443539E-009  0.9118800E+02  0.7816531E-02  0.1126479E+00
         25   -1    0    0    0    0  0.00000000000E+00  0.00000000000E+00  0.99999998245E-14  0.12500000000E+03  0.12500000000E+03 0.  0.
    3000001    1    3    3    0    0  0.37570107770E+01 -0.27904886690E+02 -0.70964568553E+01  0.29054389187E+02  0.10000000000E+01 0.  1.
    1000022    2    1    0    0    0  0.18251459460E+02 -0.57170904014E+02 -0.14304610624E+02  0.62499998580E+02  0.99999949633E+01 0.  0.
    3000022    2    3    3    0    0  0.14494448683E+02 -0.29266017324E+02 -0.72081537684E+01  0.33445609393E+02  0.24998857526E+00 0.  0.
    1000022    2    1    0    0    0 -0.18251459460E+02  0.57170904014E+02  0.14304610624E+02  0.62500001420E+02  0.10000012707E+02 0.  0.
    3000022    2    5    5    0    0 -0.64133545399E+01  0.92699704931E+01  0.47332401690E+01  0.12228227106E+02  0.25001251002E+00 0.  0.
        -13    1    4    4    0    0  0.10397878105E+02 -0.21052914123E+02 -0.52136141476E+01  0.24052730815E+02  0.10500000000E+00 0. -1.
         13    1    4    4    0    0  0.40965705774E+01 -0.82131032010E+01 -0.19945396208E+01  0.93928785782E+01  0.10500000000E+00 0.  1.
    3000001    1    5    5    0    0 -0.11838104920E+02  0.47900933521E+02  0.95713704547E+01  0.50271774314E+02  0.10000000000E+01 0.  1.
        -13    1    6    6    0    0 -0.38025605656E+01  0.54872609017E+01  0.28720324930E+01  0.72683625872E+01  0.10500000000E+00 0. -1.
         13    1    6    6    0    0 -0.26107939743E+01  0.37827095914E+01  0.18612076761E+01  0.49598645186E+01  0.10500000000E+00 0.  1.
</event>
<event>
11    0  0.3443539E-009  0.9118800E+02  0.7816531E-02  0.1126479E+00
         25   -1    0    0    0    0  0.00000000000E+00  0.00000000000E+00  0.99999998245E-14  0.12500000000E+03  0.12500000000E+03 0.  0.
    3000001    1    3    3    0    0 -0.18691752453E+02  0.37893589769E+02 -0.81647260858E+01  0.43046120701E+02  0.10000000000E+01 0.  1.
    1000022    2    1    0    0    0 -0.32302491827E+02  0.51753468641E+02 -0.91857178140E+01  0.62499999241E+02  0.99999999369E+01 0.  0.
    3000022    2    3    3    0    0 -0.13610739373E+02  0.13859878872E+02 -0.10209917281E+01  0.19453878540E+02  0.24999497175E+00 0.  0.
    1000022    2    1    0    0    0  0.32302491827E+02 -0.51753468641E+02  0.91857178140E+01  0.62500000759E+02  0.10000009430E+02 0.  0.
    3000022    2    5    5    0    0  0.23410314339E+02 -0.30274257267E+02  0.85953493207E+01  0.39223921264E+02  0.24999772710E+00 0.  0.
        -13    1    4    4    0    0 -0.82774387761E+01  0.83581817073E+01 -0.65630429001E+00  0.11782060705E+02  0.10500000000E+00 0.  1.
         13    1    4    4    0    0 -0.53333005974E+01  0.55016971647E+01 -0.36468743814E+00  0.76718178343E+01  0.10500000000E+00 0. -1.
    3000001    1    5    5    0    0  0.88921774874E+01 -0.21479211374E+02  0.59036849328E+00  0.23276079495E+02  0.10000000000E+01 0. -1.
        -13    1    6    6    0    0  0.14268208535E+02 -0.18551231270E+02  0.52454802221E+01  0.23984495912E+02  0.10500000000E+00 0.  1.
         13    1    6    6    0    0  0.91421058047E+01 -0.11723025997E+02  0.33498690986E+01  0.15239425352E+02  0.10500000000E+00 0. -1.
</event>
<event>
11    0  0.3443539E-009  0.9118800E+02  0.7816531E-02  0.1126479E+00
         25   -1    0    0    0    0  0.00000000000E+00  0.00000000000E+00  0.99999998245E-14  0.12500000000E+03  0.12500000000E+03 0.  0.
    3000001    1    3    3    0    0 -0.59495221536E+02  0.49226161317E+01  0.16635272962E+01  0.59730066619E+02  0.10000000000E+01 0. -1.
    1000022    2    1    0    0    0 -0.61305885525E+02  0.68579801219E+01  0.89808450187E+00  0.62499999978E+02  0.99999975116E+01 0.  0.
    3000022    2    3    3    0    0 -0.18106639882E+01  0.19353639902E+01 -0.76544279432E+00  0.27699333595E+01  0.24998058330E+00 0.  0.
    1000022    2    1    0    0    0  0.61305885525E+02 -0.68579801219E+01 -0.89808450187E+00  0.62500000022E+02  0.99999977809E+01 0.  0.
    3000022    2    5    5    0    0  0.87608402209E+01 -0.68996714738E+00 -0.36364501517E+01  0.95139186751E+01  0.25000562090E+00 0.  0.
        -13    1    4    4    0    0 -0.10514469013E+01  0.12151840332E+01 -0.46644517832E+00  0.16765467262E+01  0.10500000000E+00 0.  1.
         13    1    4    4    0    0 -0.75921708691E+00  0.72017995702E+00 -0.29899761600E+00  0.10933866333E+01  0.10500000000E+00 0. -1.
    3000001    1    5    5    0    0  0.52545045304E+02 -0.61680129745E+01  0.27383656498E+01  0.52986081346E+02  0.10000000000E+01 0. -1.
        -13    1    6    6    0    0  0.52062847851E+01 -0.37295924753E+00 -0.22156110069E+01  0.56713717033E+01  0.10500000000E+00 0. -1.
         13    1    6    6    0    0  0.35545554358E+01 -0.31700789985E+00 -0.14208391448E+01  0.38425469718E+01  0.10500000000E+00 0.  1.
</event>
<event>
11    0  0.3443539E-009  0.9118800E+02  0.7816531E-02  0.1126479E+00
         25   -1    0    0    0    0  0.00000000000E+00  0.00000000000E+00  0.99999998245E-14  0.12500000000E+03  0.12500000000E+03 0.  0.
    3000001    1    3    3    0    0 -0.10337554195E+02 -0.16319980954E+02  0.42281022774E+01  0.19801102341E+02  0.10000000000E+01 0.  1.
    1000022    2    1    0    0    0 -0.21178183559E+02 -0.57531186671E+02  0.69207768813E+01  0.62499998322E+02  0.99999869461E+01 0.  0.
    3000022    2    3    3    0    0 -0.10840629364E+02 -0.41211205717E+02  0.26926746039E+01  0.42698895980E+02  0.24999945966E+00 0.  0.
    1000022    2    1    0    0    0  0.21178183559E+02  0.57531186671E+02 -0.69207768813E+01  0.62500001678E+02  0.10000007927E+02 0.  0.
    3000022    2    5    5    0    0  0.11800726337E+02  0.35245296333E+02  0.55207104679E+00  0.37173314800E+02  0.24999013581E+00 0.  0.
        -13    1    4    4    0    0 -0.37602106312E+01 -0.14101716268E+02  0.94757714655E+00  0.14625543174E+02  0.10500000000E+00 0.  1.
         13    1    4    4    0    0 -0.70804187329E+01 -0.27109489450E+02  0.17450974574E+01  0.28073352806E+02  0.10500000000E+00 0. -1.
    3000001    1    5    5    0    0  0.93774572214E+01  0.22285890338E+02 -0.74728479281E+01  0.25326686879E+02  0.10000000000E+01 0. -1.
        -13    1    6    6    0    0  0.41291267863E+01  0.12361056295E+02  0.24946161678E+00  0.13035285069E+02  0.10500000000E+00 0. -1.
         13    1    6    6    0    0  0.76715995512E+01  0.22884240038E+02  0.30260943000E+00  0.24138029731E+02  0.10500000000E+00 0.  1.
</event>
<event>
11    0  0.3443539E-009  0.9118800E+02  0.7816531E-02  0.1126479E+00
         25   -1    0    0    0    0  0.00000000000E+00  0.00000000000E+00  0.99999998245E-14  0.12500000000E+03  0.12500000000E+03 0.  0.
    3000001    1    3    3    0    0 -0.52887425390E+01  0.33292607822E+01  0.61129311742E+01  0.87990171349E+01  0.10000000000E+01 0. -1.
    1000022    2    1    0    0    0 -0.51007023232E+02  0.63451470322E+01  0.34121440122E+02  0.62500002644E+02  0.10000017232E+02 0.  0.
    3000022    2    3    3    0    0 -0.45718280693E+02  0.30158862500E+01  0.28008508947E+02  0.53700985509E+02  0.25002350784E+00 0.  0.
    1000022    2    1    0    0    0  0.51007023232E+02 -0.63451470322E+01 -0.34121440122E+02  0.62499997356E+02  0.99999841837E+01 0.  0.
    3000022    2    5    5    0    0  0.33931507796E+02 -0.26609322802E+01 -0.27623011675E+02  0.43835157736E+02  0.24999575890E+00 0.  0.
        -13    1    4    4    0    0 -0.26611631834E+02  0.17973359424E+01  0.16246908482E+02  0.31231113101E+02  0.10500000000E+00 0.  1.
         13    1    4    4    0    0 -0.19106648860E+02  0.12185503076E+01  0.11761600466E+02  0.22469872408E+02  0.10500000000E+00 0. -1.
    3000001    1    5    5    0    0  0.17075515436E+02 -0.36842147520E+01 -0.64984284467E+01  0.18664839620E+02  0.10000000000E+01 0. -1.
        -13    1    6    6    0    0  0.19696753034E+02 -0.14879621872E+01 -0.16071853763E+02  0.25465498620E+02  0.10500000000E+00 0. -1.
         13    1    6    6    0    0  0.14234754762E+02 -0.11729700929E+01 -0.11551157911E+02  0.18369659117E+02  0.10500000000E+00 0.  1.
</event>
<event>
11    0  0.3443539E-009  0.9118800E+02  0.7816531E-02  0.1126479E+00
         25   -1    0    0    0    0  0.00000000000E+00  0.00000000000E+00  0.99999998245E-14  0.12500000000E+03  0.12500000000E+03 0.  0.
    3000001    1    3    3    0    0 -0.13682545803E+01 -0.21570233907E+01  0.40571117427E+00  0.27729897334E+01  0.10000000000E+01 0. -1.
    1000022    2    1    0    0    0  0.66626607745E+01 -0.61328661846E+02 -0.80878862566E+00  0.62500001069E+02  0.10000009110E+02 0.  0.
    3000022    2    3    3    0    0  0.80309153548E+01 -0.59171638455E+02 -0.12144997999E+01  0.59727011336E+02  0.24994886817E+00 0.  0.
    1000022    2    1    0    0    0 -0.66626607745E+01  0.61328661846E+02  0.80878862566E+00  0.62499998931E+02  0.99999957418E+01 0.  0.
    3000022    2    5    5    0    0 -0.89121535770E+01  0.47063979938E+02  0.22435392527E+01  0.47953525916E+02  0.24998076578E+00 0.  0.
        -13    1    4    4    0    0  0.46539416260E+01 -0.33917126238E+02 -0.73802009512E+00  0.34243047814E+02  0.10500000000E+00 0.  1.
         13    1    4    4    0    0  0.33769737288E+01 -0.25254512217E+02 -0.47647970481E+00  0.25483963522E+02  0.10500000000E+00 0. -1.
    3000001    1    5    5    0    0  0.22494928025E+01  0.14264681908E+02 -0.14347506270E+01  0.14546473015E+02  0.10000000000E+01 0.  1.
        -13    1    6    6    0    0 -0.48896355557E+01  0.25550919931E+02  0.11742943055E+01  0.26041275647E+02  0.10500000000E+00 0. -1.
         13    1    6    6    0    0 -0.40225180213E+01  0.21513060007E+02  0.10692449471E+01  0.21912250269E+02  0.10500000000E+00 0.  1.
</event>
<event>
11    0  0.3443539E-009  0.9118800E+02  0.7816531E-02  0.1126479E+00
         25   -1    0    0    0    0  0.00000000000E+00  0.00000000000E+00  0.99999998245E-14  0.12500000000E+03  0.12500000000E+03 0.  0.
    3000001    1    3    3    0    0 -0.21495886294E+02 -0.21602115201E+02  0.19021706206E+02  0.35938138735E+02  0.10000000000E+01 0. -1.
    1000022    2    1    0    0    0 -0.30071031591E+02 -0.38941518670E+02  0.37222857941E+02  0.62499999632E+02  0.99999991751E+01 0.  0.
    3000022    2    3    3    0    0 -0.85751452962E+01 -0.17339403469E+02  0.18201151735E+02  0.26561860898E+02  0.25000068649E+00 0.  0.
    1000022    2    1    0    0    0  0.30071031591E+02  0.38941518670E+02 -0.37222857941E+02  0.62500000368E+02  0.10000003772E+02 0.  0.
    3000022    2    5    5    0    0  0.11566092548E+02  0.16045352548E+02 -0.90974163217E+01  0.21772765520E+02  0.24999889072E+00 0.  0.
        -13    1    4    4    0    0 -0.21801211948E+01 -0.44166179563E+01  0.45957399212E+01  0.67373060654E+01  0.10500000000E+00 0. -1.
         13    1    4    4    0    0 -0.63950241014E+01 -0.12922785512E+02  0.13605411814E+02  0.19824554832E+02  0.10500000000E+00 0. -1.
    3000001    1    5    5    0    0  0.18504939043E+02  0.22896166122E+02 -0.28125441619E+02  0.40727234848E+02  0.10000000000E+01 0. -1.
        -13    1    6    6    0    0  0.82406492735E+01  0.11447061841E+02 -0.65322332172E+01  0.15544279367E+02  0.10500000000E+00 0.  1.
         13    1    6    6    0    0  0.33254432741E+01  0.45982907071E+01 -0.25651831045E+01  0.62284861528E+01  0.10500000000E+00 0. -1.
</event>
<event>
11    0  0.3443539E-009  0.9118800E+02  0.7816531E-02  0.1126479E+00
         25   -1    0    0    0    0  0.00000000000E+00  0.00000000000E+00  0.99999998245E-14  0.12500000000E+03  0.12500000000E+03 0.  0.
    3000001    1    3    3    0    0 -0.38706629050E+02  0.56320631044E+01  0.15888086799E+02  0.42229782966E+02  0.10000000000E+01 0.  1.
    1000022    2    1    0    0    0 -0.55245866028E+02  0.29776151726E+01  0.27299776422E+02  0.62499997791E+02  0.10000001293E+02 0.  0.
    3000022    2    3    3    0    0 -0.16539236978E+02 -0.26544479318E+01  0.11411689623E+02  0.20270214824E+02  0.24999070337E+00 0.  0.
    1000022    2    1    0    0    0  0.55245866028E+02 -0.29776151726E+01 -0.27299776422E+02  0.62500002209E+02  0.10000028907E+02 0.  0.
    3000022    2    5    5    0    0  0.29727519445E+02  0.31476138611E+01 -0.16036359508E+02  0.33924330675E+02  0.25000020517E+00 0.  0.
        -13    1    4    4    0    0 -0.10366665620E+02 -0.16445888917E+01  0.70815141726E+01  0.12662199520E+02  0.10500000000E+00 0. -1.
         13    1    4    4    0    0 -0.61725713578E+01 -0.10098590400E+01  0.43301754503E+01  0.76080153048E+01  0.10500000000E+00 0.  1.
    3000001    1    5    5    0    0  0.25518346583E+02 -0.61252290337E+01 -0.11263416914E+02  0.28575671534E+02  0.10000000000E+01 0. -1.
        -13    1    6    6    0    0  0.13539096459E+02  0.14536986088E+01 -0.73772235735E+01  0.15487247180E+02  0.10500000000E+00 0. -1.
         13    1    6    6    0    0  0.16188422986E+02  0.16939152523E+01 -0.86591359349E+01  0.18437083495E+02  0.10500000000E+00 0.  1.
</event>
<event>
11    0  0.3443539E-009  0.9118800E+02  0.7816531E-02  0.1126479E+00
         25   -1    0    0    0    0  0.00000000000E+00  0.00000000000E+00  0.99999998245E-14  0.12500000000E+03  0.12500000000E+03 0.  0.
    3000001    1    3    3    0    0 -0.14504118198E+02  0.14376161214E+02  0.12234372223E+02  0.23826945244E+02  0.10000000000E+01 0. -1.
    1000022    2    1    0    0    0 -0.46563561381E+02  0.31898161614E+02  0.24911683203E+02  0.62499999294E+02  0.99999994465E+01 0.  0.
    3000022    2    3    3    0    0 -0.32059443182E+02  0.17522000399E+02  0.12677310980E+02  0.38673054050E+02  0.25000137730E+00 0.  0.
    1000022    2    1    0    0    0  0.46563561381E+02 -0.31898161614E+02 -0.24911683203E+02  0.62500000706E+02  0.10000008273E+02 0.  0.
    3000022    2    5    5    0    0  0.15141731056E+02 -0.10105737503E+02 -0.13224275564E+02  0.22502042422E+02  0.24999824781E+00 0.  0.
        -13    1    4    4    0    0 -0.11637528072E+02  0.63533208317E+01  0.45391424155E+01  0.14014691722E+02  0.10500000000E+00 0. -1.
         13    1    4    4    0    0 -0.20421915111E+02  0.11168679568E+02  0.81381685645E+01  0.24658362327E+02  0.10500000000E+00 0.  1.
    3000001    1    5    5    0    0  0.31421830324E+02 -0.21792424111E+02 -0.11687407640E+02  0.39997958284E+02  0.10000000000E+01 0. -1.
        -13    1    6    6    0    0  0.11641543013E+02 -0.77783663438E+01 -0.10176017314E+02  0.17308693194E+02  0.10500000000E+00 0.  1.
         13    1    6    6    0    0  0.35001880430E+01 -0.23273711590E+01 -0.30482582499E+01  0.51933492282E+01  0.10500000000E+00 0. -1.
</event>
<event>
11    0  0.3443539E-009  0.9118800E+02  0.7816531E-02  0.1126479E+00
         25   -1    0    0    0    0  0.00000000000E+00  0.00000000000E+00  0.99999998245E-14  0.12500000000E+03  0.12500000000E+03 0.  0.
    3000001    1    3    3    0    0  0.32246353214E+01  0.36601628417E+02  0.11957565108E+02  0.38653083177E+02  0.10000000000E+01 0.  1.
    1000022    2    1    0    0    0  0.10311793765E+02  0.55821741650E+02  0.24162987065E+02  0.62499998729E+02  0.99999982836E+01 0.  0.
    3000022    2    3    3    0    0  0.70871584433E+01  0.19220113233E+02  0.12205421957E+02  0.23846915552E+02  0.24997741020E+00 0.  0.
    1000022    2    1    0    0    0 -0.10311793765E+02 -0.55821741650E+02 -0.24162987065E+02  0.62500001271E+02  0.10000014176E+02 0.  0.
    3000022    2    5    5    0    0 -0.27075144699E+01 -0.38858986824E+02 -0.17781231333E+02  0.42820394540E+02  0.25001847302E+00 0.  0.
        -13    1    4    4    0    0  0.33365748340E+01  0.92417196363E+01  0.58419338168E+01  0.11431593466E+02  0.10500000000E+00 0. -1.
         13    1    4    4    0    0  0.37505836093E+01  0.99783935965E+01  0.63634881403E+01  0.12415322086E+02  0.10500000000E+00 0.  1.
    3000001    1    5    5    0    0 -0.76042792948E+01 -0.16962754826E+02 -0.63817557321E+01  0.19679606732E+02  0.10000000000E+01 0. -1.
        -13    1    6    6    0    0 -0.16595383039E+01 -0.22990386429E+02 -0.10552207435E+02  0.25350977146E+02  0.10500000000E+00 0. -1.
         13    1    6    6    0    0 -0.10479761661E+01 -0.15868600395E+02 -0.72290238980E+01  0.17469417393E+02  0.10500000000E+00 0.  1.
</event>
<event>
11    0  0.3443539E-009  0.9118800E+02  0.7816531E-02  0.1126479E+00
         25   -1    0    0    0    0  0.00000000000E+00  0.00000000000E+00  0.99999998245E-14  0.12500000000E+03  0.12500000000E+03 0.  0.
    3000001    1    3    3    0    0  0.22484352123E+02 -0.12661443253E+01 -0.44580210690E+02  0.49955424100E+02  0.10000000000E+01 0. -1.
    1000022    2    1    0    0    0  0.29366623672E+02  0.29586147877E+01 -0.54176545479E+02  0.62500000453E+02  0.99999994573E+01 0.  0.
    3000022    2    3    3    0    0  0.68822715493E+01  0.42247591130E+01 -0.95963347889E+01  0.12544576352E+02  0.25000647734E+00 0.  0.
    1000022    2    1    0    0    0 -0.29366623672E+02 -0.29586147877E+01  0.54176545479E+02  0.62499999547E+02  0.99999937996E+01 0.  0.
    3000022    2    5    5    0    0 -0.28632298363E+02 -0.21647711002E+01  0.46260243060E+02  0.54447840492E+02  0.25000555660E+00 0.  0.
        -13    1    4    4    0    0  0.33075329292E+01  0.19536448536E+01 -0.45907800697E+01  0.59868847442E+01  0.10500000000E+00 0. -1.
         13    1    4    4    0    0  0.35747386201E+01  0.22711142594E+01 -0.50055547192E+01  0.65576916082E+01  0.10500000000E+00 0.  1.
    3000001    1    5    5    0    0 -0.73432530866E+00 -0.79384368759E+00  0.79163024198E+01  0.80521590559E+01  0.10000000000E+01 0.  1.
        -13    1    6    6    0    0 -0.16126807050E+02 -0.11735870116E+01  0.26140220112E+02  0.30737165526E+02  0.10500000000E+00 0.  1.
         13    1    6    6    0    0 -0.12505491314E+02 -0.99118408852E+00  0.20120022948E+02  0.23710674965E+02  0.10500000000E+00 0. -1.
</event>
<event>
11    0  0.3443539E-009  0.9118800E+02  0.7816531E-02  0.1126479E+00
         25   -1    0    0    0    0  0.00000000000E+00  0.00000000000E+00  0.99999998245E-14  0.12500000000E+03  0.12500000000E+03 0.  0.
    3000001    1    3    3    0    0 -0.10411982568E+02 -0.22424488037E+02 -0.43608131604E+01  0.25125360418E+02  0.10000000000E+01 0.  1.
    1000022    2    1    0    0    0 -0.19802879049E+02 -0.58424640013E+02 -0.81096547414E+00  0.62500001645E+02  0.99999980633E+01 0.  0.
    3000022    2    3    3    0    0 -0.93908964818E+01 -0.36000151976E+02  0.35498476863E+01  0.37374641227E+02  0.25001838527E+00 0.  0.
    1000022    2    1    0    0    0  0.19802879049E+02  0.58424640013E+02  0.81096547414E+00  0.62499998355E+02  0.99999775047E+01 0.  0.
    3000022    2    5    5    0    0  0.57820451588E+01  0.13289853096E+02 -0.38497415219E+01  0.14997840902E+02  0.24996078594E+00 0.  0.
        -13    1    4    4    0    0 -0.56521367334E+01 -0.21509322144E+02  0.21712485474E+01  0.22345534991E+02  0.10500000000E+00 0. -1.
         13    1    4    4    0    0 -0.37387597484E+01 -0.14490829832E+02  0.13785991389E+01  0.15029106236E+02  0.10500000000E+00 0.  1.
    3000001    1    5    5    0    0  0.14020833891E+02  0.45134786917E+02  0.46607069960E+01  0.47502157453E+02  0.10000000000E+01 0. -1.
        -13    1    6    6    0    0  0.20953238812E+01  0.47234386899E+01 -0.14183231674E+01  0.53594702006E+01  0.10500000000E+00 0.  1.
         13    1    6    6    0    0  0.36867212777E+01  0.85664144063E+01 -0.24314183545E+01  0.96383707012E+01  0.10500000000E+00 0. -1.
</event>
<event>
11    0  0.3443539E-009  0.9118800E+02  0.7816531E-02  0.1126479E+00
         25   -1    0    0    0    0  0.00000000000E+00  0.00000000000E+00  0.99999998245E-14  0.12500000000E+03  0.12500000000E+03 0.  0.
    3000001    1    3    3    0    0 -0.21032593470E+02 -0.10163747898E+02 -0.55061667710E+01  0.24020608484E+02  0.10000000000E+01 0.  1.
    1000022    2    1    0    0    0 -0.57432662822E+02 -0.22352482251E+02 -0.28470778549E+01  0.62499999743E+02  0.99999946928E+01 0.  0.
    3000022    2    3    3    0    0 -0.36400069352E+02 -0.12188734353E+02  0.26590889161E+01  0.38479391259E+02  0.25000763108E+00 0.  0.
    1000022    2    1    0    0    0  0.57432662822E+02  0.22352482251E+02  0.28470778549E+01  0.62500000257E+02  0.99999979106E+01 0.  0.
    3000022    2    5    5    0    0  0.52605604893E+02  0.20913014963E+02  0.52043954548E+01  0.56849380770E+02  0.25000170113E+00 0.  0.
        -13    1    4    4    0    0 -0.14972565439E+02 -0.49632333186E+01  0.11354472288E+01  0.15814919102E+02  0.10500000000E+00 0.  1.
         13    1    4    4    0    0 -0.21427503913E+02 -0.72255010340E+01  0.15236416873E+01  0.22664472156E+02  0.10500000000E+00 0.  1.
    3000001    1    5    5    0    0  0.48270579293E+01  0.14394672879E+01 -0.23573176000E+01  0.56506194875E+01  0.10000000000E+01 0. -1.
        -13    1    6    6    0    0  0.35067116142E+02  0.13893036917E+02  0.34979275485E+01  0.37880940213E+02  0.10500000000E+00 0.  1.
         13    1    6    6    0    0  0.17538488751E+02  0.70199780460E+01  0.17064679063E+01  0.18968440557E+02  0.10500000000E+00 0. -1.
</event>
<event>
11    0  0.3443539E-009  0.9118800E+02  0.7816531E-02  0.1126479E+00
         25   -1    0    0    0    0  0.00000000000E+00  0.00000000000E+00  0.99999998245E-14  0.12500000000E+03  0.12500000000E+03 0.  0.
    3000001    1    3    3    0    0 -0.25518093037E+02  0.49146232933E+01  0.22242331583E+02  0.34220577269E+02  0.10000000000E+01 0.  1.
    1000022    2    1    0    0    0 -0.49312951377E+02  0.11683063591E+01  0.37055605367E+02  0.62500000154E+02  0.10000000841E+02 0.  0.
    3000022    2    3    3    0    0 -0.23794858340E+02 -0.37463169342E+01  0.14813273784E+02  0.28279422885E+02  0.25000900695E+00 0.  0.
    1000022    2    1    0    0    0  0.49312951377E+02 -0.11683063591E+01 -0.37055605367E+02  0.62499999846E+02  0.99999989206E+01 0.  0.
    3000022    2    5    5    0    0  0.81460661069E+01  0.14154446206E+01 -0.23896884401E+01  0.86101677037E+01  0.25000110710E+00 0.  0.
        -13    1    4    4    0    0 -0.10389261943E+02 -0.16836140833E+01  0.65263881715E+01  0.12384509989E+02  0.10500000000E+00 0.  1.
         13    1    4    4    0    0 -0.13405596397E+02 -0.20627028509E+01  0.82868856123E+01  0.15894912896E+02  0.10500000000E+00 0. -1.
    3000001    1    5    5    0    0  0.41166885270E+02 -0.25837509798E+01 -0.34665916927E+02  0.53889832143E+02  0.10000000000E+01 0. -1.
        -13    1    6    6    0    0  0.32150987313E+01  0.55238611010E+00 -0.10078195015E+01  0.34159501481E+01  0.10500000000E+00 0. -1.
         13    1    6    6    0    0  0.49309673756E+01  0.86305851054E+00 -0.13818689385E+01  0.51942175557E+01  0.10500000000E+00 0.  1.
</event>
<event>
11    0  0.3443539E-009  0.9118800E+02  0.7816531E-02  0.1126479E+00
         25   -1    0    0    0    0  0.00000000000E+00  0.00000000000E+00  0.99999998245E-14  0.12500000000E+03  0.12500000000E+03 0.  0.
    3000001    1    3    3    0    0  0.24273646313E+02  0.33671048895E+02  0.39894149558E+02  0.57580314414E+02  0.10000000000E+01 0. -1.
    1000022    2    1    0    0    0  0.23478706521E+02  0.36760983952E+02  0.43630600538E+02  0.62499989433E+02  0.99999887389E+01 0.  0.
    3000022    2    3    3    0    0 -0.79493979162E+00  0.30899350571E+01  0.37364509803E+01  0.49196750196E+01  0.25001688113E+00 0.  0.
    1000022    2    1    0    0    0 -0.23478706521E+02 -0.36760983952E+02 -0.43630600538E+02  0.62500010567E+02  0.10000120821E+02 0.  0.
    3000022    2    5    5    0    0 -0.45376543213E+01 -0.15310837381E+02 -0.18083572619E+02  0.24126544709E+02  0.25002580677E+00 0.  0.
        -13    1    4    4    0    0 -0.38990681352E+00  0.16252514139E+01  0.18615187077E+01  0.25039461617E+01  0.10500000000E+00 0.  1.
         13    1    4    4    0    0 -0.40503297810E+00  0.14646836432E+01  0.18749322725E+01  0.24157288578E+01  0.10500000000E+00 0. -1.
    3000001    1    5    5    0    0 -0.18941052200E+02 -0.21450146572E+02 -0.25547027919E+02  0.38373465857E+02  0.10000000000E+01 0.  1.
        -13    1    6    6    0    0 -0.34534446174E+01 -0.11668534985E+02 -0.13804772047E+02  0.18402818933E+02  0.10500000000E+00 0.  1.
         13    1    6    6    0    0 -0.10842097039E+01 -0.36423023958E+01 -0.42788005716E+01  0.57237257757E+01  0.10500000000E+00 0. -1.
</event>
<event>
11    0  0.3443539E-009  0.9118800E+02  0.7816531E-02  0.1126479E+00
         25   -1    0    0    0    0  0.00000000000E+00  0.00000000000E+00  0.99999998245E-14  0.12500000000E+03  0.12500000000E+03 0.  0.
    3000001    1    3    3    0    0  0.28252298124E+02  0.26229118538E+02 -0.27888771984E+02  0.47591413210E+02  0.10000000000E+01 0.  1.
    1000022    2    1    0    0    0  0.35853644441E+02  0.38129923834E+02 -0.32663055307E+02  0.62499998647E+02  0.99999868808E+01 0.  0.
    3000022    2    3    3    0    0  0.76013463170E+01  0.11900805295E+02 -0.47742833237E+01  0.14908585437E+02  0.25001193136E+00 0.  0.
    1000022    2    1    0    0    0 -0.35853644441E+02 -0.38129923834E+02  0.32663055307E+02  0.62500001353E+02  0.10000003788E+02 0.  0.
    3000022    2    5    5    0    0 -0.10601225756E+02 -0.11491010194E+02  0.15321501519E+02  0.21891555714E+02  0.24999995844E+00 0.  0.
        -13    1    4    4    0    0  0.27193192417E+01  0.42194846159E+01 -0.16407254864E+01  0.52822109655E+01  0.10500000000E+00 0.  1.
         13    1    4    4    0    0  0.48820270754E+01  0.76813206795E+01 -0.31335578372E+01  0.96263744715E+01  0.10500000000E+00 0. -1.
    3000001    1    5    5    0    0 -0.25252418685E+02 -0.26638913640E+02  0.17341553788E+02  0.40608445638E+02  0.10000000000E+01 0.  1.
        -13    1    6    6    0    0 -0.61845309482E+01 -0.67974956293E+01  0.89941636133E+01  0.12859252466E+02  0.10500000000E+00 0. -1.
         13    1    6    6    0    0 -0.44166948081E+01 -0.46935145643E+01  0.63273379057E+01  0.90323032481E+01  0.10500000000E+00 0.  1.
</event>
<event>
11    0  0.3443539E-009  0.9118800E+02  0.7816531E-02  0.1126479E+00
         25   -1    0    0    0    0  0.00000000000E+00  0.00000000000E+00  0.99999998245E-14  0.12500000000E+03  0.12500000000E+03 0.  0.
    3000001    1    3    3    0    0 -0.14862538332E+02 -0.63542923294E+01  0.52872698048E+02  0.55297326116E+02  0.10000000000E+01 0. -1.
    1000022    2    1    0    0    0 -0.18386364660E+02 -0.41392496298E+01  0.58745707747E+02  0.62499999705E+02  0.99999995775E+01 0.  0.
    3000022    2    3    3    0    0 -0.35238263282E+01  0.22150426996E+01  0.58730096986E+01  0.72026735891E+01  0.24999551880E+00 0.  0.
    1000022    2    1    0    0    0  0.18386364660E+02  0.41392496298E+01 -0.58745707747E+02  0.62500000295E+02  0.10000003265E+02 0.  0.
    3000022    2    5    5    0    0  0.12577504329E+02  0.73947427886E+01 -0.41042573777E+02  0.43559513332E+02  0.25000680310E+00 0.  0.
        -13    1    4    4    0    0 -0.14422097074E+01  0.97313305711E+00  0.25100675790E+01  0.30558830210E+01  0.10500000000E+00 0. -1.
         13    1    4    4    0    0 -0.20816166208E+01  0.12419096425E+01  0.33629421195E+01  0.41467905681E+01  0.10500000000E+00 0.  1.
    3000001    1    5    5    0    0  0.58088603305E+01 -0.32554931589E+01 -0.17703133969E+02  0.18940486963E+02  0.10000000000E+01 0. -1.
        -13    1    6    6    0    0  0.88158803058E+01  0.51553678551E+01 -0.28609006475E+02  0.30377357354E+02  0.10500000000E+00 0. -1.
         13    1    6    6    0    0  0.37616240236E+01  0.22393749335E+01 -0.12433567302E+02  0.13182155978E+02  0.10500000000E+00 0.  1.
</event>
<event>
11    0  0.3443539E-009  0.9118800E+02  0.7816531E-02  0.1126479E+00
         25   -1    0    0    0    0  0.00000000000E+00  0.00000000000E+00  0.99999998245E-14  0.12500000000E+03  0.12500000000E+03 0.  0.
    3000001    1    3    3    0    0  0.20091237136E+02  0.22207566686E+02  0.96918670706E+00  0.29979545538E+02  0.10000000000E+01 0.  1.
    1000022    2    1    0    0    0  0.39570195822E+02  0.46650821763E+02 -0.80093953950E+01  0.62500000720E+02  0.10000005342E+02 0.  0.
    3000022    2    3    3    0    0  0.19478958686E+02  0.24443255077E+02 -0.89785821021E+01  0.32520455182E+02  0.25003689542E+00 0.  0.
    1000022    2    1    0    0    0 -0.39570195822E+02 -0.46650821763E+02  0.80093953950E+01  0.62499999280E+02  0.99999963451E+01 0.  0.
    3000022    2    5    5    0    0 -0.17468080011E+02 -0.14315316457E+02  0.41029033109E+00  0.22589664472E+02  0.24999657956E+00 0.  0.
        -13    1    4    4    0    0  0.14694315988E+02  0.18465932785E+02 -0.67621926975E+01  0.24548968839E+02  0.10500000000E+00 0.  1.
         13    1    4    4    0    0  0.47846426987E+01  0.59773222916E+01 -0.22163894046E+01  0.79714863435E+01  0.10500000000E+00 0. -1.
    3000001    1    5    5    0    0 -0.22102115812E+02 -0.32335505306E+02  0.75991050639E+01  0.39910334808E+02  0.10000000000E+01 0.  1.
        -13    1    6    6    0    0 -0.92787948243E+01 -0.75187626422E+01  0.20309661320E+00  0.11944877492E+02  0.10500000000E+00 0. -1.
         13    1    6    6    0    0 -0.81892851864E+01 -0.67965538149E+01  0.20719371789E+00  0.10644786980E+02  0.10500000000E+00 0.  1.
</event>
<event>
11    0  0.3443539E-009  0.9118800E+02  0.7816531E-02  0.1126479E+00
         25   -1    0    0    0    0  0.00000000000E+00  0.00000000000E+00  0.99999998245E-14  0.12500000000E+03  0.12500000000E+03 0.  0.
    3000001    1    3    3    0    0  0.46907492125E+01  0.91171622243E+01  0.31527918036E+02  0.33168288935E+02  0.10000000000E+01 0. -1.
    1000022    2    1    0    0    0  0.65941816466E+01  0.82511572235E+01  0.60783921166E+02  0.62499999349E+02  0.10000000958E+02 0.  0.
    3000022    2    3    3    0    0  0.19034324341E+01 -0.86600500086E+00  0.29256003130E+02  0.29331710414E+02  0.24999390750E+00 0.  0.
    1000022    2    1    0    0    0 -0.65941816466E+01 -0.82511572235E+01 -0.60783921166E+02  0.62500000651E+02  0.10000009101E+02 0.  0.
    3000022    2    5    5    0    0 -0.10620448189E+01  0.21753326534E+01 -0.65489811789E+01  0.69865343174E+01  0.24999187104E+00 0.  0.
        -13    1    4    4    0    0  0.14403611736E+01 -0.64539939073E+00  0.22293272224E+02  0.22349321962E+02  0.10500000000E+00 0.  1.
         13    1    4    4    0    0  0.46307126057E+00 -0.22060561013E+00  0.69627309058E+01  0.69823884520E+01  0.10500000000E+00 0. -1.
    3000001    1    5    5    0    0 -0.55321368278E+01 -0.10426489877E+02 -0.54234939987E+02  0.55513466334E+02  0.10000000000E+01 0.  1.
        -13    1    6    6    0    0 -0.73665525722E+00  0.14662178241E+01 -0.45640781199E+01  0.48512152870E+01  0.10500000000E+00 0.  1.
         13    1    6    6    0    0 -0.32538956164E+00  0.70911482934E+00 -0.19849030590E+01  0.21353190304E+01  0.10500000000E+00 0. -1.
</event>
<event>
11    0  0.3443539E-009  0.9118800E+02  0.7816531E-02  0.1126479E+00
         25   -1    0    0    0    0  0.00000000000E+00  0.00000000000E+00  0.99999998245E-14  0.12500000000E+03  0.12500000000E+03 0.  0.
    3000001    1    3    3    0    0  0.43646372482E+02 -0.27639462585E+02  0.51073515166E+01  0.51923316172E+02  0.10000000000E+01 0.  1.
    1000022    2    1    0    0    0  0.49543738769E+02 -0.35817879406E+02  0.82914197676E+01  0.62499998475E+02  0.99999815627E+01 0.  0.
    3000022    2    3    3    0    0  0.58973662877E+01 -0.81784168202E+01  0.31840682510E+01  0.10576682303E+02  0.24997417617E+00 0.  0.
    1000022    2    1    0    0    0 -0.49543738769E+02  0.35817879406E+02 -0.82914197676E+01  0.62500001525E+02  0.10000000624E+02 0.  0.
    3000022    2    5    5    0    0 -0.47178652025E+02  0.34885206997E+02 -0.60893438286E+01  0.58991062715E+02  0.24999571627E+00 0.  0.
        -13    1    4    4    0    0  0.38723490030E+01 -0.52852676521E+01  0.20970593910E+01  0.68802488360E+01  0.10500000000E+00 0. -1.
         13    1    4    4    0    0  0.20250172847E+01 -0.28931491682E+01  0.10870088599E+01  0.36964334667E+01  0.10500000000E+00 0.  1.
    3000001    1    5    5    0    0 -0.23650867446E+01  0.93267240820E+00 -0.22020759390E+01  0.35089388099E+01  0.10000000000E+01 0. -1.
        -13    1    6    6    0    0 -0.16380354252E+02  0.12178274957E+02 -0.21363230826E+01  0.20523189023E+02  0.10500000000E+00 0.  1.
         13    1    6    6    0    0 -0.30798297773E+02  0.22706932040E+02 -0.39530207460E+01  0.38467873692E+02  0.10500000000E+00 0. -1.
</event>
<event>
11    0  0.3443539E-009  0.9118800E+02  0.7816531E-02  0.1126479E+00
         25   -1    0    0    0    0  0.00000000000E+00  0.00000000000E+00  0.99999998245E-14  0.12500000000E+03  0.12500000000E+03 0.  0.
    3000001    1    3    3    0    0  0.26587728232E+02 -0.30975283141E+02  0.46366355673E+02  0.61783609450E+02  0.10000000000E+01 0. -1.
    1000022    2    1    0    0    0  0.25971068663E+02 -0.31231209901E+02  0.46436678643E+02  0.62499999019E+02  0.99999937313E+01 0.  0.
    3000022    2    3    3    0    0 -0.61665956948E+00 -0.25592676053E+00  0.70322969927E-01  0.71638956976E+00  0.25000232835E+00 0.  0.
    1000022    2    1    0    0    0 -0.25971068663E+02  0.31231209901E+02 -0.46436678643E+02  0.62500000981E+02  0.10000005989E+02 0.  0.
    3000022    2    5    5    0    0 -0.15731300831E+02  0.17581885879E+02 -0.19553409873E+02  0.30643023232E+02  0.24999644945E+00 0.  0.
        -13    1    4    4    0    0 -0.29580848380E+00 -0.52202298582E-01  0.19110635608E-01  0.31877571341E+00  0.10500000000E+00 0.  1.
         13    1    4    4    0    0 -0.32085108567E+00 -0.20372446195E+00  0.51212334319E-01  0.39761385635E+00  0.10500000000E+00 0. -1.
    3000001    1    5    5    0    0 -0.10239767832E+02  0.13649324022E+02 -0.26883268770E+02  0.31856977749E+02  0.10000000000E+01 0. -1.
        -13    1    6    6    0    0 -0.65081765167E+01  0.71848503821E+01 -0.80661566835E+01  0.12611595665E+02  0.10500000000E+00 0. -1.
         13    1    6    6    0    0 -0.92231243140E+01  0.10397035497E+02 -0.11487253190E+02  0.18031427567E+02  0.10500000000E+00 0.  1.
</event>
<event>
11    0  0.3443539E-009  0.9118800E+02  0.7816531E-02  0.1126479E+00
         25   -1    0    0    0    0  0.00000000000E+00  0.00000000000E+00  0.99999998245E-14  0.12500000000E+03  0.12500000000E+03 0.  0.
    3000001    1    3    3    0    0 -0.17164239995E+01  0.15665670270E+01  0.37779851762E+01  0.45468027874E+01  0.10000000000E+01 0. -1.
    1000022    2    1    0    0    0  0.17372319077E+01  0.41851846731E+02  0.45295199004E+02  0.62499999802E+02  0.99999936473E+01 0.  0.
    3000022    2    3    3    0    0  0.34536559073E+01  0.40285279704E+02  0.41517213828E+02  0.57953197015E+02  0.25000046507E+00 0.  0.
    1000022    2    1    0    0    0 -0.17372319077E+01 -0.41851846731E+02 -0.45295199004E+02  0.62500000198E+02  0.99999961199E+01 0.  0.
    3000022    2    5    5    0    0  0.74845037545E+00 -0.37877442366E+02 -0.37222554344E+02  0.53111597869E+02  0.24991636220E+00 0.  0.
        -13    1    4    4    0    0  0.25481289858E+01  0.29990789912E+02  0.30878992234E+02  0.43121498434E+02  0.10500000000E+00 0.  1.
         13    1    4    4    0    0  0.90552692147E+00  0.10294489792E+02  0.10638221595E+02  0.14831698581E+02  0.10500000000E+00 0. -1.
    3000001    1    5    5    0    0 -0.24856822832E+01 -0.39744043648E+01 -0.80726446605E+01  0.93884023285E+01  0.10000000000E+01 0. -1.
        -13    1    6    6    0    0  0.52971950386E+00 -0.27277915879E+02 -0.26751891304E+02  0.38210469911E+02  0.10500000000E+00 0.  1.
         13    1    6    6    0    0  0.21873087159E+00 -0.10599526487E+02 -0.10470663040E+02  0.14901127959E+02  0.10500000000E+00 0. -1.
</event>
<event>
11    0  0.3443539E-009  0.9118800E+02  0.7816531E-02  0.1126479E+00
         25   -1    0    0    0    0  0.00000000000E+00  0.00000000000E+00  0.99999998245E-14  0.12500000000E+03  0.12500000000E+03 0.  0.
    3000001    1    3    3    0    0  0.13271298423E+01  0.33316272550E+00 -0.58051289365E+00  0.17914425024E+01  0.10000000000E+01 0.  1.
    1000022    2    1    0    0    0  0.54060253310E+02  0.14478231522E+02  0.25963815079E+02  0.62500001158E+02  0.10000013766E+02 0.  0.
    3000022    2    3    3    0    0  0.52733123468E+02  0.14145068796E+02  0.26544327973E+02  0.60708558655E+02  0.24992913173E+00 0.  0.
    1000022    2    1    0    0    0 -0.54060253310E+02 -0.14478231522E+02 -0.25963815079E+02  0.62499998842E+02  0.99999992930E+01 0.  0.
    3000022    2    5    5    0    0 -0.48185401284E+02 -0.10516152376E+02 -0.24951124002E+02  0.55272447341E+02  0.24997679617E+00 0.  0.
        -13    1    4    4    0    0  0.28813188763E+02  0.77979040571E+01  0.14510898213E+02  0.33190124229E+02  0.10500000000E+00 0.  1.
         13    1    4    4    0    0  0.23919934704E+02  0.63471647393E+01  0.12033429759E+02  0.27518434426E+02  0.10500000000E+00 0. -1.
    3000001    1    5    5    0    0 -0.58748520263E+01 -0.39620791456E+01 -0.10126910769E+01  0.72275515013E+01  0.10000000000E+01 0. -1.
        -13    1    6    6    0    0 -0.15883353793E+02 -0.35188187617E+01 -0.82449805679E+01  0.18238797733E+02  0.10500000000E+00 0.  1.
         13    1    6    6    0    0 -0.32302047491E+02 -0.69973336146E+01 -0.16706143434E+02  0.37033649608E+02  0.10500000000E+00 0. -1.
</event>
<event>
11    0  0.3443539E-009  0.9118800E+02  0.7816531E-02  0.1126479E+00
         25   -1    0    0    0    0  0.00000000000E+00  0.00000000000E+00  0.99999998245E-14  0.12500000000E+03  0.12500000000E+03 0.  0.
    3000001    1    3    3    0    0  0.13826060103E+02 -0.50105888040E+01  0.15871856760E+02  0.21660604219E+02  0.10000000000E+01 0. -1.
    1000022    2    1    0    0    0  0.30405392409E+02 -0.23813573739E+02  0.48111077084E+02  0.62500001082E+02  0.10000010762E+02 0.  0.
    3000022    2    3    3    0    0  0.16579332306E+02 -0.18802984935E+02  0.32239220324E+02  0.40839396862E+02  0.25001359425E+00 0.  0.
    1000022    2    1    0    0    0 -0.30405392409E+02  0.23813573739E+02 -0.48111077084E+02  0.62499998918E+02  0.99999972416E+01 0.  0.
    3000022    2    5    5    0    0 -0.26029498576E+02  0.18177552759E+02 -0.33189723524E+02  0.45930147640E+02  0.24998840841E+00 0.  0.
        -13    1    4    4    0    0  0.98840168364E+01 -0.11267426290E+02  0.19193113166E+02  0.24352316153E+02  0.10500000000E+00 0.  1.
         13    1    4    4    0    0  0.66953154701E+01 -0.75355586448E+01  0.13046107158E+02  0.16487080709E+02  0.10500000000E+00 0. -1.
    3000001    1    5    5    0    0 -0.43758938332E+01  0.56360209794E+01 -0.14921353560E+02  0.16569851278E+02  0.10000000000E+01 0. -1.
        -13    1    6    6    0    0 -0.12696264753E+02  0.89451412976E+01 -0.16265582432E+02  0.22489795205E+02  0.10500000000E+00 0.  1.
         13    1    6    6    0    0 -0.13333233823E+02  0.92324114616E+01 -0.16924141092E+02  0.23440352435E+02  0.10500000000E+00 0. -1.
</event>
<event>
11    0  0.3443539E-009  0.9118800E+02  0.7816531E-02  0.1126479E+00
         25   -1    0    0    0    0  0.00000000000E+00  0.00000000000E+00  0.99999998245E-14  0.12500000000E+03  0.12500000000E+03 0.  0.
    3000001    1    3    3    0    0  0.20135833280E+02 -0.16412674842E+02  0.23551580814E+02  0.35078549516E+02  0.10000000000E+01 0. -1.
    1000022    2    1    0    0    0  0.34642633107E+02 -0.35847093919E+02  0.36347266974E+02  0.62500000665E+02  0.10000004784E+02 0.  0.
    3000022    2    3    3    0    0  0.14506799827E+02 -0.19434419077E+02  0.12795686160E+02  0.27421451149E+02  0.25002545861E+00 0.  0.
    1000022    2    1    0    0    0 -0.34642633107E+02  0.35847093919E+02 -0.36347266974E+02  0.62499999335E+02  0.99999964675E+01 0.  0.
    3000022    2    5    5    0    0 -0.36042470560E+01  0.83238406285E+01 -0.41510651723E+01  0.99785152469E+01  0.25000963663E+00 0.  0.
        -13    1    4    4    0    0  0.58528975847E+01 -0.79126673574E+01  0.52461263233E+01  0.11153456022E+02  0.10500000000E+00 0.  1.
         13    1    4    4    0    0  0.86539022427E+01 -0.11521751719E+02  0.75495598366E+01  0.16267995127E+02  0.10500000000E+00 0. -1.
    3000001    1    5    5    0    0 -0.31038386051E+02  0.27523253291E+02 -0.32196201801E+02  0.52521484088E+02  0.10000000000E+01 0.  1.
        -13    1    6    6    0    0 -0.14791132744E+01  0.33397485998E+01 -0.16106680048E+01  0.39933661502E+01  0.10500000000E+00 0.  1.
         13    1    6    6    0    0 -0.21251337816E+01  0.49840920288E+01 -0.25403971675E+01  0.59851490967E+01  0.10500000000E+00 0. -1.
</event>
<event>
11    0  0.3443539E-009  0.9118800E+02  0.7816531E-02  0.1126479E+00
         25   -1    0    0    0    0  0.00000000000E+00  0.00000000000E+00  0.99999998245E-14  0.12500000000E+03  0.12500000000E+03 0.  0.
    3000001    1    3    3    0    0 -0.41492539959E+01 -0.72331244010E+01 -0.13542868057E+02  0.15935610203E+02  0.10000000000E+01 0. -1.
    1000022    2    1    0    0    0 -0.16044854509E+02 -0.12431874447E+02 -0.58260287445E+02  0.62500000124E+02  0.10000003192E+02 0.  0.
    3000022    2    3    3    0    0 -0.11895600513E+02 -0.51987500461E+01 -0.44717419388E+02  0.46564389922E+02  0.24999682355E+00 0.  0.
    1000022    2    1    0    0    0  0.16044854509E+02  0.12431874447E+02  0.58260287445E+02  0.62499999876E+02  0.10000001636E+02 0.  0.
    3000022    2    5    5    0    0  0.27738969098E+01  0.35584019156E+00  0.20215594171E+01  0.34598148386E+01  0.24997986440E+00 0.  0.
        -13    1    4    4    0    0 -0.37967518319E+01 -0.16447218834E+01 -0.14429996135E+02  0.15011870236E+02  0.10500000000E+00 0. -1.
         13    1    4    4    0    0 -0.80988486816E+01 -0.35540281627E+01 -0.30287423254E+02  0.31552519685E+02  0.10500000000E+00 0.  1.
    3000001    1    5    5    0    0  0.13270957600E+02  0.12076034256E+02  0.56238728028E+02  0.59040185037E+02  0.10000000000E+01 0.  1.
        -13    1    6    6    0    0  0.10925586072E+01  0.98093905396E-01  0.85101060079E+00  0.13923184863E+01  0.10500000000E+00 0.  1.
         13    1    6    6    0    0  0.16813383025E+01  0.25774628616E+00  0.11705488163E+01  0.20674963523E+01  0.10500000000E+00 0. -1.
</event>
<event>
11    0  0.3443539E-009  0.9118800E+02  0.7816531E-02  0.1126479E+00
         25   -1    0    0    0    0  0.00000000000E+00  0.00000000000E+00  0.99999998245E-14  0.12500000000E+03  0.12500000000E+03 0.  0.
    3000001    1    3    3    0    0  0.17871011506E+02 -0.52421348688E+02 -0.14192450507E+02  0.57182134464E+02  0.10000000000E+01 0.  1.
    1000022    2    1    0    0    0  0.16700727295E+02 -0.57593541097E+02 -0.14502408109E+02  0.62500001619E+02  0.10000004652E+02 0.  0.
    3000022    2    3    3    0    0 -0.11702842106E+01 -0.51721924096E+01 -0.30995760214E+00  0.53178671545E+01  0.24999580370E+00 0.  0.
    1000022    2    1    0    0    0 -0.16700727295E+02  0.57593541097E+02  0.14502408109E+02  0.62499998381E+02  0.99999844208E+01 0.  0.
    3000022    2    5    5    0    0 -0.58400942909E+01  0.24266745696E+02  0.11808575574E+01  0.24988768729E+02  0.24998000102E+00 0.  0.
        -13    1    4    4    0    0 -0.60030662156E+00 -0.29122626780E+01 -0.20694447870E+00  0.29825313012E+01  0.10500000000E+00 0. -1.
         13    1    4    4    0    0 -0.56997758906E+00 -0.22599297316E+01 -0.10301312344E+00  0.23353358533E+01  0.10500000000E+00 0.  1.
    3000001    1    5    5    0    0 -0.10860633004E+02  0.33326795401E+02  0.13321550551E+02  0.37511229653E+02  0.10000000000E+01 0.  1.
        -13    1    6    6    0    0 -0.17825065833E+01  0.72339080892E+01  0.33182775177E+00  0.74584107301E+01  0.10500000000E+00 0.  1.
         13    1    6    6    0    0 -0.40575877076E+01  0.17032837607E+02  0.84902980560E+00  0.17530357999E+02  0.10500000000E+00 0. -1.
</event>
<event>
11    0  0.3443539E-009  0.9118800E+02  0.7816531E-02  0.1126479E+00
         25   -1    0    0    0    0  0.00000000000E+00  0.00000000000E+00  0.99999998245E-14  0.12500000000E+03  0.12500000000E+03 0.  0.
    3000001    1    3    3    0    0 -0.39114421064E+02 -0.24199184810E+02  0.66110598690E+01  0.46478431484E+02  0.10000000000E+01 0. -1.
    1000022    2    1    0    0    0 -0.52609964546E+02 -0.29189450427E+02  0.13653484619E+02  0.62500001045E+02  0.10000005131E+02 0.  0.
    3000022    2    3    3    0    0 -0.13495543483E+02 -0.49902656170E+01  0.70424247497E+01  0.16021569561E+02  0.25000006582E+00 0.  0.
    1000022    2    1    0    0    0  0.52609964546E+02  0.29189450427E+02 -0.13653484619E+02  0.62499998955E+02  0.99999920660E+01 0.  0.
    3000022    2    5    5    0    0  0.20140085439E+02  0.16432085784E+02 -0.40999028345E+01  0.26315550268E+02  0.24999587570E+00 0.  0.
        -13    1    4    4    0    0 -0.66248206288E+01 -0.24571881088E+01  0.35334064350E+01  0.79007599508E+01  0.10500000000E+00 0.  1.
         13    1    4    4    0    0 -0.68707228538E+01 -0.25330775082E+01  0.35090183147E+01  0.81208096104E+01  0.10500000000E+00 0. -1.
    3000001    1    5    5    0    0  0.32469879107E+02  0.12757364643E+02 -0.95535817843E+01  0.36184448687E+02  0.10000000000E+01 0. -1.
        -13    1    6    6    0    0  0.15157578266E+02  0.12359353921E+02 -0.31092194236E+01  0.19803638016E+02  0.10500000000E+00 0. -1.
         13    1    6    6    0    0  0.49825071731E+01  0.40727318631E+01 -0.99068341089E+00  0.65119122521E+01  0.10500000000E+00 0.  1.
</event>
<event>
11    0  0.3443539E-009  0.9118800E+02  0.7816531E-02  0.1126479E+00
         25   -1    0    0    0    0  0.00000000000E+00  0.00000000000E+00  0.99999998245E-14  0.12500000000E+03  0.12500000000E+03 0.  0.
    3000001    1    3    3    0    0 -0.35067120414E+01  0.71609565334E+01  0.34678224703E+02  0.35597129047E+02  0.10000000000E+01 0.  1.
    1000022    2    1    0    0    0 -0.10249908096E+02  0.19423648783E+02  0.57653375289E+02  0.62499997974E+02  0.99999658238E+01 0.  0.
    3000022    2    3    3    0    0 -0.67431960545E+01  0.12262692249E+02  0.22975150586E+02  0.26902868927E+02  0.24999563673E+00 0.  0.
    1000022    2    1    0    0    0  0.10249908096E+02 -0.19423648783E+02 -0.57653375289E+02  0.62500002026E+02  0.99999911479E+01 0.  0.
    3000022    2    5    5    0    0  0.82365557836E+01 -0.19467199766E+02 -0.55488078589E+02  0.59378464901E+02  0.25002115780E+00 0.  0.
        -13    1    4    4    0    0 -0.45648968417E+01  0.83133428328E+01  0.15667101857E+02  0.18314449428E+02  0.10500000000E+00 0.  1.
         13    1    4    4    0    0 -0.21782992128E+01  0.39493494166E+01  0.73080487289E+01  0.85884194995E+01  0.10500000000E+00 0. -1.
    3000001    1    5    5    0    0  0.20133523122E+01  0.43550983469E-01 -0.21652967005E+01  0.31215371250E+01  0.10000000000E+01 0.  1.
        -13    1    6    6    0    0  0.50744990617E+01 -0.12148078487E+02 -0.34540926101E+02  0.36965023368E+02  0.10500000000E+00 0.  1.
         13    1    6    6    0    0  0.31620567219E+01 -0.73191212788E+01 -0.20947152488E+02  0.22413441533E+02  0.10500000000E+00 0. -1.
</event>
<event>
11    0  0.3443539E-009  0.9118800E+02  0.7816531E-02  0.1126479E+00
         25   -1    0    0    0    0  0.00000000000E+00  0.00000000000E+00  0.99999998245E-14  0.12500000000E+03  0.12500000000E+03 0.  0.
    3000001    1    3    3    0    0 -0.31401188035E+02 -0.27572173863E+02  0.33168227461E+02  0.53360947279E+02  0.10000000000E+01 0. -1.
    1000022    2    1    0    0    0 -0.33129989190E+02 -0.34119896646E+02  0.39299966076E+02  0.62499992342E+02  0.99999089194E+01 0.  0.
    3000022    2    3    3    0    0 -0.17288011542E+01 -0.65477227838E+01  0.61317386143E+01  0.91390450638E+01  0.24999832055E+00 0.  0.
    1000022    2    1    0    0    0  0.33129989190E+02  0.34119896646E+02 -0.39299966076E+02  0.62500007658E+02  0.10000004640E+02 0.  0.
    3000022    2    5    5    0    0  0.48507290698E+01  0.28524574647E+01 -0.14074561093E+01  0.58059901826E+01  0.25000640951E+00 0.  0.
        -13    1    4    4    0    0 -0.10115891234E+01 -0.39174994939E+01  0.35824956753E+01  0.54051285926E+01  0.10500000000E+00 0. -1.
         13    1    4    4    0    0 -0.71721203079E+00 -0.26302232899E+01  0.25492429390E+01  0.37339164712E+01  0.10500000000E+00 0.  1.
    3000001    1    5    5    0    0  0.28279260120E+02  0.31267439182E+02 -0.37892509966E+02  0.56694017475E+02  0.10000000000E+01 0. -1.
        -13    1    6    6    0    0  0.27739138280E+01  0.16033652101E+01 -0.86405341163E+00  0.33200890380E+01  0.10500000000E+00 0. -1.
         13    1    6    6    0    0  0.20768152418E+01  0.12490922546E+01 -0.54340269771E+00  0.24859011447E+01  0.10500000000E+00 0.  1.
</event>
<event>
11    0  0.3443539E-009  0.9118800E+02  0.7816531E-02  0.1126479E+00
         25   -1    0    0    0    0  0.00000000000E+00  0.00000000000E+00  0.99999998245E-14  0.12500000000E+03  0.12500000000E+03 0.  0.
    3000001    1    3    3    0    0  0.22744149286E+02  0.26712056891E+02  0.37883517701E+02  0.51642920361E+02  0.10000000000E+01 0.  1.
    1000022    2    1    0    0    0  0.25635464174E+02  0.35629675160E+02  0.43354348561E+02  0.62499996587E+02  0.99999629370E+01 0.  0.
    3000022    2    3    3    0    0  0.28913148881E+01  0.89176182698E+01  0.54708308606E+01  0.10857076226E+02  0.24999295256E+00 0.  0.
    1000022    2    1    0    0    0 -0.25635464174E+02 -0.35629675160E+02 -0.43354348561E+02  0.62500003413E+02  0.10000005603E+02 0.  0.
    3000022    2    5    5    0    0 -0.18057370084E+02 -0.26136197033E+02 -0.24807926113E+02  0.40307134680E+02  0.24999675340E+00 0.  0.
        -13    1    4    4    0    0  0.77489426640E+00  0.24340094726E+01  0.14517465440E+01  0.29399755552E+01  0.10500000000E+00 0. -1.
         13    1    4    4    0    0  0.21164206218E+01  0.64836087971E+01  0.40190843166E+01  0.79171006705E+01  0.10500000000E+00 0.  1.
    3000001    1    5    5    0    0 -0.75780940896E+01 -0.94934781271E+01 -0.18546422448E+02  0.22192868733E+02  0.10000000000E+01 0.  1.
        -13    1    6    6    0    0 -0.65456635343E+01 -0.95230893523E+01 -0.90898437382E+01  0.14702762533E+02  0.10500000000E+00 0. -1.
         13    1    6    6    0    0 -0.11511706550E+02 -0.16613107681E+02 -0.15718082375E+02  0.25604372147E+02  0.10500000000E+00 0.  1.
</event>
<event>
11    0  0.3443539E-009  0.9118800E+02  0.7816531E-02  0.1126479E+00
         25   -1    0    0    0    0  0.00000000000E+00  0.00000000000E+00  0.99999998245E-14  0.12500000000E+03  0.12500000000E+03 0.  0.
    3000001    1    3    3    0    0 -0.31534455326E+02 -0.11774960108E+02  0.13241708918E+02  0.36185831665E+02  0.10000000000E+01 0. -1.
    1000022    2    1    0    0    0 -0.49223988106E+02 -0.25287993671E+02  0.27272079691E+02  0.62499999893E+02  0.10000001347E+02 0.  0.
    3000022    2    3    3    0    0 -0.17689532780E+02 -0.13513033563E+02  0.14030370773E+02  0.26314168228E+02  0.24999882609E+00 0.  0.
    1000022    2    1    0    0    0  0.49223988106E+02  0.25287993671E+02 -0.27272079691E+02  0.62500000107E+02  0.10000002684E+02 0.  0.
    3000022    2    5    5    0    0  0.41946662342E+02  0.20825191760E+02 -0.26645972774E+02  0.53882107032E+02  0.24999933417E+00 0.  0.
        -13    1    4    4    0    0 -0.78460394204E+01 -0.59144463457E+01  0.61683696754E+01  0.11601759333E+02  0.10500000000E+00 0. -1.
         13    1    4    4    0    0 -0.98434933600E+01 -0.75985872175E+01  0.78620010978E+01  0.14712408895E+02  0.10500000000E+00 0.  1.
    3000001    1    5    5    0    0  0.72773257646E+01  0.44628019114E+01 -0.62610691732E+00  0.86178930753E+01  0.10000000000E+01 0.  1.
        -13    1    6    6    0    0  0.30920522054E+02  0.15371116660E+02 -0.19615024462E+02  0.39712845795E+02  0.10500000000E+00 0.  1.
         13    1    6    6    0    0  0.11026140288E+02  0.54540750998E+01 -0.70309483117E+01  0.14169261237E+02  0.10500000000E+00 0. -1.
</event>
<event>
11    0  0.3443539E-009  0.9118800E+02  0.7816531E-02  0.1126479E+00
         25   -1    0    0    0    0  0.00000000000E+00  0.00000000000E+00  0.99999998245E-14  0.12500000000E+03  0.12500000000E+03 0.  0.
    3000001    1    3    3    0    0  0.24758203634E+02  0.31986720331E+02  0.18096288288E+02  0.44323747298E+02  0.10000000000E+01 0. -1.
    1000022    2    1    0    0    0  0.38784806408E+02  0.40131013127E+02  0.26296202249E+02  0.62500000574E+02  0.10000019817E+02 0.  0.
    3000022    2    3    3    0    0  0.14026602774E+02  0.81442927955E+01  0.81999139603E+01  0.18176253276E+02  0.25000734139E+00 0.  0.
    1000022    2    1    0    0    0 -0.38784806408E+02 -0.40131013127E+02 -0.26296202249E+02  0.62499999426E+02  0.10000012644E+02 0.  0.
    3000022    2    5    5    0    0 -0.11402508018E+02 -0.16234015121E+02 -0.13319258215E+02  0.23896141390E+02  0.24999577203E+00 0.  0.
        -13    1    4    4    0    0  0.66395128100E+01  0.39254202164E+01  0.38663495791E+01  0.86285420725E+01  0.10500000000E+00 0. -1.
         13    1    4    4    0    0  0.73870899637E+01  0.42188725791E+01  0.43335643813E+01  0.95477112031E+01  0.10500000000E+00 0.  1.
    3000001    1    5    5    0    0 -0.27382298391E+02 -0.23896998005E+02 -0.12976944034E+02  0.38603858036E+02  0.10000000000E+01 0. -1.
        -13    1    6    6    0    0 -0.76674571034E+01 -0.10825412166E+02 -0.89174776792E+01  0.15984738976E+02  0.10500000000E+00 0. -1.
         13    1    6    6    0    0 -0.37350509141E+01 -0.54086029558E+01 -0.44017805357E+01  0.79114024136E+01  0.10500000000E+00 0.  1.
</event>
<event>
11    0  0.3443539E-009  0.9118800E+02  0.7816531E-02  0.1126479E+00
         25   -1    0    0    0    0  0.00000000000E+00  0.00000000000E+00  0.99999998245E-14  0.12500000000E+03  0.12500000000E+03 0.  0.
    3000001    1    3    3    0    0 -0.58741174056E+02 -0.42417219261E+01 -0.31416873179E+01  0.58986336838E+02  0.10000000000E+01 0.  1.
    1000022    2    1    0    0    0 -0.61209023664E+02 -0.65145304116E+01 -0.41552876613E+01  0.62499999454E+02  0.99999915936E+01 0.  0.
    3000022    2    3    3    0    0 -0.24678496077E+01 -0.22728084854E+01 -0.10136003434E+01  0.35136626160E+01  0.24999845058E+00 0.  0.
    1000022    2    1    0    0    0  0.61209023664E+02  0.65145304116E+01  0.41552876613E+01  0.62500000546E+02  0.99999984128E+01 0.  0.
    3000022    2    5    5    0    0  0.24688531237E+02  0.39800077809E+01 -0.29926712799E+01  0.25186953376E+02  0.25000475950E+00 0.  0.
        -13    1    4    4    0    0 -0.69115210737E+00 -0.59836684783E+00 -0.25194683167E+00  0.95406306191E+00  0.10500000000E+00 0. -1.
         13    1    4    4    0    0 -0.17766975003E+01 -0.16744416376E+01 -0.76165351172E+00  0.25595995541E+01  0.10500000000E+00 0.  1.
    3000001    1    5    5    0    0  0.36520492427E+02  0.25345226306E+01  0.71479589412E+01  0.37313047170E+02  0.10000000000E+01 0.  1.
        -13    1    6    6    0    0  0.18349797847E+02  0.29276716539E+01 -0.22254566001E+01  0.18714967924E+02  0.10500000000E+00 0. -1.
         13    1    6    6    0    0  0.63387333905E+01  0.10523361270E+01 -0.76721467979E+00  0.64719854515E+01  0.10500000000E+00 0.  1.
</event>
<event>
11    0  0.3443539E-009  0.9118800E+02  0.7816531E-02  0.1126479E+00
         25   -1    0    0    0    0  0.00000000000E+00  0.00000000000E+00  0.99999998245E-14  0.12500000000E+03  0.12500000000E+03 0.  0.
    3000001    1    3    3    0    0  0.23271268860E+02  0.13282414042E+02  0.16119175715E+02  0.31285816321E+02  0.10000000000E+01 0.  1.
    1000022    2    1    0    0    0  0.48132170292E+02  0.17090849123E+02  0.34604147539E+02  0.62500000296E+02  0.10000003462E+02 0.  0.
    3000022    2    3    3    0    0  0.24860901432E+02  0.38084350813E+01  0.18484971825E+02  0.31214183975E+02  0.25000013761E+00 0.  0.
    1000022    2    1    0    0    0 -0.48132170292E+02 -0.17090849123E+02 -0.34604147539E+02  0.62499999704E+02  0.99999997658E+01 0.  0.
    3000022    2    5    5    0    0 -0.17505228313E+02 -0.56809219059E+01 -0.69456783897E+01  0.19672591076E+02  0.24999872412E+00 0.  0.
        -13    1    4    4    0    0  0.67131843933E+01  0.99883243455E+00  0.50145418152E+01  0.84392633297E+01  0.10500000000E+00 0. -1.
         13    1    4    4    0    0  0.18147717039E+02  0.28096026467E+01  0.13470430009E+02  0.22774920645E+02  0.10500000000E+00 0.  1.
    3000001    1    5    5    0    0 -0.30626941979E+02 -0.11409927218E+02 -0.27658469150E+02  0.42827408628E+02  0.10000000000E+01 0. -1.
        -13    1    6    6    0    0 -0.48429064520E+01 -0.15962368811E+01 -0.19576061617E+01  0.54630542709E+01  0.10500000000E+00 0. -1.
         13    1    6    6    0    0 -0.12662321861E+02 -0.40846850248E+01 -0.49880722280E+01  0.14209536805E+02  0.10500000000E+00 0.  1.
</event>
<event>
11    0  0.3443539E-009  0.9118800E+02  0.7816531E-02  0.1126479E+00
         25   -1    0    0    0    0  0.00000000000E+00  0.00000000000E+00  0.99999998245E-14  0.12500000000E+03  0.12500000000E+03 0.  0.
    3000001    1    3    3    0    0  0.16193276882E+02 -0.58976800715E+00  0.10567027827E+02  0.19370909105E+02  0.10000000000E+01 0.  1.
    1000022    2    1    0    0    0  0.42462784703E+02 -0.55038709950E+01  0.44416997585E+02  0.62499999051E+02  0.99999763164E+01 0.  0.
    3000022    2    3    3    0    0  0.26269507821E+02 -0.49141029879E+01  0.33849969758E+02  0.43129089946E+02  0.24999525869E+00 0.  0.
    1000022    2    1    0    0    0 -0.42462784703E+02  0.55038709950E+01 -0.44416997585E+02  0.62500000949E+02  0.99999881743E+01 0.  0.
    3000022    2    5    5    0    0 -0.17737321939E+02  0.15823206480E+01 -0.11770874856E+02  0.21347888060E+02  0.25000304948E+00 0.  0.
        -13    1    4    4    0    0  0.11565426633E+02 -0.22078625492E+01  0.14833019028E+02  0.18938406183E+02  0.10500000000E+00 0. -1.
         13    1    4    4    0    0  0.14704081187E+02 -0.27062404387E+01  0.19016950730E+02  0.24190683763E+02  0.10500000000E+00 0.  1.
    3000001    1    5    5    0    0 -0.24725462764E+02  0.39215503470E+01 -0.32646122729E+02  0.41152112889E+02  0.10000000000E+01 0.  1.
        -13    1    6    6    0    0 -0.55928311918E+01  0.54473122958E+00 -0.37384023242E+01  0.67500496139E+01  0.10500000000E+00 0. -1.
         13    1    6    6    0    0 -0.12144490747E+02  0.10375894184E+01 -0.80324725317E+01  0.14597838446E+02  0.10500000000E+00 0.  1.
</event>
<event>
11    0  0.3443539E-009  0.9118800E+02  0.7816531E-02  0.1126479E+00
         25   -1    0    0    0    0  0.00000000000E+00  0.00000000000E+00  0.99999998245E-14  0.12500000000E+03  0.12500000000E+03 0.  0.
    3000001    1    3    3    0    0  0.32325764954E+01  0.69038881457E+01  0.30144772197E+01  0.82583470038E+01  0.10000000000E+01 0. -1.
    1000022    2    1    0    0    0  0.93203641729E+01  0.45219930894E+02  0.40921129193E+02  0.62500001333E+02  0.10000000692E+02 0.  0.
    3000022    2    3    3    0    0  0.60877876774E+01  0.38316042748E+02  0.37906651973E+02  0.54241654329E+02  0.25001971682E+00 0.  0.
    1000022    2    1    0    0    0 -0.93203641729E+01 -0.45219930894E+02 -0.40921129193E+02  0.62499998667E+02  0.99999840327E+01 0.  0.
    3000022    2    5    5    0    0 -0.30376634222E+01 -0.79982804389E+01 -0.32343461489E+01  0.91500482690E+01  0.24999853773E+00 0.  0.
        -13    1    4    4    0    0  0.21357256694E+01  0.13678987553E+02  0.13588862136E+02  0.19399593392E+02  0.10500000000E+00 0. -1.
         13    1    4    4    0    0  0.39520620080E+01  0.24637055195E+02  0.24317789837E+02  0.34842060937E+02  0.10500000000E+00 0.  1.
    3000001    1    5    5    0    0 -0.62827007507E+01 -0.37221650455E+02 -0.37686783044E+02  0.53349950398E+02  0.10000000000E+01 0. -1.
        -13    1    6    6    0    0 -0.19389098583E+01 -0.49640026144E+01 -0.19780578929E+01  0.56854578903E+01  0.10500000000E+00 0. -1.
         13    1    6    6    0    0 -0.10987535639E+01 -0.30342778244E+01 -0.12562882560E+01  0.34645903787E+01  0.10500000000E+00 0.  1.
</event>
<event>
11    0  0.3443539E-009  0.9118800E+02  0.7816531E-02  0.1126479E+00
         25   -1    0    0    0    0  0.00000000000E+00  0.00000000000E+00  0.99999998245E-14  0.12500000000E+03  0.12500000000E+03 0.  0.
    3000001    1    3    3    0    0  0.11752962732E+02  0.18672221816E+02  0.53670592113E+02  0.58037198918E+02  0.10000000000E+01 0.  1.
    1000022    2    1    0    0    0  0.10293689880E+02  0.21253966336E+02  0.56996133692E+02  0.62500003207E+02  0.10000000428E+02 0.  0.
    3000022    2    3    3    0    0 -0.14592728516E+01  0.25817445209E+01  0.33255415792E+01  0.44628042882E+01  0.25002658511E+00 0.  0.
    1000022    2    1    0    0    0 -0.10293689880E+02 -0.21253966336E+02 -0.56996133692E+02  0.62499996793E+02  0.99999603453E+01 0.  0.
    3000022    2    5    5    0    0 -0.15564356266E+01 -0.17655969950E+01 -0.16849785311E+02  0.17015214285E+02  0.24985500872E+00 0.  0.
        -13    1    4    4    0    0 -0.95431934001E+00  0.17795180560E+01  0.22238880836E+01  0.30056801431E+01  0.10500000000E+00 0. -1.
         13    1    4    4    0    0 -0.50495351159E+00  0.80222646496E+00  0.11016534956E+01  0.14571241451E+01  0.10500000000E+00 0.  1.
    3000001    1    5    5    0    0 -0.87372542535E+01 -0.19488369341E+02 -0.40146348381E+02  0.45484782508E+02  0.10000000000E+01 0.  1.
        -13    1    6    6    0    0 -0.43999221806E+00 -0.56128343012E+00 -0.49760133389E+01  0.50279584316E+01  0.10500000000E+00 0. -1.
         13    1    6    6    0    0 -0.11164434086E+01 -0.12043135649E+01 -0.11873771972E+02  0.11987255853E+02  0.10500000000E+00 0.  1.
</event>
<event>
11    0  0.3443539E-009  0.9118800E+02  0.7816531E-02  0.1126479E+00
         25   -1    0    0    0    0  0.00000000000E+00  0.00000000000E+00  0.99999998245E-14  0.12500000000E+03  0.12500000000E+03 0.  0.
    3000001    1    3    3    0    0  0.87009428806E+01  0.62434833980E+00  0.99523357514E+01  0.13271970644E+02  0.10000000000E+01 0. -1.
    1000022    2    1    0    0    0  0.52220269757E+02 -0.23436066770E+01  0.32768903756E+02  0.62499999711E+02  0.99999922426E+01 0.  0.
    3000022    2    3    3    0    0  0.43519326876E+02 -0.29679550168E+01  0.22816568004E+02  0.49228029068E+02  0.25000330495E+00 0.  0.
    1000022    2    1    0    0    0 -0.52220269757E+02  0.23436066770E+01 -0.32768903756E+02  0.62500000289E+02  0.99999958490E+01 0.  0.
    3000022    2    5    5    0    0 -0.29795465484E+02 -0.34022268064E+01 -0.17012380443E+02  0.34479392230E+02  0.24997905104E+00 0.  0.
        -13    1    4    4    0    0  0.22124379518E+02 -0.15414885665E+01  0.11667759175E+02  0.25060167302E+02  0.10500000000E+00 0. -1.
         13    1    4    4    0    0  0.21394947358E+02 -0.14264664503E+01  0.11148808830E+02  0.24167861765E+02  0.10500000000E+00 0.  1.
    3000001    1    5    5    0    0 -0.22424804273E+02  0.57458334834E+01 -0.15756523313E+02  0.28020608059E+02  0.10000000000E+01 0.  1.
        -13    1    6    6    0    0 -0.10798525695E+02 -0.11897767741E+01 -0.61175661004E+01  0.12468334530E+02  0.10500000000E+00 0.  1.
         13    1    6    6    0    0 -0.18996939789E+02 -0.22124500322E+01 -0.10894814343E+02  0.22011057699E+02  0.10500000000E+00 0. -1.
</event>
<event>
11    0  0.3443539E-009  0.9118800E+02  0.7816531E-02  0.1126479E+00
         25   -1    0    0    0    0  0.00000000000E+00  0.00000000000E+00  0.99999998245E-14  0.12500000000E+03  0.12500000000E+03 0.  0.
    3000001    1    3    3    0    0  0.39475760694E+00 -0.70289030634E+01 -0.41284278084E+01  0.82222398416E+01  0.10000000000E+01 0.  1.
    1000022    2    1    0    0    0 -0.17251717509E+02 -0.42926280609E+02 -0.40816210055E+02  0.62500003792E+02  0.10000007337E+02 0.  0.
    3000022    2    3    3    0    0 -0.17646475116E+02 -0.35897377546E+02 -0.36687782247E+02  0.54277763950E+02  0.24998911190E+00 0.  0.
    1000022    2    1    0    0    0  0.17251717509E+02  0.42926280609E+02  0.40816210055E+02  0.62499996208E+02  0.99999599427E+01 0.  0.
    3000022    2    5    5    0    0  0.96162077912E+01  0.21326806223E+02  0.14200163503E+02  0.27368070038E+02  0.24999624235E+00 0.  0.
        -13    1    4    4    0    0 -0.13510867700E+02 -0.27513377085E+02 -0.28109973835E+02  0.41589795848E+02  0.10500000000E+00 0. -1.
         13    1    4    4    0    0 -0.41356074159E+01 -0.83840004604E+01 -0.85778084112E+01  0.12687968102E+02  0.10500000000E+00 0.  1.
    3000001    1    5    5    0    0  0.76355097181E+01  0.21599474386E+02  0.26616046552E+02  0.35131926170E+02  0.10000000000E+01 0. -1.
        -13    1    6    6    0    0  0.73115189291E+01  0.16243631130E+02  0.10828325722E+02  0.20846523074E+02  0.10500000000E+00 0.  1.
         13    1    6    6    0    0  0.23046888620E+01  0.50831750935E+01  0.33718377811E+01  0.65215469640E+01  0.10500000000E+00 0. -1.
</event>
<event>
11    0  0.3443539E-009  0.9118800E+02  0.7816531E-02  0.1126479E+00
         25   -1    0    0    0    0  0.00000000000E+00  0.00000000000E+00  0.99999998245E-14  0.12500000000E+03  0.12500000000E+03 0.  0.
    3000001    1    3    3    0    0  0.41404337546E+01  0.76192374184E+01 -0.91004439393E+01  0.12610077335E+02  0.10000000000E+01 0. -1.
    1000022    2    1    0    0    0  0.37283620801E+02  0.30779619543E+02 -0.38324882476E+02  0.62500000724E+02  0.10000005723E+02 0.  0.
    3000022    2    3    3    0    0  0.33143187046E+02  0.23160382125E+02 -0.29224438537E+02  0.49889923389E+02  0.25000035591E+00 0.  0.
    1000022    2    1    0    0    0 -0.37283620801E+02 -0.30779619543E+02  0.38324882476E+02  0.62499999276E+02  0.99999966717E+01 0.  0.
    3000022    2    5    5    0    0 -0.86105454300E+01 -0.12719634117E+02  0.10075968894E+02  0.18371670015E+02  0.25005059193E+00 0.  0.
        -13    1    4    4    0    0  0.11817859610E+02  0.82197170424E+01 -0.10345509131E+02  0.17727553080E+02  0.10500000000E+00 0.  1.
         13    1    4    4    0    0  0.21325327436E+02  0.14940665083E+02 -0.18878929406E+02  0.32162370309E+02  0.10500000000E+00 0. -1.
    3000001    1    5    5    0    0 -0.28673075371E+02 -0.18059985426E+02  0.28248913583E+02  0.44128329261E+02  0.10000000000E+01 0. -1.
        -13    1    6    6    0    0 -0.58967867271E+01 -0.86335580414E+01  0.68264920536E+01  0.12486890602E+02  0.10500000000E+00 0. -1.
         13    1    6    6    0    0 -0.27137587029E+01 -0.40860760760E+01  0.32494768400E+01  0.58847794121E+01  0.10500000000E+00 0.  1.
</event>
<event>
11    0  0.3443539E-009  0.9118800E+02  0.7816531E-02  0.1126479E+00
         25   -1    0    0    0    0  0.00000000000E+00  0.00000000000E+00  0.99999998245E-14  0.12500000000E+03  0.12500000000E+03 0.  0.
    3000001    1    3    3    0    0 -0.51122013338E+02 -0.27549130473E+02 -0.12234743603E+02  0.59355739306E+02  0.10000000000E+01 0.  1.
    1000022    2    1    0    0    0 -0.52294834706E+02 -0.29332098193E+02 -0.14530262882E+02  0.62499997211E+02  0.99999695309E+01 0.  0.
    3000022    2    3    3    0    0 -0.11728213684E+01 -0.17829677205E+01 -0.22955192789E+01  0.31442579054E+01  0.24993031238E+00 0.  0.
    1000022    2    1    0    0    0  0.52294834706E+02  0.29332098193E+02  0.14530262882E+02  0.62500002789E+02  0.10000004394E+02 0.  0.
    3000022    2    5    5    0    0  0.46851852798E+02  0.25570578711E+02  0.15849836410E+02  0.55679712827E+02  0.25000020602E+00 0.  0.
        -13    1    4    4    0    0 -0.28763978991E+00 -0.50478832518E+00 -0.62831568752E+00  0.86217950866E+00  0.10500000000E+00 0.  1.
         13    1    4    4    0    0 -0.88518157850E+00 -0.12781793954E+01 -0.16672035914E+01  0.22820783967E+01  0.10500000000E+00 0. -1.
    3000001    1    5    5    0    0  0.54429819077E+01  0.37615194824E+01 -0.13195735280E+01  0.68202899616E+01  0.10000000000E+01 0. -1.
        -13    1    6    6    0    0  0.28846849707E+02  0.15780150238E+02  0.97092547991E+01  0.34284610736E+02  0.10500000000E+00 0. -1.
         13    1    6    6    0    0  0.18005003091E+02  0.97904284734E+01  0.61405816106E+01  0.21395102092E+02  0.10500000000E+00 0.  1.
</event>
<event>
11    0  0.3443539E-009  0.9118800E+02  0.7816531E-02  0.1126479E+00
         25   -1    0    0    0    0  0.00000000000E+00  0.00000000000E+00  0.99999998245E-14  0.12500000000E+03  0.12500000000E+03 0.  0.
    3000001    1    3    3    0    0  0.22948468810E+02  0.43228938339E+01  0.17165005385E+02  0.28999259330E+02  0.10000000000E+01 0.  1.
    1000022    2    1    0    0    0  0.47680074496E+02 -0.93633555081E+00  0.39140565860E+02  0.62499999304E+02  0.99999894474E+01 0.  0.
    3000022    2    3    3    0    0  0.24731605687E+02 -0.52592293847E+01  0.21975560475E+02  0.33500739975E+02  0.25001416841E+00 0.  0.
    1000022    2    1    0    0    0 -0.47680074496E+02  0.93633555081E+00 -0.39140565860E+02  0.62500000696E+02  0.99999981432E+01 0.  0.
    3000022    2    5    5    0    0 -0.11318428228E+02  0.44796448692E+01 -0.10112820956E+02  0.15827371303E+02  0.24999789060E+00 0.  0.
        -13    1    4    4    0    0  0.10542371007E+02 -0.22732277143E+01  0.94497495033E+01  0.14339384275E+02  0.10500000000E+00 0. -1.
         13    1    4    4    0    0  0.14189234679E+02 -0.29860016704E+01  0.12525810972E+02  0.19161355700E+02  0.10500000000E+00 0.  1.
    3000001    1    5    5    0    0 -0.36361646268E+02 -0.35433093184E+01 -0.29027744904E+02  0.46672629393E+02  0.10000000000E+01 0. -1.
        -13    1    6    6    0    0 -0.46508107379E+01  0.17722543976E+01 -0.41279214064E+01  0.64669688655E+01  0.10500000000E+00 0. -1.
         13    1    6    6    0    0 -0.66676174900E+01  0.27073904717E+01 -0.59848995500E+01  0.93604024370E+01  0.10500000000E+00 0.  1.
</event>
<event>
11    0  0.3443539E-009  0.9118800E+02  0.7816531E-02  0.1126479E+00
         25   -1    0    0    0    0  0.00000000000E+00  0.00000000000E+00  0.99999998245E-14  0.12500000000E+03  0.12500000000E+03 0.  0.
    3000001    1    3    3    0    0 -0.12174568380E+02 -0.43574507365E+02 -0.26272520431E+02  0.52327842849E+02  0.10000000000E+01 0.  1.
    1000022    2    1    0    0    0 -0.10974246536E+02 -0.50640801794E+02 -0.33486188021E+02  0.62500000347E+02  0.10000018092E+02 0.  0.
    3000022    2    3    3    0    0  0.12003218441E+01 -0.70662944283E+01 -0.72136675895E+01  0.10172157498E+02  0.24999719252E+00 0.  0.
    1000022    2    1    0    0    0  0.10974246536E+02  0.50640801794E+02  0.33486188021E+02  0.62499999653E+02  0.10000013756E+02 0.  0.
    3000022    2    5    5    0    0  0.62483113037E+01  0.33565195468E+02  0.16444480401E+02  0.37896532544E+02  0.25000443353E+00 0.  0.
        -13    1    4    4    0    0  0.43923630828E+00 -0.29469348816E+01 -0.29671712033E+01  0.42062434167E+01  0.10500000000E+00 0. -1.
         13    1    4    4    0    0  0.76108553582E+00 -0.41193595467E+01 -0.42464963863E+01  0.59659140814E+01  0.10500000000E+00 0.  1.
    3000001    1    5    5    0    0  0.47259352324E+01  0.17075606326E+02  0.17041707619E+02  0.24603467109E+02  0.10000000000E+01 0.  1.
        -13    1    6    6    0    0  0.37363331005E+01  0.19728015740E+02  0.96562664029E+01  0.22280244521E+02  0.10500000000E+00 0.  1.
         13    1    6    6    0    0  0.25119782032E+01  0.13837179728E+02  0.67882139984E+01  0.15616288023E+02  0.10500000000E+00 0. -1.
</event>
<event>
11    0  0.3443539E-009  0.9118800E+02  0.7816531E-02  0.1126479E+00
         25   -1    0    0    0    0  0.00000000000E+00  0.00000000000E+00  0.99999998245E-14  0.12500000000E+03  0.12500000000E+03 0.  0.
    3000001    1    3    3    0    0  0.44874222007E+01 -0.32472211865E+02  0.18331558299E+02  0.37571631999E+02  0.10000000000E+01 0. -1.
    1000022    2    1    0    0    0  0.72437122747E+01 -0.56816426582E+02  0.22927544344E+02  0.62499999589E+02  0.99999980989E+01 0.  0.
    3000022    2    3    3    0    0  0.27562900740E+01 -0.24344214717E+02  0.45959860446E+01  0.24928367590E+02  0.24999565638E+00 0.  0.
    1000022    2    1    0    0    0 -0.72437122747E+01  0.56816426582E+02 -0.22927544344E+02  0.62500000411E+02  0.10000003234E+02 0.  0.
    3000022    2    5    5    0    0  0.21240231307E+00  0.18325403708E+02 -0.11548791685E+02  0.21663393075E+02  0.24994867922E+00 0.  0.
        -13    1    4    4    0    0  0.11886106691E+01 -0.10797155893E+02  0.20958807682E+01  0.11063232434E+02  0.10500000000E+00 0. -1.
         13    1    4    4    0    0  0.15676794049E+01 -0.13547058824E+02  0.25001052763E+01  0.13865135156E+02  0.10500000000E+00 0.  1.
    3000001    1    5    5    0    0 -0.74561145878E+01  0.38491022874E+02 -0.11378752658E+02  0.40836607335E+02  0.10000000000E+01 0. -1.
        -13    1    6    6    0    0  0.15904607482E+00  0.99414952711E+01 -0.62056124141E+01  0.11720890509E+02  0.10500000000E+00 0. -1.
         13    1    6    6    0    0  0.53356238252E-01  0.83839084370E+01 -0.53431792712E+01  0.99425025669E+01  0.10500000000E+00 0.  1.
</event>
<event>
11    0  0.3443539E-009  0.9118800E+02  0.7816531E-02  0.1126479E+00
         25   -1    0    0    0    0  0.00000000000E+00  0.00000000000E+00  0.99999998245E-14  0.12500000000E+03  0.12500000000E+03 0.  0.
    3000001    1    3    3    0    0 -0.81583756842E+00  0.16743138972E+01 -0.40159816253E+01  0.45383946918E+01  0.10000000000E+01 0.  1.
    1000022    2    1    0    0    0 -0.35958103721E+02  0.15596717804E+01 -0.50108205573E+02  0.62499999397E+02  0.99999929760E+01 0.  0.
    3000022    2    3    3    0    0 -0.35142266153E+02 -0.11464211678E+00 -0.46092223948E+02  0.57961604705E+02  0.24999663360E+00 0.  0.
    1000022    2    1    0    0    0  0.35958103721E+02 -0.15596717804E+01  0.50108205573E+02  0.62500000603E+02  0.10000000515E+02 0.  0.
    3000022    2    5    5    0    0  0.35562752634E+02 -0.14777443087E+01  0.50054886973E+02  0.61420251805E+02  0.25003753123E+00 0.  0.
        -13    1    4    4    0    0 -0.15625682660E+02  0.12844092448E-01 -0.20464138272E+02  0.25747895133E+02  0.10500000000E+00 0. -1.
         13    1    4    4    0    0 -0.19516583493E+02 -0.12748620923E+00 -0.25628085676E+02  0.32213709572E+02  0.10500000000E+00 0.  1.
    3000001    1    5    5    0    0  0.39535108736E+00 -0.81927471718E-01  0.53318599921E-01  0.10797487976E+01  0.10000000000E+01 0.  1.
        -13    1    6    6    0    0  0.11593528213E+02 -0.45715570699E+00  0.16237767433E+02  0.19957329580E+02  0.10500000000E+00 0. -1.
         13    1    6    6    0    0  0.23969224422E+02 -0.10205886017E+01  0.33817119541E+02  0.41462922226E+02  0.10500000000E+00 0.  1.
</event>
<event>
11    0  0.3443539E-009  0.9118800E+02  0.7816531E-02  0.1126479E+00
         25   -1    0    0    0    0  0.00000000000E+00  0.00000000000E+00  0.99999998245E-14  0.12500000000E+03  0.12500000000E+03 0.  0.
    3000001    1    3    3    0    0  0.83867408715E-01 -0.47202004493E+02 -0.19694676351E+02  0.51155806498E+02  0.10000000000E+01 0.  1.
    1000022    2    1    0    0    0  0.61940476375E+00 -0.58529102166E+02 -0.19498987673E+02  0.62499999926E+02  0.10000000396E+02 0.  0.
    3000022    2    3    3    0    0  0.53553735503E+00 -0.11327097673E+02  0.19568867812E+00  0.11344193429E+02  0.24997705375E+00 0.  0.
    1000022    2    1    0    0    0 -0.61940476375E+00  0.58529102166E+02  0.19498987673E+02  0.62500000074E+02  0.10000001319E+02 0.  0.
    3000022    2    5    5    0    0 -0.32201534003E+01  0.45553765397E+02  0.18215712243E+02  0.49166956402E+02  0.24999903640E+00 0.  0.
        -13    1    4    4    0    0  0.27276612747E+00 -0.46704751683E+01  0.11851590005E+00  0.46811121197E+01  0.10500000000E+00 0.  1.
         13    1    4    4    0    0  0.26277122756E+00 -0.66566225049E+01  0.77172778071E-01  0.66630813089E+01  0.10500000000E+00 0. -1.
    3000001    1    5    5    0    0  0.26007486366E+01  0.12975336769E+02  0.12832754291E+01  0.13333043672E+02  0.10000000000E+01 0.  1.
        -13    1    6    6    0    0 -0.14113459113E+01  0.20037298401E+02  0.79412682613E+01  0.21599999793E+02  0.10500000000E+00 0.  1.
         13    1    6    6    0    0 -0.18088074890E+01  0.25516466997E+02  0.10274443982E+02  0.27566956609E+02  0.10500000000E+00 0. -1.
</event>
<event>
11    0  0.3443539E-009  0.9118800E+02  0.7816531E-02  0.1126479E+00
         25   -1    0    0    0    0  0.00000000000E+00  0.00000000000E+00  0.99999998245E-14  0.12500000000E+03  0.12500000000E+03 0.  0.
    3000001    1    3    3    0    0  0.35323043649E+02  0.76561619334E+01 -0.10893430492E+02  0.37762429160E+02  0.10000000000E+01 0. -1.
    1000022    2    1    0    0    0  0.59081163605E+02  0.14513343711E+02 -0.10248295398E+02  0.62500009466E+02  0.10000129304E+02 0.  0.
    3000022    2    3    3    0    0  0.23758119956E+02  0.68571817781E+01  0.64513509317E+00  0.24737580306E+02  0.24994868434E+00 0.  0.
    1000022    2    1    0    0    0 -0.59081163605E+02 -0.14513343711E+02  0.10248295398E+02  0.62499990534E+02  0.10000010975E+02 0.  0.
    3000022    2    5    5    0    0 -0.34059543854E+02 -0.50545518280E+01  0.95048135959E+01  0.35721212293E+02  0.25000894715E+00 0.  0.
        -13    1    4    4    0    0  0.11970419929E+02  0.34010865223E+01  0.28089649960E+00  0.12447821924E+02  0.10500000000E+00 0.  1.
         13    1    4    4    0    0  0.11787700027E+02  0.34560952558E+01  0.36423859357E+00  0.12289758382E+02  0.10500000000E+00 0. -1.
    3000001    1    5    5    0    0 -0.25021619751E+02 -0.94587918835E+01  0.74348180259E+00  0.26778778241E+02  0.10000000000E+01 0. -1.
        -13    1    6    6    0    0 -0.10884046229E+02 -0.15674775332E+01  0.30166493996E+01  0.11403098120E+02  0.10500000000E+00 0.  1.
         13    1    6    6    0    0 -0.23175497625E+02 -0.34870742948E+01  0.64881641963E+01  0.24318114173E+02  0.10500000000E+00 0. -1.
</event>
<event>
11    0  0.3443539E-009  0.9118800E+02  0.7816531E-02  0.1126479E+00
         25   -1    0    0    0    0  0.00000000000E+00  0.00000000000E+00  0.99999998245E-14  0.12500000000E+03  0.12500000000E+03 0.  0.
    3000001    1    3    3    0    0 -0.80635735705E+01  0.58151683180E+01 -0.77973812795E+01  0.12674247753E+02  0.10000000000E+01 0.  1.
    1000022    2    1    0    0    0 -0.51864787480E+02  0.22479143145E+02 -0.24718045602E+02  0.62500001943E+02  0.10000020381E+02 0.  0.
    3000022    2    3    3    0    0 -0.43801213910E+02  0.16663974827E+02 -0.16920664322E+02  0.49825754190E+02  0.25000497302E+00 0.  0.
    1000022    2    1    0    0    0  0.51864787480E+02 -0.22479143145E+02  0.24718045602E+02  0.62499998057E+02  0.99999960877E+01 0.  0.
    3000022    2    5    5    0    0  0.15817597057E+02 -0.11748535071E+02  0.10030284354E+02  0.22110937439E+02  0.24999451712E+00 0.  0.
        -13    1    4    4    0    0 -0.24204523457E+02  0.92046923540E+01 -0.92791886658E+01  0.27508174865E+02  0.10500000000E+00 0. -1.
         13    1    4    4    0    0 -0.19596690453E+02  0.74592824731E+01 -0.76414756566E+01  0.22317579325E+02  0.10500000000E+00 0.  1.
    3000001    1    5    5    0    0  0.36047190423E+02 -0.10730608075E+02  0.14687761248E+02  0.40389060617E+02  0.10000000000E+01 0.  1.
        -13    1    6    6    0    0  0.61201013557E+01 -0.46226557126E+01  0.39090893186E+01  0.86090992991E+01  0.10500000000E+00 0.  1.
         13    1    6    6    0    0  0.96974957016E+01 -0.71258793580E+01  0.61211950351E+01  0.13501838140E+02  0.10500000000E+00 0. -1.
</event>
<event>
11    0  0.3443539E-009  0.9118800E+02  0.7816531E-02  0.1126479E+00
         25   -1    0    0    0    0  0.00000000000E+00  0.00000000000E+00  0.99999998245E-14  0.12500000000E+03  0.12500000000E+03 0.  0.
    3000001    1    3    3    0    0 -0.16256881102E+02 -0.79273753448E+01  0.18270866884E+02  0.25728467496E+02  0.10000000000E+01 0. -1.
    1000022    2    1    0    0    0 -0.41952242341E+02 -0.77157882906E+01  0.44572704904E+02  0.62499999220E+02  0.99999926853E+01 0.  0.
    3000022    2    3    3    0    0 -0.25695361239E+02  0.21158705418E+00  0.26301838020E+02  0.36771531724E+02  0.25000762317E+00 0.  0.
    1000022    2    1    0    0    0  0.41952242341E+02  0.77157882906E+01 -0.44572704904E+02  0.62500000780E+02  0.10000002434E+02 0.  0.
    3000022    2    5    5    0    0  0.33119195318E+01 -0.72624006693E+00 -0.79219861123E+00  0.34908902899E+01  0.25000151405E+00 0.  0.
        -13    1    4    4    0    0 -0.12432142673E+02  0.15971125828E+00  0.12777631619E+02  0.17828700847E+02  0.10500000000E+00 0. -1.
         13    1    4    4    0    0 -0.13263218566E+02  0.51875795896E-01  0.13524206401E+02  0.18942830876E+02  0.10500000000E+00 0.  1.
    3000001    1    5    5    0    0  0.38640322809E+02  0.84420283575E+01 -0.43780506293E+02  0.59009110490E+02  0.10000000000E+01 0. -1.
        -13    1    6    6    0    0  0.11301837943E+01 -0.19213033344E+00 -0.27015610153E+00  0.11824714766E+01  0.10500000000E+00 0.  1.
         13    1    6    6    0    0  0.21817357375E+01 -0.53410973349E+00 -0.52204250971E+00  0.23084188133E+01  0.10500000000E+00 0. -1.
</event>
<event>
11    0  0.3443539E-009  0.9118800E+02  0.7816531E-02  0.1126479E+00
         25   -1    0    0    0    0  0.00000000000E+00  0.00000000000E+00  0.99999998245E-14  0.12500000000E+03  0.12500000000E+03 0.  0.
    3000001    1    3    3    0    0 -0.74157693749E+01 -0.90263736015E+01 -0.34784607371E+02  0.36707464714E+02  0.10000000000E+01 0.  1.
    1000022    2    1    0    0    0 -0.71570236845E+01 -0.92669725427E+01 -0.60573515377E+02  0.62500004603E+02  0.10000002104E+02 0.  0.
    3000022    2    3    3    0    0  0.25874569040E+00 -0.24059894123E+00 -0.25788908007E+02  0.25792539889E+02  0.25000111011E+00 0.  0.
    1000022    2    1    0    0    0  0.71570236845E+01  0.92669725427E+01  0.60573515377E+02  0.62499995397E+02  0.99999445659E+01 0.  0.
    3000022    2    5    5    0    0  0.42792733044E+01  0.63817847835E+01  0.16233148425E+02  0.17961541258E+02  0.24999904737E+00 0.  0.
        -13    1    4    4    0    0  0.15409997967E+00 -0.18726777783E+00 -0.13192583448E+02  0.13195230163E+02  0.10500000000E+00 0.  1.
         13    1    4    4    0    0  0.10464571073E+00 -0.53331163399E-01 -0.12596324559E+02  0.12597309726E+02  0.10500000000E+00 0. -1.
    3000001    1    5    5    0    0  0.28777503801E+01  0.28851877592E+01  0.44340366952E+02  0.44538454139E+02  0.10000000000E+01 0.  1.
        -13    1    6    6    0    0  0.11497355061E+01  0.17495409446E+01  0.43531371174E+01  0.48315228462E+01  0.10500000000E+00 0. -1.
         13    1    6    6    0    0  0.31295377983E+01  0.46322438390E+01  0.11880011308E+02  0.13130018412E+02  0.10500000000E+00 0.  1.
</event>
<event>
11    0  0.3443539E-009  0.9118800E+02  0.7816531E-02  0.1126479E+00
         25   -1    0    0    0    0  0.00000000000E+00  0.00000000000E+00  0.99999998245E-14  0.12500000000E+03  0.12500000000E+03 0.  0.
    3000001    1    3    3    0    0  0.23187932154E+00 -0.26022324638E+01  0.11159475234E+01  0.30117637175E+01  0.10000000000E+01 0. -1.
    1000022    2    1    0    0    0 -0.33981460398E+02 -0.46349396313E+02  0.22433096523E+02  0.62500000385E+02  0.10000001958E+02 0.  0.
    3000022    2    3    3    0    0 -0.34213339720E+02 -0.43747163849E+02  0.21317148999E+02  0.59488236667E+02  0.25000144144E+00 0.  0.
    1000022    2    1    0    0    0  0.33981460398E+02  0.46349396313E+02 -0.22433096523E+02  0.62499999615E+02  0.99999971458E+01 0.  0.
    3000022    2    5    5    0    0  0.32677805296E+02  0.45145034527E+02 -0.23139119511E+02  0.60343967983E+02  0.25003774763E+00 0.  0.
        -13    1    4    4    0    0 -0.10621766283E+02 -0.13562219093E+02  0.66625797748E+01  0.18470427714E+02  0.10500000000E+00 0. -1.
         13    1    4    4    0    0 -0.23591573437E+02 -0.30184944756E+02  0.14654569225E+02  0.41017808953E+02  0.10500000000E+00 0.  1.
    3000001    1    5    5    0    0  0.13036551024E+01  0.12043617862E+01  0.70602298775E+00  0.21560316318E+01  0.10000000000E+01 0.  1.
        -13    1    6    6    0    0  0.23396339561E+02  0.32375433023E+02 -0.16555878404E+02  0.43239628849E+02  0.10500000000E+00 0.  1.
         13    1    6    6    0    0  0.92814657350E+01  0.12769601504E+02 -0.65832411062E+01  0.17104339134E+02  0.10500000000E+00 0. -1.
</event>
<event>
11    0  0.3443539E-009  0.9118800E+02  0.7816531E-02  0.1126479E+00
         25   -1    0    0    0    0  0.00000000000E+00  0.00000000000E+00  0.99999998245E-14  0.12500000000E+03  0.12500000000E+03 0.  0.
    3000001    1    3    3    0    0  0.11928556941E+01  0.48017789795E+02  0.19300931011E+02  0.51775061366E+02  0.10000000000E+01 0. -1.
    1000022    2    1    0    0    0  0.58170714503E+01  0.57117402075E+02  0.22583511570E+02  0.62499992951E+02  0.99999091987E+01 0.  0.
    3000022    2    3    3    0    0  0.46242157562E+01  0.90996122792E+01  0.32825805590E+01  0.10724931585E+02  0.25001476030E+00 0.  0.
    1000022    2    1    0    0    0 -0.58170714503E+01 -0.57117402075E+02 -0.22583511570E+02  0.62500007049E+02  0.99999973174E+01 0.  0.
    3000022    2    5    5    0    0 -0.32381038839E+01 -0.52099668119E+01 -0.38478826966E+01  0.72455348456E+01  0.25000601309E+00 0.  0.
        -13    1    4    4    0    0  0.15837224163E+01  0.32391104650E+01  0.11460309619E+01  0.37847622465E+01  0.10500000000E+00 0. -1.
         13    1    4    4    0    0  0.30404933399E+01  0.58605018142E+01  0.21365495971E+01  0.69401693384E+01  0.10500000000E+00 0. -1.
    3000001    1    5    5    0    0 -0.25789675664E+01 -0.51907435263E+02 -0.18735628873E+02  0.55254472204E+02  0.10000000000E+01 0. -1.
        -13    1    6    6    0    0 -0.19480352172E+01 -0.31584541585E+01 -0.22547928437E+01  0.43434766774E+01  0.10500000000E+00 0. -1.
         13    1    6    6    0    0 -0.12900686668E+01 -0.20515126534E+01 -0.15930898529E+01  0.29020581682E+01  0.10500000000E+00 0.  1.
</event>
<event>
11    0  0.3443539E-009  0.9118800E+02  0.7816531E-02  0.1126479E+00
         25   -1    0    0    0    0  0.00000000000E+00  0.00000000000E+00  0.99999998245E-14  0.12500000000E+03  0.12500000000E+03 0.  0.
    3000001    1    3    3    0    0 -0.35238290149E+01 -0.27905872719E+01 -0.27163987541E+01  0.53463604854E+01  0.10000000000E+01 0. -1.
    1000022    2    1    0    0    0 -0.55685714628E+02 -0.25982246815E+02 -0.55021787053E+01  0.62499999418E+02  0.99999996778E+01 0.  0.
    3000022    2    3    3    0    0 -0.52161885613E+02 -0.23191659543E+02 -0.27857799512E+01  0.57153638933E+02  0.24998045478E+00 0.  0.
    1000022    2    1    0    0    0  0.55685714628E+02  0.25982246815E+02  0.55021787053E+01  0.62500000582E+02  0.10000006952E+02 0.  0.
    3000022    2    5    5    0    0  0.51796033064E+02  0.21276776147E+02  0.40319531554E+01  0.56141334051E+02  0.24999690369E+00 0.  0.
        -13    1    4    4    0    0 -0.30187950681E+02 -0.13373347520E+02 -0.16587540359E+01  0.33059359948E+02  0.10500000000E+00 0.  1.
         13    1    4    4    0    0 -0.21973934932E+02 -0.98183120235E+01 -0.11270259154E+01  0.24094278985E+02  0.10500000000E+00 0. -1.
    3000001    1    5    5    0    0  0.38896815644E+01  0.47054706683E+01  0.14702255499E+01  0.63586665308E+01  0.10000000000E+01 0.  1.
        -13    1    6    6    0    0  0.22523813051E+02  0.93153627815E+01  0.17857651935E+01  0.24439683313E+02  0.10500000000E+00 0.  1.
         13    1    6    6    0    0  0.29272220013E+02  0.11961413365E+02  0.22461879619E+01  0.31701650738E+02  0.10500000000E+00 0. -1.
</event>
<event>
11    0  0.3443539E-009  0.9118800E+02  0.7816531E-02  0.1126479E+00
         25   -1    0    0    0    0  0.00000000000E+00  0.00000000000E+00  0.99999998245E-14  0.12500000000E+03  0.12500000000E+03 0.  0.
    3000001    1    3    3    0    0 -0.30546750475E+01  0.58316037533E+02 -0.12694094807E+02  0.59768146334E+02  0.10000000000E+01 0. -1.
    1000022    2    1    0    0    0 -0.14434524045E+01  0.60455642252E+02 -0.12218092690E+02  0.62499999357E+02  0.99999947820E+01 0.  0.
    3000022    2    3    3    0    0  0.16112226430E+01  0.21396047192E+01  0.47600211739E+00  0.27318530230E+01  0.24999232694E+00 0.  0.
    1000022    2    1    0    0    0  0.14434524045E+01 -0.60455642252E+02  0.12218092690E+02  0.62500000643E+02  0.10000002823E+02 0.  0.
    3000022    2    5    5    0    0 -0.10273101386E+01 -0.24919627522E+02  0.36542113876E+00  0.24944723606E+02  0.25000241795E+00 0.  0.
        -13    1    4    4    0    0  0.73108134328E+00  0.90833766729E+00  0.26229966677E+00  0.11997430406E+01  0.10500000000E+00 0.  1.
         13    1    4    4    0    0  0.88014129974E+00  0.12312670519E+01  0.21370245062E+00  0.15321099824E+01  0.10500000000E+00 0. -1.
    3000001    1    5    5    0    0  0.24707625431E+01 -0.35536014730E+02  0.11852671551E+02  0.37555277038E+02  0.10000000000E+01 0.  1.
        -13    1    6    6    0    0 -0.49851454157E+00 -0.13510306038E+02  0.16521895225E+00  0.13520917435E+02  0.10500000000E+00 0.  1.
         13    1    6    6    0    0 -0.52879559705E+00 -0.11409321484E+02  0.20020218651E+00  0.11423806171E+02  0.10500000000E+00 0. -1.
</event>
<event>
11    0  0.3443539E-009  0.9118800E+02  0.7816531E-02  0.1126479E+00
         25   -1    0    0    0    0  0.00000000000E+00  0.00000000000E+00  0.99999998245E-14  0.12500000000E+03  0.12500000000E+03 0.  0.
    3000001    1    3    3    0    0 -0.52528149906E+02  0.98486127540E+01  0.29813939917E+02  0.61205169055E+02  0.10000000000E+01 0.  1.
    1000022    2    1    0    0    0 -0.53547787277E+02  0.96400582664E+01  0.29085292324E+02  0.62499999287E+02  0.99999717815E+01 0.  0.
    3000022    2    3    3    0    0 -0.10196373708E+01 -0.20855448762E+00 -0.72864759246E+00  0.12948302315E+01  0.25000534404E+00 0.  0.
    1000022    2    1    0    0    0  0.53547787277E+02 -0.96400582664E+01 -0.29085292324E+02  0.62500000713E+02  0.99999806945E+01 0.  0.
    3000022    2    5    5    0    0  0.17028466191E+02 -0.43707332647E+01 -0.14580321040E+02  0.22841196009E+02  0.25000684903E+00 0.  0.
        -13    1    4    4    0    0 -0.29760333644E+00 -0.75892614476E-01 -0.27559865212E+00  0.42580165786E+00  0.10500000000E+00 0. -1.
         13    1    4    4    0    0 -0.72203403441E+00 -0.13266187314E+00 -0.45304894035E+00  0.86902857362E+00  0.10500000000E+00 0.  1.
    3000001    1    5    5    0    0  0.36519321086E+02 -0.52693250017E+01 -0.14504971285E+02  0.39658804704E+02  0.10000000000E+01 0. -1.
        -13    1    6    6    0    0  0.41759585188E+01 -0.10801045256E+01 -0.36066425225E+01  0.56235354202E+01  0.10500000000E+00 0. -1.
         13    1    6    6    0    0  0.12852507672E+02 -0.32906287391E+01 -0.10973678517E+02  0.17217660589E+02  0.10500000000E+00 0.  1.
</event>
<event>
11    0  0.3443539E-009  0.9118800E+02  0.7816531E-02  0.1126479E+00
         25   -1    0    0    0    0  0.00000000000E+00  0.00000000000E+00  0.99999998245E-14  0.12500000000E+03  0.12500000000E+03 0.  0.
    3000001    1    3    3    0    0 -0.52180108190E+01  0.30075141332E+02  0.23194552733E+02  0.38350085261E+02  0.10000000000E+01 0.  1.
    1000022    2    1    0    0    0 -0.24463244153E+01  0.51704968198E+02  0.33568770998E+02  0.62500003669E+02  0.99999916408E+01 0.  0.
    3000022    2    3    3    0    0  0.27716864037E+01  0.21629826866E+02  0.10374218265E+02  0.24149918408E+02  0.24999745537E+00 0.  0.
    1000022    2    1    0    0    0  0.24463244153E+01 -0.51704968198E+02 -0.33568770998E+02  0.62499996331E+02  0.99999457810E+01 0.  0.
    3000022    2    5    5    0    0  0.33748339679E+01 -0.11016395561E+02 -0.40592440556E+01  0.12218446498E+02  0.24999414491E+00 0.  0.
        -13    1    4    4    0    0  0.73044415029E+00  0.59753562315E+01  0.28813744238E+01  0.66747115533E+01  0.10500000000E+00 0. -1.
         13    1    4    4    0    0  0.20412422534E+01  0.15654470634E+02  0.74928438410E+01  0.17475206854E+02  0.10500000000E+00 0.  1.
    3000001    1    5    5    0    0 -0.92850955260E+00 -0.40688572637E+02 -0.29509526942E+02  0.50281549833E+02  0.10000000000E+01 0.  1.
        -13    1    6    6    0    0  0.25222182578E+01 -0.81747691986E+01 -0.29869054668E+01  0.90620674053E+01  0.10500000000E+00 0.  1.
         13    1    6    6    0    0  0.85261571007E+00 -0.28416263619E+01 -0.10723385888E+01  0.31563790930E+01  0.10500000000E+00 0. -1.
</event>
<event>
11    0  0.3443539E-009  0.9118800E+02  0.7816531E-02  0.1126479E+00
         25   -1    0    0    0    0  0.00000000000E+00  0.00000000000E+00  0.99999998245E-14  0.12500000000E+03  0.12500000000E+03 0.  0.
    3000001    1    3    3    0    0 -0.30452288523E+01  0.10342017995E+02  0.69314979677E+01  0.12855987673E+02  0.10000000000E+01 0. -1.
    1000022    2    1    0    0    0 -0.26579723138E+02  0.37257767978E+02  0.41371813353E+02  0.62499998796E+02  0.99999976343E+01 0.  0.
    3000022    2    3    3    0    0 -0.23534494285E+02  0.26915749982E+02  0.34440315385E+02  0.49644011123E+02  0.24999636222E+00 0.  0.
    1000022    2    1    0    0    0  0.26579723138E+02 -0.37257767978E+02 -0.41371813353E+02  0.62500001204E+02  0.10000012682E+02 0.  0.
    3000022    2    5    5    0    0  0.82306732306E+01 -0.15945995841E+02 -0.10786514660E+02  0.20938724031E+02  0.25000071152E+00 0.  0.
        -13    1    4    4    0    0 -0.15046774262E+02  0.17150543505E+02  0.22038370025E+02  0.31721401870E+02  0.10500000000E+00 0. -1.
         13    1    4    4    0    0 -0.84877200231E+01  0.97652064773E+01  0.12401945360E+02  0.17922609253E+02  0.10500000000E+00 0.  1.
    3000001    1    5    5    0    0  0.18349049907E+02 -0.21311772136E+02 -0.30585298693E+02  0.41561277172E+02  0.10000000000E+01 0. -1.
        -13    1    6    6    0    0  0.22589731448E+01 -0.43405447537E+01 -0.29030354032E+01  0.56905121017E+01  0.10500000000E+00 0.  1.
         13    1    6    6    0    0  0.59717000858E+01 -0.11605451087E+02 -0.78834792569E+01  0.15248211930E+02  0.10500000000E+00 0. -1.
</event>
<event>
11    0  0.3443539E-009  0.9118800E+02  0.7816531E-02  0.1126479E+00
         25   -1    0    0    0    0  0.00000000000E+00  0.00000000000E+00  0.99999998245E-14  0.12500000000E+03  0.12500000000E+03 0.  0.
    3000001    1    3    3    0    0 -0.27932522963E+02 -0.89431659444E+01 -0.39965700121E+02  0.49582892638E+02  0.10000000000E+01 0.  1.
    1000022    2    1    0    0    0 -0.31489910615E+02 -0.14654698311E+02 -0.50988973946E+02  0.62500000485E+02  0.99999971674E+01 0.  0.
    3000022    2    3    3    0    0 -0.35573876524E+01 -0.57115323671E+01 -0.11023273825E+02  0.12917107847E+02  0.25000082374E+00 0.  0.
    1000022    2    1    0    0    0  0.31489910615E+02  0.14654698311E+02  0.50988973946E+02  0.62499999515E+02  0.99999911087E+01 0.  0.
    3000022    2    5    5    0    0  0.26918224244E+02  0.14687540448E+02  0.47958921008E+02  0.56924820981E+02  0.24999716224E+00 0.  0.
        -13    1    4    4    0    0 -0.17129805762E+01 -0.28779787387E+01 -0.54734349907E+01  0.64176771243E+01  0.10500000000E+00 0.  1.
         13    1    4    4    0    0 -0.18444070762E+01 -0.28335536284E+01 -0.55498388347E+01  0.64994307227E+01  0.10500000000E+00 0. -1.
    3000001    1    5    5    0    0  0.45716863713E+01 -0.32842136955E-01  0.30300529384E+01  0.55751785346E+01  0.10000000000E+01 0. -1.
        -13    1    6    6    0    0  0.69659027088E+01  0.38192617516E+01  0.12474865111E+02  0.14789991394E+02  0.10500000000E+00 0.  1.
         13    1    6    6    0    0  0.19952321535E+02  0.10868278697E+02  0.35484055896E+02  0.42134829587E+02  0.10500000000E+00 0. -1.
</event>
<event>
11    0  0.3443539E-009  0.9118800E+02  0.7816531E-02  0.1126479E+00
         25   -1    0    0    0    0  0.00000000000E+00  0.00000000000E+00  0.99999998245E-14  0.12500000000E+03  0.12500000000E+03 0.  0.
    3000001    1    3    3    0    0 -0.35880163013E+01  0.11462653673E+01 -0.14745768651E+01  0.41667927956E+01  0.10000000000E+01 0. -1.
    1000022    2    1    0    0    0 -0.61074721670E+02 -0.87082451091E+01 -0.54303495707E+00  0.62499999009E+02  0.99999914564E+01 0.  0.
    3000022    2    3    3    0    0 -0.57486705369E+02 -0.98545104765E+01  0.93154190806E+00  0.58333206213E+02  0.25001169114E+00 0.  0.
    1000022    2    1    0    0    0  0.61074721670E+02  0.87082451091E+01  0.54303495707E+00  0.62500000991E+02  0.10000003849E+02 0.  0.
    3000022    2    5    5    0    0  0.95781626255E+01  0.48769621649E+01  0.14160285437E+01  0.10844058059E+02  0.24999821761E+00 0.  0.
        -13    1    4    4    0    0 -0.16778593192E+02 -0.29005006748E+01  0.30833917325E+00  0.17030566395E+02  0.10500000000E+00 0.  1.
         13    1    4    4    0    0 -0.40708112177E+02 -0.69540098017E+01  0.62320273482E+00  0.41302639818E+02  0.10500000000E+00 0. -1.
    3000001    1    5    5    0    0  0.51496559045E+02  0.38312829442E+01 -0.87299358661E+00  0.51655942933E+02  0.10000000000E+01 0.  1.
        -13    1    6    6    0    0  0.50887003611E+01  0.25858246574E+01  0.68417828974E+00  0.57498248196E+01  0.10500000000E+00 0.  1.
         13    1    6    6    0    0  0.44894622644E+01  0.22911375075E+01  0.73185025394E+00  0.50942332393E+01  0.10500000000E+00 0. -1.
</event>
<event>
11    0  0.3443539E-009  0.9118800E+02  0.7816531E-02  0.1126479E+00
         25   -1    0    0    0    0  0.00000000000E+00  0.00000000000E+00  0.99999998245E-14  0.12500000000E+03  0.12500000000E+03 0.  0.
    3000001    1    3    3    0    0  0.52512528896E+01  0.11878711917E+02 -0.93272563795E+01  0.16021147440E+02  0.10000000000E+01 0. -1.
    1000022    2    1    0    0    0  0.12598287821E+02  0.55152938265E+02 -0.24610698407E+02  0.62499999527E+02  0.10000000475E+02 0.  0.
    3000022    2    3    3    0    0  0.73470349314E+01  0.43274226348E+02 -0.15283442027E+02  0.46478852087E+02  0.25000565955E+00 0.  0.
    1000022    2    1    0    0    0 -0.12598287821E+02 -0.55152938265E+02  0.24610698407E+02  0.62500000473E+02  0.10000006391E+02 0.  0.
    3000022    2    5    5    0    0 -0.19653548290E+01 -0.28248247424E+02  0.96584470973E+01  0.29919462226E+02  0.25003486395E+00 0.  0.
        -13    1    4    4    0    0  0.41460233421E+01  0.24759296200E+02 -0.87754126540E+01  0.26593817893E+02  0.10500000000E+00 0.  1.
         13    1    4    4    0    0  0.32010115893E+01  0.18514930148E+02 -0.65080293731E+01  0.19885034194E+02  0.10500000000E+00 0. -1.
    3000001    1    5    5    0    0 -0.10632932992E+02 -0.26904690841E+02  0.14952251309E+02  0.32580538247E+02  0.10000000000E+01 0.  1.
        -13    1    6    6    0    0 -0.53550214724E+00 -0.72779367719E+01  0.24793038566E+01  0.77079892851E+01  0.10500000000E+00 0. -1.
         13    1    6    6    0    0 -0.14298526818E+01 -0.20970310652E+02  0.71791432408E+01  0.22211472941E+02  0.10500000000E+00 0.  1.
</event>
<event>
11    0  0.3443539E-009  0.9118800E+02  0.7816531E-02  0.1126479E+00
         25   -1    0    0    0    0  0.00000000000E+00  0.00000000000E+00  0.99999998245E-14  0.12500000000E+03  0.12500000000E+03 0.  0.
    3000001    1    3    3    0    0  0.13966302510E+02 -0.82973476017E+01  0.14277511616E+02  0.21650656364E+02  0.10000000000E+01 0.  1.
    1000022    2    1    0    0    0  0.36629762672E+02 -0.12818720376E+02  0.47960309072E+02  0.62499996454E+02  0.99999602534E+01 0.  0.
    3000022    2    3    3    0    0  0.22663460161E+02 -0.45213727740E+01  0.33682797456E+02  0.40849340090E+02  0.25000628830E+00 0.  0.
    1000022    2    1    0    0    0 -0.36629762672E+02  0.12818720376E+02 -0.47960309072E+02  0.62500003546E+02  0.10000004572E+02 0.  0.
    3000022    2    5    5    0    0 -0.36624746614E+02  0.12367290817E+02 -0.44897958412E+02  0.59247034844E+02  0.25004301327E+00 0.  0.
        -13    1    4    4    0    0  0.53324095729E+01 -0.10715075188E+01  0.79055204744E+01  0.95964055347E+01  0.10500000000E+00 0.  1.
         13    1    4    4    0    0  0.17331050588E+02 -0.34498652552E+01  0.25777276981E+02  0.31252934556E+02  0.10500000000E+00 0. -1.
    3000001    1    5    5    0    0 -0.50160571484E-02  0.45142955862E+00 -0.30623506606E+01  0.32529687019E+01  0.10000000000E+01 0. -1.
        -13    1    6    6    0    0 -0.17976326935E+02  0.60709462898E+01 -0.22141271151E+02  0.29159074610E+02  0.10500000000E+00 0. -1.
         13    1    6    6    0    0 -0.18648419679E+02  0.62963445274E+01 -0.22756687260E+02  0.30087960233E+02  0.10500000000E+00 0.  1.
</event>
<event>
11    0  0.3443539E-009  0.9118800E+02  0.7816531E-02  0.1126479E+00
         25   -1    0    0    0    0  0.00000000000E+00  0.00000000000E+00  0.99999998245E-14  0.12500000000E+03  0.12500000000E+03 0.  0.
    3000001    1    3    3    0    0 -0.10242657640E+02 -0.17664649554E+01 -0.11248304317E+02  0.15347859264E+02  0.10000000000E+01 0.  1.
    1000022    2    1    0    0    0 -0.47421831471E+02 -0.18905954580E+02 -0.34640798036E+02  0.62499999589E+02  0.99999920701E+01 0.  0.
    3000022    2    3    3    0    0 -0.37179173831E+02 -0.17139489625E+02 -0.23392493718E+02  0.47152140325E+02  0.25000701581E+00 0.  0.
    1000022    2    1    0    0    0  0.47421831471E+02  0.18905954580E+02  0.34640798036E+02  0.62500000411E+02  0.99999972102E+01 0.  0.
    3000022    2    5    5    0    0  0.39907262381E+02  0.13295616105E+02  0.24623003086E+02  0.48741335430E+02  0.25000026518E+00 0.  0.
        -13    1    4    4    0    0 -0.14853884998E+02 -0.68496140944E+01 -0.92738394121E+01  0.18803463384E+02  0.10500000000E+00 0. -1.
         13    1    4    4    0    0 -0.22325288833E+02 -0.10289875531E+02 -0.14118654306E+02  0.28348676941E+02  0.10500000000E+00 0.  1.
    3000001    1    5    5    0    0  0.75145690894E+01  0.56103384755E+01  0.10017794950E+02  0.13758664981E+02  0.10000000000E+01 0. -1.
        -13    1    6    6    0    0  0.13993635788E+02  0.46274590767E+01  0.85745418938E+01  0.17051950438E+02  0.10500000000E+00 0.  1.
         13    1    6    6    0    0  0.25913626594E+02  0.86681570282E+01  0.16048461192E+02  0.31689384991E+02  0.10500000000E+00 0. -1.
</event>
<event>
11    0  0.3443539E-009  0.9118800E+02  0.7816531E-02  0.1126479E+00
         25   -1    0    0    0    0  0.00000000000E+00  0.00000000000E+00  0.99999998245E-14  0.12500000000E+03  0.12500000000E+03 0.  0.
    3000001    1    3    3    0    0  0.15270232362E+02  0.32480195170E+02 -0.23351856471E+02  0.42830506363E+02  0.10000000000E+01 0.  1.
    1000022    2    1    0    0    0  0.25659964087E+02  0.42297332756E+02 -0.36861252311E+02  0.62500000281E+02  0.99999998964E+01 0.  0.
    3000022    2    3    3    0    0  0.10389731725E+02  0.98171375864E+01 -0.13509395840E+02  0.19669493918E+02  0.24999863196E+00 0.  0.
    1000022    2    1    0    0    0 -0.25659964087E+02 -0.42297332756E+02  0.36861252311E+02  0.62499999719E+02  0.99999963867E+01 0.  0.
    3000022    2    5    5    0    0 -0.15967924082E+02 -0.34341144527E+02  0.26888577800E+02  0.46447248942E+02  0.25002260680E+00 0.  0.
        -13    1    4    4    0    0  0.70420297961E+01  0.66686010819E+01 -0.90965516314E+01  0.13297319302E+02  0.10500000000E+00 0.  1.
         13    1    4    4    0    0  0.33477019292E+01  0.31485365045E+01 -0.44128442086E+01  0.63721746160E+01  0.10500000000E+00 0. -1.
    3000001    1    5    5    0    0 -0.96920400054E+01 -0.79561882294E+01  0.99726745113E+01  0.16052750777E+02  0.10000000000E+01 0.  1.
        -13    1    6    6    0    0 -0.59178215516E+01 -0.12590875496E+02  0.98599773114E+01  0.17052299999E+02  0.10500000000E+00 0. -1.
         13    1    6    6    0    0 -0.10050102530E+02 -0.21750269030E+02  0.17028600488E+02  0.29394948943E+02  0.10500000000E+00 0.  1.
</event>
<event>
11    0  0.3443539E-009  0.9118800E+02  0.7816531E-02  0.1126479E+00
         25   -1    0    0    0    0  0.00000000000E+00  0.00000000000E+00  0.99999998245E-14  0.12500000000E+03  0.12500000000E+03 0.  0.
    3000001    1    3    3    0    0  0.36201213109E+01  0.40383518817E+02  0.60614149717E+01  0.41008226270E+02  0.10000000000E+01 0.  1.
    1000022    2    1    0    0    0 -0.16361072676E+01  0.60966849882E+02  0.93067841284E+01  0.62500000941E+02  0.10000012765E+02 0.  0.
    3000022    2    3    3    0    0 -0.52562285785E+01  0.20583331065E+02  0.32453691567E+01  0.21491774671E+02  0.25000190513E+00 0.  0.
    1000022    2    1    0    0    0  0.16361072676E+01 -0.60966849882E+02 -0.93067841284E+01  0.62499999059E+02  0.10000001003E+02 0.  0.
    3000022    2    5    5    0    0  0.55287981007E+00 -0.58168020176E+02 -0.10514757100E+02  0.59113846648E+02  0.25000289959E+00 0.  0.
        -13    1    4    4    0    0 -0.23428230981E+01  0.94149238529E+01  0.14510755531E+01  0.98105176462E+01  0.10500000000E+00 0. -1.
         13    1    4    4    0    0 -0.29134054803E+01  0.11168407212E+02  0.17942936036E+01  0.11681257025E+02  0.10500000000E+00 0.  1.
    3000001    1    5    5    0    0  0.10832274575E+01 -0.27988297062E+01  0.12079729714E+01  0.33861524107E+01  0.10000000000E+01 0.  1.
        -13    1    6    6    0    0  0.17118020144E+00 -0.24298835480E+02 -0.44172793893E+01  0.24697896480E+02  0.10500000000E+00 0. -1.
         13    1    6    6    0    0  0.38169960864E+00 -0.33869184696E+02 -0.60974777105E+01  0.34415950168E+02  0.10500000000E+00 0.  1.
</event>
<event>
11    0  0.3443539E-009  0.9118800E+02  0.7816531E-02  0.1126479E+00
         25   -1    0    0    0    0  0.00000000000E+00  0.00000000000E+00  0.99999998245E-14  0.12500000000E+03  0.12500000000E+03 0.  0.
    3000001    1    3    3    0    0 -0.21245958728E+01 -0.37416847419E+01 -0.10543611258E+02  0.11431616276E+02  0.10000000000E+01 0.  1.
    1000022    2    1    0    0    0 -0.43701763226E+01 -0.16296989337E+01 -0.61518254263E+02  0.62500000293E+02  0.10000003468E+02 0.  0.
    3000022    2    3    3    0    0 -0.22455804498E+01  0.21119858082E+01 -0.50974643005E+02  0.51068384017E+02  0.25000195169E+00 0.  0.
    1000022    2    1    0    0    0  0.43701763226E+01  0.16296989337E+01  0.61518254263E+02  0.62499999707E+02  0.99999998069E+01 0.  0.
    3000022    2    5    5    0    0  0.25209836150E+01  0.25144363607E+01  0.58978486526E+02  0.59086395433E+02  0.25000750782E+00 0.  0.
        -13    1    4    4    0    0 -0.75417933324E+00  0.78176210706E+00 -0.18341747562E+02  0.18374184801E+02  0.10500000000E+00 0.  1.
         13    1    4    4    0    0 -0.14914011165E+01  0.13302237011E+01 -0.32632895443E+02  0.32694199216E+02  0.10500000000E+00 0. -1.
    3000001    1    5    5    0    0  0.18491927075E+01 -0.88473742696E+00  0.25397677369E+01  0.34136042743E+01  0.10000000000E+01 0.  1.
        -13    1    6    6    0    0  0.16442503753E+01  0.17011092409E+01  0.38598971957E+02  0.38671552763E+02  0.10500000000E+00 0. -1.
         13    1    6    6    0    0  0.87673323977E+00  0.81332711977E+00  0.20379514569E+02  0.20414842670E+02  0.10500000000E+00 0.  1.
</event>
<event>
11    0  0.3443539E-009  0.9118800E+02  0.7816531E-02  0.1126479E+00
         25   -1    0    0    0    0  0.00000000000E+00  0.00000000000E+00  0.99999998245E-14  0.12500000000E+03  0.12500000000E+03 0.  0.
    3000001    1    3    3    0    0  0.13447026467E+01 -0.14999136160E+02 -0.45228277198E+02  0.47679968216E+02  0.10000000000E+01 0. -1.
    1000022    2    1    0    0    0  0.34184214886E+01 -0.14418288202E+02 -0.59888875395E+02  0.62499999623E+02  0.99999958309E+01 0.  0.
    3000022    2    3    3    0    0  0.20737188419E+01  0.58084795737E+00 -0.14660598198E+02  0.14820031408E+02  0.24999446266E+00 0.  0.
    1000022    2    1    0    0    0 -0.34184214886E+01  0.14418288202E+02  0.59888875395E+02  0.62500000377E+02  0.10000000540E+02 0.  0.
    3000022    2    5    5    0    0 -0.29650056269E+01  0.12688904816E+02  0.58704301324E+02  0.60133659621E+02  0.24992342856E+00 0.  0.
        -13    1    4    4    0    0  0.14823223536E+01  0.37064131374E+00 -0.10409404113E+02  0.10521472023E+02  0.10500000000E+00 0.  1.
         13    1    4    4    0    0  0.59139648824E+00  0.21020664363E+00 -0.42511940849E+01  0.42985593850E+01  0.10500000000E+00 0. -1.
    3000001    1    5    5    0    0 -0.45341586167E+00  0.17293833861E+01  0.11845740715E+01  0.23663407553E+01  0.10000000000E+01 0.  1.
        -13    1    6    6    0    0 -0.19006565598E+01  0.78683232655E+01  0.36442558336E+02  0.37330873141E+02  0.10500000000E+00 0. -1.
         13    1    6    6    0    0 -0.10643490671E+01  0.48205815507E+01  0.22261742988E+02  0.22802786481E+02  0.10500000000E+00 0.  1.
</event>
<event>
11    0  0.3443539E-009  0.9118800E+02  0.7816531E-02  0.1126479E+00
         25   -1    0    0    0    0  0.00000000000E+00  0.00000000000E+00  0.99999998245E-14  0.12500000000E+03  0.12500000000E+03 0.  0.
    3000001    1    3    3    0    0  0.10098681911E+00  0.10610461691E+01 -0.31042034051E+01  0.34310488325E+01  0.10000000000E+01 0. -1.
    1000022    2    1    0    0    0  0.25287118724E+01  0.50380655629E+02 -0.35519643699E+02  0.62500000017E+02  0.10000003418E+02 0.  0.
    3000022    2    3    3    0    0  0.24277250533E+01  0.49319609459E+02 -0.32415440294E+02  0.59068951185E+02  0.24999691188E+00 0.  0.
    1000022    2    1    0    0    0 -0.25287118724E+01 -0.50380655629E+02  0.35519643699E+02  0.62499999983E+02  0.10000003204E+02 0.  0.
    3000022    2    5    5    0    0  0.34055186007E+01 -0.14069698947E+02  0.79844346358E+01  0.16533834115E+02  0.24997739433E+00 0.  0.
        -13    1    4    4    0    0  0.12901632996E+01  0.25323629915E+02 -0.16707456417E+02  0.30366113981E+02  0.10500000000E+00 0. -1.
         13    1    4    4    0    0  0.11375617537E+01  0.23995979545E+02 -0.15707983876E+02  0.28702837203E+02  0.10500000000E+00 0.  1.
    3000001    1    5    5    0    0 -0.59342304731E+01 -0.36310956681E+02  0.27535209063E+02  0.45966165868E+02  0.10000000000E+01 0. -1.
        -13    1    6    6    0    0  0.19336629069E+01 -0.77553923568E+01  0.44512375066E+01  0.91493006938E+01  0.10500000000E+00 0.  1.
         13    1    6    6    0    0  0.14718556938E+01 -0.63143065903E+01  0.35331971292E+01  0.73845334215E+01  0.10500000000E+00 0. -1.
</event>
<event>
11    0  0.3443539E-009  0.9118800E+02  0.7816531E-02  0.1126479E+00
         25   -1    0    0    0    0  0.00000000000E+00  0.00000000000E+00  0.99999998245E-14  0.12500000000E+03  0.12500000000E+03 0.  0.
    3000001    1    3    3    0    0 -0.17013009582E+02 -0.79449047283E+01  0.54267340916E+01  0.19570729396E+02  0.10000000000E+01 0. -1.
    1000022    2    1    0    0    0 -0.53089806540E+02 -0.15087899784E+02  0.27569503760E+02  0.62500001555E+02  0.10000018925E+02 0.  0.
    3000022    2    3    3    0    0 -0.36076796958E+02 -0.71429950557E+01  0.22142769668E+02  0.42929272159E+02  0.25000491252E+00 0.  0.
    1000022    2    1    0    0    0  0.53089806540E+02  0.15087899784E+02 -0.27569503760E+02  0.62499998445E+02  0.99999994885E+01 0.  0.
    3000022    2    5    5    0    0  0.23383137907E+02  0.10421057272E+02 -0.89687452130E+01  0.27126932437E+02  0.24999943331E+00 0.  0.
        -13    1    4    4    0    0 -0.14153176904E+02 -0.27464520458E+01  0.86457959002E+01  0.16811193505E+02  0.10500000000E+00 0.  1.
         13    1    4    4    0    0 -0.21923620054E+02 -0.43965430099E+01  0.13496973768E+02  0.26118078654E+02  0.10500000000E+00 0. -1.
    3000001    1    5    5    0    0  0.29706668633E+02  0.46668425120E+01 -0.18600758547E+02  0.35373066008E+02  0.10000000000E+01 0. -1.
        -13    1    6    6    0    0  0.11252368124E+02  0.49851669047E+01 -0.42460069088E+01  0.13019496040E+02  0.10500000000E+00 0.  1.
         13    1    6    6    0    0  0.12130769783E+02  0.54358903672E+01 -0.47227383042E+01  0.14107436397E+02  0.10500000000E+00 0. -1.
</event>
<event>
11    0  0.3443539E-009  0.9118800E+02  0.7816531E-02  0.1126479E+00
         25   -1    0    0    0    0  0.00000000000E+00  0.00000000000E+00  0.99999998245E-14  0.12500000000E+03  0.12500000000E+03 0.  0.
    3000001    1    3    3    0    0 -0.16162141586E+02 -0.17594392837E+02  0.35772043001E+01  0.24177962498E+02  0.10000000000E+01 0. -1.
    1000022    2    1    0    0    0 -0.49517172256E+02 -0.36292133865E+02  0.60975653356E+01  0.62499996747E+02  0.99999980801E+01 0.  0.
    3000022    2    3    3    0    0 -0.33355030670E+02 -0.18697741028E+02  0.25203610355E+01  0.38322034249E+02  0.24999733881E+00 0.  0.
    1000022    2    1    0    0    0  0.49517172256E+02  0.36292133865E+02 -0.60975653356E+01  0.62500003253E+02  0.10000038743E+02 0.  0.
    3000022    2    5    5    0    0  0.30294127799E+02  0.17721318490E+02 -0.14145578810E+00  0.35097889049E+02  0.24999567249E+00 0.  0.
        -13    1    4    4    0    0 -0.25718004128E+02 -0.14415297044E+02  0.19460126056E+01  0.29546819038E+02  0.10500000000E+00 0.  1.
         13    1    4    4    0    0 -0.76370265418E+01 -0.42824439840E+01  0.57434842991E+00  0.87752152108E+01  0.10500000000E+00 0. -1.
    3000001    1    5    5    0    0  0.19223044458E+02  0.18570815375E+02 -0.59561095475E+01  0.27402114204E+02  0.10000000000E+01 0.  1.
        -13    1    6    6    0    0  0.12696041507E+02  0.74114496667E+01 -0.12258462072E+00  0.14701874306E+02  0.10500000000E+00 0. -1.
         13    1    6    6    0    0  0.17598086292E+02  0.10309868823E+02 -0.18871167387E-01  0.20396014743E+02  0.10500000000E+00 0.  1.
</event>
<event>
11    0  0.3443539E-009  0.9118800E+02  0.7816531E-02  0.1126479E+00
         25   -1    0    0    0    0  0.00000000000E+00  0.00000000000E+00  0.99999998245E-14  0.12500000000E+03  0.12500000000E+03 0.  0.
    3000001    1    3    3    0    0  0.48235313336E+01  0.33794337258E+02  0.25876732425E+02  0.42847741670E+02  0.10000000000E+01 0. -1.
    1000022    2    1    0    0    0  0.13628814430E+01  0.46726950850E+02  0.40261453410E+02  0.62500000822E+02  0.10000004528E+02 0.  0.
    3000022    2    3    3    0    0 -0.34606498906E+01  0.12932613592E+02  0.14384720985E+02  0.19652259152E+02  0.24999997881E+00 0.  0.
    1000022    2    1    0    0    0 -0.13628814430E+01 -0.46726950850E+02 -0.40261453410E+02  0.62499999178E+02  0.99999942520E+01 0.  0.
    3000022    2    5    5    0    0  0.25504485191E+01 -0.33996902067E+02 -0.32226699095E+02  0.46913929426E+02  0.25000373221E+00 0.  0.
        -13    1    4    4    0    0 -0.15376391871E+01  0.59455898393E+01  0.66614845539E+01  0.90609477577E+01  0.10500000000E+00 0.  1.
         13    1    4    4    0    0 -0.19230107035E+01  0.69870237524E+01  0.77232364310E+01  0.10591311394E+02  0.10500000000E+00 0. -1.
    3000001    1    5    5    0    0 -0.39133299622E+01 -0.12730048783E+02 -0.80347543152E+01  0.15586069752E+02  0.10000000000E+01 0.  1.
        -13    1    6    6    0    0  0.16546722663E+01 -0.21748482232E+02 -0.20690886171E+02  0.30064234819E+02  0.10500000000E+00 0.  1.
         13    1    6    6    0    0  0.89577625285E+00 -0.12248419835E+02 -0.11535812924E+02  0.16849694607E+02  0.10500000000E+00 0. -1.
</event>
<event>
11    0  0.3443539E-009  0.9118800E+02  0.7816531E-02  0.1126479E+00
         25   -1    0    0    0    0  0.00000000000E+00  0.00000000000E+00  0.99999998245E-14  0.12500000000E+03  0.12500000000E+03 0.  0.
    3000001    1    3    3    0    0  0.12470902321E+02  0.40204396588E+02  0.13181798269E+02  0.44121159496E+02  0.10000000000E+01 0.  1.
    1000022    2    1    0    0    0  0.18492919318E+02  0.57547046373E+02  0.12353071729E+02  0.62499991824E+02  0.99999992854E+01 0.  0.
    3000022    2    3    3    0    0  0.60220169973E+01  0.17342649785E+02 -0.82872654002E+00  0.18378832328E+02  0.24999953922E+00 0.  0.
    1000022    2    1    0    0    0 -0.18492919318E+02 -0.57547046373E+02 -0.12353071729E+02  0.62500008176E+02  0.10000101486E+02 0.  0.
    3000022    2    5    5    0    0 -0.10936928409E+02 -0.46110066722E+02 -0.11281070673E+02  0.48714265962E+02  0.24999300618E+00 0.  0.
        -13    1    4    4    0    0  0.23517234980E+01  0.66504008884E+01 -0.27198148938E+00  0.70599882661E+01  0.10500000000E+00 0. -1.
         13    1    4    4    0    0  0.36702934993E+01  0.10692248897E+02 -0.55674505064E+00  0.11318844062E+02  0.10500000000E+00 0.  1.
    3000001    1    5    5    0    0 -0.75559909085E+01 -0.11436979650E+02 -0.10720010565E+01  0.13785742214E+02  0.10000000000E+01 0.  1.
        -13    1    6    6    0    0 -0.43392783877E+01 -0.18054430816E+02 -0.44493648588E+01  0.19094493490E+02  0.10500000000E+00 0. -1.
         13    1    6    6    0    0 -0.65976500218E+01 -0.28055635907E+02 -0.68317058140E+01  0.29619772471E+02  0.10500000000E+00 0.  1.
</event>
<event>
11    0  0.3443539E-009  0.9118800E+02  0.7816531E-02  0.1126479E+00
         25   -1    0    0    0    0  0.00000000000E+00  0.00000000000E+00  0.99999998245E-14  0.12500000000E+03  0.12500000000E+03 0.  0.
    3000001    1    3    3    0    0  0.34112010126E+01  0.24005199122E+02  0.21379138005E+02  0.32341203117E+02  0.10000000000E+01 0. -1.
    1000022    2    1    0    0    0  0.12559379125E+02  0.49545698221E+02  0.34550480969E+02  0.62500000015E+02  0.10000002523E+02 0.  0.
    3000022    2    3    3    0    0  0.91481781121E+01  0.25540499099E+02  0.13171342964E+02  0.30158796897E+02  0.24999567311E+00 0.  0.
    1000022    2    1    0    0    0 -0.12559379125E+02 -0.49545698221E+02 -0.34550480969E+02  0.62499999985E+02  0.10000002339E+02 0.  0.
    3000022    2    5    5    0    0 -0.75026679822E+01 -0.20600878205E+02 -0.95831422927E+01  0.23928755075E+02  0.24998716005E+00 0.  0.
        -13    1    4    4    0    0  0.33409681692E+01  0.92224727593E+01  0.48138857995E+01  0.10927057865E+02  0.10500000000E+00 0. -1.
         13    1    4    4    0    0  0.58072099430E+01  0.16318026339E+02  0.83574571645E+01  0.19231739032E+02  0.10500000000E+00 0.  1.
    3000001    1    5    5    0    0 -0.50567111426E+01 -0.28944820016E+02 -0.24967338677E+02  0.38571244910E+02  0.10000000000E+01 0.  1.
        -13    1    6    6    0    0 -0.51026910334E+01 -0.13893932564E+02 -0.64335310234E+01  0.16139397892E+02  0.10500000000E+00 0.  1.
         13    1    6    6    0    0 -0.23999769488E+01 -0.67069456407E+01 -0.31496112694E+01  0.77893571834E+01  0.10500000000E+00 0. -1.
</event>
<event>
11    0  0.3443539E-009  0.9118800E+02  0.7816531E-02  0.1126479E+00
         25   -1    0    0    0    0  0.00000000000E+00  0.00000000000E+00  0.99999998245E-14  0.12500000000E+03  0.12500000000E+03 0.  0.
    3000001    1    3    3    0    0  0.69292373259E+01 -0.19797986135E+02  0.32082204933E+02  0.38343740797E+02  0.10000000000E+01 0. -1.
    1000022    2    1    0    0    0  0.17259529795E+02 -0.34874041733E+02  0.47876507835E+02  0.62500000793E+02  0.99999970573E+01 0.  0.
    3000022    2    3    3    0    0  0.10330292469E+02 -0.15076055598E+02  0.15794302902E+02  0.24156259996E+02  0.24999594102E+00 0.  0.
    1000022    2    1    0    0    0 -0.17259529795E+02  0.34874041733E+02 -0.47876507835E+02  0.62499999207E+02  0.99999871446E+01 0.  0.
    3000022    2    5    5    0    0 -0.21042605649E+00 -0.26686667932E+00 -0.28670699099E+01  0.28979448412E+01  0.24999496816E+00 0.  0.
        -13    1    4    4    0    0  0.27370082249E+01 -0.39783870418E+01  0.41312745320E+01  0.63558816647E+01  0.10500000000E+00 0. -1.
         13    1    4    4    0    0  0.75932842441E+01 -0.11097668556E+02  0.11663028370E+02  0.17800378331E+02  0.10500000000E+00 0.  1.
    3000001    1    5    5    0    0 -0.17049103738E+02  0.35140908412E+02 -0.45009437925E+02  0.59602054366E+02  0.10000000000E+01 0. -1.
        -13    1    6    6    0    0 -0.95000405507E-01 -0.20539185183E+00 -0.14964053119E+01  0.15170579248E+01  0.10500000000E+00 0. -1.
         13    1    6    6    0    0 -0.11542565099E+00 -0.61474827492E-01 -0.13706645981E+01  0.13808869163E+01  0.10500000000E+00 0.  1.
</event>
<event>
11    0  0.3443539E-009  0.9118800E+02  0.7816531E-02  0.1126479E+00
         25   -1    0    0    0    0  0.00000000000E+00  0.00000000000E+00  0.99999998245E-14  0.12500000000E+03  0.12500000000E+03 0.  0.
    3000001    1    3    3    0    0 -0.15696552860E+02 -0.77179877175E+01 -0.87377515163E+01  0.19577982727E+02  0.10000000000E+01 0.  1.
    1000022    2    1    0    0    0 -0.52385340847E+02 -0.10559096236E+02 -0.30830691710E+02  0.62500000104E+02  0.10000000638E+02 0.  0.
    3000022    2    3    3    0    0 -0.36688787987E+02 -0.28411085185E+01 -0.22092940194E+02  0.42922017377E+02  0.25001556235E+00 0.  0.
    1000022    2    1    0    0    0  0.52385340847E+02  0.10559096236E+02  0.30830691710E+02  0.62499999896E+02  0.99999993355E+01 0.  0.
    3000022    2    5    5    0    0  0.16020665982E+02 -0.10080662623E+01  0.11200319590E+02  0.19575177988E+02  0.24999647046E+00 0.  0.
        -13    1    4    4    0    0 -0.21082959862E+02 -0.15787082655E+01 -0.12736077460E+02  0.24682022007E+02  0.10500000000E+00 0. -1.
         13    1    4    4    0    0 -0.15605828125E+02 -0.12624002531E+01 -0.93568627339E+01  0.18239995370E+02  0.10500000000E+00 0.  1.
    3000001    1    5    5    0    0  0.36364674865E+02  0.11567162498E+02  0.19630372120E+02  0.42924821908E+02  0.10000000000E+01 0. -1.
        -13    1    6    6    0    0  0.90691940695E+01 -0.51887221423E+00  0.63876117341E+01  0.11105499453E+02  0.10500000000E+00 0. -1.
         13    1    6    6    0    0  0.69514719127E+01 -0.48919404805E+00  0.48127078555E+01  0.84696785342E+01  0.10500000000E+00 0.  1.
</event>
<event>
11    0  0.3443539E-009  0.9118800E+02  0.7816531E-02  0.1126479E+00
         25   -1    0    0    0    0  0.00000000000E+00  0.00000000000E+00  0.99999998245E-14  0.12500000000E+03  0.12500000000E+03 0.  0.
    3000001    1    3    3    0    0  0.18640702390E+02  0.23762088040E+02 -0.23579322570E+01  0.30309609996E+02  0.10000000000E+01 0. -1.
    1000022    2    1    0    0    0  0.37817245258E+02  0.48456670400E+02  0.52969042649E+01  0.62500000184E+02  0.99999941506E+01 0.  0.
    3000022    2    3    3    0    0  0.19176542868E+02  0.24694582360E+02  0.76548365218E+01  0.32190390188E+02  0.25000784624E+00 0.  0.
    1000022    2    1    0    0    0 -0.37817245258E+02 -0.48456670400E+02 -0.52969042649E+01  0.62499999816E+02  0.99999918525E+01 0.  0.
    3000022    2    5    5    0    0 -0.15042840886E+02 -0.24508523297E+02 -0.62235812822E+01  0.29423634017E+02  0.24999734511E+00 0.  0.
        -13    1    4    4    0    0  0.53301114634E+01  0.68546928796E+01  0.21656221928E+01  0.89497400615E+01  0.10500000000E+00 0. -1.
         13    1    4    4    0    0  0.13846431405E+02  0.17839889481E+02  0.54892143290E+01  0.23240650126E+02  0.10500000000E+00 0.  1.
    3000001    1    5    5    0    0 -0.22774404372E+02 -0.23948147103E+02  0.92667701731E+00  0.33076365799E+02  0.10000000000E+01 0.  1.
        -13    1    6    6    0    0 -0.50630508718E+01 -0.81792104136E+01 -0.21222828016E+01  0.98513489640E+01  0.10500000000E+00 0.  1.
         13    1    6    6    0    0 -0.99797900139E+01 -0.16329312884E+02 -0.41012984806E+01  0.19572285053E+02  0.10500000000E+00 0. -1.
</event>
<event>
11    0  0.3443539E-009  0.9118800E+02  0.7816531E-02  0.1126479E+00
         25   -1    0    0    0    0  0.00000000000E+00  0.00000000000E+00  0.99999998245E-14  0.12500000000E+03  0.12500000000E+03 0.  0.
    3000001    1    3    3    0    0 -0.71197497050E+01  0.13945669063E+02 -0.13298378668E+01  0.15746142075E+02  0.10000000000E+01 0.  1.
    1000022    2    1    0    0    0 -0.12145085814E+02  0.60317662752E+02 -0.45306158940E+01  0.62500000538E+02  0.10000001877E+02 0.  0.
    3000022    2    3    3    0    0 -0.50253361087E+01  0.46371993689E+02 -0.32007780272E+01  0.46753858463E+02  0.24999903498E+00 0.  0.
    1000022    2    1    0    0    0  0.12145085814E+02 -0.60317662752E+02  0.45306158940E+01  0.62499999462E+02  0.99999951546E+01 0.  0.
    3000022    2    5    5    0    0  0.13626106182E+02 -0.56153222203E+02  0.46168294098E+01  0.57967514582E+02  0.24999906413E+00 0.  0.
        -13    1    4    4    0    0 -0.31109780900E+01  0.29258420431E+02 -0.20182080752E+01  0.29492669253E+02  0.10500000000E+00 0. -1.
         13    1    4    4    0    0 -0.19143580188E+01  0.17113573258E+02 -0.11825699520E+01  0.17261189210E+02  0.10500000000E+00 0.  1.
    3000001    1    5    5    0    0 -0.14810203687E+01 -0.41644405490E+01 -0.86213515782E-01  0.45324848802E+01  0.10000000000E+01 0.  1.
        -13    1    6    6    0    0  0.62570922660E+01 -0.25533975380E+02  0.20695122831E+01  0.26370988006E+02  0.10500000000E+00 0.  1.
         13    1    6    6    0    0  0.73690139164E+01 -0.30619246823E+02  0.25473171266E+01  0.31596526576E+02  0.10500000000E+00 0. -1.
</event>
<event>
11    0  0.3443539E-009  0.9118800E+02  0.7816531E-02  0.1126479E+00
         25   -1    0    0    0    0  0.00000000000E+00  0.00000000000E+00  0.99999998245E-14  0.12500000000E+03  0.12500000000E+03 0.  0.
    3000001    1    3    3    0    0 -0.24001541721E+00 -0.68426871992E+00 -0.14608471363E+02  0.14660602533E+02  0.10000000000E+01 0.  1.
    1000022    2    1    0    0    0  0.54532328873E+01  0.13359522884E+02 -0.59983623433E+02  0.62500001419E+02  0.10000024836E+02 0.  0.
    3000022    2    3    3    0    0  0.56932483045E+01  0.14043791604E+02 -0.45375152070E+02  0.47839398886E+02  0.25000312446E+00 0.  0.
    1000022    2    1    0    0    0 -0.54532328873E+01 -0.13359522884E+02  0.59983623433E+02  0.62499998581E+02  0.10000007093E+02 0.  0.
    3000022    2    5    5    0    0 -0.16884316976E+01 -0.55971202414E+01  0.43276589011E+02  0.43670404269E+02  0.24999196519E+00 0.  0.
        -13    1    4    4    0    0  0.28847816906E+01  0.69755328569E+01 -0.22736321620E+02  0.23956864775E+02  0.10500000000E+00 0.  1.
         13    1    4    4    0    0  0.28084666139E+01  0.70682587469E+01 -0.22638830450E+02  0.23882534111E+02  0.10500000000E+00 0. -1.
    3000001    1    5    5    0    0 -0.37648011897E+01 -0.77624026424E+01  0.16707034422E+02  0.18829594312E+02  0.10000000000E+01 0.  1.
        -13    1    6    6    0    0 -0.10637942044E+01 -0.35222228170E+01  0.27671014156E+02  0.27914758840E+02  0.10500000000E+00 0.  1.
         13    1    6    6    0    0 -0.62463749321E+00 -0.20748974244E+01  0.15605574855E+02  0.15755645428E+02  0.10500000000E+00 0. -1.
</event>
<event>
11    0  0.3443539E-009  0.9118800E+02  0.7816531E-02  0.1126479E+00
         25   -1    0    0    0    0  0.00000000000E+00  0.00000000000E+00  0.99999998245E-14  0.12500000000E+03  0.12500000000E+03 0.  0.
    3000001    1    3    3    0    0  0.70391232186E+01 -0.22294336362E+02 -0.47175163910E+02  0.52660068168E+02  0.10000000000E+01 0.  1.
    1000022    2    1    0    0    0  0.41857836362E+01 -0.25455582597E+02 -0.56042331984E+02  0.62499996499E+02  0.99999559042E+01 0.  0.
    3000022    2    3    3    0    0 -0.28533395824E+01 -0.31612462344E+01 -0.88671680743E+01  0.98399283304E+01  0.24999072823E+00 0.  0.
    1000022    2    1    0    0    0 -0.41857836362E+01  0.25455582597E+02  0.56042331984E+02  0.62500003501E+02  0.99999996707E+01 0.  0.
    3000022    2    5    5    0    0 -0.24585384909E+01  0.90832002215E+01  0.10701884351E+02  0.14252781073E+02  0.25000376100E+00 0.  0.
        -13    1    4    4    0    0 -0.20786673486E+01 -0.23346826992E+01 -0.65642381979E+01  0.72713031412E+01  0.10500000000E+00 0.  1.
         13    1    4    4    0    0 -0.77467223384E+00 -0.82656353520E+00 -0.23029298764E+01  0.25686251893E+01  0.10500000000E+00 0. -1.
    3000001    1    5    5    0    0 -0.17272451453E+01  0.16372382375E+02  0.45340447633E+02  0.48247222428E+02  0.10000000000E+01 0.  1.
        -13    1    6    6    0    0 -0.16850709267E+01  0.60640985938E+01  0.72053039287E+01  0.95676635334E+01  0.10500000000E+00 0.  1.
         13    1    6    6    0    0 -0.77346756417E+00  0.30191016277E+01  0.34965804223E+01  0.46851175397E+01  0.10500000000E+00 0. -1.
</event>
<event>
11    0  0.3443539E-009  0.9118800E+02  0.7816531E-02  0.1126479E+00
         25   -1    0    0    0    0  0.00000000000E+00  0.00000000000E+00  0.99999998245E-14  0.12500000000E+03  0.12500000000E+03 0.  0.
    3000001    1    3    3    0    0 -0.19430100569E+00 -0.65467547376E+00  0.29032147866E+01  0.31456333152E+01  0.10000000000E+01 0.  1.
    1000022    2    1    0    0    0 -0.39588715491E+02 -0.17781238307E+01  0.47284476752E+02  0.62500000821E+02  0.10000012117E+02 0.  0.
    3000022    2    3    3    0    0 -0.39394414486E+02 -0.11234483569E+01  0.44381261965E+02  0.59354367506E+02  0.24999904605E+00 0.  0.
    1000022    2    1    0    0    0  0.39588715491E+02  0.17781238307E+01 -0.47284476752E+02  0.62499999179E+02  0.10000001853E+02 0.  0.
    3000022    2    5    5    0    0  0.17444484608E+02 -0.16695103070E+01 -0.27382681954E+02  0.32511091584E+02  0.24999415231E+00 0.  0.
        -13    1    4    4    0    0 -0.12994965793E+02 -0.37320658526E+00  0.14560891082E+02  0.19520220112E+02  0.10500000000E+00 0. -1.
         13    1    4    4    0    0 -0.26399448692E+02 -0.75024177164E+00  0.29820370883E+02  0.39834147394E+02  0.10500000000E+00 0.  1.
    3000001    1    5    5    0    0  0.22144230883E+02  0.34476341376E+01 -0.19901794798E+02  0.29988907595E+02  0.10000000000E+01 0.  1.
        -13    1    6    6    0    0  0.64391569606E+01 -0.56928216140E+00 -0.10033444706E+02  0.11935990206E+02  0.10500000000E+00 0. -1.
         13    1    6    6    0    0  0.11005327647E+02 -0.11002281456E+01 -0.17349237249E+02  0.20575101378E+02  0.10500000000E+00 0.  1.
</event>
<event>
11    0  0.3443539E-009  0.9118800E+02  0.7816531E-02  0.1126479E+00
         25   -1    0    0    0    0  0.00000000000E+00  0.00000000000E+00  0.99999998245E-14  0.12500000000E+03  0.12500000000E+03 0.  0.
    3000001    1    3    3    0    0 -0.19848897707E+02  0.23698034950E+02 -0.21563778014E+00  0.30929308113E+02  0.10000000000E+01 0.  1.
    1000022    2    1    0    0    0 -0.37862299634E+02  0.47636643105E+02 -0.10170861066E+02  0.62499999924E+02  0.10000003789E+02 0.  0.
    3000022    2    3    3    0    0 -0.18013401927E+02  0.23938608155E+02 -0.99552232862E+01  0.31570691811E+02  0.25000277895E+00 0.  0.
    1000022    2    1    0    0    0  0.37862299634E+02 -0.47636643105E+02  0.10170861066E+02  0.62500000076E+02  0.10000004736E+02 0.  0.
    3000022    2    5    5    0    0  0.24387107538E+02 -0.22986428562E+02  0.66850448099E+01  0.34173955628E+02  0.25001417722E+00 0.  0.
        -13    1    4    4    0    0 -0.10240509628E+02  0.13539775672E+02 -0.55874144447E+01  0.17872430945E+02  0.10500000000E+00 0.  1.
         13    1    4    4    0    0 -0.77728922984E+01  0.10398832482E+02 -0.43678088414E+01  0.13698260866E+02  0.10500000000E+00 0. -1.
    3000001    1    5    5    0    0  0.13475192097E+02 -0.24650214543E+02  0.34858162564E+01  0.28326044448E+02  0.10000000000E+01 0. -1.
        -13    1    6    6    0    0  0.11824926892E+02 -0.11127991242E+02  0.31712584470E+01  0.16544757182E+02  0.10500000000E+00 0. -1.
         13    1    6    6    0    0  0.12562180645E+02 -0.11858437320E+02  0.35137863629E+01  0.17629198446E+02  0.10500000000E+00 0.  1.
</event>
<event>
11    0  0.3443539E-009  0.9118800E+02  0.7816531E-02  0.1126479E+00
         25   -1    0    0    0    0  0.00000000000E+00  0.00000000000E+00  0.99999998245E-14  0.12500000000E+03  0.12500000000E+03 0.  0.
    3000001    1    3    3    0    0  0.52822463198E+01 -0.15283195966E+01 -0.14582840235E+02  0.15617205777E+02  0.10000000000E+01 0. -1.
    1000022    2    1    0    0    0  0.13039353349E+02  0.87370693615E+01 -0.59664801134E+02  0.62500002424E+02  0.10000034592E+02 0.  0.
    3000022    2    3    3    0    0  0.77571070294E+01  0.10265388958E+02 -0.45081960899E+02  0.46882796647E+02  0.25000596447E+00 0.  0.
    1000022    2    1    0    0    0 -0.13039353349E+02 -0.87370693615E+01  0.59664801134E+02  0.62499997576E+02  0.10000004288E+02 0.  0.
    3000022    2    5    5    0    0 -0.14434865265E+02 -0.66132629157E+01  0.51012380654E+02  0.53426829028E+02  0.24999677026E+00 0.  0.
        -13    1    4    4    0    0  0.41686219717E+01  0.54099417990E+01 -0.23854443264E+02  0.24813108790E+02  0.10500000000E+00 0.  1.
         13    1    4    4    0    0  0.35884850577E+01  0.48554471591E+01 -0.21227517636E+02  0.22069687857E+02  0.10500000000E+00 0. -1.
    3000001    1    5    5    0    0  0.13955119156E+01 -0.21238064458E+01  0.86524204802E+01  0.90731685475E+01  0.10000000000E+01 0. -1.
        -13    1    6    6    0    0 -0.96877760721E+01 -0.44715513235E+01  0.34134050171E+02  0.35763000189E+02  0.10500000000E+00 0.  1.
         13    1    6    6    0    0 -0.47470891927E+01 -0.21417115922E+01  0.16878330483E+02  0.17663828839E+02  0.10500000000E+00 0. -1.
</event>
<event>
11    0  0.3443539E-009  0.9118800E+02  0.7816531E-02  0.1126479E+00
         25   -1    0    0    0    0  0.00000000000E+00  0.00000000000E+00  0.99999998245E-14  0.12500000000E+03  0.12500000000E+03 0.  0.
    3000001    1    3    3    0    0  0.31374477004E+02  0.11158595496E+02  0.24468830940E+02  0.41335163581E+02  0.10000000000E+01 0.  1.
    1000022    2    1    0    0    0  0.48517958162E+02  0.21326679617E+02  0.31582122431E+02  0.62499999672E+02  0.99999987050E+01 0.  0.
    3000022    2    3    3    0    0  0.17143481158E+02  0.10168084121E+02  0.71132914912E+01  0.21164836091E+02  0.24998004110E+00 0.  0.
    1000022    2    1    0    0    0 -0.48517958162E+02 -0.21326679617E+02 -0.31582122431E+02  0.62500000328E+02  0.10000002803E+02 0.  0.
    3000022    2    5    5    0    0 -0.37933556797E+02 -0.12044797097E+02 -0.22569078335E+02  0.45754318520E+02  0.24999576178E+00 0.  0.
        -13    1    4    4    0    0  0.82400857803E+01  0.49578347582E+01  0.34000141125E+01  0.10200502935E+02  0.10500000000E+00 0. -1.
         13    1    4    4    0    0  0.89033953775E+01  0.52102493628E+01  0.37132773787E+01  0.10964333156E+02  0.10500000000E+00 0.  1.
    3000001    1    5    5    0    0 -0.10584401364E+02 -0.92818825194E+01 -0.90130440960E+01  0.16745681808E+02  0.10000000000E+01 0.  1.
        -13    1    6    6    0    0 -0.22548393477E+02 -0.71306565296E+01 -0.13344556636E+02  0.27154456868E+02  0.10500000000E+00 0.  1.
         13    1    6    6    0    0 -0.15385163320E+02 -0.49141405678E+01 -0.92245216991E+01  0.18599861652E+02  0.10500000000E+00 0. -1.
</event>
<event>
11    0  0.3443539E-009  0.9118800E+02  0.7816531E-02  0.1126479E+00
         25   -1    0    0    0    0  0.00000000000E+00  0.00000000000E+00  0.99999998245E-14  0.12500000000E+03  0.12500000000E+03 0.  0.
    3000001    1    3    3    0    0 -0.29507312875E+01 -0.16865593649E+02  0.47877405004E+02  0.50856670892E+02  0.10000000000E+01 0.  1.
    1000022    2    1    0    0    0 -0.71725174099E+01 -0.17573782913E+02  0.58702359066E+02  0.62500001319E+02  0.10000017651E+02 0.  0.
    3000022    2    3    3    0    0 -0.42217861224E+01 -0.70818926458E+00  0.10824954062E+02  0.11643330427E+02  0.25000577916E+00 0.  0.
    1000022    2    1    0    0    0  0.71725174099E+01  0.17573782913E+02 -0.58702359066E+02  0.62499998681E+02  0.10000001169E+02 0.  0.
    3000022    2    5    5    0    0  0.31072657524E+01  0.10176915144E+02 -0.17930189970E+02  0.20851352885E+02  0.25000497610E+00 0.  0.
        -13    1    4    4    0    0 -0.12839744920E+01 -0.25189218333E+00  0.33982653341E+01  0.36429757684E+01  0.10500000000E+00 0.  1.
         13    1    4    4    0    0 -0.29378116304E+01 -0.45629708126E+00  0.74266887279E+01  0.80003546586E+01  0.10500000000E+00 0. -1.
    3000001    1    5    5    0    0  0.40652516575E+01  0.73968677692E+01 -0.40772169096E+02  0.41648645796E+02  0.10000000000E+01 0. -1.
        -13    1    6    6    0    0  0.15315092891E+01  0.49825809881E+01 -0.86522753351E+01  0.10101709137E+02  0.10500000000E+00 0.  1.
         13    1    6    6    0    0  0.15757564633E+01  0.51943341562E+01 -0.92779146348E+01  0.10749643749E+02  0.10500000000E+00 0. -1.
</event>
<event>
11    0  0.3443539E-009  0.9118800E+02  0.7816531E-02  0.1126479E+00
         25   -1    0    0    0    0  0.00000000000E+00  0.00000000000E+00  0.99999998245E-14  0.12500000000E+03  0.12500000000E+03 0.  0.
    3000001    1    3    3    0    0 -0.48187283849E+02 -0.15709682888E+02  0.31399993829E+02  0.59630261391E+02  0.10000000000E+01 0.  1.
    1000022    2    1    0    0    0 -0.49904103143E+02 -0.17993540657E+02  0.31497030892E+02  0.62499998553E+02  0.99999924078E+01 0.  0.
    3000022    2    3    3    0    0 -0.17168192945E+01 -0.22838577693E+01  0.97037063566E-01  0.28697371615E+01  0.25000076723E+00 0.  0.
    1000022    2    1    0    0    0  0.49904103143E+02  0.17993540657E+02 -0.31497030892E+02  0.62500001447E+02  0.10000010497E+02 0.  0.
    3000022    2    5    5    0    0  0.35761199790E+02  0.14515308993E+02 -0.27415242297E+02  0.47341478798E+02  0.24999797997E+00 0.  0.
        -13    1    4    4    0    0 -0.56062710975E+00 -0.69029609162E+00  0.66019701457E-01  0.89788365130E+00  0.10500000000E+00 0.  1.
         13    1    4    4    0    0 -0.11561921848E+01 -0.15935616777E+01  0.31017362109E-01  0.19718535102E+01  0.10500000000E+00 0. -1.
    3000001    1    5    5    0    0  0.14142903353E+02  0.34782316643E+01 -0.40817885954E+01  0.15158522649E+02  0.10000000000E+01 0. -1.
        -13    1    6    6    0    0  0.26978226323E+02  0.10969858344E+02 -0.20705235112E+02  0.35733461541E+02  0.10500000000E+00 0. -1.
         13    1    6    6    0    0  0.87829734666E+01  0.35454506492E+01 -0.67100071845E+01  0.11608017257E+02  0.10500000000E+00 0.  1.
</event>
<event>
11    0  0.3443539E-009  0.9118800E+02  0.7816531E-02  0.1126479E+00
         25   -1    0    0    0    0  0.00000000000E+00  0.00000000000E+00  0.99999998245E-14  0.12500000000E+03  0.12500000000E+03 0.  0.
    3000001    1    3    3    0    0 -0.15406687320E+02  0.27327914156E+02  0.24831537442E+02  0.40022320747E+02  0.10000000000E+01 0. -1.
    1000022    2    1    0    0    0 -0.21537606861E+02  0.47170189606E+02  0.33426855429E+02  0.62499999946E+02  0.10000001626E+02 0.  0.
    3000022    2    3    3    0    0 -0.61309195413E+01  0.19842275450E+02  0.85953179876E+01  0.22477679198E+02  0.25000273947E+00 0.  0.
    1000022    2    1    0    0    0  0.21537606861E+02 -0.47170189606E+02 -0.33426855429E+02  0.62500000054E+02  0.10000002305E+02 0.  0.
    3000022    2    5    5    0    0  0.36406907709E+01 -0.19339735645E+02 -0.11526695830E+02  0.22808051706E+02  0.25000348972E+00 0.  0.
        -13    1    4    4    0    0 -0.26776024356E+01  0.88587422340E+01  0.38673066860E+01  0.10030650765E+02  0.10500000000E+00 0.  1.
         13    1    4    4    0    0 -0.34533171057E+01  0.10983533216E+02  0.47280113016E+01  0.12447028433E+02  0.10500000000E+00 0. -1.
    3000001    1    5    5    0    0  0.17896916090E+02 -0.27830453961E+02 -0.21900159599E+02  0.39691948349E+02  0.10000000000E+01 0. -1.
        -13    1    6    6    0    0  0.23943628819E+01 -0.12648191348E+02 -0.76024993233E+01  0.14950543099E+02  0.10500000000E+00 0. -1.
         13    1    6    6    0    0  0.12463278889E+01 -0.66915442971E+01 -0.39241965065E+01  0.78575086070E+01  0.10500000000E+00 0.  1.
</event>
<event>
11    0  0.3443539E-009  0.9118800E+02  0.7816531E-02  0.1126479E+00
         25   -1    0    0    0    0  0.00000000000E+00  0.00000000000E+00  0.99999998245E-14  0.12500000000E+03  0.12500000000E+03 0.  0.
    3000001    1    3    3    0    0  0.34877975598E+02  0.87069000232E+01  0.19322301259E+02  0.40824436503E+02  0.10000000000E+01 0. -1.
    1000022    2    1    0    0    0  0.50538623591E+02  0.86716658177E+01  0.34305978854E+02  0.62500004155E+02  0.10000003586E+02 0.  0.
    3000022    2    3    3    0    0  0.15660647992E+02 -0.35234205543E-01  0.14983677595E+02  0.21675567651E+02  0.25000353496E+00 0.  0.
    1000022    2    1    0    0    0 -0.50538623591E+02 -0.86716658177E+01 -0.34305978854E+02  0.62499995845E+02  0.99999516507E+01 0.  0.
    3000022    2    5    5    0    0 -0.68859592553E+01  0.22169963103E+01 -0.45054358568E+01  0.85260166566E+01  0.25000052708E+00 0.  0.
        -13    1    4    4    0    0  0.88557618651E+01  0.44064104138E-01  0.84939175202E+01  0.12271272130E+02  0.10500000000E+00 0.  1.
         13    1    4    4    0    0  0.68048861272E+01 -0.79298309681E-01  0.64897600745E+01  0.94042955212E+01  0.10500000000E+00 0. -1.
    3000001    1    5    5    0    0 -0.43652664335E+02 -0.10888662128E+02 -0.29800542997E+02  0.53973979189E+02  0.10000000000E+01 0. -1.
        -13    1    6    6    0    0 -0.52146380920E+01  0.16907283411E+01 -0.33915444718E+01  0.64470622502E+01  0.10500000000E+00 0. -1.
         13    1    6    6    0    0 -0.16713211633E+01  0.52626796918E+00 -0.11138913851E+01  0.20789544064E+01  0.10500000000E+00 0.  1.
</event>
<event>
11    0  0.3443539E-009  0.9118800E+02  0.7816531E-02  0.1126479E+00
         25   -1    0    0    0    0  0.00000000000E+00  0.00000000000E+00  0.99999998245E-14  0.12500000000E+03  0.12500000000E+03 0.  0.
    3000001    1    3    3    0    0  0.20284205509E+01  0.30383011310E+00 -0.13499071931E+01  0.26512359568E+01  0.10000000000E+01 0. -1.
    1000022    2    1    0    0    0  0.30004297092E+02 -0.27374221552E+02 -0.46439683583E+02  0.62500000776E+02  0.10000001810E+02 0.  0.
    3000022    2    3    3    0    0  0.27975876541E+02 -0.27678051665E+02 -0.45089776390E+02  0.59848764820E+02  0.25000665085E+00 0.  0.
    1000022    2    1    0    0    0 -0.30004297092E+02  0.27374221552E+02  0.46439683583E+02  0.62499999224E+02  0.99999921059E+01 0.  0.
    3000022    2    5    5    0    0 -0.15830811912E+01  0.10441465708E+01  0.67933138565E+01  0.70574794913E+01  0.25003099470E+00 0.  0.
        -13    1    4    4    0    0  0.18192677020E+02 -0.18060946952E+02 -0.29318153400E+02  0.38945300688E+02  0.10500000000E+00 0. -1.
         13    1    4    4    0    0  0.97831995213E+01 -0.96171047134E+01 -0.15771622990E+02  0.20903464131E+02  0.10500000000E+00 0.  1.
    3000001    1    5    5    0    0 -0.28421215900E+02  0.26330074981E+02  0.39646369726E+02  0.55442519732E+02  0.10000000000E+01 0.  1.
        -13    1    6    6    0    0 -0.52835817675E+00  0.41461761610E+00  0.23591119091E+01  0.24550975806E+01  0.10500000000E+00 0.  1.
         13    1    6    6    0    0 -0.10547230145E+01  0.62952895475E+00  0.44342019474E+01  0.46023819107E+01  0.10500000000E+00 0. -1.
</event>
<event>
11    0  0.3443539E-009  0.9118800E+02  0.7816531E-02  0.1126479E+00
         25   -1    0    0    0    0  0.00000000000E+00  0.00000000000E+00  0.99999998245E-14  0.12500000000E+03  0.12500000000E+03 0.  0.
    3000001    1    3    3    0    0  0.26762561125E+02 -0.50592942760E+02 -0.19352129299E+01  0.57276745580E+02  0.10000000000E+01 0.  1.
    1000022    2    1    0    0    0  0.30858138809E+02 -0.53421781231E+02 -0.37194912188E+00  0.62499999200E+02  0.10000005659E+02 0.  0.
    3000022    2    3    3    0    0  0.40955776842E+01 -0.28288384703E+01  0.15632638081E+01  0.52232536198E+01  0.25000196994E+00 0.  0.
    1000022    2    1    0    0    0 -0.30858138809E+02  0.53421781231E+02  0.37194912188E+00  0.62500000800E+02  0.10000015664E+02 0.  0.
    3000022    2    5    5    0    0 -0.24034646456E+01  0.11278913477E+02 -0.13349719692E+01  0.11611855188E+02  0.24999844805E+00 0.  0.
        -13    1    4    4    0    0  0.19927238393E+01 -0.13157289532E+01  0.79770559839E+00  0.25198115405E+01  0.10500000000E+00 0.  1.
         13    1    4    4    0    0  0.21028538449E+01 -0.15131095171E+01  0.76555820968E+00  0.27034420793E+01  0.10500000000E+00 0. -1.
    3000001    1    5    5    0    0 -0.28454674163E+02  0.42142867754E+02  0.17069210910E+01  0.50888145612E+02  0.10000000000E+01 0.  1.
        -13    1    6    6    0    0 -0.15792787429E+01  0.73442317734E+01 -0.92440162536E+00  0.75695049411E+01  0.10500000000E+00 0. -1.
         13    1    6    6    0    0 -0.82418590271E+00  0.39346817036E+01 -0.41057034379E+00  0.40423502469E+01  0.10500000000E+00 0.  1.
</event>
<event>
11    0  0.3443539E-009  0.9118800E+02  0.7816531E-02  0.1126479E+00
         25   -1    0    0    0    0  0.00000000000E+00  0.00000000000E+00  0.99999998245E-14  0.12500000000E+03  0.12500000000E+03 0.  0.
    3000001    1    3    3    0    0  0.15992925347E+02 -0.24349856095E+01  0.45800095650E+01  0.16842781946E+02  0.10000000000E+01 0. -1.
    1000022    2    1    0    0    0  0.61135924391E+02 -0.82289406146E+01  0.96627516454E+00  0.62500003192E+02  0.99999998217E+01 0.  0.
    3000022    2    3    3    0    0  0.45142999045E+02 -0.57939550051E+01 -0.36137344005E+01  0.45657221246E+02  0.24999641998E+00 0.  0.
    1000022    2    1    0    0    0 -0.61135924391E+02  0.82289406146E+01 -0.96627516454E+00  0.62499996808E+02  0.99999599270E+01 0.  0.
    3000022    2    5    5    0    0 -0.24215673286E+02  0.33830185992E+00 -0.42532446523E+01  0.24589954735E+02  0.25000585714E+00 0.  0.
        -13    1    4    4    0    0  0.10482540311E+02 -0.13560125482E+01 -0.83644507418E+00  0.10603446928E+02  0.10500000000E+00 0.  1.
         13    1    4    4    0    0  0.34660458734E+02 -0.44379424570E+01 -0.27772893263E+01  0.35053774317E+02  0.10500000000E+00 0. -1.
    3000001    1    5    5    0    0 -0.36920251105E+02  0.78906387547E+01  0.32869694877E+01  0.37910042074E+02  0.10000000000E+01 0. -1.
        -13    1    6    6    0    0 -0.94388858449E+01  0.12276377036E+00 -0.15956287974E+01  0.95741680158E+01  0.10500000000E+00 0. -1.
         13    1    6    6    0    0 -0.14776787441E+02  0.21553808956E+00 -0.26576158549E+01  0.15015786719E+02  0.10500000000E+00 0.  1.
</event>
<event>
11    0  0.3443539E-009  0.9118800E+02  0.7816531E-02  0.1126479E+00
         25   -1    0    0    0    0  0.00000000000E+00  0.00000000000E+00  0.99999998245E-14  0.12500000000E+03  0.12500000000E+03 0.  0.
    3000001    1    3    3    0    0 -0.36349690930E+02 -0.75783237030E+01  0.49700620942E+02  0.62047423338E+02  0.10000000000E+01 0.  1.
    1000022    2    1    0    0    0 -0.36270096046E+02 -0.74973184145E+01  0.49340858520E+02  0.62500000194E+02  0.10000002706E+02 0.  0.
    3000022    2    3    3    0    0  0.79594883914E-01  0.81005288586E-01 -0.35976242169E+00  0.45257685607E+00  0.24999921653E+00 0.  0.
    1000022    2    1    0    0    0  0.36270096046E+02  0.74973184145E+01 -0.49340858520E+02  0.62499999806E+02  0.10000000284E+02 0.  0.
    3000022    2    5    5    0    0  0.20728290707E+02  0.46850405644E+01 -0.35982120633E+02  0.41789797058E+02  0.24998450322E+00 0.  0.
        -13    1    4    4    0    0  0.10080314119E-01  0.97628388357E-01 -0.15304249854E+00  0.20995218814E+00  0.10500000000E+00 0. -1.
         13    1    4    4    0    0  0.69514569795E-01 -0.16623099771E-01 -0.20671992314E+00  0.24262466792E+00  0.10500000000E+00 0.  1.
    3000001    1    5    5    0    0  0.15541805339E+02  0.28122778501E+01 -0.13358737888E+02  0.20710202748E+02  0.10000000000E+01 0. -1.
        -13    1    6    6    0    0  0.94482253017E+01  0.21644460888E+01 -0.16292847189E+02  0.18958419837E+02  0.10500000000E+00 0.  1.
         13    1    6    6    0    0  0.11280065405E+02  0.25205944756E+01 -0.19689273444E+02  0.22831377221E+02  0.10500000000E+00 0. -1.
</event>
<event>
11    0  0.3443539E-009  0.9118800E+02  0.7816531E-02  0.1126479E+00
         25   -1    0    0    0    0  0.00000000000E+00  0.00000000000E+00  0.99999998245E-14  0.12500000000E+03  0.12500000000E+03 0.  0.
    3000001    1    3    3    0    0  0.66688469767E+01  0.73580284056E+01 -0.44037697759E+01  0.10909046258E+02  0.10000000000E+01 0. -1.
    1000022    2    1    0    0    0  0.27474944351E+02  0.54034159700E+02 -0.11475490726E+02  0.62500001399E+02  0.10000015295E+02 0.  0.
    3000022    2    3    3    0    0  0.20806097374E+02  0.46676131294E+02 -0.70717209502E+01  0.51590955141E+02  0.24998924037E+00 0.  0.
    1000022    2    1    0    0    0 -0.27474944351E+02 -0.54034159700E+02  0.11475490726E+02  0.62499998601E+02  0.99999978102E+01 0.  0.
    3000022    2    5    5    0    0 -0.57955899732E+01 -0.21920533715E+02  0.45387001649E+01  0.23124899320E+02  0.25001577279E+00 0.  0.
        -13    1    4    4    0    0  0.60058381769E+01  0.13498826999E+02 -0.20863277183E+01  0.14921535139E+02  0.10500000000E+00 0.  1.
         13    1    4    4    0    0  0.14800259197E+02  0.33177304296E+02 -0.49853932320E+01  0.36669420002E+02  0.10500000000E+00 0. -1.
    3000001    1    5    5    0    0 -0.21679354377E+02 -0.32113625985E+02  0.69367905613E+01  0.39375099282E+02  0.10000000000E+01 0.  1.
        -13    1    6    6    0    0 -0.42653699296E+01 -0.16016361975E+02  0.33375752115E+01  0.16907621502E+02  0.10500000000E+00 0.  1.
         13    1    6    6    0    0 -0.15302200437E+01 -0.59041717397E+01  0.12011249534E+01  0.62172778181E+01  0.10500000000E+00 0. -1.
</event>
<event>
11    0  0.3443539E-009  0.9118800E+02  0.7816531E-02  0.1126479E+00
         25   -1    0    0    0    0  0.00000000000E+00  0.00000000000E+00  0.99999998245E-14  0.12500000000E+03  0.12500000000E+03 0.  0.
    3000001    1    3    3    0    0  0.16593256499E+02 -0.56396068571E+02  0.67266450544E+01  0.59178547340E+02  0.10000000000E+01 0.  1.
    1000022    2    1    0    0    0  0.15194887088E+02 -0.59391671186E+02  0.69278259106E+01  0.62500000082E+02  0.10000001929E+02 0.  0.
    3000022    2    3    3    0    0 -0.13983694102E+01 -0.29956026142E+01  0.20118085619E+00  0.33214527426E+01  0.25000510941E+00 0.  0.
    1000022    2    1    0    0    0 -0.15194887088E+02  0.59391671186E+02 -0.69278259106E+01  0.62499999918E+02  0.10000000902E+02 0.  0.
    3000022    2    5    5    0    0 -0.11893558751E+02  0.39922902602E+02 -0.90030839027E+01  0.42619395936E+02  0.24999651117E+00 0.  0.
        -13    1    4    4    0    0 -0.59174103389E+00 -0.13787369671E+01  0.43702453741E-01  0.15046620817E+01  0.10500000000E+00 0. -1.
         13    1    4    4    0    0 -0.80662837626E+00 -0.16168656470E+01  0.15747840245E+00  0.18167906608E+01  0.10500000000E+00 0.  1.
    3000001    1    5    5    0    0 -0.33013283374E+01  0.19468768583E+02  0.20752579921E+01  0.19880603982E+02  0.10000000000E+01 0.  1.
        -13    1    6    6    0    0 -0.56945728050E+01  0.19337210881E+02 -0.43807598898E+01  0.20629056360E+02  0.10500000000E+00 0. -1.
         13    1    6    6    0    0 -0.61989859460E+01  0.20585691721E+02 -0.46223240129E+01  0.21990339576E+02  0.10500000000E+00 0.  1.
</event>
<event>
11    0  0.3443539E-009  0.9118800E+02  0.7816531E-02  0.1126479E+00
         25   -1    0    0    0    0  0.00000000000E+00  0.00000000000E+00  0.99999998245E-14  0.12500000000E+03  0.12500000000E+03 0.  0.
    3000001    1    3    3    0    0 -0.66613301429E+01  0.55615412917E+01  0.15702294368E+02  0.17968475429E+02  0.10000000000E+01 0. -1.
    1000022    2    1    0    0    0 -0.31684439028E+02  0.66124423853E+01  0.52522584926E+02  0.62499999815E+02  0.99999989325E+01 0.  0.
    3000022    2    3    3    0    0 -0.25023108886E+02  0.10509010936E+01  0.36820290558E+02  0.44531524385E+02  0.24999186919E+00 0.  0.
    1000022    2    1    0    0    0  0.31684439028E+02 -0.66124423853E+01 -0.52522584926E+02  0.62500000185E+02  0.10000001251E+02 0.  0.
    3000022    2    5    5    0    0  0.19342111570E+02 -0.16137561432E+00 -0.24728104815E+02  0.31395620523E+02  0.24999633580E+00 0.  0.
        -13    1    4    4    0    0 -0.16325086605E+02  0.68278607500E+00  0.24120464886E+02  0.29133872053E+02  0.10500000000E+00 0. -1.
         13    1    4    4    0    0 -0.86980222802E+01  0.36811501855E+00  0.12699825672E+02  0.15397652332E+02  0.10500000000E+00 0.  1.
    3000001    1    5    5    0    0  0.12342327458E+02 -0.64510667710E+01 -0.27794480111E+02  0.31104379663E+02  0.10000000000E+01 0.  1.
        -13    1    6    6    0    0  0.14146853907E+02 -0.14121441024E+00 -0.18128891514E+02  0.22996111617E+02  0.10500000000E+00 0.  1.
         13    1    6    6    0    0  0.51952576636E+01 -0.20161204078E-01 -0.65992133011E+01  0.83995089058E+01  0.10500000000E+00 0. -1.
</event>
<event>
11    0  0.3443539E-009  0.9118800E+02  0.7816531E-02  0.1126479E+00
         25   -1    0    0    0    0  0.00000000000E+00  0.00000000000E+00  0.99999998245E-14  0.12500000000E+03  0.12500000000E+03 0.  0.
    3000001    1    3    3    0    0 -0.88589213353E+01 -0.22258075052E+02 -0.10012487034E+02  0.25983692748E+02  0.10000000000E+01 0. -1.
    1000022    2    1    0    0    0 -0.21453937470E+02 -0.46965314931E+02 -0.33767405043E+02  0.62500000945E+02  0.10000011764E+02 0.  0.
    3000022    2    3    3    0    0 -0.12595016134E+02 -0.24707239880E+02 -0.23754918009E+02  0.36516308197E+02  0.25000167626E+00 0.  0.
    1000022    2    1    0    0    0  0.21453937470E+02  0.46965314931E+02  0.33767405043E+02  0.62499999055E+02  0.99999999474E+01 0.  0.
    3000022    2    5    5    0    0  0.17035751656E+02  0.40568334956E+02  0.24498903337E+02  0.50361348283E+02  0.25000110529E+00 0.  0.
        -13    1    4    4    0    0 -0.69693721689E+01 -0.13666752786E+02 -0.13053312231E+02  0.20143293309E+02  0.10500000000E+00 0. -1.
         13    1    4    4    0    0 -0.56256439654E+01 -0.11040487093E+02 -0.10701605778E+02  0.16373014888E+02  0.10500000000E+00 0.  1.
    3000001    1    5    5    0    0  0.44181858132E+01  0.63969799753E+01  0.92685017061E+01  0.12138650772E+02  0.10000000000E+01 0. -1.
        -13    1    6    6    0    0  0.10887156760E+02  0.25776203096E+02  0.15570049340E+02  0.32021559766E+02  0.10500000000E+00 0. -1.
         13    1    6    6    0    0  0.61485948962E+01  0.14792131860E+02  0.89288539969E+01  0.18339788517E+02  0.10500000000E+00 0.  1.
</event>
<event>
11    0  0.3443539E-009  0.9118800E+02  0.7816531E-02  0.1126479E+00
         25   -1    0    0    0    0  0.00000000000E+00  0.00000000000E+00  0.99999998245E-14  0.12500000000E+03  0.12500000000E+03 0.  0.
    3000001    1    3    3    0    0 -0.55009462707E+02 -0.10245960302E+02  0.69014328185E+01  0.56388389450E+02  0.10000000000E+01 0.  1.
    1000022    2    1    0    0    0 -0.60420381560E+02 -0.85011325979E+01  0.91300677177E+01  0.62500000379E+02  0.10000007377E+02 0.  0.
    3000022    2    3    3    0    0 -0.54109188533E+01  0.17448277038E+01  0.22286348993E+01  0.61116109293E+01  0.25001616787E+00 0.  0.
    1000022    2    1    0    0    0  0.60420381560E+02  0.85011325979E+01 -0.91300677177E+01  0.62499999621E+02  0.10000002640E+02 0.  0.
    3000022    2    5    5    0    0  0.29427465501E+02 -0.48944012518E+00 -0.24862430446E+01  0.29537420079E+02  0.25000608002E+00 0.  0.
        -13    1    4    4    0    0 -0.38588227376E+01  0.11995851876E+01  0.15785630499E+01  0.43396317637E+01  0.10500000000E+00 0.  1.
         13    1    4    4    0    0 -0.15520961157E+01  0.54524251613E+00  0.65007184936E+00  0.17719791656E+01  0.10500000000E+00 0. -1.
    3000001    1    5    5    0    0  0.30992916059E+02  0.89905727231E+01 -0.66438246731E+01  0.32962579542E+02  0.10000000000E+01 0.  1.
        -13    1    6    6    0    0  0.93462982213E+01 -0.14980371955E+00 -0.83974086631E+00  0.93857296636E+01  0.10500000000E+00 0.  1.
         13    1    6    6    0    0  0.20081167279E+02 -0.33963640563E+00 -0.16465021783E+01  0.20151690416E+02  0.10500000000E+00 0. -1.
</event>
<event>
11    0  0.3443539E-009  0.9118800E+02  0.7816531E-02  0.1126479E+00
         25   -1    0    0    0    0  0.00000000000E+00  0.00000000000E+00  0.99999998245E-14  0.12500000000E+03  0.12500000000E+03 0.  0.
    3000001    1    3    3    0    0  0.82893122174E+00 -0.32645440798E+01 -0.39185835514E+01  0.52630477928E+01  0.10000000000E+01 0. -1.
    1000022    2    1    0    0    0 -0.10729519503E+02 -0.18602226046E+02 -0.57836707519E+02  0.62500001451E+02  0.10000002107E+02 0.  0.
    3000022    2    3    3    0    0 -0.11558450725E+02 -0.15337681966E+02 -0.53918123968E+02  0.57236953659E+02  0.25000133717E+00 0.  0.
    1000022    2    1    0    0    0  0.10729519503E+02  0.18602226046E+02  0.57836707519E+02  0.62499998549E+02  0.99999839654E+01 0.  0.
    3000022    2    5    5    0    0  0.87382593212E+01  0.65877247266E+01  0.20875019709E+02  0.23570835639E+02  0.25010365941E+00 0.  0.
        -13    1    4    4    0    0 -0.69864637026E+01 -0.93125604075E+01 -0.32853517738E+02  0.34855402869E+02  0.10500000000E+00 0.  1.
         13    1    4    4    0    0 -0.45719870223E+01 -0.60251215589E+01 -0.21064606229E+02  0.22381550789E+02  0.10500000000E+00 0. -1.
    3000001    1    5    5    0    0  0.19912601819E+01  0.12014501320E+02  0.36961687810E+02  0.38929162910E+02  0.10000000000E+01 0.  1.
        -13    1    6    6    0    0  0.42397716481E+01  0.31768787738E+01  0.10248424935E+02  0.11537307356E+02  0.10500000000E+00 0.  1.
         13    1    6    6    0    0  0.44984876731E+01  0.34108459528E+01  0.10626594774E+02  0.12033528283E+02  0.10500000000E+00 0. -1.
</event>
<event>
11    0  0.3443539E-009  0.9118800E+02  0.7816531E-02  0.1126479E+00
         25   -1    0    0    0    0  0.00000000000E+00  0.00000000000E+00  0.99999998245E-14  0.12500000000E+03  0.12500000000E+03 0.  0.
    3000001    1    3    3    0    0  0.10791717588E+02 -0.41577766720E+02 -0.14756585965E+02  0.45430481874E+02  0.10000000000E+01 0. -1.
    1000022    2    1    0    0    0  0.99355378463E+01 -0.56084359754E+02 -0.23708216392E+02  0.62500000699E+02  0.10000012083E+02 0.  0.
    3000022    2    3    3    0    0 -0.85617974150E+00 -0.14506593034E+02 -0.89516304271E+01  0.17069518826E+02  0.25000090022E+00 0.  0.
    1000022    2    1    0    0    0 -0.99355378463E+01  0.56084359754E+02  0.23708216392E+02  0.62499999301E+02  0.10000003341E+02 0.  0.
    3000022    2    5    5    0    0 -0.28852512574E+01  0.31577079380E+01  0.29593545431E+01  0.52073097021E+01  0.25000156438E+00 0.  0.
        -13    1    4    4    0    0 -0.39141609520E+00 -0.70075517306E+01 -0.42482829701E+01  0.82047499054E+01  0.10500000000E+00 0.  1.
         13    1    4    4    0    0 -0.46476364629E+00 -0.74990413029E+01 -0.47033474569E+01  0.88647689203E+01  0.10500000000E+00 0. -1.
    3000001    1    5    5    0    0 -0.70502865889E+01  0.52926651816E+02  0.20748861849E+02  0.57292689599E+02  0.10000000000E+01 0. -1.
        -13    1    6    6    0    0 -0.11761573122E+01  0.11962702522E+01  0.11736864451E+01  0.20501154628E+01  0.10500000000E+00 0.  1.
         13    1    6    6    0    0 -0.17090939452E+01  0.19614376858E+01  0.17856680980E+01  0.31571942393E+01  0.10500000000E+00 0. -1.
</event>
<event>
11    0  0.3443539E-009  0.9118800E+02  0.7816531E-02  0.1126479E+00
         25   -1    0    0    0    0  0.00000000000E+00  0.00000000000E+00  0.99999998245E-14  0.12500000000E+03  0.12500000000E+03 0.  0.
    3000001    1    3    3    0    0 -0.21881813586E+02 -0.49535224879E+00  0.21618540753E+02  0.30780195645E+02  0.10000000000E+01 0.  1.
    1000022    2    1    0    0    0 -0.44136915674E+02 -0.10806385164E+02  0.41730141981E+02  0.62499999773E+02  0.99999968172E+01 0.  0.
    3000022    2    3    3    0    0 -0.22255102087E+02 -0.10311032915E+02  0.20111601228E+02  0.31719804127E+02  0.25000246668E+00 0.  0.
    1000022    2    1    0    0    0  0.44136915674E+02  0.10806385164E+02 -0.41730141981E+02  0.62500000227E+02  0.99999996581E+01 0.  0.
    3000022    2    5    5    0    0  0.12669864881E+02  0.65979750010E+01 -0.89685932992E+01  0.16868814907E+02  0.25000078216E+00 0.  0.
        -13    1    4    4    0    0 -0.16818756752E+02 -0.77763219959E+01  0.15215639025E+02  0.23976414628E+02  0.10500000000E+00 0. -1.
         13    1    4    4    0    0 -0.54363453355E+01 -0.25347109192E+01  0.48959622032E+01  0.77433894998E+01  0.10500000000E+00 0.  1.
    3000001    1    5    5    0    0  0.31467050793E+02  0.42084101629E+01 -0.32761548682E+02  0.45631185320E+02  0.10000000000E+01 0. -1.
        -13    1    6    6    0    0  0.40796751004E+01  0.20707721423E+01 -0.28520670197E+01  0.53923239401E+01  0.10500000000E+00 0. -1.
         13    1    6    6    0    0  0.85901897803E+01  0.45272028587E+01 -0.61165262795E+01  0.11476490967E+02  0.10500000000E+00 0.  1.
</event>
<event>
11    0  0.3443539E-009  0.9118800E+02  0.7816531E-02  0.1126479E+00
         25   -1    0    0    0    0  0.00000000000E+00  0.00000000000E+00  0.99999998245E-14  0.12500000000E+03  0.12500000000E+03 0.  0.
    3000001    1    3    3    0    0 -0.38311050869E+01 -0.12790826103E+02  0.47045718343E+01  0.14192096206E+02  0.10000000000E+01 0. -1.
    1000022    2    1    0    0    0  0.99353624529E+00 -0.57246749543E+02  0.22979826351E+02  0.62500001356E+02  0.10000015144E+02 0.  0.
    3000022    2    3    3    0    0  0.48246413322E+01 -0.44455923440E+02  0.18275254516E+02  0.48307905149E+02  0.24995884475E+00 0.  0.
    1000022    2    1    0    0    0 -0.99353624529E+00  0.57246749543E+02 -0.22979826351E+02  0.62499998644E+02  0.99999982001E+01 0.  0.
    3000022    2    5    5    0    0  0.96308782698E+00  0.86560220867E+01 -0.73823576853E+01  0.11419981013E+02  0.25000963988E+00 0.  0.
        -13    1    4    4    0    0  0.20753675669E+01 -0.19588997118E+02  0.80970233320E+01  0.21298093118E+02  0.10500000000E+00 0. -1.
         13    1    4    4    0    0  0.27492737653E+01 -0.24866926321E+02  0.10178231184E+02  0.27009812031E+02  0.10500000000E+00 0.  1.
    3000001    1    5    5    0    0 -0.19566240723E+01  0.48590727456E+02 -0.15597468665E+02  0.51080017631E+02  0.10000000000E+01 0. -1.
        -13    1    6    6    0    0  0.29272142908E+00  0.29878500245E+01 -0.24940565610E+01  0.39043919800E+01  0.10500000000E+00 0.  1.
         13    1    6    6    0    0  0.67036639790E+00  0.56681720621E+01 -0.48883011243E+01  0.75155890332E+01  0.10500000000E+00 0. -1.
</event>
<event>
11    0  0.3443539E-009  0.9118800E+02  0.7816531E-02  0.1126479E+00
         25   -1    0    0    0    0  0.00000000000E+00  0.00000000000E+00  0.99999998245E-14  0.12500000000E+03  0.12500000000E+03 0.  0.
    3000001    1    3    3    0    0 -0.44029736496E+02  0.25942068424E+02 -0.13879727720E+01  0.51132524664E+02  0.10000000000E+01 0. -1.
    1000022    2    1    0    0    0 -0.53834464120E+02  0.30016687236E+02  0.26644122916E+01  0.62500001718E+02  0.10000004110E+02 0.  0.
    3000022    2    3    3    0    0 -0.98047276233E+01  0.40746188120E+01  0.40523850635E+01  0.11367477054E+02  0.25001529509E+00 0.  0.
    1000022    2    1    0    0    0  0.53834464120E+02 -0.30016687236E+02 -0.26644122916E+01  0.62499998282E+02  0.99999826354E+01 0.  0.
    3000022    2    5    5    0    0  0.31155684184E+01  0.53576813927E+00 -0.70642563800E+00  0.32489002132E+01  0.25000268948E+00 0.  0.
        -13    1    4    4    0    0 -0.69583014858E+01  0.28553902974E+01  0.28405498009E+01  0.80405821611E+01  0.10500000000E+00 0.  1.
         13    1    4    4    0    0 -0.28464261375E+01  0.12192285146E+01  0.12118352626E+01  0.33268948933E+01  0.10500000000E+00 0. -1.
    3000001    1    5    5    0    0  0.50718895701E+02 -0.30552455375E+02 -0.19579866536E+01  0.59251098069E+02  0.10000000000E+01 0. -1.
        -13    1    6    6    0    0  0.18394797175E+01  0.25694558671E+00 -0.44161608122E+00  0.19120032503E+01  0.10500000000E+00 0.  1.
         13    1    6    6    0    0  0.12760887008E+01  0.27882255255E+00 -0.26480955678E+00  0.13368969630E+01  0.10500000000E+00 0. -1.
</event>
<event>
11    0  0.3443539E-009  0.9118800E+02  0.7816531E-02  0.1126479E+00
         25   -1    0    0    0    0  0.00000000000E+00  0.00000000000E+00  0.99999998245E-14  0.12500000000E+03  0.12500000000E+03 0.  0.
    3000001    1    3    3    0    0  0.18962232206E+02 -0.48588855541E+02 -0.22520618266E+02  0.56820958986E+02  0.10000000000E+01 0.  1.
    1000022    2    1    0    0    0  0.22800740478E+02 -0.52765286986E+02 -0.22409835859E+02  0.62500000081E+02  0.99999994922E+01 0.  0.
    3000022    2    3    3    0    0  0.38385082724E+01 -0.41764314449E+01  0.11078240623E+00  0.56790410953E+01  0.25001929753E+00 0.  0.
    1000022    2    1    0    0    0 -0.22800740478E+02  0.52765286986E+02  0.22409835859E+02  0.62499999919E+02  0.99999984799E+01 0.  0.
    3000022    2    5    5    0    0 -0.18372533906E+02  0.31296167235E+02  0.12104221114E+02  0.38256695450E+02  0.24998444271E+00 0.  0.
        -13    1    4    4    0    0  0.15938543916E+01 -0.17725341794E+01 -0.12866587859E-01  0.23860929965E+01  0.10500000000E+00 0.  1.
         13    1    4    4    0    0  0.22446538808E+01 -0.24038972654E+01  0.12364899409E+00  0.32929480987E+01  0.10500000000E+00 0. -1.
    3000001    1    5    5    0    0 -0.44282065721E+01  0.21469119750E+02  0.10305614745E+02  0.24243304469E+02  0.10000000000E+01 0.  1.
        -13    1    6    6    0    0 -0.11843154805E+02  0.20252776059E+02  0.77821597395E+01  0.24718581857E+02  0.10500000000E+00 0.  1.
         13    1    6    6    0    0 -0.65293791010E+01  0.11043391177E+02  0.43220613747E+01  0.13538113593E+02  0.10500000000E+00 0. -1.
</event>
<event>
11    0  0.3443539E-009  0.9118800E+02  0.7816531E-02  0.1126479E+00
         25   -1    0    0    0    0  0.00000000000E+00  0.00000000000E+00  0.99999998245E-14  0.12500000000E+03  0.12500000000E+03 0.  0.
    3000001    1    3    3    0    0 -0.24476030635E+02 -0.10223252407E+02  0.84523943881E+01  0.27857385669E+02  0.10000000000E+01 0.  1.
    1000022    2    1    0    0    0 -0.48206360575E+02 -0.29546008712E+02  0.24686647873E+02  0.62500003345E+02  0.10000000209E+02 0.  0.
    3000022    2    3    3    0    0 -0.23730329941E+02 -0.19322756305E+02  0.16234253484E+02  0.34642617676E+02  0.25000586175E+00 0.  0.
    1000022    2    1    0    0    0  0.48206360575E+02  0.29546008712E+02 -0.24686647873E+02  0.62499996655E+02  0.99999583993E+01 0.  0.
    3000022    2    5    5    0    0  0.82772174746E+01  0.32150769119E+01 -0.50938662138E+00  0.88978101342E+01  0.25000356724E+00 0.  0.
        -13    1    4    4    0    0 -0.57479109615E+01 -0.47035535438E+01  0.39269731078E+01  0.84020258956E+01  0.10500000000E+00 0.  1.
         13    1    4    4    0    0 -0.17982418979E+02 -0.14619202761E+02  0.12307280377E+02  0.26240591780E+02  0.10500000000E+00 0. -1.
    3000001    1    5    5    0    0  0.39929143101E+02  0.26330931800E+02 -0.24177261251E+02  0.53602186521E+02  0.10000000000E+01 0.  1.
        -13    1    6    6    0    0  0.33489854835E+01  0.12750770206E+01 -0.26437912453E+00  0.35947804521E+01  0.10500000000E+00 0. -1.
         13    1    6    6    0    0  0.49282319911E+01  0.19399998913E+01 -0.24500749685E+00  0.53030296821E+01  0.10500000000E+00 0.  1.
</event>
<event>
11    0  0.3443539E-009  0.9118800E+02  0.7816531E-02  0.1126479E+00
         25   -1    0    0    0    0  0.00000000000E+00  0.00000000000E+00  0.99999998245E-14  0.12500000000E+03  0.12500000000E+03 0.  0.
    3000001    1    3    3    0    0 -0.16876646306E+02 -0.79260408693E+00 -0.53737573586E+02  0.56339828068E+02  0.10000000000E+01 0.  1.
    1000022    2    1    0    0    0 -0.15479778010E+02 -0.40979765937E+00 -0.59719833389E+02  0.62499999633E+02  0.99999996401E+01 0.  0.
    3000022    2    3    3    0    0  0.13968682960E+01  0.38280642756E+00 -0.59822598030E+01  0.61601715658E+01  0.24999914455E+00 0.  0.
    1000022    2    1    0    0    0  0.15479778010E+02  0.40979765937E+00  0.59719833389E+02  0.62500000367E+02  0.10000004222E+02 0.  0.
    3000022    2    5    5    0    0  0.47798186819E+01 -0.20934193992E+01  0.75832103862E+01  0.92085124590E+01  0.25010104492E+00 0.  0.
        -13    1    4    4    0    0  0.65502409717E+00  0.23877463948E+00 -0.27218659154E+01  0.28116985894E+01  0.10500000000E+00 0.  1.
         13    1    4    4    0    0  0.74184419880E+00  0.14403178809E+00 -0.32603938876E+01  0.33484729764E+01  0.10500000000E+00 0. -1.
    3000001    1    5    5    0    0  0.10699959328E+02  0.25032170586E+01  0.52136623003E+02  0.53291487908E+02  0.10000000000E+01 0.  1.
        -13    1    6    6    0    0  0.20147939618E+01 -0.81359229679E+00  0.31328921798E+01  0.38141008828E+01  0.10500000000E+00 0. -1.
         13    1    6    6    0    0  0.27650247201E+01 -0.12798271024E+01  0.44503182064E+01  0.53944115762E+01  0.10500000000E+00 0.  1.
</event>
<event>
11    0  0.3443539E-009  0.9118800E+02  0.7816531E-02  0.1126479E+00
         25   -1    0    0    0    0  0.00000000000E+00  0.00000000000E+00  0.99999998245E-14  0.12500000000E+03  0.12500000000E+03 0.  0.
    3000001    1    3    3    0    0  0.17590434666E+02  0.50101584501E+02  0.20049815452E+02  0.56767836501E+02  0.10000000000E+01 0.  1.
    1000022    2    1    0    0    0  0.21721455743E+02  0.54060001424E+02  0.20296416469E+02  0.62500001143E+02  0.10000011396E+02 0.  0.
    3000022    2    3    3    0    0  0.41310210765E+01  0.39584169226E+01  0.24660101633E+00  0.57321646428E+01  0.24999952648E+00 0.  0.
    1000022    2    1    0    0    0 -0.21721455743E+02 -0.54060001424E+02 -0.20296416469E+02  0.62499998857E+02  0.99999971039E+01 0.  0.
    3000022    2    5    5    0    0 -0.10022847200E+02 -0.17533341720E+02 -0.11096858362E+02  0.23045136288E+02  0.25000631490E+00 0.  0.
        -13    1    4    4    0    0  0.23061566481E+01  0.22565406775E+01  0.19570574304E+00  0.32341397701E+01  0.10500000000E+00 0. -1.
         13    1    4    4    0    0  0.18248644284E+01  0.17018762451E+01  0.50895273288E-01  0.24980248727E+01  0.10500000000E+00 0.  1.
    3000001    1    5    5    0    0 -0.11698608543E+02 -0.36526659703E+02 -0.91995581063E+01  0.39454862568E+02  0.10000000000E+01 0.  1.
        -13    1    6    6    0    0 -0.24921233604E+01 -0.44105255650E+01 -0.27941945166E+01  0.57863600475E+01  0.10500000000E+00 0. -1.
         13    1    6    6    0    0 -0.75307238397E+01 -0.13122816155E+02 -0.83026638456E+01  0.17258776241E+02  0.10500000000E+00 0.  1.
</event>
<event>
11    0  0.3443539E-009  0.9118800E+02  0.7816531E-02  0.1126479E+00
         25   -1    0    0    0    0  0.00000000000E+00  0.00000000000E+00  0.99999998245E-14  0.12500000000E+03  0.12500000000E+03 0.  0.
    3000001    1    3    3    0    0 -0.22771367061E+02  0.10632657149E+02  0.10391647283E+02  0.27213505639E+02  0.10000000000E+01 0. -1.
    1000022    2    1    0    0    0 -0.50245654109E+02  0.32080801427E+02  0.15888519395E+02  0.62500010771E+02  0.10000136037E+02 0.  0.
    3000022    2    3    3    0    0 -0.27474287048E+02  0.21448144278E+02  0.54968721120E+01  0.35286505133E+02  0.24999937949E+00 0.  0.
    1000022    2    1    0    0    0  0.50245654109E+02 -0.32080801427E+02 -0.15888519395E+02  0.62499989229E+02  0.10000001396E+02 0.  0.
    3000022    2    5    5    0    0  0.28372203010E+01 -0.22792040326E+01  0.13673366300E+01  0.38957285423E+01  0.25000271443E+00 0.  0.
        -13    1    4    4    0    0 -0.17281525082E+02  0.13423952142E+02  0.34793446767E+01  0.22157853340E+02  0.10500000000E+00 0.  1.
         13    1    4    4    0    0 -0.10192761966E+02  0.80241921355E+01  0.20175274352E+01  0.13128651792E+02  0.10500000000E+00 0. -1.
    3000001    1    5    5    0    0  0.47408433808E+02 -0.29801597395E+02 -0.17255856025E+02  0.58604260686E+02  0.10000000000E+01 0.  1.
        -13    1    6    6    0    0  0.12661451007E+01 -0.10552307146E+01  0.68335237336E+00  0.17873529990E+01  0.10500000000E+00 0. -1.
         13    1    6    6    0    0  0.15710752003E+01 -0.12239733181E+01  0.68398425661E+00  0.21083755433E+01  0.10500000000E+00 0.  1.
</event>
<event>
11    0  0.3443539E-009  0.9118800E+02  0.7816531E-02  0.1126479E+00
         25   -1    0    0    0    0  0.00000000000E+00  0.00000000000E+00  0.99999998245E-14  0.12500000000E+03  0.12500000000E+03 0.  0.
    3000001    1    3    3    0    0  0.33153274020E+02 -0.51808449071E+02 -0.75088742777E+01  0.61972882508E+02  0.10000000000E+01 0. -1.
    1000022    2    1    0    0    0  0.32793665044E+02 -0.51756095493E+02 -0.72202672027E+01  0.62500001570E+02  0.10000002502E+02 0.  0.
    3000022    2    3    3    0    0 -0.35960897663E+00  0.52353577777E-01  0.28860707499E+00  0.52711906190E+00  0.25000189700E+00 0.  0.
    1000022    2    1    0    0    0 -0.32793665044E+02  0.51756095493E+02  0.72202672027E+01  0.62499998430E+02  0.99999828813E+01 0.  0.
    3000022    2    5    5    0    0 -0.17333535128E+02  0.35699058489E+02  0.61759267424E+01  0.40163152159E+02  0.25000636128E+00 0.  0.
        -13    1    4    4    0    0 -0.12184549698E+00  0.60929804472E-01  0.64087778768E-01  0.18355110895E+00  0.10500000000E+00 0. -1.
         13    1    4    4    0    0 -0.23776347965E+00 -0.85762266951E-02  0.22451929622E+00  0.34356795295E+00  0.10500000000E+00 0.  1.
    3000001    1    5    5    0    0 -0.15460129915E+02  0.16057037005E+02  0.10443404603E+01  0.22336846272E+02  0.10000000000E+01 0. -1.
        -13    1    6    6    0    0 -0.80322708546E+01  0.16663382820E+02  0.29211638245E+01  0.18727784845E+02  0.10500000000E+00 0.  1.
         13    1    6    6    0    0 -0.93012642737E+01  0.19035675668E+02  0.32547629179E+01  0.21435367314E+02  0.10500000000E+00 0. -1.
</event>
<event>
11    0  0.3443539E-009  0.9118800E+02  0.7816531E-02  0.1126479E+00
         25   -1    0    0    0    0  0.00000000000E+00  0.00000000000E+00  0.99999998245E-14  0.12500000000E+03  0.12500000000E+03 0.  0.
    3000001    1    3    3    0    0  0.62264599354E+01  0.64471036011E+01  0.24102289156E+00  0.90217537211E+01  0.10000000000E+01 0. -1.
    1000022    2    1    0    0    0  0.52704584326E+02  0.28156489486E+02  0.15352167441E+02  0.62499998575E+02  0.99999833780E+01 0.  0.
    3000022    2    3    3    0    0  0.46478124390E+02  0.21709385885E+02  0.15111144549E+02  0.53478244853E+02  0.25000134307E+00 0.  0.
    1000022    2    1    0    0    0 -0.52704584326E+02 -0.28156489486E+02 -0.15352167441E+02  0.62500001425E+02  0.10000001196E+02 0.  0.
    3000022    2    5    5    0    0 -0.25263025164E+02 -0.90988436759E+01 -0.99727399986E+01  0.28644850080E+02  0.24999262620E+00 0.  0.
        -13    1    4    4    0    0  0.17371752517E+02  0.80557936080E+01  0.56702613080E+01  0.19970890929E+02  0.10500000000E+00 0.  1.
         13    1    4    4    0    0  0.29106371873E+02  0.13653592277E+02  0.94408832411E+01  0.33507353925E+02  0.10500000000E+00 0. -1.
    3000001    1    5    5    0    0 -0.27441559161E+02 -0.19057645811E+02 -0.53794274421E+01  0.33855151346E+02  0.10000000000E+01 0.  1.
        -13    1    6    6    0    0 -0.16127292121E+02 -0.57463653939E+01 -0.63572877941E+01  0.18262978932E+02  0.10500000000E+00 0. -1.
         13    1    6    6    0    0 -0.91357330435E+01 -0.33524782820E+01 -0.36154522044E+01  0.10381871147E+02  0.10500000000E+00 0.  1.
</event>
<event>
11    0  0.3443539E-009  0.9118800E+02  0.7816531E-02  0.1126479E+00
         25   -1    0    0    0    0  0.00000000000E+00  0.00000000000E+00  0.99999998245E-14  0.12500000000E+03  0.12500000000E+03 0.  0.
    3000001    1    3    3    0    0  0.60741341813E+01 -0.28933144597E+00 -0.62235358343E+01  0.87584939926E+01  0.10000000000E+01 0. -1.
    1000022    2    1    0    0    0  0.34192826361E+02  0.19768811966E+02 -0.47395090365E+02  0.62499999087E+02  0.99999997036E+01 0.  0.
    3000022    2    3    3    0    0  0.28118692179E+02  0.20058143412E+02 -0.41171554530E+02  0.53741505094E+02  0.25000061253E+00 0.  0.
    1000022    2    1    0    0    0 -0.34192826361E+02 -0.19768811966E+02  0.47395090365E+02  0.62500000913E+02  0.10000011120E+02 0.  0.
    3000022    2    5    5    0    0 -0.18581809992E+02 -0.11389703033E+02  0.18490828156E+02  0.28582900914E+02  0.25000194470E+00 0.  0.
        -13    1    4    4    0    0  0.89056404104E+01  0.62916267479E+01 -0.13000040971E+02  0.16967825096E+02  0.10500000000E+00 0.  1.
         13    1    4    4    0    0  0.19213051769E+02  0.13766516664E+02 -0.28171513559E+02  0.36773679998E+02  0.10500000000E+00 0. -1.
    3000001    1    5    5    0    0 -0.15611016369E+02 -0.83791089328E+01  0.28904262208E+02  0.33917100000E+02  0.10000000000E+01 0.  1.
        -13    1    6    6    0    0 -0.13626726133E+02 -0.83553769911E+01  0.13605949936E+02  0.20991257429E+02  0.10500000000E+00 0. -1.
         13    1    6    6    0    0 -0.49550838587E+01 -0.30343260421E+01  0.48848782202E+01  0.75916434850E+01  0.10500000000E+00 0.  1.
</event>
<event>
11    0  0.3443539E-009  0.9118800E+02  0.7816531E-02  0.1126479E+00
         25   -1    0    0    0    0  0.00000000000E+00  0.00000000000E+00  0.99999998245E-14  0.12500000000E+03  0.12500000000E+03 0.  0.
    3000001    1    3    3    0    0 -0.52440509997E+01 -0.56403763071E+02  0.25205675834E+01  0.56711884296E+02  0.10000000000E+01 0. -1.
    1000022    2    1    0    0    0 -0.57662405340E+01 -0.61424014392E+02 -0.30152051997E+00  0.62500000096E+02  0.10000001172E+02 0.  0.
    3000022    2    3    3    0    0 -0.52218953432E+00 -0.50202513212E+01 -0.28220881034E+01  0.57881158001E+01  0.24999602819E+00 0.  0.
    1000022    2    1    0    0    0  0.57662405340E+01  0.61424014392E+02  0.30152051997E+00  0.62499999904E+02  0.99999999755E+01 0.  0.
    3000022    2    5    5    0    0  0.58588155765E+01  0.50031452863E+02 -0.33749126532E+01  0.50486874199E+02  0.24987088590E+00 0.  0.
        -13    1    4    4    0    0 -0.25469565627E+00 -0.19928718158E+01 -0.11713196568E+01  0.23279653541E+01  0.10500000000E+00 0.  1.
         13    1    4    4    0    0 -0.26749387805E+00 -0.30273795054E+01 -0.16507684467E+01  0.34601504460E+01  0.10500000000E+00 0. -1.
    3000001    1    5    5    0    0 -0.92575042492E-01  0.11392561529E+02  0.36764331732E+01  0.12013125705E+02  0.10000000000E+01 0. -1.
        -13    1    6    6    0    0  0.31669376084E+01  0.26468583402E+02 -0.17789086360E+01  0.26716866247E+02  0.10500000000E+00 0. -1.
         13    1    6    6    0    0  0.26918779681E+01  0.23562869461E+02 -0.15960040172E+01  0.23770007952E+02  0.10500000000E+00 0.  1.
</event>
<event>
11    0  0.3443539E-009  0.9118800E+02  0.7816531E-02  0.1126479E+00
         25   -1    0    0    0    0  0.00000000000E+00  0.00000000000E+00  0.99999998245E-14  0.12500000000E+03  0.12500000000E+03 0.  0.
    3000001    1    3    3    0    0  0.29554823305E+02  0.25032998131E+01  0.37311954827E+02  0.47675319228E+02  0.10000000000E+01 0. -1.
    1000022    2    1    0    0    0  0.36957758443E+02  0.85112029996E+01  0.48661416667E+02  0.62499998948E+02  0.99999955444E+01 0.  0.
    3000022    2    3    3    0    0  0.74029351385E+01  0.60079031865E+01  0.11349461840E+02  0.14824679720E+02  0.24999076648E+00 0.  0.
    1000022    2    1    0    0    0 -0.36957758443E+02 -0.85112029996E+01 -0.48661416667E+02  0.62500001052E+02  0.10000008689E+02 0.  0.
    3000022    2    5    5    0    0 -0.18814505160E+02 -0.25651870865E+01 -0.16863855747E+02  0.25397202971E+02  0.24999779906E+00 0.  0.
        -13    1    4    4    0    0  0.21266408783E+01  0.16985993159E+01  0.32970727469E+01  0.42766289013E+01  0.10500000000E+00 0. -1.
         13    1    4    4    0    0  0.52762942603E+01  0.43093038705E+01  0.80523890932E+01  0.10548050819E+02  0.10500000000E+00 0.  1.
    3000001    1    5    5    0    0 -0.18143253283E+02 -0.59460159131E+01 -0.31797560920E+02  0.37102798081E+02  0.10000000000E+01 0. -1.
        -13    1    6    6    0    0 -0.14091528458E+02 -0.19483357484E+01 -0.12633588904E+02  0.19025923895E+02  0.10500000000E+00 0. -1.
         13    1    6    6    0    0 -0.47229767021E+01 -0.61685133810E+00 -0.42302668423E+01  0.63712790756E+01  0.10500000000E+00 0.  1.
</event>
<event>
11    0  0.3443539E-009  0.9118800E+02  0.7816531E-02  0.1126479E+00
         25   -1    0    0    0    0  0.00000000000E+00  0.00000000000E+00  0.99999998245E-14  0.12500000000E+03  0.12500000000E+03 0.  0.
    3000001    1    3    3    0    0  0.17921487607E+02  0.51399481420E+01 -0.11410729608E+02  0.21881579813E+02  0.10000000000E+01 0.  1.
    1000022    2    1    0    0    0  0.55366682697E+02  0.18119420504E+02 -0.20309283267E+02  0.62500000451E+02  0.10000005863E+02 0.  0.
    3000022    2    3    3    0    0  0.37445195090E+02  0.12979472362E+02 -0.88985536593E+01  0.40618420637E+02  0.24999945527E+00 0.  0.
    1000022    2    1    0    0    0 -0.55366682697E+02 -0.18119420504E+02  0.20309283267E+02  0.62499999549E+02  0.10000000228E+02 0.  0.
    3000022    2    5    5    0    0 -0.17576848428E+02 -0.28442956634E+01  0.10086265491E+02  0.20465357819E+02  0.25000122111E+00 0.  0.
        -13    1    4    4    0    0  0.17912120839E+02  0.61472315500E+01 -0.42874304658E+01  0.19417147413E+02  0.10500000000E+00 0.  1.
         13    1    4    4    0    0  0.19533074251E+02  0.68322408116E+01 -0.46111231935E+01  0.21201273224E+02  0.10500000000E+00 0. -1.
    3000001    1    5    5    0    0 -0.37789834269E+02 -0.15275124840E+02  0.10223017776E+02  0.42034641731E+02  0.10000000000E+01 0.  1.
        -13    1    6    6    0    0 -0.55368630438E+01 -0.91617106787E+00  0.31271874121E+01  0.64254609097E+01  0.10500000000E+00 0.  1.
         13    1    6    6    0    0 -0.12039985384E+02 -0.19281245955E+01  0.69590780786E+01  0.14039896909E+02  0.10500000000E+00 0. -1.
</event>
<event>
11    0  0.3443539E-009  0.9118800E+02  0.7816531E-02  0.1126479E+00
         25   -1    0    0    0    0  0.00000000000E+00  0.00000000000E+00  0.99999998245E-14  0.12500000000E+03  0.12500000000E+03 0.  0.
    3000001    1    3    3    0    0 -0.10533954145E+02 -0.79055278526E+01  0.16307295439E+02  0.20985457943E+02  0.10000000000E+01 0.  1.
    1000022    2    1    0    0    0 -0.35918213302E+02 -0.10473766628E+02  0.49055398593E+02  0.62500000232E+02  0.10000003185E+02 0.  0.
    3000022    2    3    3    0    0 -0.25384259157E+02 -0.25682387750E+01  0.32748103154E+02  0.41514542288E+02  0.24999578652E+00 0.  0.
    1000022    2    1    0    0    0  0.35918213302E+02  0.10473766628E+02 -0.49055398593E+02  0.62499999768E+02  0.10000000288E+02 0.  0.
    3000022    2    5    5    0    0  0.34890296886E+02  0.80261232155E+01 -0.46465001228E+02  0.58658420804E+02  0.25004282256E+00 0.  0.
        -13    1    4    4    0    0 -0.17689318464E+02 -0.17827590471E+01  0.22894483902E+02  0.28987215038E+02  0.10500000000E+00 0.  1.
         13    1    4    4    0    0 -0.76949406937E+01 -0.78547972791E+00  0.98536192514E+01  0.12527327250E+02  0.10500000000E+00 0. -1.
    3000001    1    5    5    0    0  0.10279164153E+01  0.24476434121E+01 -0.25903973645E+01  0.38415789639E+01  0.10000000000E+01 0. -1.
        -13    1    6    6    0    0  0.24408920815E+02  0.56530657807E+01 -0.32561445422E+02  0.41085414943E+02  0.10500000000E+00 0. -1.
         13    1    6    6    0    0  0.10481376072E+02  0.23730574348E+01 -0.13903555807E+02  0.17573005862E+02  0.10500000000E+00 0.  1.
</event>
<event>
11    0  0.3443539E-009  0.9118800E+02  0.7816531E-02  0.1126479E+00
         25   -1    0    0    0    0  0.00000000000E+00  0.00000000000E+00  0.99999998245E-14  0.12500000000E+03  0.12500000000E+03 0.  0.
    3000001    1    3    3    0    0 -0.12242052500E+02  0.82746393691E+01 -0.52224340076E+01  0.15703863317E+02  0.10000000000E+01 0.  1.
    1000022    2    1    0    0    0 -0.47261173828E+02  0.39314561975E+02 -0.51959004717E+01  0.62500004740E+02  0.99999937915E+01 0.  0.
    3000022    2    3    3    0    0 -0.35019121328E+02  0.31039922606E+02  0.26533535897E-01  0.46796141423E+02  0.24998815065E+00 0.  0.
    1000022    2    1    0    0    0  0.47261173828E+02 -0.39314561975E+02  0.51959004717E+01  0.62499995260E+02  0.99999345458E+01 0.  0.
    3000022    2    5    5    0    0  0.31018958901E+02 -0.31382198304E+02  0.24945646120E+01  0.44196193617E+02  0.24999196132E+00 0.  0.
        -13    1    4    4    0    0 -0.16278142676E+02  0.14403264360E+02 -0.52204140902E-01  0.21735816145E+02  0.10500000000E+00 0.  1.
         13    1    4    4    0    0 -0.18740978652E+02  0.16636658246E+02  0.78737676799E-01  0.25060325278E+02  0.10500000000E+00 0. -1.
    3000001    1    5    5    0    0  0.16242214927E+02 -0.79323636710E+01  0.27013358598E+01  0.18303801643E+02  0.10000000000E+01 0. -1.
        -13    1    6    6    0    0  0.14943197051E+02 -0.15214322085E+02  0.12018307577E+01  0.21359544864E+02  0.10500000000E+00 0. -1.
         13    1    6    6    0    0  0.16075761850E+02 -0.16167876219E+02  0.12927338543E+01  0.22836648754E+02  0.10500000000E+00 0.  1.
</event>
<event>
11    0  0.3443539E-009  0.9118800E+02  0.7816531E-02  0.1126479E+00
         25   -1    0    0    0    0  0.00000000000E+00  0.00000000000E+00  0.99999998245E-14  0.12500000000E+03  0.12500000000E+03 0.  0.
    3000001    1    3    3    0    0  0.23974140264E+01 -0.43335138867E+01 -0.26640103221E+01  0.57117324532E+01  0.10000000000E+01 0.  1.
    1000022    2    1    0    0    0  0.35691558726E+02 -0.50310610176E+02 -0.10981148713E+01  0.62500005706E+02  0.99999998182E+01 0.  0.
    3000022    2    3    3    0    0  0.33294144699E+02 -0.45977096289E+02  0.15658954508E+01  0.56788273252E+02  0.24999192771E+00 0.  0.
    1000022    2    1    0    0    0 -0.35691558726E+02  0.50310610176E+02  0.10981148713E+01  0.62499994294E+02  0.99999284972E+01 0.  0.
    3000022    2    5    5    0    0 -0.11341588236E+02  0.20563634293E+02  0.44347445714E+01  0.23900295658E+02  0.24998817608E+00 0.  0.
        -13    1    4    4    0    0  0.91898656216E+01 -0.12704858870E+02  0.46997183060E+00  0.15687541795E+02  0.10500000000E+00 0.  1.
         13    1    4    4    0    0  0.24104279078E+02 -0.33272237420E+02  0.10959236202E+01  0.41100731458E+02  0.10500000000E+00 0. -1.
    3000001    1    5    5    0    0 -0.24349970489E+02  0.29746975883E+02 -0.33366297001E+01  0.38599698636E+02  0.10000000000E+01 0. -1.
        -13    1    6    6    0    0 -0.63894719170E+01  0.11717313143E+02  0.25351868818E+01  0.13585248477E+02  0.10500000000E+00 0. -1.
         13    1    6    6    0    0 -0.49521163195E+01  0.88463211500E+01  0.18995576896E+01  0.10315047181E+02  0.10500000000E+00 0.  1.
</event>
<event>
11    0  0.3443539E-009  0.9118800E+02  0.7816531E-02  0.1126479E+00
         25   -1    0    0    0    0  0.00000000000E+00  0.00000000000E+00  0.99999998245E-14  0.12500000000E+03  0.12500000000E+03 0.  0.
    3000001    1    3    3    0    0 -0.10216999752E+02 -0.66969443164E+00  0.14236230146E+02  0.17564333842E+02  0.10000000000E+01 0. -1.
    1000022    2    1    0    0    0 -0.39359732100E+02  0.12273424422E+02  0.45895800488E+02  0.62499999786E+02  0.10000000639E+02 0.  0.
    3000022    2    3    3    0    0 -0.29142732348E+02  0.12943118854E+02  0.31659570342E+02  0.44935665944E+02  0.25001032121E+00 0.  0.
    1000022    2    1    0    0    0  0.39359732100E+02 -0.12273424422E+02 -0.45895800488E+02  0.62500000214E+02  0.10000003313E+02 0.  0.
    3000022    2    5    5    0    0  0.18702638916E+02 -0.91035843760E+01 -0.28534932599E+02  0.35312445734E+02  0.24998873321E+00 0.  0.
        -13    1    4    4    0    0 -0.17400339663E+02  0.76590098523E+01  0.18865234511E+02  0.26783210234E+02  0.10500000000E+00 0.  1.
         13    1    4    4    0    0 -0.11742392685E+02  0.52841090012E+01  0.12794335831E+02  0.18152455709E+02  0.10500000000E+00 0. -1.
    3000001    1    5    5    0    0  0.20657093184E+02 -0.31698400459E+01 -0.17360867889E+02  0.27187554480E+02  0.10000000000E+01 0. -1.
        -13    1    6    6    0    0  0.55187590929E+01 -0.26423772331E+01 -0.84282002855E+01  0.10415586610E+02  0.10500000000E+00 0. -1.
         13    1    6    6    0    0  0.13183879823E+02 -0.64612071428E+01 -0.20106732314E+02  0.24896859125E+02  0.10500000000E+00 0.  1.
</event>
<event>
11    0  0.3443539E-009  0.9118800E+02  0.7816531E-02  0.1126479E+00
         25   -1    0    0    0    0  0.00000000000E+00  0.00000000000E+00  0.99999998245E-14  0.12500000000E+03  0.12500000000E+03 0.  0.
    3000001    1    3    3    0    0  0.36443996117E+02 -0.43016775209E+02 -0.21753020867E+00  0.56388430743E+02  0.10000000000E+01 0. -1.
    1000022    2    1    0    0    0  0.40340440203E+02 -0.46561418497E+02 -0.33065434658E+01  0.62499999195E+02  0.99999930725E+01 0.  0.
    3000022    2    3    3    0    0  0.38964440862E+01 -0.35446432885E+01 -0.30890132571E+01  0.61115684517E+01  0.24998695314E+00 0.  0.
    1000022    2    1    0    0    0 -0.40340440203E+02  0.46561418497E+02  0.33065434658E+01  0.62500000805E+02  0.10000003134E+02 0.  0.
    3000022    2    5    5    0    0 -0.87115421241E+01  0.84076406214E+01  0.44942180388E+01  0.12916651475E+02  0.25000509383E+00 0.  0.
        -13    1    4    4    0    0  0.15588045776E+01 -0.13690098577E+01 -0.12760125127E+01  0.24378869199E+01  0.10500000000E+00 0.  1.
         13    1    4    4    0    0  0.23376395087E+01 -0.21756334308E+01 -0.18130007444E+01  0.36736815318E+01  0.10500000000E+00 0. -1.
    3000001    1    5    5    0    0 -0.31628898079E+02  0.38153777876E+02 -0.11876745730E+01  0.49583349330E+02  0.10000000000E+01 0. -1.
        -13    1    6    6    0    0 -0.55523179001E+01  0.54157902356E+01  0.29224956105E+01  0.82892112733E+01  0.10500000000E+00 0.  1.
         13    1    6    6    0    0 -0.31592242239E+01  0.29918503858E+01  0.15717224283E+01  0.46274402016E+01  0.10500000000E+00 0. -1.
</event>
<event>
11    0  0.3443539E-009  0.9118800E+02  0.7816531E-02  0.1126479E+00
         25   -1    0    0    0    0  0.00000000000E+00  0.00000000000E+00  0.99999998245E-14  0.12500000000E+03  0.12500000000E+03 0.  0.
    3000001    1    3    3    0    0 -0.22770142043E+02 -0.14495685223E+02 -0.24241124829E+02  0.36293751415E+02  0.10000000000E+01 0.  1.
    1000022    2    1    0    0    0 -0.38040175981E+02 -0.31683930791E+02 -0.36814717763E+02  0.62499999895E+02  0.10000004191E+02 0.  0.
    3000022    2    3    3    0    0 -0.15270033938E+02 -0.17188245568E+02 -0.12573592934E+02  0.26206248480E+02  0.24999594960E+00 0.  0.
    1000022    2    1    0    0    0  0.38040175981E+02  0.31683930791E+02  0.36814717763E+02  0.62500000105E+02  0.10000005504E+02 0.  0.
    3000022    2    5    5    0    0  0.15450713475E+02  0.90998680244E+01  0.18030614615E+02  0.25430251813E+02  0.24999781926E+00 0.  0.
        -13    1    4    4    0    0 -0.10489813739E+02 -0.11774358877E+02 -0.85732479684E+01  0.17949465869E+02  0.10500000000E+00 0. -1.
         13    1    4    4    0    0 -0.47802201988E+01 -0.54138866912E+01 -0.40003449658E+01  0.82567826118E+01  0.10500000000E+00 0.  1.
    3000001    1    5    5    0    0  0.22589462506E+02  0.22584062767E+02  0.18784103148E+02  0.37069748292E+02  0.10000000000E+01 0.  1.
        -13    1    6    6    0    0  0.78802412478E+01  0.46489121047E+01  0.91043384755E+01  0.12907772463E+02  0.10500000000E+00 0. -1.
         13    1    6    6    0    0  0.75704722269E+01  0.44509559196E+01  0.89262761398E+01  0.12522479350E+02  0.10500000000E+00 0.  1.
</event>
<event>
11    0  0.3443539E-009  0.9118800E+02  0.7816531E-02  0.1126479E+00
         25   -1    0    0    0    0  0.00000000000E+00  0.00000000000E+00  0.99999998245E-14  0.12500000000E+03  0.12500000000E+03 0.  0.
    3000001    1    3    3    0    0 -0.34995480806E+02  0.42491316466E+02 -0.17329550739E+02  0.57719225399E+02  0.10000000000E+01 0. -1.
    1000022    2    1    0    0    0 -0.35280298253E+02  0.46605963959E+02 -0.19734103623E+02  0.62500001476E+02  0.10000000865E+02 0.  0.
    3000022    2    3    3    0    0 -0.28481744636E+00  0.41146474932E+01 -0.24045528836E+01  0.47807760763E+01  0.25000070049E+00 0.  0.
    1000022    2    1    0    0    0  0.35280298253E+02 -0.46605963959E+02  0.19734103623E+02  0.62499998524E+02  0.99999824193E+01 0.  0.
    3000022    2    5    5    0    0  0.17783366450E+02 -0.28767947511E+02  0.74212916524E+01  0.34626304978E+02  0.25000065463E+00 0.  0.
        -13    1    4    4    0    0 -0.22920972105E+00  0.24334423950E+01 -0.14007655332E+01  0.28191041245E+01  0.10500000000E+00 0. -1.
         13    1    4    4    0    0 -0.55607725316E-01  0.16812050982E+01 -0.10037873504E+01  0.19616719518E+01  0.10500000000E+00 0. -1.
    3000001    1    5    5    0    0  0.17496931803E+02 -0.17838016448E+02  0.12312811971E+02  0.27873693547E+02  0.10000000000E+01 0. -1.
        -13    1    6    6    0    0  0.11151308244E+02 -0.18013616433E+02  0.47086287400E+01  0.21703093377E+02  0.10500000000E+00 0.  1.
         13    1    6    6    0    0  0.66320582062E+01 -0.10754331078E+02  0.27126629124E+01  0.12923211600E+02  0.10500000000E+00 0. -1.
</event>
<event>
11    0  0.3443539E-009  0.9118800E+02  0.7816531E-02  0.1126479E+00
         25   -1    0    0    0    0  0.00000000000E+00  0.00000000000E+00  0.99999998245E-14  0.12500000000E+03  0.12500000000E+03 0.  0.
    3000001    1    3    3    0    0  0.24574840575E+01  0.24418859196E+01 -0.35623672837E+01  0.50687765192E+01  0.10000000000E+01 0. -1.
    1000022    2    1    0    0    0  0.33582581511E+02  0.48353198349E+02 -0.18450691454E+02  0.62499996247E+02  0.99999972060E+01 0.  0.
    3000022    2    3    3    0    0  0.31125097454E+02  0.45911312430E+02 -0.14888324171E+02  0.57431219728E+02  0.25000450602E+00 0.  0.
    1000022    2    1    0    0    0 -0.33582581511E+02 -0.48353198349E+02  0.18450691454E+02  0.62500003753E+02  0.10000044122E+02 0.  0.
    3000022    2    5    5    0    0 -0.14838905670E+02 -0.28503563567E+02  0.70648742837E+01  0.32903209710E+02  0.25000606302E+00 0.  0.
        -13    1    4    4    0    0  0.14564561877E+02  0.21482157096E+02 -0.70362137058E+01  0.26891055473E+02  0.10500000000E+00 0.  1.
         13    1    4    4    0    0  0.16560535577E+02  0.24429155334E+02 -0.78521104649E+01  0.30540164254E+02  0.10500000000E+00 0. -1.
    3000001    1    5    5    0    0 -0.18743675841E+02 -0.19849634782E+02  0.11385817171E+02  0.29596794044E+02  0.10000000000E+01 0.  1.
        -13    1    6    6    0    0 -0.52299783796E+01 -0.10071471041E+02  0.25521805744E+01  0.11632362334E+02  0.10500000000E+00 0. -1.
         13    1    6    6    0    0 -0.96089272907E+01 -0.18432092526E+02  0.45126937093E+01  0.21270847376E+02  0.10500000000E+00 0.  1.
</event>
<event>
11    0  0.3443539E-009  0.9118800E+02  0.7816531E-02  0.1126479E+00
         25   -1    0    0    0    0  0.00000000000E+00  0.00000000000E+00  0.99999998245E-14  0.12500000000E+03  0.12500000000E+03 0.  0.
    3000001    1    3    3    0    0  0.82756936345E+00 -0.13465936012E+01  0.11909050016E+01  0.22173046928E+01  0.10000000000E+01 0. -1.
    1000022    2    1    0    0    0  0.21625417063E+01 -0.61591364090E+02  0.28420491388E+01  0.62499999561E+02  0.99999992314E+01 0.  0.
    3000022    2    3    3    0    0  0.13349723428E+01 -0.60244770489E+02  0.16511441372E+01  0.60282694868E+02  0.25000222360E+00 0.  0.
    1000022    2    1    0    0    0 -0.21625417063E+01  0.61591364090E+02 -0.28420491388E+01  0.62500000439E+02  0.10000004723E+02 0.  0.
    3000022    2    5    5    0    0  0.12316111437E+01  0.25242906003E+02  0.32253561797E+01  0.25479140290E+02  0.24999588366E+00 0.  0.
        -13    1    4    4    0    0  0.47189970880E+00 -0.23947882727E+02  0.67849977444E+00  0.23962369737E+02  0.10500000000E+00 0. -1.
         13    1    4    4    0    0  0.86307263402E+00 -0.36296887762E+02  0.97264436280E+00  0.36320325131E+02  0.10500000000E+00 0.  1.
    3000001    1    5    5    0    0 -0.33941528499E+01  0.36348458087E+02 -0.60674053185E+01  0.37020860149E+02  0.10000000000E+01 0.  1.
        -13    1    6    6    0    0  0.30702468533E+00  0.59950940477E+01  0.75695327343E+00  0.60513981902E+01  0.10500000000E+00 0. -1.
         13    1    6    6    0    0  0.92458645834E+00  0.19247811956E+02  0.24684029063E+01  0.19427742100E+02  0.10500000000E+00 0.  1.
</event>
<event>
11    0  0.3443539E-009  0.9118800E+02  0.7816531E-02  0.1126479E+00
         25   -1    0    0    0    0  0.00000000000E+00  0.00000000000E+00  0.99999998245E-14  0.12500000000E+03  0.12500000000E+03 0.  0.
    3000001    1    3    3    0    0 -0.36111876476E+01  0.58774579710E+01  0.15605703706E+01  0.71428683531E+01  0.10000000000E+01 0. -1.
    1000022    2    1    0    0    0 -0.44913339182E+02  0.41682111348E+02 -0.71863504016E+01  0.62500000148E+02  0.99999971760E+01 0.  0.
    3000022    2    3    3    0    0 -0.41302151534E+02  0.35804653377E+02 -0.87469207722E+01  0.55357131795E+02  0.24998554099E+00 0.  0.
    1000022    2    1    0    0    0  0.44913339182E+02 -0.41682111348E+02  0.71863504016E+01  0.62499999852E+02  0.99999953266E+01 0.  0.
    3000022    2    5    5    0    0  0.25075005686E+02 -0.17989410286E+02  0.66897793403E+01  0.31578322305E+02  0.24999877370E+00 0.  0.
        -13    1    4    4    0    0 -0.25462796109E+02  0.22119598697E+02 -0.54482537501E+01  0.34166140053E+02  0.10500000000E+00 0.  1.
         13    1    4    4    0    0 -0.15839355426E+02  0.13685054680E+02 -0.32986670222E+01  0.21190991742E+02  0.10500000000E+00 0. -1.
    3000001    1    5    5    0    0  0.19838333495E+02 -0.23692701062E+02  0.49657106128E+00  0.30921677547E+02  0.10000000000E+01 0.  1.
        -13    1    6    6    0    0  0.67006094799E+01 -0.47658987074E+01  0.17908494730E+01  0.84160634935E+01  0.10500000000E+00 0.  1.
         13    1    6    6    0    0  0.18374396207E+02 -0.13223511579E+02  0.48989298674E+01  0.23162258812E+02  0.10500000000E+00 0. -1.
</event>
<event>
11    0  0.3443539E-009  0.9118800E+02  0.7816531E-02  0.1126479E+00
         25   -1    0    0    0    0  0.00000000000E+00  0.00000000000E+00  0.99999998245E-14  0.12500000000E+03  0.12500000000E+03 0.  0.
    3000001    1    3    3    0    0 -0.21653719914E+01  0.75146761647E+01 -0.29131539590E+01  0.84050972457E+01  0.10000000000E+01 0.  1.
    1000022    2    1    0    0    0 -0.21111743262E+02  0.41359772789E+02 -0.40619127087E+02  0.62499999557E+02  0.99999975278E+01 0.  0.
    3000022    2    3    3    0    0 -0.18946371270E+02  0.33845096624E+02 -0.37705973128E+02  0.54094902311E+02  0.24999333248E+00 0.  0.
    1000022    2    1    0    0    0  0.21111743262E+02 -0.41359772789E+02  0.40619127087E+02  0.62500000443E+02  0.10000003067E+02 0.  0.
    3000022    2    5    5    0    0  0.12210688254E+02 -0.29647034985E+02  0.22658962071E+02  0.39262433132E+02  0.25000459304E+00 0.  0.
        -13    1    4    4    0    0 -0.79143947532E+01  0.14267974907E+02 -0.15842778895E+02  0.22742414567E+02  0.10500000000E+00 0.  1.
         13    1    4    4    0    0 -0.11031976517E+02  0.19577121718E+02 -0.21863194234E+02  0.31352487744E+02  0.10500000000E+00 0. -1.
    3000001    1    5    5    0    0  0.89010550082E+01 -0.11712737804E+02  0.17960165016E+02  0.23237567311E+02  0.10000000000E+01 0.  1.
        -13    1    6    6    0    0  0.45522114629E+01 -0.11107741894E+02  0.85525828334E+01  0.14739818768E+02  0.10500000000E+00 0.  1.
         13    1    6    6    0    0  0.76584767907E+01 -0.18539293091E+02  0.14106379238E+02  0.24522614365E+02  0.10500000000E+00 0. -1.
</event>
<event>
11    0  0.3443539E-009  0.9118800E+02  0.7816531E-02  0.1126479E+00
         25   -1    0    0    0    0  0.00000000000E+00  0.00000000000E+00  0.99999998245E-14  0.12500000000E+03  0.12500000000E+03 0.  0.
    3000001    1    3    3    0    0 -0.86172873869E+01  0.15697843016E+01 -0.12496081542E+01  0.89041218096E+01  0.10000000000E+01 0. -1.
    1000022    2    1    0    0    0 -0.52954890166E+02  0.31654844994E+02 -0.15953479903E-01  0.62500001311E+02  0.10000015264E+02 0.  0.
    3000022    2    3    3    0    0 -0.44337602779E+02  0.30085060692E+02  0.12336546743E+01  0.53595879501E+02  0.24999723677E+00 0.  0.
    1000022    2    1    0    0    0  0.52954890166E+02 -0.31654844994E+02  0.15953479903E-01  0.62499998689E+02  0.99999988777E+01 0.  0.
    3000022    2    5    5    0    0  0.12147345883E+02 -0.11577191844E+02 -0.23604098048E+01  0.16947666928E+02  0.24999373822E+00 0.  0.
        -13    1    4    4    0    0 -0.19260577640E+02  0.12989832219E+02  0.53115311703E+00  0.23237872982E+02  0.10500000000E+00 0.  1.
         13    1    4    4    0    0 -0.25077025139E+02  0.17095228473E+02  0.70250155725E+00  0.30358006519E+02  0.10500000000E+00 0. -1.
    3000001    1    5    5    0    0  0.40807544282E+02 -0.20077653150E+02  0.23763632847E+01  0.45552331761E+02  0.10000000000E+01 0.  1.
        -13    1    6    6    0    0  0.87786747820E+01 -0.83909965843E+01 -0.17424960615E+01  0.12268711103E+02  0.10500000000E+00 0. -1.
         13    1    6    6    0    0  0.33686711014E+01 -0.31861952592E+01 -0.61791374337E+00  0.46789558251E+01  0.10500000000E+00 0.  1.
</event>
<event>
11    0  0.3443539E-009  0.9118800E+02  0.7816531E-02  0.1126479E+00
         25   -1    0    0    0    0  0.00000000000E+00  0.00000000000E+00  0.99999998245E-14  0.12500000000E+03  0.12500000000E+03 0.  0.
    3000001    1    3    3    0    0 -0.39467848539E+01  0.60894078692E+00 -0.40337313092E+02  0.40546846327E+02  0.10000000000E+01 0.  1.
    1000022    2    1    0    0    0 -0.41983801227E+01  0.78936831413E+01 -0.61043535994E+02  0.62499998825E+02  0.99999968638E+01 0.  0.
    3000022    2    3    3    0    0 -0.25159526875E+00  0.72847423544E+01 -0.20706222901E+02  0.21953152498E+02  0.24993277061E+00 0.  0.
    1000022    2    1    0    0    0  0.41983801227E+01 -0.78936831413E+01  0.61043535994E+02  0.62500001175E+02  0.10000011557E+02 0.  0.
    3000022    2    5    5    0    0 -0.14018406929E+01 -0.20239063653E+01  0.37429476772E+02  0.37511192771E+02  0.24999465198E+00 0.  0.
        -13    1    4    4    0    0 -0.19903915200E+00  0.50174243683E+01 -0.14135279243E+02  0.15001043569E+02  0.10500000000E+00 0. -1.
         13    1    4    4    0    0 -0.52556116752E-01  0.22673179861E+01 -0.65709436588E+01  0.69521089291E+01  0.10500000000E+00 0.  1.
    3000001    1    5    5    0    0  0.56002208156E+01 -0.58697767761E+01  0.23614059221E+02  0.24988808405E+02  0.10000000000E+01 0. -1.
        -13    1    6    6    0    0 -0.59085437582E+00 -0.84733151506E+00  0.14754222231E+02  0.14790712567E+02  0.10500000000E+00 0. -1.
         13    1    6    6    0    0 -0.81098631709E+00 -0.11765748502E+01  0.22675254541E+02  0.22720480203E+02  0.10500000000E+00 0.  1.
</event>
<event>
11    0  0.3443539E-009  0.9118800E+02  0.7816531E-02  0.1126479E+00
         25   -1    0    0    0    0  0.00000000000E+00  0.00000000000E+00  0.99999998245E-14  0.12500000000E+03  0.12500000000E+03 0.  0.
    3000001    1    3    3    0    0 -0.11858337572E+02 -0.29324950132E+02 -0.12072978588E+02  0.33872255346E+02  0.10000000000E+01 0.  1.
    1000022    2    1    0    0    0 -0.16422597853E+02 -0.57345016872E+02 -0.15751108648E+02  0.62499999858E+02  0.99999939185E+01 0.  0.
    3000022    2    3    3    0    0 -0.45642602807E+01 -0.28020066740E+02 -0.36781300602E+01  0.28627744513E+02  0.25000624849E+00 0.  0.
    1000022    2    1    0    0    0  0.16422597853E+02  0.57345016872E+02  0.15751108648E+02  0.62500000142E+02  0.99999956885E+01 0.  0.
    3000022    2    5    5    0    0  0.12622023721E+02  0.49767382793E+02  0.10284655676E+02  0.52363580159E+02  0.25002364164E+00 0.  0.
        -13    1    4    4    0    0 -0.15660638809E+01 -0.95399017406E+01 -0.11985653245E+01  0.97421694266E+01  0.10500000000E+00 0.  1.
         13    1    4    4    0    0 -0.29981963998E+01 -0.18480164999E+02 -0.24795647357E+01  0.18885575086E+02  0.10500000000E+00 0. -1.
    3000001    1    5    5    0    0  0.38005741320E+01  0.75776340786E+01  0.54664529717E+01  0.10136419982E+02  0.10000000000E+01 0. -1.
        -13    1    6    6    0    0  0.60295832458E+01  0.23896824673E+02  0.48751004207E+01  0.25123529463E+02  0.10500000000E+00 0.  1.
         13    1    6    6    0    0  0.65924404749E+01  0.25870558121E+02  0.54095552556E+01  0.27240050696E+02  0.10500000000E+00 0. -1.
</event>
<event>
11    0  0.3443539E-009  0.9118800E+02  0.7816531E-02  0.1126479E+00
         25   -1    0    0    0    0  0.00000000000E+00  0.00000000000E+00  0.99999998245E-14  0.12500000000E+03  0.12500000000E+03 0.  0.
    3000001    1    3    3    0    0  0.13765114537E+02 -0.22779072800E+02 -0.23923352938E+02  0.35800717195E+02  0.10000000000E+01 0. -1.
    1000022    2    1    0    0    0  0.31203110916E+02 -0.35717430933E+02 -0.39457330671E+02  0.62500001661E+02  0.10000013030E+02 0.  0.
    3000022    2    3    3    0    0  0.17437996379E+02 -0.12938358133E+02 -0.15533977733E+02  0.26699284466E+02  0.24999579224E+00 0.  0.
    1000022    2    1    0    0    0 -0.31203110916E+02  0.35717430933E+02  0.39457330671E+02  0.62499998339E+02  0.99999922701E+01 0.  0.
    3000022    2    5    5    0    0 -0.11260975817E+02  0.17182446558E+02  0.11870419620E+02  0.23727945783E+02  0.25000609554E+00 0.  0.
        -13    1    4    4    0    0  0.79936895413E+01 -0.58489277272E+01 -0.70718290030E+01  0.12170900480E+02  0.10500000000E+00 0.  1.
         13    1    4    4    0    0  0.94443068377E+01 -0.70894304056E+01 -0.84621487300E+01  0.14528383986E+02  0.10500000000E+00 0. -1.
    3000001    1    5    5    0    0 -0.19942135099E+02  0.18534984375E+02  0.27586911051E+02  0.38772052556E+02  0.10000000000E+01 0.  1.
        -13    1    6    6    0    0 -0.79467569986E+01  0.12051813161E+02  0.83177002426E+01  0.16661101692E+02  0.10500000000E+00 0. -1.
         13    1    6    6    0    0 -0.33142188189E+01  0.51306333968E+01  0.35527193777E+01  0.70668440911E+01  0.10500000000E+00 0.  1.
</event>
<event>
11    0  0.3443539E-009  0.9118800E+02  0.7816531E-02  0.1126479E+00
         25   -1    0    0    0    0  0.00000000000E+00  0.00000000000E+00  0.99999998245E-14  0.12500000000E+03  0.12500000000E+03 0.  0.
    3000001    1    3    3    0    0 -0.16716752219E+02  0.12071613937E+02  0.20312840325E+02  0.28961787753E+02  0.10000000000E+01 0. -1.
    1000022    2    1    0    0    0 -0.39598224386E+02  0.31429943065E+02  0.35360844696E+02  0.62499998944E+02  0.99999917392E+01 0.  0.
    3000022    2    3    3    0    0 -0.22881472167E+02  0.19358329128E+02  0.15048004371E+02  0.33538211191E+02  0.24999832511E+00 0.  0.
    1000022    2    1    0    0    0  0.39598224386E+02 -0.31429943065E+02 -0.35360844696E+02  0.62500001056E+02  0.10000004939E+02 0.  0.
    3000022    2    5    5    0    0  0.29087203194E+02 -0.25107759391E+02 -0.21764984796E+02  0.44161544759E+02  0.25000221628E+00 0.  0.
        -13    1    4    4    0    0 -0.10662520827E+02  0.90768657066E+01  0.70885622167E+01  0.15695145133E+02  0.10500000000E+00 0.  1.
         13    1    4    4    0    0 -0.12218951341E+02  0.10281463421E+02  0.79594421543E+01  0.17843066058E+02  0.10500000000E+00 0. -1.
    3000001    1    5    5    0    0  0.10511021192E+02 -0.63221836742E+01 -0.13595859900E+02  0.18338456297E+02  0.10000000000E+01 0.  1.
        -13    1    6    6    0    0  0.16990754636E+02 -0.14623194434E+02 -0.12633578122E+02  0.25732117668E+02  0.10500000000E+00 0. -1.
         13    1    6    6    0    0  0.12096448559E+02 -0.10484564957E+02 -0.91314066738E+01  0.18429427091E+02  0.10500000000E+00 0.  1.
</event>
<event>
11    0  0.3443539E-009  0.9118800E+02  0.7816531E-02  0.1126479E+00
         25   -1    0    0    0    0  0.00000000000E+00  0.00000000000E+00  0.99999998245E-14  0.12500000000E+03  0.12500000000E+03 0.  0.
    3000001    1    3    3    0    0  0.11163791393E+02 -0.14210876662E+02 -0.40726321385E+02  0.44566944110E+02  0.10000000000E+01 0. -1.
    1000022    2    1    0    0    0  0.10466686083E+02 -0.16643232125E+02 -0.58478212568E+02  0.62499998733E+02  0.99999901689E+01 0.  0.
    3000022    2    3    3    0    0 -0.69710530977E+00 -0.24323554631E+01 -0.17751891182E+02  0.17933054623E+02  0.24999726295E+00 0.  0.
    1000022    2    1    0    0    0 -0.10466686083E+02  0.16643232125E+02  0.58478212568E+02  0.62500001267E+02  0.10000006008E+02 0.  0.
    3000022    2    5    5    0    0 -0.63367276923E+01  0.16639382704E+02  0.46907747486E+02  0.50173921869E+02  0.24997372319E+00 0.  0.
        -13    1    4    4    0    0 -0.23040171771E+00 -0.87469212137E+00 -0.59851903246E+01  0.60540647073E+01  0.10500000000E+00 0.  1.
         13    1    4    4    0    0 -0.46670359206E+00 -0.15576633417E+01 -0.11766700858E+02  0.11878989915E+02  0.10500000000E+00 0. -1.
    3000001    1    5    5    0    0 -0.41299583907E+01  0.38494203442E-02  0.11570465082E+02  0.12326079398E+02  0.10000000000E+01 0.  1.
        -13    1    6    6    0    0 -0.17523376238E+01  0.46231437166E+01  0.13134554775E+02  0.14034660634E+02  0.10500000000E+00 0.  1.
         13    1    6    6    0    0 -0.45843900686E+01  0.12016238988E+02  0.33773192710E+02  0.36139261234E+02  0.10500000000E+00 0. -1.
</event>
<event>
11    0  0.3443539E-009  0.9118800E+02  0.7816531E-02  0.1126479E+00
         25   -1    0    0    0    0  0.00000000000E+00  0.00000000000E+00  0.99999998245E-14  0.12500000000E+03  0.12500000000E+03 0.  0.
    3000001    1    3    3    0    0  0.30145336300E+02 -0.33287317116E+01  0.40506203198E+01  0.30614200633E+02  0.10000000000E+01 0. -1.
    1000022    2    1    0    0    0  0.61604679555E+02 -0.31337302044E+01 -0.11371948713E+01  0.62500000498E+02  0.10000002103E+02 0.  0.
    3000022    2    3    3    0    0  0.31459343256E+02  0.19500150721E+00 -0.51878151911E+01  0.31885799866E+02  0.25000590271E+00 0.  0.
    1000022    2    1    0    0    0 -0.61604679555E+02  0.31337302044E+01  0.11371948713E+01  0.62499999502E+02  0.99999958718E+01 0.  0.
    3000022    2    5    5    0    0 -0.26277120681E+01 -0.79918441838E+00 -0.18288996493E+01  0.33092212662E+01  0.25001002846E+00 0.  0.
        -13    1    4    4    0    0  0.11942306732E+02  0.45590427397E-01 -0.19149108662E+01  0.12095399009E+02  0.10500000000E+00 0. -1.
         13    1    4    4    0    0  0.19517036523E+02  0.14941107982E+00 -0.32729043248E+01  0.19790400856E+02  0.10500000000E+00 0.  1.
    3000001    1    5    5    0    0 -0.58976967487E+02  0.39329146227E+01  0.29660945206E+01  0.59190778235E+02  0.10000000000E+01 0.  1.
        -13    1    6    6    0    0 -0.63231486792E+00 -0.20859663545E+00 -0.46584721571E+00  0.81937371016E+00  0.10500000000E+00 0.  1.
         13    1    6    6    0    0 -0.19953972001E+01 -0.59058778293E+00 -0.13630524336E+01  0.24898475561E+01  0.10500000000E+00 0. -1.
</event>
<event>
11    0  0.3443539E-009  0.9118800E+02  0.7816531E-02  0.1126479E+00
         25   -1    0    0    0    0  0.00000000000E+00  0.00000000000E+00  0.99999998245E-14  0.12500000000E+03  0.12500000000E+03 0.  0.
    3000001    1    3    3    0    0  0.30403283784E+02  0.11946565139E+01  0.27742393532E+02  0.41187707728E+02  0.10000000000E+01 0. -1.
    1000022    2    1    0    0    0  0.48000932728E+02 -0.40815223666E+01  0.38542199610E+02  0.62499995781E+02  0.99999977140E+01 0.  0.
    3000022    2    3    3    0    0  0.17597648944E+02 -0.52761788805E+01  0.10799806078E+02  0.21312288052E+02  0.24999757436E+00 0.  0.
    1000022    2    1    0    0    0 -0.48000932728E+02  0.40815223666E+01 -0.38542199610E+02  0.62500004219E+02  0.10000050455E+02 0.  0.
    3000022    2    5    5    0    0 -0.16662015952E+01  0.93841937524E+00 -0.45417166925E+01  0.49342223333E+01  0.25000168062E+00 0.  0.
        -13    1    4    4    0    0  0.63327436625E+01 -0.18616784154E+01  0.39336977007E+01  0.76846920184E+01  0.10500000000E+00 0.  1.
         13    1    4    4    0    0  0.11264905281E+02 -0.34145004652E+01  0.68661083773E+01  0.13627596034E+02  0.10500000000E+00 0. -1.
    3000001    1    5    5    0    0 -0.46334731133E+02  0.31431029914E+01 -0.34000482917E+02  0.57565781886E+02  0.10000000000E+01 0.  1.
        -13    1    6    6    0    0 -0.11541829711E+01  0.59211360979E+00 -0.30382768551E+01  0.33052818497E+01  0.10500000000E+00 0. -1.
         13    1    6    6    0    0 -0.51201862410E+00  0.34630576545E+00 -0.15034398374E+01  0.16289404836E+01  0.10500000000E+00 0. -1.
</event>
<event>
11    0  0.3443539E-009  0.9118800E+02  0.7816531E-02  0.1126479E+00
         25   -1    0    0    0    0  0.00000000000E+00  0.00000000000E+00  0.99999998245E-14  0.12500000000E+03  0.12500000000E+03 0.  0.
    3000001    1    3    3    0    0  0.52187330829E+01 -0.14144355214E+01 -0.46684266283E+01  0.72131830712E+01  0.10000000000E+01 0. -1.
    1000022    2    1    0    0    0  0.27235551127E+02  0.15006833121E+00 -0.55357494927E+02  0.62499999747E+02  0.99999979072E+01 0.  0.
    3000022    2    3    3    0    0  0.22016818044E+02  0.15645038526E+01 -0.50689068299E+02  0.55286816676E+02  0.25000821867E+00 0.  0.
    1000022    2    1    0    0    0 -0.27235551127E+02 -0.15006833121E+00  0.55357494927E+02  0.62500000253E+02  0.10000001066E+02 0.  0.
    3000022    2    5    5    0    0 -0.95384414192E+01 -0.18442025455E+01  0.10867366098E+02  0.14578926121E+02  0.24998638060E+00 0.  0.
        -13    1    4    4    0    0  0.11170320555E+02  0.74400605329E+00 -0.25824886838E+02  0.28147209658E+02  0.10500000000E+00 0.  1.
         13    1    4    4    0    0  0.10846497489E+02  0.82049779934E+00 -0.24864181461E+02  0.27139607018E+02  0.10500000000E+00 0. -1.
    3000001    1    5    5    0    0 -0.17697109707E+02  0.16941342143E+01  0.44490128829E+02  0.47921074132E+02  0.10000000000E+01 0. -1.
        -13    1    6    6    0    0 -0.22726627197E+01 -0.45106551042E+00  0.26146755364E+01  0.34951407830E+01  0.10500000000E+00 0. -1.
         13    1    6    6    0    0 -0.72657786995E+01 -0.13931370351E+01  0.82526905617E+01  0.11083785338E+02  0.10500000000E+00 0.  1.
</event>
<event>
11    0  0.3443539E-009  0.9118800E+02  0.7816531E-02  0.1126479E+00
         25   -1    0    0    0    0  0.00000000000E+00  0.00000000000E+00  0.99999998245E-14  0.12500000000E+03  0.12500000000E+03 0.  0.
    3000001    1    3    3    0    0  0.16081889918E+02 -0.24968551159E+02 -0.33342976057E+02  0.44663293460E+02  0.10000000000E+01 0. -1.
    1000022    2    1    0    0    0  0.17086674865E+02 -0.37902759434E+02 -0.45581532370E+02  0.62499999862E+02  0.10000012947E+02 0.  0.
    3000022    2    3    3    0    0  0.10047849468E+01 -0.12934208275E+02 -0.12238556312E+02  0.17836706402E+02  0.24999636359E+00 0.  0.
    1000022    2    1    0    0    0 -0.17086674865E+02  0.37902759434E+02  0.45581532370E+02  0.62500000138E+02  0.10000014675E+02 0.  0.
    3000022    2    5    5    0    0 -0.13920687614E+00  0.10526531518E+02  0.10448434566E+02  0.14834403662E+02  0.25000556906E+00 0.  0.
        -13    1    4    4    0    0  0.28414698615E+00 -0.35713797594E+01 -0.34326869625E+01  0.49628477387E+01  0.10500000000E+00 0. -1.
         13    1    4    4    0    0  0.72063796069E+00 -0.93628285154E+01 -0.88058693498E+01  0.12873858663E+02  0.10500000000E+00 0.  1.
    3000001    1    5    5    0    0 -0.16947467989E+02  0.27376227915E+02  0.35133097804E+02  0.47665596476E+02  0.10000000000E+01 0. -1.
        -13    1    6    6    0    0 -0.74673912657E-01  0.32621866507E+01  0.32912776269E+01  0.46358355617E+01  0.10500000000E+00 0.  1.
         13    1    6    6    0    0 -0.64532963487E-01  0.72643448675E+01  0.71571569388E+01  0.10198568101E+02  0.10500000000E+00 0. -1.
</event>
<event>
11    0  0.3443539E-009  0.9118800E+02  0.7816531E-02  0.1126479E+00
         25   -1    0    0    0    0  0.00000000000E+00  0.00000000000E+00  0.99999998245E-14  0.12500000000E+03  0.12500000000E+03 0.  0.
    3000001    1    3    3    0    0  0.25490055853E+01 -0.72492486340E+01 -0.17454599421E+01  0.79432780161E+01  0.10000000000E+01 0. -1.
    1000022    2    1    0    0    0  0.41544456295E+02 -0.44373191223E+02 -0.10551209953E+02  0.62500001015E+02  0.10000007358E+02 0.  0.
    3000022    2    3    3    0    0  0.38995450709E+02 -0.37123942589E+02 -0.88057500113E+01  0.54556722998E+02  0.25000329778E+00 0.  0.
    1000022    2    1    0    0    0 -0.41544456295E+02  0.44373191223E+02  0.10551209953E+02  0.62499998985E+02  0.99999946760E+01 0.  0.
    3000022    2    5    5    0    0 -0.14185209761E+02  0.17914532764E+02 -0.49215766951E+00  0.22857282796E+02  0.24999511748E+00 0.  0.
        -13    1    4    4    0    0  0.12059716052E+02 -0.11421606994E+02 -0.27383888848E+01  0.16834478200E+02  0.10500000000E+00 0.  1.
         13    1    4    4    0    0  0.26935734658E+02 -0.25702335595E+02 -0.60673611265E+01  0.37722244799E+02  0.10500000000E+00 0. -1.
    3000001    1    5    5    0    0 -0.27359246534E+02  0.26458658460E+02  0.11043367623E+02  0.39642716189E+02  0.10000000000E+01 0.  1.
        -13    1    6    6    0    0 -0.97259698214E+01  0.12333248592E+02 -0.30045039210E+00  0.15710022446E+02  0.10500000000E+00 0. -1.
         13    1    6    6    0    0 -0.44592399394E+01  0.55812841716E+01 -0.19170727741E+00  0.71472603507E+01  0.10500000000E+00 0.  1.
</event>
<event>
11    0  0.3443539E-009  0.9118800E+02  0.7816531E-02  0.1126479E+00
         25   -1    0    0    0    0  0.00000000000E+00  0.00000000000E+00  0.99999998245E-14  0.12500000000E+03  0.12500000000E+03 0.  0.
    3000001    1    3    3    0    0  0.39672321787E+02 -0.35804150938E+02  0.25533853076E+02  0.59235192186E+02  0.10000000000E+01 0.  1.
    1000022    2    1    0    0    0  0.40874647684E+02 -0.36372786102E+02  0.28504969541E+02  0.62499999601E+02  0.10000013473E+02 0.  0.
    3000022    2    3    3    0    0  0.12023258969E+01 -0.56863516404E+00  0.29711164644E+01  0.32648074149E+01  0.25000179795E+00 0.  0.
    1000022    2    1    0    0    0 -0.40874647684E+02  0.36372786102E+02 -0.28504969541E+02  0.62500000399E+02  0.10000018460E+02 0.  0.
    3000022    2    5    5    0    0 -0.31086259097E+02  0.30982958588E+02 -0.25970851266E+02  0.50998498445E+02  0.25000128539E+00 0.  0.
        -13    1    4    4    0    0  0.76041252198E+00 -0.41957391892E+00  0.18809754826E+01  0.20744549268E+01  0.10500000000E+00 0. -1.
         13    1    4    4    0    0  0.44191337494E+00 -0.14906124511E+00  0.10901409818E+01  0.11903524881E+01  0.10500000000E+00 0.  1.
    3000001    1    5    5    0    0 -0.97883885871E+01  0.53898275146E+01 -0.25341182746E+01  0.11501501954E+02  0.10000000000E+01 0. -1.
        -13    1    6    6    0    0 -0.12617707831E+02  0.12644939738E+02 -0.10523022732E+02  0.20732729784E+02  0.10500000000E+00 0.  1.
         13    1    6    6    0    0 -0.18468551266E+02  0.18338018850E+02 -0.15447828535E+02  0.30265768661E+02  0.10500000000E+00 0. -1.
</event>
<event>
11    0  0.3443539E-009  0.9118800E+02  0.7816531E-02  0.1126479E+00
         25   -1    0    0    0    0  0.00000000000E+00  0.00000000000E+00  0.99999998245E-14  0.12500000000E+03  0.12500000000E+03 0.  0.
    3000001    1    3    3    0    0  0.20238396866E+01 -0.22269233133E+01 -0.57174011285E+00  0.32221113074E+01  0.10000000000E+01 0.  1.
    1000022    2    1    0    0    0  0.52155077645E+01 -0.60927027314E+02 -0.81820424278E+01  0.62500000614E+02  0.10000003994E+02 0.  0.
    3000022    2    3    3    0    0  0.31916680779E+01 -0.58700104001E+02 -0.76103023149E+01  0.59277889307E+02  0.25000898427E+00 0.  0.
    1000022    2    1    0    0    0 -0.52155077645E+01  0.60927027314E+02  0.81820424278E+01  0.62499999386E+02  0.99999963156E+01 0.  0.
    3000022    2    5    5    0    0  0.19020688765E+01  0.70711443966E+01 -0.10050780222E+01  0.73953788511E+01  0.24999486620E+00 0.  0.
        -13    1    4    4    0    0  0.20045606903E+01 -0.37047850654E+02 -0.47440051027E+01  0.37404252580E+02  0.10500000000E+00 0. -1.
         13    1    4    4    0    0  0.11871073875E+01 -0.21652253347E+02 -0.28662972122E+01  0.21873636727E+02  0.10500000000E+00 0.  1.
    3000001    1    5    5    0    0 -0.71175766410E+01  0.53855882918E+02  0.91871204499E+01  0.55104620535E+02  0.10000000000E+01 0. -1.
        -13    1    6    6    0    0  0.10751338407E+01  0.42406065119E+01 -0.59942297718E+00  0.44168981503E+01  0.10500000000E+00 0. -1.
         13    1    6    6    0    0  0.82693503578E+00  0.28305378846E+01 -0.40565504498E+00  0.29784807008E+01  0.10500000000E+00 0.  1.
</event>
<event>
11    0  0.3443539E-009  0.9118800E+02  0.7816531E-02  0.1126479E+00
         25   -1    0    0    0    0  0.00000000000E+00  0.00000000000E+00  0.99999998245E-14  0.12500000000E+03  0.12500000000E+03 0.  0.
    3000001    1    3    3    0    0  0.16823989698E+02 -0.69667708798E+01  0.36804031094E+02  0.41074556974E+02  0.10000000000E+01 0. -1.
    1000022    2    1    0    0    0  0.29405101168E+02 -0.15210884941E+02  0.52059762842E+02  0.62500000598E+02  0.10000008607E+02 0.  0.
    3000022    2    3    3    0    0  0.12581111470E+02 -0.82441140612E+01  0.15255731748E+02  0.21425443624E+02  0.25000164141E+00 0.  0.
    1000022    2    1    0    0    0 -0.29405101168E+02  0.15210884941E+02 -0.52059762842E+02  0.62499999402E+02  0.10000001135E+02 0.  0.
    3000022    2    5    5    0    0 -0.27150558626E+02  0.10823413367E+02 -0.47107742712E+02  0.55439165723E+02  0.25012385835E+00 0.  0.
        -13    1    4    4    0    0  0.67068704280E+01 -0.44091988207E+01  0.82348335561E+01  0.11499854515E+02  0.10500000000E+00 0.  1.
         13    1    4    4    0    0  0.58742410421E+01 -0.38349152405E+01  0.70208981920E+01  0.99255891082E+01  0.10500000000E+00 0. -1.
    3000001    1    5    5    0    0 -0.22545425418E+01  0.43874715736E+01 -0.49520201299E+01  0.70608336794E+01  0.10000000000E+01 0. -1.
        -13    1    6    6    0    0 -0.16447206975E+02  0.64963591239E+01 -0.28447011784E+02  0.33495623648E+02  0.10500000000E+00 0.  1.
         13    1    6    6    0    0 -0.10703351651E+02  0.43270542435E+01 -0.18660730929E+02  0.21943542075E+02  0.10500000000E+00 0. -1.
</event>
<event>
11    0  0.3443539E-009  0.9118800E+02  0.7816531E-02  0.1126479E+00
         25   -1    0    0    0    0  0.00000000000E+00  0.00000000000E+00  0.99999998245E-14  0.12500000000E+03  0.12500000000E+03 0.  0.
    3000001    1    3    3    0    0 -0.29216466541E+01 -0.48748406584E+01 -0.10313632160E+02  0.11818252788E+02  0.10000000000E+01 0.  1.
    1000022    2    1    0    0    0 -0.17398079131E+02 -0.41548732608E+02 -0.42157554862E+02  0.62499998610E+02  0.10000002778E+02 0.  0.
    3000022    2    3    3    0    0 -0.14476432477E+02 -0.36673891949E+02 -0.31843922702E+02  0.50681745823E+02  0.24999720595E+00 0.  0.
    1000022    2    1    0    0    0  0.17398079131E+02  0.41548732608E+02  0.42157554862E+02  0.62500001390E+02  0.10000020147E+02 0.  0.
    3000022    2    5    5    0    0  0.91179633969E+01  0.29853321265E+02  0.24162182206E+02  0.39474441677E+02  0.24989930131E+00 0.  0.
        -13    1    4    4    0    0 -0.10380902670E+02 -0.26269771091E+02 -0.22762316738E+02  0.36276688130E+02  0.10500000000E+00 0. -1.
         13    1    4    4    0    0 -0.40955298069E+01 -0.10404120859E+02 -0.90816059642E+01  0.14405057693E+02  0.10500000000E+00 0.  1.
    3000001    1    5    5    0    0  0.82801157345E+01  0.11695411343E+02  0.17995372656E+02  0.23025559713E+02  0.10000000000E+01 0. -1.
        -13    1    6    6    0    0  0.40053603906E+01  0.13192667854E+02  0.10593881518E+02  0.17387660785E+02  0.10500000000E+00 0.  1.
         13    1    6    6    0    0  0.51126030063E+01  0.16660653412E+02  0.13568300688E+02  0.22086780892E+02  0.10500000000E+00 0. -1.
</event>
<event>
11    0  0.3443539E-009  0.9118800E+02  0.7816531E-02  0.1126479E+00
         25   -1    0    0    0    0  0.00000000000E+00  0.00000000000E+00  0.99999998245E-14  0.12500000000E+03  0.12500000000E+03 0.  0.
    3000001    1    3    3    0    0  0.37275673542E+01  0.54022161831E+02  0.25580137893E+02  0.59896846176E+02  0.10000000000E+01 0. -1.
    1000022    2    1    0    0    0  0.35371061846E+01  0.54846079865E+02  0.28029379369E+02  0.62499998339E+02  0.10000004390E+02 0.  0.
    3000022    2    3    3    0    0 -0.19046116958E+00  0.82391803457E+00  0.24492414759E+01  0.26031521626E+01  0.25000197861E+00 0.  0.
    1000022    2    1    0    0    0 -0.35371061846E+01 -0.54846079865E+02 -0.28029379369E+02  0.62500001661E+02  0.10000025155E+02 0.  0.
    3000022    2    5    5    0    0 -0.60907006941E+01 -0.34821441470E+02 -0.20904857347E+02  0.41069513991E+02  0.24999540898E+00 0.  0.
        -13    1    4    4    0    0 -0.12280801287E+00  0.27940542423E+00  0.85891937496E+00  0.91756018429E+00  0.10500000000E+00 0. -1.
         13    1    4    4    0    0 -0.67653156715E-01  0.54451261034E+00  0.15903221010E+01  0.16855919783E+01  0.10500000000E+00 0.  1.
    3000001    1    5    5    0    0  0.25535945095E+01 -0.20024638395E+02 -0.71245220218E+01  0.21430487671E+02  0.10000000000E+01 0. -1.
        -13    1    6    6    0    0 -0.14980470912E+01 -0.87157234374E+01 -0.52352537893E+01  0.10277494216E+02  0.10500000000E+00 0.  1.
         13    1    6    6    0    0 -0.45926536029E+01 -0.26105718033E+02 -0.15669603558E+02  0.30792019775E+02  0.10500000000E+00 0. -1.
</event>
<event>
11    0  0.3443539E-009  0.9118800E+02  0.7816531E-02  0.1126479E+00
         25   -1    0    0    0    0  0.00000000000E+00  0.00000000000E+00  0.99999998245E-14  0.12500000000E+03  0.12500000000E+03 0.  0.
    3000001    1    3    3    0    0  0.12555302531E+02  0.49259354594E+02  0.22949872236E+02  0.55783655960E+02  0.10000000000E+01 0.  1.
    1000022    2    1    0    0    0  0.16945347611E+02  0.54202154448E+02  0.24108731436E+02  0.62499995808E+02  0.10000009606E+02 0.  0.
    3000022    2    3    3    0    0  0.43900450804E+01  0.49427998541E+01  0.11588591998E+01  0.67163398480E+01  0.25000020725E+00 0.  0.
    1000022    2    1    0    0    0 -0.16945347611E+02 -0.54202154448E+02 -0.24108731436E+02  0.62500004192E+02  0.10000062004E+02 0.  0.
    3000022    2    5    5    0    0 -0.25923584185E+01 -0.17509263759E+02 -0.35764099423E+01  0.18059563692E+02  0.24998626911E+00 0.  0.
        -13    1    4    4    0    0  0.20888163218E+01  0.23613380947E+01  0.62098493994E+00  0.32149212307E+01  0.10500000000E+00 0.  1.
         13    1    4    4    0    0  0.23012287586E+01  0.25814617593E+01  0.53787425984E+00  0.35014186173E+01  0.10500000000E+00 0. -1.
    3000001    1    5    5    0    0 -0.14352989193E+02 -0.36692890689E+02 -0.20532321494E+02  0.44440440500E+02  0.10000000000E+01 0.  1.
        -13    1    6    6    0    0 -0.15511022431E+01 -0.10037131724E+02 -0.20631470815E+01  0.10364242968E+02  0.10500000000E+00 0. -1.
         13    1    6    6    0    0 -0.10412561754E+01 -0.74721320348E+01 -0.15132628608E+01  0.76953207246E+01  0.10500000000E+00 0.  1.
</event>
<event>
11    0  0.3443539E-009  0.9118800E+02  0.7816531E-02  0.1126479E+00
         25   -1    0    0    0    0  0.00000000000E+00  0.00000000000E+00  0.99999998245E-14  0.12500000000E+03  0.12500000000E+03 0.  0.
    3000001    1    3    3    0    0 -0.11364974409E+00 -0.15932918044E+01  0.93397166988E+00  0.21032827005E+01  0.10000000000E+01 0. -1.
    1000022    2    1    0    0    0 -0.35630251718E+02 -0.21623325559E+02  0.45488094248E+02  0.62500001151E+02  0.10000018990E+02 0.  0.
    3000022    2    3    3    0    0 -0.35516601974E+02 -0.20030033755E+02  0.44554122578E+02  0.60396718450E+02  0.24998570491E+00 0.  0.
    1000022    2    1    0    0    0  0.35630251718E+02  0.21623325559E+02 -0.45488094248E+02  0.62499998849E+02  0.10000004603E+02 0.  0.
    3000022    2    5    5    0    0  0.51536278222E+01 -0.49400792349E+00 -0.51076724550E+01  0.72770008440E+01  0.24999963277E+00 0.  0.
        -13    1    4    4    0    0 -0.23758050949E+02 -0.13441483037E+02  0.29770547502E+02  0.40390778337E+02  0.10500000000E+00 0.  1.
         13    1    4    4    0    0 -0.11758551025E+02 -0.65885507183E+01  0.14783575076E+02  0.20005940113E+02  0.10500000000E+00 0. -1.
    3000001    1    5    5    0    0  0.30476623896E+02  0.22117333483E+02 -0.40380421793E+02  0.55222998005E+02  0.10000000000E+01 0.  1.
        -13    1    6    6    0    0  0.17164329444E+01 -0.13120317060E+00 -0.16412732372E+01  0.23807896093E+01  0.10500000000E+00 0.  1.
         13    1    6    6    0    0  0.34371948778E+01 -0.36280475289E+00 -0.34663992179E+01  0.48962112346E+01  0.10500000000E+00 0. -1.
</event>
<event>
11    0  0.3443539E-009  0.9118800E+02  0.7816531E-02  0.1126479E+00
         25   -1    0    0    0    0  0.00000000000E+00  0.00000000000E+00  0.99999998245E-14  0.12500000000E+03  0.12500000000E+03 0.  0.
    3000001    1    3    3    0    0  0.11114205859E+02 -0.25409944483E+02 -0.34866154493E+02  0.44562760010E+02  0.10000000000E+01 0.  1.
    1000022    2    1    0    0    0  0.15701508060E+02 -0.39947352136E+02 -0.44316156195E+02  0.62500000365E+02  0.10000002382E+02 0.  0.
    3000022    2    3    3    0    0  0.45873022001E+01 -0.14537407652E+02 -0.94500017020E+01  0.17937240355E+02  0.24999330056E+00 0.  0.
    1000022    2    1    0    0    0 -0.15701508060E+02  0.39947352136E+02  0.44316156195E+02  0.62499999635E+02  0.99999978233E+01 0.  0.
    3000022    2    5    5    0    0 -0.80432608436E+01  0.31974662565E+02  0.33154932644E+02  0.46758797630E+02  0.25001203175E+00 0.  0.
        -13    1    4    4    0    0  0.32538650805E+01 -0.10261690354E+02 -0.66242571771E+01  0.12640480016E+02  0.10500000000E+00 0. -1.
         13    1    4    4    0    0  0.13334371196E+01 -0.42757172982E+01 -0.28257445250E+01  0.52967603388E+01  0.10500000000E+00 0.  1.
    3000001    1    5    5    0    0 -0.76582472159E+01  0.79726895712E+01  0.11161223551E+02  0.15741202006E+02  0.10000000000E+01 0. -1.
        -13    1    6    6    0    0 -0.42477589294E+01  0.16750073445E+02  0.17293288301E+02  0.24447438754E+02  0.10500000000E+00 0. -1.
         13    1    6    6    0    0 -0.37955019142E+01  0.15224589120E+02  0.15861644343E+02  0.22311358876E+02  0.10500000000E+00 0.  1.
</event>
<event>
11    0  0.3443539E-009  0.9118800E+02  0.7816531E-02  0.1126479E+00
         25   -1    0    0    0    0  0.00000000000E+00  0.00000000000E+00  0.99999998245E-14  0.12500000000E+03  0.12500000000E+03 0.  0.
    3000001    1    3    3    0    0  0.65475196161E+01 -0.22270084612E+00 -0.22427928553E+01  0.69964082629E+01  0.10000000000E+01 0. -1.
    1000022    2    1    0    0    0  0.60309218517E+02 -0.12084297448E+02  0.47976957240E+01  0.62500000334E+02  0.10000003729E+02 0.  0.
    3000022    2    3    3    0    0  0.53761698901E+02 -0.11861596602E+02  0.70404885793E+01  0.55503592071E+02  0.25002144617E+00 0.  0.
    1000022    2    1    0    0    0 -0.60309218517E+02  0.12084297448E+02 -0.47976957240E+01  0.62499999666E+02  0.99999995524E+01 0.  0.
    3000022    2    5    5    0    0 -0.48545272159E+02  0.12978913228E+02 -0.17856488516E+01  0.50282667810E+02  0.25000547710E+00 0.  0.
        -13    1    4    4    0    0  0.41344274786E+02 -0.91244295607E+01  0.54229248792E+01  0.42685166178E+02  0.10500000000E+00 0.  1.
         13    1    4    4    0    0  0.12417424114E+02 -0.27371670410E+01  0.16175637000E+01  0.12818425893E+02  0.10500000000E+00 0. -1.
    3000001    1    5    5    0    0 -0.11763946358E+02 -0.89461578010E+00 -0.30120468724E+01  0.12217331856E+02  0.10000000000E+01 0. -1.
        -13    1    6    6    0    0 -0.32724070241E+02  0.87444960739E+01 -0.12555233436E+01  0.33895698084E+02  0.10500000000E+00 0.  1.
         13    1    6    6    0    0 -0.15821201918E+02  0.42344171541E+01 -0.53012550796E+00  0.16386969727E+02  0.10500000000E+00 0. -1.
</event>
<event>
11    0  0.3443539E-009  0.9118800E+02  0.7816531E-02  0.1126479E+00
         25   -1    0    0    0    0  0.00000000000E+00  0.00000000000E+00  0.99999998245E-14  0.12500000000E+03  0.12500000000E+03 0.  0.
    3000001    1    3    3    0    0  0.43917601782E+01 -0.90625706187E+01 -0.12323525487E+02  0.15946379655E+02  0.10000000000E+01 0.  1.
    1000022    2    1    0    0    0  0.23241001498E+01 -0.30164144877E+02 -0.53767770015E+02  0.62499999963E+02  0.99999912679E+01 0.  0.
    3000022    2    3    3    0    0 -0.20676600283E+01 -0.21101574258E+02 -0.41444244528E+02  0.46553620308E+02  0.25001022599E+00 0.  0.
    1000022    2    1    0    0    0 -0.23241001498E+01  0.30164144877E+02  0.53767770015E+02  0.62500000037E+02  0.99999917320E+01 0.  0.
    3000022    2    5    5    0    0 -0.43729930557E+01  0.28916857580E+02  0.48780329648E+02  0.56876100220E+02  0.24999028266E+00 0.  0.
        -13    1    4    4    0    0 -0.10547982045E+01 -0.10089801405E+02 -0.19863444816E+02  0.22304352863E+02  0.10500000000E+00 0.  1.
         13    1    4    4    0    0 -0.10128618238E+01 -0.11011772853E+02 -0.21580799711E+02  0.24249267445E+02  0.10500000000E+00 0. -1.
    3000001    1    5    5    0    0  0.20488929059E+01  0.12472872975E+01  0.49874403662E+01  0.56238998167E+01  0.10000000000E+01 0.  1.
        -13    1    6    6    0    0 -0.19777603198E+01  0.13514311640E+02  0.22748804069E+02  0.26534265895E+02  0.10500000000E+00 0.  1.
         13    1    6    6    0    0 -0.23952327360E+01  0.15402545939E+02  0.26031525579E+02  0.30341834326E+02  0.10500000000E+00 0. -1.
</event>
<event>
11    0  0.3443539E-009  0.9118800E+02  0.7816531E-02  0.1126479E+00
         25   -1    0    0    0    0  0.00000000000E+00  0.00000000000E+00  0.99999998245E-14  0.12500000000E+03  0.12500000000E+03 0.  0.
    3000001    1    3    3    0    0  0.77890247357E+01  0.25036145157E+01 -0.40770962641E+01  0.91956351561E+01  0.10000000000E+01 0.  1.
    1000022    2    1    0    0    0  0.60769529070E+02  0.54210443233E+01 -0.91611496274E+01  0.62500000185E+02  0.99999987890E+01 0.  0.
    3000022    2    3    3    0    0  0.52980504334E+02  0.29174298076E+01 -0.50840533632E+01  0.53304365029E+02  0.24999284159E+00 0.  0.
    1000022    2    1    0    0    0 -0.60769529070E+02 -0.54210443233E+01  0.91611496274E+01  0.62499999815E+02  0.99999964709E+01 0.  0.
    3000022    2    5    5    0    0 -0.46651911540E+02 -0.80347351893E+01  0.84694603738E+01  0.48091081095E+02  0.25000383347E+00 0.  0.
        -13    1    4    4    0    0  0.20993832172E+02  0.12085446282E+01 -0.19803702588E+01  0.21121895293E+02  0.10500000000E+00 0. -1.
         13    1    4    4    0    0  0.31986672162E+02  0.17088851794E+01 -0.31036831045E+01  0.32182469737E+02  0.10500000000E+00 0.  1.
    3000001    1    5    5    0    0 -0.14117617529E+02  0.26136908660E+01  0.69168925356E+00  0.14408918720E+02  0.10000000000E+01 0.  1.
        -13    1    6    6    0    0 -0.12353487826E+02 -0.21286613602E+01  0.22084802110E+01  0.12729032583E+02  0.10500000000E+00 0. -1.
         13    1    6    6    0    0 -0.34298423714E+02 -0.59060738291E+01  0.62609801628E+01  0.35362048512E+02  0.10500000000E+00 0.  1.
</event>
<event>
11    0  0.3443539E-009  0.9118800E+02  0.7816531E-02  0.1126479E+00
         25   -1    0    0    0    0  0.00000000000E+00  0.00000000000E+00  0.99999998245E-14  0.12500000000E+03  0.12500000000E+03 0.  0.
    3000001    1    3    3    0    0  0.15348980443E+02 -0.17370710389E+02  0.35754010747E+02  0.42622553473E+02  0.10000000000E+01 0.  1.
    1000022    2    1    0    0    0  0.23307006018E+02 -0.18910548427E+02  0.53901989668E+02  0.62500000920E+02  0.10000012678E+02 0.  0.
    3000022    2    3    3    0    0  0.79580255752E+01 -0.15398380375E+01  0.18147978921E+02  0.19877447447E+02  0.25001173736E+00 0.  0.
    1000022    2    1    0    0    0 -0.23307006018E+02  0.18910548427E+02 -0.53901989668E+02  0.62499999080E+02  0.10000001177E+02 0.  0.
    3000022    2    5    5    0    0 -0.12565778161E+02  0.12674955890E+02 -0.22528967811E+02  0.28743176206E+02  0.25000029941E+00 0.  0.
        -13    1    4    4    0    0  0.40648058145E+01 -0.74156735345E+00  0.93764769424E+01  0.10247044125E+02  0.10500000000E+00 0.  1.
         13    1    4    4    0    0  0.38932197608E+01 -0.79827068402E+00  0.87715019786E+01  0.96304033224E+01  0.10500000000E+00 0. -1.
    3000001    1    5    5    0    0 -0.10741227857E+02  0.62355925369E+01 -0.31373021856E+02  0.33756822874E+02  0.10000000000E+01 0.  1.
        -13    1    6    6    0    0 -0.45169936047E+01  0.44884719348E+01 -0.79863515301E+01  0.10214815089E+02  0.10500000000E+00 0. -1.
         13    1    6    6    0    0 -0.80487845566E+01  0.81864839550E+01 -0.14542616281E+02  0.18528361117E+02  0.10500000000E+00 0.  1.
</event>
<event>
11    0  0.3443539E-009  0.9118800E+02  0.7816531E-02  0.1126479E+00
         25   -1    0    0    0    0  0.00000000000E+00  0.00000000000E+00  0.99999998245E-14  0.12500000000E+03  0.12500000000E+03 0.  0.
    3000001    1    3    3    0    0  0.56736971584E+02 -0.51049382826E+01  0.68395258354E+01  0.57383999975E+02  0.10000000000E+01 0. -1.
    1000022    2    1    0    0    0  0.60691244903E+02 -0.46765638074E+01  0.10047510199E+02  0.62500000000E+02  0.10000004095E+02 0.  0.
    3000022    2    3    3    0    0  0.39542733185E+01  0.42837447512E+00  0.32079843634E+01  0.51160000254E+01  0.25002083143E+00 0.  0.
    1000022    2    1    0    0    0 -0.60691244903E+02  0.46765638074E+01 -0.10047510199E+02  0.62500000000E+02  0.10000004095E+02 0.  0.
    3000022    2    5    5    0    0 -0.42557035268E+02  0.62438679479E+01 -0.10456676168E+02  0.44266146372E+02  0.25000071936E+00 0.  0.
        -13    1    4    4    0    0  0.19017850796E+01  0.25559002377E+00  0.16069815143E+01  0.25051002647E+01  0.10500000000E+00 0.  1.
         13    1    4    4    0    0  0.20524882389E+01  0.17278445134E+00  0.16010028491E+01  0.26108997607E+01  0.10500000000E+00 0. -1.
    3000001    1    5    5    0    0 -0.18134209634E+02 -0.15673041405E+01  0.40916596946E+00  0.18233853628E+02  0.10000000000E+01 0. -1.
        -13    1    6    6    0    0 -0.23811623720E+02  0.35346220624E+01 -0.57984115750E+01  0.24761251565E+02  0.10500000000E+00 0.  1.
         13    1    6    6    0    0 -0.18745411549E+02  0.27092458855E+01 -0.46582645933E+01  0.19504894807E+02  0.10500000000E+00 0. -1.
</event>
<event>
11    0  0.3443539E-009  0.9118800E+02  0.7816531E-02  0.1126479E+00
         25   -1    0    0    0    0  0.00000000000E+00  0.00000000000E+00  0.99999998245E-14  0.12500000000E+03  0.12500000000E+03 0.  0.
    3000001    1    3    3    0    0  0.18688850189E+01 -0.22287373714E+01  0.74767759644E+01  0.80846880154E+01  0.10000000000E+01 0.  1.
    1000022    2    1    0    0    0  0.19704408690E+02 -0.37729330322E+02  0.44659645610E+02  0.62500001100E+02  0.10000005160E+02 0.  0.
    3000022    2    3    3    0    0  0.17835523671E+02 -0.35500592951E+02  0.37182869645E+02  0.54415313085E+02  0.24999722007E+00 0.  0.
    1000022    2    1    0    0    0 -0.19704408690E+02  0.37729330322E+02 -0.44659645610E+02  0.62499998900E+02  0.99999914046E+01 0.  0.
    3000022    2    5    5    0    0 -0.14910251408E+02  0.18086642840E+02 -0.25264535007E+02  0.34464495857E+02  0.24999855196E+00 0.  0.
        -13    1    4    4    0    0  0.54419306962E+01 -0.10823755427E+02  0.11274295520E+02  0.16549593823E+02  0.10500000000E+00 0. -1.
         13    1    4    4    0    0  0.12393592974E+02 -0.24676837524E+02  0.25908574126E+02  0.37865719262E+02  0.10500000000E+00 0.  1.
    3000001    1    5    5    0    0 -0.47941572815E+01  0.19642687482E+02 -0.19395110603E+02  0.28035503043E+02  0.10000000000E+01 0.  1.
        -13    1    6    6    0    0 -0.87121885334E+01  0.10527619014E+02 -0.14641284965E+02  0.20027761772E+02  0.10500000000E+00 0.  1.
         13    1    6    6    0    0 -0.61980628747E+01  0.75590238254E+01 -0.10623250042E+02  0.14436734085E+02  0.10500000000E+00 0. -1.
</event>
<event>
11    0  0.3443539E-009  0.9118800E+02  0.7816531E-02  0.1126479E+00
         25   -1    0    0    0    0  0.00000000000E+00  0.00000000000E+00  0.99999998245E-14  0.12500000000E+03  0.12500000000E+03 0.  0.
    3000001    1    3    3    0    0 -0.12464860596E+01 -0.28902895373E+02  0.10018476190E+01  0.28964370994E+02  0.10000000000E+01 0.  1.
    1000022    2    1    0    0    0 -0.97192151216E+01 -0.60663042951E+02 -0.56375575563E+01  0.62499998512E+02  0.99999918065E+01 0.  0.
    3000022    2    3    3    0    0 -0.84727290620E+01 -0.31760147578E+02 -0.66394051753E+01  0.33535627518E+02  0.24999997359E+00 0.  0.
    1000022    2    1    0    0    0  0.97192151216E+01  0.60663042951E+02  0.56375575563E+01  0.62500001488E+02  0.10000010405E+02 0.  0.
    3000022    2    5    5    0    0  0.25474672275E+01  0.24344791366E+02  0.69408697853E+01  0.25443989981E+02  0.24999365008E+00 0.  0.
        -13    1    4    4    0    0 -0.53758672944E+01 -0.20333730373E+02 -0.42830709310E+01  0.21464302030E+02  0.10500000000E+00 0. -1.
         13    1    4    4    0    0 -0.30968617676E+01 -0.11426417205E+02 -0.23563342443E+01  0.12071325488E+02  0.10500000000E+00 0.  1.
    3000001    1    5    5    0    0  0.71717478941E+01  0.36318251585E+02 -0.13033122290E+01  0.37056011507E+02  0.10000000000E+01 0.  1.
        -13    1    6    6    0    0  0.13344642238E+01  0.12841420761E+02  0.35914144475E+01  0.13401200120E+02  0.10500000000E+00 0.  1.
         13    1    6    6    0    0  0.12130030037E+01  0.11503370606E+02  0.33494553379E+01  0.12042789861E+02  0.10500000000E+00 0. -1.
</event>
<event>
11    0  0.3443539E-009  0.9118800E+02  0.7816531E-02  0.1126479E+00
         25   -1    0    0    0    0  0.00000000000E+00  0.00000000000E+00  0.99999998245E-14  0.12500000000E+03  0.12500000000E+03 0.  0.
    3000001    1    3    3    0    0 -0.18138172959E+02  0.29252079220E+02  0.83712504601E+01  0.35436637697E+02  0.10000000000E+01 0.  1.
    1000022    2    1    0    0    0 -0.38475039375E+02  0.46811980694E+02  0.11599994077E+02  0.62499999665E+02  0.99999952119E+01 0.  0.
    3000022    2    3    3    0    0 -0.20336866416E+02  0.17559901473E+02  0.32287436168E+01  0.27063361968E+02  0.25000064518E+00 0.  0.
    1000022    2    1    0    0    0  0.38475039375E+02 -0.46811980694E+02 -0.11599994077E+02  0.62500000335E+02  0.99999993959E+01 0.  0.
    3000022    2    5    5    0    0  0.65530532328E+01 -0.61208048892E+01  0.16055229696E+01  0.91130106458E+01  0.24999972093E+00 0.  0.
        -13    1    4    4    0    0 -0.72981170348E+01  0.62309174571E+01  0.11748780195E+01  0.96684128983E+01  0.10500000000E+00 0. -1.
         13    1    4    4    0    0 -0.13038749381E+02  0.11328984016E+02  0.20538655973E+01  0.17394949070E+02  0.10500000000E+00 0.  1.
    3000001    1    5    5    0    0  0.31921986142E+02 -0.40691175805E+02 -0.13205517046E+02  0.53386989689E+02  0.10000000000E+01 0. -1.
        -13    1    6    6    0    0  0.23358793353E+01 -0.22508465007E+01  0.61069646895E+00  0.33025168305E+01  0.10500000000E+00 0. -1.
         13    1    6    6    0    0  0.42171738975E+01 -0.38699583885E+01  0.99482650061E+00  0.58104938152E+01  0.10500000000E+00 0.  1.
</event>
<event>
11    0  0.3443539E-009  0.9118800E+02  0.7816531E-02  0.1126479E+00
         25   -1    0    0    0    0  0.00000000000E+00  0.00000000000E+00  0.99999998245E-14  0.12500000000E+03  0.12500000000E+03 0.  0.
    3000001    1    3    3    0    0 -0.55033218610E+02 -0.19210933446E+02 -0.16521225780E+02  0.60594273786E+02  0.10000000000E+01 0.  1.
    1000022    2    1    0    0    0 -0.55477303990E+02 -0.20992730548E+02 -0.16965373364E+02  0.62499998289E+02  0.99999949417E+01 0.  0.
    3000022    2    3    3    0    0 -0.44408538052E+00 -0.17817971025E+01 -0.44414758350E+00  0.19057245026E+01  0.25001212783E+00 0.  0.
    1000022    2    1    0    0    0  0.55477303990E+02  0.20992730548E+02  0.16965373364E+02  0.62500001711E+02  0.10000016331E+02 0.  0.
    3000022    2    5    5    0    0  0.43033638560E+02  0.12306293512E+02  0.14772817808E+02  0.47134250913E+02  0.25011081896E+00 0.  0.
        -13    1    4    4    0    0 -0.33681085139E+00 -0.13032464274E+01 -0.28904466787E+00  0.13807478482E+01  0.10500000000E+00 0. -1.
         13    1    4    4    0    0 -0.10727452913E+00 -0.47855067508E+00 -0.15510291563E+00  0.52497665439E+00  0.10500000000E+00 0.  1.
    3000001    1    5    5    0    0  0.12443665430E+02  0.86864370364E+01  0.21925555559E+01  0.15365750798E+02  0.10000000000E+01 0. -1.
        -13    1    6    6    0    0  0.16934732856E+02  0.48269793275E+01  0.57482488529E+01  0.18523992448E+02  0.10500000000E+00 0.  1.
         13    1    6    6    0    0  0.26098905704E+02  0.74793141841E+01  0.90245689551E+01  0.28610258465E+02  0.10500000000E+00 0. -1.
</event>
<event>
11    0  0.3443539E-009  0.9118800E+02  0.7816531E-02  0.1126479E+00
         25   -1    0    0    0    0  0.00000000000E+00  0.00000000000E+00  0.99999998245E-14  0.12500000000E+03  0.12500000000E+03 0.  0.
    3000001    1    3    3    0    0  0.15142100286E+01 -0.52781727543E+00  0.64036062511E-01  0.18909055249E+01  0.10000000000E+01 0. -1.
    1000022    2    1    0    0    0  0.37087915769E+02 -0.16242497997E+02  0.46550163805E+02  0.62499999744E+02  0.99999990262E+01 0.  0.
    3000022    2    3    3    0    0  0.35573705741E+02 -0.15714680722E+02  0.46486127742E+02  0.60609094219E+02  0.24999868872E+00 0.  0.
    1000022    2    1    0    0    0 -0.37087915769E+02  0.16242497997E+02 -0.46550163805E+02  0.62500000256E+02  0.10000002222E+02 0.  0.
    3000022    2    5    5    0    0 -0.27572963207E+02  0.14427934688E+02 -0.40345106681E+02  0.50953152367E+02  0.25000727805E+00 0.  0.
        -13    1    4    4    0    0  0.14967929310E+02 -0.66472577375E+01  0.19664385339E+02  0.25591483330E+02  0.10500000000E+00 0.  1.
         13    1    4    4    0    0  0.20605776431E+02 -0.90674229842E+01  0.26821742403E+02  0.35017610890E+02  0.10500000000E+00 0. -1.
    3000001    1    5    5    0    0 -0.95149525617E+01  0.18145633093E+01 -0.62050571234E+01  0.11546847888E+02  0.10000000000E+01 0.  1.
        -13    1    6    6    0    0 -0.11335408096E+02  0.59965747591E+01 -0.16671353646E+02  0.21033198590E+02  0.10500000000E+00 0.  1.
         13    1    6    6    0    0 -0.16237555111E+02  0.84313599288E+01 -0.23673753035E+02  0.29919953777E+02  0.10500000000E+00 0. -1.
</event>
<event>
11    0  0.3443539E-009  0.9118800E+02  0.7816531E-02  0.1126479E+00
         25   -1    0    0    0    0  0.00000000000E+00  0.00000000000E+00  0.99999998245E-14  0.12500000000E+03  0.12500000000E+03 0.  0.
    3000001    1    3    3    0    0  0.51902378168E+01 -0.10134942717E+02 -0.52863237951E+02  0.54084910641E+02  0.10000000000E+01 0.  1.
    1000022    2    1    0    0    0  0.87407268384E+01 -0.90070280221E+01 -0.60404662360E+02  0.62500001007E+02  0.10000001576E+02 0.  0.
    3000022    2    3    3    0    0  0.35504890216E+01  0.11279146945E+01 -0.75414244097E+01  0.84150903653E+01  0.24999975590E+00 0.  0.
    1000022    2    1    0    0    0 -0.87407268384E+01  0.90070280221E+01  0.60404662360E+02  0.62499998993E+02  0.99999889913E+01 0.  0.
    3000022    2    5    5    0    0 -0.10292111585E+02  0.57206570037E+01  0.38093132952E+02  0.39872330672E+02  0.24999542644E+00 0.  0.
        -13    1    4    4    0    0  0.13390217569E+01  0.48749699928E+00 -0.29204919157E+01  0.32512967597E+01  0.10500000000E+00 0.  1.
         13    1    4    4    0    0  0.22114672647E+01  0.64041769518E+00 -0.46209324940E+01  0.51637936056E+01  0.10500000000E+00 0. -1.
    3000001    1    5    5    0    0  0.15513847464E+01  0.32863710184E+01  0.22311529408E+02  0.22627668321E+02  0.10000000000E+01 0. -1.
        -13    1    6    6    0    0 -0.53322970024E+01  0.30406052698E+01  0.19827839445E+02  0.20756514972E+02  0.10500000000E+00 0. -1.
         13    1    6    6    0    0 -0.49598145824E+01  0.26800517339E+01  0.18265293507E+02  0.19115815700E+02  0.10500000000E+00 0.  1.
</event>
<event>
11    0  0.3443539E-009  0.9118800E+02  0.7816531E-02  0.1126479E+00
         25   -1    0    0    0    0  0.00000000000E+00  0.00000000000E+00  0.99999998245E-14  0.12500000000E+03  0.12500000000E+03 0.  0.
    3000001    1    3    3    0    0 -0.41572244593E+02  0.31824994605E+02 -0.20067305124E+02  0.56078325020E+02  0.10000000000E+01 0. -1.
    1000022    2    1    0    0    0 -0.43734486452E+02  0.36020599778E+02 -0.24414369620E+02  0.62499996548E+02  0.99999605501E+01 0.  0.
    3000022    2    3    3    0    0 -0.21622418591E+01  0.41956051727E+01 -0.43470644965E+01  0.64216715283E+01  0.25000571757E+00 0.  0.
    1000022    2    1    0    0    0  0.43734486452E+02 -0.36020599778E+02  0.24414369620E+02  0.62500003452E+02  0.10000003700E+02 0.  0.
    3000022    2    5    5    0    0  0.15408153021E+02 -0.98908316358E+01  0.35038805986E+01  0.18643481703E+02  0.25000160461E+00 0.  0.
        -13    1    4    4    0    0 -0.11198659044E+01  0.21534280993E+01 -0.21440263602E+01  0.32402509557E+01  0.10500000000E+00 0. -1.
         13    1    4    4    0    0 -0.10423759546E+01  0.20421770734E+01 -0.22030381363E+01  0.31814205726E+01  0.10500000000E+00 0.  1.
    3000001    1    5    5    0    0  0.28326333431E+02 -0.26129768142E+02  0.20910489021E+02  0.43856521749E+02  0.10000000000E+01 0. -1.
        -13    1    6    6    0    0  0.10360183363E+02 -0.66061473929E+01  0.23891197660E+01  0.12517727468E+02  0.10500000000E+00 0.  1.
         13    1    6    6    0    0  0.50479696571E+01 -0.32846842428E+01  0.11147608326E+01  0.61257542351E+01  0.10500000000E+00 0. -1.
</event>
<event>
11    0  0.3443539E-009  0.9118800E+02  0.7816531E-02  0.1126479E+00
         25   -1    0    0    0    0  0.00000000000E+00  0.00000000000E+00  0.99999998245E-14  0.12500000000E+03  0.12500000000E+03 0.  0.
    3000001    1    3    3    0    0  0.12746858118E+01 -0.35209755830E+00 -0.14746767976E+01  0.22188889712E+01  0.10000000000E+01 0.  1.
    1000022    2    1    0    0    0 -0.36305647183E+01 -0.78145554051E+01 -0.61090111363E+02  0.62499999587E+02  0.99999982811E+01 0.  0.
    3000022    2    3    3    0    0 -0.49052505301E+01 -0.74624578468E+01 -0.59615434566E+02  0.60281110615E+02  0.24999742230E+00 0.  0.
    1000022    2    1    0    0    0  0.36305647183E+01  0.78145554051E+01  0.61090111363E+02  0.62500000413E+02  0.10000003448E+02 0.  0.
    3000022    2    5    5    0    0  0.68566499929E+01  0.37035376215E+01  0.39672792038E+02  0.40431705044E+02  0.25000933429E+00 0.  0.
        -13    1    4    4    0    0 -0.16230698211E+01 -0.25675803434E+01 -0.20220509276E+02  0.20447661109E+02  0.10500000000E+00 0. -1.
         13    1    4    4    0    0 -0.32821807090E+01 -0.48948775034E+01 -0.39394925290E+02  0.39833449506E+02  0.10500000000E+00 0.  1.
    3000001    1    5    5    0    0 -0.32260852747E+01  0.41110177836E+01  0.21417319325E+02  0.22068295369E+02  0.10000000000E+01 0. -1.
        -13    1    6    6    0    0  0.28913640257E+01  0.15805419334E+01  0.16452031654E+02  0.16779108119E+02  0.10500000000E+00 0. -1.
         13    1    6    6    0    0  0.39652859673E+01  0.21229956881E+01  0.23220760383E+02  0.23652596925E+02  0.10500000000E+00 0.  1.
</event>
<event>
11    0  0.3443539E-009  0.9118800E+02  0.7816531E-02  0.1126479E+00
         25   -1    0    0    0    0  0.00000000000E+00  0.00000000000E+00  0.99999998245E-14  0.12500000000E+03  0.12500000000E+03 0.  0.
    3000001    1    3    3    0    0  0.33752339325E+02 -0.23807651082E+02  0.51235975661E+01  0.41632630376E+02  0.10000000000E+01 0. -1.
    1000022    2    1    0    0    0  0.51416436023E+02 -0.34084748968E+02  0.91105326682E+00  0.62500000369E+02  0.10000001128E+02 0.  0.
    3000022    2    3    3    0    0  0.17664096698E+02 -0.10277097886E+02 -0.42125442993E+01  0.20867369994E+02  0.25009572111E+00 0.  0.
    1000022    2    1    0    0    0 -0.51416436023E+02  0.34084748968E+02 -0.91105326682E+00  0.62499999631E+02  0.99999965120E+01 0.  0.
    3000022    2    5    5    0    0 -0.43565226763E+02  0.32142984638E+02 -0.24969755543E+01  0.54197765891E+02  0.24999268191E+00 0.  0.
        -13    1    4    4    0    0  0.56775224931E+01 -0.32791526451E+01 -0.13040194859E+01  0.66857008271E+01  0.10500000000E+00 0. -1.
         13    1    4    4    0    0  0.11986574205E+02 -0.69979452410E+01 -0.29085248134E+01  0.14181669167E+02  0.10500000000E+00 0. -1.
    3000001    1    5    5    0    0 -0.78512092602E+01  0.19417643301E+01  0.15859222875E+01  0.83022337394E+01  0.10000000000E+01 0.  1.
        -13    1    6    6    0    0 -0.17160546003E+02  0.12737762857E+02 -0.97478898182E+00  0.21393835100E+02  0.10500000000E+00 0. -1.
         13    1    6    6    0    0 -0.26404680760E+02  0.19405221781E+02 -0.15221865725E+01  0.32803930791E+02  0.10500000000E+00 0.  1.
</event>
<event>
11    0  0.3443539E-009  0.9118800E+02  0.7816531E-02  0.1126479E+00
         25   -1    0    0    0    0  0.00000000000E+00  0.00000000000E+00  0.99999998245E-14  0.12500000000E+03  0.12500000000E+03 0.  0.
    3000001    1    3    3    0    0  0.12141109397E+02 -0.86354405247E+01  0.66218082651E+01  0.16334800738E+02  0.10000000000E+01 0.  1.
    1000022    2    1    0    0    0  0.54658939588E+02 -0.19418721304E+02  0.21013412621E+02  0.62500001972E+02  0.10000016131E+02 0.  0.
    3000022    2    3    3    0    0  0.42517830191E+02 -0.10783280779E+02  0.14391604356E+02  0.46165201234E+02  0.25000118603E+00 0.  0.
    1000022    2    1    0    0    0 -0.54658939588E+02  0.19418721304E+02 -0.21013412621E+02  0.62499998028E+02  0.99999914755E+01 0.  0.
    3000022    2    5    5    0    0 -0.46136938140E+02  0.19627711771E+02 -0.16384042896E+02  0.52748113607E+02  0.24999441644E+00 0.  0.
        -13    1    4    4    0    0  0.27407424557E+02 -0.69080670891E+01  0.92318119225E+01  0.29734251094E+02  0.10500000000E+00 0. -1.
         13    1    4    4    0    0  0.15110405634E+02 -0.38752136898E+01  0.51597924331E+01  0.16430950140E+02  0.10500000000E+00 0.  1.
    3000001    1    5    5    0    0 -0.85220014484E+01 -0.20899046749E+00 -0.46293697248E+01  0.97518844205E+01  0.10000000000E+01 0.  1.
        -13    1    6    6    0    0 -0.23589281203E+02  0.10098847152E+02 -0.83488757281E+01  0.26984359403E+02  0.10500000000E+00 0.  1.
         13    1    6    6    0    0 -0.22547656937E+02  0.95288646193E+01 -0.80351671678E+01  0.25763754204E+02  0.10500000000E+00 0. -1.
</event>
<event>
11    0  0.3443539E-009  0.9118800E+02  0.7816531E-02  0.1126479E+00
         25   -1    0    0    0    0  0.00000000000E+00  0.00000000000E+00  0.99999998245E-14  0.12500000000E+03  0.12500000000E+03 0.  0.
    3000001    1    3    3    0    0  0.23610132991E+02 -0.27556772916E+02  0.87471119792E+01  0.37340675963E+02  0.10000000000E+01 0. -1.
    1000022    2    1    0    0    0  0.44787349710E+02 -0.40891531549E+02  0.11323698606E+02  0.62500000103E+02  0.99999908144E+01 0.  0.
    3000022    2    3    3    0    0  0.21177216718E+02 -0.13334758633E+02  0.25765866271E+01  0.25159324139E+02  0.24999355370E+00 0.  0.
    1000022    2    1    0    0    0 -0.44787349710E+02  0.40891531549E+02 -0.11323698606E+02  0.62499999897E+02  0.99999895325E+01 0.  0.
    3000022    2    5    5    0    0 -0.29739390049E+02  0.31941428224E+02 -0.53331062851E+01  0.43968064331E+02  0.25000181398E+00 0.  0.
        -13    1    4    4    0    0  0.13996745851E+02 -0.88762069428E+01  0.17177639093E+01  0.16663063402E+02  0.10500000000E+00 0.  1.
         13    1    4    4    0    0  0.71804708675E+01 -0.44585516898E+01  0.85882271781E+00  0.84962607370E+01  0.10500000000E+00 0. -1.
    3000001    1    5    5    0    0 -0.15047959661E+02  0.89501033242E+01 -0.59905923212E+01  0.18531935566E+02  0.10000000000E+01 0. -1.
        -13    1    6    6    0    0 -0.17870856445E+02  0.19133419132E+02 -0.32472686198E+01  0.26382020700E+02  0.10500000000E+00 0.  1.
         13    1    6    6    0    0 -0.11868533604E+02  0.12808009093E+02 -0.20858376652E+01  0.17586043631E+02  0.10500000000E+00 0. -1.
</event>
<event>
11    0  0.3443539E-009  0.9118800E+02  0.7816531E-02  0.1126479E+00
         25   -1    0    0    0    0  0.00000000000E+00  0.00000000000E+00  0.99999998245E-14  0.12500000000E+03  0.12500000000E+03 0.  0.
    3000001    1    3    3    0    0 -0.35129790787E+01 -0.93358778733E+00  0.17618161099E+01  0.41613224063E+01  0.10000000000E+01 0.  1.
    1000022    2    1    0    0    0 -0.36825517042E+02 -0.44306581375E+02  0.22069386235E+02  0.62500003352E+02  0.10000037587E+02 0.  0.
    3000022    2    3    3    0    0 -0.33312537963E+02 -0.43372993587E+02  0.20307570125E+02  0.58338680946E+02  0.25006369942E+00 0.  0.
    1000022    2    1    0    0    0  0.36825517042E+02  0.44306581375E+02 -0.22069386235E+02  0.62499996648E+02  0.99999956862E+01 0.  0.
    3000022    2    5    5    0    0  0.29582322052E+02  0.36933674842E+02 -0.21829691006E+02  0.52113415006E+02  0.24999778052E+00 0.  0.
        -13    1    4    4    0    0 -0.93574452973E+01 -0.12237252763E+02  0.56952534805E+01  0.16424343971E+02  0.10500000000E+00 0.  1.
         13    1    4    4    0    0 -0.23955092666E+02 -0.31135740824E+02  0.14612316645E+02  0.41914336975E+02  0.10500000000E+00 0. -1.
    3000001    1    5    5    0    0  0.72431949899E+01  0.73729065322E+01 -0.23969522930E+00  0.10386581642E+02  0.10000000000E+01 0.  1.
        -13    1    6    6    0    0  0.15744777938E+02  0.19666317181E+02 -0.11547824245E+02  0.27713269991E+02  0.10500000000E+00 0. -1.
         13    1    6    6    0    0  0.13837544114E+02  0.17267357661E+02 -0.10281866761E+02  0.24400145016E+02  0.10500000000E+00 0.  1.
</event>
<event>
11    0  0.3443539E-009  0.9118800E+02  0.7816531E-02  0.1126479E+00
         25   -1    0    0    0    0  0.00000000000E+00  0.00000000000E+00  0.99999998245E-14  0.12500000000E+03  0.12500000000E+03 0.  0.
    3000001    1    3    3    0    0 -0.11255491027E+02 -0.56982616690E+02  0.15055920069E+02  0.60011543991E+02  0.10000000000E+01 0. -1.
    1000022    2    1    0    0    0 -0.13279756714E+02 -0.58391988776E+02  0.14841617299E+02  0.62499998537E+02  0.99999960794E+01 0.  0.
    3000022    2    3    3    0    0 -0.20242656871E+01 -0.14093720857E+01 -0.21430277078E+00  0.24884545461E+01  0.24999820499E+00 0.  0.
    1000022    2    1    0    0    0  0.13279756714E+02  0.58391988776E+02 -0.14841617299E+02  0.62500001463E+02  0.10000014361E+02 0.  0.
    3000022    2    5    5    0    0 -0.86124184942E+00  0.14056700122E+01  0.61425061409E+00  0.17769233166E+01  0.25001389907E+00 0.  0.
        -13    1    4    4    0    0 -0.97278305611E+00 -0.63430452943E+00 -0.15859189242E+00  0.11767860887E+01  0.10500000000E+00 0.  1.
         13    1    4    4    0    0 -0.10514826310E+01 -0.77506755625E+00 -0.55710878364E-01  0.13116684574E+01  0.10500000000E+00 0. -1.
    3000001    1    5    5    0    0  0.14140998563E+02  0.56986318763E+02 -0.15455867913E+02  0.60723078146E+02  0.10000000000E+01 0. -1.
        -13    1    6    6    0    0 -0.43739145750E+00  0.60268160739E+00  0.31226459285E+00  0.81429146068E+00  0.10500000000E+00 0.  1.
         13    1    6    6    0    0 -0.42385039192E+00  0.80298840484E+00  0.30198602123E+00  0.96263185593E+00  0.10500000000E+00 0. -1.
</event>
<event>
11    0  0.3443539E-009  0.9118800E+02  0.7816531E-02  0.1126479E+00
         25   -1    0    0    0    0  0.00000000000E+00  0.00000000000E+00  0.99999998245E-14  0.12500000000E+03  0.12500000000E+03 0.  0.
    3000001    1    3    3    0    0  0.32945172094E+02  0.14189866354E+02 -0.25948766393E+02  0.44284028145E+02  0.10000000000E+01 0. -1.
    1000022    2    1    0    0    0  0.47956733470E+02  0.23055521151E+02 -0.31222500494E+02  0.62499998701E+02  0.99999979897E+01 0.  0.
    3000022    2    3    3    0    0  0.15011561377E+02  0.88656547976E+01 -0.52737341011E+01  0.18215970556E+02  0.25000393822E+00 0.  0.
    1000022    2    1    0    0    0 -0.47956733470E+02 -0.23055521151E+02  0.31222500494E+02  0.62500001299E+02  0.10000014229E+02 0.  0.
    3000022    2    5    5    0    0 -0.20920408855E+02 -0.15118633042E+02  0.17126959562E+02  0.30977924658E+02  0.25000118609E+00 0.  0.
        -13    1    4    4    0    0  0.98315334500E+01  0.57915436560E+01 -0.35081800135E+01  0.11938148094E+02  0.10500000000E+00 0. -1.
         13    1    4    4    0    0  0.51800279268E+01  0.30741111416E+01 -0.17655540876E+01  0.62778224624E+01  0.10500000000E+00 0.  1.
    3000001    1    5    5    0    0 -0.27036324616E+02 -0.79368881096E+01  0.14095540932E+02  0.31522076641E+02  0.10000000000E+01 0. -1.
        -13    1    6    6    0    0 -0.50285178183E+01 -0.36165554076E+01  0.40944752538E+01  0.74257132364E+01  0.10500000000E+00 0.  1.
         13    1    6    6    0    0 -0.15891891037E+02 -0.11502077634E+02  0.13032484308E+02  0.23552211422E+02  0.10500000000E+00 0. -1.
</event>
<event>
11    0  0.3443539E-009  0.9118800E+02  0.7816531E-02  0.1126479E+00
         25   -1    0    0    0    0  0.00000000000E+00  0.00000000000E+00  0.99999998245E-14  0.12500000000E+03  0.12500000000E+03 0.  0.
    3000001    1    3    3    0    0  0.34343264993E+01 -0.67996936865E+01  0.31358181845E+02  0.32285693447E+02  0.10000000000E+01 0.  1.
    1000022    2    1    0    0    0  0.48375842868E+01 -0.21980005988E+02  0.57443253186E+02  0.62500002450E+02  0.10000004233E+02 0.  0.
    3000022    2    3    3    0    0  0.14032577876E+01 -0.15180312301E+02  0.26085071341E+02  0.30214309003E+02  0.25001531711E+00 0.  0.
    1000022    2    1    0    0    0 -0.48375842868E+01  0.21980005988E+02 -0.57443253186E+02  0.62499997550E+02  0.99999736084E+01 0.  0.
    3000022    2    5    5    0    0  0.87400350244E+00  0.10209436652E+01 -0.35827092943E+00  0.14131763217E+01  0.25000233478E+00 0.  0.
        -13    1    4    4    0    0  0.32308067840E+00 -0.34726238756E+01  0.59708063642E+01  0.69155658731E+01  0.10500000000E+00 0. -1.
         13    1    4    4    0    0  0.10801771092E+01 -0.11707688425E+02  0.20114264977E+02  0.23298743130E+02  0.10500000000E+00 0.  1.
    3000001    1    5    5    0    0 -0.57115877893E+01  0.20959062322E+02 -0.57084982257E+02  0.61086821228E+02  0.10000000000E+01 0. -1.
        -13    1    6    6    0    0  0.42594419673E+00  0.45462297337E+00 -0.22955870471E+00  0.67218502330E+00  0.10500000000E+00 0.  1.
         13    1    6    6    0    0  0.44805930571E+00  0.56632069186E+00 -0.12871222473E+00  0.74099129837E+00  0.10500000000E+00 0. -1.
</event>
<event>
11    0  0.3443539E-009  0.9118800E+02  0.7816531E-02  0.1126479E+00
         25   -1    0    0    0    0  0.00000000000E+00  0.00000000000E+00  0.99999998245E-14  0.12500000000E+03  0.12500000000E+03 0.  0.
    3000001    1    3    3    0    0 -0.20637156452E+02 -0.11087671066E+02 -0.16144775961E+02  0.28468973759E+02  0.10000000000E+01 0.  1.
    1000022    2    1    0    0    0 -0.50902310121E+02 -0.22858573849E+02 -0.26319002866E+02  0.62500004183E+02  0.10000051849E+02 0.  0.
    3000022    2    3    3    0    0 -0.30265153669E+02 -0.11770902782E+02 -0.10174226905E+02  0.34031030424E+02  0.24991928097E+00 0.  0.
    1000022    2    1    0    0    0  0.50902310121E+02  0.22858573849E+02  0.26319002866E+02  0.62499995817E+02  0.99999995619E+01 0.  0.
    3000022    2    5    5    0    0  0.25985728114E+01  0.40974907372E+01  0.23585931143E+01  0.54006918542E+01  0.25000005515E+00 0.  0.
        -13    1    4    4    0    0 -0.15415316859E+02 -0.59517080396E+01 -0.51205115889E+01  0.17299869548E+02  0.10500000000E+00 0. -1.
         13    1    4    4    0    0 -0.14849836810E+02 -0.58191947426E+01 -0.50537153162E+01  0.16731160876E+02  0.10500000000E+00 0.  1.
    3000001    1    5    5    0    0  0.48303737309E+02  0.18761083112E+02  0.23960409752E+02  0.57099303963E+02  0.10000000000E+01 0. -1.
        -13    1    6    6    0    0  0.11050279817E+01  0.17951580703E+01  0.95894362052E+00  0.23182487366E+01  0.10500000000E+00 0.  1.
         13    1    6    6    0    0  0.14935448297E+01  0.23023326670E+01  0.13996494938E+01  0.30824431176E+01  0.10500000000E+00 0. -1.
</event>
<event>
11    0  0.3443539E-009  0.9118800E+02  0.7816531E-02  0.1126479E+00
         25   -1    0    0    0    0  0.00000000000E+00  0.00000000000E+00  0.99999998245E-14  0.12500000000E+03  0.12500000000E+03 0.  0.
    3000001    1    3    3    0    0 -0.12035918095E+01  0.11406817742E+02  0.18441430027E+01  0.11660402551E+02  0.10000000000E+01 0.  1.
    1000022    2    1    0    0    0  0.63385220251E+01  0.56118810950E+02  0.24834496482E+02  0.62500000083E+02  0.99999995497E+01 0.  0.
    3000022    2    3    3    0    0  0.75421138346E+01  0.44711993208E+02  0.22990353479E+02  0.50839597532E+02  0.25001277872E+00 0.  0.
    1000022    2    1    0    0    0 -0.63385220251E+01 -0.56118810950E+02 -0.24834496482E+02  0.62499999917E+02  0.99999985102E+01 0.  0.
    3000022    2    5    5    0    0 -0.44231012280E+01 -0.13047131239E+02 -0.94684221701E+01  0.16718402416E+02  0.25000584157E+00 0.  0.
        -13    1    4    4    0    0  0.19521362941E+01  0.11406862222E+02  0.58569244147E+01  0.12970810709E+02  0.10500000000E+00 0.  1.
         13    1    4    4    0    0  0.55899775405E+01  0.33305130986E+02  0.17133429065E+02  0.37868786823E+02  0.10500000000E+00 0. -1.
    3000001    1    5    5    0    0 -0.19154207971E+01 -0.43071679711E+02 -0.15366074312E+02  0.45781597501E+02  0.10000000000E+01 0. -1.
        -13    1    6    6    0    0 -0.20238399456E+01 -0.61501972462E+01 -0.44079649054E+01  0.78333922345E+01  0.10500000000E+00 0.  1.
         13    1    6    6    0    0 -0.23992612824E+01 -0.68969339927E+01 -0.50604572647E+01  0.88850101817E+01  0.10500000000E+00 0. -1.
</event>
<event>
11    0  0.3443539E-009  0.9118800E+02  0.7816531E-02  0.1126479E+00
         25   -1    0    0    0    0  0.00000000000E+00  0.00000000000E+00  0.99999998245E-14  0.12500000000E+03  0.12500000000E+03 0.  0.
    3000001    1    3    3    0    0 -0.27421641937E+01 -0.77737046348E+01  0.47272308077E+02  0.47996052537E+02  0.10000000000E+01 0.  1.
    1000022    2    1    0    0    0  0.17517253569E+01 -0.90728102168E+01  0.60998897976E+02  0.62500000073E+02  0.10000001393E+02 0.  0.
    3000022    2    3    3    0    0  0.44938895506E+01 -0.12991055820E+01  0.13726589900E+02  0.14503947536E+02  0.25001051466E+00 0.  0.
    1000022    2    1    0    0    0 -0.17517253569E+01  0.90728102168E+01 -0.60998897976E+02  0.62499999927E+02  0.10000000480E+02 0.  0.
    3000022    2    5    5    0    0 -0.42472976059E+01  0.17988136879E+00 -0.22153932180E+02  0.22559501281E+02  0.24998554537E+00 0.  0.
        -13    1    4    4    0    0  0.20852524127E+01 -0.53853642506E+00  0.62372516932E+01  0.65994418545E+01  0.10500000000E+00 0. -1.
         13    1    4    4    0    0  0.24086371379E+01 -0.76056915694E+00  0.74893382063E+01  0.79045056817E+01  0.10500000000E+00 0.  1.
    3000001    1    5    5    0    0  0.24955722490E+01  0.88929288480E+01 -0.38844965797E+02  0.39940498646E+02  0.10000000000E+01 0.  1.
        -13    1    6    6    0    0 -0.27355880228E+01  0.17306820831E+00 -0.14242396356E+02  0.14504146766E+02  0.10500000000E+00 0. -1.
         13    1    6    6    0    0 -0.15117095831E+01  0.68131604837E-02 -0.79115358234E+01  0.80553545154E+01  0.10500000000E+00 0.  1.
</event>
<event>
11    0  0.3443539E-009  0.9118800E+02  0.7816531E-02  0.1126479E+00
         25   -1    0    0    0    0  0.00000000000E+00  0.00000000000E+00  0.99999998245E-14  0.12500000000E+03  0.12500000000E+03 0.  0.
    3000001    1    3    3    0    0 -0.28853432770E+01 -0.11100994008E+02  0.13421890009E+02  0.17683450036E+02  0.10000000000E+01 0.  1.
    1000022    2    1    0    0    0  0.52735344945E+01 -0.37449289343E+02  0.48744132864E+02  0.62500001601E+02  0.10000013659E+02 0.  0.
    3000022    2    3    3    0    0  0.81588777715E+01 -0.26348295335E+02  0.35322242855E+02  0.44816551565E+02  0.25000061480E+00 0.  0.
    1000022    2    1    0    0    0 -0.52735344945E+01  0.37449289343E+02 -0.48744132864E+02  0.62499998399E+02  0.99999936446E+01 0.  0.
    3000022    2    5    5    0    0 -0.43748039635E+01  0.68382174525E+01 -0.13910386776E+02  0.16107808266E+02  0.24999845124E+00 0.  0.
        -13    1    4    4    0    0  0.32961935130E+01 -0.10835780026E+02  0.14455242017E+02  0.18364206142E+02  0.10500000000E+00 0.  1.
         13    1    4    4    0    0  0.48626842585E+01 -0.15512515309E+02  0.20867000838E+02  0.26452345423E+02  0.10500000000E+00 0. -1.
    3000001    1    5    5    0    0 -0.89873053106E+00  0.30611071890E+02 -0.34833746087E+02  0.46392190133E+02  0.10000000000E+01 0. -1.
        -13    1    6    6    0    0 -0.11804437228E+01  0.19042423716E+01 -0.37995386015E+01  0.44121542331E+01  0.10500000000E+00 0. -1.
         13    1    6    6    0    0 -0.31943602407E+01  0.49339750809E+01 -0.10110848175E+02  0.11695654033E+02  0.10500000000E+00 0.  1.
</event>
<event>
11    0  0.3443539E-009  0.9118800E+02  0.7816531E-02  0.1126479E+00
         25   -1    0    0    0    0  0.00000000000E+00  0.00000000000E+00  0.99999998245E-14  0.12500000000E+03  0.12500000000E+03 0.  0.
    3000001    1    3    3    0    0 -0.38692216813E+02 -0.14574438280E+02  0.56711129427E+01  0.41745220266E+02  0.10000000000E+01 0. -1.
    1000022    2    1    0    0    0 -0.54382181568E+02 -0.26316001440E+02  0.12501863756E+02  0.62500001858E+02  0.10000001549E+02 0.  0.
    3000022    2    3    3    0    0 -0.15689964755E+02 -0.11741563161E+02  0.68307508133E+01  0.20754781592E+02  0.25000555909E+00 0.  0.
    1000022    2    1    0    0    0  0.54382181568E+02  0.26316001440E+02 -0.12501863756E+02  0.62499998142E+02  0.99999783212E+01 0.  0.
    3000022    2    5    5    0    0  0.23007717135E+02  0.14565328379E+02 -0.95287446879E+01  0.28850707320E+02  0.24999789416E+00 0.  0.
        -13    1    4    4    0    0 -0.76985867669E+01 -0.58194882106E+01  0.34159261951E+01  0.10237883473E+02  0.10500000000E+00 0.  1.
         13    1    4    4    0    0 -0.79913779885E+01 -0.59220749500E+01  0.34148246181E+01  0.10516898119E+02  0.10500000000E+00 0. -1.
    3000001    1    5    5    0    0  0.31374464433E+02  0.11750673061E+02 -0.29731190681E+01  0.33649290822E+02  0.10000000000E+01 0.  1.
        -13    1    6    6    0    0  0.58030441792E+01  0.36687274660E+01 -0.23737590293E+01  0.72650285543E+01  0.10500000000E+00 0. -1.
         13    1    6    6    0    0  0.17204672956E+02  0.10896600913E+02 -0.71549856586E+01  0.21585678765E+02  0.10500000000E+00 0.  1.
</event>
<event>
11    0  0.3443539E-009  0.9118800E+02  0.7816531E-02  0.1126479E+00
         25   -1    0    0    0    0  0.00000000000E+00  0.00000000000E+00  0.99999998245E-14  0.12500000000E+03  0.12500000000E+03 0.  0.
    3000001    1    3    3    0    0 -0.38384908879E+02 -0.39143488012E+01  0.30143885671E+02  0.48973229417E+02  0.10000000000E+01 0. -1.
    1000022    2    1    0    0    0 -0.48625352288E+02 -0.98740818719E+01  0.36665074553E+02  0.62499999406E+02  0.99999927867E+01 0.  0.
    3000022    2    3    3    0    0 -0.10240443410E+02 -0.59597330706E+01  0.65211888821E+01  0.13526769989E+02  0.25000478753E+00 0.  0.
    1000022    2    1    0    0    0  0.48625352288E+02  0.98740818719E+01 -0.36665074553E+02  0.62500000594E+02  0.10000000214E+02 0.  0.
    3000022    2    5    5    0    0  0.28352766579E+02  0.88768704156E+01 -0.26340462471E+02  0.39705927314E+02  0.24999927855E+00 0.  0.
        -13    1    4    4    0    0 -0.78679655575E+01 -0.45876360947E+01  0.50187007723E+01  0.10399503324E+02  0.10500000000E+00 0. -1.
         13    1    4    4    0    0 -0.23724778520E+01 -0.13720969760E+01  0.15024881099E+01  0.31272666644E+01  0.10500000000E+00 0.  1.
    3000001    1    5    5    0    0  0.20272585710E+02  0.99721145624E+00 -0.10324612082E+02  0.22794073280E+02  0.10000000000E+01 0.  1.
        -13    1    6    6    0    0  0.16549334745E+02  0.51784517994E+01 -0.15459975569E+02  0.23231846959E+02  0.10500000000E+00 0. -1.
         13    1    6    6    0    0  0.11803431834E+02  0.36984186162E+01 -0.10880486902E+02  0.16474080355E+02  0.10500000000E+00 0.  1.
</event>
<event>
11    0  0.3443539E-009  0.9118800E+02  0.7816531E-02  0.1126479E+00
         25   -1    0    0    0    0  0.00000000000E+00  0.00000000000E+00  0.99999998245E-14  0.12500000000E+03  0.12500000000E+03 0.  0.
    3000001    1    3    3    0    0 -0.22514285850E+01 -0.26487797539E+02  0.10316706663E+02  0.28532556589E+02  0.10000000000E+01 0. -1.
    1000022    2    1    0    0    0 -0.10387088901E+02 -0.59322346916E+02  0.13387222421E+02  0.62499999369E+02  0.99999868710E+01 0.  0.
    3000022    2    3    3    0    0 -0.81356603163E+01 -0.32834549377E+02  0.30705157579E+01  0.33967442779E+02  0.25000071462E+00 0.  0.
    1000022    2    1    0    0    0  0.10387088901E+02  0.59322346916E+02 -0.13387222421E+02  0.62500000631E+02  0.99999947616E+01 0.  0.
    3000022    2    5    5    0    0 -0.16335467306E+01  0.76573939215E+01 -0.22303722636E+00  0.78368611238E+01  0.24998015744E+00 0.  0.
        -13    1    4    4    0    0 -0.30618274511E+01 -0.12149242008E+02  0.11698067581E+01  0.12584051079E+02  0.10500000000E+00 0. -1.
         13    1    4    4    0    0 -0.50738328652E+01 -0.20685307370E+02  0.19007089998E+01  0.21383391701E+02  0.10500000000E+00 0.  1.
    3000001    1    5    5    0    0  0.12020635632E+02  0.51664952995E+02 -0.13164185195E+02  0.54663139507E+02  0.10000000000E+01 0.  1.
        -13    1    6    6    0    0 -0.59381480576E+00  0.26975820699E+01 -0.24631866375E-01  0.27642714729E+01  0.10500000000E+00 0. -1.
         13    1    6    6    0    0 -0.10397319249E+01  0.49598118516E+01 -0.19840535999E+00  0.50725896508E+01  0.10500000000E+00 0.  1.
</event>
<event>
11    0  0.3443539E-009  0.9118800E+02  0.7816531E-02  0.1126479E+00
         25   -1    0    0    0    0  0.00000000000E+00  0.00000000000E+00  0.99999998245E-14  0.12500000000E+03  0.12500000000E+03 0.  0.
    3000001    1    3    3    0    0 -0.61205883670E+01 -0.11135423659E+02 -0.70766528893E+01  0.14578692608E+02  0.10000000000E+01 0.  1.
    1000022    2    1    0    0    0 -0.39317735211E+02 -0.43523127347E+02 -0.19133821004E+02  0.62500000103E+02  0.99999995227E+01 0.  0.
    3000022    2    3    3    0    0 -0.33197146844E+02 -0.32387703688E+02 -0.12057168115E+02  0.47921307495E+02  0.25000072200E+00 0.  0.
    1000022    2    1    0    0    0  0.39317735211E+02  0.43523127347E+02  0.19133821004E+02  0.62499999897E+02  0.99999982364E+01 0.  0.
    3000022    2    5    5    0    0  0.23995518947E+02  0.20591189064E+02  0.71844813267E+01  0.32426243508E+02  0.24999895175E+00 0.  0.
        -13    1    4    4    0    0 -0.16495897962E+02 -0.16090420834E+02 -0.59206696827E+01  0.23792470378E+02  0.10500000000E+00 0. -1.
         13    1    4    4    0    0 -0.16701248883E+02 -0.16297282854E+02 -0.61364984319E+01  0.24128837118E+02  0.10500000000E+00 0.  1.
    3000001    1    5    5    0    0  0.15322216265E+02  0.22931938282E+02  0.11949339677E+02  0.30073756389E+02  0.10000000000E+01 0. -1.
        -13    1    6    6    0    0  0.84380676533E+01  0.72386858014E+01  0.25843688247E+01  0.11414444580E+02  0.10500000000E+00 0.  1.
         13    1    6    6    0    0  0.15557451294E+02  0.13352503263E+02  0.46001125021E+01  0.21011798928E+02  0.10500000000E+00 0. -1.
</event>
<event>
11    0  0.3443539E-009  0.9118800E+02  0.7816531E-02  0.1126479E+00
         25   -1    0    0    0    0  0.00000000000E+00  0.00000000000E+00  0.99999998245E-14  0.12500000000E+03  0.12500000000E+03 0.  0.
    3000001    1    3    3    0    0  0.14861353630E+01 -0.10683888099E+02 -0.82671723005E+01  0.13627186103E+02  0.10000000000E+01 0. -1.
    1000022    2    1    0    0    0 -0.10072205060E+02 -0.52294668653E+02 -0.31145909951E+02  0.62499994715E+02  0.99999974211E+01 0.  0.
    3000022    2    3    3    0    0 -0.11558340423E+02 -0.41610780554E+02 -0.22878737650E+02  0.48872808613E+02  0.24998710380E+00 0.  0.
    1000022    2    1    0    0    0  0.10072205060E+02  0.52294668653E+02  0.31145909951E+02  0.62500005285E+02  0.10000063481E+02 0.  0.
    3000022    2    5    5    0    0  0.65284279000E+01  0.20242408956E+02  0.17187748797E+02  0.27346968843E+02  0.25001004790E+00 0.  0.
        -13    1    4    4    0    0 -0.44846235766E+01 -0.15929018422E+02 -0.87439960122E+01  0.18716676194E+02  0.10500000000E+00 0.  1.
         13    1    4    4    0    0 -0.70737168461E+01 -0.25681762132E+02 -0.14134741638E+02  0.30156132418E+02  0.10500000000E+00 0. -1.
    3000001    1    5    5    0    0  0.35437771596E+01  0.32052259697E+02  0.13958161154E+02  0.35153036441E+02  0.10000000000E+01 0.  1.
        -13    1    6    6    0    0  0.32245130260E+01  0.10216612277E+02  0.86444044616E+01  0.13766386751E+02  0.10500000000E+00 0.  1.
         13    1    6    6    0    0  0.33039148740E+01  0.10025796679E+02  0.85433443356E+01  0.13580582093E+02  0.10500000000E+00 0. -1.
</event>
<event>
11    0  0.3443539E-009  0.9118800E+02  0.7816531E-02  0.1126479E+00
         25   -1    0    0    0    0  0.00000000000E+00  0.00000000000E+00  0.99999998245E-14  0.12500000000E+03  0.12500000000E+03 0.  0.
    3000001    1    3    3    0    0 -0.27154603205E+02  0.12650623050E+02  0.17906814439E+02  0.34915107649E+02  0.10000000000E+01 0.  1.
    1000022    2    1    0    0    0 -0.42138498506E+02  0.27161556354E+02  0.35956174055E+02  0.62499998017E+02  0.10000004976E+02 0.  0.
    3000022    2    3    3    0    0 -0.14983895301E+02  0.14510933304E+02  0.18049359615E+02  0.27584890368E+02  0.24998065787E+00 0.  0.
    1000022    2    1    0    0    0  0.42138498506E+02 -0.27161556354E+02 -0.35956174055E+02  0.62500001983E+02  0.10000029766E+02 0.  0.
    3000022    2    5    5    0    0  0.24178428255E+02 -0.98749537160E+01 -0.19841415343E+02  0.32800234265E+02  0.25000248690E+00 0.  0.
        -13    1    4    4    0    0 -0.99384814866E+01  0.95541242923E+01  0.11955356336E+02  0.18248185536E+02  0.10500000000E+00 0. -1.
         13    1    4    4    0    0 -0.50454138146E+01  0.49568090121E+01  0.60940032795E+01  0.93367048317E+01  0.10500000000E+00 0.  1.
    3000001    1    5    5    0    0  0.17960070252E+02 -0.17286602638E+02 -0.16114758711E+02  0.29699767718E+02  0.10000000000E+01 0.  1.
        -13    1    6    6    0    0  0.12016870906E+02 -0.48371090848E+01 -0.98192291389E+01  0.16255186758E+02  0.10500000000E+00 0.  1.
         13    1    6    6    0    0  0.12161557349E+02 -0.50378446313E+01 -0.10022186204E+02  0.16545047507E+02  0.10500000000E+00 0. -1.
</event>
<event>
11    0  0.3443539E-009  0.9118800E+02  0.7816531E-02  0.1126479E+00
         25   -1    0    0    0    0  0.00000000000E+00  0.00000000000E+00  0.99999998245E-14  0.12500000000E+03  0.12500000000E+03 0.  0.
    3000001    1    3    3    0    0  0.14730476629E+02 -0.81429555228E+01 -0.47912831763E+02  0.50793051827E+02  0.10000000000E+01 0.  1.
    1000022    2    1    0    0    0  0.17668832586E+02 -0.14467175763E+02 -0.57312854224E+02  0.62499999476E+02  0.99999927844E+01 0.  0.
    3000022    2    3    3    0    0  0.29383559571E+01 -0.63242202401E+01 -0.94000224605E+01  0.11706947648E+02  0.25000721787E+00 0.  0.
    1000022    2    1    0    0    0 -0.17668832586E+02  0.14467175763E+02  0.57312854224E+02  0.62500000524E+02  0.99999993393E+01 0.  0.
    3000022    2    5    5    0    0 -0.12056204477E+02  0.37060813413E+01  0.32418493259E+02  0.34786611066E+02  0.24999794107E+00 0.  0.
        -13    1    4    4    0    0  0.87043902877E+00 -0.17882784041E+01 -0.27179428898E+01  0.33695463056E+01  0.10500000000E+00 0.  1.
         13    1    4    4    0    0  0.20679169283E+01 -0.45359418360E+01 -0.66820795707E+01  0.83374013428E+01  0.10500000000E+00 0. -1.
    3000001    1    5    5    0    0 -0.56126281090E+01  0.10761094422E+02  0.24894360965E+02  0.27713389459E+02  0.10000000000E+01 0.  1.
        -13    1    6    6    0    0 -0.59015915448E+01  0.18768849332E+01  0.16003709734E+02  0.17160455416E+02  0.10500000000E+00 0.  1.
         13    1    6    6    0    0 -0.61546129319E+01  0.18291964081E+01  0.16414783525E+02  0.17626155650E+02  0.10500000000E+00 0. -1.
</event>
<event>
11    0  0.3443539E-009  0.9118800E+02  0.7816531E-02  0.1126479E+00
         25   -1    0    0    0    0  0.00000000000E+00  0.00000000000E+00  0.99999998245E-14  0.12500000000E+03  0.12500000000E+03 0.  0.
    3000001    1    3    3    0    0 -0.13508144388E+02  0.13022207801E+01  0.11214071068E+02  0.17632955897E+02  0.10000000000E+01 0.  1.
    1000022    2    1    0    0    0 -0.36776458389E+02  0.11839724941E+02  0.48099511499E+02  0.62499999978E+02  0.10000000623E+02 0.  0.
    3000022    2    3    3    0    0 -0.23268314001E+02  0.10537504161E+02  0.36885440432E+02  0.44867044081E+02  0.24999660311E+00 0.  0.
    1000022    2    1    0    0    0  0.36776458389E+02 -0.11839724941E+02 -0.48099511499E+02  0.62500000022E+02  0.10000000898E+02 0.  0.
    3000022    2    5    5    0    0  0.11201398707E+02 -0.28560242452E+00 -0.19007174437E+02  0.22065540700E+02  0.25000920029E+00 0.  0.
        -13    1    4    4    0    0 -0.10132486912E+02  0.46579775156E+01  0.16137282701E+02  0.19615987448E+02  0.10500000000E+00 0.  1.
         13    1    4    4    0    0 -0.13135827088E+02  0.58795266451E+01  0.20748157731E+02  0.25251056633E+02  0.10500000000E+00 0. -1.
    3000001    1    5    5    0    0  0.25575059682E+02 -0.11554122516E+02 -0.29092337063E+02  0.40434459322E+02  0.10000000000E+01 0. -1.
        -13    1    6    6    0    0  0.39400525080E+01 -0.11454936116E+00 -0.65793419903E+01  0.76704563975E+01  0.10500000000E+00 0. -1.
         13    1    6    6    0    0  0.72613461988E+01 -0.17105306336E+00 -0.12427832446E+02  0.14395084303E+02  0.10500000000E+00 0.  1.
</event>
<event>
11    0  0.3443539E-009  0.9118800E+02  0.7816531E-02  0.1126479E+00
         25   -1    0    0    0    0  0.00000000000E+00  0.00000000000E+00  0.99999998245E-14  0.12500000000E+03  0.12500000000E+03 0.  0.
    3000001    1    3    3    0    0 -0.32750112948E+00  0.14542720506E+02  0.14589280699E+02  0.20626320273E+02  0.10000000000E+01 0. -1.
    1000022    2    1    0    0    0 -0.43624748175E+01  0.51898040724E+02  0.33072829423E+02  0.62499999770E+02  0.10000005388E+02 0.  0.
    3000022    2    3    3    0    0 -0.40349736880E+01  0.37355320218E+02  0.18483548724E+02  0.41873679497E+02  0.24999990004E+00 0.  0.
    1000022    2    1    0    0    0  0.43624748175E+01 -0.51898040724E+02 -0.33072829423E+02  0.62500000230E+02  0.10000008258E+02 0.  0.
    3000022    2    5    5    0    0 -0.79444657206E+00 -0.40159814036E+02 -0.25378660296E+02  0.47514005349E+02  0.24999434657E+00 0.  0.
        -13    1    4    4    0    0 -0.25305051358E+01  0.23955220908E+02  0.11863143193E+02  0.26851466560E+02  0.10500000000E+00 0.  1.
         13    1    4    4    0    0 -0.15044685523E+01  0.13400099310E+02  0.66204055308E+01  0.15022212937E+02  0.10500000000E+00 0. -1.
    3000001    1    5    5    0    0  0.51569213896E+01 -0.11738226688E+02 -0.76941691276E+01  0.14985994881E+02  0.10000000000E+01 0. -1.
        -13    1    6    6    0    0 -0.59820232636E+00 -0.28119676351E+02 -0.17748632490E+02  0.33258067056E+02  0.10500000000E+00 0.  1.
         13    1    6    6    0    0 -0.19624424570E+00 -0.12040137685E+02 -0.76300278060E+01  0.14255938293E+02  0.10500000000E+00 0. -1.
</event>
<event>
11    0  0.3443539E-009  0.9118800E+02  0.7816531E-02  0.1126479E+00
         25   -1    0    0    0    0  0.00000000000E+00  0.00000000000E+00  0.99999998245E-14  0.12500000000E+03  0.12500000000E+03 0.  0.
    3000001    1    3    3    0    0 -0.36797294688E+02  0.15203241043E+02  0.13378327768E+02  0.42013796406E+02  0.10000000000E+01 0. -1.
    1000022    2    1    0    0    0 -0.56803296235E+02  0.16416930180E+02  0.17610220446E+02  0.62500000501E+02  0.10000006936E+02 0.  0.
    3000022    2    3    3    0    0 -0.20006001547E+02  0.12136891380E+01  0.42318926778E+01  0.20486204095E+02  0.25000671630E+00 0.  0.
    1000022    2    1    0    0    0  0.56803296235E+02 -0.16416930180E+02 -0.17610220446E+02  0.62499999499E+02  0.10000000676E+02 0.  0.
    3000022    2    5    5    0    0  0.13500469992E+02  0.21623449027E+00 -0.27644404957E+01  0.13784559340E+02  0.24999514496E+00 0.  0.
        -13    1    4    4    0    0 -0.88140456796E+01  0.52135385156E+00  0.19305650085E+01  0.90386568323E+01  0.10500000000E+00 0.  1.
         13    1    4    4    0    0 -0.11191955868E+02  0.69233528640E+00  0.23013276693E+01  0.11447547263E+02  0.10500000000E+00 0. -1.
    3000001    1    5    5    0    0  0.43302826243E+02 -0.16633164671E+02 -0.14845779950E+02  0.48715440159E+02  0.10000000000E+01 0. -1.
        -13    1    6    6    0    0  0.34409105642E+01  0.57712085505E-01 -0.73438433779E+00  0.35204462148E+01  0.10500000000E+00 0. -1.
         13    1    6    6    0    0  0.10059559428E+02  0.15852240476E+00 -0.20300561579E+01  0.10264113125E+02  0.10500000000E+00 0.  1.
</event>
<event>
11    0  0.3443539E-009  0.9118800E+02  0.7816531E-02  0.1126479E+00
         25   -1    0    0    0    0  0.00000000000E+00  0.00000000000E+00  0.99999998245E-14  0.12500000000E+03  0.12500000000E+03 0.  0.
    3000001    1    3    3    0    0 -0.10690722912E+02 -0.40425214366E+02  0.33739819419E+02  0.53738858634E+02  0.10000000000E+01 0.  1.
    1000022    2    1    0    0    0 -0.90266499178E+01 -0.48167987058E+02  0.37478191059E+02  0.62499998573E+02  0.99999815333E+01 0.  0.
    3000022    2    3    3    0    0  0.16640729937E+01 -0.77427726922E+01  0.37383716403E+01  0.87611399393E+01  0.24996524569E+00 0.  0.
    1000022    2    1    0    0    0  0.90266499178E+01  0.48167987058E+02 -0.37478191059E+02  0.62500001427E+02  0.99999993646E+01 0.  0.
    3000022    2    5    5    0    0  0.30569240745E+01  0.30498657186E+01 -0.19023473395E+01  0.47252391492E+01  0.24998783559E+00 0.  0.
        -13    1    4    4    0    0  0.66333793978E+00 -0.32823417575E+01  0.15252840112E+01  0.36812091696E+01  0.10500000000E+00 0.  1.
         13    1    4    4    0    0  0.10007350539E+01 -0.44604309347E+01  0.22130876291E+01  0.50799307698E+01  0.10500000000E+00 0. -1.
    3000001    1    5    5    0    0  0.59697258433E+01  0.45118121339E+02 -0.35575843720E+02  0.57774762277E+02  0.10000000000E+01 0.  1.
        -13    1    6    6    0    0  0.13090649784E+01  0.13121650246E+01 -0.74562878578E+00  0.20006037728E+01  0.10500000000E+00 0.  1.
         13    1    6    6    0    0  0.17478590962E+01  0.17377006940E+01 -0.11567185538E+01  0.27246353764E+01  0.10500000000E+00 0. -1.
</event>
<event>
11    0  0.3443539E-009  0.9118800E+02  0.7816531E-02  0.1126479E+00
         25   -1    0    0    0    0  0.00000000000E+00  0.00000000000E+00  0.99999998245E-14  0.12500000000E+03  0.12500000000E+03 0.  0.
    3000001    1    3    3    0    0 -0.14548746966E+01  0.12085928334E+02  0.43854308323E+01  0.12977608704E+02  0.10000000000E+01 0.  1.
    1000022    2    1    0    0    0 -0.24746779877E+02  0.51561457724E+02  0.23135750708E+02  0.62500000159E+02  0.10000001107E+02 0.  0.
    3000022    2    3    3    0    0 -0.23291905181E+02  0.39475529390E+02  0.18750319876E+02  0.49522391455E+02  0.24998493694E+00 0.  0.
    1000022    2    1    0    0    0  0.24746779877E+02 -0.51561457724E+02 -0.23135750708E+02  0.62499999841E+02  0.99999991197E+01 0.  0.
    3000022    2    5    5    0    0  0.17399234100E+02 -0.37309834743E+02 -0.21236237178E+02  0.46322752294E+02  0.24998963982E+00 0.  0.
        -13    1    4    4    0    0 -0.66166709893E+01  0.11139860563E+02  0.53167226945E+01  0.14005548671E+02  0.10500000000E+00 0. -1.
         13    1    4    4    0    0 -0.16675234191E+02  0.28335668826E+02  0.13433597181E+02  0.35516842785E+02  0.10500000000E+00 0.  1.
    3000001    1    5    5    0    0  0.73475457773E+01 -0.14251622981E+02 -0.18995135303E+01  0.16177247547E+02  0.10000000000E+01 0.  1.
        -13    1    6    6    0    0  0.65189197534E+01 -0.14076027988E+02 -0.79522649448E+01  0.17432166286E+02  0.10500000000E+00 0. -1.
         13    1    6    6    0    0  0.10880314347E+02 -0.23233806755E+02 -0.13283972233E+02  0.28890586008E+02  0.10500000000E+00 0.  1.
</event>
<event>
11    0  0.3443539E-009  0.9118800E+02  0.7816531E-02  0.1126479E+00
         25   -1    0    0    0    0  0.00000000000E+00  0.00000000000E+00  0.99999998245E-14  0.12500000000E+03  0.12500000000E+03 0.  0.
    3000001    1    3    3    0    0  0.14254357218E+02 -0.41819380073E+02  0.26878445746E+02  0.51725217207E+02  0.10000000000E+01 0.  1.
    1000022    2    1    0    0    0  0.14382173137E+02 -0.48478648656E+02  0.35344344550E+02  0.62500008241E+02  0.10000102939E+02 0.  0.
    3000022    2    3    3    0    0  0.12781591900E+00 -0.66592685828E+01  0.84658988038E+01  0.10774791034E+02  0.24996859076E+00 0.  0.
    1000022    2    1    0    0    0 -0.14382173137E+02  0.48478648656E+02 -0.35344344550E+02  0.62499991759E+02  0.99999999329E+01 0.  0.
    3000022    2    5    5    0    0 -0.13843382722E+02  0.40710320969E+02 -0.25819355409E+02  0.50156465995E+02  0.24997760881E+00 0.  0.
        -13    1    4    4    0    0  0.21843813318E-01 -0.15448545264E+01  0.19786637551E+01  0.25126058019E+01  0.10500000000E+00 0.  1.
         13    1    4    4    0    0  0.10597210569E+00 -0.51144140564E+01  0.64872350487E+01  0.82621852318E+01  0.10500000000E+00 0. -1.
    3000001    1    5    5    0    0 -0.53879041472E+00  0.77683276868E+01 -0.95249891410E+01  0.12343525764E+02  0.10000000000E+01 0. -1.
        -13    1    6    6    0    0 -0.10594342276E+02  0.31169324008E+02 -0.19782309871E+02  0.38407260462E+02  0.10500000000E+00 0. -1.
         13    1    6    6    0    0 -0.32490404460E+01  0.95409969613E+01 -0.60370455380E+01  0.11749205533E+02  0.10500000000E+00 0.  1.
</event>
<event>
11    0  0.3443539E-009  0.9118800E+02  0.7816531E-02  0.1126479E+00
         25   -1    0    0    0    0  0.00000000000E+00  0.00000000000E+00  0.99999998245E-14  0.12500000000E+03  0.12500000000E+03 0.  0.
    3000001    1    3    3    0    0  0.26865736155E+01 -0.58071877762E+01  0.45363777064E+01  0.79069482327E+01  0.10000000000E+01 0. -1.
    1000022    2    1    0    0    0  0.34018903006E+02 -0.49407547947E+02  0.14417300456E+02  0.62500001107E+02  0.10000001500E+02 0.  0.
    3000022    2    3    3    0    0  0.31332329391E+02 -0.43600360171E+02  0.98809227494E+01  0.54593052874E+02  0.25003125930E+00 0.  0.
    1000022    2    1    0    0    0 -0.34018903006E+02  0.49407547947E+02 -0.14417300456E+02  0.62499998893E+02  0.99999876646E+01 0.  0.
    3000022    2    5    5    0    0 -0.83938707216E+01  0.68641236402E+01 -0.26778614650E+00  0.10849306869E+02  0.24998216346E+00 0.  0.
        -13    1    4    4    0    0  0.22528148240E+02 -0.31414510500E+02  0.71250630340E+01  0.39308605691E+02  0.10500000000E+00 0. -1.
         13    1    4    4    0    0  0.88041811509E+01 -0.12185849671E+02  0.27558597154E+01  0.15284447183E+02  0.10500000000E+00 0.  1.
    3000001    1    5    5    0    0 -0.25625032285E+02  0.42543424307E+02 -0.14149514309E+02  0.51650692024E+02  0.10000000000E+01 0.  1.
        -13    1    6    6    0    0 -0.28103673762E+01  0.23626064453E+01 -0.68691168996E-01  0.36736654013E+01  0.10500000000E+00 0.  1.
         13    1    6    6    0    0 -0.55835033455E+01  0.45015171949E+01 -0.19909497751E+00  0.71756414679E+01  0.10500000000E+00 0. -1.
</event>
<event>
11    0  0.3443539E-009  0.9118800E+02  0.7816531E-02  0.1126479E+00
         25   -1    0    0    0    0  0.00000000000E+00  0.00000000000E+00  0.99999998245E-14  0.12500000000E+03  0.12500000000E+03 0.  0.
    3000001    1    3    3    0    0 -0.27137324377E+02  0.17247216345E+02 -0.30627430495E+02  0.44417793109E+02  0.10000000000E+01 0.  1.
    1000022    2    1    0    0    0 -0.38618437751E+02  0.28709799256E+02 -0.38608469403E+02  0.62500001209E+02  0.99999966908E+01 0.  0.
    3000022    2    3    3    0    0 -0.11481113374E+02  0.11462582911E+02 -0.79810389085E+01  0.18082208100E+02  0.24999280709E+00 0.  0.
    1000022    2    1    0    0    0  0.38618437751E+02 -0.28709799256E+02  0.38608469403E+02  0.62499998791E+02  0.99999815776E+01 0.  0.
    3000022    2    5    5    0    0  0.26812771756E+02 -0.16315184146E+02  0.20110061135E+02  0.37277165053E+02  0.25002515868E+00 0.  0.
        -13    1    4    4    0    0 -0.78738335217E+01  0.78065799406E+01 -0.54895106328E+01  0.12372780475E+02  0.10500000000E+00 0.  1.
         13    1    4    4    0    0 -0.36072798525E+01  0.36560029701E+01 -0.24915282757E+01  0.57094276246E+01  0.10500000000E+00 0. -1.
    3000001    1    5    5    0    0  0.11805665995E+02 -0.12394615110E+02  0.18498408269E+02  0.25222833738E+02  0.10000000000E+01 0. -1.
        -13    1    6    6    0    0  0.13824373260E+02 -0.84745021170E+01  0.10438726067E+02  0.19284929584E+02  0.10500000000E+00 0. -1.
         13    1    6    6    0    0  0.12988398496E+02 -0.78406820287E+01  0.96713350673E+01  0.17992235468E+02  0.10500000000E+00 0.  1.
</event>
<event>
11    0  0.3443539E-009  0.9118800E+02  0.7816531E-02  0.1126479E+00
         25   -1    0    0    0    0  0.00000000000E+00  0.00000000000E+00  0.99999998245E-14  0.12500000000E+03  0.12500000000E+03 0.  0.
    3000001    1    3    3    0    0  0.18885308937E+02 -0.26461933307E+02  0.84965897550E+01  0.33616675110E+02  0.10000000000E+01 0.  1.
    1000022    2    1    0    0    0  0.41686842856E+02 -0.42812931270E+02  0.15346332727E+02  0.62500001766E+02  0.10000017068E+02 0.  0.
    3000022    2    3    3    0    0  0.22801533919E+02 -0.16350997962E+02  0.68497429725E+01  0.28883326655E+02  0.24999297256E+00 0.  0.
    1000022    2    1    0    0    0 -0.41686842856E+02  0.42812931270E+02 -0.15346332727E+02  0.62499998234E+02  0.99999949958E+01 0.  0.
    3000022    2    5    5    0    0 -0.38607520505E+02  0.42247424348E+02 -0.15173521919E+02  0.59208814892E+02  0.24997975158E+00 0.  0.
        -13    1    4    4    0    0  0.12821315191E+02 -0.91585437559E+01  0.39076169200E+01  0.16234085806E+02  0.10500000000E+00 0. -1.
         13    1    4    4    0    0  0.99802187272E+01 -0.71924542064E+01  0.29421260524E+01  0.12649240849E+02  0.10500000000E+00 0.  1.
    3000001    1    5    5    0    0 -0.30793223508E+01  0.56550692162E+00 -0.17281080869E+00  0.32911833425E+01  0.10000000000E+01 0.  1.
        -13    1    6    6    0    0 -0.13323514213E+02  0.14566296682E+02 -0.52906302918E+01  0.20437583612E+02  0.10500000000E+00 0.  1.
         13    1    6    6    0    0 -0.25284006292E+02  0.27681127666E+02 -0.98828916270E+01  0.38771231280E+02  0.10500000000E+00 0. -1.
</event>
<event>
11    0  0.3443539E-009  0.9118800E+02  0.7816531E-02  0.1126479E+00
         25   -1    0    0    0    0  0.00000000000E+00  0.00000000000E+00  0.99999998245E-14  0.12500000000E+03  0.12500000000E+03 0.  0.
    3000001    1    3    3    0    0 -0.92929983559E+01 -0.21147724129E+02 -0.95294175077E+01  0.25007915793E+02  0.10000000000E+01 0.  1.
    1000022    2    1    0    0    0 -0.17989920534E+02 -0.48405106305E+02 -0.33757347052E+02  0.62500000336E+02  0.10000000239E+02 0.  0.
    3000022    2    3    3    0    0 -0.86969221785E+01 -0.27257382176E+02 -0.24227929544E+02  0.37492084542E+02  0.24998979984E+00 0.  0.
    1000022    2    1    0    0    0  0.17989920534E+02  0.48405106305E+02  0.33757347052E+02  0.62499999664E+02  0.99999960447E+01 0.  0.
    3000022    2    5    5    0    0  0.10582023708E+01  0.15309638614E+02  0.11264415145E+02  0.19038234314E+02  0.24998096382E+00 0.  0.
        -13    1    4    4    0    0 -0.30884258474E+01 -0.97195401523E+01 -0.85625703420E+01  0.13316774041E+02  0.10500000000E+00 0. -1.
         13    1    4    4    0    0 -0.56084963310E+01 -0.17537842023E+02 -0.15665359202E+02  0.24175310502E+02  0.10500000000E+00 0.  1.
    3000001    1    5    5    0    0  0.16931718164E+02  0.33095467690E+02  0.22492931907E+02  0.43461765351E+02  0.10000000000E+01 0. -1.
        -13    1    6    6    0    0  0.59342879038E+00  0.91628352610E+01  0.66785727036E+01  0.11354473396E+02  0.10500000000E+00 0.  1.
         13    1    6    6    0    0  0.46477358045E+00  0.61468033532E+01  0.45858424412E+01  0.76837609176E+01  0.10500000000E+00 0. -1.
</event>
<event>
11    0  0.3443539E-009  0.9118800E+02  0.7816531E-02  0.1126479E+00
         25   -1    0    0    0    0  0.00000000000E+00  0.00000000000E+00  0.99999998245E-14  0.12500000000E+03  0.12500000000E+03 0.  0.
    3000001    1    3    3    0    0 -0.32972722509E+01  0.15489089122E+02 -0.69010959569E+01  0.17303439298E+02  0.10000000000E+01 0. -1.
    1000022    2    1    0    0    0 -0.26335229548E+02  0.52295623198E+02 -0.19438966756E+02  0.62500000384E+02  0.10000004920E+02 0.  0.
    3000022    2    3    3    0    0 -0.23037957297E+02  0.36806534076E+02 -0.12537870799E+02  0.45196561086E+02  0.25000540134E+00 0.  0.
    1000022    2    1    0    0    0  0.26335229548E+02 -0.52295623198E+02  0.19438966756E+02  0.62499999616E+02  0.10000000123E+02 0.  0.
    3000022    2    5    5    0    0  0.22688973346E+01 -0.12458308059E+02  0.21880312143E+01  0.12853299819E+02  0.25000166253E+00 0.  0.
        -13    1    4    4    0    0 -0.98814311311E+01  0.15853260641E+02 -0.54515701784E+01  0.19460195183E+02  0.10500000000E+00 0. -1.
         13    1    4    4    0    0 -0.13156526166E+02  0.20953273435E+02 -0.70863006209E+01  0.25736365903E+02  0.10500000000E+00 0.  1.
    3000001    1    5    5    0    0  0.24066332213E+02 -0.39837315139E+02  0.17250935542E+02  0.49646699797E+02  0.10000000000E+01 0. -1.
        -13    1    6    6    0    0  0.72782188048E+00 -0.41592488241E+01  0.77526513645E+00  0.42943144392E+01  0.10500000000E+00 0.  1.
         13    1    6    6    0    0  0.15410754542E+01 -0.82990592351E+01  0.14127660779E+01  0.85589853799E+01  0.10500000000E+00 0. -1.
</event>
<event>
11    0  0.3443539E-009  0.9118800E+02  0.7816531E-02  0.1126479E+00
         25   -1    0    0    0    0  0.00000000000E+00  0.00000000000E+00  0.99999998245E-14  0.12500000000E+03  0.12500000000E+03 0.  0.
    3000001    1    3    3    0    0 -0.31979582319E+01  0.70940214678E+00 -0.60376202875E-01  0.34254683687E+01  0.10000000000E+01 0.  1.
    1000022    2    1    0    0    0 -0.45606453380E+02  0.27693772415E+02  0.30973486294E+02  0.62499996047E+02  0.99999516071E+01 0.  0.
    3000022    2    3    3    0    0 -0.42408495148E+02  0.26984370268E+02  0.31033862497E+02  0.59074527678E+02  0.24999878964E+00 0.  0.
    1000022    2    1    0    0    0  0.45606453380E+02 -0.27693772415E+02 -0.30973486294E+02  0.62500003953E+02  0.10000001025E+02 0.  0.
    3000022    2    5    5    0    0  0.33953397688E+02 -0.24310978908E+02 -0.26842049121E+02  0.49642874725E+02  0.24999994504E+00 0.  0.
        -13    1    4    4    0    0 -0.20413858818E+02  0.12917908055E+02  0.14951164603E+02  0.28410320807E+02  0.10500000000E+00 0.  1.
         13    1    4    4    0    0 -0.21994636330E+02  0.14066462214E+02  0.16082697894E+02  0.30664206871E+02  0.10500000000E+00 0. -1.
    3000001    1    5    5    0    0  0.11653055692E+02 -0.33827935075E+01 -0.41314371732E+01  0.12857129228E+02  0.10000000000E+01 0. -1.
        -13    1    6    6    0    0  0.11260548707E+02 -0.81282535433E+01 -0.89292235467E+01  0.16510921264E+02  0.10500000000E+00 0.  1.
         13    1    6    6    0    0  0.22692848981E+02 -0.16182725364E+02 -0.17912825574E+02  0.33131953461E+02  0.10500000000E+00 0. -1.
</event>
<event>
11    0  0.3443539E-009  0.9118800E+02  0.7816531E-02  0.1126479E+00
         25   -1    0    0    0    0  0.00000000000E+00  0.00000000000E+00  0.99999998245E-14  0.12500000000E+03  0.12500000000E+03 0.  0.
    3000001    1    3    3    0    0  0.17262497361E+01  0.11633013821E+01 -0.18675705238E+02  0.18817948198E+02  0.10000000000E+01 0.  1.
    1000022    2    1    0    0    0 -0.89945209928E+01  0.13562156483E+01 -0.61020562820E+02  0.62499999466E+02  0.10000005877E+02 0.  0.
    3000022    2    3    3    0    0 -0.10720770729E+02  0.19291426618E+00 -0.42344857582E+02  0.43682051268E+02  0.24999665738E+00 0.  0.
    1000022    2    1    0    0    0  0.89945209928E+01 -0.13562156483E+01  0.61020562820E+02  0.62500000534E+02  0.10000012556E+02 0.  0.
    3000022    2    5    5    0    0  0.65249949423E+01 -0.18117012413E+01  0.15713793414E+02  0.17112674329E+02  0.24999769843E+00 0.  0.
        -13    1    4    4    0    0 -0.61697325290E+01  0.17148646668E+00 -0.24273006297E+02  0.25045655647E+02  0.10500000000E+00 0. -1.
         13    1    4    4    0    0 -0.45510381999E+01  0.21427799509E-01 -0.18071851285E+02  0.18636395621E+02  0.10500000000E+00 0.  1.
    3000001    1    5    5    0    0  0.24695260505E+01  0.45548559299E+00  0.45306769406E+02  0.45387326205E+02  0.10000000000E+01 0. -1.
        -13    1    6    6    0    0  0.36690642886E+01 -0.10798717713E+01  0.87981697020E+01  0.95941112617E+01  0.10500000000E+00 0.  1.
         13    1    6    6    0    0  0.28559306536E+01 -0.73182946997E+00  0.69156237119E+01  0.75185630672E+01  0.10500000000E+00 0. -1.
</event>
<event>
11    0  0.3443539E-009  0.9118800E+02  0.7816531E-02  0.1126479E+00
         25   -1    0    0    0    0  0.00000000000E+00  0.00000000000E+00  0.99999998245E-14  0.12500000000E+03  0.12500000000E+03 0.  0.
    3000001    1    3    3    0    0  0.36757870860E+02 -0.76593509808E+01  0.13888985325E+02  0.40046356151E+02  0.10000000000E+01 0.  1.
    1000022    2    1    0    0    0  0.55606136330E+02 -0.61829527751E+01  0.25999587909E+02  0.62499998641E+02  0.99999978060E+01 0.  0.
    3000022    2    3    3    0    0  0.18848265470E+02  0.14763982057E+01  0.12110602584E+02  0.22453642490E+02  0.25000647432E+00 0.  0.
    1000022    2    1    0    0    0 -0.55606136330E+02  0.61829527751E+01 -0.25999587909E+02  0.62500001359E+02  0.10000014799E+02 0.  0.
    3000022    2    5    5    0    0 -0.45930600950E+01 -0.38996595636E+00 -0.53487627506E+01  0.70654111897E+01  0.24999566826E+00 0.  0.
        -13    1    4    4    0    0  0.11188215892E+02  0.90718960125E+00  0.71239124933E+01  0.13295123994E+02  0.10500000000E+00 0. -1.
         13    1    4    4    0    0  0.76600495777E+01  0.56920860441E+00  0.49866900904E+01  0.91585184951E+01  0.10500000000E+00 0.  1.
    3000001    1    5    5    0    0 -0.51013076235E+02  0.65729187314E+01 -0.20650825158E+02  0.55434590170E+02  0.10000000000E+01 0.  1.
        -13    1    6    6    0    0 -0.23603812935E+01 -0.21183118623E+00 -0.26474554504E+01  0.35547598602E+01  0.10500000000E+00 0. -1.
         13    1    6    6    0    0 -0.22326788015E+01 -0.17813477012E+00 -0.27013073002E+01  0.35106513294E+01  0.10500000000E+00 0.  1.
</event>
<event>
11    0  0.3443539E-009  0.9118800E+02  0.7816531E-02  0.1126479E+00
         25   -1    0    0    0    0  0.00000000000E+00  0.00000000000E+00  0.99999998245E-14  0.12500000000E+03  0.12500000000E+03 0.  0.
    3000001    1    3    3    0    0  0.81097633080E+01 -0.62126486841E+00 -0.78947254545E+01  0.11378968361E+02  0.10000000000E+01 0.  1.
    1000022    2    1    0    0    0  0.46175645132E+02  0.16276628555E+02 -0.37538395943E+02  0.62499999877E+02  0.99999987110E+01 0.  0.
    3000022    2    3    3    0    0  0.38065881824E+02  0.16897893423E+02 -0.29643670488E+02  0.51121031516E+02  0.25000424611E+00 0.  0.
    1000022    2    1    0    0    0 -0.46175645132E+02 -0.16276628555E+02  0.37538395943E+02  0.62500000123E+02  0.10000000248E+02 0.  0.
    3000022    2    5    5    0    0 -0.21512597377E+02 -0.12525119238E+02  0.20814160004E+02  0.32449379257E+02  0.24999927913E+00 0.  0.
        -13    1    4    4    0    0  0.20948745159E+02  0.93244838934E+01 -0.16397751332E+02  0.28190303250E+02  0.10500000000E+00 0.  1.
         13    1    4    4    0    0  0.17117136665E+02  0.75734095296E+01 -0.13245919157E+02  0.22930728266E+02  0.10500000000E+00 0. -1.
    3000001    1    5    5    0    0 -0.24663047755E+02 -0.37515093166E+01  0.16724235938E+02  0.30050620866E+02  0.10000000000E+01 0. -1.
        -13    1    6    6    0    0 -0.11288579957E+02 -0.65060020022E+01  0.10847679193E+02  0.16954151951E+02  0.10500000000E+00 0.  1.
         13    1    6    6    0    0 -0.10224017420E+02 -0.60191172358E+01  0.99664808110E+01  0.15495227306E+02  0.10500000000E+00 0. -1.
</event>
<event>
11    0  0.3443539E-009  0.9118800E+02  0.7816531E-02  0.1126479E+00
         25   -1    0    0    0    0  0.00000000000E+00  0.00000000000E+00  0.99999998245E-14  0.12500000000E+03  0.12500000000E+03 0.  0.
    3000001    1    3    3    0    0 -0.11687316029E+02  0.11104328868E+02  0.38486196271E+01  0.16604558067E+02  0.10000000000E+01 0. -1.
    1000022    2    1    0    0    0 -0.30728878721E+02  0.49775042850E+02  0.19606915586E+02  0.62500000354E+02  0.10000001367E+02 0.  0.
    3000022    2    3    3    0    0 -0.19041562692E+02  0.38670713983E+02  0.15758295959E+02  0.45895442288E+02  0.25000318193E+00 0.  0.
    1000022    2    1    0    0    0  0.30728878721E+02 -0.49775042850E+02 -0.19606915586E+02  0.62499999646E+02  0.99999969368E+01 0.  0.
    3000022    2    5    5    0    0  0.69358094294E+01 -0.92392854309E+01  0.16306109793E-01  0.11555631894E+02  0.25002974642E+00 0.  0.
        -13    1    4    4    0    0 -0.12941799922E+02  0.26384961147E+02  0.10719728974E+02  0.31282262933E+02  0.10500000000E+00 0. -1.
         13    1    4    4    0    0 -0.60997627704E+01  0.12285752836E+02  0.50385669851E+01  0.14613179355E+02  0.10500000000E+00 0.  1.
    3000001    1    5    5    0    0  0.23793069292E+02 -0.40535757419E+02 -0.19623221696E+02  0.50944367751E+02  0.10000000000E+01 0.  1.
        -13    1    6    6    0    0  0.47084519857E+01 -0.62050250228E+01 -0.21890227486E-01  0.77899524914E+01  0.10500000000E+00 0. -1.
         13    1    6    6    0    0  0.22273574437E+01 -0.30342604080E+01  0.38196337279E-01  0.37656794030E+01  0.10500000000E+00 0.  1.
</event>
<event>
11    0  0.3443539E-009  0.9118800E+02  0.7816531E-02  0.1126479E+00
         25   -1    0    0    0    0  0.00000000000E+00  0.00000000000E+00  0.99999998245E-14  0.12500000000E+03  0.12500000000E+03 0.  0.
    3000001    1    3    3    0    0 -0.25120889750E+02 -0.25659569875E+02  0.13474996524E+01  0.35948412807E+02  0.10000000000E+01 0. -1.
    1000022    2    1    0    0    0 -0.39639759002E+02 -0.47035923897E+02 -0.47498896160E+01  0.62499998976E+02  0.99999895006E+01 0.  0.
    3000022    2    3    3    0    0 -0.14518869252E+02 -0.21376354021E+02 -0.60973892685E+01  0.26551586168E+02  0.24999314144E+00 0.  0.
    1000022    2    1    0    0    0  0.39639759002E+02  0.47035923897E+02  0.47498896160E+01  0.62500001024E+02  0.10000002306E+02 0.  0.
    3000022    2    5    5    0    0  0.66860925012E+00  0.37799313151E+01 -0.10321189673E+01  0.39827981651E+01  0.24998516950E+00 0.  0.
        -13    1    4    4    0    0 -0.40986342432E+01 -0.59986794989E+01 -0.17500260337E+01  0.74737256110E+01  0.10500000000E+00 0. -1.
         13    1    4    4    0    0 -0.10420235009E+02 -0.15377674523E+02 -0.43473632347E+01  0.19077860558E+02  0.10500000000E+00 0.  1.
    3000001    1    5    5    0    0  0.38971149752E+02  0.43255992582E+02  0.57820085834E+01  0.58517202859E+02  0.10000000000E+01 0. -1.
        -13    1    6    6    0    0  0.34068309315E+00  0.15792452917E+01 -0.45887569994E+00  0.16827574303E+01  0.10500000000E+00 0. -1.
         13    1    6    6    0    0  0.32792615698E+00  0.22006860234E+01 -0.57324326737E+00  0.23000407348E+01  0.10500000000E+00 0.  1.
</event>
<event>
11    0  0.3443539E-009  0.9118800E+02  0.7816531E-02  0.1126479E+00
         25   -1    0    0    0    0  0.00000000000E+00  0.00000000000E+00  0.99999998245E-14  0.12500000000E+03  0.12500000000E+03 0.  0.
    3000001    1    3    3    0    0 -0.14285594838E+01  0.72165484492E+00 -0.31483739533E+01  0.36706711190E+01  0.10000000000E+01 0. -1.
    1000022    2    1    0    0    0  0.85269477167E+01 -0.16300265510E+01 -0.61080962066E+02  0.62499998794E+02  0.10000004919E+02 0.  0.
    3000022    2    3    3    0    0  0.99555072005E+01 -0.23516813959E+01 -0.57932588113E+02  0.58829327675E+02  0.25000044260E+00 0.  0.
    1000022    2    1    0    0    0 -0.85269477167E+01  0.16300265510E+01  0.61080962066E+02  0.62500001206E+02  0.10000019996E+02 0.  0.
    3000022    2    5    5    0    0 -0.87085218461E+01  0.43432034576E+01  0.53614870208E+02  0.54491454164E+02  0.25000094763E+00 0.  0.
        -13    1    4    4    0    0  0.33418049990E+01 -0.84111053393E+00 -0.19403829354E+02  0.19707733156E+02  0.10500000000E+00 0. -1.
         13    1    4    4    0    0  0.66137022016E+01 -0.15105708620E+01 -0.38528758759E+02  0.39121594518E+02  0.10500000000E+00 0.  1.
    3000001    1    5    5    0    0  0.18157412936E+00 -0.27131769066E+01  0.74660918577E+01  0.80085470417E+01  0.10000000000E+01 0.  1.
        -13    1    6    6    0    0 -0.32747495272E+01  0.17000740520E+01  0.20388077381E+02  0.20719530895E+02  0.10500000000E+00 0. -1.
         13    1    6    6    0    0 -0.54337723189E+01  0.26431294056E+01  0.33226792828E+02  0.33771923269E+02  0.10500000000E+00 0.  1.
</event>
<event>
11    0  0.3443539E-009  0.9118800E+02  0.7816531E-02  0.1126479E+00
         25   -1    0    0    0    0  0.00000000000E+00  0.00000000000E+00  0.99999998245E-14  0.12500000000E+03  0.12500000000E+03 0.  0.
    3000001    1    3    3    0    0  0.41646500763E+02 -0.16858833844E+02 -0.39731842707E+02  0.59985586846E+02  0.10000000000E+01 0.  1.
    1000022    2    1    0    0    0  0.43972512979E+02 -0.16056451714E+02 -0.40185303331E+02  0.62500000685E+02  0.99999971281E+01 0.  0.
    3000022    2    3    3    0    0  0.23260122161E+01  0.80238213018E+00 -0.45346062326E+00  0.25144138390E+01  0.25000100932E+00 0.  0.
    1000022    2    1    0    0    0 -0.43972512979E+02  0.16056451714E+02  0.40185303331E+02  0.62499999315E+02  0.99999885635E+01 0.  0.
    3000022    2    5    5    0    0 -0.18371308709E+01  0.10855602910E+01  0.54843159883E+01  0.58901367650E+01  0.24999653837E+00 0.  0.
        -13    1    4    4    0    0  0.90993440059E+00  0.28370386976E+00 -0.23177430394E+00  0.98651549763E+00  0.10500000000E+00 0.  1.
         13    1    4    4    0    0  0.14160778155E+01  0.51867826042E+00 -0.22168631932E+00  0.15278983413E+01  0.10500000000E+00 0. -1.
    3000001    1    5    5    0    0 -0.42135382108E+02  0.14970891423E+02  0.34700987342E+02  0.56609862550E+02  0.10000000000E+01 0.  1.
        -13    1    6    6    0    0 -0.74185086664E+00  0.37191947018E+00  0.20715457750E+01  0.22340531996E+01  0.10500000000E+00 0.  1.
         13    1    6    6    0    0 -0.10952800042E+01  0.71364082080E+00  0.34127702132E+01  0.36560835654E+01  0.10500000000E+00 0. -1.
</event>
<event>
11    0  0.3443539E-009  0.9118800E+02  0.7816531E-02  0.1126479E+00
         25   -1    0    0    0    0  0.00000000000E+00  0.00000000000E+00  0.99999998245E-14  0.12500000000E+03  0.12500000000E+03 0.  0.
    3000001    1    3    3    0    0  0.48706448514E+02  0.35549608974E+02  0.10603391062E+02  0.61233362859E+02  0.10000000000E+01 0.  1.
    1000022    2    1    0    0    0  0.48417568658E+02  0.36522047116E+02  0.11319463101E+02  0.62499991994E+02  0.99998937040E+01 0.  0.
    3000022    2    3    3    0    0 -0.28887985566E+00  0.97243814198E+00  0.71607203901E+00  0.12666291352E+01  0.25000537992E+00 0.  0.
    1000022    2    1    0    0    0 -0.48417568658E+02 -0.36522047116E+02 -0.11319463101E+02  0.62500008006E+02  0.99999937761E+01 0.  0.
    3000022    2    5    5    0    0 -0.37242586620E+02 -0.24651742895E+02 -0.48256150730E+01  0.44922909040E+02  0.25001971730E+00 0.  0.
        -13    1    4    4    0    0 -0.14292301689E+00  0.39697638650E+00  0.37359313033E+00  0.57324869579E+00  0.10500000000E+00 0. -1.
         13    1    4    4    0    0 -0.14595683877E+00  0.57546175548E+00  0.34247890868E+00  0.69338043937E+00  0.10500000000E+00 0.  1.
    3000001    1    5    5    0    0 -0.11174982038E+02 -0.11870304221E+02 -0.64938480278E+01  0.17577098966E+02  0.10000000000E+01 0. -1.
        -13    1    6    6    0    0 -0.21820488853E+02 -0.14377695137E+02 -0.27894465927E+01  0.26280104424E+02  0.10500000000E+00 0.  1.
         13    1    6    6    0    0 -0.15422097767E+02 -0.10274047758E+02 -0.20361684804E+01  0.18642804616E+02  0.10500000000E+00 0. -1.
</event>
<event>
11    0  0.3443539E-009  0.9118800E+02  0.7816531E-02  0.1126479E+00
         25   -1    0    0    0    0  0.00000000000E+00  0.00000000000E+00  0.99999998245E-14  0.12500000000E+03  0.12500000000E+03 0.  0.
    3000001    1    3    3    0    0 -0.17772495213E+01  0.66990063969E+00  0.13865590433E+01  0.25553725186E+01  0.10000000000E+01 0.  1.
    1000022    2    1    0    0    0 -0.60008247720E+02 -0.12078435070E+02  0.77053031582E+01  0.62499998992E+02  0.99999894569E+01 0.  0.
    3000022    2    3    3    0    0 -0.58230998199E+02 -0.12748335710E+02  0.63187441149E+01  0.59944626474E+02  0.25000265160E+00 0.  0.
    1000022    2    1    0    0    0  0.60008247720E+02  0.12078435070E+02 -0.77053031582E+01  0.62500001008E+02  0.10000002053E+02 0.  0.
    3000022    2    5    5    0    0  0.29080911739E+02  0.99429606817E+01 -0.91515841177E+00  0.30748364398E+02  0.25000705759E+00 0.  0.
        -13    1    4    4    0    0 -0.23077029153E+02 -0.51061335049E+01  0.25395127316E+01  0.23771453969E+02  0.10500000000E+00 0. -1.
         13    1    4    4    0    0 -0.35153969045E+02 -0.76422022046E+01  0.37792313833E+01  0.36173172504E+02  0.10500000000E+00 0.  1.
    3000001    1    5    5    0    0  0.30927335980E+02  0.21354743882E+01 -0.67901447465E+01  0.31751636610E+02  0.10000000000E+01 0. -1.
        -13    1    6    6    0    0  0.11466373316E+02  0.38894021555E+01 -0.30542126980E+00  0.12112368609E+02  0.10500000000E+00 0.  1.
         13    1    6    6    0    0  0.17614538423E+02  0.60535585261E+01 -0.60973714197E+00  0.18635995789E+02  0.10500000000E+00 0. -1.
</event>
<event>
11    0  0.3443539E-009  0.9118800E+02  0.7816531E-02  0.1126479E+00
         25   -1    0    0    0    0  0.00000000000E+00  0.00000000000E+00  0.99999998245E-14  0.12500000000E+03  0.12500000000E+03 0.  0.
    3000001    1    3    3    0    0  0.19991954870E+02 -0.29325378960E+01 -0.38451863490E+01  0.20592802045E+02  0.10000000000E+01 0. -1.
    1000022    2    1    0    0    0  0.60758743807E+02  0.49686438687E+01 -0.94835542987E+01  0.62500002396E+02  0.10000006319E+02 0.  0.
    3000022    2    3    3    0    0  0.40766788938E+02  0.79011817647E+01 -0.56383679497E+01  0.41907200350E+02  0.24998898965E+00 0.  0.
    1000022    2    1    0    0    0 -0.60758743807E+02 -0.49686438687E+01  0.94835542987E+01  0.62499997604E+02  0.99999763746E+01 0.  0.
    3000022    2    5    5    0    0 -0.84040644891E+01  0.24874269868E+01  0.27003456866E+01  0.91744187686E+01  0.24999992517E+00 0.  0.
        -13    1    4    4    0    0  0.24504348976E+02  0.47959844186E+01 -0.34338060715E+01  0.25204496314E+02  0.10500000000E+00 0.  1.
         13    1    4    4    0    0  0.16262439961E+02  0.31051973461E+01 -0.22045618782E+01  0.16702704036E+02  0.10500000000E+00 0. -1.
    3000001    1    5    5    0    0 -0.52354679318E+02 -0.74560708554E+01  0.67832086121E+01  0.53325578836E+02  0.10000000000E+01 0.  1.
        -13    1    6    6    0    0 -0.50642817753E+01  0.14375722076E+01  0.15980738787E+01  0.55025838362E+01  0.10500000000E+00 0. -1.
         13    1    6    6    0    0 -0.33397827138E+01  0.10498547791E+01  0.11022718079E+01  0.36718349324E+01  0.10500000000E+00 0.  1.
</event>
<event>
11    0  0.3443539E-009  0.9118800E+02  0.7816531E-02  0.1126479E+00
         25   -1    0    0    0    0  0.00000000000E+00  0.00000000000E+00  0.99999998245E-14  0.12500000000E+03  0.12500000000E+03 0.  0.
    3000001    1    3    3    0    0  0.36536700163E+02 -0.32555185504E+02  0.31759348991E+02  0.58347466186E+02  0.10000000000E+01 0.  1.
    1000022    2    1    0    0    0  0.40525012855E+02 -0.32982746167E+02  0.32804142977E+02  0.62500000354E+02  0.10000001810E+02 0.  0.
    3000022    2    3    3    0    0  0.39883126915E+01 -0.42756066296E+00  0.10447939863E+01  0.41525341680E+01  0.24999859396E+00 0.  0.
    1000022    2    1    0    0    0 -0.40525012855E+02  0.32982746167E+02 -0.32804142977E+02  0.62499999646E+02  0.99999973855E+01 0.  0.
    3000022    2    5    5    0    0 -0.34231568584E+02  0.22863002075E+02 -0.24009435138E+02  0.47655352556E+02  0.24999982524E+00 0.  0.
        -13    1    4    4    0    0  0.14297403745E+01 -0.10593006190E+00  0.33930433622E+00  0.14770007275E+01  0.10500000000E+00 0. -1.
         13    1    4    4    0    0  0.25585723170E+01 -0.32163060106E+00  0.70548965008E+00  0.26755334405E+01  0.10500000000E+00 0.  1.
    3000001    1    5    5    0    0 -0.62934442703E+01  0.10119744092E+02 -0.87947078390E+01  0.14844647090E+02  0.10000000000E+01 0. -1.
        -13    1    6    6    0    0 -0.24928732695E+02  0.16605351721E+02 -0.17470998295E+02  0.34676018024E+02  0.10500000000E+00 0.  1.
         13    1    6    6    0    0 -0.93028358896E+01  0.62576503539E+01 -0.65384368434E+01  0.12979334532E+02  0.10500000000E+00 0. -1.
</event>
<event>
11    0  0.3443539E-009  0.9118800E+02  0.7816531E-02  0.1126479E+00
         25   -1    0    0    0    0  0.00000000000E+00  0.00000000000E+00  0.99999998245E-14  0.12500000000E+03  0.12500000000E+03 0.  0.
    3000001    1    3    3    0    0  0.19121725418E+01  0.94741499837E+00 -0.13016886957E+01  0.26922838761E+01  0.10000000000E+01 0.  1.
    1000022    2    1    0    0    0  0.17838928222E+02  0.53256749236E+02 -0.25529213033E+02  0.62500004371E+02  0.10000056449E+02 0.  0.
    3000022    2    3    3    0    0  0.15926755680E+02  0.52309334237E+02 -0.24227524337E+02  0.59807720495E+02  0.25000079397E+00 0.  0.
    1000022    2    1    0    0    0 -0.17838928222E+02 -0.53256749236E+02  0.25529213033E+02  0.62499995629E+02  0.10000001816E+02 0.  0.
    3000022    2    5    5    0    0 -0.14379021808E+02 -0.33301430906E+02  0.12363456445E+02  0.38323088702E+02  0.25000772627E+00 0.  0.
        -13    1    4    4    0    0  0.11189958453E+02  0.36779051740E+02 -0.16984939800E+02  0.42028716636E+02  0.10500000000E+00 0.  1.
         13    1    4    4    0    0  0.47367972269E+01  0.15530282497E+02 -0.72425845377E+01  0.17779003859E+02  0.10500000000E+00 0. -1.
    3000001    1    5    5    0    0 -0.34599064144E+01 -0.19955318329E+02  0.13165756588E+02  0.24176906927E+02  0.10000000000E+01 0.  1.
        -13    1    6    6    0    0 -0.41047656156E+01 -0.95668590160E+01  0.35848833477E+01  0.11010735934E+02  0.10500000000E+00 0. -1.
         13    1    6    6    0    0 -0.10274256192E+02 -0.23734571890E+02  0.87785730970E+01  0.27312352768E+02  0.10500000000E+00 0.  1.
</event>
<event>
11    0  0.3443539E-009  0.9118800E+02  0.7816531E-02  0.1126479E+00
         25   -1    0    0    0    0  0.00000000000E+00  0.00000000000E+00  0.99999998245E-14  0.12500000000E+03  0.12500000000E+03 0.  0.
    3000001    1    3    3    0    0 -0.20789677974E+02 -0.14650320034E+02  0.44259014795E+00  0.25456599800E+02  0.10000000000E+01 0. -1.
    1000022    2    1    0    0    0 -0.55561096306E+02 -0.26128974529E+02  0.60408041779E+01  0.62500000749E+02  0.10000002291E+02 0.  0.
    3000022    2    3    3    0    0 -0.34771418332E+02 -0.11478654495E+02  0.55982140300E+01  0.37043400948E+02  0.25002332329E+00 0.  0.
    1000022    2    1    0    0    0  0.55561096306E+02  0.26128974529E+02 -0.60408041779E+01  0.62499999251E+02  0.99999929317E+01 0.  0.
    3000022    2    5    5    0    0  0.46203187490E+02  0.22691426630E+02 -0.14930844257E+01  0.51496865702E+02  0.24999850147E+00 0.  0.
        -13    1    4    4    0    0 -0.15889455338E+02 -0.53039880309E+01  0.25987897181E+01  0.16952044507E+02  0.10500000000E+00 0. -1.
         13    1    4    4    0    0 -0.18881962994E+02 -0.61746664645E+01  0.29994243119E+01  0.20091356441E+02  0.10500000000E+00 0.  1.
    3000001    1    5    5    0    0  0.93579088161E+01  0.34375478989E+01 -0.45477197522E+01  0.11003133550E+02  0.10000000000E+01 0.  1.
        -13    1    6    6    0    0  0.25803147516E+02  0.12603276913E+02 -0.85596696905E+00  0.28729579098E+02  0.10500000000E+00 0. -1.
         13    1    6    6    0    0  0.20400039974E+02  0.10088149717E+02 -0.63711745665E+00  0.22767286603E+02  0.10500000000E+00 0.  1.
</event>
<event>
11    0  0.3443539E-009  0.9118800E+02  0.7816531E-02  0.1126479E+00
         25   -1    0    0    0    0  0.00000000000E+00  0.00000000000E+00  0.99999998245E-14  0.12500000000E+03  0.12500000000E+03 0.  0.
    3000001    1    3    3    0    0  0.43716749049E+02  0.17756245012E+02 -0.31086619416E+02  0.56513859283E+02  0.10000000000E+01 0. -1.
    1000022    2    1    0    0    0  0.48317425722E+02  0.16424337602E+02 -0.34668679914E+02  0.62499998183E+02  0.99999955927E+01 0.  0.
    3000022    2    3    3    0    0  0.46006766738E+01 -0.13319074099E+01 -0.35820604981E+01  0.59861389010E+01  0.24999664686E+00 0.  0.
    1000022    2    1    0    0    0 -0.48317425722E+02 -0.16424337602E+02  0.34668679914E+02  0.62500001817E+02  0.10000018299E+02 0.  0.
    3000022    2    5    5    0    0 -0.47913544951E+02 -0.15221854648E+02  0.34247790345E+02  0.60830800522E+02  0.24999992699E+00 0.  0.
        -13    1    4    4    0    0  0.34526674995E+01 -0.10092295911E+01 -0.26575948159E+01  0.44736218475E+01  0.10500000000E+00 0. -1.
         13    1    4    4    0    0  0.11480091744E+01 -0.32267781885E+00 -0.92446568222E+00  0.15125170534E+01  0.10500000000E+00 0.  1.
    3000001    1    5    5    0    0 -0.40388077189E+00 -0.12024829543E+01  0.42088956902E+00  0.16692012948E+01  0.10000000000E+01 0.  1.
        -13    1    6    6    0    0 -0.30720852239E+02 -0.98100503582E+01  0.22008353718E+02  0.39043392637E+02  0.10500000000E+00 0.  1.
         13    1    6    6    0    0 -0.17192692712E+02 -0.54118042898E+01  0.12239436627E+02  0.21787407884E+02  0.10500000000E+00 0. -1.
</event>
<event>
11    0  0.3443539E-009  0.9118800E+02  0.7816531E-02  0.1126479E+00
         25   -1    0    0    0    0  0.00000000000E+00  0.00000000000E+00  0.99999998245E-14  0.12500000000E+03  0.12500000000E+03 0.  0.
    3000001    1    3    3    0    0 -0.34515319070E+01  0.10663057073E+01 -0.38019111420E+01  0.53389707527E+01  0.10000000000E+01 0. -1.
    1000022    2    1    0    0    0 -0.54286260958E+02 -0.92678930274E+01 -0.27809315440E+02  0.62500000513E+02  0.10000003445E+02 0.  0.
    3000022    2    3    3    0    0 -0.50834729051E+02 -0.10334198735E+02 -0.24007404298E+02  0.57161029760E+02  0.25004187782E+00 0.  0.
    1000022    2    1    0    0    0  0.54286260958E+02  0.92678930274E+01  0.27809315440E+02  0.62499999487E+02  0.99999970331E+01 0.  0.
    3000022    2    5    5    0    0  0.13209235000E+02  0.48621615266E+01  0.11089409107E+02  0.17920993224E+02  0.24999958504E+00 0.  0.
        -13    1    4    4    0    0 -0.16065385027E+02 -0.33034501103E+01 -0.75534406033E+01  0.18057543261E+02  0.10500000000E+00 0.  1.
         13    1    4    4    0    0 -0.34769344024E+02 -0.70307486244E+01 -0.16453963694E+02  0.39103486499E+02  0.10500000000E+00 0. -1.
    3000001    1    5    5    0    0  0.41077025958E+02  0.44057315008E+01  0.16719906332E+02  0.44579006263E+02  0.10000000000E+01 0. -1.
        -13    1    6    6    0    0  0.84212433588E+01  0.31084608118E+01  0.71453396851E+01  0.11473742743E+02  0.10500000000E+00 0. -1.
         13    1    6    6    0    0  0.47879916414E+01  0.17537007148E+01  0.39440694223E+01  0.64472504809E+01  0.10500000000E+00 0.  1.
</event>
<event>
11    0  0.3443539E-009  0.9118800E+02  0.7816531E-02  0.1126479E+00
         25   -1    0    0    0    0  0.00000000000E+00  0.00000000000E+00  0.99999998245E-14  0.12500000000E+03  0.12500000000E+03 0.  0.
    3000001    1    3    3    0    0 -0.62892973272E+01 -0.16547874981E+02 -0.98427908773E+01  0.20279742590E+02  0.10000000000E+01 0.  1.
    1000022    2    1    0    0    0 -0.12156113418E+02 -0.44665096118E+02 -0.40786123318E+02  0.62499998134E+02  0.10000000341E+02 0.  0.
    3000022    2    3    3    0    0 -0.58668160913E+01 -0.28117221137E+02 -0.30943332440E+02  0.42220255544E+02  0.25000041263E+00 0.  0.
    1000022    2    1    0    0    0  0.12156113418E+02  0.44665096118E+02  0.40786123318E+02  0.62500001866E+02  0.10000023661E+02 0.  0.
    3000022    2    5    5    0    0  0.62639729436E+01  0.78184101858E+01  0.81657679115E+01  0.12926993379E+02  0.24999473422E+00 0.  0.
        -13    1    4    4    0    0 -0.15878134692E+01 -0.74667851668E+01 -0.82506430386E+01  0.11240914905E+02  0.10500000000E+00 0. -1.
         13    1    4    4    0    0 -0.42790026221E+01 -0.20650435970E+02 -0.22692689402E+02  0.30979340640E+02  0.10500000000E+00 0.  1.
    3000001    1    5    5    0    0  0.58921404749E+01  0.36846685932E+02  0.32620355406E+02  0.49573008486E+02  0.10000000000E+01 0.  1.
        -13    1    6    6    0    0  0.22476326129E+01  0.28981013855E+01  0.30037267682E+01  0.47417553186E+01  0.10500000000E+00 0. -1.
         13    1    6    6    0    0  0.40163403307E+01  0.49203088003E+01  0.51620411433E+01  0.81852380605E+01  0.10500000000E+00 0.  1.
</event>
<event>
11    0  0.3443539E-009  0.9118800E+02  0.7816531E-02  0.1126479E+00
         25   -1    0    0    0    0  0.00000000000E+00  0.00000000000E+00  0.99999998245E-14  0.12500000000E+03  0.12500000000E+03 0.  0.
    3000001    1    3    3    0    0 -0.72875064125E+01  0.48720441823E+01  0.20823141524E+02  0.22615211411E+02  0.10000000000E+01 0. -1.
    1000022    2    1    0    0    0 -0.25588097971E+02  0.16501608232E+01  0.56113957610E+02  0.62500000355E+02  0.10000000855E+02 0.  0.
    3000022    2    3    3    0    0 -0.18300591559E+02 -0.32218833591E+01  0.35290816086E+02  0.39884788944E+02  0.25001054117E+00 0.  0.
    1000022    2    1    0    0    0  0.25588097971E+02 -0.16501608232E+01 -0.56113957610E+02  0.62499999645E+02  0.99999964231E+01 0.  0.
    3000022    2    5    5    0    0  0.19314344984E+02 -0.54919049533E+01 -0.41913348020E+02  0.46475759032E+02  0.24998633284E+00 0.  0.
        -13    1    4    4    0    0 -0.10973285733E+02 -0.18767685864E+01  0.21072826528E+02  0.23832966726E+02  0.10500000000E+00 0. -1.
         13    1    4    4    0    0 -0.73273058254E+01 -0.13451147727E+01  0.14217989559E+02  0.16051822217E+02  0.10500000000E+00 0.  1.
    3000001    1    5    5    0    0  0.62737529874E+01  0.38417441301E+01 -0.14200609590E+02  0.16024240614E+02  0.10000000000E+01 0. -1.
        -13    1    6    6    0    0  0.10751629495E+02 -0.31218809018E+01 -0.23315761955E+02  0.25864637204E+02  0.10500000000E+00 0. -1.
         13    1    6    6    0    0  0.85627154888E+01 -0.23700240515E+01 -0.18597586065E+02  0.20611121828E+02  0.10500000000E+00 0.  1.
</event>
<event>
11    0  0.3443539E-009  0.9118800E+02  0.7816531E-02  0.1126479E+00
         25   -1    0    0    0    0  0.00000000000E+00  0.00000000000E+00  0.99999998245E-14  0.12500000000E+03  0.12500000000E+03 0.  0.
    3000001    1    3    3    0    0 -0.56589469251E+02  0.61147145135E+01 -0.24458529800E+02  0.61959482275E+02  0.10000000000E+01 0. -1.
    1000022    2    1    0    0    0 -0.56318724709E+02  0.64911737420E+01 -0.24337541449E+02  0.62500000319E+02  0.10000001340E+02 0.  0.
    3000022    2    3    3    0    0  0.27074454281E+00  0.37645922843E+00  0.12098835157E+00  0.54051804475E+00  0.24999483466E+00 0.  0.
    1000022    2    1    0    0    0  0.56318724709E+02 -0.64911737420E+01  0.24337541449E+02  0.62499999681E+02  0.99999973487E+01 0.  0.
    3000022    2    5    5    0    0  0.10840074490E+02 -0.52564444086E+01  0.55832695401E+01  0.13280543192E+02  0.25001189229E+00 0.  0.
        -13    1    4    4    0    0  0.21493362537E+00  0.25716741562E+00  0.12280811375E+00  0.37207307854E+00  0.10500000000E+00 0.  1.
         13    1    4    4    0    0  0.55810917447E-01  0.11929181281E+00 -0.18197621733E-02  0.16844496621E+00  0.10500000000E+00 0. -1.
    3000001    1    5    5    0    0  0.45478650218E+02 -0.12347293334E+01  0.18754271909E+02  0.49219456489E+02  0.10000000000E+01 0. -1.
        -13    1    6    6    0    0  0.55904873287E+01 -0.27400562835E+01  0.29540658960E+01  0.68919509086E+01  0.10500000000E+00 0.  1.
         13    1    6    6    0    0  0.52495871615E+01 -0.25163881251E+01  0.26292036441E+01  0.63885922835E+01  0.10500000000E+00 0. -1.
</event>
<event>
11    0  0.3443539E-009  0.9118800E+02  0.7816531E-02  0.1126479E+00
         25   -1    0    0    0    0  0.00000000000E+00  0.00000000000E+00  0.99999998245E-14  0.12500000000E+03  0.12500000000E+03 0.  0.
    3000001    1    3    3    0    0 -0.13773022823E+02  0.29059493561E+02 -0.38013764708E+02  0.49801572575E+02  0.10000000000E+01 0.  1.
    1000022    2    1    0    0    0 -0.21628666365E+02  0.35894515487E+02 -0.45277302363E+02  0.62500003155E+02  0.10000041714E+02 0.  0.
    3000022    2    3    3    0    0 -0.78556435414E+01  0.68350219263E+01 -0.72635376549E+01  0.12698430579E+02  0.24999945501E+00 0.  0.
    1000022    2    1    0    0    0  0.21628666365E+02 -0.35894515487E+02  0.45277302363E+02  0.62499996845E+02  0.10000002281E+02 0.  0.
    3000022    2    5    5    0    0  0.13690493649E+01 -0.10361771046E+02  0.10194229201E+02  0.14602239673E+02  0.24999816305E+00 0.  0.
        -13    1    4    4    0    0 -0.35630900764E+01  0.31824689183E+01 -0.33631898997E+01  0.58434399637E+01  0.10500000000E+00 0.  1.
         13    1    4    4    0    0 -0.42925534651E+01  0.36525530081E+01 -0.39003477552E+01  0.68549906155E+01  0.10500000000E+00 0. -1.
    3000001    1    5    5    0    0  0.20259617000E+02 -0.25532744441E+02  0.35083073163E+02  0.47897757173E+02  0.10000000000E+01 0.  1.
        -13    1    6    6    0    0  0.63928644759E+00 -0.45072480873E+01  0.45095767970E+01  0.64086878821E+01  0.10500000000E+00 0.  1.
         13    1    6    6    0    0  0.72976291729E+00 -0.58545229590E+01  0.56846524036E+01  0.81935517904E+01  0.10500000000E+00 0. -1.
</event>
<event>
11    0  0.3443539E-009  0.9118800E+02  0.7816531E-02  0.1126479E+00
         25   -1    0    0    0    0  0.00000000000E+00  0.00000000000E+00  0.99999998245E-14  0.12500000000E+03  0.12500000000E+03 0.  0.
    3000001    1    3    3    0    0  0.26176757331E+01 -0.23334970292E+01  0.81427623949E+00  0.37363726290E+01  0.10000000000E+01 0. -1.
    1000022    2    1    0    0    0  0.40204833954E+02 -0.18319302642E+02  0.43060707733E+02  0.62500000123E+02  0.99999971171E+01 0.  0.
    3000022    2    3    3    0    0  0.37587158221E+02 -0.15985805613E+02  0.42246431493E+02  0.58763627494E+02  0.24999618616E+00 0.  0.
    1000022    2    1    0    0    0 -0.40204833954E+02  0.18319302642E+02 -0.43060707733E+02  0.62499999877E+02  0.99999955802E+01 0.  0.
    3000022    2    5    5    0    0 -0.62167088452E+01  0.57353272715E+01 -0.12427383096E+02  0.15034752981E+02  0.24999764590E+00 0.  0.
        -13    1    4    4    0    0  0.22818996341E+02 -0.96415248412E+01  0.25653587541E+02  0.35662069121E+02  0.10500000000E+00 0.  1.
         13    1    4    4    0    0  0.14768161880E+02 -0.63442807717E+01  0.16592843952E+02  0.23101558373E+02  0.10500000000E+00 0. -1.
    3000001    1    5    5    0    0 -0.33988125109E+02  0.12583975371E+02 -0.30633324637E+02  0.47465246896E+02  0.10000000000E+01 0.  1.
        -13    1    6    6    0    0 -0.18737478188E+01  0.17927393769E+01 -0.38234409862E+01  0.46211006629E+01  0.10500000000E+00 0. -1.
         13    1    6    6    0    0 -0.43429610263E+01  0.39425878946E+01 -0.86039421095E+01  0.10413652318E+02  0.10500000000E+00 0.  1.
</event>
<event>
11    0  0.3443539E-009  0.9118800E+02  0.7816531E-02  0.1126479E+00
         25   -1    0    0    0    0  0.00000000000E+00  0.00000000000E+00  0.99999998245E-14  0.12500000000E+03  0.12500000000E+03 0.  0.
    3000001    1    3    3    0    0 -0.40600372186E+02 -0.16492826424E+02  0.31601478796E+02  0.54037551824E+02  0.10000000000E+01 0.  1.
    1000022    2    1    0    0    0 -0.45170638085E+02 -0.16334522564E+02  0.38717526511E+02  0.62499999728E+02  0.99999967241E+01 0.  0.
    3000022    2    3    3    0    0 -0.45702658988E+01  0.15830385928E+00  0.71160477151E+01  0.84624479037E+01  0.24999788278E+00 0.  0.
    1000022    2    1    0    0    0  0.45170638085E+02  0.16334522564E+02 -0.38717526511E+02  0.62500000272E+02  0.10000000123E+02 0.  0.
    3000022    2    5    5    0    0  0.32124300679E+02  0.14007153814E+02 -0.23011522482E+02  0.41925692810E+02  0.24999704513E+00 0.  0.
        -13    1    4    4    0    0 -0.16365049887E+01  0.50285254614E-01  0.24445635791E+01  0.29440776615E+01  0.10500000000E+00 0. -1.
         13    1    4    4    0    0 -0.29337609101E+01  0.10801860467E+00  0.46714841360E+01  0.55183702421E+01  0.10500000000E+00 0.  1.
    3000001    1    5    5    0    0  0.13046337406E+02  0.23273687506E+01 -0.15706004028E+02  0.20574307462E+02  0.10000000000E+01 0.  1.
        -13    1    6    6    0    0  0.10306955685E+02  0.45180484821E+01 -0.73345642685E+01  0.13433277917E+02  0.10500000000E+00 0.  1.
         13    1    6    6    0    0  0.21817344994E+02  0.94891053318E+01 -0.15676958214E+02  0.28492414893E+02  0.10500000000E+00 0. -1.
</event>
<event>
11    0  0.3443539E-009  0.9118800E+02  0.7816531E-02  0.1126479E+00
         25   -1    0    0    0    0  0.00000000000E+00  0.00000000000E+00  0.99999998245E-14  0.12500000000E+03  0.12500000000E+03 0.  0.
    3000001    1    3    3    0    0  0.21431196087E+01 -0.85067120936E+01  0.10306945376E+02  0.13571670321E+02  0.10000000000E+01 0.  1.
    1000022    2    1    0    0    0 -0.72434150509E+01 -0.33267140949E+02  0.51449783612E+02  0.62500000648E+02  0.10000005933E+02 0.  0.
    3000022    2    3    3    0    0 -0.93865346596E+01 -0.24760428856E+02  0.41142838236E+02  0.48928330327E+02  0.25000087546E+00 0.  0.
    1000022    2    1    0    0    0  0.72434150509E+01  0.33267140949E+02 -0.51449783612E+02  0.62499999352E+02  0.99999978381E+01 0.  0.
    3000022    2    5    5    0    0 -0.17900045339E+01  0.14138405430E+02 -0.19034124319E+02  0.23779382630E+02  0.25005065340E+00 0.  0.
        -13    1    4    4    0    0 -0.42161761123E+01 -0.11107557537E+02  0.18582572982E+02  0.22056224043E+02  0.10500000000E+00 0.  1.
         13    1    4    4    0    0 -0.51703585473E+01 -0.13652871319E+02  0.22560265254E+02  0.26872106283E+02  0.10500000000E+00 0. -1.
    3000001    1    5    5    0    0  0.90334195848E+01  0.19128735519E+02 -0.32415659293E+02  0.38720616723E+02  0.10000000000E+01 0.  1.
        -13    1    6    6    0    0 -0.73139256867E+00  0.62954232524E+01 -0.84426574659E+01  0.10557309274E+02  0.10500000000E+00 0.  1.
         13    1    6    6    0    0 -0.10586119652E+01  0.78429821775E+01 -0.10591466853E+02  0.13222073356E+02  0.10500000000E+00 0. -1.
</event>
<event>
11    0  0.3443539E-009  0.9118800E+02  0.7816531E-02  0.1126479E+00
         25   -1    0    0    0    0  0.00000000000E+00  0.00000000000E+00  0.99999998245E-14  0.12500000000E+03  0.12500000000E+03 0.  0.
    3000001    1    3    3    0    0 -0.33532487696E+02 -0.23547217275E+02 -0.38490476845E+02  0.56226470459E+02  0.10000000000E+01 0. -1.
    1000022    2    1    0    0    0 -0.38201935711E+02 -0.27488058229E+02 -0.39890710707E+02  0.62500000967E+02  0.10000004149E+02 0.  0.
    3000022    2    3    3    0    0 -0.46694480150E+01 -0.39408409540E+01 -0.14002338614E+01  0.62735305087E+01  0.25011594802E+00 0.  0.
    1000022    2    1    0    0    0  0.38201935711E+02  0.27488058229E+02  0.39890710707E+02  0.62499999033E+02  0.99999920590E+01 0.  0.
    3000022    2    5    5    0    0  0.13811359473E+02  0.63507991623E+01  0.17628174606E+02  0.23278774630E+02  0.25001564255E+00 0.  0.
        -13    1    4    4    0    0 -0.18199746212E+01 -0.14890682747E+01 -0.59038618857E+00  0.24267700345E+01  0.10500000000E+00 0.  1.
         13    1    4    4    0    0 -0.28494733938E+01 -0.24517726793E+01 -0.80984767285E+00  0.38467604742E+01  0.10500000000E+00 0. -1.
    3000001    1    5    5    0    0  0.24390576238E+02  0.21137259066E+02  0.22262536101E+02  0.39221224403E+02  0.10000000000E+01 0. -1.
        -13    1    6    6    0    0  0.63589303148E+01  0.29518057031E+01  0.82251426388E+01  0.10808013142E+02  0.10500000000E+00 0.  1.
         13    1    6    6    0    0  0.74524291581E+01  0.33989934592E+01  0.94030319674E+01  0.12470761487E+02  0.10500000000E+00 0. -1.
</event>
<event>
11    0  0.3443539E-009  0.9118800E+02  0.7816531E-02  0.1126479E+00
         25   -1    0    0    0    0  0.00000000000E+00  0.00000000000E+00  0.99999998245E-14  0.12500000000E+03  0.12500000000E+03 0.  0.
    3000001    1    3    3    0    0 -0.76785905276E+01 -0.10004252536E+02 -0.35136619797E+02  0.37344716789E+02  0.10000000000E+01 0. -1.
    1000022    2    1    0    0    0 -0.16894805809E+02 -0.96929818616E+01 -0.58539403532E+02  0.62500000463E+02  0.99999965669E+01 0.  0.
    3000022    2    3    3    0    0 -0.92162152816E+01  0.31127067435E+00 -0.23402783735E+02  0.25155283674E+02  0.24999327853E+00 0.  0.
    1000022    2    1    0    0    0  0.16894805809E+02  0.96929818616E+01  0.58539403532E+02  0.62499999537E+02  0.99999907737E+01 0.  0.
    3000022    2    5    5    0    0  0.97066748865E+01  0.16725508642E+01  0.17755143058E+02  0.20305776686E+02  0.24999612478E+00 0.  0.
        -13    1    4    4    0    0 -0.68559920075E+01  0.21000110891E+00 -0.17347381651E+02  0.18654527654E+02  0.10500000000E+00 0.  1.
         13    1    4    4    0    0 -0.23602232741E+01  0.10126956543E+00 -0.60554020841E+01  0.65007560198E+01  0.10500000000E+00 0. -1.
    3000001    1    5    5    0    0  0.71881309227E+01  0.80204309975E+01  0.40784260474E+02  0.42194222851E+02  0.10000000000E+01 0.  1.
        -13    1    6    6    0    0  0.64296988000E+01  0.10638116065E+01  0.11677927187E+02  0.13373770230E+02  0.10500000000E+00 0. -1.
         13    1    6    6    0    0  0.32769760865E+01  0.60873925765E+00  0.60772158709E+01  0.69320064553E+01  0.10500000000E+00 0.  1.
</event>
<event>
11    0  0.3443539E-009  0.9118800E+02  0.7816531E-02  0.1126479E+00
         25   -1    0    0    0    0  0.00000000000E+00  0.00000000000E+00  0.99999998245E-14  0.12500000000E+03  0.12500000000E+03 0.  0.
    3000001    1    3    3    0    0  0.11141527284E+02  0.10467688967E+01  0.18789603388E+02  0.21892431359E+02  0.10000000000E+01 0. -1.
    1000022    2    1    0    0    0  0.28469942045E+02 -0.10005628958E+02  0.53810778858E+02  0.62500000735E+02  0.99999979856E+01 0.  0.
    3000022    2    3    3    0    0  0.17328414760E+02 -0.11052397855E+02  0.35021175470E+02  0.40607569376E+02  0.25000569952E+00 0.  0.
    1000022    2    1    0    0    0 -0.28469942045E+02  0.10005628958E+02 -0.53810778858E+02  0.62499999265E+02  0.99999887958E+01 0.  0.
    3000022    2    5    5    0    0 -0.18262910350E+02  0.42115410515E+01 -0.41088162081E+02  0.45161604636E+02  0.24999505614E+00 0.  0.
        -13    1    4    4    0    0  0.61692576790E+01 -0.39860892208E+01  0.12440293986E+02  0.14447165364E+02  0.10500000000E+00 0.  1.
         13    1    4    4    0    0  0.11159157081E+02 -0.70663086342E+01  0.22580881484E+02  0.26160404012E+02  0.10500000000E+00 0. -1.
    3000001    1    5    5    0    0 -0.10207031694E+02  0.57940879068E+01 -0.12722616777E+02  0.17338394629E+02  0.10000000000E+01 0. -1.
        -13    1    6    6    0    0 -0.59609449497E+01  0.13212983243E+01 -0.13388964060E+02  0.14715776485E+02  0.10500000000E+00 0.  1.
         13    1    6    6    0    0 -0.12301965401E+02  0.28902427272E+01 -0.27699198021E+02  0.30445828150E+02  0.10500000000E+00 0. -1.
</event>
<event>
11    0  0.3443539E-009  0.9118800E+02  0.7816531E-02  0.1126479E+00
         25   -1    0    0    0    0  0.00000000000E+00  0.00000000000E+00  0.99999998245E-14  0.12500000000E+03  0.12500000000E+03 0.  0.
    3000001    1    3    3    0    0 -0.63730454592E+01  0.94414232050E+01  0.48106696220E+02  0.49447046442E+02  0.10000000000E+01 0.  1.
    1000022    2    1    0    0    0 -0.12708451604E+02  0.12920936462E+02  0.58972826465E+02  0.62500002836E+02  0.10000037605E+02 0.  0.
    3000022    2    3    3    0    0 -0.63354061450E+01  0.34795132570E+01  0.10866130244E+02  0.13052956395E+02  0.25000126935E+00 0.  0.
    1000022    2    1    0    0    0  0.12708451604E+02 -0.12920936462E+02 -0.58972826465E+02  0.62499997164E+02  0.10000002150E+02 0.  0.
    3000022    2    5    5    0    0  0.41601663430E+01 -0.92851026995E+01 -0.20221693424E+02  0.22638452035E+02  0.25001899188E+00 0.  0.
        -13    1    4    4    0    0 -0.14916095390E+01  0.83007732297E+00  0.25464892776E+01  0.30675006145E+01  0.10500000000E+00 0.  1.
         13    1    4    4    0    0 -0.48437966060E+01  0.26494359340E+01  0.83196409667E+01  0.99854557804E+01  0.10500000000E+00 0. -1.
    3000001    1    5    5    0    0  0.85482852612E+01 -0.36358337625E+01 -0.38751133041E+02  0.39861545128E+02  0.10000000000E+01 0.  1.
        -13    1    6    6    0    0  0.31414936326E+01 -0.70561503282E+01 -0.15367083544E+02  0.17199317468E+02  0.10500000000E+00 0. -1.
         13    1    6    6    0    0  0.10186727104E+01 -0.22289523713E+01 -0.48546098796E+01  0.54391345679E+01  0.10500000000E+00 0.  1.
</event>
<event>
11    0  0.3443539E-009  0.9118800E+02  0.7816531E-02  0.1126479E+00
         25   -1    0    0    0    0  0.00000000000E+00  0.00000000000E+00  0.99999998245E-14  0.12500000000E+03  0.12500000000E+03 0.  0.
    3000001    1    3    3    0    0 -0.44310116330E+02 -0.10516109557E+02  0.73932617341E+01  0.46147971661E+02  0.10000000000E+01 0. -1.
    1000022    2    1    0    0    0 -0.60286252550E+02 -0.12336352637E+02  0.44308088349E+01  0.62500000207E+02  0.10000005800E+02 0.  0.
    3000022    2    3    3    0    0 -0.15976136220E+02 -0.18202430793E+01 -0.29624528992E+01  0.16352028545E+02  0.24999394464E+00 0.  0.
    1000022    2    1    0    0    0  0.60286252550E+02  0.12336352637E+02 -0.44308088349E+01  0.62499999793E+02  0.10000003216E+02 0.  0.
    3000022    2    5    5    0    0  0.52708237550E+00  0.47646474054E+00 -0.12806698336E+01  0.14857495185E+01  0.25000385895E+00 0.  0.
        -13    1    4    4    0    0 -0.80739657622E+01 -0.91230017282E+00 -0.14284761965E+01  0.82506232479E+01  0.10500000000E+00 0.  1.
         13    1    4    4    0    0 -0.79021704581E+01 -0.90794290645E+00 -0.15339767026E+01  0.81014052975E+01  0.10500000000E+00 0. -1.
    3000001    1    5    5    0    0  0.59759170175E+02  0.11859887896E+02 -0.31501390013E+01  0.61014250275E+02  0.10000000000E+01 0. -1.
        -13    1    6    6    0    0  0.24669268217E+00  0.20252195835E+00 -0.71007011342E+00  0.78555521068E+00  0.10500000000E+00 0.  1.
         13    1    6    6    0    0  0.28038969333E+00  0.27394278219E+00 -0.57059972021E+00  0.70019430785E+00  0.10500000000E+00 0. -1.
</event>
<event>
11    0  0.3443539E-009  0.9118800E+02  0.7816531E-02  0.1126479E+00
         25   -1    0    0    0    0  0.00000000000E+00  0.00000000000E+00  0.99999998245E-14  0.12500000000E+03  0.12500000000E+03 0.  0.
    3000001    1    3    3    0    0  0.39280593968E+02  0.22705767919E+01  0.36683427881E+02  0.53803294161E+02  0.10000000000E+01 0. -1.
    1000022    2    1    0    0    0  0.46949306385E+02  0.50299174667E+01  0.39707834020E+02  0.62499997280E+02  0.10000006882E+02 0.  0.
    3000022    2    3    3    0    0  0.76687124167E+01  0.27593406748E+01  0.30244061396E+01  0.86967031191E+01  0.25000311013E+00 0.  0.
    1000022    2    1    0    0    0 -0.46949306385E+02 -0.50299174667E+01 -0.39707834020E+02  0.62500002720E+02  0.10000040885E+02 0.  0.
    3000022    2    5    5    0    0 -0.38526055394E+02 -0.17287272390E+01 -0.27941013893E+02  0.47623609673E+02  0.24999772700E+00 0.  0.
        -13    1    4    4    0    0  0.25277363637E+01  0.85391438147E+00  0.99074818291E+00  0.28480217445E+01  0.10500000000E+00 0. -1.
         13    1    4    4    0    0  0.51409760530E+01  0.19054262933E+01  0.20336579567E+01  0.58486813746E+01  0.10500000000E+00 0.  1.
    3000001    1    5    5    0    0 -0.84232509907E+01 -0.33011902277E+01 -0.11766820128E+02  0.14876393047E+02  0.10000000000E+01 0.  1.
        -13    1    6    6    0    0 -0.12282464278E+02 -0.51236204904E+00 -0.88668573340E+01  0.15157626054E+02  0.10500000000E+00 0. -1.
         13    1    6    6    0    0 -0.26243591116E+02 -0.12163651900E+01 -0.19074156559E+02  0.32465983619E+02  0.10500000000E+00 0.  1.
</event>
<event>
11    0  0.3443539E-009  0.9118800E+02  0.7816531E-02  0.1126479E+00
         25   -1    0    0    0    0  0.00000000000E+00  0.00000000000E+00  0.99999998245E-14  0.12500000000E+03  0.12500000000E+03 0.  0.
    3000001    1    3    3    0    0  0.17615720481E+02 -0.31963424960E+02 -0.35255752559E+02  0.50753741062E+02  0.10000000000E+01 0.  1.
    1000022    2    1    0    0    0  0.25457079307E+02 -0.36509351030E+02 -0.42722997866E+02  0.62499999701E+02  0.99999908226E+01 0.  0.
    3000022    2    3    3    0    0  0.78413588262E+01 -0.45459260697E+01 -0.74672453071E+01  0.11746258639E+02  0.24997493591E+00 0.  0.
    1000022    2    1    0    0    0 -0.25457079307E+02  0.36509351030E+02  0.42722997866E+02  0.62500000299E+02  0.99999945638E+01 0.  0.
    3000022    2    5    5    0    0 -0.17871462272E+02  0.21321514823E+02  0.31963194184E+02  0.42375752991E+02  0.25000201951E+00 0.  0.
        -13    1    4    4    0    0  0.36770111080E+01 -0.20657624278E+01 -0.34284096816E+01  0.54362489863E+01  0.10500000000E+00 0.  1.
         13    1    4    4    0    0  0.41643477182E+01 -0.24801636419E+01 -0.40388356255E+01  0.63100096528E+01  0.10500000000E+00 0. -1.
    3000001    1    5    5    0    0 -0.75856170355E+01  0.15187836207E+02  0.10759803682E+02  0.20124247309E+02  0.10000000000E+01 0.  1.
        -13    1    6    6    0    0 -0.73132300632E+01  0.86707506616E+01  0.13113527082E+02  0.17338998487E+02  0.10500000000E+00 0. -1.
         13    1    6    6    0    0 -0.10558232208E+02  0.12650764161E+02  0.18849667102E+02  0.25036754504E+02  0.10500000000E+00 0.  1.
</event>
<event>
11    0  0.3443539E-009  0.9118800E+02  0.7816531E-02  0.1126479E+00
         25   -1    0    0    0    0  0.00000000000E+00  0.00000000000E+00  0.99999998245E-14  0.12500000000E+03  0.12500000000E+03 0.  0.
    3000001    1    3    3    0    0 -0.10792819027E+01  0.56547588379E+01 -0.24078363061E+01  0.63197169729E+01  0.10000000000E+01 0. -1.
    1000022    2    1    0    0    0 -0.33760117157E+02  0.41259061361E+02 -0.31051481230E+02  0.62500000378E+02  0.99999952859E+01 0.  0.
    3000022    2    3    3    0    0 -0.32680835255E+02  0.35604302523E+02 -0.28643644924E+02  0.56180283405E+02  0.24999555640E+00 0.  0.
    1000022    2    1    0    0    0  0.33760117157E+02 -0.41259061361E+02  0.31051481230E+02  0.62499999622E+02  0.99999905667E+01 0.  0.
    3000022    2    5    5    0    0  0.16406095838E+01  0.26778688906E+00  0.14646923313E+01  0.22296091333E+01  0.25004727062E+00 0.  0.
        -13    1    4    4    0    0 -0.14873982150E+02  0.16122007267E+02 -0.13043285543E+02  0.25520438595E+02  0.10500000000E+00 0. -1.
         13    1    4    4    0    0 -0.17806853105E+02  0.19482295256E+02 -0.15600359380E+02  0.30659844809E+02  0.10500000000E+00 0.  1.
    3000001    1    5    5    0    0  0.32119507574E+02 -0.41526848250E+02  0.29586788899E+02  0.60270390489E+02  0.10000000000E+01 0. -1.
        -13    1    6    6    0    0  0.82635616349E+00  0.18075683751E+00  0.67699470905E+00  0.10885239452E+01  0.10500000000E+00 0.  1.
         13    1    6    6    0    0  0.81425342031E+00  0.87030051542E-01  0.78769762227E+00  0.11410851881E+01  0.10500000000E+00 0. -1.
</event>
<event>
11    0  0.3443539E-009  0.9118800E+02  0.7816531E-02  0.1126479E+00
         25   -1    0    0    0    0  0.00000000000E+00  0.00000000000E+00  0.99999998245E-14  0.12500000000E+03  0.12500000000E+03 0.  0.
    3000001    1    3    3    0    0  0.31112981776E+02 -0.28528786998E+02  0.42430551743E+02  0.59860346172E+02  0.10000000000E+01 0.  1.
    1000022    2    1    0    0    0  0.33679732778E+02 -0.28881752049E+02  0.42869220221E+02  0.62499999593E+02  0.99999952665E+01 0.  0.
    3000022    2    3    3    0    0  0.25667510026E+01 -0.35296505136E+00  0.43866847794E+00  0.26396534216E+01  0.25009021583E+00 0.  0.
    1000022    2    1    0    0    0 -0.33679732778E+02  0.28881752049E+02 -0.42869220221E+02  0.62500000407E+02  0.10000000348E+02 0.  0.
    3000022    2    5    5    0    0 -0.15044506165E+02  0.10714372253E+02 -0.11629431452E+02  0.21827531070E+02  0.24999636284E+00 0.  0.
        -13    1    4    4    0    0  0.16600621466E+01 -0.28557208145E+00  0.28475183878E+00  0.17115683901E+01  0.10500000000E+00 0.  1.
         13    1    4    4    0    0  0.90668885595E+00 -0.67392969908E-01  0.15391663915E+00  0.92808503151E+00  0.10500000000E+00 0. -1.
    3000001    1    5    5    0    0 -0.18635226613E+02  0.18167379796E+02 -0.31239788769E+02  0.40672469337E+02  0.10000000000E+01 0. -1.
        -13    1    6    6    0    0 -0.57969638594E+01  0.41980809793E+01 -0.45355285638E+01  0.84741205001E+01  0.10500000000E+00 0.  1.
         13    1    6    6    0    0 -0.92475423054E+01  0.65162912742E+01 -0.70939028884E+01  0.13353410570E+02  0.10500000000E+00 0. -1.
</event>
<event>
11    0  0.3443539E-009  0.9118800E+02  0.7816531E-02  0.1126479E+00
         25   -1    0    0    0    0  0.00000000000E+00  0.00000000000E+00  0.99999998245E-14  0.12500000000E+03  0.12500000000E+03 0.  0.
    3000001    1    3    3    0    0  0.18119962036E+01  0.12992543491E+01 -0.80051591770E+01  0.83698247027E+01  0.10000000000E+01 0.  1.
    1000022    2    1    0    0    0  0.35715597490E+02  0.73265126925E+01 -0.49769152018E+02  0.62499997850E+02  0.99999773196E+01 0.  0.
    3000022    2    3    3    0    0  0.33903601286E+02  0.60272583434E+01 -0.41763992841E+02  0.54130173147E+02  0.25004726762E+00 0.  0.
    1000022    2    1    0    0    0 -0.35715597490E+02 -0.73265126925E+01  0.49769152018E+02  0.62500002150E+02  0.10000004199E+02 0.  0.
    3000022    2    5    5    0    0 -0.17596034498E+02 -0.55734186507E+01  0.17496921826E+02  0.25433996927E+02  0.25000153868E+00 0.  0.
        -13    1    4    4    0    0  0.10505978230E+02  0.18795749285E+01 -0.13018590939E+02  0.16834580943E+02  0.10500000000E+00 0.  1.
         13    1    4    4    0    0  0.23397623056E+02  0.41476834150E+01 -0.28745401902E+02  0.37295592204E+02  0.10500000000E+00 0. -1.
    3000001    1    5    5    0    0 -0.18119562992E+02 -0.17530940418E+01  0.32272230191E+02  0.37066005224E+02  0.10000000000E+01 0. -1.
        -13    1    6    6    0    0 -0.10161291905E+02 -0.32410387044E+01  0.10025759882E+02  0.14638410818E+02  0.10500000000E+00 0. -1.
         13    1    6    6    0    0 -0.74347425922E+01 -0.23323799463E+01  0.74711619444E+01  0.10795586108E+02  0.10500000000E+00 0.  1.
</event>
<event>
11    0  0.3443539E-009  0.9118800E+02  0.7816531E-02  0.1126479E+00
         25   -1    0    0    0    0  0.00000000000E+00  0.00000000000E+00  0.99999998245E-14  0.12500000000E+03  0.12500000000E+03 0.  0.
    3000001    1    3    3    0    0 -0.13978374980E+01 -0.64519171500E-01  0.11640966992E+00  0.17238513873E+01  0.10000000000E+01 0.  1.
    1000022    2    1    0    0    0 -0.38811783857E+02 -0.47952920833E+02 -0.64221443509E+00  0.62500001353E+02  0.10000027361E+02 0.  0.
    3000022    2    3    3    0    0 -0.37413946359E+02 -0.47888401662E+02 -0.75862410501E+00  0.60776149966E+02  0.24999666474E+00 0.  0.
    1000022    2    1    0    0    0  0.38811783857E+02  0.47952920833E+02  0.64221443509E+00  0.62499998647E+02  0.10000010444E+02 0.  0.
    3000022    2    5    5    0    0  0.25476238752E+02  0.32514072682E+02 -0.41654579207E+01  0.41516469178E+02  0.25002003706E+00 0.  0.
        -13    1    4    4    0    0 -0.15016618955E+02 -0.19180894598E+02 -0.36227871776E+00  0.24362837136E+02  0.10500000000E+00 0. -1.
         13    1    4    4    0    0 -0.22397327404E+02 -0.28707507063E+02 -0.39634538726E+00  0.36413312830E+02  0.10500000000E+00 0.  1.
    3000001    1    5    5    0    0  0.13335545104E+02  0.15438848152E+02  0.48076723558E+01  0.20983529468E+02  0.10000000000E+01 0.  1.
        -13    1    6    6    0    0  0.59334573185E+01  0.75540462989E+01 -0.96791027593E+00  0.96549161849E+01  0.10500000000E+00 0.  1.
         13    1    6    6    0    0  0.19542781434E+02  0.24960026383E+02 -0.31975476447E+01  0.31861552993E+02  0.10500000000E+00 0. -1.
</event>
<event>
11    0  0.3443539E-009  0.9118800E+02  0.7816531E-02  0.1126479E+00
         25   -1    0    0    0    0  0.00000000000E+00  0.00000000000E+00  0.99999998245E-14  0.12500000000E+03  0.12500000000E+03 0.  0.
    3000001    1    3    3    0    0 -0.34146576720E+01  0.27648094400E+02  0.32253758091E+02  0.42630762625E+02  0.10000000000E+01 0. -1.
    1000022    2    1    0    0    0 -0.56413050629E+01  0.34715357492E+02  0.50687963381E+02  0.62499999930E+02  0.99999995448E+01 0.  0.
    3000022    2    3    3    0    0 -0.22266473909E+01  0.70672630921E+01  0.18434205290E+02  0.19869237305E+02  0.25000039815E+00 0.  0.
    1000022    2    1    0    0    0  0.56413050629E+01 -0.34715357492E+02 -0.50687963381E+02  0.62500000070E+02  0.10000000421E+02 0.  0.
    3000022    2    5    5    0    0  0.46086537258E+00 -0.11696842483E+02 -0.97395106789E+01  0.15229874543E+02  0.24997875584E+00 0.  0.
        -13    1    4    4    0    0 -0.96047704944E+00  0.28403331780E+01  0.74888703801E+01  0.80674787446E+01  0.10500000000E+00 0. -1.
         13    1    4    4    0    0 -0.12661703414E+01  0.42269299142E+01  0.10945334910E+02  0.11801758560E+02  0.10500000000E+00 0.  1.
    3000001    1    5    5    0    0  0.51804396903E+01 -0.23018515009E+02 -0.40948452702E+02  0.47270125527E+02  0.10000000000E+01 0. -1.
        -13    1    6    6    0    0  0.36124454471E+00 -0.79247455565E+01 -0.66190860658E+01  0.10332251212E+02  0.10500000000E+00 0. -1.
         13    1    6    6    0    0  0.99620827866E-01 -0.37720969264E+01 -0.31204246131E+01  0.48976233315E+01  0.10500000000E+00 0.  1.
</event>
<event>
11    0  0.3443539E-009  0.9118800E+02  0.7816531E-02  0.1126479E+00
         25   -1    0    0    0    0  0.00000000000E+00  0.00000000000E+00  0.99999998245E-14  0.12500000000E+03  0.12500000000E+03 0.  0.
    3000001    1    3    3    0    0 -0.15850230015E+01  0.22178008068E+02  0.14123478840E+02  0.26359988511E+02  0.10000000000E+01 0.  1.
    1000022    2    1    0    0    0 -0.14599607877E+02  0.52188879667E+02  0.29485966802E+02  0.62499999335E+02  0.99999983757E+01 0.  0.
    3000022    2    3    3    0    0 -0.13014584875E+02  0.30010871599E+02  0.15362487962E+02  0.36140010823E+02  0.25002460550E+00 0.  0.
    1000022    2    1    0    0    0  0.14599607877E+02 -0.52188879667E+02 -0.29485966802E+02  0.62500000665E+02  0.10000006692E+02 0.  0.
    3000022    2    5    5    0    0  0.11178816115E+02 -0.22232802145E+02 -0.14705953826E+02  0.28906590890E+02  0.24999595590E+00 0.  0.
        -13    1    4    4    0    0 -0.99497031996E+01  0.22909847433E+02  0.11719951209E+02  0.27590324110E+02  0.10500000000E+00 0.  1.
         13    1    4    4    0    0 -0.30648816758E+01  0.71010241662E+01  0.36425367538E+01  0.85496867134E+01  0.10500000000E+00 0. -1.
    3000001    1    5    5    0    0  0.34207917620E+01 -0.29956077522E+02 -0.14780012977E+02  0.33593409776E+02  0.10000000000E+01 0. -1.
        -13    1    6    6    0    0  0.26409858312E+01 -0.52264386001E+01 -0.34502312246E+01  0.67974691691E+01  0.10500000000E+00 0. -1.
         13    1    6    6    0    0  0.85378302837E+01 -0.17006363545E+02 -0.11255722601E+02  0.22109121721E+02  0.10500000000E+00 0.  1.
</event>
<event>
11    0  0.3443539E-009  0.9118800E+02  0.7816531E-02  0.1126479E+00
         25   -1    0    0    0    0  0.00000000000E+00  0.00000000000E+00  0.99999998245E-14  0.12500000000E+03  0.12500000000E+03 0.  0.
    3000001    1    3    3    0    0  0.87656519581E+01  0.16159196259E+02 -0.92978766890E+01  0.20625391849E+02  0.10000000000E+01 0. -1.
    1000022    2    1    0    0    0  0.17366984442E+02  0.45301996157E+02 -0.38109933194E+02  0.62500000035E+02  0.99999995913E+01 0.  0.
    3000022    2    3    3    0    0  0.86013324838E+01  0.29142799898E+02 -0.28812056505E+02  0.41874608185E+02  0.25000852141E+00 0.  0.
    1000022    2    1    0    0    0 -0.17366984442E+02 -0.45301996157E+02  0.38109933194E+02  0.62499999965E+02  0.99999991599E+01 0.  0.
    3000022    2    5    5    0    0 -0.13039066053E+02 -0.24001699842E+02  0.16940701634E+02  0.32142630752E+02  0.25000200476E+00 0.  0.
        -13    1    4    4    0    0  0.39591501781E+01  0.13295481827E+02 -0.13074301233E+02  0.19062871895E+02  0.10500000000E+00 0.  1.
         13    1    4    4    0    0  0.46421823058E+01  0.15847318071E+02 -0.15737755271E+02  0.22811736290E+02  0.10500000000E+00 0. -1.
    3000001    1    5    5    0    0 -0.43279183892E+01 -0.21300296315E+02  0.21169231560E+02  0.30357369213E+02  0.10000000000E+01 0. -1.
        -13    1    6    6    0    0 -0.56606263264E+01 -0.10557677870E+02  0.74228630910E+01  0.14093160535E+02  0.10500000000E+00 0.  1.
         13    1    6    6    0    0 -0.73784397263E+01 -0.13444021972E+02  0.95178385433E+01  0.18049470217E+02  0.10500000000E+00 0. -1.
</event>
<event>
11    0  0.3443539E-009  0.9118800E+02  0.7816531E-02  0.1126479E+00
         25   -1    0    0    0    0  0.00000000000E+00  0.00000000000E+00  0.99999998245E-14  0.12500000000E+03  0.12500000000E+03 0.  0.
    3000001    1    3    3    0    0 -0.22202851998E+01 -0.37445295001E+01  0.49117682272E+00  0.44935979144E+01  0.10000000000E+01 0.  1.
    1000022    2    1    0    0    0 -0.53944347135E+02 -0.28232560651E+02  0.99589234234E+01  0.62500002600E+02  0.10000005024E+02 0.  0.
    3000022    2    3    3    0    0 -0.51724061935E+02 -0.24488031151E+02  0.94677466007E+01  0.58006404685E+02  0.25001219573E+00 0.  0.
    1000022    2    1    0    0    0  0.53944347135E+02  0.28232560651E+02 -0.99589234234E+01  0.62499997400E+02  0.99999725253E+01 0.  0.
    3000022    2    5    5    0    0  0.24671264661E+02  0.18351557144E+02 -0.60958816356E+01  0.31347619005E+02  0.24998951211E+00 0.  0.
        -13    1    4    4    0    0 -0.34078605474E+02 -0.16091995609E+02  0.62752313845E+01  0.38205931839E+02  0.10500000000E+00 0. -1.
         13    1    4    4    0    0 -0.17645456461E+02 -0.83960355415E+01  0.31925152162E+01  0.19800472846E+02  0.10500000000E+00 0.  1.
    3000001    1    5    5    0    0  0.29273082474E+02  0.98810035069E+01 -0.38630417878E+01  0.31152378395E+02  0.10000000000E+01 0. -1.
        -13    1    6    6    0    0  0.13583725505E+02  0.10152987294E+02 -0.34169631004E+01  0.17299925186E+02  0.10500000000E+00 0. -1.
         13    1    6    6    0    0  0.11087539156E+02  0.81985698500E+01 -0.26789185353E+01  0.14047693819E+02  0.10500000000E+00 0.  1.
</event>
<event>
11    0  0.3443539E-009  0.9118800E+02  0.7816531E-02  0.1126479E+00
         25   -1    0    0    0    0  0.00000000000E+00  0.00000000000E+00  0.99999998245E-14  0.12500000000E+03  0.12500000000E+03 0.  0.
    3000001    1    3    3    0    0  0.64202925412E+01 -0.98023945322E+00 -0.45338114791E+01  0.79835125244E+01  0.10000000000E+01 0.  1.
    1000022    2    1    0    0    0  0.33056498466E+02 -0.97926692002E-01 -0.52091350000E+02  0.62500004600E+02  0.10000007491E+02 0.  0.
    3000022    2    3    3    0    0  0.26636205924E+02  0.88231276121E+00 -0.47557538520E+02  0.54516492076E+02  0.24999254337E+00 0.  0.
    1000022    2    1    0    0    0 -0.33056498466E+02  0.97926692002E-01  0.52091350000E+02  0.62499995400E+02  0.99999499877E+01 0.  0.
    3000022    2    5    5    0    0 -0.15437262131E+02  0.11950949640E+01  0.15761555848E+02  0.22095846970E+02  0.24999300011E+00 0.  0.
        -13    1    4    4    0    0  0.15255920908E+02  0.49519709699E+00 -0.27369755358E+02  0.31338520646E+02  0.10500000000E+00 0.  1.
         13    1    4    4    0    0  0.11380285016E+02  0.38711566423E+00 -0.20187783162E+02  0.23177971430E+02  0.10500000000E+00 0. -1.
    3000001    1    5    5    0    0 -0.17619236334E+02 -0.10971682720E+01  0.36329794152E+02  0.40404148430E+02  0.10000000000E+01 0.  1.
        -13    1    6    6    0    0 -0.45514424346E+01  0.30965365316E+00  0.46620839498E+01  0.65236159739E+01  0.10500000000E+00 0. -1.
         13    1    6    6    0    0 -0.10885819697E+02  0.88544131081E+00  0.11099471898E+02  0.15572230996E+02  0.10500000000E+00 0.  1.
</event>
<event>
11    0  0.3443539E-009  0.9118800E+02  0.7816531E-02  0.1126479E+00
         25   -1    0    0    0    0  0.00000000000E+00  0.00000000000E+00  0.99999998245E-14  0.12500000000E+03  0.12500000000E+03 0.  0.
    3000001    1    3    3    0    0 -0.22460976597E+02  0.27882991181E+02 -0.41451071174E+01  0.36057434462E+02  0.10000000000E+01 0.  1.
    1000022    2    1    0    0    0 -0.44618071504E+02  0.42040592616E+02 -0.69329706881E+01  0.62499998909E+02  0.10000002442E+02 0.  0.
    3000022    2    3    3    0    0 -0.22157094906E+02  0.14157601435E+02 -0.27878635706E+01  0.26442564448E+02  0.24999640738E+00 0.  0.
    1000022    2    1    0    0    0  0.44618071504E+02 -0.42040592616E+02  0.69329706881E+01  0.62500001091E+02  0.10000016076E+02 0.  0.
    3000022    2    5    5    0    0  0.17399035209E+02 -0.22328544103E+02  0.55660716172E+01  0.28850198618E+02  0.24999811567E+00 0.  0.
        -13    1    4    4    0    0 -0.13688973457E+02  0.87968660823E+01 -0.17694471917E+01  0.16368103603E+02  0.10500000000E+00 0.  1.
         13    1    4    4    0    0 -0.84681214490E+01  0.53607353526E+01 -0.10184163790E+01  0.10074460845E+02  0.10500000000E+00 0. -1.
    3000001    1    5    5    0    0  0.27219036295E+02 -0.19712048513E+02  0.13668990708E+01  0.33649802473E+02  0.10000000000E+01 0.  1.
        -13    1    6    6    0    0  0.13199526326E+02 -0.16970545147E+02  0.42319864783E+01  0.21912271274E+02  0.10500000000E+00 0.  1.
         13    1    6    6    0    0  0.41995088823E+01 -0.53579989567E+01  0.13340851389E+01  0.69379273440E+01  0.10500000000E+00 0. -1.
</event>
<event>
11    0  0.3443539E-009  0.9118800E+02  0.7816531E-02  0.1126479E+00
         25   -1    0    0    0    0  0.00000000000E+00  0.00000000000E+00  0.99999998245E-14  0.12500000000E+03  0.12500000000E+03 0.  0.
    3000001    1    3    3    0    0  0.16936135930E+02 -0.16109658932E+02 -0.38614322243E+01  0.23712116523E+02  0.10000000000E+01 0.  1.
    1000022    2    1    0    0    0  0.36853165300E+02 -0.49383051746E+02 -0.30673373270E+01  0.62499998917E+02  0.99999856982E+01 0.  0.
    3000022    2    3    3    0    0  0.19917029370E+02 -0.33273392813E+02  0.79409489727E+00  0.38787882394E+02  0.25001135043E+00 0.  0.
    1000022    2    1    0    0    0 -0.36853165300E+02  0.49383051746E+02  0.30673373270E+01  0.62500001083E+02  0.99999992378E+01 0.  0.
    3000022    2    5    5    0    0 -0.25141948004E+02  0.31722846612E+02  0.65402036182E+01  0.41003576818E+02  0.25000375179E+00 0.  0.
        -13    1    4    4    0    0  0.95214677507E+01 -0.15786310970E+02  0.35013898355E+00  0.18439077647E+02  0.10500000000E+00 0. -1.
         13    1    4    4    0    0  0.10395561619E+02 -0.17487081843E+02  0.44395591371E+00  0.20348804747E+02  0.10500000000E+00 0.  1.
    3000001    1    5    5    0    0 -0.11711217296E+02  0.17660205134E+02 -0.34728662912E+01  0.21496424266E+02  0.10000000000E+01 0.  1.
        -13    1    6    6    0    0 -0.14736159905E+02  0.18495624251E+02  0.37989112657E+01  0.23951728059E+02  0.10500000000E+00 0. -1.
         13    1    6    6    0    0 -0.10405788099E+02  0.13227222361E+02  0.27412923525E+01  0.17051848759E+02  0.10500000000E+00 0.  1.
</event>
<event>
11    0  0.3443539E-009  0.9118800E+02  0.7816531E-02  0.1126479E+00
         25   -1    0    0    0    0  0.00000000000E+00  0.00000000000E+00  0.99999998245E-14  0.12500000000E+03  0.12500000000E+03 0.  0.
    3000001    1    3    3    0    0  0.83019598427E+01  0.48589755063E+02  0.21720619754E+02  0.53876452712E+02  0.10000000000E+01 0. -1.
    1000022    2    1    0    0    0  0.76533285830E+01  0.57184185046E+02  0.21855095221E+02  0.62499997996E+02  0.10000005226E+02 0.  0.
    3000022    2    3    3    0    0 -0.64863125964E+00  0.85944299826E+01  0.13447546774E+00  0.86235452834E+01  0.25000073310E+00 0.  0.
    1000022    2    1    0    0    0 -0.76533285830E+01 -0.57184185046E+02 -0.21855095221E+02  0.62500002004E+02  0.10000030282E+02 0.  0.
    3000022    2    5    5    0    0 -0.87000117146E+01 -0.29333922469E+02 -0.12942549115E+02  0.33222602030E+02  0.24999353859E+00 0.  0.
        -13    1    4    4    0    0 -0.20194624452E+00  0.32274297967E+01  0.68296903862E-02  0.32354531402E+01  0.10500000000E+00 0. -1.
         13    1    4    4    0    0 -0.44668501512E+00  0.53670001860E+01  0.12764577736E+00  0.53880921432E+01  0.10500000000E+00 0.  1.
    3000001    1    5    5    0    0  0.10466831315E+01 -0.27850262577E+02 -0.89125461063E+01  0.29277399975E+02  0.10000000000E+01 0. -1.
        -13    1    6    6    0    0 -0.31395658404E+01 -0.10569813210E+02 -0.46012999426E+01  0.11948255568E+02  0.10500000000E+00 0.  1.
         13    1    6    6    0    0 -0.55604458741E+01 -0.18764109260E+02 -0.83412491725E+01  0.21274346462E+02  0.10500000000E+00 0. -1.
</event>
<event>
11    0  0.3443539E-009  0.9118800E+02  0.7816531E-02  0.1126479E+00
         25   -1    0    0    0    0  0.00000000000E+00  0.00000000000E+00  0.99999998245E-14  0.12500000000E+03  0.12500000000E+03 0.  0.
    3000001    1    3    3    0    0  0.28261436891E+01 -0.51318466233E+01 -0.42451698292E+02  0.42865716206E+02  0.10000000000E+01 0.  1.
    1000022    2    1    0    0    0  0.10321863414E+02 -0.93226475446E+01 -0.60106553051E+02  0.62499997883E+02  0.99999697085E+01 0.  0.
    3000022    2    3    3    0    0  0.74957197245E+01 -0.41908009213E+01 -0.17654854759E+02  0.19634281678E+02  0.24998779789E+00 0.  0.
    1000022    2    1    0    0    0 -0.10321863414E+02  0.93226475446E+01  0.60106553051E+02  0.62500002117E+02  0.99999961659E+01 0.  0.
    3000022    2    5    5    0    0 -0.71807874611E+01  0.10877196383E+02  0.52046517572E+02  0.53654260082E+02  0.25004755647E+00 0.  0.
        -13    1    4    4    0    0  0.17373529475E+01 -0.98358942875E+00 -0.41172606175E+01  0.45769753573E+01  0.10500000000E+00 0.  1.
         13    1    4    4    0    0  0.57583667770E+01 -0.32072114926E+01 -0.13537594141E+02  0.15057306320E+02  0.10500000000E+00 0. -1.
    3000001    1    5    5    0    0 -0.31410759525E+01 -0.15545488384E+01  0.80600354788E+01  0.88457420350E+01  0.10000000000E+01 0.  1.
        -13    1    6    6    0    0 -0.37388632818E+01  0.57514080641E+01  0.27585622459E+02  0.28425963217E+02  0.10500000000E+00 0. -1.
         13    1    6    6    0    0 -0.34419241793E+01  0.51257883190E+01  0.24460895114E+02  0.25228296865E+02  0.10500000000E+00 0.  1.
</event>
<event>
11    0  0.3443539E-009  0.9118800E+02  0.7816531E-02  0.1126479E+00
         25   -1    0    0    0    0  0.00000000000E+00  0.00000000000E+00  0.99999998245E-14  0.12500000000E+03  0.12500000000E+03 0.  0.
    3000001    1    3    3    0    0 -0.62290573722E+01 -0.74407577225E+01 -0.11015438926E+02  0.14714140341E+02  0.10000000000E+01 0. -1.
    1000022    2    1    0    0    0 -0.20603001866E+02 -0.44958743899E+02 -0.36884655081E+02  0.62500000306E+02  0.99999959478E+01 0.  0.
    3000022    2    3    3    0    0 -0.14373944494E+02 -0.37517986177E+02 -0.25869216154E+02  0.47785859965E+02  0.25000221376E+00 0.  0.
    1000022    2    1    0    0    0  0.20603001866E+02  0.44958743899E+02  0.36884655081E+02  0.62499999694E+02  0.99999921187E+01 0.  0.
    3000022    2    5    5    0    0  0.14801690400E+01  0.90732172384E+01  0.10775080524E+02  0.14166122934E+02  0.25001451466E+00 0.  0.
        -13    1    4    4    0    0 -0.38295422949E+01 -0.99979685282E+01 -0.68527264624E+01  0.12712027920E+02  0.10500000000E+00 0. -1.
         13    1    4    4    0    0 -0.10544402199E+02 -0.27520017649E+02 -0.19016489692E+02  0.35073832045E+02  0.10500000000E+00 0.  1.
    3000001    1    5    5    0    0  0.19122832826E+02  0.35885526661E+02  0.26109574557E+02  0.48333876759E+02  0.10000000000E+01 0.  1.
        -13    1    6    6    0    0  0.81900708878E+00  0.50862486192E+01  0.61383246824E+01  0.80144090571E+01  0.10500000000E+00 0.  1.
         13    1    6    6    0    0  0.66116195126E+00  0.39869686192E+01  0.46367558414E+01  0.61517138773E+01  0.10500000000E+00 0. -1.
</event>
<event>
11    0  0.3443539E-009  0.9118800E+02  0.7816531E-02  0.1126479E+00
         25   -1    0    0    0    0  0.00000000000E+00  0.00000000000E+00  0.99999998245E-14  0.12500000000E+03  0.12500000000E+03 0.  0.
    3000001    1    3    3    0    0 -0.68875540780E+01 -0.36403180298E+02 -0.19917637099E+02  0.42075434693E+02  0.10000000000E+01 0. -1.
    1000022    2    1    0    0    0 -0.39764262771E+01 -0.55356184889E+02 -0.26946814302E+02  0.62500000309E+02  0.10000003313E+02 0.  0.
    3000022    2    3    3    0    0  0.29111278009E+01 -0.18953004591E+02 -0.70291772032E+01  0.20424565616E+02  0.25000076182E+00 0.  0.
    1000022    2    1    0    0    0  0.39764262771E+01  0.55356184889E+02  0.26946814302E+02  0.62499999691E+02  0.99999994503E+01 0.  0.
    3000022    2    5    5    0    0  0.40116455562E+01  0.55013585919E+02  0.27052913566E+02  0.61437045550E+02  0.24999559372E+00 0.  0.
        -13    1    4    4    0    0  0.18671855227E+01 -0.12469419369E+02 -0.46516694028E+01  0.13439563029E+02  0.10500000000E+00 0.  1.
         13    1    4    4    0    0  0.10439422783E+01 -0.64835852218E+01 -0.23775078004E+01  0.69850025877E+01  0.10500000000E+00 0. -1.
    3000001    1    5    5    0    0 -0.35219279096E-01  0.34259896975E+00 -0.10609926436E+00  0.10629541409E+01  0.10000000000E+01 0. -1.
        -13    1    6    6    0    0  0.10874487892E+01  0.15329958853E+02  0.75651741576E+01  0.17129888159E+02  0.10500000000E+00 0. -1.
         13    1    6    6    0    0  0.29241967670E+01  0.39683627066E+02  0.19487739409E+02  0.44307157391E+02  0.10500000000E+00 0.  1.
</event>
<event>
11    0  0.3443539E-009  0.9118800E+02  0.7816531E-02  0.1126479E+00
         25   -1    0    0    0    0  0.00000000000E+00  0.00000000000E+00  0.99999998245E-14  0.12500000000E+03  0.12500000000E+03 0.  0.
    3000001    1    3    3    0    0 -0.27210168412E+02 -0.37134370012E+02 -0.20927016578E+02  0.50579588018E+02  0.10000000000E+01 0.  1.
    1000022    2    1    0    0    0 -0.35536829076E+02 -0.41985888164E+02 -0.27938672222E+02  0.62500004064E+02  0.10000003835E+02 0.  0.
    3000022    2    3    3    0    0 -0.83266606640E+01 -0.48515181518E+01 -0.70116556436E+01  0.11920416045E+02  0.24999527631E+00 0.  0.
    1000022    2    1    0    0    0  0.35536829076E+02  0.41985888164E+02  0.27938672222E+02  0.62499995936E+02  0.99999530406E+01 0.  0.
    3000022    2    5    5    0    0  0.50306207411E+01  0.16018473057E+01  0.27633876945E+01  0.59642156370E+01  0.24999356487E+00 0.  0.
        -13    1    4    4    0    0 -0.30186498708E+01 -0.16949179123E+01 -0.24972985688E+01  0.42699553760E+01  0.10500000000E+00 0.  1.
         13    1    4    4    0    0 -0.53080107932E+01 -0.31566002396E+01 -0.45143570747E+01  0.76504606692E+01  0.10500000000E+00 0. -1.
    3000001    1    5    5    0    0  0.30506208335E+02  0.40384040858E+02  0.25175284527E+02  0.56535780299E+02  0.10000000000E+01 0.  1.
        -13    1    6    6    0    0  0.22375670173E+01  0.68148379882E+00  0.12915426950E+01  0.26739921200E+01  0.10500000000E+00 0.  1.
         13    1    6    6    0    0  0.27930537238E+01  0.92036350687E+00  0.14718449996E+01  0.32902235170E+01  0.10500000000E+00 0. -1.
</event>
<event>
11    0  0.3443539E-009  0.9118800E+02  0.7816531E-02  0.1126479E+00
         25   -1    0    0    0    0  0.00000000000E+00  0.00000000000E+00  0.99999998245E-14  0.12500000000E+03  0.12500000000E+03 0.  0.
    3000001    1    3    3    0    0 -0.19488106810E+02 -0.17633212850E+02 -0.20404145274E+02  0.33287319610E+02  0.10000000000E+01 0.  1.
    1000022    2    1    0    0    0 -0.39820583056E+02 -0.36188509196E+02 -0.30182161499E+02  0.62500000289E+02  0.10000006530E+02 0.  0.
    3000022    2    3    3    0    0 -0.20332476245E+02 -0.18555296347E+02 -0.97780162248E+01  0.29212680679E+02  0.24999673169E+00 0.  0.
    1000022    2    1    0    0    0  0.39820583056E+02  0.36188509196E+02  0.30182161499E+02  0.62499999711E+02  0.10000002923E+02 0.  0.
    3000022    2    5    5    0    0  0.87083124270E+01  0.12754489219E+02  0.11692374044E+02  0.19372294972E+02  0.25000228489E+00 0.  0.
        -13    1    4    4    0    0 -0.10276136576E+02 -0.93235855701E+01 -0.48708455451E+01  0.14705930509E+02  0.10500000000E+00 0.  1.
         13    1    4    4    0    0 -0.10056339669E+02 -0.92317107764E+01 -0.49071706797E+01  0.14506750169E+02  0.10500000000E+00 0. -1.
    3000001    1    5    5    0    0  0.31112270629E+02  0.23434019977E+02  0.18489787455E+02  0.43127704739E+02  0.10000000000E+01 0. -1.
        -13    1    6    6    0    0  0.28356569737E+01  0.41828095078E+01  0.37642342511E+01  0.63021687019E+01  0.10500000000E+00 0. -1.
         13    1    6    6    0    0  0.58726554533E+01  0.85716797111E+01  0.79281397927E+01  0.13070126270E+02  0.10500000000E+00 0.  1.
</event>
<event>
11    0  0.3443539E-009  0.9118800E+02  0.7816531E-02  0.1126479E+00
         25   -1    0    0    0    0  0.00000000000E+00  0.00000000000E+00  0.99999998245E-14  0.12500000000E+03  0.12500000000E+03 0.  0.
    3000001    1    3    3    0    0  0.49583222011E+01  0.85945270127E+01  0.10872948841E+02  0.14753706996E+02  0.10000000000E+01 0. -1.
    1000022    2    1    0    0    0  0.21110863340E+02  0.47864706520E+02  0.32703993714E+02  0.62500000828E+02  0.10000010870E+02 0.  0.
    3000022    2    3    3    0    0  0.16152541139E+02  0.39270179508E+02  0.21831044874E+02  0.47746293833E+02  0.24994128148E+00 0.  0.
    1000022    2    1    0    0    0 -0.21110863340E+02 -0.47864706520E+02 -0.32703993714E+02  0.62499999172E+02  0.10000000517E+02 0.  0.
    3000022    2    5    5    0    0 -0.92838654483E+01 -0.18851921997E+02 -0.18840853314E+02  0.28224553052E+02  0.25004149592E+00 0.  0.
        -13    1    4    4    0    0  0.86682041108E+01  0.21197502575E+02  0.11720269249E+02  0.25726399169E+02  0.10500000000E+00 0. -1.
         13    1    4    4    0    0  0.74843370285E+01  0.18072676933E+02  0.10110775625E+02  0.22019894664E+02  0.10500000000E+00 0.  1.
    3000001    1    5    5    0    0 -0.11826997892E+02 -0.29012784524E+02 -0.13863140401E+02  0.34275446120E+02  0.10000000000E+01 0. -1.
        -13    1    6    6    0    0 -0.59902896157E+01 -0.12260435064E+02 -0.12183878404E+02  0.18293708088E+02  0.10500000000E+00 0.  1.
         13    1    6    6    0    0 -0.32935758326E+01 -0.65914869329E+01 -0.66569749096E+01  0.99308449640E+01  0.10500000000E+00 0. -1.
</event>
<event>
11    0  0.3443539E-009  0.9118800E+02  0.7816531E-02  0.1126479E+00
         25   -1    0    0    0    0  0.00000000000E+00  0.00000000000E+00  0.99999998245E-14  0.12500000000E+03  0.12500000000E+03 0.  0.
    3000001    1    3    3    0    0  0.41636651864E+00  0.78680216805E+01  0.37822136040E+02  0.38647032239E+02  0.10000000000E+01 0.  1.
    1000022    2    1    0    0    0 -0.67073183823E+01  0.10350776426E+02  0.60449344808E+02  0.62500000322E+02  0.10000003002E+02 0.  0.
    3000022    2    3    3    0    0 -0.71236849009E+01  0.24827547450E+01  0.22627208768E+02  0.23852968083E+02  0.25010407610E+00 0.  0.
    1000022    2    1    0    0    0  0.67073183823E+01 -0.10350776426E+02 -0.60449344808E+02  0.62499999678E+02  0.99999989719E+01 0.  0.
    3000022    2    5    5    0    0  0.76710837333E+01 -0.10270813855E+02 -0.40029568661E+02  0.42032892027E+02  0.25000419592E+00 0.  0.
        -13    1    4    4    0    0 -0.42727131837E+01  0.14298765845E+01  0.13605035498E+02  0.14332084318E+02  0.10500000000E+00 0.  1.
         13    1    4    4    0    0 -0.28509717172E+01  0.10528781606E+01  0.90221732705E+01  0.95208837655E+01  0.10500000000E+00 0. -1.
    3000001    1    5    5    0    0 -0.96376535100E+00 -0.79962570858E-01 -0.20419776147E+02  0.20467107650E+02  0.10000000000E+01 0. -1.
        -13    1    6    6    0    0  0.43067559349E+01 -0.58157208876E+01 -0.22789326108E+02  0.23910984203E+02  0.10500000000E+00 0.  1.
         13    1    6    6    0    0  0.33643277984E+01 -0.44550929671E+01 -0.17240242553E+02  0.18121907824E+02  0.10500000000E+00 0. -1.
</event>
<event>
11    0  0.3443539E-009  0.9118800E+02  0.7816531E-02  0.1126479E+00
         25   -1    0    0    0    0  0.00000000000E+00  0.00000000000E+00  0.99999998245E-14  0.12500000000E+03  0.12500000000E+03 0.  0.
    3000001    1    3    3    0    0 -0.40476937231E+02  0.36976352329E+02 -0.10030456646E+02  0.55742650993E+02  0.10000000000E+01 0.  1.
    1000022    2    1    0    0    0 -0.46472082329E+02  0.38533026837E+02 -0.12720115580E+02  0.62499999723E+02  0.10000001589E+02 0.  0.
    3000022    2    3    3    0    0 -0.59951450978E+01  0.15566745078E+01 -0.26896589338E+01  0.67573487299E+01  0.24999282042E+00 0.  0.
    1000022    2    1    0    0    0  0.46472082329E+02 -0.38533026837E+02  0.12720115580E+02  0.62500000277E+02  0.10000005053E+02 0.  0.
    3000022    2    5    5    0    0  0.17086710550E+01 -0.19529532070E+01  0.28211223719E+01  0.38412000661E+01  0.25000701504E+00 0.  0.
        -13    1    4    4    0    0 -0.20849286081E+01  0.49100276797E+00 -0.90094639222E+00  0.23260998304E+01  0.10500000000E+00 0.  1.
         13    1    4    4    0    0 -0.39102164897E+01  0.10656717399E+01 -0.17887125416E+01  0.44312488995E+01  0.10500000000E+00 0. -1.
    3000001    1    5    5    0    0  0.44763411274E+02 -0.36580073630E+02  0.98989932081E+01  0.58658800211E+02  0.10000000000E+01 0.  1.
        -13    1    6    6    0    0  0.48090537686E+00 -0.61913232283E+00  0.84362774218E+00  0.11564288054E+01  0.10500000000E+00 0.  1.
         13    1    6    6    0    0  0.12277656781E+01 -0.13338208841E+01  0.19774946297E+01  0.26847712606E+01  0.10500000000E+00 0. -1.
</event>
<event>
11    0  0.3443539E-009  0.9118800E+02  0.7816531E-02  0.1126479E+00
         25   -1    0    0    0    0  0.00000000000E+00  0.00000000000E+00  0.99999998245E-14  0.12500000000E+03  0.12500000000E+03 0.  0.
    3000001    1    3    3    0    0 -0.27224878539E+02 -0.16564837016E+02 -0.17361457522E+02  0.36304380508E+02  0.10000000000E+01 0. -1.
    1000022    2    1    0    0    0 -0.46915328397E+02 -0.32977091259E+02 -0.22753323325E+02  0.62500002714E+02  0.10000001526E+02 0.  0.
    3000022    2    3    3    0    0 -0.19690449858E+02 -0.16412254243E+02 -0.53918658030E+01  0.26195622206E+02  0.25000196795E+00 0.  0.
    1000022    2    1    0    0    0  0.46915328397E+02  0.32977091259E+02  0.22753323325E+02  0.62499997286E+02  0.99999675957E+01 0.  0.
    3000022    2    5    5    0    0  0.40409222351E+02  0.25271329462E+02  0.21506861535E+02  0.52289128188E+02  0.24997942653E+00 0.  0.
        -13    1    4    4    0    0 -0.95009963992E+01 -0.80012118393E+01 -0.26381160363E+01  0.12698779654E+02  0.10500000000E+00 0. -1.
         13    1    4    4    0    0 -0.10189453459E+02 -0.84110424036E+01 -0.27537497667E+01  0.13496842552E+02  0.10500000000E+00 0.  1.
    3000001    1    5    5    0    0  0.65061060454E+01  0.77057617967E+01  0.12464617895E+01  0.10210869098E+02  0.10000000000E+01 0. -1.
        -13    1    6    6    0    0  0.27645792181E+02  0.17337161988E+02  0.14693809474E+02  0.35788071658E+02  0.10500000000E+00 0.  1.
         13    1    6    6    0    0  0.12763430170E+02  0.79341674746E+01  0.68130520611E+01  0.16501056530E+02  0.10500000000E+00 0. -1.
</event>
<event>
11    0  0.3443539E-009  0.9118800E+02  0.7816531E-02  0.1126479E+00
         25   -1    0    0    0    0  0.00000000000E+00  0.00000000000E+00  0.99999998245E-14  0.12500000000E+03  0.12500000000E+03 0.  0.
    3000001    1    3    3    0    0 -0.43614733125E+00  0.58940327482E+01  0.57038704460E+01  0.82742966225E+01  0.10000000000E+01 0. -1.
    1000022    2    1    0    0    0 -0.77210638816E+01  0.24195487043E+02  0.56224665567E+02  0.62499996050E+02  0.10000003373E+02 0.  0.
    3000022    2    3    3    0    0 -0.72849165503E+01  0.18301454294E+02  0.50520795121E+02  0.54225699428E+02  0.25000068958E+00 0.  0.
    1000022    2    1    0    0    0  0.77210638816E+01 -0.24195487043E+02 -0.56224665567E+02  0.62500003950E+02  0.10000052748E+02 0.  0.
    3000022    2    5    5    0    0  0.74944226408E+01 -0.78188660878E+01 -0.24291159318E+02  0.26597442739E+02  0.25000327455E+00 0.  0.
        -13    1    4    4    0    0 -0.20503522793E+01  0.52027847230E+01  0.14444182182E+02  0.15489297507E+02  0.10500000000E+00 0. -1.
         13    1    4    4    0    0 -0.52345642710E+01  0.13098669571E+02  0.36076612938E+02  0.38736401920E+02  0.10500000000E+00 0.  1.
    3000001    1    5    5    0    0  0.22664124079E+00 -0.16376620955E+02 -0.31933506248E+02  0.35902561210E+02  0.10000000000E+01 0.  1.
        -13    1    6    6    0    0  0.51983711152E+01 -0.54207046830E+01 -0.16725540586E+02  0.18334716643E+02  0.10500000000E+00 0. -1.
         13    1    6    6    0    0  0.22960515256E+01 -0.23981614048E+01 -0.75656187327E+01  0.82627260962E+01  0.10500000000E+00 0.  1.
</event>
<event>
11    0  0.3443539E-009  0.9118800E+02  0.7816531E-02  0.1126479E+00
         25   -1    0    0    0    0  0.00000000000E+00  0.00000000000E+00  0.99999998245E-14  0.12500000000E+03  0.12500000000E+03 0.  0.
    3000001    1    3    3    0    0  0.49222782861E+01  0.16298113564E+02  0.23444467363E+02  0.28991384569E+02  0.10000000000E+01 0.  1.
    1000022    2    1    0    0    0  0.19909956160E+02  0.36501711726E+02  0.45579257759E+02  0.62500000178E+02  0.99999985560E+01 0.  0.
    3000022    2    3    3    0    0  0.14987677874E+02  0.20203598162E+02  0.22134790396E+02  0.33508615609E+02  0.25001482315E+00 0.  0.
    1000022    2    1    0    0    0 -0.19909956160E+02 -0.36501711726E+02 -0.45579257759E+02  0.62499999822E+02  0.99999963372E+01 0.  0.
    3000022    2    5    5    0    0 -0.53407282454E+01 -0.53732016311E+01 -0.40838959951E+01  0.86101901118E+01  0.24998660404E+00 0.  0.
        -13    1    4    4    0    0  0.11290315084E+02  0.15245103583E+02  0.16716121735E+02  0.25284860071E+02  0.10500000000E+00 0.  1.
         13    1    4    4    0    0  0.36973627894E+01  0.49584945795E+01  0.54186686601E+01  0.82237555374E+01  0.10500000000E+00 0. -1.
    3000001    1    5    5    0    0 -0.14569227914E+02 -0.31128510095E+02 -0.41495361764E+02  0.53889809711E+02  0.10000000000E+01 0. -1.
        -13    1    6    6    0    0 -0.37478351854E+01 -0.37039609627E+01 -0.28417238631E+01  0.59876552092E+01  0.10500000000E+00 0. -1.
         13    1    6    6    0    0 -0.15928930600E+01 -0.16692406685E+01 -0.12421721320E+01  0.26225349026E+01  0.10500000000E+00 0.  1.
</event>
<event>
11    0  0.3443539E-009  0.9118800E+02  0.7816531E-02  0.1126479E+00
         25   -1    0    0    0    0  0.00000000000E+00  0.00000000000E+00  0.99999998245E-14  0.12500000000E+03  0.12500000000E+03 0.  0.
    3000001    1    3    3    0    0  0.26745476553E+00  0.34449371397E+02  0.40684924138E+02  0.53320669292E+02  0.10000000000E+01 0. -1.
    1000022    2    1    0    0    0 -0.29471688624E+01  0.38005914452E+02  0.48508914951E+02  0.62500001147E+02  0.99999987946E+01 0.  0.
    3000022    2    3    3    0    0 -0.32146236279E+01  0.35565430559E+01  0.78239908137E+01  0.91793318544E+01  0.24999492847E+00 0.  0.
    1000022    2    1    0    0    0  0.29471688624E+01 -0.38005914452E+02 -0.48508914951E+02  0.62499998853E+02  0.99999844620E+01 0.  0.
    3000022    2    5    5    0    0  0.24267939670E+01 -0.29804304882E+02 -0.43617691369E+02  0.52884321149E+02  0.25000913221E+00 0.  0.
        -13    1    4    4    0    0 -0.17212588926E+01  0.19953860676E+01  0.43497897868E+01  0.50868451838E+01  0.10500000000E+00 0.  1.
         13    1    4    4    0    0 -0.14933647352E+01  0.15611569882E+01  0.34742010268E+01  0.40924866706E+01  0.10500000000E+00 0. -1.
    3000001    1    5    5    0    0  0.52037489534E+00 -0.82016095708E+01 -0.48912235820E+01  0.96156777043E+01  0.10000000000E+01 0.  1.
        -13    1    6    6    0    0  0.15538071055E+01 -0.19336593304E+02 -0.28202127925E+02  0.34229945977E+02  0.10500000000E+00 0. -1.
         13    1    6    6    0    0  0.87298686154E+00 -0.10467711578E+02 -0.15415563445E+02  0.18654375172E+02  0.10500000000E+00 0.  1.
</event>
<event>
11    0  0.3443539E-009  0.9118800E+02  0.7816531E-02  0.1126479E+00
         25   -1    0    0    0    0  0.00000000000E+00  0.00000000000E+00  0.99999998245E-14  0.12500000000E+03  0.12500000000E+03 0.  0.
    3000001    1    3    3    0    0 -0.11314925880E+02 -0.78349000176E+01  0.10746401174E+02  0.17489949804E+02  0.10000000000E+01 0. -1.
    1000022    2    1    0    0    0 -0.37195822865E+02 -0.39979147599E+02  0.28712165863E+02  0.62500000329E+02  0.10000004563E+02 0.  0.
    3000022    2    3    3    0    0 -0.25880896985E+02 -0.32144247581E+02  0.17965764689E+02  0.45010050525E+02  0.24993219099E+00 0.  0.
    1000022    2    1    0    0    0  0.37195822865E+02  0.39979147599E+02 -0.28712165863E+02  0.62499999671E+02  0.10000000450E+02 0.  0.
    3000022    2    5    5    0    0  0.96273429217E+01  0.16252426431E+02 -0.12585672582E+02  0.22699972418E+02  0.24999367173E+00 0.  0.
        -13    1    4    4    0    0 -0.19380685550E+02 -0.24046464562E+02  0.13469488788E+02  0.33693939864E+02  0.10500000000E+00 0.  1.
         13    1    4    4    0    0 -0.65002114350E+01 -0.80977830189E+01  0.44962759011E+01  0.11316110661E+02  0.10500000000E+00 0. -1.
    3000001    1    5    5    0    0  0.27568479943E+02  0.23726721168E+02 -0.16126493281E+02  0.39800027253E+02  0.10000000000E+01 0.  1.
        -13    1    6    6    0    0  0.69532684123E+01  0.11659566818E+02 -0.90413273601E+01  0.16311041212E+02  0.10500000000E+00 0. -1.
         13    1    6    6    0    0  0.26740745094E+01  0.45928596129E+01 -0.35443452221E+01  0.63889312063E+01  0.10500000000E+00 0.  1.
</event>
<event>
11    0  0.3443539E-009  0.9118800E+02  0.7816531E-02  0.1126479E+00
         25   -1    0    0    0    0  0.00000000000E+00  0.00000000000E+00  0.99999998245E-14  0.12500000000E+03  0.12500000000E+03 0.  0.
    3000001    1    3    3    0    0 -0.11240470499E+01 -0.29043689417E+02 -0.14362767711E+02  0.32435913322E+02  0.10000000000E+01 0. -1.
    1000022    2    1    0    0    0 -0.11218694606E+02 -0.55382889116E+02 -0.24761377424E+02  0.62499993771E+02  0.99999946943E+01 0.  0.
    3000022    2    3    3    0    0 -0.10094647556E+02 -0.26339199699E+02 -0.10398609713E+02  0.30064080448E+02  0.24999835785E+00 0.  0.
    1000022    2    1    0    0    0  0.11218694606E+02  0.55382889116E+02  0.24761377424E+02  0.62500006229E+02  0.10000072561E+02 0.  0.
    3000022    2    5    5    0    0  0.59327955418E+01  0.96063385082E+01  0.47489876965E+01  0.12251334037E+02  0.24999814645E+00 0.  0.
        -13    1    4    4    0    0 -0.75356457337E+01 -0.19594904546E+02 -0.77573732104E+01  0.22381557250E+02  0.10500000000E+00 0. -1.
         13    1    4    4    0    0 -0.25590018225E+01 -0.67442951524E+01 -0.26412365030E+01  0.76825231985E+01  0.10500000000E+00 0.  1.
    3000001    1    5    5    0    0  0.52858990644E+01  0.45776550608E+02  0.20012389728E+02  0.50248672192E+02  0.10000000000E+01 0.  1.
        -13    1    6    6    0    0  0.23970503774E+01  0.40020757359E+01  0.19513326469E+01  0.50577845749E+01  0.10500000000E+00 0.  1.
         13    1    6    6    0    0  0.35357451644E+01  0.56042627723E+01  0.27976550496E+01  0.71935494622E+01  0.10500000000E+00 0. -1.
</event>
<event>
11    0  0.3443539E-009  0.9118800E+02  0.7816531E-02  0.1126479E+00
         25   -1    0    0    0    0  0.00000000000E+00  0.00000000000E+00  0.99999998245E-14  0.12500000000E+03  0.12500000000E+03 0.  0.
    3000001    1    3    3    0    0  0.28756613588E+02  0.42186965161E+02  0.24468173339E+02  0.56624856389E+02  0.10000000000E+01 0.  1.
    1000022    2    1    0    0    0  0.32570926859E+02  0.43914269454E+02  0.28581839916E+02  0.62500000820E+02  0.10000009564E+02 0.  0.
    3000022    2    3    3    0    0  0.38143132715E+01  0.17273042935E+01  0.41136665770E+01  0.58751444306E+01  0.25000703583E+00 0.  0.
    1000022    2    1    0    0    0 -0.32570926859E+02 -0.43914269454E+02 -0.28581839916E+02  0.62499999180E+02  0.99999993160E+01 0.  0.
    3000022    2    5    5    0    0 -0.19176215054E+02 -0.31463809980E+02 -0.15408935726E+02  0.39939909413E+02  0.25000299960E+00 0.  0.
        -13    1    4    4    0    0  0.17979576579E+01  0.74713771964E+00  0.19518007680E+01  0.27588797998E+01  0.10500000000E+00 0.  1.
         13    1    4    4    0    0  0.20163556136E+01  0.98016657387E+00  0.21618658090E+01  0.31162646308E+01  0.10500000000E+00 0. -1.
    3000001    1    5    5    0    0 -0.13394711806E+02 -0.12450459475E+02 -0.13172904190E+02  0.22560089767E+02  0.10000000000E+01 0. -1.
        -13    1    6    6    0    0 -0.76303967437E+01 -0.12404707048E+02 -0.60706615618E+01  0.15778582579E+02  0.10500000000E+00 0. -1.
         13    1    6    6    0    0 -0.11545818310E+02 -0.19059102932E+02 -0.93382741646E+01  0.24161326834E+02  0.10500000000E+00 0.  1.
</event>
<event>
11    0  0.3443539E-009  0.9118800E+02  0.7816531E-02  0.1126479E+00
         25   -1    0    0    0    0  0.00000000000E+00  0.00000000000E+00  0.99999998245E-14  0.12500000000E+03  0.12500000000E+03 0.  0.
    3000001    1    3    3    0    0 -0.16266976554E+02 -0.91146729328E+01 -0.47120455062E+02  0.50685590400E+02  0.10000000000E+01 0. -1.
    1000022    2    1    0    0    0 -0.23822474494E+02 -0.89702467940E+01 -0.56198526324E+02  0.62500000505E+02  0.10000004180E+02 0.  0.
    3000022    2    3    3    0    0 -0.75554979402E+01  0.14442613877E+00 -0.90780712617E+01  0.11814410106E+02  0.25000055874E+00 0.  0.
    1000022    2    1    0    0    0  0.23822474494E+02  0.89702467940E+01  0.56198526324E+02  0.62499999495E+02  0.99999978643E+01 0.  0.
    3000022    2    5    5    0    0  0.47459510530E+01  0.30994599659E+01  0.23523276660E+02  0.24197886952E+02  0.24996934897E+00 0.  0.
        -13    1    4    4    0    0 -0.43116586546E+01  0.18858201327E-01 -0.51536120210E+01  0.67202304907E+01  0.10500000000E+00 0. -1.
         13    1    4    4    0    0 -0.32438392856E+01  0.12556793744E+00 -0.39244592407E+01  0.50941796150E+01  0.10500000000E+00 0.  1.
    3000001    1    5    5    0    0  0.19076523441E+02  0.58707868281E+01  0.32675249664E+02  0.38302112542E+02  0.10000000000E+01 0. -1.
        -13    1    6    6    0    0  0.21148518447E+01  0.13286780334E+01  0.10154995005E+02  0.10458151471E+02  0.10500000000E+00 0.  1.
         13    1    6    6    0    0  0.26310992083E+01  0.17707819324E+01  0.13368281655E+02  0.13739735481E+02  0.10500000000E+00 0. -1.
</event>
<event>
11    0  0.3443539E-009  0.9118800E+02  0.7816531E-02  0.1126479E+00
         25   -1    0    0    0    0  0.00000000000E+00  0.00000000000E+00  0.99999998245E-14  0.12500000000E+03  0.12500000000E+03 0.  0.
    3000001    1    3    3    0    0  0.69372155647E+01  0.31670020286E+00  0.21598937212E+01  0.73410080845E+01  0.10000000000E+01 0. -1.
    1000022    2    1    0    0    0  0.60480986422E+02  0.10176179584E+02 -0.66892309051E+01  0.62499998588E+02  0.99999831985E+01 0.  0.
    3000022    2    3    3    0    0  0.53543770857E+02  0.98594793815E+01 -0.88491246263E+01  0.55158990504E+02  0.24999098781E+00 0.  0.
    1000022    2    1    0    0    0 -0.60480986422E+02 -0.10176179584E+02  0.66892309051E+01  0.62500001412E+02  0.10000000845E+02 0.  0.
    3000022    2    5    5    0    0 -0.34026733350E+02 -0.16802441960E+01  0.65694505006E+01  0.34696714357E+02  0.25000853511E+00 0.  0.
        -13    1    4    4    0    0  0.15296425727E+02  0.28386600870E+01 -0.24927166433E+01  0.15756373072E+02  0.10500000000E+00 0. -1.
         13    1    4    4    0    0  0.38247345129E+02  0.70208192945E+01 -0.63564079831E+01  0.39402617432E+02  0.10500000000E+00 0.  1.
    3000001    1    5    5    0    0 -0.26454253071E+02 -0.84959353884E+01  0.11978040455E+00  0.27803287054E+02  0.10000000000E+01 0. -1.
        -13    1    6    6    0    0 -0.14774143929E+02 -0.66757888132E+00  0.28745814831E+01  0.15066361011E+02  0.10500000000E+00 0.  1.
         13    1    6    6    0    0 -0.19252589421E+02 -0.10126653147E+01  0.36948690174E+01  0.19630353347E+02  0.10500000000E+00 0. -1.
</event>
<event>
11    0  0.3443539E-009  0.9118800E+02  0.7816531E-02  0.1126479E+00
         25   -1    0    0    0    0  0.00000000000E+00  0.00000000000E+00  0.99999998245E-14  0.12500000000E+03  0.12500000000E+03 0.  0.
    3000001    1    3    3    0    0 -0.26249767963E+02  0.67822175380E+01 -0.85874688107E+01  0.28456869354E+02  0.10000000000E+01 0. -1.
    1000022    2    1    0    0    0 -0.58446562929E+02  0.41243772671E+01 -0.19319391163E+02  0.62499994629E+02  0.99999623844E+01 0.  0.
    3000022    2    3    3    0    0 -0.32196794966E+02 -0.26578402709E+01 -0.10731922353E+02  0.34043125275E+02  0.25000030896E+00 0.  0.
    1000022    2    1    0    0    0  0.58446562929E+02 -0.41243772671E+01  0.19319391163E+02  0.62500005371E+02  0.10000029520E+02 0.  0.
    3000022    2    5    5    0    0  0.56175484125E+02 -0.53427348365E+01  0.17126033487E+02  0.58971122829E+02  0.24994487824E+00 0.  0.
        -13    1    4    4    0    0 -0.18225894514E+02 -0.14700741055E+01 -0.61332386304E+01  0.19286575378E+02  0.10500000000E+00 0. -1.
         13    1    4    4    0    0 -0.13970900452E+02 -0.11877661654E+01 -0.45986837223E+01  0.14756549898E+02  0.10500000000E+00 0.  1.
    3000001    1    5    5    0    0  0.22710788035E+01  0.12183575694E+01  0.21933576767E+01  0.35288825422E+01  0.10000000000E+01 0. -1.
        -13    1    6    6    0    0  0.20036826131E+02 -0.19633405753E+01  0.61062697150E+01  0.21038694409E+02  0.10500000000E+00 0.  1.
         13    1    6    6    0    0  0.36138657994E+02 -0.33793942612E+01  0.11019763772E+02  0.37932428419E+02  0.10500000000E+00 0. -1.
</event>
<event>
11    0  0.3443539E-009  0.9118800E+02  0.7816531E-02  0.1126479E+00
         25   -1    0    0    0    0  0.00000000000E+00  0.00000000000E+00  0.99999998245E-14  0.12500000000E+03  0.12500000000E+03 0.  0.
    3000001    1    3    3    0    0 -0.11578562667E+02  0.52808917587E+01 -0.43660604403E+01  0.13491234746E+02  0.10000000000E+01 0. -1.
    1000022    2    1    0    0    0 -0.42238047505E+02  0.29304771739E+02 -0.34109054156E+02  0.62499999211E+02  0.10000001113E+02 0.  0.
    3000022    2    3    3    0    0 -0.30659484838E+02  0.24023879980E+02 -0.29742993716E+02  0.49008764465E+02  0.24999879503E+00 0.  0.
    1000022    2    1    0    0    0  0.42238047505E+02 -0.29304771739E+02  0.34109054156E+02  0.62500000789E+02  0.10000010975E+02 0.  0.
    3000022    2    5    5    0    0  0.41074724467E+02 -0.29802318963E+02  0.32829037278E+02  0.60441040630E+02  0.24999643154E+00 0.  0.
        -13    1    4    4    0    0 -0.14022915962E+02  0.10955825287E+02 -0.13510647513E+02  0.22343251800E+02  0.10500000000E+00 0.  1.
         13    1    4    4    0    0 -0.16636568876E+02  0.13068054693E+02 -0.16232346203E+02  0.26665512665E+02  0.10500000000E+00 0. -1.
    3000001    1    5    5    0    0  0.11633230379E+01  0.49754722334E+00  0.12800168779E+01  0.20589601593E+01  0.10000000000E+01 0. -1.
        -13    1    6    6    0    0  0.14257471765E+02 -0.10337598178E+02  0.11326374537E+02  0.20938940336E+02  0.10500000000E+00 0.  1.
         13    1    6    6    0    0  0.26817252702E+02 -0.19464720784E+02  0.21502662741E+02  0.39502100294E+02  0.10500000000E+00 0. -1.
</event>
<event>
11    0  0.3443539E-009  0.9118800E+02  0.7816531E-02  0.1126479E+00
         25   -1    0    0    0    0  0.00000000000E+00  0.00000000000E+00  0.99999998245E-14  0.12500000000E+03  0.12500000000E+03 0.  0.
    3000001    1    3    3    0    0 -0.34857289499E+02 -0.89536228775E+00 -0.44166785746E+02  0.56280878351E+02  0.10000000000E+01 0. -1.
    1000022    2    1    0    0    0 -0.36690707683E+02  0.15564666432E+01 -0.49574380745E+02  0.62499999810E+02  0.10000006567E+02 0.  0.
    3000022    2    3    3    0    0 -0.18334181847E+01  0.24518289310E+01 -0.54075949991E+01  0.62191214596E+01  0.25000141661E+00 0.  0.
    1000022    2    1    0    0    0  0.36690707683E+02 -0.15564666432E+01  0.49574380745E+02  0.62500000190E+02  0.10000008938E+02 0.  0.
    3000022    2    5    5    0    0  0.26193591667E+02 -0.45732529897E+01  0.39441349967E+02  0.47567861787E+02  0.25000098094E+00 0.  0.
        -13    1    4    4    0    0 -0.10140495357E+01  0.14640337970E+01 -0.31472721225E+01  0.36177393816E+01  0.10500000000E+00 0. -1.
         13    1    4    4    0    0 -0.81936864897E+00  0.98779513400E+00 -0.22603228766E+01  0.26013820781E+01  0.10500000000E+00 0.  1.
    3000001    1    5    5    0    0  0.10497116016E+02  0.30167863465E+01  0.10133030778E+02  0.14932138402E+02  0.10000000000E+01 0.  1.
        -13    1    6    6    0    0  0.98668195820E+01 -0.17740818732E+01  0.14929750126E+02  0.17983602503E+02  0.10500000000E+00 0. -1.
         13    1    6    6    0    0  0.16326772085E+02 -0.27991711166E+01  0.24511599841E+02  0.29584259285E+02  0.10500000000E+00 0.  1.
</event>
<event>
11    0  0.3443539E-009  0.9118800E+02  0.7816531E-02  0.1126479E+00
         25   -1    0    0    0    0  0.00000000000E+00  0.00000000000E+00  0.99999998245E-14  0.12500000000E+03  0.12500000000E+03 0.  0.
    3000001    1    3    3    0    0  0.74350282031E+01 -0.10828850957E+02  0.31603781296E+01  0.13547385259E+02  0.10000000000E+01 0. -1.
    1000022    2    1    0    0    0  0.46396477507E+02 -0.40446531154E+02  0.42065566967E+01  0.62500000167E+02  0.99999947064E+01 0.  0.
    3000022    2    3    3    0    0  0.38961449304E+02 -0.29617680197E+02  0.10461785671E+01  0.48952614907E+02  0.25000917657E+00 0.  0.
    1000022    2    1    0    0    0 -0.46396477507E+02  0.40446531154E+02 -0.42065566967E+01  0.62499999833E+02  0.99999926250E+01 0.  0.
    3000022    2    5    5    0    0 -0.42348788326E+02  0.38108489627E+02 -0.14666783364E+01  0.56990266690E+02  0.24999535617E+00 0.  0.
        -13    1    4    4    0    0  0.13082028861E+02 -0.98917533481E+01  0.31702723003E+00  0.16404200519E+02  0.10500000000E+00 0.  1.
         13    1    4    4    0    0  0.25879420443E+02 -0.19725926849E+02  0.72915133707E+00  0.32548414388E+02  0.10500000000E+00 0. -1.
    3000001    1    5    5    0    0 -0.40476891812E+01  0.23380415269E+01 -0.27398783602E+01  0.55097331440E+01  0.10000000000E+01 0. -1.
        -13    1    6    6    0    0 -0.11192021640E+02  0.10048767937E+02 -0.41616391272E+00  0.15047368635E+02  0.10500000000E+00 0. -1.
         13    1    6    6    0    0 -0.31156766685E+02  0.28059721690E+02 -0.10505144237E+01  0.41942898054E+02  0.10500000000E+00 0.  1.
</event>
<event>
11    0  0.3443539E-009  0.9118800E+02  0.7816531E-02  0.1126479E+00
         25   -1    0    0    0    0  0.00000000000E+00  0.00000000000E+00  0.99999998245E-14  0.12500000000E+03  0.12500000000E+03 0.  0.
    3000001    1    3    3    0    0 -0.35494959624E+02 -0.96394778840E+01 -0.13736028230E+02  0.39274548554E+02  0.10000000000E+01 0.  1.
    1000022    2    1    0    0    0 -0.54644636411E+02 -0.21904189058E+02 -0.18450470180E+02  0.62500002783E+02  0.10000035564E+02 0.  0.
    3000022    2    3    3    0    0 -0.19149676787E+02 -0.12264711174E+02 -0.47144419507E+01  0.23225454229E+02  0.25000007025E+00 0.  0.
    1000022    2    1    0    0    0  0.54644636411E+02  0.21904189058E+02  0.18450470180E+02  0.62499997217E+02  0.10000000772E+02 0.  0.
    3000022    2    5    5    0    0  0.21406170539E+02  0.59004588203E+01  0.26785600190E+01  0.22366866948E+02  0.25000370694E+00 0.  0.
        -13    1    4    4    0    0 -0.12862720159E+02 -0.82364221379E+01 -0.32199924574E+01  0.15609855731E+02  0.10500000000E+00 0. -1.
         13    1    4    4    0    0 -0.62869566277E+01 -0.40282890357E+01 -0.14944494933E+01  0.76155984979E+01  0.10500000000E+00 0.  1.
    3000001    1    5    5    0    0  0.33238465872E+02  0.16003730237E+02  0.15771910161E+02  0.40133130269E+02  0.10000000000E+01 0. -1.
        -13    1    6    6    0    0  0.13635898151E+02  0.37314732042E+01  0.16525537685E+01  0.14233888071E+02  0.10500000000E+00 0.  1.
         13    1    6    6    0    0  0.77702723873E+01  0.21689856161E+01  0.10260062506E+01  0.81329788763E+01  0.10500000000E+00 0. -1.
</event>
<event>
11    0  0.3443539E-009  0.9118800E+02  0.7816531E-02  0.1126479E+00
         25   -1    0    0    0    0  0.00000000000E+00  0.00000000000E+00  0.99999998245E-14  0.12500000000E+03  0.12500000000E+03 0.  0.
    3000001    1    3    3    0    0  0.86745589953E+01 -0.52404023845E+02  0.19954087066E+02  0.56750288806E+02  0.10000000000E+01 0.  1.
    1000022    2    1    0    0    0  0.84412527390E+01 -0.56031640417E+02  0.24401854408E+02  0.62499999030E+02  0.99999952308E+01 0.  0.
    3000022    2    3    3    0    0 -0.23330625628E+00 -0.36276165716E+01  0.44477673419E+01  0.57497102241E+01  0.24999906720E+00 0.  0.
    1000022    2    1    0    0    0 -0.84412527390E+01  0.56031640417E+02 -0.24401854408E+02  0.62500000970E+02  0.10000007355E+02 0.  0.
    3000022    2    5    5    0    0 -0.34003279078E+01  0.45980861942E+02 -0.17806487527E+02  0.49426059889E+02  0.25000647409E+00 0.  0.
        -13    1    4    4    0    0 -0.18130663900E+00 -0.25932570257E+01  0.32375317111E+01  0.41533710019E+01  0.10500000000E+00 0.  1.
         13    1    4    4    0    0 -0.51999617278E-01 -0.10343595459E+01  0.12102356308E+01  0.15963392222E+01  0.10500000000E+00 0. -1.
    3000001    1    5    5    0    0 -0.50409248312E+01  0.10050778474E+02 -0.65953668817E+01  0.13073941081E+02  0.10000000000E+01 0. -1.
        -13    1    6    6    0    0 -0.15134753386E+01  0.20710629379E+02 -0.79510626580E+01  0.22236258662E+02  0.10500000000E+00 0. -1.
         13    1    6    6    0    0 -0.18868525692E+01  0.25270232563E+02 -0.98554248685E+01  0.27189801227E+02  0.10500000000E+00 0.  1.
</event>
<event>
11    0  0.3443539E-009  0.9118800E+02  0.7816531E-02  0.1126479E+00
         25   -1    0    0    0    0  0.00000000000E+00  0.00000000000E+00  0.99999998245E-14  0.12500000000E+03  0.12500000000E+03 0.  0.
    3000001    1    3    3    0    0  0.39504370713E+00  0.52810760828E+01  0.13876052915E+02  0.14885921827E+02  0.10000000000E+01 0. -1.
    1000022    2    1    0    0    0 -0.14460760344E+02  0.15372152369E+02  0.57972690902E+02  0.62500002922E+02  0.10000040830E+02 0.  0.
    3000022    2    3    3    0    0 -0.14855804051E+02  0.10091076286E+02  0.44096637987E+02  0.47614081095E+02  0.25000434387E+00 0.  0.
    1000022    2    1    0    0    0  0.14460760344E+02 -0.15372152369E+02 -0.57972690902E+02  0.62499997078E+02  0.10000004308E+02 0.  0.
    3000022    2    5    5    0    0  0.14830840261E+02 -0.14707363738E+02 -0.57466925327E+02  0.61145485400E+02  0.25001458923E+00 0.  0.
        -13    1    4    4    0    0 -0.62690420243E+01  0.42138189826E+01  0.18406187145E+02  0.19896127979E+02  0.10500000000E+00 0. -1.
         13    1    4    4    0    0 -0.85867620264E+01  0.58772573036E+01  0.25690450842E+02  0.27717953116E+02  0.10500000000E+00 0.  1.
    3000001    1    5    5    0    0 -0.37007991762E+00 -0.66478863109E+00 -0.50576557547E+00  0.13545116784E+01  0.10000000000E+01 0.  1.
        -13    1    6    6    0    0  0.81615678421E+01 -0.80234961014E+01 -0.31618636107E+02  0.33626430878E+02  0.10500000000E+00 0.  1.
         13    1    6    6    0    0  0.66692724191E+01 -0.66838676365E+01 -0.25848289220E+02  0.27519054522E+02  0.10500000000E+00 0. -1.
</event>
<event>
11    0  0.3443539E-009  0.9118800E+02  0.7816531E-02  0.1126479E+00
         25   -1    0    0    0    0  0.00000000000E+00  0.00000000000E+00  0.99999998245E-14  0.12500000000E+03  0.12500000000E+03 0.  0.
    3000001    1    3    3    0    0 -0.47027127308E+01  0.19473875788E+02 -0.44024409781E+01  0.20536037393E+02  0.10000000000E+01 0. -1.
    1000022    2    1    0    0    0 -0.17573413316E+02  0.59138339461E+02  0.28660298947E+00  0.62500000522E+02  0.99999937061E+01 0.  0.
    3000022    2    3    3    0    0 -0.12870700586E+02  0.39664463673E+02  0.46890439675E+01  0.41963963129E+02  0.24991219241E+00 0.  0.
    1000022    2    1    0    0    0  0.17573413316E+02 -0.59138339461E+02 -0.28660298947E+00  0.62499999478E+02  0.99999871828E+01 0.  0.
    3000022    2    5    5    0    0  0.14563700162E+02 -0.53206834723E+02  0.24959244267E+01  0.55221017368E+02  0.24999359437E+00 0.  0.
        -13    1    4    4    0    0 -0.93933726369E+01  0.29059613462E+02  0.34398893678E+01  0.30733376774E+02  0.10500000000E+00 0. -1.
         13    1    4    4    0    0 -0.34773279487E+01  0.10604850212E+02  0.12491545997E+01  0.11230586355E+02  0.10500000000E+00 0.  1.
    3000001    1    5    5    0    0  0.30097131546E+01 -0.59315047384E+01 -0.27825274162E+01  0.72789821099E+01  0.10000000000E+01 0. -1.
        -13    1    6    6    0    0  0.72744936668E+01 -0.26320366712E+02  0.12306635799E+01  0.27335060268E+02  0.10500000000E+00 0.  1.
         13    1    6    6    0    0  0.72892064950E+01 -0.26886468011E+02  0.12652608468E+01  0.27885957101E+02  0.10500000000E+00 0. -1.
</event>
<event>
11    0  0.3443539E-009  0.9118800E+02  0.7816531E-02  0.1126479E+00
         25   -1    0    0    0    0  0.00000000000E+00  0.00000000000E+00  0.99999998245E-14  0.12500000000E+03  0.12500000000E+03 0.  0.
    3000001    1    3    3    0    0 -0.52791133379E+01  0.86394088196E+01 -0.23615055975E+01  0.10444382752E+02  0.10000000000E+01 0.  1.
    1000022    2    1    0    0    0 -0.30110770841E+02  0.53337831961E+02  0.73937281236E+01  0.62500000401E+02  0.99999997847E+01 0.  0.
    3000022    2    3    3    0    0 -0.24831657503E+02  0.44698423141E+02  0.97552337211E+01  0.52055617649E+02  0.24999646471E+00 0.  0.
    1000022    2    1    0    0    0  0.30110770841E+02 -0.53337831961E+02 -0.73937281236E+01  0.62499999599E+02  0.99999947670E+01 0.  0.
    3000022    2    5    5    0    0  0.17564410207E+02 -0.21182886816E+02 -0.38860430925E+01  0.27791851900E+02  0.25000261574E+00 0.  0.
        -13    1    4    4    0    0 -0.16456342892E+02  0.29693918279E+02  0.65189763967E+01  0.34569467488E+02  0.10500000000E+00 0. -1.
         13    1    4    4    0    0 -0.83753146117E+01  0.15004504862E+02  0.32362573243E+01  0.17486150162E+02  0.10500000000E+00 0.  1.
    3000001    1    5    5    0    0  0.12546360634E+02 -0.32154945144E+02 -0.35076850310E+01  0.34708147699E+02  0.10000000000E+01 0. -1.
        -13    1    6    6    0    0  0.84715529626E+01 -0.10316031201E+02 -0.19092818862E+01  0.13484957978E+02  0.10500000000E+00 0.  1.
         13    1    6    6    0    0  0.90928572447E+01 -0.10866855615E+02 -0.19767612064E+01  0.14306893922E+02  0.10500000000E+00 0. -1.
</event>
<event>
11    0  0.3443539E-009  0.9118800E+02  0.7816531E-02  0.1126479E+00
         25   -1    0    0    0    0  0.00000000000E+00  0.00000000000E+00  0.99999998245E-14  0.12500000000E+03  0.12500000000E+03 0.  0.
    3000001    1    3    3    0    0  0.37910427282E+01  0.18336320931E+01  0.19012936856E+01  0.47274865731E+01  0.10000000000E+01 0.  1.
    1000022    2    1    0    0    0  0.48395552127E+02 -0.56800511927E+01  0.37839891472E+02  0.62499997607E+02  0.99999933491E+01 0.  0.
    3000022    2    3    3    0    0  0.44604509399E+02 -0.75136832858E+01  0.35938597787E+02  0.57772511034E+02  0.25005006980E+00 0.  0.
    1000022    2    1    0    0    0 -0.48395552127E+02  0.56800511927E+01 -0.37839891472E+02  0.62500002393E+02  0.10000023261E+02 0.  0.
    3000022    2    5    5    0    0 -0.54940197859E+01  0.33805494817E+01 -0.27409881552E+01  0.70134076207E+01  0.25000436246E+00 0.  0.
        -13    1    4    4    0    0  0.27148537406E+02 -0.45419937881E+01  0.21938837918E+02  0.35199381033E+02  0.10500000000E+00 0.  1.
         13    1    4    4    0    0  0.17455971993E+02 -0.29716894977E+01  0.13999759868E+02  0.22573130001E+02  0.10500000000E+00 0. -1.
    3000001    1    5    5    0    0 -0.42901532342E+02  0.22995017110E+01 -0.35098903317E+02  0.55486594772E+02  0.10000000000E+01 0. -1.
        -13    1    6    6    0    0 -0.31829878994E+01  0.19021973160E+01 -0.16231145998E+01  0.40491100999E+01  0.10500000000E+00 0. -1.
         13    1    6    6    0    0 -0.23110318864E+01  0.14783521657E+01 -0.11178735554E+01  0.29642975208E+01  0.10500000000E+00 0.  1.
</event>
<event>
11    0  0.3443539E-009  0.9118800E+02  0.7816531E-02  0.1126479E+00
         25   -1    0    0    0    0  0.00000000000E+00  0.00000000000E+00  0.99999998245E-14  0.12500000000E+03  0.12500000000E+03 0.  0.
    3000001    1    3    3    0    0  0.12713993768E+02  0.10909272500E+02  0.22855663164E+02  0.28355585036E+02  0.10000000000E+01 0.  1.
    1000022    2    1    0    0    0  0.18389321421E+02  0.28942167379E+02  0.51287755217E+02  0.62499998969E+02  0.99999920525E+01 0.  0.
    3000022    2    3    3    0    0  0.56753276524E+01  0.18032894879E+02  0.28432092053E+02  0.34144413934E+02  0.25000542903E+00 0.  0.
    1000022    2    1    0    0    0 -0.18389321421E+02 -0.28942167379E+02 -0.51287755217E+02  0.62500001031E+02  0.10000004938E+02 0.  0.
    3000022    2    5    5    0    0 -0.75832404605E+01 -0.12840647296E+02 -0.31090427185E+02  0.34482820688E+02  0.25000246926E+00 0.  0.
        -13    1    4    4    0    0  0.17508979240E+01  0.55568901944E+01  0.88498703171E+01  0.10596032361E+02  0.10500000000E+00 0.  1.
         13    1    4    4    0    0  0.39244297284E+01  0.12476004684E+02  0.19582221735E+02  0.23548381572E+02  0.10500000000E+00 0. -1.
    3000001    1    5    5    0    0 -0.10806080960E+02 -0.16101520083E+02 -0.20197328032E+02  0.28017180342E+02  0.10000000000E+01 0. -1.
        -13    1    6    6    0    0 -0.43491325046E+01 -0.72365999814E+01 -0.17577169504E+02  0.19500031938E+02  0.10500000000E+00 0.  1.
         13    1    6    6    0    0 -0.32341079559E+01 -0.56040473147E+01 -0.13513257681E+02  0.14982788750E+02  0.10500000000E+00 0. -1.
</event>
<event>
11    0  0.3443539E-009  0.9118800E+02  0.7816531E-02  0.1126479E+00
         25   -1    0    0    0    0  0.00000000000E+00  0.00000000000E+00  0.99999998245E-14  0.12500000000E+03  0.12500000000E+03 0.  0.
    3000001    1    3    3    0    0 -0.22889480252E+02  0.26045013872E+02  0.28255848320E+02  0.44739959970E+02  0.10000000000E+01 0. -1.
    1000022    2    1    0    0    0 -0.36691558612E+02  0.33359439313E+02  0.36703233133E+02  0.62499999315E+02  0.99999963619E+01 0.  0.
    3000022    2    3    3    0    0 -0.13802078361E+02  0.73144254405E+01  0.84473848132E+01  0.17760039345E+02  0.25000151884E+00 0.  0.
    1000022    2    1    0    0    0  0.36691558612E+02 -0.33359439313E+02 -0.36703233133E+02  0.62500000685E+02  0.10000004930E+02 0.  0.
    3000022    2    5    5    0    0  0.35558244342E+01 -0.64053017584E+01 -0.24182249769E+01  0.77189437854E+01  0.25000619940E+00 0.  0.
        -13    1    4    4    0    0 -0.81995745614E+01  0.43641899033E+01  0.50927507788E+01  0.10593692085E+02  0.10500000000E+00 0.  1.
         13    1    4    4    0    0 -0.56025037991E+01  0.29502355372E+01  0.33546340343E+01  0.71663472598E+01  0.10500000000E+00 0. -1.
    3000001    1    5    5    0    0  0.33135734178E+02 -0.26954137554E+02 -0.34285008156E+02  0.54781056900E+02  0.10000000000E+01 0. -1.
        -13    1    6    6    0    0  0.16885927027E+01 -0.29554774027E+01 -0.10681594034E+01  0.35690589102E+01  0.10500000000E+00 0. -1.
         13    1    6    6    0    0  0.18672317315E+01 -0.34498243557E+01 -0.13500655735E+01  0.41498848752E+01  0.10500000000E+00 0.  1.
</event>
<event>
11    0  0.3443539E-009  0.9118800E+02  0.7816531E-02  0.1126479E+00
         25   -1    0    0    0    0  0.00000000000E+00  0.00000000000E+00  0.99999998245E-14  0.12500000000E+03  0.12500000000E+03 0.  0.
    3000001    1    3    3    0    0 -0.26353056099E+02 -0.44002332905E+01  0.88935238125E+01  0.28176947751E+02  0.10000000000E+01 0. -1.
    1000022    2    1    0    0    0 -0.59292731694E+02  0.77517647560E+00  0.17030005396E+02  0.62500000157E+02  0.10000000280E+02 0.  0.
    3000022    2    3    3    0    0 -0.32939675595E+02  0.51754097661E+01  0.81364815835E+01  0.34323052406E+02  0.24999876918E+00 0.  0.
    1000022    2    1    0    0    0  0.59292731694E+02 -0.77517647560E+00 -0.17030005396E+02  0.62499999843E+02  0.99999983114E+01 0.  0.
    3000022    2    5    5    0    0  0.39379649644E+02  0.34774891113E+01 -0.87152320363E+01  0.40482927890E+02  0.24988903853E+00 0.  0.
        -13    1    4    4    0    0 -0.12578319275E+02  0.19199168022E+01  0.30792045926E+01  0.13091704329E+02  0.10500000000E+00 0. -1.
         13    1    4    4    0    0 -0.20361356320E+02  0.32554929638E+01  0.50572769909E+01  0.21231348078E+02  0.10500000000E+00 0.  1.
    3000001    1    5    5    0    0  0.19913082050E+02 -0.42526655869E+01 -0.83147733597E+01  0.22017071952E+02  0.10000000000E+01 0. -1.
        -13    1    6    6    0    0  0.29790484378E+02  0.26271622554E+01 -0.65707624324E+01  0.30619616015E+02  0.10500000000E+00 0.  1.
         13    1    6    6    0    0  0.95891652657E+01  0.85032685595E+00 -0.21444696040E+01  0.98633118747E+01  0.10500000000E+00 0. -1.
</event>
<event>
11    0  0.3443539E-009  0.9118800E+02  0.7816531E-02  0.1126479E+00
         25   -1    0    0    0    0  0.00000000000E+00  0.00000000000E+00  0.99999998245E-14  0.12500000000E+03  0.12500000000E+03 0.  0.
    3000001    1    3    3    0    0 -0.10486076069E+02 -0.26183195930E+02  0.63049571749E+01  0.28918333724E+02  0.10000000000E+01 0.  1.
    1000022    2    1    0    0    0 -0.29074976035E+02 -0.54137423828E+02  0.54803903674E+01  0.62500002382E+02  0.10000036449E+02 0.  0.
    3000022    2    3    3    0    0 -0.18588899965E+02 -0.27954227898E+02 -0.82456680751E+00  0.33581668657E+02  0.25000014483E+00 0.  0.
    1000022    2    1    0    0    0  0.29074976035E+02  0.54137423828E+02 -0.54803903674E+01  0.62499997618E+02  0.10000006678E+02 0.  0.
    3000022    2    5    5    0    0  0.20523981298E+02  0.31591286563E+02 -0.69990650410E+01  0.38318306418E+02  0.25000048091E+00 0.  0.
        -13    1    4    4    0    0 -0.91909042394E+01 -0.13772700431E+02 -0.34446684096E+00  0.16561693159E+02  0.10500000000E+00 0. -1.
         13    1    4    4    0    0 -0.93979957259E+01 -0.14181527468E+02 -0.48009996655E+00  0.17019975498E+02  0.10500000000E+00 0.  1.
    3000001    1    5    5    0    0  0.85509947362E+01  0.22546137265E+02  0.15186746737E+01  0.24181691200E+02  0.10000000000E+01 0.  1.
        -13    1    6    6    0    0  0.13581539396E+02  0.20985523233E+02 -0.46116218442E+01  0.25419057393E+02  0.10500000000E+00 0.  1.
         13    1    6    6    0    0  0.69424419023E+01  0.10605763330E+02 -0.23874431969E+01  0.12899249025E+02  0.10500000000E+00 0. -1.
</event>
<event>
11    0  0.3443539E-009  0.9118800E+02  0.7816531E-02  0.1126479E+00
         25   -1    0    0    0    0  0.00000000000E+00  0.00000000000E+00  0.99999998245E-14  0.12500000000E+03  0.12500000000E+03 0.  0.
    3000001    1    3    3    0    0  0.17601713194E+02  0.58558425732E+01  0.86328867440E+00  0.18597216645E+02  0.10000000000E+01 0. -1.
    1000022    2    1    0    0    0  0.52697587729E+02  0.31929976499E+02 -0.31130126807E+01  0.62499999521E+02  0.99999970246E+01 0.  0.
    3000022    2    3    3    0    0  0.35095874535E+02  0.26074133926E+02 -0.39763013551E+01  0.43902782876E+02  0.25000487411E+00 0.  0.
    1000022    2    1    0    0    0 -0.52697587729E+02 -0.31929976499E+02  0.31130126807E+01  0.62500000479E+02  0.10000003010E+02 0.  0.
    3000022    2    5    5    0    0 -0.52394615092E+02 -0.31807249921E+02  0.34615286949E+01  0.61391705552E+02  0.24998314821E+00 0.  0.
        -13    1    4    4    0    0  0.24736794420E+02  0.18423648392E+02 -0.28300311921E+01  0.30973535798E+02  0.10500000000E+00 0. -1.
         13    1    4    4    0    0  0.10359080115E+02  0.76504855336E+01 -0.11462701630E+01  0.12929247079E+02  0.10500000000E+00 0.  1.
    3000001    1    5    5    0    0 -0.30297263735E+00 -0.12272657806E+00 -0.34851601413E+00  0.11082949265E+01  0.10000000000E+01 0.  1.
        -13    1    6    6    0    0 -0.16939009771E+02 -0.10242100870E+02  0.11554619164E+01  0.19828686278E+02  0.10500000000E+00 0.  1.
         13    1    6    6    0    0 -0.35455605321E+02 -0.21565149050E+02  0.23060667785E+01  0.41563019275E+02  0.10500000000E+00 0. -1.
</event>
<event>
11    0  0.3443539E-009  0.9118800E+02  0.7816531E-02  0.1126479E+00
         25   -1    0    0    0    0  0.00000000000E+00  0.00000000000E+00  0.99999998245E-14  0.12500000000E+03  0.12500000000E+03 0.  0.
    3000001    1    3    3    0    0  0.27857543281E+02  0.52089141347E+02  0.74797726426E+01  0.59550553000E+02  0.10000000000E+01 0. -1.
    1000022    2    1    0    0    0  0.28406362652E+02  0.53894323814E+02  0.97329653959E+01  0.62500001140E+02  0.99999974335E+01 0.  0.
    3000022    2    3    3    0    0  0.54881937145E+00  0.18051824671E+01  0.22531927533E+01  0.29494481399E+01  0.24996060535E+00 0.  0.
    1000022    2    1    0    0    0 -0.28406362652E+02 -0.53894323814E+02 -0.97329653959E+01  0.62499998860E+02  0.99999831805E+01 0.  0.
    3000022    2    5    5    0    0 -0.12343716126E+02 -0.30472492109E+02 -0.89332911800E+01  0.34070607507E+02  0.25000293172E+00 0.  0.
        -13    1    4    4    0    0  0.30632485876E+00  0.11737870956E+01  0.14912950463E+01  0.19252524458E+01  0.10500000000E+00 0. -1.
         13    1    4    4    0    0  0.24249451270E+00  0.63139537153E+00  0.76189770706E+00  0.10241956941E+01  0.10500000000E+00 0. -1.
    3000001    1    5    5    0    0 -0.16062646526E+02 -0.23421831705E+02 -0.79967421597E+00  0.28429391353E+02  0.10000000000E+01 0. -1.
        -13    1    6    6    0    0 -0.40251457504E+01 -0.99664501871E+01 -0.29734953516E+01  0.11152785627E+02  0.10500000000E+00 0. -1.
         13    1    6    6    0    0 -0.83185703754E+01 -0.20506041922E+02 -0.59597958284E+01  0.22917821880E+02  0.10500000000E+00 0.  1.
</event>
<event>
11    0  0.3443539E-009  0.9118800E+02  0.7816531E-02  0.1126479E+00
         25   -1    0    0    0    0  0.00000000000E+00  0.00000000000E+00  0.99999998245E-14  0.12500000000E+03  0.12500000000E+03 0.  0.
    3000001    1    3    3    0    0  0.13508367896E+02 -0.46511307979E+01  0.15618697889E+02  0.21190864651E+02  0.10000000000E+01 0.  1.
    1000022    2    1    0    0    0  0.28257788200E+02 -0.12576427163E+02  0.53381462301E+02  0.62499998969E+02  0.10000011978E+02 0.  0.
    3000022    2    3    3    0    0  0.14749420304E+02 -0.79252963651E+01  0.37762764412E+02  0.41309134318E+02  0.24996050990E+00 0.  0.
    1000022    2    1    0    0    0 -0.28257788200E+02  0.12576427163E+02 -0.53381462301E+02  0.62500001031E+02  0.10000024865E+02 0.  0.
    3000022    2    5    5    0    0 -0.12052145256E+02  0.70579985486E+01 -0.33185013527E+02  0.36005238139E+02  0.25000377983E+00 0.  0.
        -13    1    4    4    0    0  0.49856315138E+01 -0.26705408029E+01  0.12889836620E+02  0.14076477644E+02  0.10500000000E+00 0. -1.
         13    1    4    4    0    0  0.97637887902E+01 -0.52547555622E+01  0.24872927792E+02  0.27232656674E+02  0.10500000000E+00 0.  1.
    3000001    1    5    5    0    0 -0.16205642944E+02  0.55184286144E+01 -0.20196448775E+02  0.26494762892E+02  0.10000000000E+01 0. -1.
        -13    1    6    6    0    0 -0.85380568963E+01  0.49586185870E+01 -0.23391676528E+02  0.25390310547E+02  0.10500000000E+00 0. -1.
         13    1    6    6    0    0 -0.35140883596E+01  0.20993799616E+01 -0.97933369985E+01  0.10614927592E+02  0.10500000000E+00 0.  1.
</event>
<event>
11    0  0.3443539E-009  0.9118800E+02  0.7816531E-02  0.1126479E+00
         25   -1    0    0    0    0  0.00000000000E+00  0.00000000000E+00  0.99999998245E-14  0.12500000000E+03  0.12500000000E+03 0.  0.
    3000001    1    3    3    0    0 -0.35300881040E+01  0.36022103882E+02 -0.55851673762E+01  0.36636697241E+02  0.10000000000E+01 0.  1.
    1000022    2    1    0    0    0 -0.14065530371E+02  0.59309903053E+02 -0.95260853507E+01  0.62500000742E+02  0.10000002298E+02 0.  0.
    3000022    2    3    3    0    0 -0.10535442267E+02  0.23287799171E+02 -0.39409179745E+01  0.25863303501E+02  0.24999911203E+00 0.  0.
    1000022    2    1    0    0    0  0.14065530371E+02 -0.59309903053E+02  0.95260853507E+01  0.62499999258E+02  0.99999930196E+01 0.  0.
    3000022    2    5    5    0    0  0.14468969330E+02 -0.55845463337E+02  0.10725552377E+02  0.58678503911E+02  0.24999734462E+00 0.  0.
        -13    1    4    4    0    0 -0.62618610444E+01  0.13853074347E+02 -0.22798235901E+01  0.15372937039E+02  0.10500000000E+00 0.  1.
         13    1    4    4    0    0 -0.42735812223E+01  0.94347248238E+01 -0.16610943844E+01  0.10490366463E+02  0.10500000000E+00 0. -1.
    3000001    1    5    5    0    0 -0.40343895925E+00 -0.34644397159E+01 -0.11994670262E+01  0.38214953468E+01  0.10000000000E+01 0.  1.
        -13    1    6    6    0    0  0.80240214539E+01 -0.30705769304E+02  0.58934214284E+01  0.32279600834E+02  0.10500000000E+00 0.  1.
         13    1    6    6    0    0  0.64449478760E+01 -0.25139694033E+02  0.48321309485E+01  0.26398903077E+02  0.10500000000E+00 0. -1.
</event>
<event>
11    0  0.3443539E-009  0.9118800E+02  0.7816531E-02  0.1126479E+00
         25   -1    0    0    0    0  0.00000000000E+00  0.00000000000E+00  0.99999998245E-14  0.12500000000E+03  0.12500000000E+03 0.  0.
    3000001    1    3    3    0    0 -0.67972922988E+01 -0.63593668746E+00 -0.14967138213E+01  0.70602939265E+01  0.10000000000E+01 0.  1.
    1000022    2    1    0    0    0 -0.51656918595E+02 -0.30980132408E+02 -0.13343324919E+02  0.62499999730E+02  0.99999901766E+01 0.  0.
    3000022    2    3    3    0    0 -0.44859626296E+02 -0.30344195721E+02 -0.11846611098E+02  0.55439705803E+02  0.24999929601E+00 0.  0.
    1000022    2    1    0    0    0  0.51656918595E+02  0.30980132408E+02  0.13343324919E+02  0.62500000270E+02  0.99999935562E+01 0.  0.
    3000022    2    5    5    0    0  0.18500305335E+02  0.11823259352E+02  0.62717893880E-01  0.21957167228E+02  0.24999987181E+00 0.  0.
        -13    1    4    4    0    0 -0.33132648659E+02 -0.22373286379E+02 -0.87386286616E+01  0.40923233089E+02  0.10500000000E+00 0.  1.
         13    1    4    4    0    0 -0.11726977637E+02 -0.79709093419E+01 -0.31079824360E+01  0.14516472714E+02  0.10500000000E+00 0. -1.
    3000001    1    5    5    0    0  0.33156613260E+02  0.19156873057E+02  0.13280607025E+02  0.40542833043E+02  0.10000000000E+01 0. -1.
        -13    1    6    6    0    0  0.11186640250E+02  0.70747256251E+01  0.37725761666E-01  0.13236506752E+02  0.10500000000E+00 0. -1.
         13    1    6    6    0    0  0.73136650851E+01  0.47485337264E+01  0.24992132214E-01  0.87206604759E+01  0.10500000000E+00 0.  1.
</event>
<event>
11    0  0.3443539E-009  0.9118800E+02  0.7816531E-02  0.1126479E+00
         25   -1    0    0    0    0  0.00000000000E+00  0.00000000000E+00  0.99999998245E-14  0.12500000000E+03  0.12500000000E+03 0.  0.
    3000001    1    3    3    0    0 -0.11690449820E+02  0.14520220304E+02 -0.13953598134E+02  0.23306786899E+02  0.10000000000E+01 0. -1.
    1000022    2    1    0    0    0 -0.28160626637E+02  0.47133397711E+02 -0.28136665599E+02  0.62500000156E+02  0.99999998046E+01 0.  0.
    3000022    2    3    3    0    0 -0.16470176817E+02  0.32613177407E+02 -0.14183067465E+02  0.39193213257E+02  0.24999543548E+00 0.  0.
    1000022    2    1    0    0    0  0.28160626637E+02 -0.47133397711E+02  0.28136665599E+02  0.62499999844E+02  0.99999978574E+01 0.  0.
    3000022    2    5    5    0    0  0.21312317222E+02 -0.39081697782E+02  0.26360045229E+02  0.51734982728E+02  0.24997286041E+00 0.  0.
        -13    1    4    4    0    0 -0.10264893945E+02  0.20206089696E+02 -0.88278210041E+01  0.24322737452E+02  0.10500000000E+00 0. -1.
         13    1    4    4    0    0 -0.62052828725E+01  0.12407087712E+02 -0.53552464606E+01  0.14870475805E+02  0.10500000000E+00 0.  1.
    3000001    1    5    5    0    0  0.68483094145E+01 -0.80516999285E+01  0.17766203696E+01  0.10765017116E+02  0.10000000000E+01 0.  1.
        -13    1    6    6    0    0  0.14017591517E+02 -0.25803848863E+02  0.17356860988E+02  0.34111627584E+02  0.10500000000E+00 0. -1.
         13    1    6    6    0    0  0.72947257047E+01 -0.13277848919E+02  0.90031842417E+01  0.17623355144E+02  0.10500000000E+00 0.  1.
</event>
<event>
11    0  0.3443539E-009  0.9118800E+02  0.7816531E-02  0.1126479E+00
         25   -1    0    0    0    0  0.00000000000E+00  0.00000000000E+00  0.99999998245E-14  0.12500000000E+03  0.12500000000E+03 0.  0.
    3000001    1    3    3    0    0 -0.36965400592E+02  0.12627792480E+01 -0.13074760993E+02  0.39242640423E+02  0.10000000000E+01 0. -1.
    1000022    2    1    0    0    0 -0.56300450950E+02  0.85830269877E+01 -0.23724269847E+02  0.62499999108E+02  0.99999889599E+01 0.  0.
    3000022    2    3    3    0    0 -0.19335050359E+02  0.73202477397E+01 -0.10649508854E+02  0.23257358685E+02  0.24998963493E+00 0.  0.
    1000022    2    1    0    0    0  0.56300450950E+02 -0.85830269877E+01  0.23724269847E+02  0.62500000892E+02  0.10000000113E+02 0.  0.
    3000022    2    5    5    0    0  0.19857270824E+02 -0.60727577559E+01  0.12647784451E+02  0.24314986056E+02  0.25000805082E+00 0.  0.
        -13    1    4    4    0    0 -0.11884915768E+02  0.44982478543E+01 -0.66147531473E+01  0.14326599065E+02  0.10500000000E+00 0. -1.
         13    1    4    4    0    0 -0.74501345908E+01  0.28219998854E+01 -0.40347557069E+01  0.89307596199E+01  0.10500000000E+00 0.  1.
    3000001    1    5    5    0    0  0.36443180126E+02 -0.25102692318E+01  0.11076485396E+02  0.38185014836E+02  0.10000000000E+01 0.  1.
        -13    1    6    6    0    0  0.75745159372E+01 -0.22734466871E+01  0.47643655652E+01  0.92332039814E+01  0.10500000000E+00 0. -1.
         13    1    6    6    0    0  0.12282754887E+02 -0.37993110688E+01  0.78834188863E+01  0.15081782074E+02  0.10500000000E+00 0.  1.
</event>
<event>
11    0  0.3443539E-009  0.9118800E+02  0.7816531E-02  0.1126479E+00
         25   -1    0    0    0    0  0.00000000000E+00  0.00000000000E+00  0.99999998245E-14  0.12500000000E+03  0.12500000000E+03 0.  0.
    3000001    1    3    3    0    0  0.44416587826E+01  0.39891334697E+01 -0.90524234705E-01  0.60539006613E+01  0.10000000000E+01 0.  1.
    1000022    2    1    0    0    0  0.59625394337E+02  0.15775501828E+02 -0.14820409481E+01  0.62499998527E+02  0.99999631360E+01 0.  0.
    3000022    2    3    3    0    0  0.55183735554E+02  0.11786368359E+02 -0.13915167134E+01  0.56446097866E+02  0.24999334475E+00 0.  0.
    1000022    2    1    0    0    0 -0.59625394337E+02 -0.15775501828E+02  0.14820409481E+01  0.62500001473E+02  0.99999815485E+01 0.  0.
    3000022    2    5    5    0    0 -0.16097480936E+02 -0.79636927376E+01 -0.22806733517E+01  0.18105614157E+02  0.24999707870E+00 0.  0.
        -13    1    4    4    0    0  0.37954119170E+02  0.80616646877E+01 -0.97886615028E+00  0.38813332806E+02  0.10500000000E+00 0. -1.
         13    1    4    4    0    0  0.17229616384E+02  0.37247036711E+01 -0.41265056310E+00  0.17632765060E+02  0.10500000000E+00 0.  1.
    3000001    1    5    5    0    0 -0.43527913401E+02 -0.78118090908E+01  0.37627142998E+01  0.44394387316E+02  0.10000000000E+01 0.  1.
        -13    1    6    6    0    0 -0.44480214944E+01 -0.21927876525E+01 -0.66783972982E+00  0.50050222585E+01  0.10500000000E+00 0. -1.
         13    1    6    6    0    0 -0.11649459442E+02 -0.57709050850E+01 -0.16128336219E+01  0.13100591898E+02  0.10500000000E+00 0.  1.
</event>
<event>
11    0  0.3443539E-009  0.9118800E+02  0.7816531E-02  0.1126479E+00
         25   -1    0    0    0    0  0.00000000000E+00  0.00000000000E+00  0.99999998245E-14  0.12500000000E+03  0.12500000000E+03 0.  0.
    3000001    1    3    3    0    0 -0.31443038858E+02  0.27648743509E+02  0.11882964798E+02  0.43535302487E+02  0.10000000000E+01 0. -1.
    1000022    2    1    0    0    0 -0.40001150564E+02  0.42511081210E+02  0.19974125385E+02  0.62499999691E+02  0.10000010222E+02 0.  0.
    3000022    2    3    3    0    0 -0.85581117056E+01  0.14862337701E+02  0.80911605866E+01  0.18964697204E+02  0.25000498639E+00 0.  0.
    1000022    2    1    0    0    0  0.40001150564E+02 -0.42511081210E+02 -0.19974125385E+02  0.62500000309E+02  0.10000014084E+02 0.  0.
    3000022    2    5    5    0    0  0.61077249012E+00 -0.42370093310E+01 -0.15927416352E+01  0.45743433726E+01  0.25000053537E+00 0.  0.
        -13    1    4    4    0    0 -0.54917416517E+01  0.95693166373E+01  0.52661566874E+01  0.12225975566E+02  0.10500000000E+00 0.  1.
         13    1    4    4    0    0 -0.30663700539E+01  0.52930210632E+01  0.28250038992E+01  0.67387216379E+01  0.10500000000E+00 0. -1.
    3000001    1    5    5    0    0  0.39390378074E+02 -0.38274071879E+02 -0.18381383750E+02  0.57925656936E+02  0.10000000000E+01 0. -1.
        -13    1    6    6    0    0  0.28671683657E+00 -0.17750617565E+01 -0.73033312025E+00  0.19435694611E+01  0.10500000000E+00 0. -1.
         13    1    6    6    0    0  0.32405565355E+00 -0.24619475745E+01 -0.86240851492E+00  0.26307739114E+01  0.10500000000E+00 0.  1.
</event>
<event>
11    0  0.3443539E-009  0.9118800E+02  0.7816531E-02  0.1126479E+00
         25   -1    0    0    0    0  0.00000000000E+00  0.00000000000E+00  0.99999998245E-14  0.12500000000E+03  0.12500000000E+03 0.  0.
    3000001    1    3    3    0    0  0.60079401630E+01  0.58531794490E+01  0.31535541430E+01  0.90166489560E+01  0.10000000000E+01 0. -1.
    1000022    2    1    0    0    0  0.53795452528E+02  0.20475886616E+02  0.22204440411E+02  0.62499998671E+02  0.10000000722E+02 0.  0.
    3000022    2    3    3    0    0  0.47787512365E+02  0.14622707167E+02  0.19050886268E+02  0.53483349715E+02  0.25005229707E+00 0.  0.
    1000022    2    1    0    0    0 -0.53795452528E+02 -0.20475886616E+02 -0.22204440411E+02  0.62500001329E+02  0.10000017339E+02 0.  0.
    3000022    2    5    5    0    0 -0.44720313874E+02 -0.18361917064E+02 -0.22030094428E+02  0.53126773210E+02  0.24999988937E+00 0.  0.
        -13    1    4    4    0    0  0.15241841167E+02  0.46165252359E+01  0.60949466535E+01  0.17052431707E+02  0.10500000000E+00 0. -1.
         13    1    4    4    0    0  0.32545671198E+02  0.10006181931E+02  0.12955939615E+02  0.36430918008E+02  0.10500000000E+00 0.  1.
    3000001    1    5    5    0    0 -0.90751386541E+01 -0.21139695515E+01 -0.17434598370E+00  0.93732281193E+01  0.10000000000E+01 0. -1.
        -13    1    6    6    0    0 -0.30932492848E+02 -0.12733092744E+02 -0.15202315725E+02  0.36743328551E+02  0.10500000000E+00 0.  1.
         13    1    6    6    0    0 -0.13787821026E+02 -0.56288243200E+01 -0.68277787029E+01  0.16383444659E+02  0.10500000000E+00 0. -1.
</event>
<event>
11    0  0.3443539E-009  0.9118800E+02  0.7816531E-02  0.1126479E+00
         25   -1    0    0    0    0  0.00000000000E+00  0.00000000000E+00  0.99999998245E-14  0.12500000000E+03  0.12500000000E+03 0.  0.
    3000001    1    3    3    0    0  0.17618989516E+01  0.46756362397E+00 -0.16606987893E+01  0.26609817975E+01  0.10000000000E+01 0. -1.
    1000022    2    1    0    0    0  0.11531020545E+02 -0.87209862671E+01 -0.59976912671E+02  0.62500003222E+02  0.10000015646E+02 0.  0.
    3000022    2    3    3    0    0  0.97691215934E+01 -0.91885498911E+01 -0.58316213881E+02  0.59839021424E+02  0.24999546333E+00 0.  0.
    1000022    2    1    0    0    0 -0.11531020545E+02  0.87209862671E+01  0.59976912671E+02  0.62499996778E+02  0.99999753746E+01 0.  0.
    3000022    2    5    5    0    0 -0.63727318311E+01  0.10229189258E+02  0.38839041345E+02  0.40666714320E+02  0.24999425879E+00 0.  0.
        -13    1    4    4    0    0  0.32555892469E+01 -0.30383558450E+01 -0.19591401935E+02  0.20091404191E+02  0.10500000000E+00 0. -1.
         13    1    4    4    0    0  0.65135323465E+01 -0.61501940461E+01 -0.38724811947E+02  0.39747617234E+02  0.10500000000E+00 0.  1.
    3000001    1    5    5    0    0 -0.51582887139E+01 -0.15082029906E+01  0.21137871325E+02  0.21833282458E+02  0.10000000000E+01 0.  1.
        -13    1    6    6    0    0 -0.48372963516E+01  0.77971584798E+01  0.29545862754E+02  0.30938069546E+02  0.10500000000E+00 0. -1.
         13    1    6    6    0    0 -0.15354354795E+01  0.24320307780E+01  0.92931785910E+01  0.97286447741E+01  0.10500000000E+00 0.  1.
</event>
<event>
11    0  0.3443539E-009  0.9118800E+02  0.7816531E-02  0.1126479E+00
         25   -1    0    0    0    0  0.00000000000E+00  0.00000000000E+00  0.99999998245E-14  0.12500000000E+03  0.12500000000E+03 0.  0.
    3000001    1    3    3    0    0 -0.92817592436E+01 -0.47099309330E+00 -0.15953331231E+02  0.18490042361E+02  0.10000000000E+01 0. -1.
    1000022    2    1    0    0    0 -0.21108066424E+02  0.90495975382E+01 -0.57260844682E+02  0.62499999798E+02  0.99999978661E+01 0.  0.
    3000022    2    3    3    0    0 -0.11826307180E+02  0.95205906315E+01 -0.41307513452E+02  0.44009957438E+02  0.24999722294E+00 0.  0.
    1000022    2    1    0    0    0  0.21108066424E+02 -0.90495975382E+01  0.57260844682E+02  0.62500000202E+02  0.10000000385E+02 0.  0.
    3000022    2    5    5    0    0  0.17698004708E+02 -0.10439891848E+02  0.52630104774E+02  0.56499567612E+02  0.24999860564E+00 0.  0.
        -13    1    4    4    0    0 -0.71921139075E+01  0.57891272920E+01 -0.25298720318E+02  0.26930963072E+02  0.10500000000E+00 0. -1.
         13    1    4    4    0    0 -0.46341932725E+01  0.37314633395E+01 -0.16008793134E+02  0.17078994366E+02  0.10500000000E+00 0.  1.
    3000001    1    5    5    0    0  0.34100617153E+01  0.13902943096E+01  0.46307399080E+01  0.60004325898E+01  0.10000000000E+01 0.  1.
        -13    1    6    6    0    0  0.53162335865E+01 -0.31177246842E+01  0.15668840458E+02  0.16837640364E+02  0.10500000000E+00 0.  1.
         13    1    6    6    0    0  0.12381771122E+02 -0.73221671636E+01  0.36961264317E+02  0.39661927247E+02  0.10500000000E+00 0. -1.
</event>
<event>
11    0  0.3443539E-009  0.9118800E+02  0.7816531E-02  0.1126479E+00
         25   -1    0    0    0    0  0.00000000000E+00  0.00000000000E+00  0.99999998245E-14  0.12500000000E+03  0.12500000000E+03 0.  0.
    3000001    1    3    3    0    0 -0.29979484527E+02 -0.26533951878E+01  0.40652377592E+02  0.50590767956E+02  0.10000000000E+01 0. -1.
    1000022    2    1    0    0    0 -0.40054653271E+02 -0.45693149367E+01  0.46701132075E+02  0.62499995551E+02  0.99999909512E+01 0.  0.
    3000022    2    3    3    0    0 -0.10075168745E+02 -0.19159197489E+01  0.60487544838E+01  0.11909227595E+02  0.24999476187E+00 0.  0.
    1000022    2    1    0    0    0  0.40054653271E+02  0.45693149367E+01 -0.46701132075E+02  0.62500004449E+02  0.10000046569E+02 0.  0.
    3000022    2    5    5    0    0  0.14528358870E+01 -0.50458277487E+00  0.16094533100E+00  0.15664419227E+01  0.25000201261E+00 0.  0.
        -13    1    4    4    0    0 -0.74718346791E+01 -0.14033515759E+01  0.44530346616E+01  0.88112571075E+01  0.10500000000E+00 0.  1.
         13    1    4    4    0    0 -0.26033340657E+01 -0.51256817297E+00  0.15957198222E+01  0.30979704874E+01  0.10500000000E+00 0. -1.
    3000001    1    5    5    0    0  0.38601817384E+02  0.50738977115E+01 -0.46862077406E+02  0.60933562527E+02  0.10000000000E+01 0.  1.
        -13    1    6    6    0    0  0.53269808536E+00 -0.19286938058E+00  0.11921460437E+00  0.58839015119E+00  0.10500000000E+00 0. -1.
         13    1    6    6    0    0  0.92013780166E+00 -0.31171339428E+00  0.41730726626E-01  0.97805177152E+00  0.10500000000E+00 0.  1.
</event>
<event>
11    0  0.3443539E-009  0.9118800E+02  0.7816531E-02  0.1126479E+00
         25   -1    0    0    0    0  0.00000000000E+00  0.00000000000E+00  0.99999998245E-14  0.12500000000E+03  0.12500000000E+03 0.  0.
    3000001    1    3    3    0    0 -0.68361618345E+01 -0.99393260422E+01  0.20057593726E+01  0.12269734368E+02  0.10000000000E+01 0. -1.
    1000022    2    1    0    0    0 -0.47330759966E+02 -0.36379768949E+02  0.15574383967E+02  0.62499999858E+02  0.10000005928E+02 0.  0.
    3000022    2    3    3    0    0 -0.40494598132E+02 -0.26440442906E+02  0.13568624594E+02  0.50230265490E+02  0.24999774337E+00 0.  0.
    1000022    2    1    0    0    0  0.47330759966E+02  0.36379768949E+02 -0.15574383967E+02  0.62500000142E+02  0.10000007702E+02 0.  0.
    3000022    2    5    5    0    0  0.40368380444E+01  0.14558393846E+01 -0.35670217265E+01  0.55858430319E+01  0.24993733042E+00 0.  0.
        -13    1    4    4    0    0 -0.20059482892E+02 -0.13137968310E+02  0.67886286477E+01  0.24921588415E+02  0.10500000000E+00 0. -1.
         13    1    4    4    0    0 -0.20435115239E+02 -0.13302474596E+02  0.67799959466E+01  0.25308677075E+02  0.10500000000E+00 0.  1.
    3000001    1    5    5    0    0  0.43293921922E+02  0.34923929564E+02 -0.12007362240E+02  0.56914157110E+02  0.10000000000E+01 0.  1.
        -13    1    6    6    0    0  0.30297290412E+01  0.11188543024E+01 -0.26859150808E+01  0.42019350107E+01  0.10500000000E+00 0. -1.
         13    1    6    6    0    0  0.10071090033E+01  0.33698508224E+00 -0.88110664567E+00  0.13839080212E+01  0.10500000000E+00 0.  1.
</event>
<event>
11    0  0.3443539E-009  0.9118800E+02  0.7816531E-02  0.1126479E+00
         25   -1    0    0    0    0  0.00000000000E+00  0.00000000000E+00  0.99999998245E-14  0.12500000000E+03  0.12500000000E+03 0.  0.
    3000001    1    3    3    0    0 -0.13913233690E+01 -0.31080917455E+01  0.12093283293E+02  0.12603313684E+02  0.10000000000E+01 0.  1.
    1000022    2    1    0    0    0 -0.22259011963E+02 -0.24300297385E+02  0.52156321439E+02  0.62500002307E+02  0.10000017788E+02 0.  0.
    3000022    2    3    3    0    0 -0.20867688594E+02 -0.21192205640E+02  0.40063038146E+02  0.49896688623E+02  0.25000582234E+00 0.  0.
    1000022    2    1    0    0    0  0.22259011963E+02  0.24300297385E+02 -0.52156321439E+02  0.62499997693E+02  0.99999889537E+01 0.  0.
    3000022    2    5    5    0    0  0.20967463058E+02  0.24945693363E+02 -0.50387215259E+02  0.60007133634E+02  0.25000204191E+00 0.  0.
        -13    1    4    4    0    0 -0.10512480137E+02 -0.10678269438E+02  0.20070947080E+02  0.25047786699E+02  0.10500000000E+00 0. -1.
         13    1    4    4    0    0 -0.10355208457E+02 -0.10513936201E+02  0.19992091065E+02  0.24848901923E+02  0.10500000000E+00 0.  1.
    3000001    1    5    5    0    0  0.12915489051E+01 -0.64539597741E+00 -0.17691061796E+01  0.24928640590E+01  0.10000000000E+01 0.  1.
        -13    1    6    6    0    0  0.12055638571E+02  0.14261927722E+02 -0.28802510850E+02  0.34326908687E+02  0.10500000000E+00 0.  1.
         13    1    6    6    0    0  0.89118244868E+01  0.10683765641E+02 -0.21584704409E+02  0.25680224948E+02  0.10500000000E+00 0. -1.
</event>
<event>
11    0  0.3443539E-009  0.9118800E+02  0.7816531E-02  0.1126479E+00
         25   -1    0    0    0    0  0.00000000000E+00  0.00000000000E+00  0.99999998245E-14  0.12500000000E+03  0.12500000000E+03 0.  0.
    3000001    1    3    3    0    0 -0.14451236274E+02  0.40659746496E+02 -0.15528737085E+02  0.45871504122E+02  0.10000000000E+01 0. -1.
    1000022    2    1    0    0    0 -0.15592323879E+02  0.57164034739E+02 -0.17187279359E+02  0.62499999805E+02  0.99999986144E+01 0.  0.
    3000022    2    3    3    0    0 -0.11410876055E+01  0.16504288243E+02 -0.16585422738E+01  0.16628495684E+02  0.24998975775E+00 0.  0.
    1000022    2    1    0    0    0  0.15592323879E+02 -0.57164034739E+02  0.17187279359E+02  0.62500000195E+02  0.10000001049E+02 0.  0.
    3000022    2    5    5    0    0  0.10911740168E+02 -0.28947374886E+02  0.47685711559E+01  0.31302050413E+02  0.25000584035E+00 0.  0.
        -13    1    4    4    0    0 -0.50072112483E+00  0.81954482081E+01 -0.83979604858E+00  0.82542337852E+01  0.10500000000E+00 0. -1.
         13    1    4    4    0    0 -0.64036648071E+00  0.83088400352E+01 -0.81874622523E+00  0.83742618983E+01  0.10500000000E+00 0.  1.
    3000001    1    5    5    0    0  0.46805837115E+01 -0.28216659853E+02  0.12418708203E+02  0.31197949781E+02  0.10000000000E+01 0.  1.
        -13    1    6    6    0    0  0.39570825728E+01 -0.10451043383E+02  0.17792081234E+01  0.11316334072E+02  0.10500000000E+00 0. -1.
         13    1    6    6    0    0  0.69546575949E+01 -0.18496331503E+02  0.29893630325E+01  0.19985716342E+02  0.10500000000E+00 0.  1.
</event>
<event>
11    0  0.3443539E-009  0.9118800E+02  0.7816531E-02  0.1126479E+00
         25   -1    0    0    0    0  0.00000000000E+00  0.00000000000E+00  0.99999998245E-14  0.12500000000E+03  0.12500000000E+03 0.  0.
    3000001    1    3    3    0    0 -0.13012064283E+02  0.97068961315E+01 -0.55523916630E+02  0.57857090899E+02  0.10000000000E+01 0. -1.
    1000022    2    1    0    0    0 -0.16415632267E+02  0.10767073838E+02 -0.58488009699E+02  0.62499999539E+02  0.99999901020E+01 0.  0.
    3000022    2    3    3    0    0 -0.34035679837E+01  0.10601777068E+01 -0.29640930690E+01  0.46429086393E+01  0.25000224300E+00 0.  0.
    1000022    2    1    0    0    0  0.16415632267E+02 -0.10767073838E+02  0.58488009699E+02  0.62500000461E+02  0.99999958670E+01 0.  0.
    3000022    2    5    5    0    0  0.15088878749E+02 -0.84430576029E+01  0.37218310778E+02  0.41039305725E+02  0.24994730349E+00 0.  0.
        -13    1    4    4    0    0 -0.22763339178E+01  0.76085642506E+00 -0.20148335158E+01  0.31354708899E+01  0.10500000000E+00 0. -1.
         13    1    4    4    0    0 -0.11272340660E+01  0.29932128175E+00 -0.94925955319E+00  0.15074377495E+01  0.10500000000E+00 0.  1.
    3000001    1    5    5    0    0  0.13267535178E+01 -0.23240162354E+01  0.21269698921E+02  0.21460694736E+02  0.10000000000E+01 0.  1.
        -13    1    6    6    0    0  0.68158208057E+01 -0.38713641540E+01  0.16768351077E+02  0.18510307844E+02  0.10500000000E+00 0. -1.
         13    1    6    6    0    0  0.82730579434E+01 -0.45716934489E+01  0.20449959702E+02  0.22528997881E+02  0.10500000000E+00 0.  1.
</event>
<event>
11    0  0.3443539E-009  0.9118800E+02  0.7816531E-02  0.1126479E+00
         25   -1    0    0    0    0  0.00000000000E+00  0.00000000000E+00  0.99999998245E-14  0.12500000000E+03  0.12500000000E+03 0.  0.
    3000001    1    3    3    0    0  0.76555616566E+01 -0.65496291931E+01 -0.24000455721E+01  0.10405070187E+02  0.10000000000E+01 0.  1.
    1000022    2    1    0    0    0  0.33026949771E+02 -0.41370788523E+02 -0.31684831536E+02  0.62499999449E+02  0.99999913695E+01 0.  0.
    3000022    2    3    3    0    0  0.25371388115E+02 -0.34821159330E+02 -0.29284785964E+02  0.52094929262E+02  0.24998775822E+00 0.  0.
    1000022    2    1    0    0    0 -0.33026949771E+02  0.41370788523E+02  0.31684831536E+02  0.62500000551E+02  0.99999982608E+01 0.  0.
    3000022    2    5    5    0    0 -0.85679051398E+01  0.17188684615E+02  0.14313912671E+02  0.23954341445E+02  0.25000167535E+00 0.  0.
        -13    1    4    4    0    0  0.90779556928E+01 -0.12496372476E+02 -0.10563518675E+02  0.18712764532E+02  0.10500000000E+00 0. -1.
         13    1    4    4    0    0  0.16293432422E+02 -0.22324786853E+02 -0.18721267289E+02  0.33382164730E+02  0.10500000000E+00 0.  1.
    3000001    1    5    5    0    0 -0.24459044632E+02  0.24182103908E+02  0.17370918866E+02  0.38545659106E+02  0.10000000000E+01 0. -1.
        -13    1    6    6    0    0 -0.47430858076E+01  0.93701212805E+01  0.78068335790E+01  0.13086394130E+02  0.10500000000E+00 0. -1.
         13    1    6    6    0    0 -0.38248193322E+01  0.78185633347E+01  0.65070790918E+01  0.10867947315E+02  0.10500000000E+00 0.  1.
</event>
<event>
11    0  0.3443539E-009  0.9118800E+02  0.7816531E-02  0.1126479E+00
         25   -1    0    0    0    0  0.00000000000E+00  0.00000000000E+00  0.99999998245E-14  0.12500000000E+03  0.12500000000E+03 0.  0.
    3000001    1    3    3    0    0 -0.11413735944E+02  0.12512112099E+02 -0.24173448911E+02  0.29532726756E+02  0.10000000000E+01 0.  1.
    1000022    2    1    0    0    0 -0.23133554429E+02  0.35014975152E+02 -0.45222114816E+02  0.62500010409E+02  0.10000090367E+02 0.  0.
    3000022    2    3    3    0    0 -0.11719818485E+02  0.22502863053E+02 -0.21048665905E+02  0.32967283653E+02  0.24992845132E+00 0.  0.
    1000022    2    1    0    0    0  0.23133554429E+02 -0.35014975152E+02  0.45222114816E+02  0.62499989591E+02  0.99999602495E+01 0.  0.
    3000022    2    5    5    0    0  0.44556006007E+01 -0.10962544021E+02  0.18556934727E+02  0.22010271986E+02  0.24999662438E+00 0.  0.
        -13    1    4    4    0    0 -0.53276800013E+01  0.10150399486E+02 -0.95828059565E+01  0.14941752873E+02  0.10500000000E+00 0. -1.
         13    1    4    4    0    0 -0.63921384833E+01  0.12352463566E+02 -0.11465859948E+02  0.18025530780E+02  0.10500000000E+00 0.  1.
    3000001    1    5    5    0    0  0.18677953828E+02 -0.24052431132E+02  0.26665180089E+02  0.40489717605E+02  0.10000000000E+01 0. -1.
        -13    1    6    6    0    0  0.11139380281E+01 -0.27427054476E+01  0.45951404119E+01  0.54671410726E+01  0.10500000000E+00 0. -1.
         13    1    6    6    0    0  0.33416625726E+01 -0.82198385733E+01  0.13961794315E+02  0.16543130913E+02  0.10500000000E+00 0.  1.
</event>
<event>
11    0  0.3443539E-009  0.9118800E+02  0.7816531E-02  0.1126479E+00
         25   -1    0    0    0    0  0.00000000000E+00  0.00000000000E+00  0.99999998245E-14  0.12500000000E+03  0.12500000000E+03 0.  0.
    3000001    1    3    3    0    0  0.19291886126E+01 -0.10719461039E+02  0.52354089987E+02  0.53484384188E+02  0.10000000000E+01 0.  1.
    1000022    2    1    0    0    0  0.29591949042E+01 -0.85178789809E+01  0.61032279324E+02  0.62500001064E+02  0.99999958380E+01 0.  0.
    3000022    2    3    3    0    0  0.10300062916E+01  0.22015820578E+01  0.86781893371E+01  0.90156168760E+01  0.25000193129E+00 0.  0.
    1000022    2    1    0    0    0 -0.29591949042E+01  0.85178789809E+01 -0.61032279324E+02  0.62499998936E+02  0.99999825350E+01 0.  0.
    3000022    2    5    5    0    0 -0.95890098645E+00  0.10191340082E+02 -0.53396316952E+02  0.54369219812E+02  0.24999034289E+00 0.  0.
        -13    1    4    4    0    0  0.75154980875E+00  0.15382749353E+01  0.62203133230E+01  0.64524754728E+01  0.10500000000E+00 0. -1.
         13    1    4    4    0    0  0.27845648288E+00  0.66330712257E+00  0.24578760142E+01  0.25631414032E+01  0.10500000000E+00 0.  1.
    3000001    1    5    5    0    0 -0.20002939178E+01 -0.16734611010E+01 -0.76359623715E+01  0.81307791234E+01  0.10000000000E+01 0.  1.
        -13    1    6    6    0    0 -0.28527811673E+00  0.36465124488E+01 -0.19100554479E+02  0.19447895595E+02  0.10500000000E+00 0.  1.
         13    1    6    6    0    0 -0.67362286971E+00  0.65448276332E+01 -0.34295762473E+02  0.34921324218E+02  0.10500000000E+00 0. -1.
</event>
<event>
11    0  0.3443539E-009  0.9118800E+02  0.7816531E-02  0.1126479E+00
         25   -1    0    0    0    0  0.00000000000E+00  0.00000000000E+00  0.99999998245E-14  0.12500000000E+03  0.12500000000E+03 0.  0.
    3000001    1    3    3    0    0  0.38670733628E+02  0.24560009979E+01  0.44108042692E+02  0.58719477266E+02  0.10000000000E+01 0. -1.
    1000022    2    1    0    0    0  0.39030331493E+02  0.37533719195E+01  0.47631873717E+02  0.62500000002E+02  0.10000001463E+02 0.  0.
    3000022    2    3    3    0    0  0.35959786460E+00  0.12973709216E+01  0.35238310252E+01  0.37805227365E+01  0.24997026751E+00 0.  0.
    1000022    2    1    0    0    0 -0.39030331493E+02 -0.37533719195E+01 -0.47631873717E+02  0.62499999998E+02  0.10000001436E+02 0.  0.
    3000022    2    5    5    0    0 -0.79071718585E+01 -0.46711722142E+00 -0.16705185808E+02  0.18489653935E+02  0.25000890121E+00 0.  0.
        -13    1    4    4    0    0  0.29115412609E+00  0.96013518626E+00  0.25421936896E+01  0.27350327341E+01  0.10500000000E+00 0. -1.
         13    1    4    4    0    0  0.68443738510E-01  0.33723573529E+00  0.98163733559E+00  0.10454900024E+01  0.10500000000E+00 0.  1.
    3000001    1    5    5    0    0 -0.31123159634E+02 -0.32862546980E+01 -0.30926687910E+02  0.44010346063E+02  0.10000000000E+01 0. -1.
        -13    1    6    6    0    0 -0.50671291632E+01 -0.26520690512E+00 -0.10588967399E+02  0.11742375749E+02  0.10500000000E+00 0.  1.
         13    1    6    6    0    0 -0.28400426954E+01 -0.20191031631E+00 -0.61162184086E+01  0.67472781852E+01  0.10500000000E+00 0. -1.
</event>
<event>
11    0  0.3443539E-009  0.9118800E+02  0.7816531E-02  0.1126479E+00
         25   -1    0    0    0    0  0.00000000000E+00  0.00000000000E+00  0.99999998245E-14  0.12500000000E+03  0.12500000000E+03 0.  0.
    3000001    1    3    3    0    0  0.43741319921E+01 -0.12011501786E+01  0.11366185873E+02  0.12278679642E+02  0.10000000000E+01 0.  1.
    1000022    2    1    0    0    0  0.14669545992E+02  0.12037180754E+02  0.58704011073E+02  0.62500001240E+02  0.99999969370E+01 0.  0.
    3000022    2    3    3    0    0  0.10295414000E+02  0.13238330933E+02  0.47337825200E+02  0.50221321598E+02  0.24998613369E+00 0.  0.
    1000022    2    1    0    0    0 -0.14669545992E+02 -0.12037180754E+02 -0.58704011073E+02  0.62499998760E+02  0.99999814401E+01 0.  0.
    3000022    2    5    5    0    0 -0.14699280754E+01  0.17647625061E+01 -0.70973514435E+01  0.74639117894E+01  0.25001287452E+00 0.  0.
        -13    1    4    4    0    0  0.68665793424E+01  0.88085971388E+01  0.31368166256E+02  0.33297359875E+02  0.10500000000E+00 0. -1.
         13    1    4    4    0    0  0.34288346577E+01  0.44297337942E+01  0.15969658944E+02  0.16923961723E+02  0.10500000000E+00 0.  1.
    3000001    1    5    5    0    0 -0.13199617917E+02 -0.13801943260E+02 -0.51606659630E+02  0.55036086971E+02  0.10000000000E+01 0.  1.
        -13    1    6    6    0    0 -0.49440906216E+00  0.63007817168E+00 -0.23204765386E+01  0.24570460292E+01  0.10500000000E+00 0. -1.
         13    1    6    6    0    0 -0.97551901329E+00  0.11346843344E+01 -0.47768749049E+01  0.50068657602E+01  0.10500000000E+00 0. -1.
</event>
<event>
11    0  0.3443539E-009  0.9118800E+02  0.7816531E-02  0.1126479E+00
         25   -1    0    0    0    0  0.00000000000E+00  0.00000000000E+00  0.99999998245E-14  0.12500000000E+03  0.12500000000E+03 0.  0.
    3000001    1    3    3    0    0  0.16598746305E+02  0.19475701966E+02  0.71805369992E+01  0.26596643728E+02  0.10000000000E+01 0.  1.
    1000022    2    1    0    0    0  0.31504442977E+02  0.51940197037E+02  0.10767357776E+02  0.62500000369E+02  0.10000002859E+02 0.  0.
    3000022    2    3    3    0    0  0.14905696672E+02  0.32464495070E+02  0.35868207773E+01  0.35903356642E+02  0.25000279661E+00 0.  0.
    1000022    2    1    0    0    0 -0.31504442977E+02 -0.51940197037E+02 -0.10767357776E+02  0.62499999631E+02  0.99999982454E+01 0.  0.
    3000022    2    5    5    0    0  0.93288232700E-01  0.36260982063E+00 -0.53970123982E-01  0.45342923645E+00  0.24999344354E+00 0.  0.
        -13    1    4    4    0    0  0.57367030395E+01  0.12443930590E+02  0.13180481750E+01  0.13766242998E+02  0.10500000000E+00 0. -1.
         13    1    4    4    0    0  0.91689936323E+01  0.20020564480E+02  0.22687726023E+01  0.22137113643E+02  0.10500000000E+00 0.  1.
    3000001    1    5    5    0    0 -0.31597731209E+02 -0.52302806857E+02 -0.10713387653E+02  0.62046570394E+02  0.10000000000E+01 0. -1.
        -13    1    6    6    0    0  0.42723110829E-01  0.24802746717E+00 -0.87877482937E-01  0.28651411951E+00  0.10500000000E+00 0.  1.
         13    1    6    6    0    0  0.50565121870E-01  0.11458235346E+00  0.33907358955E-01  0.16691511695E+00  0.10500000000E+00 0. -1.
</event>
<event>
11    0  0.3443539E-009  0.9118800E+02  0.7816531E-02  0.1126479E+00
         25   -1    0    0    0    0  0.00000000000E+00  0.00000000000E+00  0.99999998245E-14  0.12500000000E+03  0.12500000000E+03 0.  0.
    3000001    1    3    3    0    0  0.17315248740E+02  0.65919309534E+01  0.55786072115E+01  0.19375041962E+02  0.10000000000E+01 0.  1.
    1000022    2    1    0    0    0  0.47746910038E+02  0.25783948958E+02  0.29354226131E+02  0.62500001368E+02  0.10000006861E+02 0.  0.
    3000022    2    3    3    0    0  0.30431661298E+02  0.19192018004E+02  0.23775618919E+02  0.43124959405E+02  0.25000861725E+00 0.  0.
    1000022    2    1    0    0    0 -0.47746910038E+02 -0.25783948958E+02 -0.29354226131E+02  0.62499998632E+02  0.99999897638E+01 0.  0.
    3000022    2    5    5    0    0 -0.13822371193E+01 -0.12920186538E+00 -0.29900710870E+01  0.33061001765E+01  0.25000139186E+00 0.  0.
        -13    1    4    4    0    0  0.21693903186E+02  0.13730718301E+02  0.16961630689E+02  0.30771187840E+02  0.10500000000E+00 0. -1.
         13    1    4    4    0    0  0.87377581124E+01  0.54612997034E+01  0.68139882305E+01  0.12353771565E+02  0.10500000000E+00 0.  1.
    3000001    1    5    5    0    0 -0.46364672919E+02 -0.25654747092E+02 -0.26364155044E+02  0.59193898456E+02  0.10000000000E+01 0.  1.
        -13    1    6    6    0    0 -0.99277441615E+00 -0.12936239134E+00 -0.20918403191E+01  0.23214557050E+01  0.10500000000E+00 0.  1.
         13    1    6    6    0    0 -0.38946270320E+00  0.16052595983E-03 -0.89823076786E+00  0.98464447151E+00  0.10500000000E+00 0. -1.
</event>
<event>
11    0  0.3443539E-009  0.9118800E+02  0.7816531E-02  0.1126479E+00
         25   -1    0    0    0    0  0.00000000000E+00  0.00000000000E+00  0.99999998245E-14  0.12500000000E+03  0.12500000000E+03 0.  0.
    3000001    1    3    3    0    0 -0.20009329191E+02  0.51516679041E+02  0.15735069414E+02  0.57471156971E+02  0.10000000000E+01 0. -1.
    1000022    2    1    0    0    0 -0.20895116249E+02  0.56254211213E+02  0.14321594109E+02  0.62499997253E+02  0.99999718260E+01 0.  0.
    3000022    2    3    3    0    0 -0.88578705795E+00  0.47375321719E+01 -0.14134753051E+01  0.50288402820E+01  0.24998470261E+00 0.  0.
    1000022    2    1    0    0    0  0.20895116249E+02 -0.56254211213E+02 -0.14321594109E+02  0.62500002747E+02  0.10000006165E+02 0.  0.
    3000022    2    5    5    0    0  0.23144415825E+01 -0.67582576433E+01 -0.52039383216E+01  0.88416153515E+01  0.25000351286E+00 0.  0.
        -13    1    4    4    0    0 -0.30133369762E+00  0.14589686882E+01 -0.39668929112E+00  0.15452440015E+01  0.10500000000E+00 0.  1.
         13    1    4    4    0    0 -0.58445336032E+00  0.32785634837E+01 -0.10167860140E+01  0.34835962805E+01  0.10500000000E+00 0. -1.
    3000001    1    5    5    0    0  0.18580674667E+02 -0.49495953570E+02 -0.91176557874E+01  0.53658387396E+02  0.10000000000E+01 0. -1.
        -13    1    6    6    0    0  0.14309731955E+01 -0.42280435838E+01 -0.31790392869E+01  0.54809992356E+01  0.10500000000E+00 0.  1.
         13    1    6    6    0    0  0.88346838704E+00 -0.25302140595E+01 -0.20248990347E+01  0.33606161160E+01  0.10500000000E+00 0. -1.
</event>
<event>
11    0  0.3443539E-009  0.9118800E+02  0.7816531E-02  0.1126479E+00
         25   -1    0    0    0    0  0.00000000000E+00  0.00000000000E+00  0.99999998245E-14  0.12500000000E+03  0.12500000000E+03 0.  0.
    3000001    1    3    3    0    0  0.23675803813E+01  0.68622459040E+01  0.83681971422E+01  0.11123065185E+02  0.10000000000E+01 0. -1.
    1000022    2    1    0    0    0 -0.12067742379E+01  0.49519241565E+02  0.36778246427E+02  0.62499992885E+02  0.99999055582E+01 0.  0.
    3000022    2    3    3    0    0 -0.35743546192E+01  0.42656995661E+02  0.28410049284E+02  0.51376927700E+02  0.25001946921E+00 0.  0.
    1000022    2    1    0    0    0  0.12067742379E+01 -0.49519241565E+02 -0.36778246427E+02  0.62500007115E+02  0.99999944920E+01 0.  0.
    3000022    2    5    5    0    0 -0.16726221714E+01 -0.28633159246E+02 -0.26383760794E+02  0.38972051617E+02  0.25000053686E+00 0.  0.
        -13    1    4    4    0    0 -0.20785000778E+01  0.25015061273E+02  0.16584994787E+02  0.30085653228E+02  0.10500000000E+00 0. -1.
         13    1    4    4    0    0 -0.14958545414E+01  0.17641934388E+02  0.11825054498E+02  0.21291274472E+02  0.10500000000E+00 0.  1.
    3000001    1    5    5    0    0  0.28793964093E+01 -0.20886082319E+02 -0.10394485633E+02  0.23527955498E+02  0.10000000000E+01 0. -1.
        -13    1    6    6    0    0 -0.92254711703E+00 -0.14736173330E+02 -0.13619966694E+02  0.20087817586E+02  0.10500000000E+00 0.  1.
         13    1    6    6    0    0 -0.75007505441E+00 -0.13896985916E+02 -0.12763794099E+02  0.18884234031E+02  0.10500000000E+00 0. -1.
</event>
<event>
11    0  0.3443539E-009  0.9118800E+02  0.7816531E-02  0.1126479E+00
         25   -1    0    0    0    0  0.00000000000E+00  0.00000000000E+00  0.99999998245E-14  0.12500000000E+03  0.12500000000E+03 0.  0.
    3000001    1    3    3    0    0  0.15557481032E+02  0.15690372889E+02  0.31948023013E+02  0.38857421323E+02  0.10000000000E+01 0.  1.
    1000022    2    1    0    0    0  0.18023681499E+02  0.28507447381E+02  0.51659682312E+02  0.62500000743E+02  0.99999832687E+01 0.  0.
    3000022    2    3    3    0    0  0.24662004664E+01  0.12817074492E+02  0.19711659299E+02  0.23642579420E+02  0.25001204906E+00 0.  0.
    1000022    2    1    0    0    0 -0.18023681499E+02 -0.28507447381E+02 -0.51659682312E+02  0.62499999257E+02  0.99999739841E+01 0.  0.
    3000022    2    5    5    0    0 -0.65982744302E+00 -0.71312025996E+01 -0.15129989880E+02  0.16741221981E+02  0.24999379639E+00 0.  0.
        -13    1    4    4    0    0  0.17511755626E+01  0.88801893814E+01  0.13709141083E+02  0.16427901678E+02  0.10500000000E+00 0. -1.
         13    1    4    4    0    0  0.71502490377E+00  0.39368851107E+01  0.60025182159E+01  0.72146777419E+01  0.10500000000E+00 0.  1.
    3000001    1    5    5    0    0 -0.17363854056E+02 -0.21376244781E+02 -0.36529692432E+02  0.45758777276E+02  0.10000000000E+01 0.  1.
        -13    1    6    6    0    0 -0.33632697294E+00 -0.38144340312E+01 -0.79367500790E+01  0.88128343697E+01  0.10500000000E+00 0.  1.
         13    1    6    6    0    0 -0.32350047008E+00 -0.33167685683E+01 -0.71932398008E+01  0.79283876117E+01  0.10500000000E+00 0. -1.
</event>
<event>
11    0  0.3443539E-009  0.9118800E+02  0.7816531E-02  0.1126479E+00
         25   -1    0    0    0    0  0.00000000000E+00  0.00000000000E+00  0.99999998245E-14  0.12500000000E+03  0.12500000000E+03 0.  0.
    3000001    1    3    3    0    0 -0.14116431471E+02  0.13748616618E+02 -0.28246063543E+02  0.34454871964E+02  0.10000000000E+01 0. -1.
    1000022    2    1    0    0    0 -0.21198681009E+02  0.32104326236E+02 -0.48230466529E+02  0.62500000036E+02  0.10000013163E+02 0.  0.
    3000022    2    3    3    0    0 -0.70822495387E+01  0.18355709618E+02 -0.19984402986E+02  0.28045128072E+02  0.25002350933E+00 0.  0.
    1000022    2    1    0    0    0  0.21198681009E+02 -0.32104326236E+02  0.48230466529E+02  0.62499999964E+02  0.10000012715E+02 0.  0.
    3000022    2    5    5    0    0  0.24917106969E+01 -0.11202090124E+02  0.11236928246E+02  0.16063203267E+02  0.24999493042E+00 0.  0.
        -13    1    4    4    0    0 -0.20524042095E+01  0.53871091916E+01 -0.59082203576E+01  0.82553861979E+01  0.10500000000E+00 0. -1.
         13    1    4    4    0    0 -0.50298453292E+01  0.12968600426E+02 -0.14076182629E+02  0.19789741874E+02  0.10500000000E+00 0.  1.
    3000001    1    5    5    0    0  0.18706970313E+02 -0.20902236112E+02  0.36993538283E+02  0.46436796697E+02  0.10000000000E+01 0.  1.
        -13    1    6    6    0    0  0.14565107112E+01 -0.63855048021E+01  0.64898425331E+01  0.92209097238E+01  0.10500000000E+00 0.  1.
         13    1    6    6    0    0  0.10351999857E+01 -0.48165853214E+01  0.47470857132E+01  0.68422935436E+01  0.10500000000E+00 0. -1.
</event>
<event>
11    0  0.3443539E-009  0.9118800E+02  0.7816531E-02  0.1126479E+00
         25   -1    0    0    0    0  0.00000000000E+00  0.00000000000E+00  0.99999998245E-14  0.12500000000E+03  0.12500000000E+03 0.  0.
    3000001    1    3    3    0    0  0.66873392845E+01 -0.71467445622E+01  0.11700626535E+02  0.15287286413E+02  0.10000000000E+01 0. -1.
    1000022    2    1    0    0    0  0.36725255852E+02 -0.35328023275E+02  0.34776954670E+02  0.62499999952E+02  0.99999885995E+01 0.  0.
    3000022    2    3    3    0    0  0.30037916567E+02 -0.28181278713E+02  0.23076328134E+02  0.47212713539E+02  0.24999596466E+00 0.  0.
    1000022    2    1    0    0    0 -0.36725255852E+02  0.35328023275E+02 -0.34776954670E+02  0.62500000048E+02  0.99999892024E+01 0.  0.
    3000022    2    5    5    0    0 -0.55151666085E+01  0.43025044314E+01 -0.11199681272E+01  0.70884016847E+01  0.25000547323E+00 0.  0.
        -13    1    4    4    0    0  0.12222080681E+02 -0.11462711292E+02  0.94610008558E+01  0.19243039483E+02  0.10500000000E+00 0.  1.
         13    1    4    4    0    0  0.17815835886E+02 -0.16718567421E+02  0.13615327279E+02  0.27969674057E+02  0.10500000000E+00 0. -1.
    3000001    1    5    5    0    0 -0.31210089243E+02  0.31025518843E+02 -0.33656986542E+02  0.55411598363E+02  0.10000000000E+01 0.  1.
        -13    1    6    6    0    0 -0.39797179760E+01  0.31116731902E+01 -0.76947284399E+00  0.51111425991E+01  0.10500000000E+00 0.  1.
         13    1    6    6    0    0 -0.15354486325E+01  0.11908312413E+01 -0.35049528319E+00  0.19772590856E+01  0.10500000000E+00 0. -1.
</event>
<event>
11    0  0.3443539E-009  0.9118800E+02  0.7816531E-02  0.1126479E+00
         25   -1    0    0    0    0  0.00000000000E+00  0.00000000000E+00  0.99999998245E-14  0.12500000000E+03  0.12500000000E+03 0.  0.
    3000001    1    3    3    0    0  0.97194825989E+01 -0.14311891599E+02  0.50170639147E+01  0.18040773638E+02  0.10000000000E+01 0. -1.
    1000022    2    1    0    0    0  0.45055839967E+02 -0.39830585883E+02  0.13774826109E+02  0.62499999931E+02  0.99999935016E+01 0.  0.
    3000022    2    3    3    0    0  0.35336357368E+02 -0.25518694284E+02  0.87577621942E+01  0.44459226292E+02  0.24998769357E+00 0.  0.
    1000022    2    1    0    0    0 -0.45055839967E+02  0.39830585883E+02 -0.13774826109E+02  0.62500000069E+02  0.99999943695E+01 0.  0.
    3000022    2    5    5    0    0 -0.29492903057E+02  0.30662225139E+02 -0.12600017911E+02  0.44371458531E+02  0.24999918789E+00 0.  0.
        -13    1    4    4    0    0  0.12816465273E+02 -0.93261387049E+01  0.31979531876E+01  0.16170237315E+02  0.10500000000E+00 0.  1.
         13    1    4    4    0    0  0.22519892096E+02 -0.16192555579E+02  0.55598090066E+01  0.28288988978E+02  0.10500000000E+00 0. -1.
    3000001    1    5    5    0    0 -0.15562936910E+02  0.91683607441E+01 -0.11748081977E+01  0.18128541539E+02  0.10000000000E+01 0. -1.
        -13    1    6    6    0    0 -0.18224513846E+02  0.18873280332E+02 -0.77350180955E+01  0.27352790449E+02  0.10500000000E+00 0.  1.
         13    1    6    6    0    0 -0.11268389211E+02  0.11788944808E+02 -0.48649998156E+01  0.17018668082E+02  0.10500000000E+00 0. -1.
</event>
<event>
11    0  0.3443539E-009  0.9118800E+02  0.7816531E-02  0.1126479E+00
         25   -1    0    0    0    0  0.00000000000E+00  0.00000000000E+00  0.99999998245E-14  0.12500000000E+03  0.12500000000E+03 0.  0.
    3000001    1    3    3    0    0  0.22818331947E+01  0.22471177188E+01 -0.10462051992E+02  0.10986848167E+02  0.10000000000E+01 0.  1.
    1000022    2    1    0    0    0  0.20320506831E+02  0.29994125694E+02 -0.49936754550E+02  0.62500000264E+02  0.10000000202E+02 0.  0.
    3000022    2    3    3    0    0  0.18038673636E+02  0.27747007975E+02 -0.39474702558E+02  0.51513152096E+02  0.24999755675E+00 0.  0.
    1000022    2    1    0    0    0 -0.20320506831E+02 -0.29994125694E+02  0.49936754550E+02  0.62499999736E+02  0.99999969042E+01 0.  0.
    3000022    2    5    5    0    0 -0.16519174918E+02 -0.18226740344E+02  0.38107115916E+02  0.45357601057E+02  0.24997330376E+00 0.  0.
        -13    1    4    4    0    0  0.99366799815E+01  0.15403473487E+02 -0.21886546049E+02  0.28548844591E+02  0.10500000000E+00 0. -1.
         13    1    4    4    0    0  0.81019936543E+01  0.12343534489E+02 -0.17588156509E+02  0.22964307506E+02  0.10500000000E+00 0.  1.
    3000001    1    5    5    0    0 -0.38013319123E+01 -0.11767385350E+02  0.11829638633E+02  0.17142398679E+02  0.10000000000E+01 0.  1.
        -13    1    6    6    0    0 -0.12450582873E+02 -0.13714162498E+02  0.28659145108E+02  0.34124080797E+02  0.10500000000E+00 0. -1.
         13    1    6    6    0    0 -0.40685920449E+01 -0.45125778460E+01  0.94479708082E+01  0.11233520260E+02  0.10500000000E+00 0.  1.
</event>
<event>
11    0  0.3443539E-009  0.9118800E+02  0.7816531E-02  0.1126479E+00
         25   -1    0    0    0    0  0.00000000000E+00  0.00000000000E+00  0.99999998245E-14  0.12500000000E+03  0.12500000000E+03 0.  0.
    3000001    1    3    3    0    0  0.92468316746E+01  0.32315383957E+02 -0.44083464830E+01  0.33914914935E+02  0.10000000000E+01 0.  1.
    1000022    2    1    0    0    0  0.18138208669E+02  0.56571713352E+02 -0.16640210386E+02  0.62500000118E+02  0.10000002386E+02 0.  0.
    3000022    2    3    3    0    0  0.88913769944E+01  0.24256329395E+02 -0.12231863903E+02  0.28585085183E+02  0.24999961090E+00 0.  0.
    1000022    2    1    0    0    0 -0.18138208669E+02 -0.56571713352E+02  0.16640210386E+02  0.62499999882E+02  0.10000000913E+02 0.  0.
    3000022    2    5    5    0    0 -0.13815927933E+02 -0.51834302611E+02  0.13650204109E+02  0.55354000384E+02  0.24998893668E+00 0.  0.
        -13    1    4    4    0    0  0.32660130215E+01  0.88082865591E+01 -0.43959647686E+01  0.10372477255E+02  0.10500000000E+00 0.  1.
         13    1    4    4    0    0  0.56253639729E+01  0.15448042836E+02 -0.78358991345E+01  0.18212607928E+02  0.10500000000E+00 0. -1.
    3000001    1    5    5    0    0 -0.43222807357E+01 -0.47374107407E+01  0.29900062773E+01  0.71459994978E+01  0.10000000000E+01 0. -1.
        -13    1    6    6    0    0 -0.59175167770E+01 -0.22331751999E+02  0.58205750926E+01  0.23824656798E+02  0.10500000000E+00 0. -1.
         13    1    6    6    0    0 -0.78984111563E+01 -0.29502550613E+02  0.78296290162E+01  0.31529343586E+02  0.10500000000E+00 0.  1.
</event>
<event>
11    0  0.3443539E-009  0.9118800E+02  0.7816531E-02  0.1126479E+00
         25   -1    0    0    0    0  0.00000000000E+00  0.00000000000E+00  0.99999998245E-14  0.12500000000E+03  0.12500000000E+03 0.  0.
    3000001    1    3    3    0    0 -0.28709510257E+02 -0.13866827705E+02 -0.18813179103E+01  0.31954095932E+02  0.10000000000E+01 0. -1.
    1000022    2    1    0    0    0 -0.58038798310E+02 -0.19045666678E+02 -0.86608598827E+01  0.62499999148E+02  0.99999935592E+01 0.  0.
    3000022    2    3    3    0    0 -0.29329288053E+02 -0.51788389732E+01 -0.67795419723E+01  0.30545903216E+02  0.25000622709E+00 0.  0.
    1000022    2    1    0    0    0  0.58038798310E+02  0.19045666678E+02  0.86608598827E+01  0.62500000852E+02  0.10000004204E+02 0.  0.
    3000022    2    5    5    0    0  0.19456097872E+02  0.32708347539E+01  0.64041667295E+01  0.20744010152E+02  0.25000259882E+00 0.  0.
        -13    1    4    4    0    0 -0.15518177170E+02 -0.27709742013E+01 -0.36500201103E+01  0.16181031874E+02  0.10500000000E+00 0.  1.
         13    1    4    4    0    0 -0.13811110883E+02 -0.24078647719E+01 -0.31295218620E+01  0.14364871342E+02  0.10500000000E+00 0. -1.
    3000001    1    5    5    0    0  0.38582700438E+02  0.15774831924E+02  0.22566931531E+01  0.41755990699E+02  0.10000000000E+01 0.  1.
        -13    1    6    6    0    0  0.50868569950E+01  0.86420511152E+00  0.17078168903E+01  0.54360489413E+01  0.10500000000E+00 0. -1.
         13    1    6    6    0    0  0.14369240877E+02  0.24066296424E+01  0.46963498393E+01  0.15307961211E+02  0.10500000000E+00 0.  1.
</event>
<event>
11    0  0.3443539E-009  0.9118800E+02  0.7816531E-02  0.1126479E+00
         25   -1    0    0    0    0  0.00000000000E+00  0.00000000000E+00  0.99999998245E-14  0.12500000000E+03  0.12500000000E+03 0.  0.
    3000001    1    3    3    0    0  0.83043862000E+00 -0.21291930047E+01  0.18418075934E+00  0.25014023477E+01  0.10000000000E+01 0.  1.
    1000022    2    1    0    0    0  0.39176199774E+02 -0.37037496040E+02 -0.29994987663E+02  0.62499999962E+02  0.99999984349E+01 0.  0.
    3000022    2    3    3    0    0  0.38345761154E+02 -0.34908303035E+02 -0.30179168422E+02  0.59998597614E+02  0.24997946635E+00 0.  0.
    1000022    2    1    0    0    0 -0.39176199774E+02  0.37037496040E+02  0.29994987663E+02  0.62500000038E+02  0.99999989107E+01 0.  0.
    3000022    2    5    5    0    0 -0.31126808818E+02  0.30051752125E+02  0.19328512424E+02  0.47388183244E+02  0.24997130499E+00 0.  0.
        -13    1    4    4    0    0  0.11498899486E+02 -0.10406959792E+02 -0.90325930486E+01  0.17947932017E+02  0.10500000000E+00 0.  1.
         13    1    4    4    0    0  0.26846861669E+02 -0.24501343243E+02 -0.21146575373E+02  0.42050665598E+02  0.10500000000E+00 0. -1.
    3000001    1    5    5    0    0 -0.80493909565E+01  0.69857439152E+01  0.10666475238E+02  0.15111816794E+02  0.10000000000E+01 0.  1.
        -13    1    6    6    0    0 -0.19855416048E+02  0.19250532957E+02  0.12354522530E+02  0.30289698208E+02  0.10500000000E+00 0. -1.
         13    1    6    6    0    0 -0.11271392770E+02  0.10801219168E+02  0.69739898944E+01  0.17098485036E+02  0.10500000000E+00 0.  1.
</event>
<event>
11    0  0.3443539E-009  0.9118800E+02  0.7816531E-02  0.1126479E+00
         25   -1    0    0    0    0  0.00000000000E+00  0.00000000000E+00  0.99999998245E-14  0.12500000000E+03  0.12500000000E+03 0.  0.
    3000001    1    3    3    0    0 -0.36719179272E+02  0.22093199191E+02  0.31639384418E+02  0.53277182951E+02  0.10000000000E+01 0.  1.
    1000022    2    1    0    0    0 -0.44578870944E+02  0.26604269468E+02  0.33334472578E+02  0.62499998811E+02  0.99999950361E+01 0.  0.
    3000022    2    3    3    0    0 -0.78596916721E+01  0.45110702776E+01  0.16950881608E+01  0.92228158599E+01  0.25000056897E+00 0.  0.
    1000022    2    1    0    0    0  0.44578870944E+02 -0.26604269468E+02 -0.33334472578E+02  0.62500001189E+02  0.10000009901E+02 0.  0.
    3000022    2    5    5    0    0  0.85292731776E+01 -0.83235911163E+01 -0.11433911497E+02  0.16517490647E+02  0.24999027665E+00 0.  0.
        -13    1    4    4    0    0 -0.30520962424E+01  0.17380804914E+01  0.59548202531E+00  0.35639639603E+01  0.10500000000E+00 0. -1.
         13    1    4    4    0    0 -0.48075954296E+01  0.27729897862E+01  0.10996061355E+01  0.56588518997E+01  0.10500000000E+00 0.  1.
    3000001    1    5    5    0    0  0.36049597766E+02 -0.18280678352E+02 -0.21900561081E+02  0.45982510542E+02  0.10000000000E+01 0.  1.
        -13    1    6    6    0    0  0.29653510982E+01 -0.28283259306E+01 -0.38910569086E+01  0.56519097278E+01  0.10500000000E+00 0. -1.
         13    1    6    6    0    0  0.55639220795E+01 -0.54952651857E+01 -0.75428545882E+01  0.10865580919E+02  0.10500000000E+00 0.  1.
</event>
<event>
11    0  0.3443539E-009  0.9118800E+02  0.7816531E-02  0.1126479E+00
         25   -1    0    0    0    0  0.00000000000E+00  0.00000000000E+00  0.99999998245E-14  0.12500000000E+03  0.12500000000E+03 0.  0.
    3000001    1    3    3    0    0 -0.23437035824E+02 -0.88960076105E+00  0.80783561109E+01  0.24826314168E+02  0.10000000000E+01 0. -1.
    1000022    2    1    0    0    0 -0.54244956393E+02  0.48560667869E+01  0.28985385963E+02  0.62500006008E+02  0.10000073643E+02 0.  0.
    3000022    2    3    3    0    0 -0.30807920569E+02  0.57456675479E+01  0.20907029852E+02  0.37673691840E+02  0.24998848482E+00 0.  0.
    1000022    2    1    0    0    0  0.54244956393E+02 -0.48560667869E+01 -0.28985385963E+02  0.62499993992E+02  0.99999985406E+01 0.  0.
    3000022    2    5    5    0    0  0.35908239248E+01 -0.14333180481E+01 -0.50421503769E+01  0.63587892008E+01  0.25000518156E+00 0.  0.
        -13    1    4    4    0    0 -0.96850249340E+01  0.18146718203E+01  0.65151600138E+01  0.11813173866E+02  0.10500000000E+00 0. -1.
         13    1    4    4    0    0 -0.21122895635E+02  0.39309957276E+01  0.14391869838E+02  0.25860517974E+02  0.10500000000E+00 0.  1.
    3000001    1    5    5    0    0  0.50654132468E+02 -0.34227487388E+01 -0.23943235586E+02  0.56141204791E+02  0.10000000000E+01 0. -1.
        -13    1    6    6    0    0  0.15361947197E+01 -0.67498869805E+00 -0.22411093172E+01  0.28016245164E+01  0.10500000000E+00 0. -1.
         13    1    6    6    0    0  0.20546292051E+01 -0.75832935001E+00 -0.28010410597E+01  0.35571646844E+01  0.10500000000E+00 0.  1.
</event>
<event>
11    0  0.3443539E-009  0.9118800E+02  0.7816531E-02  0.1126479E+00
         25   -1    0    0    0    0  0.00000000000E+00  0.00000000000E+00  0.99999998245E-14  0.12500000000E+03  0.12500000000E+03 0.  0.
    3000001    1    3    3    0    0  0.18031826494E+01 -0.39169417829E+00  0.11326657527E+02  0.11519464516E+02  0.10000000000E+01 0.  1.
    1000022    2    1    0    0    0  0.27437291373E+02  0.58850876123E+01  0.54943706067E+02  0.62499999400E+02  0.99999937283E+01 0.  0.
    3000022    2    3    3    0    0  0.25634108724E+02  0.62767817906E+01  0.43617048540E+02  0.50980534885E+02  0.24998813520E+00 0.  0.
    1000022    2    1    0    0    0 -0.27437291373E+02 -0.58850876123E+01 -0.54943706067E+02  0.62500000600E+02  0.10000001225E+02 0.  0.
    3000022    2    5    5    0    0 -0.11829850028E+02 -0.11473762386E+01 -0.33450015736E+02  0.35499688408E+02  0.25000084805E+00 0.  0.
        -13    1    4    4    0    0  0.72522243015E+01  0.17456515636E+01  0.12274558266E+02  0.14363769085E+02  0.10500000000E+00 0.  1.
         13    1    4    4    0    0  0.18381884423E+02  0.45311302270E+01  0.31342490274E+02  0.36616765800E+02  0.10500000000E+00 0. -1.
    3000001    1    5    5    0    0 -0.15607441345E+02 -0.47377113738E+01 -0.21493690331E+02  0.27000312192E+02  0.10000000000E+01 0.  1.
        -13    1    6    6    0    0 -0.61461552003E+01 -0.62869972598E+00 -0.17564655521E+02  0.18619845210E+02  0.10500000000E+00 0. -1.
         13    1    6    6    0    0 -0.56836948279E+01 -0.51867651258E+00 -0.15885360215E+02  0.16879843197E+02  0.10500000000E+00 0.  1.
</event>
<event>
11    0  0.3443539E-009  0.9118800E+02  0.7816531E-02  0.1126479E+00
         25   -1    0    0    0    0  0.00000000000E+00  0.00000000000E+00  0.99999998245E-14  0.12500000000E+03  0.12500000000E+03 0.  0.
    3000001    1    3    3    0    0 -0.14194678177E+02 -0.41943344753E+02 -0.73287481733E+01  0.44893692290E+02  0.10000000000E+01 0.  1.
    1000022    2    1    0    0    0 -0.25063947375E+02 -0.55276088876E+02 -0.11072602798E+02  0.62499998946E+02  0.99999938006E+01 0.  0.
    3000022    2    3    3    0    0 -0.10869269198E+02 -0.13332744123E+02 -0.37438546246E+01  0.17606306656E+02  0.25001569802E+00 0.  0.
    1000022    2    1    0    0    0  0.25063947375E+02  0.55276088876E+02  0.11072602798E+02  0.62500001054E+02  0.10000006981E+02 0.  0.
    3000022    2    5    5    0    0  0.15912886341E+02  0.35211823799E+02  0.11830250667E+02  0.40411753468E+02  0.25000115501E+00 0.  0.
        -13    1    4    4    0    0 -0.60355882667E+01 -0.73001351126E+01 -0.20749233785E+01  0.96972486002E+01  0.10500000000E+00 0.  1.
         13    1    4    4    0    0 -0.48336809317E+01 -0.60326090101E+01 -0.16689312461E+01  0.79090580553E+01  0.10500000000E+00 0. -1.
    3000001    1    5    5    0    0  0.91510610344E+01  0.20064265077E+02 -0.75764786930E+00  0.22088247586E+02  0.10000000000E+01 0. -1.
        -13    1    6    6    0    0  0.66689065125E+01  0.14601746950E+02  0.49057930191E+01  0.16785802281E+02  0.10500000000E+00 0. -1.
         13    1    6    6    0    0  0.92439798280E+01  0.20610076849E+02  0.69244576481E+01  0.23625951187E+02  0.10500000000E+00 0.  1.
</event>
<event>
11    0  0.3443539E-009  0.9118800E+02  0.7816531E-02  0.1126479E+00
         25   -1    0    0    0    0  0.00000000000E+00  0.00000000000E+00  0.99999998245E-14  0.12500000000E+03  0.12500000000E+03 0.  0.
    3000001    1    3    3    0    0  0.18648957884E+02  0.10621776842E+02 -0.54052236979E+00  0.21491810949E+02  0.10000000000E+01 0. -1.
    1000022    2    1    0    0    0  0.53587693059E+02  0.26883109997E+02 -0.14557045292E+02  0.62500000501E+02  0.10000002222E+02 0.  0.
    3000022    2    3    3    0    0  0.34938735176E+02  0.16261333155E+02 -0.14016522922E+02  0.41008189552E+02  0.25004769825E+00 0.  0.
    1000022    2    1    0    0    0 -0.53587693059E+02 -0.26883109997E+02  0.14557045292E+02  0.62499999499E+02  0.99999959618E+01 0.  0.
    3000022    2    5    5    0    0 -0.25725606049E+02 -0.82002097526E+01  0.38674364346E+01  0.27277643081E+02  0.25000183525E+00 0.  0.
        -13    1    4    4    0    0  0.24924306560E+02  0.11576890845E+02 -0.10033819715E+02  0.29256350118E+02  0.10500000000E+00 0.  1.
         13    1    4    4    0    0  0.10014428615E+02  0.46844423095E+01 -0.39827032064E+01  0.11751839433E+02  0.10500000000E+00 0. -1.
    3000001    1    5    5    0    0 -0.27862087011E+02 -0.18682900244E+02  0.10689608857E+02  0.35222356418E+02  0.10000000000E+01 0. -1.
        -13    1    6    6    0    0 -0.14216780283E+02 -0.44725878550E+01  0.20988183917E+01  0.15051144388E+02  0.10500000000E+00 0.  1.
         13    1    6    6    0    0 -0.11508825766E+02 -0.37276218976E+01  0.17686180430E+01  0.12226498693E+02  0.10500000000E+00 0. -1.
</event>
<event>
11    0  0.3443539E-009  0.9118800E+02  0.7816531E-02  0.1126479E+00
         25   -1    0    0    0    0  0.00000000000E+00  0.00000000000E+00  0.99999998245E-14  0.12500000000E+03  0.12500000000E+03 0.  0.
    3000001    1    3    3    0    0 -0.10849595920E+02 -0.27518531349E+01  0.27316213602E+02  0.29537466933E+02  0.10000000000E+01 0. -1.
    1000022    2    1    0    0    0 -0.29959347610E+02  0.88967216130E+00  0.53924909846E+02  0.62499999173E+02  0.99999984471E+01 0.  0.
    3000022    2    3    3    0    0 -0.19109751690E+02  0.36415252961E+01  0.26608696244E+02  0.32962532240E+02  0.24999937236E+00 0.  0.
    1000022    2    1    0    0    0  0.29959347610E+02 -0.88967216130E+00 -0.53924909846E+02  0.62500000827E+02  0.10000008784E+02 0.  0.
    3000022    2    5    5    0    0  0.78649651024E+01  0.16496193145E+01 -0.74178201363E+01  0.10939171384E+02  0.24999008939E+00 0.  0.
        -13    1    4    4    0    0 -0.14044904357E+02  0.26423219264E+01  0.19535768701E+02  0.24205340057E+02  0.10500000000E+00 0.  1.
         13    1    4    4    0    0 -0.50648473330E+01  0.99920336976E+00  0.70729275435E+01  0.87571921823E+01  0.10500000000E+00 0. -1.
    3000001    1    5    5    0    0  0.22094382508E+02 -0.25392914758E+01 -0.46507089710E+02  0.51560829443E+02  0.10000000000E+01 0.  1.
        -13    1    6    6    0    0  0.25429912282E+01  0.48849408111E+00 -0.24270650786E+01  0.35506479338E+01  0.10500000000E+00 0.  1.
         13    1    6    6    0    0  0.53219738741E+01  0.11611252334E+01 -0.49907550577E+01  0.73885234500E+01  0.10500000000E+00 0. -1.
</event>
<event>
11    0  0.3443539E-009  0.9118800E+02  0.7816531E-02  0.1126479E+00
         25   -1    0    0    0    0  0.00000000000E+00  0.00000000000E+00  0.99999998245E-14  0.12500000000E+03  0.12500000000E+03 0.  0.
    3000001    1    3    3    0    0  0.15652088699E+00 -0.61029158601E+01  0.22331490724E+01  0.65770081012E+01  0.10000000000E+01 0.  1.
    1000022    2    1    0    0    0 -0.29185559401E+01 -0.43011368276E+02  0.44133368850E+02  0.62499999122E+02  0.99999937182E+01 0.  0.
    3000022    2    3    3    0    0 -0.30750768271E+01 -0.36908452416E+02  0.41900219778E+02  0.55922991020E+02  0.25009996714E+00 0.  0.
    1000022    2    1    0    0    0  0.29185559401E+01  0.43011368276E+02 -0.44133368850E+02  0.62500000878E+02  0.10000004699E+02 0.  0.
    3000022    2    5    5    0    0 -0.17620969549E+01  0.29243596172E+02 -0.25484436287E+02  0.38830553356E+02  0.24995676125E+00 0.  0.
        -13    1    4    4    0    0 -0.18420392207E+01 -0.21537115132E+02  0.24520436958E+02  0.32687968586E+02  0.10500000000E+00 0. -1.
         13    1    4    4    0    0 -0.12330376064E+01 -0.15371337284E+02  0.17379782820E+02  0.23235022434E+02  0.10500000000E+00 0.  1.
    3000001    1    5    5    0    0  0.46806528950E+01  0.13767772104E+02 -0.18648932563E+02  0.23669447522E+02  0.10000000000E+01 0.  1.
        -13    1    6    6    0    0 -0.10159573706E+01  0.16794740455E+02 -0.14549667099E+02  0.22244084922E+02  0.10500000000E+00 0. -1.
         13    1    6    6    0    0 -0.74613958433E+00  0.12448855717E+02 -0.10934769187E+02  0.16586468434E+02  0.10500000000E+00 0.  1.
</event>
<event>
11    0  0.3443539E-009  0.9118800E+02  0.7816531E-02  0.1126479E+00
         25   -1    0    0    0    0  0.00000000000E+00  0.00000000000E+00  0.99999998245E-14  0.12500000000E+03  0.12500000000E+03 0.  0.
    3000001    1    3    3    0    0  0.19183890112E+01 -0.32789875612E+01 -0.95419292437E+00  0.40425808541E+01  0.10000000000E+01 0. -1.
    1000022    2    1    0    0    0  0.18483215223E+02 -0.56065459721E+02  0.17924417125E+02  0.62499997234E+02  0.99999953148E+01 0.  0.
    3000022    2    3    3    0    0  0.16564826212E+02 -0.52786472159E+02  0.18878610049E+02  0.58457416380E+02  0.25000387262E+00 0.  0.
    1000022    2    1    0    0    0 -0.18483215223E+02  0.56065459721E+02 -0.17924417125E+02  0.62500002766E+02  0.10000029893E+02 0.  0.
    3000022    2    5    5    0    0 -0.52497781006E+01  0.31588965546E+02 -0.90606808813E+01  0.33280344224E+02  0.24991846824E+00 0.  0.
        -13    1    4    4    0    0  0.90538010734E+01 -0.28799790899E+02  0.10232892297E+02  0.31876674536E+02  0.10500000000E+00 0.  1.
         13    1    4    4    0    0  0.75110251384E+01 -0.23986681260E+02  0.86457177529E+01  0.26580741844E+02  0.10500000000E+00 0. -1.
    3000001    1    5    5    0    0 -0.13233437122E+02  0.24476494175E+02 -0.88637362438E+01  0.29219658543E+02  0.10000000000E+01 0.  1.
        -13    1    6    6    0    0 -0.19458814713E+01  0.11579204194E+02 -0.32651505976E+01  0.12187561606E+02  0.10500000000E+00 0. -1.
         13    1    6    6    0    0 -0.33038966293E+01  0.20009761352E+02 -0.57955302837E+01  0.21092782618E+02  0.10500000000E+00 0.  1.
</event>
<event>
11    0  0.3443539E-009  0.9118800E+02  0.7816531E-02  0.1126479E+00
         25   -1    0    0    0    0  0.00000000000E+00  0.00000000000E+00  0.99999998245E-14  0.12500000000E+03  0.12500000000E+03 0.  0.
    3000001    1    3    3    0    0  0.42980981572E+02  0.15592262678E+02  0.24644239719E+02  0.51950187523E+02  0.10000000000E+01 0. -1.
    1000022    2    1    0    0    0  0.52358597510E+02  0.14348426182E+02  0.29307832822E+02  0.62499993736E+02  0.10000004260E+02 0.  0.
    3000022    2    3    3    0    0  0.93776159374E+01 -0.12438364960E+01  0.46635931028E+01  0.10549806213E+02  0.25000121222E+00 0.  0.
    1000022    2    1    0    0    0 -0.52358597510E+02 -0.14348426182E+02 -0.29307832822E+02  0.62500006264E+02  0.10000082557E+02 0.  0.
    3000022    2    5    5    0    0 -0.16302556570E+02 -0.87298042601E+01 -0.73593914237E+01  0.19904923445E+02  0.25000414430E+00 0.  0.
        -13    1    4    4    0    0  0.65528217210E+01 -0.83045996163E+00  0.32266933595E+01  0.73519868941E+01  0.10500000000E+00 0. -1.
         13    1    4    4    0    0  0.28247942164E+01 -0.41337653435E+00  0.14368997433E+01  0.31978193189E+01  0.10500000000E+00 0.  1.
    3000001    1    5    5    0    0 -0.36056040940E+02 -0.56186219219E+01 -0.21948441398E+02  0.42595082819E+02  0.10000000000E+01 0. -1.
        -13    1    6    6    0    0 -0.10286142248E+02 -0.54991179377E+01 -0.45781665699E+01  0.12530588756E+02  0.10500000000E+00 0.  1.
         13    1    6    6    0    0 -0.60164143225E+01 -0.32306863225E+01 -0.27812248538E+01  0.73743346888E+01  0.10500000000E+00 0. -1.
</event>
<event>
11    0  0.3443539E-009  0.9118800E+02  0.7816531E-02  0.1126479E+00
         25   -1    0    0    0    0  0.00000000000E+00  0.00000000000E+00  0.99999998245E-14  0.12500000000E+03  0.12500000000E+03 0.  0.
    3000001    1    3    3    0    0 -0.21990231731E+02 -0.15756703907E+02  0.96577269310E+01  0.28742228498E+02  0.10000000000E+01 0. -1.
    1000022    2    1    0    0    0 -0.40546702410E+02 -0.36776252794E+02  0.28455616788E+02  0.62500000724E+02  0.10000005889E+02 0.  0.
    3000022    2    3    3    0    0 -0.18556470679E+02 -0.21019548888E+02  0.18797889857E+02  0.33757772225E+02  0.24996607418E+00 0.  0.
    1000022    2    1    0    0    0  0.40546702410E+02  0.36776252794E+02 -0.28455616788E+02  0.62499999276E+02  0.99999968427E+01 0.  0.
    3000022    2    5    5    0    0  0.25697158067E+01  0.59012621133E+01 -0.53195827472E+01  0.83539686541E+01  0.24999562459E+00 0.  0.
        -13    1    4    4    0    0 -0.14300665390E+02 -0.16202006418E+02  0.14483775245E+02  0.26015472567E+02  0.10500000000E+00 0. -1.
         13    1    4    4    0    0 -0.42558052891E+01 -0.48175424696E+01  0.43141146122E+01  0.77422996579E+01  0.10500000000E+00 0.  1.
    3000001    1    5    5    0    0  0.37976986603E+02  0.30874990681E+02 -0.23136034041E+02  0.54146030622E+02  0.10000000000E+01 0. -1.
        -13    1    6    6    0    0  0.12876370926E+01  0.29884876856E+01 -0.27757647116E+01  0.42784299297E+01  0.10500000000E+00 0.  1.
         13    1    6    6    0    0  0.12820787141E+01  0.29127744277E+01 -0.25438180356E+01  0.40755387244E+01  0.10500000000E+00 0. -1.
</event>
<event>
11    0  0.3443539E-009  0.9118800E+02  0.7816531E-02  0.1126479E+00
         25   -1    0    0    0    0  0.00000000000E+00  0.00000000000E+00  0.99999998245E-14  0.12500000000E+03  0.12500000000E+03 0.  0.
    3000001    1    3    3    0    0  0.14023255311E+02  0.35605499176E+02  0.33320508886E+01  0.38425327900E+02  0.10000000000E+01 0.  1.
    1000022    2    1    0    0    0  0.20013327647E+02  0.58327655978E+02 -0.18976659927E+01  0.62499999508E+02  0.10000003348E+02 0.  0.
    3000022    2    3    3    0    0  0.59900723361E+01  0.22722156802E+02 -0.52297168813E+01  0.24074671609E+02  0.24999616314E+00 0.  0.
    1000022    2    1    0    0    0 -0.20013327647E+02 -0.58327655978E+02  0.18976659927E+01  0.62500000492E+02  0.10000009493E+02 0.  0.
    3000022    2    5    5    0    0 -0.18683920880E+02 -0.43148225129E+02  0.34737369709E+01  0.47148569192E+02  0.24999403383E+00 0.  0.
        -13    1    4    4    0    0  0.27474911155E+01  0.10223579917E+02 -0.24005459422E+01  0.10855594851E+02  0.10500000000E+00 0.  1.
         13    1    4    4    0    0  0.32425812206E+01  0.12498576885E+02 -0.28291709390E+01  0.13219076758E+02  0.10500000000E+00 0. -1.
    3000001    1    5    5    0    0 -0.13294067677E+01 -0.15179430848E+02 -0.15760709782E+01  0.15351431300E+02  0.10000000000E+01 0.  1.
        -13    1    6    6    0    0 -0.13157154665E+02 -0.30404429739E+02  0.24914743087E+01  0.33222861644E+02  0.10500000000E+00 0. -1.
         13    1    6    6    0    0 -0.55267662151E+01 -0.12743795391E+02  0.98226266221E+00  0.13925707547E+02  0.10500000000E+00 0.  1.
</event>
<event>
11    0  0.3443539E-009  0.9118800E+02  0.7816531E-02  0.1126479E+00
         25   -1    0    0    0    0  0.00000000000E+00  0.00000000000E+00  0.99999998245E-14  0.12500000000E+03  0.12500000000E+03 0.  0.
    3000001    1    3    3    0    0  0.41130731966E+02 -0.10679729377E+02  0.16019425222E+01  0.42536571928E+02  0.10000000000E+01 0.  1.
    1000022    2    1    0    0    0  0.61000155541E+02 -0.89221596350E+01  0.23719634237E+01  0.62500000287E+02  0.99999958410E+01 0.  0.
    3000022    2    3    3    0    0  0.19869423576E+02  0.17575697415E+01  0.77002090159E+00  0.19963428359E+02  0.24999004814E+00 0.  0.
    1000022    2    1    0    0    0 -0.61000155541E+02  0.89221596350E+01 -0.23719634237E+01  0.62499999713E+02  0.99999922476E+01 0.  0.
    3000022    2    5    5    0    0 -0.35426281306E+02  0.50247751083E+01  0.35045579196E+01  0.35952944270E+02  0.25000685003E+00 0.  0.
        -13    1    4    4    0    0  0.86330212560E+01  0.82157437745E+00  0.30308173173E+00  0.86779562110E+01  0.10500000000E+00 0.  1.
         13    1    4    4    0    0  0.11236402320E+02  0.93599536407E+00  0.46693916985E+00  0.11285472148E+02  0.10500000000E+00 0. -1.
    3000001    1    5    5    0    0 -0.25573874236E+02  0.38973845267E+01 -0.58765213433E+01  0.26547055443E+02  0.10000000000E+01 0. -1.
        -13    1    6    6    0    0 -0.11900878989E+02  0.16479844594E+01  0.12136443529E+01  0.12076039545E+02  0.10500000000E+00 0. -1.
         13    1    6    6    0    0 -0.23525402317E+02  0.33767906489E+01  0.22909135667E+01  0.23876904725E+02  0.10500000000E+00 0.  1.
</event>
<event>
11    0  0.3443539E-009  0.9118800E+02  0.7816531E-02  0.1126479E+00
         25   -1    0    0    0    0  0.00000000000E+00  0.00000000000E+00  0.99999998245E-14  0.12500000000E+03  0.12500000000E+03 0.  0.
    3000001    1    3    3    0    0 -0.27132995772E+02  0.38747146195E+02  0.33145568853E+02  0.57768239825E+02  0.10000000000E+01 0. -1.
    1000022    2    1    0    0    0 -0.27866546957E+02  0.43350672832E+02  0.33917915609E+02  0.62500002336E+02  0.10000000923E+02 0.  0.
    3000022    2    3    3    0    0 -0.73355118462E+00  0.46035266363E+01  0.77234675662E+00  0.47317625114E+01  0.25000423978E+00 0.  0.
    1000022    2    1    0    0    0  0.27866546957E+02 -0.43350672832E+02 -0.33917915609E+02  0.62499997664E+02  0.99999717226E+01 0.  0.
    3000022    2    5    5    0    0  0.40738233687E+01 -0.18898612359E+01 -0.44962924956E+01  0.63597758922E+01  0.24998172723E+00 0.  0.
        -13    1    4    4    0    0 -0.26294732833E+00  0.17262550453E+01  0.34934619208E+00  0.17838625341E+01  0.10500000000E+00 0. -1.
         13    1    4    4    0    0 -0.47060385629E+00  0.28772715911E+01  0.42300056454E+00  0.29478999772E+01  0.10500000000E+00 0.  1.
    3000001    1    5    5    0    0  0.23792723588E+02 -0.41460811596E+02 -0.29421623114E+02  0.56140221772E+02  0.10000000000E+01 0. -1.
        -13    1    6    6    0    0  0.18230795423E+01 -0.89794029299E+00 -0.21013242476E+01  0.29251503177E+01  0.10500000000E+00 0.  1.
         13    1    6    6    0    0  0.22507438264E+01 -0.99192094287E+00 -0.23949682479E+01  0.34346255746E+01  0.10500000000E+00 0. -1.
</event>
<event>
11    0  0.3443539E-009  0.9118800E+02  0.7816531E-02  0.1126479E+00
         25   -1    0    0    0    0  0.00000000000E+00  0.00000000000E+00  0.99999998245E-14  0.12500000000E+03  0.12500000000E+03 0.  0.
    3000001    1    3    3    0    0  0.55848499283E+01 -0.16075870123E+02  0.49717122560E+01  0.17757873512E+02  0.10000000000E+01 0. -1.
    1000022    2    1    0    0    0  0.29226344023E+02 -0.47702218523E+02  0.26010945711E+02  0.62500001319E+02  0.10000001555E+02 0.  0.
    3000022    2    3    3    0    0  0.23641494095E+02 -0.31626348400E+02  0.21039233455E+02  0.44742127807E+02  0.25000021823E+00 0.  0.
    1000022    2    1    0    0    0 -0.29226344023E+02  0.47702218523E+02 -0.26010945711E+02  0.62499998681E+02  0.99999850693E+01 0.  0.
    3000022    2    5    5    0    0 -0.42688238554E+01  0.38415751452E+01 -0.67240829949E-01  0.57487020141E+01  0.24999362599E+00 0.  0.
        -13    1    4    4    0    0  0.17326150741E+02 -0.23217228266E+02  0.15464154274E+02  0.32838792309E+02  0.10500000000E+00 0. -1.
         13    1    4    4    0    0  0.63153433537E+01 -0.84091201343E+01  0.55750791805E+01  0.11903335498E+02  0.10500000000E+00 0.  1.
    3000001    1    5    5    0    0 -0.24957520168E+02  0.43860643378E+02 -0.25943704881E+02  0.56751296667E+02  0.10000000000E+01 0.  1.
        -13    1    6    6    0    0 -0.30761142996E+01  0.28184627037E+01 -0.46224850508E-01  0.41736522295E+01  0.10500000000E+00 0.  1.
         13    1    6    6    0    0 -0.11927095557E+01  0.10231124416E+01 -0.21015979441E-01  0.15750497846E+01  0.10500000000E+00 0. -1.
</event>
<event>
11    0  0.3443539E-009  0.9118800E+02  0.7816531E-02  0.1126479E+00
         25   -1    0    0    0    0  0.00000000000E+00  0.00000000000E+00  0.99999998245E-14  0.12500000000E+03  0.12500000000E+03 0.  0.
    3000001    1    3    3    0    0  0.15627567548E+02  0.25871613762E+01  0.29106516359E+00  0.15874476067E+02  0.10000000000E+01 0. -1.
    1000022    2    1    0    0    0  0.55924557713E+02  0.26009977563E+02  0.14747873363E+01  0.62499999604E+02  0.99999932282E+01 0.  0.
    3000022    2    3    3    0    0  0.40296990165E+02  0.23422816187E+02  0.11837221727E+01  0.46625523537E+02  0.25002493882E+00 0.  0.
    1000022    2    1    0    0    0 -0.55924557713E+02 -0.26009977563E+02 -0.14747873363E+01  0.62500000396E+02  0.99999981800E+01 0.  0.
    3000022    2    5    5    0    0 -0.19568417879E+02 -0.10449788044E+02 -0.51369712853E+01  0.22772176485E+02  0.24999878160E+00 0.  0.
        -13    1    4    4    0    0  0.16845510614E+02  0.97357042541E+01  0.53711979031E+00  0.19464189884E+02  0.10500000000E+00 0.  1.
         13    1    4    4    0    0  0.23451479551E+02  0.13687111933E+02  0.64660238244E+00  0.27161333653E+02  0.10500000000E+00 0. -1.
    3000001    1    5    5    0    0 -0.36356139833E+02 -0.15560189519E+02  0.36621839490E+01  0.39727823911E+02  0.10000000000E+01 0. -1.
        -13    1    6    6    0    0 -0.62740215628E+01 -0.32983945278E+01 -0.16634512662E+01  0.72815416050E+01  0.10500000000E+00 0.  1.
         13    1    6    6    0    0 -0.13294396317E+02 -0.71513935163E+01 -0.34735200191E+01  0.15490634880E+02  0.10500000000E+00 0. -1.
</event>
<event>
11    0  0.3443539E-009  0.9118800E+02  0.7816531E-02  0.1126479E+00
         25   -1    0    0    0    0  0.00000000000E+00  0.00000000000E+00  0.99999998245E-14  0.12500000000E+03  0.12500000000E+03 0.  0.
    3000001    1    3    3    0    0  0.13794175623E+02  0.34839992615E+02 -0.11489009626E+02  0.39205888700E+02  0.10000000000E+01 0.  1.
    1000022    2    1    0    0    0  0.25664935789E+02  0.54880260574E+02 -0.11649802900E+02  0.62500000385E+02  0.10000010536E+02 0.  0.
    3000022    2    3    3    0    0  0.11870760166E+02  0.20040267959E+02 -0.16079327355E+00  0.23294111685E+02  0.24999583817E+00 0.  0.
    1000022    2    1    0    0    0 -0.25664935789E+02 -0.54880260574E+02  0.11649802900E+02  0.62499999615E+02  0.10000005726E+02 0.  0.
    3000022    2    5    5    0    0  0.37363053724E+00 -0.53240174892E+01  0.18825208275E+01  0.56649051388E+01  0.25000712378E+00 0.  0.
        -13    1    4    4    0    0  0.40600781415E+01  0.68936993251E+01 -0.36154751372E-02  0.80011476034E+01  0.10500000000E+00 0. -1.
         13    1    4    4    0    0  0.78106820249E+01  0.13146568634E+02 -0.15717779841E+00  0.15292964082E+02  0.10500000000E+00 0.  1.
    3000001    1    5    5    0    0 -0.26038566327E+02 -0.49556243085E+02  0.97672820721E+01  0.56835094476E+02  0.10000000000E+01 0.  1.
        -13    1    6    6    0    0  0.13863434975E+00 -0.15791243069E+01  0.52224838301E+00  0.16723102084E+01  0.10500000000E+00 0. -1.
         13    1    6    6    0    0  0.23499618749E+00 -0.37448931823E+01  0.13602724445E+01  0.39925949304E+01  0.10500000000E+00 0.  1.
</event>
<event>
11    0  0.3443539E-009  0.9118800E+02  0.7816531E-02  0.1126479E+00
         25   -1    0    0    0    0  0.00000000000E+00  0.00000000000E+00  0.99999998245E-14  0.12500000000E+03  0.12500000000E+03 0.  0.
    3000001    1    3    3    0    0 -0.12137305165E+02 -0.43596876145E+02 -0.27351604236E+02  0.52887730529E+02  0.10000000000E+01 0. -1.
    1000022    2    1    0    0    0 -0.11444605379E+02 -0.52918532560E+02 -0.29578719202E+02  0.62499996452E+02  0.99999423113E+01 0.  0.
    3000022    2    3    3    0    0  0.69269978646E+00 -0.93216564152E+01 -0.22271149661E+01  0.96122659223E+01  0.25000754143E+00 0.  0.
    1000022    2    1    0    0    0  0.11444605379E+02  0.52918532560E+02  0.29578719202E+02  0.62500003548E+02  0.99999866654E+01 0.  0.
    3000022    2    5    5    0    0  0.26056782804E+01  0.33907677552E+02  0.19701146814E+02  0.39302898629E+02  0.24999703928E+00 0.  0.
        -13    1    4    4    0    0  0.31765931274E+00 -0.35724658747E+01 -0.82137113964E+00  0.36809095906E+01  0.10500000000E+00 0.  1.
         13    1    4    4    0    0  0.37504047372E+00 -0.57491905405E+01 -0.14057438265E+01  0.59313563317E+01  0.10500000000E+00 0. -1.
    3000001    1    5    5    0    0  0.88389270984E+01  0.19010855008E+02  0.98775723877E+01  0.23197104920E+02  0.10000000000E+01 0.  1.
        -13    1    6    6    0    0  0.96357639081E+00  0.13058870263E+02  0.76399031342E+01  0.15160531551E+02  0.10500000000E+00 0.  1.
         13    1    6    6    0    0  0.16421018895E+01  0.20848807289E+02  0.12061243680E+02  0.24142367078E+02  0.10500000000E+00 0. -1.
</event>
<event>
11    0  0.3443539E-009  0.9118800E+02  0.7816531E-02  0.1126479E+00
         25   -1    0    0    0    0  0.00000000000E+00  0.00000000000E+00  0.99999998245E-14  0.12500000000E+03  0.12500000000E+03 0.  0.
    3000001    1    3    3    0    0  0.23897540833E+02 -0.12084031409E+02 -0.13035431147E+02  0.29799978828E+02  0.10000000000E+01 0. -1.
    1000022    2    1    0    0    0  0.44287971637E+02 -0.23794365807E+02 -0.35758265379E+02  0.62499998653E+02  0.10000000639E+02 0.  0.
    3000022    2    3    3    0    0  0.20390430804E+02 -0.11710334397E+02 -0.22722834232E+02  0.32700019824E+02  0.25000181971E+00 0.  0.
    1000022    2    1    0    0    0 -0.44287971637E+02  0.23794365807E+02  0.35758265379E+02  0.62500001347E+02  0.10000017481E+02 0.  0.
    3000022    2    5    5    0    0 -0.22690955387E+02  0.15092831628E+02  0.24373735390E+02  0.36562473881E+02  0.24999308950E+00 0.  0.
        -13    1    4    4    0    0  0.51770679019E+01 -0.29875587561E+01 -0.58127819937E+01  0.83382851287E+01  0.10500000000E+00 0.  1.
         13    1    4    4    0    0  0.15213362902E+02 -0.87227756411E+01 -0.16910052238E+02  0.24361734695E+02  0.10500000000E+00 0. -1.
    3000001    1    5    5    0    0 -0.21597016251E+02  0.87015341786E+01  0.11384529989E+02  0.25937527466E+02  0.10000000000E+01 0.  1.
        -13    1    6    6    0    0 -0.11745788391E+02  0.78277640736E+01  0.12535094013E+02  0.18877951219E+02  0.10500000000E+00 0.  1.
         13    1    6    6    0    0 -0.10945166995E+02  0.72650675544E+01  0.11838641377E+02  0.17684522662E+02  0.10500000000E+00 0. -1.
</event>
<event>
11    0  0.3443539E-009  0.9118800E+02  0.7816531E-02  0.1126479E+00
         25   -1    0    0    0    0  0.00000000000E+00  0.00000000000E+00  0.99999998245E-14  0.12500000000E+03  0.12500000000E+03 0.  0.
    3000001    1    3    3    0    0  0.13163232581E+02  0.57690910652E+02 -0.17087821219E+02  0.61599557611E+02  0.10000000000E+01 0.  1.
    1000022    2    1    0    0    0  0.13613178786E+02  0.57901933477E+02 -0.16379786661E+02  0.62500000275E+02  0.10000004316E+02 0.  0.
    3000022    2    3    3    0    0  0.44994620521E+00  0.21102282476E+00  0.70803455806E+00  0.90044266436E+00  0.25000367243E+00 0.  0.
    1000022    2    1    0    0    0 -0.13613178786E+02 -0.57901933477E+02  0.16379786661E+02  0.62499999725E+02  0.10000000877E+02 0.  0.
    3000022    2    5    5    0    0 -0.77894222555E+01 -0.44646895390E+02  0.89539901113E+01  0.46198017355E+02  0.25000304229E+00 0.  0.
        -13    1    4    4    0    0  0.30392301590E+00  0.17332764299E+00  0.39949470013E+00  0.54132493647E+00  0.10500000000E+00 0. -1.
         13    1    4    4    0    0  0.14602318931E+00  0.37695181768E-01  0.30853985793E+00  0.35911772788E+00  0.10500000000E+00 0.  1.
    3000001    1    5    5    0    0 -0.58237565310E+01 -0.13255038086E+02  0.74257965496E+01  0.16301982370E+02  0.10000000000E+01 0. -1.
        -13    1    6    6    0    0 -0.31529755093E+01 -0.17980206801E+02  0.36690327588E+01  0.18619933339E+02  0.10500000000E+00 0. -1.
         13    1    6    6    0    0 -0.46364467461E+01 -0.26666688589E+02  0.52849573524E+01  0.27578084016E+02  0.10500000000E+00 0.  1.
</event>
<event>
11    0  0.3443539E-009  0.9118800E+02  0.7816531E-02  0.1126479E+00
         25   -1    0    0    0    0  0.00000000000E+00  0.00000000000E+00  0.99999998245E-14  0.12500000000E+03  0.12500000000E+03 0.  0.
    3000001    1    3    3    0    0  0.67895687636E+01  0.25037710281E+02  0.86039406147E+01  0.27349825853E+02  0.10000000000E+01 0.  1.
    1000022    2    1    0    0    0  0.23782743359E+02  0.55585423761E+02  0.12283805873E+02  0.62499999174E+02  0.99999896860E+01 0.  0.
    3000022    2    3    3    0    0  0.16993174596E+02  0.30547713480E+02  0.36798652581E+01  0.35150173321E+02  0.24998899419E+00 0.  0.
    1000022    2    1    0    0    0 -0.23782743359E+02 -0.55585423761E+02 -0.12283805873E+02  0.62500000826E+02  0.10000000005E+02 0.  0.
    3000022    2    5    5    0    0 -0.92244318082E+01 -0.11162847194E+02 -0.38668758634E+01  0.14990481202E+02  0.24999614052E+00 0.  0.
        -13    1    4    4    0    0  0.78958607816E+01  0.14118141962E+02  0.16464123456E+01  0.16260019943E+02  0.10500000000E+00 0. -1.
         13    1    4    4    0    0  0.90973138140E+01  0.16429571518E+02  0.20334529125E+01  0.18890153378E+02  0.10500000000E+00 0.  1.
    3000001    1    5    5    0    0 -0.14558311551E+02 -0.44422576567E+02 -0.84169300094E+01  0.47509519623E+02  0.10000000000E+01 0. -1.
        -13    1    6    6    0    0 -0.34308172259E+01 -0.41035603922E+01 -0.14811012630E+01  0.55510720299E+01  0.10500000000E+00 0.  1.
         13    1    6    6    0    0 -0.57936145823E+01 -0.70592868020E+01 -0.23857746004E+01  0.94394091724E+01  0.10500000000E+00 0. -1.
</event>
<event>
11    0  0.3443539E-009  0.9118800E+02  0.7816531E-02  0.1126479E+00
         25   -1    0    0    0    0  0.00000000000E+00  0.00000000000E+00  0.99999998245E-14  0.12500000000E+03  0.12500000000E+03 0.  0.
    3000001    1    3    3    0    0  0.29958462623E+02  0.43416452895E+02 -0.15956140148E+02  0.55118928447E+02  0.10000000000E+01 0. -1.
    1000022    2    1    0    0    0  0.36282168457E+02  0.47209510296E+02 -0.16159102838E+02  0.62500001487E+02  0.99999985528E+01 0.  0.
    3000022    2    3    3    0    0  0.63237058337E+01  0.37930574004E+01 -0.20296269071E+00  0.73810730399E+01  0.25001090551E+00 0.  0.
    1000022    2    1    0    0    0 -0.36282168457E+02 -0.47209510296E+02  0.16159102838E+02  0.62499998513E+02  0.99999799631E+01 0.  0.
    3000022    2    5    5    0    0 -0.17938094656E+02 -0.29594789166E+02  0.12453100858E+02  0.36780008335E+02  0.25001287230E+00 0.  0.
        -13    1    4    4    0    0  0.27795852645E+01  0.15994428643E+01 -0.11919810115E+00  0.32108480042E+01  0.10500000000E+00 0. -1.
         13    1    4    4    0    0  0.35441205692E+01  0.21936145361E+01 -0.83764589561E-01  0.41702250357E+01  0.10500000000E+00 0.  1.
    3000001    1    5    5    0    0 -0.18344073801E+02 -0.17614721129E+02  0.37060019804E+01  0.25719990178E+02  0.10000000000E+01 0. -1.
        -13    1    6    6    0    0 -0.98517452104E+01 -0.16381482420E+02  0.68716779093E+01  0.20313562766E+02  0.10500000000E+00 0.  1.
         13    1    6    6    0    0 -0.80863494454E+01 -0.13213306746E+02  0.55814229488E+01  0.16466445568E+02  0.10500000000E+00 0. -1.
</event>
<event>
11    0  0.3443539E-009  0.9118800E+02  0.7816531E-02  0.1126479E+00
         25   -1    0    0    0    0  0.00000000000E+00  0.00000000000E+00  0.99999998245E-14  0.12500000000E+03  0.12500000000E+03 0.  0.
    3000001    1    3    3    0    0 -0.14785892816E+02 -0.98416324428E+01 -0.43866760223E+02  0.47336803947E+02  0.10000000000E+01 0. -1.
    1000022    2    1    0    0    0 -0.23224534498E+02 -0.15935239870E+02 -0.54890246736E+02  0.62499998697E+02  0.99999888986E+01 0.  0.
    3000022    2    3    3    0    0 -0.84386416822E+01 -0.60936074271E+01 -0.11023486514E+02  0.15163194750E+02  0.24999036760E+00 0.  0.
    1000022    2    1    0    0    0  0.23224534498E+02  0.15935239870E+02  0.54890246736E+02  0.62500001303E+02  0.10000005188E+02 0.  0.
    3000022    2    5    5    0    0  0.13210681529E+02  0.36908676032E+01  0.30059450914E+02  0.33042059680E+02  0.25001707419E+00 0.  0.
        -13    1    4    4    0    0 -0.40049479898E+01 -0.29137422700E+01 -0.51503765989E+01  0.71461112871E+01  0.10500000000E+00 0.  1.
         13    1    4    4    0    0 -0.44336936924E+01 -0.31798651572E+01 -0.58731099149E+01  0.80170834628E+01  0.10500000000E+00 0. -1.
    3000001    1    5    5    0    0  0.10013852969E+02  0.12244372267E+02  0.24830795822E+02  0.29457941623E+02  0.10000000000E+01 0. -1.
        -13    1    6    6    0    0  0.41771195673E+01  0.11876728646E+01  0.96290803124E+01  0.10563574555E+02  0.10500000000E+00 0. -1.
         13    1    6    6    0    0  0.90335619615E+01  0.25031947386E+01  0.20430370602E+02  0.22478485125E+02  0.10500000000E+00 0.  1.
</event>
<event>
11    0  0.3443539E-009  0.9118800E+02  0.7816531E-02  0.1126479E+00
         25   -1    0    0    0    0  0.00000000000E+00  0.00000000000E+00  0.99999998245E-14  0.12500000000E+03  0.12500000000E+03 0.  0.
    3000001    1    3    3    0    0 -0.12026389374E+02 -0.72211649480E+01  0.10459461717E+01  0.14102243367E+02  0.10000000000E+01 0. -1.
    1000022    2    1    0    0    0 -0.41577982968E+02 -0.45537467636E+02  0.19648556189E+01  0.62499997726E+02  0.99999715924E+01 0.  0.
    3000022    2    3    3    0    0 -0.29551593593E+02 -0.38316302688E+02  0.91890944724E+00  0.48397754359E+02  0.24999376150E+00 0.  0.
    1000022    2    1    0    0    0  0.41577982968E+02  0.45537467636E+02 -0.19648556189E+01  0.62500002274E+02  0.10000000011E+02 0.  0.
    3000022    2    5    5    0    0  0.17353128443E+02  0.20048625846E+02  0.40082551037E+01  0.26818036461E+02  0.25001115571E+00 0.  0.
        -13    1    4    4    0    0 -0.19959530624E+02 -0.25963377345E+02  0.61854772514E+00  0.32754747017E+02  0.10500000000E+00 0.  1.
         13    1    4    4    0    0 -0.95920629693E+01 -0.12352925343E+02  0.30036172209E+00  0.15643007342E+02  0.10500000000E+00 0. -1.
    3000001    1    5    5    0    0  0.24224854525E+02  0.25488841790E+02 -0.59731107226E+01  0.35681965813E+02  0.10000000000E+01 0.  1.
        -13    1    6    6    0    0  0.10818594290E+02  0.12496611805E+02  0.25596538250E+01  0.16726330791E+02  0.10500000000E+00 0. -1.
         13    1    6    6    0    0  0.65345341527E+01  0.75520140403E+01  0.14486012786E+01  0.10091705670E+02  0.10500000000E+00 0.  1.
</event>
<event>
11    0  0.3443539E-009  0.9118800E+02  0.7816531E-02  0.1126479E+00
         25   -1    0    0    0    0  0.00000000000E+00  0.00000000000E+00  0.99999998245E-14  0.12500000000E+03  0.12500000000E+03 0.  0.
    3000001    1    3    3    0    0 -0.80143465810E+00 -0.25985451026E+02  0.14991034912E+01  0.26060185606E+02  0.10000000000E+01 0.  1.
    1000022    2    1    0    0    0  0.10491800069E+01 -0.61210753666E+02 -0.76415145363E+01  0.62500000626E+02  0.10000009538E+02 0.  0.
    3000022    2    3    3    0    0  0.18506146650E+01 -0.35225302640E+02 -0.91406180275E+01  0.36439815020E+02  0.25000007088E+00 0.  0.
    1000022    2    1    0    0    0 -0.10491800069E+01  0.61210753666E+02  0.76415145363E+01  0.62499999374E+02  0.10000001716E+02 0.  0.
    3000022    2    5    5    0    0 -0.39027069176E+01  0.31395530780E+02  0.27331803959E+00  0.31639337502E+02  0.25000115099E+00 0.  0.
        -13    1    4    4    0    0  0.72281724480E+00 -0.13344910386E+02 -0.34046717590E+01  0.13791733494E+02  0.10500000000E+00 0. -1.
         13    1    4    4    0    0  0.11277974202E+01 -0.21880392254E+02 -0.57359462686E+01  0.22648081526E+02  0.10500000000E+00 0.  1.
    3000001    1    5    5    0    0  0.28535269107E+01  0.29815222886E+02  0.73681964967E+01  0.30860661872E+02  0.10000000000E+01 0.  1.
        -13    1    6    6    0    0 -0.29924716735E+01  0.24044998476E+02  0.19629206115E+00  0.24231516543E+02  0.10500000000E+00 0. -1.
         13    1    6    6    0    0 -0.91023524408E+00  0.73505323046E+01  0.77025978441E-01  0.74078209591E+01  0.10500000000E+00 0.  1.
</event>
<event>
11    0  0.3443539E-009  0.9118800E+02  0.7816531E-02  0.1126479E+00
         25   -1    0    0    0    0  0.00000000000E+00  0.00000000000E+00  0.99999998245E-14  0.12500000000E+03  0.12500000000E+03 0.  0.
    3000001    1    3    3    0    0  0.21401549543E+01 -0.60467213347E+01 -0.75396636539E+00  0.65354087407E+01  0.10000000000E+01 0. -1.
    1000022    2    1    0    0    0  0.33079445685E+02 -0.44028850169E+02 -0.27811153241E+02  0.62500001866E+02  0.10000030736E+02 0.  0.
    3000022    2    3    3    0    0  0.30939290730E+02 -0.37982128834E+02 -0.27057186876E+02  0.55964593126E+02  0.25000087285E+00 0.  0.
    1000022    2    1    0    0    0 -0.33079445685E+02  0.44028850169E+02  0.27811153241E+02  0.62499998134E+02  0.10000007405E+02 0.  0.
    3000022    2    5    5    0    0 -0.23224994043E+01  0.10823985120E+00  0.10060437480E+01  0.25456517516E+01  0.24999893755E+00 0.  0.
        -13    1    4    4    0    0  0.10466363677E+02 -0.12859495459E+02 -0.92195375877E+01  0.18971618023E+02  0.10500000000E+00 0.  1.
         13    1    4    4    0    0  0.20472927053E+02 -0.25122633374E+02 -0.17837649288E+02  0.36992975102E+02  0.10500000000E+00 0. -1.
    3000001    1    5    5    0    0 -0.30756946280E+02  0.43920610317E+02  0.26805109493E+02  0.59954346382E+02  0.10000000000E+01 0.  1.
        -13    1    6    6    0    0 -0.16902173307E+01  0.57333330785E-01  0.76263353982E+00  0.18581594797E+01  0.10500000000E+00 0. -1.
         13    1    6    6    0    0 -0.63228207366E+00  0.50906520413E-01  0.24341020822E+00  0.68749227193E+00  0.10500000000E+00 0.  1.
</event>
<event>
11    0  0.3443539E-009  0.9118800E+02  0.7816531E-02  0.1126479E+00
         25   -1    0    0    0    0  0.00000000000E+00  0.00000000000E+00  0.99999998245E-14  0.12500000000E+03  0.12500000000E+03 0.  0.
    3000001    1    3    3    0    0  0.63568393627E+01 -0.27524562869E+02  0.26772221137E+01  0.28393282411E+02  0.10000000000E+01 0. -1.
    1000022    2    1    0    0    0  0.18850101273E+02 -0.58634757317E+02 -0.35901353706E+01  0.62499998295E+02  0.99999815620E+01 0.  0.
    3000022    2    3    3    0    0  0.12493261910E+02 -0.31110194448E+02 -0.62673574844E+01  0.34106715884E+02  0.25001360804E+00 0.  0.
    1000022    2    1    0    0    0 -0.18850101273E+02  0.58634757317E+02  0.35901353706E+01  0.62500001705E+02  0.10000002879E+02 0.  0.
    3000022    2    5    5    0    0 -0.19416387385E+02  0.54719586530E+02  0.47534054797E+01  0.58257073518E+02  0.25000429735E+00 0.  0.
        -13    1    4    4    0    0  0.58917987079E+01 -0.14699306586E+02 -0.30283444443E+01  0.16123423991E+02  0.10500000000E+00 0. -1.
         13    1    4    4    0    0  0.66014632019E+01 -0.16410887863E+02 -0.32390130401E+01  0.17983291893E+02  0.10500000000E+00 0.  1.
    3000001    1    5    5    0    0  0.56628611291E+00  0.39151707872E+01 -0.11632701091E+01  0.42429281871E+01  0.10000000000E+01 0.  1.
        -13    1    6    6    0    0 -0.72558776571E+01  0.20284092556E+02  0.17868269344E+01  0.21617029095E+02  0.10500000000E+00 0. -1.
         13    1    6    6    0    0 -0.12160509728E+02  0.34435493974E+02  0.29665785452E+01  0.36640044424E+02  0.10500000000E+00 0.  1.
</event>
<event>
11    0  0.3443539E-009  0.9118800E+02  0.7816531E-02  0.1126479E+00
         25   -1    0    0    0    0  0.00000000000E+00  0.00000000000E+00  0.99999998245E-14  0.12500000000E+03  0.12500000000E+03 0.  0.
    3000001    1    3    3    0    0 -0.27641745408E+02 -0.34089757282E+02  0.10024160473E+02  0.45029561778E+02  0.10000000000E+01 0. -1.
    1000022    2    1    0    0    0 -0.35246300720E+02 -0.49794245540E+02  0.91913735339E+01  0.62500000830E+02  0.10000007652E+02 0.  0.
    3000022    2    3    3    0    0 -0.76045553124E+01 -0.15704488258E+02 -0.83278693899E+00  0.17470439052E+02  0.24998732460E+00 0.  0.
    1000022    2    1    0    0    0  0.35246300720E+02  0.49794245540E+02 -0.91913735339E+01  0.62499999170E+02  0.99999972707E+01 0.  0.
    3000022    2    5    5    0    0  0.21101733087E+02  0.37491714210E+02 -0.72089198074E+01  0.43622732592E+02  0.25000071567E+00 0.  0.
        -13    1    4    4    0    0 -0.44288593939E+01 -0.92929442412E+01 -0.49328772531E+00  0.10306695202E+02  0.10500000000E+00 0.  1.
         13    1    4    4    0    0 -0.31756959185E+01 -0.64115440163E+01 -0.33949921368E+00  0.71637438505E+01  0.10500000000E+00 0. -1.
    3000001    1    5    5    0    0  0.14144567633E+02  0.12302531330E+02 -0.19824537265E+01  0.18877266577E+02  0.10000000000E+01 0.  1.
        -13    1    6    6    0    0  0.10344852576E+02  0.18490396334E+02 -0.35089717960E+01  0.21476373984E+02  0.10500000000E+00 0.  1.
         13    1    6    6    0    0  0.10756880512E+02  0.19001317875E+02 -0.36999480114E+01  0.22146358609E+02  0.10500000000E+00 0. -1.
</event>
<event>
11    0  0.3443539E-009  0.9118800E+02  0.7816531E-02  0.1126479E+00
         25   -1    0    0    0    0  0.00000000000E+00  0.00000000000E+00  0.99999998245E-14  0.12500000000E+03  0.12500000000E+03 0.  0.
    3000001    1    3    3    0    0  0.27620221541E+02 -0.14725239878E+02 -0.20107804586E+02  0.37216033274E+02  0.10000000000E+01 0. -1.
    1000022    2    1    0    0    0  0.45999045496E+02 -0.17360803367E+02 -0.37268492184E+02  0.62500001819E+02  0.10000001881E+02 0.  0.
    3000022    2    3    3    0    0  0.18378823955E+02 -0.26355634888E+01 -0.17160687599E+02  0.25283968544E+02  0.25000327422E+00 0.  0.
    1000022    2    1    0    0    0 -0.45999045496E+02  0.17360803367E+02  0.37268492184E+02  0.62499998181E+02  0.99999791460E+01 0.  0.
    3000022    2    5    5    0    0 -0.41235296230E+00 -0.29698148072E+00  0.23433648862E+01  0.24108276209E+01  0.24999572445E+00 0.  0.
        -13    1    4    4    0    0  0.13830491609E+02 -0.19876642838E+01 -0.12880357052E+02  0.19003892502E+02  0.10500000000E+00 0.  1.
         13    1    4    4    0    0  0.45483323463E+01 -0.64789920497E+00 -0.42803305461E+01  0.62800760422E+01  0.10500000000E+00 0. -1.
    3000001    1    5    5    0    0 -0.45586692533E+02  0.17657784847E+02  0.34925127298E+02  0.60089170560E+02  0.10000000000E+01 0. -1.
        -13    1    6    6    0    0 -0.11031691413E+00 -0.44944829662E-01  0.61818129200E+00  0.63824992678E+00  0.10500000000E+00 0. -1.
         13    1    6    6    0    0 -0.30203604817E+00 -0.25203665106E+00  0.17251835942E+01  0.17725776941E+01  0.10500000000E+00 0.  1.
</event>
<event>
11    0  0.3443539E-009  0.9118800E+02  0.7816531E-02  0.1126479E+00
         25   -1    0    0    0    0  0.00000000000E+00  0.00000000000E+00  0.99999998245E-14  0.12500000000E+03  0.12500000000E+03 0.  0.
    3000001    1    3    3    0    0  0.27316086182E+02 -0.44456507500E+01  0.37229805026E+02  0.46400331434E+02  0.10000000000E+01 0. -1.
    1000022    2    1    0    0    0  0.40814240064E+02 -0.53654105809E+01  0.45952803592E+02  0.62499999696E+02  0.99999990678E+01 0.  0.
    3000022    2    3    3    0    0  0.13498153882E+02 -0.91975983088E+00  0.87229985660E+01  0.16099668262E+02  0.24999560870E+00 0.  0.
    1000022    2    1    0    0    0 -0.40814240064E+02  0.53654105809E+01 -0.45952803592E+02  0.62500000304E+02  0.10000002862E+02 0.  0.
    3000022    2    5    5    0    0 -0.79712117720E+01 -0.27668596838E+01 -0.10671074798E+02  0.13606251074E+02  0.25000261961E+00 0.  0.
        -13    1    4    4    0    0  0.10014406391E+02 -0.66706466984E+00  0.64385309921E+01  0.11924722930E+02  0.10500000000E+00 0. -1.
         13    1    4    4    0    0  0.34837474916E+01 -0.25269516104E+00  0.22844675739E+01  0.41749453321E+01  0.10500000000E+00 0.  1.
    3000001    1    5    5    0    0 -0.32843028292E+02  0.81322702646E+01 -0.35281728795E+02  0.48893749230E+02  0.10000000000E+01 0. -1.
        -13    1    6    6    0    0 -0.39477848393E+01 -0.14392360211E+01 -0.52829684158E+01  0.67510877452E+01  0.10500000000E+00 0.  1.
         13    1    6    6    0    0 -0.40234269327E+01 -0.13276236627E+01 -0.53881063821E+01  0.68551633283E+01  0.10500000000E+00 0. -1.
</event>
<event>
11    0  0.3443539E-009  0.9118800E+02  0.7816531E-02  0.1126479E+00
         25   -1    0    0    0    0  0.00000000000E+00  0.00000000000E+00  0.99999998245E-14  0.12500000000E+03  0.12500000000E+03 0.  0.
    3000001    1    3    3    0    0  0.37106945468E+01  0.20354896360E+02 -0.30727064793E+02  0.37057301179E+02  0.10000000000E+01 0. -1.
    1000022    2    1    0    0    0 -0.13597537980E+01  0.31514955060E+02 -0.53020823692E+02  0.62499992532E+02  0.99999999390E+01 0.  0.
    3000022    2    3    3    0    0 -0.50704483449E+01  0.11160058700E+02 -0.22293758899E+02  0.25442691354E+02  0.25000177128E+00 0.  0.
    1000022    2    1    0    0    0  0.13597537980E+01 -0.31514955060E+02  0.53020823692E+02  0.62500007468E+02  0.10000093285E+02 0.  0.
    3000022    2    5    5    0    0  0.94211540698E+00 -0.23652332525E+02  0.30416806200E+02  0.38543028073E+02  0.24999662675E+00 0.  0.
        -13    1    4    4    0    0 -0.36993841809E+01  0.80496701213E+01 -0.16121642884E+02  0.18395679565E+02  0.10500000000E+00 0. -1.
         13    1    4    4    0    0 -0.13710641639E+01  0.31103885784E+01 -0.61721160148E+01  0.70470117887E+01  0.10500000000E+00 0.  1.
    3000001    1    5    5    0    0  0.41763839106E+00 -0.78626225347E+01  0.22604017492E+02  0.23956979395E+02  0.10000000000E+01 0. -1.
        -13    1    6    6    0    0  0.45725829343E+00 -0.12488688501E+02  0.16146509839E+02  0.20418061382E+02  0.10500000000E+00 0.  1.
         13    1    6    6    0    0  0.48485711356E+00 -0.11163644024E+02  0.14270296360E+02  0.18124966691E+02  0.10500000000E+00 0. -1.
</event>
<event>
11    0  0.3443539E-009  0.9118800E+02  0.7816531E-02  0.1126479E+00
         25   -1    0    0    0    0  0.00000000000E+00  0.00000000000E+00  0.99999998245E-14  0.12500000000E+03  0.12500000000E+03 0.  0.
    3000001    1    3    3    0    0 -0.31075262787E+02 -0.12250383271E+02  0.22487888706E+02  0.40279634879E+02  0.10000000000E+01 0.  1.
    1000022    2    1    0    0    0 -0.43986136616E+02 -0.16081907600E+02  0.40160205144E+02  0.62499998001E+02  0.99999853198E+01 0.  0.
    3000022    2    3    3    0    0 -0.12910873829E+02 -0.38315243290E+01  0.17672316439E+02  0.22220363121E+02  0.25005444463E+00 0.  0.
    1000022    2    1    0    0    0  0.43986136616E+02  0.16081907600E+02 -0.40160205144E+02  0.62500001999E+02  0.10000010310E+02 0.  0.
    3000022    2    5    5    0    0  0.42579252730E+02  0.16953802996E+02 -0.39339140770E+02  0.60399128240E+02  0.24999292191E+00 0.  0.
        -13    1    4    4    0    0 -0.51164346652E+01 -0.15585274638E+01  0.71008525481E+01  0.88904467519E+01  0.10500000000E+00 0.  1.
         13    1    4    4    0    0 -0.77944391637E+01 -0.22729968652E+01  0.10571463891E+02  0.13329916370E+02  0.10500000000E+00 0. -1.
    3000001    1    5    5    0    0  0.14068838857E+01 -0.87189539513E+00 -0.82106437397E+00  0.21008737596E+01  0.10000000000E+01 0. -1.
        -13    1    6    6    0    0  0.22961367562E+02  0.90888768539E+01 -0.21137793699E+02  0.32506144500E+02  0.10500000000E+00 0.  1.
         13    1    6    6    0    0  0.19617885168E+02  0.78649261417E+01 -0.18201347071E+02  0.27892983739E+02  0.10500000000E+00 0. -1.
</event>
<event>
11    0  0.3443539E-009  0.9118800E+02  0.7816531E-02  0.1126479E+00
         25   -1    0    0    0    0  0.00000000000E+00  0.00000000000E+00  0.99999998245E-14  0.12500000000E+03  0.12500000000E+03 0.  0.
    3000001    1    3    3    0    0  0.57888413194E+01  0.33318815066E+01  0.10963316222E+02  0.12876584204E+02  0.10000000000E+01 0.  1.
    1000022    2    1    0    0    0  0.39995432139E+02  0.23963161792E+02  0.40402751306E+02  0.62500000248E+02  0.10000000144E+02 0.  0.
    3000022    2    3    3    0    0  0.34206590820E+02  0.20631280285E+02  0.29439435084E+02  0.49623416044E+02  0.25000013437E+00 0.  0.
    1000022    2    1    0    0    0 -0.39995432139E+02 -0.23963161792E+02 -0.40402751306E+02  0.62499999752E+02  0.99999970396E+01 0.  0.
    3000022    2    5    5    0    0 -0.30423262928E+02 -0.13943673139E+02 -0.25117658821E+02  0.41844476796E+02  0.25001185927E+00 0.  0.
        -13    1    4    4    0    0  0.18419152032E+02  0.11149157463E+02  0.15939105822E+02  0.26788710180E+02  0.10500000000E+00 0.  1.
         13    1    4    4    0    0  0.15787438788E+02  0.94821228226E+01  0.13500329262E+02  0.22834705864E+02  0.10500000000E+00 0. -1.
    3000001    1    5    5    0    0 -0.95721692115E+01 -0.10019488653E+02 -0.15285092485E+02  0.20655522956E+02  0.10000000000E+01 0. -1.
        -13    1    6    6    0    0 -0.90606724743E+01 -0.41146687713E+01 -0.74327360309E+01  0.12421065763E+02  0.10500000000E+00 0. -1.
         13    1    6    6    0    0 -0.21362590454E+02 -0.98290043673E+01 -0.17684922790E+02  0.29423411033E+02  0.10500000000E+00 0.  1.
</event>
<event>
11    0  0.3443539E-009  0.9118800E+02  0.7816531E-02  0.1126479E+00
         25   -1    0    0    0    0  0.00000000000E+00  0.00000000000E+00  0.99999998245E-14  0.12500000000E+03  0.12500000000E+03 0.  0.
    3000001    1    3    3    0    0  0.53252136589E+01  0.57866197921E+01  0.59673074571E+00  0.79497771487E+01  0.10000000000E+01 0. -1.
    1000022    2    1    0    0    0  0.46490259942E+02  0.31757466822E+02  0.25226356868E+02  0.62500000947E+02  0.10000003455E+02 0.  0.
    3000022    2    3    3    0    0  0.41165046283E+02  0.25970847030E+02  0.24629626122E+02  0.54550223798E+02  0.25000514589E+00 0.  0.
    1000022    2    1    0    0    0 -0.46490259942E+02 -0.31757466822E+02 -0.25226356868E+02  0.62499999053E+02  0.99999916195E+01 0.  0.
    3000022    2    5    5    0    0 -0.30867460351E+02 -0.19506708533E+02 -0.21181817419E+02  0.42214259109E+02  0.24999328881E+00 0.  0.
        -13    1    4    4    0    0  0.24617068192E+02  0.15572860715E+02  0.14681481287E+02  0.32620100475E+02  0.10500000000E+00 0. -1.
         13    1    4    4    0    0  0.16547978091E+02  0.10397986315E+02  0.99481448348E+01  0.21930123323E+02  0.10500000000E+00 0.  1.
    3000001    1    5    5    0    0 -0.15622799591E+02 -0.12250758290E+02 -0.40445394485E+01  0.20285739944E+02  0.10000000000E+01 0.  1.
        -13    1    6    6    0    0 -0.15587412566E+02 -0.97705211633E+01 -0.10665240986E+02  0.21264733823E+02  0.10500000000E+00 0. -1.
         13    1    6    6    0    0 -0.15280047785E+02 -0.97361873694E+01 -0.10516576433E+02  0.20949525286E+02  0.10500000000E+00 0.  1.
</event>
<event>
11    0  0.3443539E-009  0.9118800E+02  0.7816531E-02  0.1126479E+00
         25   -1    0    0    0    0  0.00000000000E+00  0.00000000000E+00  0.99999998245E-14  0.12500000000E+03  0.12500000000E+03 0.  0.
    3000001    1    3    3    0    0  0.29968548071E+02 -0.29767296234E+02 -0.21776684894E+02  0.47533459832E+02  0.10000000000E+01 0. -1.
    1000022    2    1    0    0    0  0.42089734499E+02 -0.38299353805E+02 -0.23829892925E+02  0.62500000944E+02  0.10000003454E+02 0.  0.
    3000022    2    3    3    0    0  0.12121186428E+02 -0.85320575706E+01 -0.20532080315E+01  0.14966541112E+02  0.25004567054E+00 0.  0.
    1000022    2    1    0    0    0 -0.42089734499E+02  0.38299353805E+02  0.23829892925E+02  0.62499999056E+02  0.99999916554E+01 0.  0.
    3000022    2    5    5    0    0 -0.22457095389E+01  0.14949253285E+01  0.38064970255E+01  0.46722491097E+01  0.24995813081E+00 0.  0.
        -13    1    4    4    0    0  0.82908770612E+01 -0.57754097149E+01 -0.13896164445E+01  0.10199806796E+02  0.10500000000E+00 0.  1.
         13    1    4    4    0    0  0.38303093666E+01 -0.27566478557E+01 -0.66359158692E+00  0.47667343159E+01  0.10500000000E+00 0. -1.
    3000001    1    5    5    0    0 -0.39844024960E+02  0.36804428477E+02  0.20023395900E+02  0.57827749946E+02  0.10000000000E+01 0. -1.
        -13    1    6    6    0    0 -0.96183975133E+00  0.71674351638E+00  0.16597115922E+01  0.20504937319E+01  0.10500000000E+00 0.  1.
         13    1    6    6    0    0 -0.12838697875E+01  0.77818181208E+00  0.21467854333E+01  0.26217553778E+01  0.10500000000E+00 0. -1.
</event>
<event>
11    0  0.3443539E-009  0.9118800E+02  0.7816531E-02  0.1126479E+00
         25   -1    0    0    0    0  0.00000000000E+00  0.00000000000E+00  0.99999998245E-14  0.12500000000E+03  0.12500000000E+03 0.  0.
    3000001    1    3    3    0    0 -0.10629468012E+02 -0.89025586014E+00 -0.32407979911E+02  0.34132906522E+02  0.10000000000E+01 0.  1.
    1000022    2    1    0    0    0 -0.17168319786E+02 -0.10303665449E+02 -0.58355240223E+02  0.62499994493E+02  0.99999262063E+01 0.  0.
    3000022    2    3    3    0    0 -0.65388517746E+01 -0.94134095890E+01 -0.25947260312E+02  0.28367087971E+02  0.24999927102E+00 0.  0.
    1000022    2    1    0    0    0  0.17168319786E+02  0.10303665449E+02  0.58355240223E+02  0.62500005507E+02  0.99999950451E+01 0.  0.
    3000022    2    5    5    0    0  0.19698267710E+01  0.59742523002E+01  0.21101978037E+02  0.22021078253E+02  0.25000456633E+00 0.  0.
        -13    1    4    4    0    0 -0.34264455350E+01 -0.49986062262E+01 -0.13857381204E+02  0.15124967175E+02  0.10500000000E+00 0.  1.
         13    1    4    4    0    0 -0.31124062396E+01 -0.44148033627E+01 -0.12089879108E+02  0.13242120796E+02  0.10500000000E+00 0. -1.
    3000001    1    5    5    0    0  0.15198493015E+02  0.43294131489E+01  0.37253262186E+02  0.40478927254E+02  0.10000000000E+01 0. -1.
        -13    1    6    6    0    0  0.10743051038E+01  0.30425244713E+01  0.10839290174E+02  0.11309833027E+02  0.10500000000E+00 0. -1.
         13    1    6    6    0    0  0.89552166723E+00  0.29317278289E+01  0.10262687863E+02  0.10711245226E+02  0.10500000000E+00 0.  1.
</event>
<event>
11    0  0.3443539E-009  0.9118800E+02  0.7816531E-02  0.1126479E+00
         25   -1    0    0    0    0  0.00000000000E+00  0.00000000000E+00  0.99999998245E-14  0.12500000000E+03  0.12500000000E+03 0.  0.
    3000001    1    3    3    0    0  0.18225343231E+02 -0.28402120640E+02  0.26081978450E+02  0.42662784632E+02  0.10000000000E+01 0. -1.
    1000022    2    1    0    0    0  0.28726784967E+02 -0.44061427690E+02  0.32243023712E+02  0.62499999616E+02  0.99999894622E+01 0.  0.
    3000022    2    3    3    0    0  0.10501441736E+02 -0.15659307050E+02  0.61610452616E+01  0.19837214983E+02  0.24988745199E+00 0.  0.
    1000022    2    1    0    0    0 -0.28726784967E+02  0.44061427690E+02 -0.32243023712E+02  0.62500000384E+02  0.99999942659E+01 0.  0.
    3000022    2    5    5    0    0 -0.27909318029E+02  0.37790645985E+02 -0.26735857836E+02  0.54054893436E+02  0.24990665630E+00 0.  0.
        -13    1    4    4    0    0  0.29357926788E+01 -0.43669299455E+01  0.16789123434E+01  0.55243757528E+01  0.10500000000E+00 0. -1.
         13    1    4    4    0    0  0.75656490574E+01 -0.11292377105E+02  0.44821329182E+01  0.14312839230E+02  0.10500000000E+00 0.  1.
    3000001    1    5    5    0    0 -0.81746693842E+00  0.62707817051E+01 -0.55071658756E+01  0.84451069484E+01  0.10000000000E+01 0. -1.
        -13    1    6    6    0    0 -0.18672391608E+02  0.25366130267E+02 -0.17903324287E+02  0.36230357693E+02  0.10500000000E+00 0. -1.
         13    1    6    6    0    0 -0.92369264207E+01  0.12424515718E+02 -0.88325335495E+01  0.17824535743E+02  0.10500000000E+00 0.  1.
</event>
<event>
11    0  0.3443539E-009  0.9118800E+02  0.7816531E-02  0.1126479E+00
         25   -1    0    0    0    0  0.00000000000E+00  0.00000000000E+00  0.99999998245E-14  0.12500000000E+03  0.12500000000E+03 0.  0.
    3000001    1    3    3    0    0 -0.21345272547E+02  0.19419294560E+02 -0.27393855343E+02  0.39801419219E+02  0.10000000000E+01 0. -1.
    1000022    2    1    0    0    0 -0.27054177417E+02  0.29837425173E+02 -0.46733815077E+02  0.62499999929E+02  0.10000003141E+02 0.  0.
    3000022    2    3    3    0    0 -0.57089048703E+01  0.10418130613E+02 -0.19339959734E+02  0.22698580710E+02  0.24996690051E+00 0.  0.
    1000022    2    1    0    0    0  0.27054177417E+02 -0.29837425173E+02  0.46733815077E+02  0.62500000071E+02  0.10000004024E+02 0.  0.
    3000022    2    5    5    0    0  0.11475271888E+02 -0.14771831116E+02  0.28849334760E+02  0.34383651481E+02  0.25002734742E+00 0.  0.
        -13    1    4    4    0    0 -0.33855296266E+01  0.60446971113E+01 -0.11290776368E+02  0.13247370683E+02  0.10500000000E+00 0.  1.
         13    1    4    4    0    0 -0.23233752436E+01  0.43734335021E+01 -0.80491833663E+01  0.94512100275E+01  0.10500000000E+00 0. -1.
    3000001    1    5    5    0    0  0.15578905529E+02 -0.15065594057E+02  0.17884480317E+02  0.28116348590E+02  0.10000000000E+01 0.  1.
        -13    1    6    6    0    0  0.75824372758E+01 -0.96724549189E+01  0.18975465737E+02  0.22608163661E+02  0.10500000000E+00 0.  1.
         13    1    6    6    0    0  0.38928346124E+01 -0.50993761967E+01  0.98738690229E+01  0.11775487820E+02  0.10500000000E+00 0. -1.
</event>
<event>
11    0  0.3443539E-009  0.9118800E+02  0.7816531E-02  0.1126479E+00
         25   -1    0    0    0    0  0.00000000000E+00  0.00000000000E+00  0.99999998245E-14  0.12500000000E+03  0.12500000000E+03 0.  0.
    3000001    1    3    3    0    0  0.23388488894E+02 -0.25596079200E+02  0.17660538078E+02  0.38923968045E+02  0.10000000000E+01 0.  1.
    1000022    2    1    0    0    0  0.42874338243E+02 -0.36732945710E+02  0.24874321081E+02  0.62500000156E+02  0.99999994979E+01 0.  0.
    3000022    2    3    3    0    0  0.19485849349E+02 -0.11136866510E+02  0.72137830031E+01  0.23576032111E+02  0.25000875939E+00 0.  0.
    1000022    2    1    0    0    0 -0.42874338243E+02  0.36732945710E+02 -0.24874321081E+02  0.62499999844E+02  0.99999975442E+01 0.  0.
    3000022    2    5    5    0    0 -0.32076885683E+02  0.32227474986E+02 -0.21396051760E+02  0.50253261270E+02  0.24999639929E+00 0.  0.
        -13    1    4    4    0    0  0.11548063633E+02 -0.65483544617E+01  0.43144622487E+01  0.13959381409E+02  0.10500000000E+00 0.  1.
         13    1    4    4    0    0  0.79377857156E+01 -0.45885120485E+01  0.28993207544E+01  0.96166507019E+01  0.10500000000E+00 0. -1.
    3000001    1    5    5    0    0 -0.10797452560E+02  0.45054707235E+01 -0.34782693211E+01  0.12246738574E+02  0.10000000000E+01 0.  1.
        -13    1    6    6    0    0 -0.18643827073E+02  0.18818622597E+02 -0.12443297757E+02  0.29267379938E+02  0.10500000000E+00 0.  1.
         13    1    6    6    0    0 -0.13433058611E+02  0.13408852390E+02 -0.89527540027E+01  0.20985881332E+02  0.10500000000E+00 0. -1.
</event>
<event>
11    0  0.3443539E-009  0.9118800E+02  0.7816531E-02  0.1126479E+00
         25   -1    0    0    0    0  0.00000000000E+00  0.00000000000E+00  0.99999998245E-14  0.12500000000E+03  0.12500000000E+03 0.  0.
    3000001    1    3    3    0    0  0.23474511998E+02  0.19262968970E+02 -0.34205174632E+02  0.45750504464E+02  0.10000000000E+01 0.  1.
    1000022    2    1    0    0    0  0.34888453000E+02  0.21031569114E+02 -0.46332705618E+02  0.62499997062E+02  0.99999485338E+01 0.  0.
    3000022    2    3    3    0    0  0.11413941002E+02  0.17686001446E+01 -0.12127530986E+02  0.16749492598E+02  0.24999761422E+00 0.  0.
    1000022    2    1    0    0    0 -0.34888453000E+02 -0.21031569114E+02  0.46332705618E+02  0.62500002938E+02  0.99999852612E+01 0.  0.
    3000022    2    5    5    0    0 -0.29137003345E+02 -0.13283000138E+02  0.38149261544E+02  0.49807948288E+02  0.24999951655E+00 0.  0.
        -13    1    4    4    0    0  0.87220219131E+01  0.13458295914E+01 -0.92860133843E+01  0.12811166735E+02  0.10500000000E+00 0.  1.
         13    1    4    4    0    0  0.26919190887E+01  0.42277055320E+00 -0.28415176015E+01  0.39383258626E+01  0.10500000000E+00 0. -1.
    3000001    1    5    5    0    0 -0.57514496551E+01 -0.77485689766E+01  0.81834440746E+01  0.12692054650E+02  0.10000000000E+01 0. -1.
        -13    1    6    6    0    0 -0.11393999933E+02 -0.51627240514E+01  0.14988453561E+02  0.19522851207E+02  0.10500000000E+00 0. -1.
         13    1    6    6    0    0 -0.17743003412E+02 -0.81202760862E+01  0.23160807983E+02  0.30285097081E+02  0.10500000000E+00 0.  1.
</event>
<event>
11    0  0.3443539E-009  0.9118800E+02  0.7816531E-02  0.1126479E+00
         25   -1    0    0    0    0  0.00000000000E+00  0.00000000000E+00  0.99999998245E-14  0.12500000000E+03  0.12500000000E+03 0.  0.
    3000001    1    3    3    0    0  0.19513704324E+01  0.16892015340E+02 -0.43255807111E+02  0.46488846809E+02  0.10000000000E+01 0.  1.
    1000022    2    1    0    0    0  0.21733876927E+01  0.17012386489E+02 -0.59263016076E+02  0.62499999654E+02  0.99999987118E+01 0.  0.
    3000022    2    3    3    0    0  0.22201726031E+00  0.12037114838E+00 -0.16007208965E+02  0.16011152845E+02  0.24999139440E+00 0.  0.
    1000022    2    1    0    0    0 -0.21733876927E+01 -0.17012386489E+02  0.59263016076E+02  0.62500000346E+02  0.10000003039E+02 0.  0.
    3000022    2    5    5    0    0 -0.24778112584E+01 -0.17745840741E+02  0.57995128371E+02  0.60700509285E+02  0.25000087785E+00 0.  0.
        -13    1    4    4    0    0  0.62454638800E-01  0.46262468401E-01 -0.90036449746E+01  0.90045926408E+01  0.10500000000E+00 0.  1.
         13    1    4    4    0    0  0.15956262151E+00  0.74108679984E-01 -0.70035639905E+01  0.70065602042E+01  0.10500000000E+00 0. -1.
    3000001    1    5    5    0    0  0.30442356571E+00  0.73345425234E+00  0.12678877045E+01  0.17994910611E+01  0.10000000000E+01 0.  1.
        -13    1    6    6    0    0 -0.15049602910E+01 -0.10389620394E+02  0.33857897789E+02  0.35448235289E+02  0.10500000000E+00 0.  1.
         13    1    6    6    0    0 -0.97285096741E+00 -0.73562203470E+01  0.24137230582E+02  0.25252273996E+02  0.10500000000E+00 0. -1.
</event>
<event>
11    0  0.3443539E-009  0.9118800E+02  0.7816531E-02  0.1126479E+00
         25   -1    0    0    0    0  0.00000000000E+00  0.00000000000E+00  0.99999998245E-14  0.12500000000E+03  0.12500000000E+03 0.  0.
    3000001    1    3    3    0    0 -0.17235092276E+01  0.54819945747E+01 -0.45097970724E+00  0.58503103568E+01  0.10000000000E+01 0. -1.
    1000022    2    1    0    0    0 -0.28773055847E+02  0.50206509298E+02  0.21393142501E+02  0.62500009072E+02  0.10000113465E+02 0.  0.
    3000022    2    3    3    0    0 -0.27049546619E+02  0.44724514724E+02  0.21844122208E+02  0.56649698716E+02  0.24999994711E+00 0.  0.
    1000022    2    1    0    0    0  0.28773055847E+02 -0.50206509298E+02 -0.21393142501E+02  0.62499990928E+02  0.10000000060E+02 0.  0.
    3000022    2    5    5    0    0  0.27087823758E+02 -0.47023187899E+02 -0.22271363842E+02  0.58660093136E+02  0.24996651111E+00 0.  0.
        -13    1    4    4    0    0 -0.19403206119E+02  0.32158875827E+02  0.15691362222E+02  0.40705129597E+02  0.10500000000E+00 0.  1.
         13    1    4    4    0    0 -0.76463405005E+01  0.12565638897E+02  0.61527599861E+01  0.15944569119E+02  0.10500000000E+00 0. -1.
    3000001    1    5    5    0    0  0.16852320890E+01 -0.31833213989E+01  0.87822134077E+00  0.38398977910E+01  0.10000000000E+01 0. -1.
        -13    1    6    6    0    0  0.17976518144E+02 -0.31227017743E+02 -0.14844688188E+02  0.38969958098E+02  0.10500000000E+00 0. -1.
         13    1    6    6    0    0  0.91113056135E+01 -0.15796170156E+02 -0.74266756536E+01  0.19690135039E+02  0.10500000000E+00 0.  1.
</event>
<event>
11    0  0.3443539E-009  0.9118800E+02  0.7816531E-02  0.1126479E+00
         25   -1    0    0    0    0  0.00000000000E+00  0.00000000000E+00  0.99999998245E-14  0.12500000000E+03  0.12500000000E+03 0.  0.
    3000001    1    3    3    0    0 -0.40992119378E+02  0.29697382995E+02  0.25802566414E+01  0.50694636129E+02  0.10000000000E+01 0. -1.
    1000022    2    1    0    0    0 -0.47168233539E+02  0.39442628014E+02  0.50682077617E+01  0.62499998990E+02  0.99999991971E+01 0.  0.
    3000022    2    3    3    0    0 -0.61761141607E+01  0.97452450197E+01  0.24879511203E+01  0.11805362861E+02  0.25000978503E+00 0.  0.
    1000022    2    1    0    0    0  0.47168233539E+02 -0.39442628014E+02 -0.50682077617E+01  0.62500001010E+02  0.10000011822E+02 0.  0.
    3000022    2    5    5    0    0  0.24055420265E-01 -0.14871372052E+01  0.75749750742E+00  0.16877353479E+01  0.24998480029E+00 0.  0.
        -13    1    4    4    0    0 -0.46069256778E+01  0.72200813561E+01  0.18624459435E+01  0.87654474433E+01  0.10500000000E+00 0. -1.
         13    1    4    4    0    0 -0.15691884829E+01  0.25251636636E+01  0.62550517672E+00  0.30399154181E+01  0.10500000000E+00 0.  1.
    3000001    1    5    5    0    0  0.47144178119E+02 -0.37955490809E+02 -0.58257052691E+01  0.60812265662E+02  0.10000000000E+01 0. -1.
        -13    1    6    6    0    0 -0.51206583011E-01 -0.56559692890E+00  0.29987634076E+00  0.65074789272E+00  0.10500000000E+00 0. -1.
         13    1    6    6    0    0  0.75262003276E-01 -0.92154027628E+00  0.45762116666E+00  0.10369874551E+01  0.10500000000E+00 0.  1.
</event>
<event>
11    0  0.3443539E-009  0.9118800E+02  0.7816531E-02  0.1126479E+00
         25   -1    0    0    0    0  0.00000000000E+00  0.00000000000E+00  0.99999998245E-14  0.12500000000E+03  0.12500000000E+03 0.  0.
    3000001    1    3    3    0    0 -0.32040540805E+01 -0.12860714175E+02  0.21570895159E+02  0.25337076580E+02  0.10000000000E+01 0.  1.
    1000022    2    1    0    0    0  0.40226139387E+01 -0.30907533087E+02  0.53242774436E+02  0.62499999581E+02  0.99999946762E+01 0.  0.
    3000022    2    3    3    0    0  0.72266680192E+01 -0.18046818912E+02  0.31671879276E+02  0.37162923001E+02  0.25001108840E+00 0.  0.
    1000022    2    1    0    0    0 -0.40226139387E+01  0.30907533087E+02 -0.53242774436E+02  0.62500000419E+02  0.99999999160E+01 0.  0.
    3000022    2    5    5    0    0  0.13703727344E+01  0.17690083730E+02 -0.23064519212E+02  0.29100713584E+02  0.25000158443E+00 0.  0.
        -13    1    4    4    0    0  0.44217467631E+01 -0.11074551391E+02  0.19542760550E+02  0.22893843012E+02  0.10500000000E+00 0. -1.
         13    1    4    4    0    0  0.28049212561E+01 -0.69722675214E+01  0.12129118726E+02  0.14269079988E+02  0.10500000000E+00 0.  1.
    3000001    1    5    5    0    0 -0.53929866731E+01  0.13217449358E+02 -0.30178255224E+02  0.33399286835E+02  0.10000000000E+01 0.  1.
        -13    1    6    6    0    0  0.60651291484E+00  0.86385290049E+01 -0.11213800885E+02  0.14168711889E+02  0.10500000000E+00 0.  1.
         13    1    6    6    0    0  0.76385981953E+00  0.90515547248E+01 -0.11850718327E+02  0.14932001695E+02  0.10500000000E+00 0. -1.
</event>
<event>
11    0  0.3443539E-009  0.9118800E+02  0.7816531E-02  0.1126479E+00
         25   -1    0    0    0    0  0.00000000000E+00  0.00000000000E+00  0.99999998245E-14  0.12500000000E+03  0.12500000000E+03 0.  0.
    3000001    1    3    3    0    0 -0.55443722616E+00  0.62917411516E+01  0.12527189549E+01  0.65163419290E+01  0.10000000000E+01 0. -1.
    1000022    2    1    0    0    0  0.98792110120E+01  0.50933496386E+02  0.33383078479E+02  0.62499998732E+02  0.10000002418E+02 0.  0.
    3000022    2    3    3    0    0  0.10433648238E+02  0.44641755235E+02  0.32130359524E+02  0.55983656803E+02  0.24999966986E+00 0.  0.
    1000022    2    1    0    0    0 -0.98792110120E+01 -0.50933496386E+02 -0.33383078479E+02  0.62500001268E+02  0.10000018272E+02 0.  0.
    3000022    2    5    5    0    0 -0.86732848093E+01 -0.27231757790E+02 -0.13916059762E+02  0.31788578504E+02  0.25000453898E+00 0.  0.
        -13    1    4    4    0    0  0.63701901717E+01  0.27471560270E+02  0.19809169610E+02  0.34462735993E+02  0.10500000000E+00 0. -1.
         13    1    4    4    0    0  0.40634580665E+01  0.17170194965E+02  0.12321189915E+02  0.21520920810E+02  0.10500000000E+00 0.  1.
    3000001    1    5    5    0    0 -0.12059262027E+01 -0.23701738596E+02 -0.19467018717E+02  0.30711422765E+02  0.10000000000E+01 0. -1.
        -13    1    6    6    0    0 -0.37614955950E+01 -0.11994619550E+02 -0.60817765824E+01  0.13964912412E+02  0.10500000000E+00 0.  1.
         13    1    6    6    0    0 -0.49117892143E+01 -0.15237138239E+02 -0.78342831797E+01  0.17823666092E+02  0.10500000000E+00 0. -1.
</event>
<event>
11    0  0.3443539E-009  0.9118800E+02  0.7816531E-02  0.1126479E+00
         25   -1    0    0    0    0  0.00000000000E+00  0.00000000000E+00  0.99999998245E-14  0.12500000000E+03  0.12500000000E+03 0.  0.
    3000001    1    3    3    0    0 -0.98973881186E+00 -0.44576425839E+01 -0.47948239746E+00  0.46989428270E+01  0.10000000000E+01 0. -1.
    1000022    2    1    0    0    0  0.17576939654E+02 -0.58958825557E+02  0.45998014402E+01  0.62499999385E+02  0.99999915567E+01 0.  0.
    3000022    2    3    3    0    0  0.18566678466E+02 -0.54501182973E+02  0.50792838376E+01  0.57801056558E+02  0.25004032066E+00 0.  0.
    1000022    2    1    0    0    0 -0.17576939654E+02  0.58958825557E+02 -0.45998014402E+01  0.62500000615E+02  0.99999992429E+01 0.  0.
    3000022    2    5    5    0    0 -0.11215592270E+02  0.39472029479E+02  0.15827460261E+01  0.41065779026E+02  0.25000176395E+00 0.  0.
        -13    1    4    4    0    0  0.12958778694E+02 -0.37974378771E+02  0.35815352358E+01  0.40284262534E+02  0.10500000000E+00 0. -1.
         13    1    4    4    0    0  0.56078997725E+01 -0.16526804202E+02  0.14977486018E+01  0.17516794024E+02  0.10500000000E+00 0.  1.
    3000001    1    5    5    0    0 -0.63613473846E+01  0.19486796078E+02 -0.61825474663E+01  0.21434221589E+02  0.10000000000E+01 0.  1.
        -13    1    6    6    0    0 -0.62165655093E+01  0.21873201551E+02  0.94357602475E+00  0.22759261708E+02  0.10500000000E+00 0.  1.
         13    1    6    6    0    0 -0.49990267604E+01  0.17598827928E+02  0.63917000132E+00  0.18306517318E+02  0.10500000000E+00 0. -1.
</event>
<event>
11    0  0.3443539E-009  0.9118800E+02  0.7816531E-02  0.1126479E+00
         25   -1    0    0    0    0  0.00000000000E+00  0.00000000000E+00  0.99999998245E-14  0.12500000000E+03  0.12500000000E+03 0.  0.
    3000001    1    3    3    0    0 -0.39571965354E+02 -0.23060880627E+02  0.24617224055E+02  0.52007233895E+02  0.10000000000E+01 0.  1.
    1000022    2    1    0    0    0 -0.49511223626E+02 -0.26162740038E+02  0.25892079120E+02  0.62499999963E+02  0.10000000150E+02 0.  0.
    3000022    2    3    3    0    0 -0.99392582721E+01 -0.31018594108E+01  0.12748550656E+01  0.10492766068E+02  0.24999503191E+00 0.  0.
    1000022    2    1    0    0    0  0.49511223626E+02  0.26162740038E+02 -0.25892079120E+02  0.62500000037E+02  0.10000000614E+02 0.  0.
    3000022    2    5    5    0    0  0.42352942086E+02  0.21464611378E+02 -0.25439213040E+02  0.53867590455E+02  0.24999281389E+00 0.  0.
        -13    1    4    4    0    0 -0.22800797027E+01 -0.71274905787E+00  0.28759815495E+00  0.24084252882E+01  0.10500000000E+00 0.  1.
         13    1    4    4    0    0 -0.76591785694E+01 -0.23891103529E+01  0.98725691065E+00  0.80843407798E+01  0.10500000000E+00 0. -1.
    3000001    1    5    5    0    0  0.71582815394E+01  0.46981286600E+01 -0.45286608051E+00  0.86324095819E+01  0.10000000000E+01 0.  1.
        -13    1    6    6    0    0  0.12669115345E+02  0.64509791869E+01 -0.76589450664E+01  0.16149058196E+02  0.10500000000E+00 0.  1.
         13    1    6    6    0    0  0.29683826742E+02  0.15013632191E+02 -0.17780267973E+02  0.37718532259E+02  0.10500000000E+00 0. -1.
</event>
<event>
11    0  0.3443539E-009  0.9118800E+02  0.7816531E-02  0.1126479E+00
         25   -1    0    0    0    0  0.00000000000E+00  0.00000000000E+00  0.99999998245E-14  0.12500000000E+03  0.12500000000E+03 0.  0.
    3000001    1    3    3    0    0  0.10065385226E+02 -0.41036458946E+02 -0.51518197787E+01  0.42577508025E+02  0.10000000000E+01 0. -1.
    1000022    2    1    0    0    0  0.11677816179E+02 -0.60560043134E+02 -0.15361681043E+01  0.62500000885E+02  0.10000004157E+02 0.  0.
    3000022    2    3    3    0    0  0.16124309526E+01 -0.19523584187E+02  0.36156516744E+01  0.19922492860E+02  0.25002324403E+00 0.  0.
    1000022    2    1    0    0    0 -0.11677816179E+02  0.60560043134E+02  0.15361681043E+01  0.62499999115E+02  0.99999930950E+01 0.  0.
    3000022    2    5    5    0    0 -0.80680681812E+01  0.37534104434E+02 -0.37657176947E+01  0.38576493381E+02  0.24998390054E+00 0.  0.
        -13    1    4    4    0    0  0.12011163220E+01 -0.14114535588E+02  0.26303005643E+01  0.14408063761E+02  0.10500000000E+00 0.  1.
         13    1    4    4    0    0  0.41131463058E+00 -0.54090485995E+01  0.98535111013E+00  0.55144290989E+01  0.10500000000E+00 0. -1.
    3000001    1    5    5    0    0 -0.36097479977E+01  0.23025938699E+02  0.53018857990E+01  0.23923505734E+02  0.10000000000E+01 0. -1.
        -13    1    6    6    0    0 -0.55036147896E+01  0.25519817493E+02 -0.25129085237E+01  0.26227401604E+02  0.10500000000E+00 0. -1.
         13    1    6    6    0    0 -0.25644533916E+01  0.12014286941E+02 -0.12528091710E+01  0.12349091777E+02  0.10500000000E+00 0.  1.
</event>
<event>
11    0  0.3443539E-009  0.9118800E+02  0.7816531E-02  0.1126479E+00
         25   -1    0    0    0    0  0.00000000000E+00  0.00000000000E+00  0.99999998245E-14  0.12500000000E+03  0.12500000000E+03 0.  0.
    3000001    1    3    3    0    0  0.15399290534E+02 -0.21987879454E+02  0.36474094966E+02  0.45298615822E+02  0.10000000000E+01 0. -1.
    1000022    2    1    0    0    0  0.15386933032E+02 -0.32074408070E+02  0.50405601873E+02  0.62499999530E+02  0.99999939939E+01 0.  0.
    3000022    2    3    3    0    0 -0.12357501600E-01 -0.10086528616E+02  0.13931506908E+02  0.17201383708E+02  0.25000905321E+00 0.  0.
    1000022    2    1    0    0    0 -0.15386933032E+02  0.32074408070E+02 -0.50405601873E+02  0.62500000470E+02  0.99999998675E+01 0.  0.
    3000022    2    5    5    0    0 -0.63829078717E+01  0.10216108257E+02 -0.25178787414E+02  0.27913154595E+02  0.24996598899E+00 0.  0.
        -13    1    4    4    0    0 -0.69862844741E-02 -0.43421092769E+01  0.58861664584E+01  0.73151857363E+01  0.10500000000E+00 0. -1.
         13    1    4    4    0    0 -0.53712171263E-02 -0.57444193391E+01  0.80453404492E+01  0.98861979718E+01  0.10500000000E+00 0.  1.
    3000001    1    5    5    0    0 -0.90040251602E+01  0.21858299813E+02 -0.25226814459E+02  0.34586845874E+02  0.10000000000E+01 0. -1.
        -13    1    6    6    0    0 -0.19457348379E+01  0.30300827657E+01 -0.75494089979E+01  0.83649200142E+01  0.10500000000E+00 0.  1.
         13    1    6    6    0    0 -0.44371730339E+01  0.71860254917E+01 -0.17629378416E+02  0.19548234581E+02  0.10500000000E+00 0. -1.
</event>
<event>
11    0  0.3443539E-009  0.9118800E+02  0.7816531E-02  0.1126479E+00
         25   -1    0    0    0    0  0.00000000000E+00  0.00000000000E+00  0.99999998245E-14  0.12500000000E+03  0.12500000000E+03 0.  0.
    3000001    1    3    3    0    0 -0.14336061255E+02 -0.18580517352E+01  0.39631301278E+01  0.15022696461E+02  0.10000000000E+01 0.  1.
    1000022    2    1    0    0    0 -0.59277083069E+02  0.95126433640E+01  0.14212193940E+02  0.62499995851E+02  0.10000003188E+02 0.  0.
    3000022    2    3    3    0    0 -0.44941021815E+02  0.11370695099E+02  0.10249063812E+02  0.47477299390E+02  0.24999905536E+00 0.  0.
    1000022    2    1    0    0    0  0.59277083069E+02 -0.95126433640E+01 -0.14212193940E+02  0.62500004149E+02  0.10000055056E+02 0.  0.
    3000022    2    5    5    0    0  0.23373063270E+02 -0.83992831594E+01 -0.41439289782E+01  0.25180998696E+02  0.25000747363E+00 0.  0.
        -13    1    4    4    0    0 -0.25518926473E+02  0.65120137107E+01  0.57840234543E+01  0.26964567180E+02  0.10500000000E+00 0. -1.
         13    1    4    4    0    0 -0.19422095342E+02  0.48586813885E+01  0.44650403576E+01  0.20512732210E+02  0.10500000000E+00 0.  1.
    3000001    1    5    5    0    0  0.35904019799E+02 -0.11133602047E+01 -0.10068264961E+02  0.37319005453E+02  0.10000000000E+01 0. -1.
        -13    1    6    6    0    0  0.14442707049E+02 -0.51825469314E+01 -0.26216717595E+01  0.15567105300E+02  0.10500000000E+00 0.  1.
         13    1    6    6    0    0  0.89303562212E+01 -0.32167362280E+01 -0.15222572187E+01  0.96138933964E+01  0.10500000000E+00 0. -1.
</event>
<event>
11    0  0.3443539E-009  0.9118800E+02  0.7816531E-02  0.1126479E+00
         25   -1    0    0    0    0  0.00000000000E+00  0.00000000000E+00  0.99999998245E-14  0.12500000000E+03  0.12500000000E+03 0.  0.
    3000001    1    3    3    0    0  0.50521726211E+02  0.22180857347E+01 -0.14248627716E+01  0.50600345429E+02  0.10000000000E+01 0.  1.
    1000022    2    1    0    0    0  0.61522308132E+02 -0.11387448032E+01 -0.44675766903E+01  0.62499997498E+02  0.99999654098E+01 0.  0.
    3000022    2    3    3    0    0  0.11000581921E+02 -0.33568305379E+01 -0.30427139187E+01  0.11899652069E+02  0.24999501786E+00 0.  0.
    1000022    2    1    0    0    0 -0.61522308132E+02  0.11387448032E+01  0.44675766903E+01  0.62500002502E+02  0.99999966858E+01 0.  0.
    3000022    2    5    5    0    0 -0.45513338241E+02 -0.47613116997E+00 -0.84980289229E+00  0.45524447519E+02  0.24999641083E+00 0.  0.
        -13    1    4    4    0    0  0.37818161092E+01 -0.12104077167E+01 -0.10650262116E+01  0.41124841344E+01  0.10500000000E+00 0.  1.
         13    1    4    4    0    0  0.72187658116E+01 -0.21464228212E+01 -0.19776877071E+01  0.77871679343E+01  0.10500000000E+00 0. -1.
    3000001    1    5    5    0    0 -0.16008969891E+02  0.16148759732E+01  0.53173795826E+01  0.16975554983E+02  0.10000000000E+01 0.  1.
        -13    1    6    6    0    0 -0.13483750848E+02 -0.12539545610E+00 -0.20980544520E+00  0.13486374764E+02  0.10500000000E+00 0.  1.
         13    1    6    6    0    0 -0.32029587393E+02 -0.35073571387E+00 -0.63999744710E+00  0.32038072754E+02  0.10500000000E+00 0. -1.
</event>
<event>
11    0  0.3443539E-009  0.9118800E+02  0.7816531E-02  0.1126479E+00
         25   -1    0    0    0    0  0.00000000000E+00  0.00000000000E+00  0.99999998245E-14  0.12500000000E+03  0.12500000000E+03 0.  0.
    3000001    1    3    3    0    0  0.26405392961E+01  0.13828620835E+01  0.40484958838E+02  0.40606854686E+02  0.10000000000E+01 0. -1.
    1000022    2    1    0    0    0  0.32740768720E+01  0.92281461164E+01  0.60912819317E+02  0.62500000459E+02  0.10000012006E+02 0.  0.
    3000022    2    3    3    0    0  0.63353757592E+00  0.78452840328E+01  0.20427860479E+02  0.21893145773E+02  0.24999340190E+00 0.  0.
    1000022    2    1    0    0    0 -0.32740768720E+01 -0.92281461164E+01 -0.60912819317E+02  0.62499999541E+02  0.10000006271E+02 0.  0.
    3000022    2    5    5    0    0 -0.54516267435E+01 -0.47058390609E+01 -0.49102570799E+02  0.49628521203E+02  0.25000470794E+00 0.  0.
        -13    1    4    4    0    0  0.41779370727E+00  0.46409884015E+01  0.12222836765E+02  0.13081364169E+02  0.10500000000E+00 0.  1.
         13    1    4    4    0    0  0.21574386865E+00  0.32042956314E+01  0.82050237135E+01  0.88117816047E+01  0.10500000000E+00 0. -1.
    3000001    1    5    5    0    0  0.21775498715E+01 -0.45223070555E+01 -0.11810248518E+02  0.12871478338E+02  0.10000000000E+01 0.  1.
        -13    1    6    6    0    0 -0.35315554521E+01 -0.30409915315E+01 -0.32157369861E+02  0.32493491268E+02  0.10500000000E+00 0. -1.
         13    1    6    6    0    0 -0.19200712914E+01 -0.16648475294E+01 -0.16945200938E+02  0.17135029935E+02  0.10500000000E+00 0.  1.
</event>
<event>
11    0  0.3443539E-009  0.9118800E+02  0.7816531E-02  0.1126479E+00
         25   -1    0    0    0    0  0.00000000000E+00  0.00000000000E+00  0.99999998245E-14  0.12500000000E+03  0.12500000000E+03 0.  0.
    3000001    1    3    3    0    0  0.10173278646E+02  0.28656013804E+02  0.14395000192E+02  0.33658264306E+02  0.10000000000E+01 0.  1.
    1000022    2    1    0    0    0  0.10237100322E+02  0.53073565902E+02  0.29743044278E+02  0.62500002805E+02  0.10000002359E+02 0.  0.
    3000022    2    3    3    0    0  0.63821676670E-01  0.24417552098E+02  0.15348044086E+02  0.28841738499E+02  0.24999750220E+00 0.  0.
    1000022    2    1    0    0    0 -0.10237100322E+02 -0.53073565902E+02 -0.29743044278E+02  0.62499997195E+02  0.99999672953E+01 0.  0.
    3000022    2    5    5    0    0  0.83360065784E+00 -0.11541300040E+02 -0.95245012445E+01  0.14989166743E+02  0.24999806497E+00 0.  0.
        -13    1    4    4    0    0  0.63337811687E-01  0.18666775402E+02  0.11728080950E+02  0.22045666771E+02  0.10500000000E+00 0.  1.
         13    1    4    4    0    0  0.48386498365E-03  0.57507766954E+01  0.36199631364E+01  0.67960717288E+01  0.10500000000E+00 0. -1.
    3000001    1    5    5    0    0 -0.11070700980E+02 -0.41532265862E+02 -0.20218543033E+02  0.47510830452E+02  0.10000000000E+01 0. -1.
        -13    1    6    6    0    0  0.28536093933E+00 -0.33558919127E+01 -0.27805979210E+01  0.43687745643E+01  0.10500000000E+00 0. -1.
         13    1    6    6    0    0  0.54823971851E+00 -0.81854081273E+01 -0.67439033235E+01  0.10620392179E+02  0.10500000000E+00 0.  1.
</event>
<event>
11    0  0.3443539E-009  0.9118800E+02  0.7816531E-02  0.1126479E+00
         25   -1    0    0    0    0  0.00000000000E+00  0.00000000000E+00  0.99999998245E-14  0.12500000000E+03  0.12500000000E+03 0.  0.
    3000001    1    3    3    0    0 -0.59979382129E+01  0.89878579571E+01 -0.11898299073E+02  0.16103613703E+02  0.10000000000E+01 0.  1.
    1000022    2    1    0    0    0 -0.37247979658E+02  0.31415172173E+02 -0.37840786685E+02  0.62500000159E+02  0.99999925817E+01 0.  0.
    3000022    2    3    3    0    0 -0.31250041445E+02  0.22427314216E+02 -0.25942487612E+02  0.46396386456E+02  0.24999877770E+00 0.  0.
    1000022    2    1    0    0    0  0.37247979658E+02 -0.31415172173E+02  0.37840786685E+02  0.62499999841E+02  0.99999905991E+01 0.  0.
    3000022    2    5    5    0    0  0.32967946309E+02 -0.23170872264E+02  0.29096809562E+02  0.49703738575E+02  0.24999277002E+00 0.  0.
        -13    1    4    4    0    0 -0.20214248273E+02  0.14458354412E+02 -0.16712077207E+02  0.29949363851E+02  0.10500000000E+00 0.  1.
         13    1    4    4    0    0 -0.11035793172E+02  0.79689598043E+01 -0.92304104050E+01  0.16447022604E+02  0.10500000000E+00 0. -1.
    3000001    1    5    5    0    0  0.42800333489E+01 -0.82442999092E+01  0.87439771229E+01  0.12796261266E+02  0.10000000000E+01 0. -1.
        -13    1    6    6    0    0  0.91758788029E+01 -0.64903978023E+01  0.81405713691E+01  0.13878110197E+02  0.10500000000E+00 0. -1.
         13    1    6    6    0    0  0.23792067506E+02 -0.16680474461E+02  0.20956238193E+02  0.35825628378E+02  0.10500000000E+00 0.  1.
</event>
<event>
11    0  0.3443539E-009  0.9118800E+02  0.7816531E-02  0.1126479E+00
         25   -1    0    0    0    0  0.00000000000E+00  0.00000000000E+00  0.99999998245E-14  0.12500000000E+03  0.12500000000E+03 0.  0.
    3000001    1    3    3    0    0 -0.72651582255E+01  0.10029087550E+01 -0.11864285271E+00  0.74028660759E+01  0.10000000000E+01 0. -1.
    1000022    2    1    0    0    0 -0.59105814615E+02 -0.17474465154E+02 -0.27195233980E+01  0.62499999221E+02  0.99999920717E+01 0.  0.
    3000022    2    3    3    0    0 -0.51840656389E+02 -0.18477373909E+02 -0.26008805453E+01  0.55097133145E+02  0.24999951147E+00 0.  0.
    1000022    2    1    0    0    0  0.59105814615E+02  0.17474465154E+02  0.27195233980E+01  0.62500000779E+02  0.10000001807E+02 0.  0.
    3000022    2    5    5    0    0  0.43739379693E+02  0.14598671393E+02 -0.19514308865E+01  0.46153278603E+02  0.25000188981E+00 0.  0.
        -13    1    4    4    0    0 -0.18325971405E+02 -0.65871812912E+01 -0.89685013741E+00  0.19494808296E+02  0.10500000000E+00 0. -1.
         13    1    4    4    0    0 -0.33514684984E+02 -0.11890192618E+02 -0.17040304079E+01  0.35602324850E+02  0.10500000000E+00 0.  1.
    3000001    1    5    5    0    0  0.15366434922E+02  0.28757937610E+01  0.46709542845E+01  0.16346722176E+02  0.10000000000E+01 0.  1.
        -13    1    6    6    0    0  0.18267129201E+02  0.60288526368E+01 -0.81541015730E+00  0.19253856551E+02  0.10500000000E+00 0.  1.
         13    1    6    6    0    0  0.25472250492E+02  0.85698187565E+01 -0.11360207292E+01  0.26899422052E+02  0.10500000000E+00 0. -1.
</event>
<event>
11    0  0.3443539E-009  0.9118800E+02  0.7816531E-02  0.1126479E+00
         25   -1    0    0    0    0  0.00000000000E+00  0.00000000000E+00  0.99999998245E-14  0.12500000000E+03  0.12500000000E+03 0.  0.
    3000001    1    3    3    0    0  0.13384322565E+00 -0.70509626708E+01 -0.86700076355E+01  0.11220651541E+02  0.10000000000E+01 0. -1.
    1000022    2    1    0    0    0 -0.19157115704E+02 -0.33351087247E+02 -0.48238573142E+02  0.62499999495E+02  0.99999947747E+01 0.  0.
    3000022    2    3    3    0    0 -0.19290958930E+02 -0.26300124576E+02 -0.39568565506E+02  0.51279347955E+02  0.25000256367E+00 0.  0.
    1000022    2    1    0    0    0  0.19157115704E+02  0.33351087247E+02  0.48238573142E+02  0.62500000505E+02  0.10000001083E+02 0.  0.
    3000022    2    5    5    0    0  0.13636755297E+02  0.22037762378E+02  0.24772939349E+02  0.35852267619E+02  0.25000762960E+00 0.  0.
        -13    1    4    4    0    0 -0.46890942262E+01 -0.63832628427E+01 -0.95764622260E+01  0.12427924322E+02  0.10500000000E+00 0.  1.
         13    1    4    4    0    0 -0.14601864704E+02 -0.19916861734E+02 -0.29992103280E+02  0.38851423633E+02  0.10500000000E+00 0. -1.
    3000001    1    5    5    0    0  0.55203604072E+01  0.11313324870E+02  0.23465633793E+02  0.26647732886E+02  0.10000000000E+01 0. -1.
        -13    1    6    6    0    0  0.50415093855E+01  0.82587985588E+01  0.92669431116E+01  0.13398202497E+02  0.10500000000E+00 0.  1.
         13    1    6    6    0    0  0.85952459117E+01  0.13778963819E+02  0.15505996237E+02  0.22454065122E+02  0.10500000000E+00 0. -1.
</event>
<event>
11    0  0.3443539E-009  0.9118800E+02  0.7816531E-02  0.1126479E+00
         25   -1    0    0    0    0  0.00000000000E+00  0.00000000000E+00  0.99999998245E-14  0.12500000000E+03  0.12500000000E+03 0.  0.
    3000001    1    3    3    0    0  0.17473095247E+01 -0.52537182469E+02 -0.26033874510E+02  0.58668315592E+02  0.10000000000E+01 0. -1.
    1000022    2    1    0    0    0  0.30340833750E+01 -0.56097478218E+02 -0.25497398199E+02  0.62499999837E+02  0.99999970186E+01 0.  0.
    3000022    2    3    3    0    0  0.12867738502E+01 -0.35602957489E+01  0.53647631122E+00  0.38316842453E+01  0.25000912292E+00 0.  0.
    1000022    2    1    0    0    0 -0.30340833750E+01  0.56097478218E+02  0.25497398199E+02  0.62500000163E+02  0.99999990565E+01 0.  0.
    3000022    2    5    5    0    0  0.36980531383E+00  0.58781923095E+01 -0.35490257020E+00  0.59057902965E+01  0.25000478906E+00 0.  0.
        -13    1    4    4    0    0  0.35348420626E+00 -0.10778949498E+01  0.19223765280E+00  0.11553306548E+01  0.10500000000E+00 0. -1.
         13    1    4    4    0    0  0.93328964398E+00 -0.24824007991E+01  0.34423865842E+00  0.26763535904E+01  0.10500000000E+00 0.  1.
    3000001    1    5    5    0    0 -0.34038886888E+01  0.50219285908E+02  0.25852300769E+02  0.56594209867E+02  0.10000000000E+01 0.  1.
        -13    1    6    6    0    0  0.17483114096E+00  0.37218643921E+01 -0.22478274953E+00  0.37342191641E+01  0.10500000000E+00 0. -1.
         13    1    6    6    0    0  0.19497417287E+00  0.21563279174E+01 -0.13011982067E+00  0.21715711324E+01  0.10500000000E+00 0.  1.
</event>
<event>
11    0  0.3443539E-009  0.9118800E+02  0.7816531E-02  0.1126479E+00
         25   -1    0    0    0    0  0.00000000000E+00  0.00000000000E+00  0.99999998245E-14  0.12500000000E+03  0.12500000000E+03 0.  0.
    3000001    1    3    3    0    0  0.24081357282E+02  0.33453107801E+02  0.33233209160E+02  0.52957231623E+02  0.10000000000E+01 0. -1.
    1000022    2    1    0    0    0  0.28700602209E+02  0.41478787771E+02  0.35525142213E+02  0.62499999542E+02  0.99999905689E+01 0.  0.
    3000022    2    3    3    0    0  0.46192449274E+01  0.80256799705E+01  0.22919330536E+01  0.95427679199E+01  0.24999952490E+00 0.  0.
    1000022    2    1    0    0    0 -0.28700602209E+02 -0.41478787771E+02 -0.35525142213E+02  0.62500000458E+02  0.99999962890E+01 0.  0.
    3000022    2    5    5    0    0 -0.24156334685E+02 -0.31004890926E+02 -0.31440715135E+02  0.50333019443E+02  0.25002259395E+00 0.  0.
        -13    1    4    4    0    0  0.34977591865E+01  0.60756484948E+01  0.17123508793E+01  0.72174091261E+01  0.10500000000E+00 0. -1.
         13    1    4    4    0    0  0.11214857409E+01  0.19500314757E+01  0.57958217421E+00  0.23253587938E+01  0.10500000000E+00 0.  1.
    3000001    1    5    5    0    0 -0.45442675243E+01 -0.10473896845E+02 -0.40844270788E+01  0.12166981015E+02  0.10000000000E+01 0. -1.
        -13    1    6    6    0    0 -0.85103945788E+01 -0.10927310831E+02 -0.11006687692E+02  0.17691555523E+02  0.10500000000E+00 0.  1.
         13    1    6    6    0    0 -0.15645940106E+02 -0.20077580095E+02 -0.20434027442E+02  0.32641463919E+02  0.10500000000E+00 0. -1.
</event>
<event>
11    0  0.3443539E-009  0.9118800E+02  0.7816531E-02  0.1126479E+00
         25   -1    0    0    0    0  0.00000000000E+00  0.00000000000E+00  0.99999998245E-14  0.12500000000E+03  0.12500000000E+03 0.  0.
    3000001    1    3    3    0    0 -0.16915918318E+02 -0.54752274425E+01 -0.12872243195E+01  0.17854505161E+02  0.10000000000E+01 0.  1.
    1000022    2    1    0    0    0 -0.52577540348E+02 -0.32273599171E+02  0.51662542127E+00  0.62500001986E+02  0.10000019701E+02 0.  0.
    3000022    2    3    3    0    0 -0.35661622030E+02 -0.26798371728E+02  0.18038497407E+01  0.44645496826E+02  0.24999967064E+00 0.  0.
    1000022    2    1    0    0    0  0.52577540348E+02  0.32273599171E+02 -0.51662542127E+00  0.62499998014E+02  0.99999948700E+01 0.  0.
    3000022    2    5    5    0    0  0.68093218109E+01  0.53627424546E+01 -0.34117578281E+01  0.93181794202E+01  0.25001213964E+00 0.  0.
        -13    1    4    4    0    0 -0.20367526573E+02 -0.15331988596E+02  0.96894288564E+00  0.25511877398E+02  0.10500000000E+00 0.  1.
         13    1    4    4    0    0 -0.15294095456E+02 -0.11466383132E+02  0.83490685511E+00  0.19133619428E+02  0.10500000000E+00 0. -1.
    3000001    1    5    5    0    0  0.45768218537E+02  0.26910856716E+02  0.28951324068E+01  0.53181818593E+02  0.10000000000E+01 0. -1.
        -13    1    6    6    0    0  0.49173625219E+01  0.38462300446E+01 -0.24929945271E+01  0.67230935171E+01  0.10500000000E+00 0.  1.
         13    1    6    6    0    0  0.18919592890E+01  0.15165124100E+01 -0.91876330104E+00  0.25950859031E+01  0.10500000000E+00 0. -1.
</event>
<event>
11    0  0.3443539E-009  0.9118800E+02  0.7816531E-02  0.1126479E+00
         25   -1    0    0    0    0  0.00000000000E+00  0.00000000000E+00  0.99999998245E-14  0.12500000000E+03  0.12500000000E+03 0.  0.
    3000001    1    3    3    0    0  0.31830072757E+02  0.38617194212E+02  0.17714569417E+02  0.53096583602E+02  0.10000000000E+01 0. -1.
    1000022    2    1    0    0    0  0.39795967535E+02  0.43603417766E+02  0.17924094323E+02  0.62500002125E+02  0.10000001769E+02 0.  0.
    3000022    2    3    3    0    0  0.79658947777E+01  0.49862235542E+01  0.20952490669E+00  0.94034185236E+01  0.24994859576E+00 0.  0.
    1000022    2    1    0    0    0 -0.39795967535E+02 -0.43603417766E+02 -0.17924094323E+02  0.62499997875E+02  0.99999752059E+01 0.  0.
    3000022    2    5    5    0    0 -0.14508850538E+02 -0.22534822017E+02 -0.10193274389E+02  0.28675604463E+02  0.25000248125E+00 0.  0.
        -13    1    4    4    0    0  0.36716561363E+01  0.22706452483E+01  0.33448487237E-01  0.43184525502E+01  0.10500000000E+00 0.  1.
         13    1    4    4    0    0  0.42942386414E+01  0.27155783059E+01  0.17607641945E+00  0.50849659734E+01  0.10500000000E+00 0. -1.
    3000001    1    5    5    0    0 -0.25287116997E+02 -0.21068595749E+02 -0.77308199339E+01  0.33824393412E+02  0.10000000000E+01 0. -1.
        -13    1    6    6    0    0 -0.10943703633E+02 -0.16953349527E+02 -0.76802444303E+01  0.21591153024E+02  0.10500000000E+00 0. -1.
         13    1    6    6    0    0 -0.35651469046E+01 -0.55814724902E+01 -0.25130299592E+01  0.70844514386E+01  0.10500000000E+00 0.  1.
</event>
<event>
11    0  0.3443539E-009  0.9118800E+02  0.7816531E-02  0.1126479E+00
         25   -1    0    0    0    0  0.00000000000E+00  0.00000000000E+00  0.99999998245E-14  0.12500000000E+03  0.12500000000E+03 0.  0.
    3000001    1    3    3    0    0 -0.16838934985E+02 -0.16061781826E+02  0.71723268438E+01  0.24371557997E+02  0.10000000000E+01 0.  1.
    1000022    2    1    0    0    0 -0.38987950480E+02 -0.37667537024E+02  0.29450745683E+02  0.62499998656E+02  0.99999891314E+01 0.  0.
    3000022    2    3    3    0    0 -0.22149015495E+02 -0.21605755197E+02  0.22278418839E+02  0.38128440658E+02  0.24999204630E+00 0.  0.
    1000022    2    1    0    0    0  0.38987950480E+02  0.37667537024E+02 -0.29450745683E+02  0.62500001344E+02  0.10000005933E+02 0.  0.
    3000022    2    5    5    0    0  0.10129032733E+02  0.92813422212E+01 -0.27956094658E+01  0.14022073628E+02  0.24999802223E+00 0.  0.
        -13    1    4    4    0    0 -0.13233049966E+02 -0.12969378179E+02  0.13397145369E+02  0.22865102466E+02  0.10500000000E+00 0.  1.
         13    1    4    4    0    0 -0.89159655291E+01 -0.86363770183E+01  0.88812734703E+01  0.15263338192E+02  0.10500000000E+00 0. -1.
    3000001    1    5    5    0    0  0.28858917747E+02  0.28386194802E+02 -0.26655136217E+02  0.48477927716E+02  0.10000000000E+01 0.  1.
        -13    1    6    6    0    0  0.39851850668E+01  0.35993314763E+01 -0.11424610416E+01  0.54911865133E+01  0.10500000000E+00 0. -1.
         13    1    6    6    0    0  0.61438476661E+01  0.56820107450E+01 -0.16531484242E+01  0.85308871146E+01  0.10500000000E+00 0.  1.
</event>
<event>
11    0  0.3443539E-009  0.9118800E+02  0.7816531E-02  0.1126479E+00
         25   -1    0    0    0    0  0.00000000000E+00  0.00000000000E+00  0.99999998245E-14  0.12500000000E+03  0.12500000000E+03 0.  0.
    3000001    1    3    3    0    0 -0.77696861075E+01 -0.26559278783E+02 -0.79351086828E+00  0.27701858623E+02  0.10000000000E+01 0. -1.
    1000022    2    1    0    0    0 -0.13373682594E+02 -0.59629235219E+02  0.84704760911E+01  0.62500001518E+02  0.10000007282E+02 0.  0.
    3000022    2    3    3    0    0 -0.56039964862E+01 -0.33069956436E+02  0.92639869594E+01  0.34798142895E+02  0.24999851165E+00 0.  0.
    1000022    2    1    0    0    0  0.13373682594E+02  0.59629235219E+02 -0.84704760911E+01  0.62499998482E+02  0.99999883066E+01 0.  0.
    3000022    2    5    5    0    0  0.14788293229E+02  0.55581743825E+02 -0.76690210527E+01  0.58024996805E+02  0.25001410290E+00 0.  0.
        -13    1    4    4    0    0 -0.24165547267E+01 -0.14266832187E+02  0.39285299632E+01  0.14994219222E+02  0.10500000000E+00 0.  1.
         13    1    4    4    0    0 -0.31874417594E+01 -0.18803124249E+02  0.53354569961E+01  0.19803923673E+02  0.10500000000E+00 0. -1.
    3000001    1    5    5    0    0 -0.14146106349E+01  0.40474913936E+01 -0.80145503842E+00  0.44750016769E+01  0.10000000000E+01 0.  1.
        -13    1    6    6    0    0  0.75263508315E+01  0.28042117815E+02 -0.38963579750E+01  0.29295033007E+02  0.10500000000E+00 0.  1.
         13    1    6    6    0    0  0.72619423971E+01  0.27539626010E+02 -0.37726630777E+01  0.28729963798E+02  0.10500000000E+00 0. -1.
</event>
<event>
11    0  0.3443539E-009  0.9118800E+02  0.7816531E-02  0.1126479E+00
         25   -1    0    0    0    0  0.00000000000E+00  0.00000000000E+00  0.99999998245E-14  0.12500000000E+03  0.12500000000E+03 0.  0.
    3000001    1    3    3    0    0  0.38688692868E+01  0.29873844960E+01  0.19613477047E+01  0.53609234749E+01  0.10000000000E+01 0.  1.
    1000022    2    1    0    0    0  0.35792948792E+02  0.50211367043E+02 -0.19832854638E+01  0.62499999483E+02  0.99999975310E+01 0.  0.
    3000022    2    3    3    0    0  0.31924079505E+02  0.47223982547E+02 -0.39446331685E+01  0.57139076008E+02  0.24999278463E+00 0.  0.
    1000022    2    1    0    0    0 -0.35792948792E+02 -0.50211367043E+02  0.19832854638E+01  0.62500000517E+02  0.10000003991E+02 0.  0.
    3000022    2    5    5    0    0 -0.10132072953E+02 -0.88997384061E+01 -0.22454004256E+01  0.13673644992E+02  0.24999656114E+00 0.  0.
        -13    1    4    4    0    0  0.20374854959E+02  0.30042134146E+02 -0.25331046190E+01  0.36388077480E+02  0.10500000000E+00 0.  1.
         13    1    4    4    0    0  0.11549224546E+02  0.17181848401E+02 -0.14115285495E+01  0.20750998529E+02  0.10500000000E+00 0. -1.
    3000001    1    5    5    0    0 -0.25660875839E+02 -0.41311628637E+02  0.42286858893E+01  0.48826355524E+02  0.10000000000E+01 0.  1.
        -13    1    6    6    0    0 -0.67814508984E+01 -0.59374007209E+01 -0.14487281846E+01  0.91296572750E+01  0.10500000000E+00 0. -1.
         13    1    6    6    0    0 -0.33506220548E+01 -0.29623376852E+01 -0.79667224100E+00  0.45439877173E+01  0.10500000000E+00 0.  1.
</event>
<event>
11    0  0.3443539E-009  0.9118800E+02  0.7816531E-02  0.1126479E+00
         25   -1    0    0    0    0  0.00000000000E+00  0.00000000000E+00  0.99999998245E-14  0.12500000000E+03  0.12500000000E+03 0.  0.
    3000001    1    3    3    0    0  0.20754781883E+02  0.45320852314E+02 -0.26229203143E+01  0.49926148824E+02  0.10000000000E+01 0.  1.
    1000022    2    1    0    0    0  0.21177940361E+02  0.57885055405E+02 -0.26577878917E+01  0.62500010267E+02  0.10000132485E+02 0.  0.
    3000022    2    3    3    0    0  0.42315847802E+00  0.12564203091E+02 -0.34867577389E-01  0.12573861443E+02  0.25002682947E+00 0.  0.
    1000022    2    1    0    0    0 -0.21177940361E+02 -0.57885055405E+02  0.26577878917E+01  0.62499989733E+02  0.10000004149E+02 0.  0.
    3000022    2    5    5    0    0 -0.20125955466E+02 -0.42894532497E+02  0.21512352764E+01  0.47430847593E+02  0.24997730818E+00 0.  0.
        -13    1    4    4    0    0  0.24370522612E+00  0.68291789573E+01  0.46600479697E-01  0.68344915007E+01  0.10500000000E+00 0.  1.
         13    1    4    4    0    0  0.17945325191E+00  0.57350241340E+01 -0.81468057087E-01  0.57393699420E+01  0.10500000000E+00 0. -1.
    3000001    1    5    5    0    0 -0.10519848949E+01 -0.14990522908E+02  0.50655261525E+00  0.15069142140E+02  0.10000000000E+01 0.  1.
        -13    1    6    6    0    0 -0.10774167873E+02 -0.23120770622E+02  0.11541350892E+01  0.25534208042E+02  0.10500000000E+00 0. -1.
         13    1    6    6    0    0 -0.93517875925E+01 -0.19773761874E+02  0.99710018718E+00  0.21896639551E+02  0.10500000000E+00 0.  1.
</event>
<event>
11    0  0.3443539E-009  0.9118800E+02  0.7816531E-02  0.1126479E+00
         25   -1    0    0    0    0  0.00000000000E+00  0.00000000000E+00  0.99999998245E-14  0.12500000000E+03  0.12500000000E+03 0.  0.
    3000001    1    3    3    0    0 -0.33906384369E+02  0.24773332888E+02  0.23951652576E+02  0.48353309964E+02  0.10000000000E+01 0. -1.
    1000022    2    1    0    0    0 -0.41653572832E+02  0.35906975569E+02  0.27962816156E+02  0.62500000740E+02  0.99999990505E+01 0.  0.
    3000022    2    3    3    0    0 -0.77471884621E+01  0.11133642681E+02  0.40111635802E+01  0.14146690776E+02  0.24999645849E+00 0.  0.
    1000022    2    1    0    0    0  0.41653572832E+02 -0.35906975569E+02 -0.27962816156E+02  0.62499999260E+02  0.99999897982E+01 0.  0.
    3000022    2    5    5    0    0  0.30539635448E+02 -0.21203674846E+02 -0.15817903590E+02  0.40404625139E+02  0.24999672878E+00 0.  0.
        -13    1    4    4    0    0 -0.31049217199E+01  0.44016951668E+01  0.16477084625E+01  0.56339530887E+01  0.10500000000E+00 0.  1.
         13    1    4    4    0    0 -0.46422667422E+01  0.67319475141E+01  0.23634551177E+01  0.85127376872E+01  0.10500000000E+00 0. -1.
    3000001    1    5    5    0    0  0.11113937384E+02 -0.14703300722E+02 -0.12144912566E+02  0.22095374121E+02  0.10000000000E+01 0. -1.
        -13    1    6    6    0    0  0.17952101982E+02 -0.12385906837E+02 -0.92794347608E+01  0.23702480634E+02  0.10500000000E+00 0.  1.
         13    1    6    6    0    0  0.12587533466E+02 -0.88177680093E+01 -0.65384688291E+01  0.16702144504E+02  0.10500000000E+00 0. -1.
</event>
<event>
11    0  0.3443539E-009  0.9118800E+02  0.7816531E-02  0.1126479E+00
         25   -1    0    0    0    0  0.00000000000E+00  0.00000000000E+00  0.99999998245E-14  0.12500000000E+03  0.12500000000E+03 0.  0.
    3000001    1    3    3    0    0 -0.40523273710E+01 -0.20320579582E+02  0.95155838961E+01  0.22823094632E+02  0.10000000000E+01 0.  1.
    1000022    2    1    0    0    0 -0.22671951275E+02 -0.50071245593E+02  0.28019688205E+02  0.62500000984E+02  0.10000009301E+02 0.  0.
    3000022    2    3    3    0    0 -0.18619623904E+02 -0.29750666011E+02  0.18504104309E+02  0.39676906352E+02  0.24999801066E+00 0.  0.
    1000022    2    1    0    0    0  0.22671951275E+02  0.50071245593E+02 -0.28019688205E+02  0.62499999016E+02  0.99999970052E+01 0.  0.
    3000022    2    5    5    0    0  0.23260487451E+01  0.74202868331E+01 -0.80297901267E+01  0.11180840235E+02  0.24999884654E+00 0.  0.
        -13    1    4    4    0    0 -0.77275481853E+01 -0.12262121707E+02  0.75899895124E+01  0.16361344551E+02  0.10500000000E+00 0. -1.
         13    1    4    4    0    0 -0.10892075718E+02 -0.17488544304E+02  0.10914114796E+02  0.23315561801E+02  0.10500000000E+00 0.  1.
    3000001    1    5    5    0    0  0.20345902530E+02  0.42650958760E+02 -0.19989898078E+02  0.51319158782E+02  0.10000000000E+01 0. -1.
        -13    1    6    6    0    0  0.14164755314E+01  0.46800075843E+01 -0.49972153093E+01  0.69922857327E+01  0.10500000000E+00 0.  1.
         13    1    6    6    0    0  0.90957321368E+00  0.27402792488E+01 -0.30325748175E+01  0.41885545020E+01  0.10500000000E+00 0. -1.
</event>
<event>
11    0  0.3443539E-009  0.9118800E+02  0.7816531E-02  0.1126479E+00
         25   -1    0    0    0    0  0.00000000000E+00  0.00000000000E+00  0.99999998245E-14  0.12500000000E+03  0.12500000000E+03 0.  0.
    3000001    1    3    3    0    0  0.38561353876E+02 -0.43030874286E+02 -0.76351807933E+00  0.57794611465E+02  0.10000000000E+01 0. -1.
    1000022    2    1    0    0    0  0.39710424836E+02 -0.47136277467E+02 -0.27392428384E+01  0.62500000557E+02  0.10000006207E+02 0.  0.
    3000022    2    3    3    0    0  0.11490709606E+01 -0.41054031809E+01 -0.19757247591E+01  0.47053890916E+01  0.24999765731E+00 0.  0.
    1000022    2    1    0    0    0 -0.39710424836E+02  0.47136277467E+02  0.27392428384E+01  0.62499999443E+02  0.99999992473E+01 0.  0.
    3000022    2    5    5    0    0 -0.25936169592E+02  0.24212336122E+02 -0.88435417853E+00  0.35493191974E+02  0.24996121308E+00 0.  0.
        -13    1    4    4    0    0  0.44580801583E+00 -0.17235690964E+01 -0.76577805104E+00  0.19408442082E+01  0.10500000000E+00 0. -1.
         13    1    4    4    0    0  0.70326294481E+00 -0.23818340846E+01 -0.12099467080E+01  0.27645448834E+01  0.10500000000E+00 0.  1.
    3000001    1    5    5    0    0 -0.13774255244E+02  0.22923941345E+02  0.36235970170E+01  0.27006807469E+02  0.10000000000E+01 0. -1.
        -13    1    6    6    0    0 -0.15723495872E+02  0.14750206170E+02 -0.57081745840E+00  0.21566959964E+02  0.10500000000E+00 0.  1.
         13    1    6    6    0    0 -0.10212673720E+02  0.94621299519E+01 -0.31353672014E+00  0.13926232011E+02  0.10500000000E+00 0. -1.
</event>
<event>
11    0  0.3443539E-009  0.9118800E+02  0.7816531E-02  0.1126479E+00
         25   -1    0    0    0    0  0.00000000000E+00  0.00000000000E+00  0.99999998245E-14  0.12500000000E+03  0.12500000000E+03 0.  0.
    3000001    1    3    3    0    0 -0.76103783000E+01 -0.18685902988E+02  0.58671911825E+01  0.21035797126E+02  0.10000000000E+01 0. -1.
    1000022    2    1    0    0    0 -0.29150088666E+02 -0.54111536573E+02  0.53351483006E+01  0.62500001069E+02  0.10000013333E+02 0.  0.
    3000022    2    3    3    0    0 -0.21539710366E+02 -0.35425633585E+02 -0.53204288194E+00  0.41464203943E+02  0.25000286455E+00 0.  0.
    1000022    2    1    0    0    0  0.29150088666E+02  0.54111536573E+02 -0.53351483006E+01  0.62499998931E+02  0.99999999696E+01 0.  0.
    3000022    2    5    5    0    0  0.10673200240E+02  0.27072058208E+02 -0.60680831426E+01  0.29727052929E+02  0.25000763438E+00 0.  0.
        -13    1    4    4    0    0 -0.60404492070E+01 -0.98888374196E+01 -0.11711109392E+00  0.11588825313E+02  0.10500000000E+00 0.  1.
         13    1    4    4    0    0 -0.15499261159E+02 -0.25536796165E+02 -0.41493178801E+00  0.29875378630E+02  0.10500000000E+00 0. -1.
    3000001    1    5    5    0    0  0.18476888426E+02  0.27039478365E+02  0.73293484201E+00  0.32772946002E+02  0.10000000000E+01 0. -1.
        -13    1    6    6    0    0  0.70071262919E+01  0.17689132040E+02 -0.39198185228E+01  0.19426302104E+02  0.10500000000E+00 0. -1.
         13    1    6    6    0    0  0.36660739485E+01  0.93829261684E+01 -0.21482646198E+01  0.10300750825E+02  0.10500000000E+00 0.  1.
</event>
<event>
11    0  0.3443539E-009  0.9118800E+02  0.7816531E-02  0.1126479E+00
         25   -1    0    0    0    0  0.00000000000E+00  0.00000000000E+00  0.99999998245E-14  0.12500000000E+03  0.12500000000E+03 0.  0.
    3000001    1    3    3    0    0 -0.14607901284E+02 -0.18482419920E+02 -0.24821693750E+02  0.34236049810E+02  0.10000000000E+01 0. -1.
    1000022    2    1    0    0    0 -0.27737741708E+02 -0.39468520447E+02 -0.38459116327E+02  0.62500000643E+02  0.10000001512E+02 0.  0.
    3000022    2    3    3    0    0 -0.13129840425E+02 -0.20986100528E+02 -0.13637422577E+02  0.28263950832E+02  0.24999430217E+00 0.  0.
    1000022    2    1    0    0    0  0.27737741708E+02  0.39468520447E+02  0.38459116327E+02  0.62499999357E+02  0.99999934810E+01 0.  0.
    3000022    2    5    5    0    0  0.15886676583E+02  0.28542780598E+02  0.29583893635E+02  0.44072055530E+02  0.24999783248E+00 0.  0.
        -13    1    4    4    0    0 -0.35688087822E+01 -0.57605355371E+01 -0.37076704855E+01  0.77251544468E+01  0.10500000000E+00 0. -1.
         13    1    4    4    0    0 -0.95610316426E+01 -0.15225564991E+02 -0.99297520919E+01  0.20538796385E+02  0.10500000000E+00 0.  1.
    3000001    1    5    5    0    0  0.11851065126E+02  0.10925739849E+02  0.88752226918E+01  0.18427943827E+02  0.10000000000E+01 0.  1.
        -13    1    6    6    0    0  0.75689859082E+01  0.13638911073E+02  0.14039299872E+02  0.20986243324E+02  0.10500000000E+00 0. -1.
         13    1    6    6    0    0  0.83176906745E+01  0.14903869525E+02  0.15544593763E+02  0.23085812206E+02  0.10500000000E+00 0.  1.
</event>
<event>
11    0  0.3443539E-009  0.9118800E+02  0.7816531E-02  0.1126479E+00
         25   -1    0    0    0    0  0.00000000000E+00  0.00000000000E+00  0.99999998245E-14  0.12500000000E+03  0.12500000000E+03 0.  0.
    3000001    1    3    3    0    0 -0.28548233465E+02  0.16711340024E+02 -0.29191462363E+02  0.44129491208E+02  0.10000000000E+01 0.  1.
    1000022    2    1    0    0    0 -0.36662716061E+02  0.20307473933E+02 -0.45273631290E+02  0.62500001971E+02  0.10000015488E+02 0.  0.
    3000022    2    3    3    0    0 -0.81144825957E+01  0.35961339089E+01 -0.16082168927E+02  0.18370510763E+02  0.25000286442E+00 0.  0.
    1000022    2    1    0    0    0  0.36662716061E+02 -0.20307473933E+02  0.45273631290E+02  0.62499998029E+02  0.99999908456E+01 0.  0.
    3000022    2    5    5    0    0  0.42598028311E+01 -0.47037661821E+01  0.31065338278E+01  0.70699647459E+01  0.25002525718E+00 0.  0.
        -13    1    4    4    0    0 -0.40712221549E+01  0.17682535040E+01 -0.79196666774E+01  0.90793014913E+01  0.10500000000E+00 0. -1.
         13    1    4    4    0    0 -0.40432604408E+01  0.18278804050E+01 -0.81625022494E+01  0.92912092722E+01  0.10500000000E+00 0.  1.
    3000001    1    5    5    0    0  0.32402913230E+02 -0.15603707751E+02  0.42167097462E+02  0.55430033283E+02  0.10000000000E+01 0.  1.
        -13    1    6    6    0    0  0.13405572878E+01 -0.15145812193E+01  0.94089644249E+00  0.22332400738E+01  0.10500000000E+00 0.  1.
         13    1    6    6    0    0  0.29192455433E+01 -0.31891849628E+01  0.21656373853E+01  0.48367246721E+01  0.10500000000E+00 0. -1.
</event>
<event>
11    0  0.3443539E-009  0.9118800E+02  0.7816531E-02  0.1126479E+00
         25   -1    0    0    0    0  0.00000000000E+00  0.00000000000E+00  0.99999998245E-14  0.12500000000E+03  0.12500000000E+03 0.  0.
    3000001    1    3    3    0    0 -0.11474068820E+02 -0.68887246554E+01  0.32366955781E+01  0.13805251933E+02  0.10000000000E+01 0. -1.
    1000022    2    1    0    0    0 -0.58737079191E+02 -0.14309617093E+02  0.12306105229E+02  0.62499999965E+02  0.10000007824E+02 0.  0.
    3000022    2    3    3    0    0 -0.47263010371E+02 -0.74208924373E+01  0.90694096508E+01  0.48694748032E+02  0.25000117937E+00 0.  0.
    1000022    2    1    0    0    0  0.58737079191E+02  0.14309617093E+02 -0.12306105229E+02  0.62500000035E+02  0.10000008263E+02 0.  0.
    3000022    2    5    5    0    0  0.13514716946E+02  0.19433492583E+01  0.11773146944E+01  0.13706668114E+02  0.25000083383E+00 0.  0.
        -13    1    4    4    0    0 -0.31079025212E+02 -0.49356020687E+01  0.59679048906E+01  0.32029562746E+02  0.10500000000E+00 0. -1.
         13    1    4    4    0    0 -0.16183985159E+02 -0.24852903686E+01  0.31015047602E+01  0.16665185286E+02  0.10500000000E+00 0.  1.
    3000001    1    5    5    0    0  0.45222362245E+02  0.12366267834E+02 -0.13483419923E+02  0.48793331921E+02  0.10000000000E+01 0.  1.
        -13    1    6    6    0    0  0.34491553748E+01  0.46675822283E+00  0.30352040797E+00  0.34953806196E+01  0.10500000000E+00 0. -1.
         13    1    6    6    0    0  0.10065561571E+02  0.14765910355E+01  0.87379428639E+00  0.10211287494E+02  0.10500000000E+00 0.  1.
</event>
<event>
11    0  0.3443539E-009  0.9118800E+02  0.7816531E-02  0.1126479E+00
         25   -1    0    0    0    0  0.00000000000E+00  0.00000000000E+00  0.99999998245E-14  0.12500000000E+03  0.12500000000E+03 0.  0.
    3000001    1    3    3    0    0  0.37991912664E+02 -0.30755606682E+02 -0.19338950257E+02  0.52576494437E+02  0.10000000000E+01 0.  1.
    1000022    2    1    0    0    0  0.42178584586E+02 -0.39417219783E+02 -0.21760051869E+02  0.62500001801E+02  0.10000007736E+02 0.  0.
    3000022    2    3    3    0    0  0.41866719212E+01 -0.86616131015E+01 -0.24211016111E+01  0.99235073636E+01  0.25000417910E+00 0.  0.
    1000022    2    1    0    0    0 -0.42178584586E+02  0.39417219783E+02  0.21760051869E+02  0.62499998199E+02  0.99999852234E+01 0.  0.
    3000022    2    5    5    0    0 -0.16605777822E+02  0.19327585908E+02  0.13905146640E+02  0.29029692388E+02  0.25000577430E+00 0.  0.
        -13    1    4    4    0    0  0.22772658015E+01 -0.45600441529E+01 -0.12975488682E+01  0.52606653831E+01  0.10500000000E+00 0.  1.
         13    1    4    4    0    0  0.19094061197E+01 -0.41015689485E+01 -0.11235527428E+01  0.46628419805E+01  0.10500000000E+00 0. -1.
    3000001    1    5    5    0    0 -0.25572806763E+02  0.20089633875E+02  0.78549052282E+01  0.33470305811E+02  0.10000000000E+01 0.  1.
        -13    1    6    6    0    0 -0.45898949193E+01  0.53925271478E+01  0.38885244196E+01  0.80794883236E+01  0.10500000000E+00 0.  1.
         13    1    6    6    0    0 -0.12015882903E+02  0.13935058761E+02  0.10016622221E+02  0.20950204064E+02  0.10500000000E+00 0. -1.
</event>
<event>
11    0  0.3443539E-009  0.9118800E+02  0.7816531E-02  0.1126479E+00
         25   -1    0    0    0    0  0.00000000000E+00  0.00000000000E+00  0.99999998245E-14  0.12500000000E+03  0.12500000000E+03 0.  0.
    3000001    1    3    3    0    0 -0.43589678799E+01  0.16687876550E+02 -0.21743015354E+02  0.27771289877E+02  0.10000000000E+01 0.  1.
    1000022    2    1    0    0    0 -0.19471060427E+02  0.32193712871E+02 -0.48894709910E+02  0.62499999937E+02  0.99999996176E+01 0.  0.
    3000022    2    3    3    0    0 -0.15112092547E+02  0.15505836320E+02 -0.27151694556E+02  0.34728710060E+02  0.24996802419E+00 0.  0.
    1000022    2    1    0    0    0  0.19471060427E+02 -0.32193712871E+02  0.48894709910E+02  0.62500000063E+02  0.10000000411E+02 0.  0.
    3000022    2    5    5    0    0  0.17182801718E+02 -0.31815334111E+02  0.47197670263E+02  0.59457099807E+02  0.24995954120E+00 0.  0.
        -13    1    4    4    0    0 -0.11507395638E+02  0.11815052451E+02 -0.20654127828E+02  0.26431413888E+02  0.10500000000E+00 0. -1.
         13    1    4    4    0    0 -0.36046969097E+01  0.36907838696E+01 -0.64975667276E+01  0.82972961718E+01  0.10500000000E+00 0.  1.
    3000001    1    5    5    0    0  0.22882587095E+01 -0.37837875982E+00  0.16970396471E+01  0.30429002566E+01  0.10000000000E+01 0.  1.
        -13    1    6    6    0    0  0.86610661627E+01 -0.16067170107E+02  0.23716361358E+02  0.29927326031E+02  0.10500000000E+00 0. -1.
         13    1    6    6    0    0  0.85217355551E+01 -0.15748164003E+02  0.23481308905E+02  0.29529773776E+02  0.10500000000E+00 0.  1.
</event>
<event>
11    0  0.3443539E-009  0.9118800E+02  0.7816531E-02  0.1126479E+00
         25   -1    0    0    0    0  0.00000000000E+00  0.00000000000E+00  0.99999998245E-14  0.12500000000E+03  0.12500000000E+03 0.  0.
    3000001    1    3    3    0    0  0.13876651993E+01 -0.46029332929E+01 -0.14625534138E+02  0.15427859814E+02  0.10000000000E+01 0. -1.
    1000022    2    1    0    0    0  0.44907615457E+01 -0.17318026214E+01 -0.61506778489E+02  0.62499997766E+02  0.99999920523E+01 0.  0.
    3000022    2    3    3    0    0  0.31030963465E+01  0.28711306715E+01 -0.46881244351E+02  0.47072137953E+02  0.25000245714E+00 0.  0.
    1000022    2    1    0    0    0 -0.44907615457E+01  0.17318026214E+01  0.61506778489E+02  0.62500002234E+02  0.10000019975E+02 0.  0.
    3000022    2    5    5    0    0 -0.43683450980E+01  0.28809198150E+01  0.60366155774E+02  0.60593047518E+02  0.25001329604E+00 0.  0.
        -13    1    4    4    0    0  0.19363930347E+01  0.17734146735E+01 -0.29756091467E+02  0.29871903555E+02  0.10500000000E+00 0. -1.
         13    1    4    4    0    0  0.11667033118E+01  0.10977159979E+01 -0.17125152884E+02  0.17200234397E+02  0.10500000000E+00 0.  1.
    3000001    1    5    5    0    0 -0.12241644774E+00 -0.11491171936E+01  0.11406227153E+01  0.19069547163E+01  0.10000000000E+01 0. -1.
        -13    1    6    6    0    0 -0.11320786102E+01  0.73411184039E+00  0.15932520466E+02  0.15989895421E+02  0.10500000000E+00 0.  1.
         13    1    6    6    0    0 -0.32362664878E+01  0.21468079746E+01  0.44433635308E+02  0.44603152097E+02  0.10500000000E+00 0. -1.
</event>
<event>
11    0  0.3443539E-009  0.9118800E+02  0.7816531E-02  0.1126479E+00
         25   -1    0    0    0    0  0.00000000000E+00  0.00000000000E+00  0.99999998245E-14  0.12500000000E+03  0.12500000000E+03 0.  0.
    3000001    1    3    3    0    0  0.36004810093E+01  0.76204392402E+01  0.40087982064E+01  0.93864274765E+01  0.10000000000E+01 0. -1.
    1000022    2    1    0    0    0  0.11061232708E+02  0.59861607691E+02  0.10024319230E+02  0.62499999023E+02  0.99999978754E+01 0.  0.
    3000022    2    3    3    0    0  0.74607516987E+01  0.52241168451E+02  0.60155210235E+01  0.53113571547E+02  0.24998449592E+00 0.  0.
    1000022    2    1    0    0    0 -0.11061232708E+02 -0.59861607691E+02 -0.10024319230E+02  0.62500000977E+02  0.10000010085E+02 0.  0.
    3000022    2    5    5    0    0 -0.80161048222E+01 -0.45821046548E+02 -0.11795330276E+02  0.47989775576E+02  0.25000050040E+00 0.  0.
        -13    1    4    4    0    0  0.40672041198E+01  0.28627302472E+02  0.32322807786E+01  0.29095072782E+02  0.10500000000E+00 0. -1.
         13    1    4    4    0    0  0.33935475789E+01  0.23613865979E+02  0.27832402448E+01  0.24018498765E+02  0.10500000000E+00 0.  1.
    3000001    1    5    5    0    0 -0.30451278858E+01 -0.14040561143E+02  0.17710110461E+01  0.14510225401E+02  0.10000000000E+01 0. -1.
        -13    1    6    6    0    0 -0.42209682047E+01 -0.23943432865E+02 -0.61033958075E+01  0.25067249856E+02  0.10500000000E+00 0. -1.
         13    1    6    6    0    0 -0.37951366175E+01 -0.21877613683E+02 -0.56919344685E+01  0.22922525720E+02  0.10500000000E+00 0.  1.
</event>
<event>
11    0  0.3443539E-009  0.9118800E+02  0.7816531E-02  0.1126479E+00
         25   -1    0    0    0    0  0.00000000000E+00  0.00000000000E+00  0.99999998245E-14  0.12500000000E+03  0.12500000000E+03 0.  0.
    3000001    1    3    3    0    0 -0.10387647469E+01  0.97328118324E-01  0.71528285261E+00  0.16124932624E+01  0.10000000000E+01 0. -1.
    1000022    2    1    0    0    0 -0.56184086765E+02  0.21205373266E+02 -0.14139678779E+02  0.62500000138E+02  0.10000002019E+02 0.  0.
    3000022    2    3    3    0    0 -0.55145322018E+02  0.21108045148E+02 -0.14854961631E+02  0.60887506876E+02  0.24999615068E+00 0.  0.
    1000022    2    1    0    0    0  0.56184086765E+02 -0.21205373266E+02  0.14139678779E+02  0.62499999862E+02  0.10000000290E+02 0.  0.
    3000022    2    5    5    0    0  0.45709994922E+02 -0.13066519013E+02  0.11929969487E+02  0.49015550906E+02  0.25000751879E+00 0.  0.
        -13    1    4    4    0    0 -0.36497796747E+02  0.13927233419E+02 -0.98656817192E+01  0.40291434560E+02  0.10500000000E+00 0.  1.
         13    1    4    4    0    0 -0.18647525271E+02  0.71808117293E+01 -0.49892799121E+01  0.20596072316E+02  0.10500000000E+00 0. -1.
    3000001    1    5    5    0    0  0.10474091843E+02 -0.81388542533E+01  0.22097092913E+01  0.13484448956E+02  0.10000000000E+01 0.  1.
        -13    1    6    6    0    0  0.31473203096E+02 -0.89488703298E+01  0.81943100059E+01  0.33731328684E+02  0.10500000000E+00 0.  1.
         13    1    6    6    0    0  0.14236791826E+02 -0.41176486833E+01  0.37356594816E+01  0.15284222222E+02  0.10500000000E+00 0. -1.
</event>
<event>
11    0  0.3443539E-009  0.9118800E+02  0.7816531E-02  0.1126479E+00
         25   -1    0    0    0    0  0.00000000000E+00  0.00000000000E+00  0.99999998245E-14  0.12500000000E+03  0.12500000000E+03 0.  0.
    3000001    1    3    3    0    0  0.54956196778E+02 -0.21894870717E+01  0.24613152536E+01  0.55063921861E+02  0.10000000000E+01 0.  1.
    1000022    2    1    0    0    0  0.61679989113E+02  0.69636046984E+00  0.11593020393E+01  0.62499998953E+02  0.99999956551E+01 0.  0.
    3000022    2    3    3    0    0  0.67237923350E+01  0.28858475416E+01 -0.13020132142E+01  0.74360770926E+01  0.25000943979E+00 0.  0.
    1000022    2    1    0    0    0 -0.61679989113E+02 -0.69636046984E+00 -0.11593020393E+01  0.62500001047E+02  0.10000008738E+02 0.  0.
    3000022    2    5    5    0    0 -0.48198777905E+02 -0.29265157185E+01 -0.41840393390E+01  0.48469117832E+02  0.25002480493E+00 0.  0.
        -13    1    4    4    0    0  0.49835982808E+01  0.21098955554E+01 -0.94494753645E+00  0.54947121787E+01  0.10500000000E+00 0. -1.
         13    1    4    4    0    0  0.17401940541E+01  0.77595198615E+00 -0.35706567777E+00  0.19413649139E+01  0.10500000000E+00 0.  1.
    3000001    1    5    5    0    0 -0.13481211207E+02  0.22301552487E+01  0.30247372997E+01  0.14030883215E+02  0.10000000000E+01 0. -1.
        -13    1    6    6    0    0 -0.23385262206E+02 -0.13897971805E+01 -0.20908161516E+01  0.23519875889E+02  0.10500000000E+00 0.  1.
         13    1    6    6    0    0 -0.24813515699E+02 -0.15367185381E+01 -0.20932231874E+01  0.24949241943E+02  0.10500000000E+00 0. -1.
</event>
<event>
11    0  0.3443539E-009  0.9118800E+02  0.7816531E-02  0.1126479E+00
         25   -1    0    0    0    0  0.00000000000E+00  0.00000000000E+00  0.99999998245E-14  0.12500000000E+03  0.12500000000E+03 0.  0.
    3000001    1    3    3    0    0  0.67341934686E+00  0.21801493600E+00  0.34473010476E+00  0.12727383762E+01  0.10000000000E+01 0. -1.
    1000022    2    1    0    0    0  0.49432271903E+02 -0.35472577711E+02  0.10217470307E+02  0.62500000329E+02  0.10000003339E+02 0.  0.
    3000022    2    3    3    0    0  0.48758852556E+02 -0.35690592647E+02  0.98727402022E+01  0.61227261953E+02  0.25000227985E+00 0.  0.
    1000022    2    1    0    0    0 -0.49432271903E+02  0.35472577711E+02 -0.10217470307E+02  0.62499999671E+02  0.99999992206E+01 0.  0.
    3000022    2    5    5    0    0 -0.37759502500E+02  0.31807488632E+02 -0.86760089778E+01  0.50128155567E+02  0.24997328720E+00 0.  0.
        -13    1    4    4    0    0  0.37168870999E+02 -0.27223841817E+02  0.75170118251E+01  0.46681677630E+02  0.10500000000E+00 0. -1.
         13    1    4    4    0    0  0.11589981557E+02 -0.84667508301E+01  0.23557283770E+01  0.14545584323E+02  0.10500000000E+00 0.  1.
    3000001    1    5    5    0    0 -0.11672769403E+02  0.36650890786E+01 -0.15414613291E+01  0.12371844104E+02  0.10000000000E+01 0.  1.
        -13    1    6    6    0    0 -0.18025850301E+02  0.15253762022E+02 -0.41071028205E+01  0.23968476244E+02  0.10500000000E+00 0.  1.
         13    1    6    6    0    0 -0.19733652199E+02  0.16553726610E+02 -0.45689061574E+01  0.26159679323E+02  0.10500000000E+00 0. -1.
</event>
<event>
11    0  0.3443539E-009  0.9118800E+02  0.7816531E-02  0.1126479E+00
         25   -1    0    0    0    0  0.00000000000E+00  0.00000000000E+00  0.99999998245E-14  0.12500000000E+03  0.12500000000E+03 0.  0.
    3000001    1    3    3    0    0 -0.15156073366E+01  0.22446832981E+01  0.14931758677E+01  0.32504219541E+01  0.10000000000E+01 0.  1.
    1000022    2    1    0    0    0 -0.22321401803E+02  0.16247003595E+02  0.55172820262E+02  0.62500002353E+02  0.10000004707E+02 0.  0.
    3000022    2    3    3    0    0 -0.20805794466E+02  0.14002320297E+02  0.53679644395E+02  0.59249580399E+02  0.24999606509E+00 0.  0.
    1000022    2    1    0    0    0  0.22321401803E+02 -0.16247003595E+02 -0.55172820262E+02  0.62499997647E+02  0.99999752955E+01 0.  0.
    3000022    2    5    5    0    0  0.73009689809E+01 -0.92300493781E+00 -0.94285644634E+01  0.11963127190E+02  0.24999628846E+00 0.  0.
        -13    1    4    4    0    0 -0.52417222561E+01  0.35545921091E+01  0.13596417616E+02  0.14999479133E+02  0.10500000000E+00 0. -1.
         13    1    4    4    0    0 -0.15564072210E+02  0.10447728188E+02  0.40083226779E+02  0.44250101266E+02  0.10500000000E+00 0.  1.
    3000001    1    5    5    0    0  0.15020432822E+02 -0.15323998657E+02 -0.45744255799E+02  0.50536870457E+02  0.10000000000E+01 0. -1.
        -13    1    6    6    0    0  0.25856643144E+01 -0.27231374610E+00 -0.33027665039E+01  0.42046529348E+01  0.10500000000E+00 0. -1.
         13    1    6    6    0    0  0.47153046665E+01 -0.65069119170E+00 -0.61257979595E+01  0.77584742550E+01  0.10500000000E+00 0.  1.
</event>
<event>
11    0  0.3443539E-009  0.9118800E+02  0.7816531E-02  0.1126479E+00
         25   -1    0    0    0    0  0.00000000000E+00  0.00000000000E+00  0.99999998245E-14  0.12500000000E+03  0.12500000000E+03 0.  0.
    3000001    1    3    3    0    0 -0.49112757687E+01 -0.25428159752E+02 -0.51493022646E+01  0.26423990083E+02  0.10000000000E+01 0. -1.
    1000022    2    1    0    0    0 -0.22407702496E+02 -0.56569530080E+02 -0.10199658752E+02  0.62500000042E+02  0.10000005095E+02 0.  0.
    3000022    2    3    3    0    0 -0.17496426727E+02 -0.31141370328E+02 -0.50503564873E+01  0.36076009959E+02  0.24999959247E+00 0.  0.
    1000022    2    1    0    0    0  0.22407702496E+02  0.56569530080E+02  0.10199658752E+02  0.62499999958E+02  0.10000004574E+02 0.  0.
    3000022    2    5    5    0    0  0.68269814141E+01  0.16915610014E+02 -0.15052170001E+01  0.18305018767E+02  0.24999300416E+00 0.  0.
        -13    1    4    4    0    0 -0.10446047083E+02 -0.18633972568E+02 -0.30808346194E+01  0.21583498333E+02  0.10500000000E+00 0.  1.
         13    1    4    4    0    0 -0.70503796440E+01 -0.12507397760E+02 -0.19695218679E+01  0.14492511626E+02  0.10500000000E+00 0. -1.
    3000001    1    5    5    0    0  0.15580721082E+02  0.39653920067E+02  0.11704875752E+02  0.44194981191E+02  0.10000000000E+01 0. -1.
        -13    1    6    6    0    0  0.19449735787E+01  0.49195357044E+01 -0.45743847109E+00  0.53108406795E+01  0.10500000000E+00 0.  1.
         13    1    6    6    0    0  0.48820078354E+01  0.11996074309E+02 -0.10477785290E+01  0.12994178088E+02  0.10500000000E+00 0. -1.
</event>
<event>
11    0  0.3443539E-009  0.9118800E+02  0.7816531E-02  0.1126479E+00
         25   -1    0    0    0    0  0.00000000000E+00  0.00000000000E+00  0.99999998245E-14  0.12500000000E+03  0.12500000000E+03 0.  0.
    3000001    1    3    3    0    0 -0.20670516284E+02 -0.38852081304E+02  0.19216268346E+02  0.48031442142E+02  0.10000000000E+01 0. -1.
    1000022    2    1    0    0    0 -0.22611750816E+02 -0.49936853202E+02  0.28306706323E+02  0.62499998444E+02  0.99999800012E+01 0.  0.
    3000022    2    3    3    0    0 -0.19412345320E+01 -0.11084771898E+02  0.90904379765E+01  0.14468556302E+02  0.24999865584E+00 0.  0.
    1000022    2    1    0    0    0  0.22611750816E+02  0.49936853202E+02 -0.28306706323E+02  0.62500001556E+02  0.99999994505E+01 0.  0.
    3000022    2    5    5    0    0  0.72066275490E+00  0.63468023854E+01 -0.63096185669E+01  0.89819285675E+01  0.24999801411E+00 0.  0.
        -13    1    4    4    0    0 -0.94755204205E+00 -0.52862479410E+01  0.44206748359E+01  0.69566991577E+01  0.10500000000E+00 0. -1.
         13    1    4    4    0    0 -0.99368248991E+00 -0.57985239567E+01  0.46697631407E+01  0.75118571444E+01  0.10500000000E+00 0.  1.
    3000001    1    5    5    0    0  0.21891088061E+02  0.43590050816E+02 -0.21997087756E+02  0.53518072988E+02  0.10000000000E+01 0. -1.
        -13    1    6    6    0    0  0.22454533439E+00  0.20232062871E+01 -0.19419671507E+01  0.28153233743E+01  0.10500000000E+00 0. -1.
         13    1    6    6    0    0  0.49611742051E+00  0.43235960983E+01 -0.43676514162E+01  0.61666051932E+01  0.10500000000E+00 0.  1.
</event>
<event>
11    0  0.3443539E-009  0.9118800E+02  0.7816531E-02  0.1126479E+00
         25   -1    0    0    0    0  0.00000000000E+00  0.00000000000E+00  0.99999998245E-14  0.12500000000E+03  0.12500000000E+03 0.  0.
    3000001    1    3    3    0    0 -0.13590093980E+01 -0.92585706093E+01 -0.16163286287E+01  0.95488509522E+01  0.10000000000E+01 0.  1.
    1000022    2    1    0    0    0  0.94066492790E+01 -0.60902545336E+02  0.29402296834E+01  0.62500000640E+02  0.10000002520E+02 0.  0.
    3000022    2    3    3    0    0  0.10765658677E+02 -0.51643974726E+02  0.45565583122E+01  0.52951149688E+02  0.24999465820E+00 0.  0.
    1000022    2    1    0    0    0 -0.94066492790E+01  0.60902545336E+02 -0.29402296834E+01  0.62499999360E+02  0.99999945194E+01 0.  0.
    3000022    2    5    5    0    0 -0.42012646521E+01  0.63536720795E+01 -0.58573505607E+00  0.76436483368E+01  0.25000153927E+00 0.  0.
        -13    1    4    4    0    0  0.59177523345E+01 -0.28226525392E+02  0.25493431847E+01  0.28952835855E+02  0.10500000000E+00 0.  1.
         13    1    4    4    0    0  0.48479063425E+01 -0.23417449335E+02  0.20072151275E+01  0.23998313833E+02  0.10500000000E+00 0. -1.
    3000001    1    5    5    0    0 -0.52053846269E+01  0.54548873256E+02 -0.23544946274E+01  0.54856351023E+02  0.10000000000E+01 0. -1.
        -13    1    6    6    0    0 -0.16376584837E+01  0.23673940889E+01 -0.21539532051E+00  0.28885810055E+01  0.10500000000E+00 0. -1.
         13    1    6    6    0    0 -0.25636061684E+01  0.39862779906E+01 -0.37033973556E+00  0.47550673313E+01  0.10500000000E+00 0.  1.
</event>
<event>
11    0  0.3443539E-009  0.9118800E+02  0.7816531E-02  0.1126479E+00
         25   -1    0    0    0    0  0.00000000000E+00  0.00000000000E+00  0.99999998245E-14  0.12500000000E+03  0.12500000000E+03 0.  0.
    3000001    1    3    3    0    0 -0.21329193656E+02  0.43004156898E+02  0.10117006752E+02  0.49067767813E+02  0.10000000000E+01 0. -1.
    1000022    2    1    0    0    0 -0.24238277287E+02  0.56048323405E+02  0.87943989759E+01  0.62499999119E+02  0.99999897090E+01 0.  0.
    3000022    2    3    3    0    0 -0.29090836316E+01  0.13044166507E+02 -0.13226077760E+01  0.13432231306E+02  0.24999820186E+00 0.  0.
    1000022    2    1    0    0    0  0.24238277287E+02 -0.56048323405E+02 -0.87943989759E+01  0.62500000881E+02  0.10000000720E+02 0.  0.
    3000022    2    5    5    0    0  0.18366727137E+02 -0.50049890285E+02 -0.88675608023E+01  0.54046501386E+02  0.24998831958E+00 0.  0.
        -13    1    4    4    0    0 -0.20907188870E+01  0.91689067701E+01 -0.92899514254E+00  0.94506091761E+01  0.10500000000E+00 0.  1.
         13    1    4    4    0    0 -0.81836474459E+00  0.38752597368E+01 -0.39361263347E+00  0.39816221303E+01  0.10500000000E+00 0. -1.
    3000001    1    5    5    0    0  0.58715501508E+01 -0.59984331197E+01  0.73161826362E-01  0.84534994953E+01  0.10000000000E+01 0. -1.
        -13    1    6    6    0    0  0.13511460436E+02 -0.36914377604E+02 -0.65397599880E+01  0.39849847211E+02  0.10500000000E+00 0.  1.
         13    1    6    6    0    0  0.48552667004E+01 -0.13135512681E+02 -0.23278008143E+01  0.14196654175E+02  0.10500000000E+00 0. -1.
</event>
<event>
11    0  0.3443539E-009  0.9118800E+02  0.7816531E-02  0.1126479E+00
         25   -1    0    0    0    0  0.00000000000E+00  0.00000000000E+00  0.99999998245E-14  0.12500000000E+03  0.12500000000E+03 0.  0.
    3000001    1    3    3    0    0 -0.29325517400E+02 -0.36310368832E+02  0.23803050955E+02  0.52402424470E+02  0.10000000000E+01 0. -1.
    1000022    2    1    0    0    0 -0.37917478595E+02 -0.41110682454E+02  0.26046631408E+02  0.62499996387E+02  0.99999572929E+01 0.  0.
    3000022    2    3    3    0    0 -0.85919611949E+01 -0.48003136219E+01  0.22435804521E+01  0.10097571917E+02  0.24999467568E+00 0.  0.
    1000022    2    1    0    0    0  0.37917478595E+02  0.41110682454E+02 -0.26046631408E+02  0.62500003613E+02  0.10000002456E+02 0.  0.
    3000022    2    5    5    0    0  0.32053223391E+02  0.30059738511E+02 -0.22938287648E+02  0.49570399904E+02  0.24999474491E+00 0.  0.
        -13    1    4    4    0    0 -0.64168924364E+01 -0.36155010026E+01  0.16719148889E+01  0.75534548676E+01  0.10500000000E+00 0. -1.
         13    1    4    4    0    0 -0.21750687585E+01 -0.11848126193E+01  0.57166556319E+00  0.25441170498E+01  0.10500000000E+00 0.  1.
    3000001    1    5    5    0    0  0.58642552036E+01  0.11050943944E+02 -0.31083437600E+01  0.12929603709E+02  0.10000000000E+01 0. -1.
        -13    1    6    6    0    0  0.15684109132E+02  0.14671322731E+02 -0.11140724197E+02  0.24194333026E+02  0.10500000000E+00 0. -1.
         13    1    6    6    0    0  0.16369114259E+02  0.15388415780E+02 -0.11797563451E+02  0.25376066879E+02  0.10500000000E+00 0.  1.
</event>
<event>
11    0  0.3443539E-009  0.9118800E+02  0.7816531E-02  0.1126479E+00
         25   -1    0    0    0    0  0.00000000000E+00  0.00000000000E+00  0.99999998245E-14  0.12500000000E+03  0.12500000000E+03 0.  0.
    3000001    1    3    3    0    0 -0.11750629253E+01 -0.79135498912E+00 -0.13854001531E+00  0.17396002222E+01  0.10000000000E+01 0.  1.
    1000022    2    1    0    0    0 -0.35043448368E+02 -0.28890935669E+02  0.41755491728E+02  0.62500001447E+02  0.99999827073E+01 0.  0.
    3000022    2    3    3    0    0 -0.33868385442E+02 -0.28099580680E+02  0.41894031743E+02  0.60760401225E+02  0.24998895497E+00 0.  0.
    1000022    2    1    0    0    0  0.35043448368E+02  0.28890935669E+02 -0.41755491728E+02  0.62499998553E+02  0.99999646159E+01 0.  0.
    3000022    2    5    5    0    0  0.19219147589E+02  0.12049474923E+02 -0.26038702077E+02  0.34534649062E+02  0.25000005122E+00 0.  0.
        -13    1    4    4    0    0 -0.11262923738E+02 -0.92779951099E+01  0.13911450790E+02  0.20161203646E+02  0.10500000000E+00 0.  1.
         13    1    4    4    0    0 -0.22605461704E+02 -0.18821585570E+02  0.27982580954E+02  0.40599197579E+02  0.10500000000E+00 0. -1.
    3000001    1    5    5    0    0  0.15824300779E+02  0.16841460746E+02 -0.15716789651E+02  0.27965349491E+02  0.10000000000E+01 0. -1.
        -13    1    6    6    0    0  0.10255057932E+02  0.64118137920E+01 -0.13982955600E+02  0.18488148680E+02  0.10500000000E+00 0. -1.
         13    1    6    6    0    0  0.89640896564E+01  0.56376611310E+01 -0.12055746477E+02  0.16046500382E+02  0.10500000000E+00 0.  1.
</event>
<event>
11    0  0.3443539E-009  0.9118800E+02  0.7816531E-02  0.1126479E+00
         25   -1    0    0    0    0  0.00000000000E+00  0.00000000000E+00  0.99999998245E-14  0.12500000000E+03  0.12500000000E+03 0.  0.
    3000001    1    3    3    0    0  0.66256464159E+01 -0.13406022030E+02 -0.54133583466E+02  0.56169969521E+02  0.10000000000E+01 0. -1.
    1000022    2    1    0    0    0  0.63432869278E+01 -0.11752062709E+02 -0.60232064658E+02  0.62499999592E+02  0.10000003452E+02 0.  0.
    3000022    2    3    3    0    0 -0.28235948809E+00  0.16539593204E+01 -0.60984811922E+01  0.63300300712E+01  0.24999907432E+00 0.  0.
    1000022    2    1    0    0    0 -0.63432869278E+01  0.11752062709E+02  0.60232064658E+02  0.62500000408E+02  0.10000008550E+02 0.  0.
    3000022    2    5    5    0    0 -0.17942977652E+01 -0.90348719341E+00  0.25154603999E+01  0.32289058265E+01  0.24999646854E+00 0.  0.
        -13    1    4    4    0    0 -0.22095881622E+00  0.12588130995E+01 -0.46829782276E+01  0.48553829198E+01  0.10500000000E+00 0.  1.
         13    1    4    4    0    0 -0.61400671871E-01  0.39514622083E+00 -0.14155029646E+01  0.14746471514E+01  0.10500000000E+00 0. -1.
    3000001    1    5    5    0    0 -0.45489891626E+01  0.12655549903E+02  0.57716604259E+02  0.59271094581E+02  0.10000000000E+01 0.  1.
        -13    1    6    6    0    0 -0.10935094775E+01 -0.61457302083E+00  0.15326203527E+01  0.19832834192E+01  0.10500000000E+00 0. -1.
         13    1    6    6    0    0 -0.70078828764E+00 -0.28891417258E+00  0.98284004723E+00  0.12456224073E+01  0.10500000000E+00 0.  1.
</event>
<event>
11    0  0.3443539E-009  0.9118800E+02  0.7816531E-02  0.1126479E+00
         25   -1    0    0    0    0  0.00000000000E+00  0.00000000000E+00  0.99999998245E-14  0.12500000000E+03  0.12500000000E+03 0.  0.
    3000001    1    3    3    0    0  0.26146395758E+01  0.10130449348E+02 -0.22278483795E-01  0.10510130372E+02  0.10000000000E+01 0.  1.
    1000022    2    1    0    0    0 -0.54562235141E+01  0.61258041869E+02 -0.48920255498E+01  0.62499999465E+02  0.99999975241E+01 0.  0.
    3000022    2    3    3    0    0 -0.80708630899E+01  0.51127592521E+02 -0.48697470660E+01  0.51989869093E+02  0.25000763549E+00 0.  0.
    1000022    2    1    0    0    0  0.54562235141E+01 -0.61258041869E+02  0.48920255498E+01  0.62500000535E+02  0.10000004208E+02 0.  0.
    3000022    2    5    5    0    0  0.44908231087E+01 -0.59548216495E+02  0.33523464695E+01  0.59811857603E+02  0.25000613072E+00 0.  0.
        -13    1    4    4    0    0 -0.51951483921E+01  0.33271178137E+02 -0.31636988519E+01  0.33822786356E+02  0.10500000000E+00 0. -1.
         13    1    4    4    0    0 -0.28757146978E+01  0.17856414384E+02 -0.17060482141E+01  0.18167082737E+02  0.10500000000E+00 0.  1.
    3000001    1    5    5    0    0  0.96540040536E+00 -0.17098253739E+01  0.15396790803E+01  0.26881429319E+01  0.10000000000E+01 0.  1.
        -13    1    6    6    0    0  0.29876774144E+01 -0.40183267683E+02  0.22323400125E+01  0.40356109636E+02  0.10500000000E+00 0.  1.
         13    1    6    6    0    0  0.15031456944E+01 -0.19364948812E+02  0.11200064570E+01  0.19455747967E+02  0.10500000000E+00 0. -1.
</event>
<event>
11    0  0.3443539E-009  0.9118800E+02  0.7816531E-02  0.1126479E+00
         25   -1    0    0    0    0  0.00000000000E+00  0.00000000000E+00  0.99999998245E-14  0.12500000000E+03  0.12500000000E+03 0.  0.
    3000001    1    3    3    0    0  0.30758385884E+02  0.19340194989E+01 -0.15606063141E-01  0.30835352717E+02  0.10000000000E+01 0. -1.
    1000022    2    1    0    0    0  0.60762829182E+02  0.40992841165E+01  0.98653046230E+01  0.62500000000E+02  0.10000011209E+02 0.  0.
    3000022    2    3    3    0    0  0.30004443298E+02  0.21652646176E+01  0.98809106861E+01  0.31664647283E+02  0.25000616497E+00 0.  0.
    1000022    2    1    0    0    0 -0.60762829182E+02 -0.40992841165E+01 -0.98653046230E+01  0.62500000000E+02  0.10000011213E+02 0.  0.
    3000022    2    5    5    0    0 -0.49113488942E+02  0.22315374175E+00 -0.95253743124E+01  0.50029789509E+02  0.24997787797E+00 0.  0.
        -13    1    4    4    0    0  0.12151353055E+02  0.82515683585E+00  0.40394449265E+01  0.12832162919E+02  0.10500000000E+00 0. -1.
         13    1    4    4    0    0  0.17853090243E+02  0.13401077817E+01  0.58414657596E+01  0.18832484364E+02  0.10500000000E+00 0.  1.
    3000001    1    5    5    0    0 -0.11649340240E+02 -0.43224378582E+01 -0.33993031051E+00  0.12470210491E+02  0.10000000000E+01 0. -1.
        -13    1    6    6    0    0 -0.22060717608E+02  0.64759796876E-01 -0.42211557132E+01  0.22461269683E+02  0.10500000000E+00 0. -1.
         13    1    6    6    0    0 -0.27052771333E+02  0.15839394487E+00 -0.53042185993E+01  0.27568519826E+02  0.10500000000E+00 0.  1.
</event>
<event>
11    0  0.3443539E-009  0.9118800E+02  0.7816531E-02  0.1126479E+00
         25   -1    0    0    0    0  0.00000000000E+00  0.00000000000E+00  0.99999998245E-14  0.12500000000E+03  0.12500000000E+03 0.  0.
    3000001    1    3    3    0    0  0.21799992258E+02  0.16495208462E+02  0.39990933602E+02  0.48452103515E+02  0.10000000000E+01 0. -1.
    1000022    2    1    0    0    0  0.32332190615E+02  0.19645220948E+02  0.48733412493E+02  0.62499993625E+02  0.99999226952E+01 0.  0.
    3000022    2    3    3    0    0  0.10532198357E+02  0.31500124861E+01  0.87424788904E+01  0.14047890110E+02  0.24999700461E+00 0.  0.
    1000022    2    1    0    0    0 -0.32332190615E+02 -0.19645220948E+02 -0.48733412493E+02  0.62500006375E+02  0.10000002377E+02 0.  0.
    3000022    2    5    5    0    0 -0.11719188701E+02 -0.12815909584E+02 -0.20516515055E+02  0.26880789053E+02  0.25001560351E+00 0.  0.
        -13    1    4    4    0    0  0.55988581656E+01  0.16393228837E+01  0.45647646444E+01  0.74082854652E+01  0.10500000000E+00 0. -1.
         13    1    4    4    0    0  0.49333401916E+01  0.15106896023E+01  0.41777142460E+01  0.66396046450E+01  0.10500000000E+00 0.  1.
    3000001    1    5    5    0    0 -0.20613001914E+02 -0.68293113641E+01 -0.28216897437E+02  0.35619217322E+02  0.10000000000E+01 0. -1.
        -13    1    6    6    0    0 -0.47441827188E+01 -0.51067037360E+01 -0.82831970777E+01  0.10826267665E+02  0.10500000000E+00 0.  1.
         13    1    6    6    0    0 -0.69750059825E+01 -0.77092058481E+01 -0.12233317978E+02  0.16054521388E+02  0.10500000000E+00 0. -1.
</event>
<event>
11    0  0.3443539E-009  0.9118800E+02  0.7816531E-02  0.1126479E+00
         25   -1    0    0    0    0  0.00000000000E+00  0.00000000000E+00  0.99999998245E-14  0.12500000000E+03  0.12500000000E+03 0.  0.
    3000001    1    3    3    0    0 -0.40422537628E+02 -0.22095528093E+02  0.75830782538E+00  0.46084367640E+02  0.10000000000E+01 0. -1.
    1000022    2    1    0    0    0 -0.51315273718E+02 -0.34231001378E+02 -0.11095925271E+01  0.62499999430E+02  0.99999980531E+01 0.  0.
    3000022    2    3    3    0    0 -0.10892736090E+02 -0.12135473286E+02 -0.18679003525E+01  0.16415631791E+02  0.25000791904E+00 0.  0.
    1000022    2    1    0    0    0  0.51315273718E+02  0.34231001378E+02  0.11095925271E+01  0.62500000570E+02  0.10000005172E+02 0.  0.
    3000022    2    5    5    0    0  0.45394396685E+02  0.29755465348E+02  0.41073128076E+01  0.54433183695E+02  0.25000043103E+00 0.  0.
        -13    1    4    4    0    0 -0.63008992628E+01 -0.69504722590E+01 -0.11207239700E+01  0.94486741589E+01  0.10500000000E+00 0. -1.
         13    1    4    4    0    0 -0.45918368275E+01 -0.51850010268E+01 -0.74717638248E+00  0.69669576319E+01  0.10500000000E+00 0.  1.
    3000001    1    5    5    0    0  0.59208770337E+01  0.44755360300E+01 -0.29977202805E+01  0.80668168744E+01  0.10000000000E+01 0.  1.
        -13    1    6    6    0    0  0.25488871579E+02  0.16672272462E+02  0.22455184295E+01  0.30540147698E+02  0.10500000000E+00 0. -1.
         13    1    6    6    0    0  0.19905525106E+02  0.13083192886E+02  0.18617943781E+01  0.23893035997E+02  0.10500000000E+00 0.  1.
</event>
<event>
11    0  0.3443539E-009  0.9118800E+02  0.7816531E-02  0.1126479E+00
         25   -1    0    0    0    0  0.00000000000E+00  0.00000000000E+00  0.99999998245E-14  0.12500000000E+03  0.12500000000E+03 0.  0.
    3000001    1    3    3    0    0 -0.85694756652E+01  0.60476927446E+01  0.12199850430E+02  0.16119765855E+02  0.10000000000E+01 0.  1.
    1000022    2    1    0    0    0 -0.18252069988E+02  0.29707779574E+02  0.50897539783E+02  0.62499998795E+02  0.10000003364E+02 0.  0.
    3000022    2    3    3    0    0 -0.96825943228E+01  0.23660086830E+02  0.38697689353E+02  0.46380232939E+02  0.25000930796E+00 0.  0.
    1000022    2    1    0    0    0  0.18252069988E+02 -0.29707779574E+02 -0.50897539783E+02  0.62500001205E+02  0.10000018432E+02 0.  0.
    3000022    2    5    5    0    0  0.18709281419E+02 -0.26197394191E+02 -0.48096553709E+02  0.57876434312E+02  0.24999273615E+00 0.  0.
        -13    1    4    4    0    0 -0.24286061394E+01  0.59652836967E+01  0.97051787807E+01  0.11648358577E+02  0.10500000000E+00 0.  1.
         13    1    4    4    0    0 -0.72539881835E+01  0.17694803133E+02  0.28992510572E+02  0.34731874363E+02  0.10500000000E+00 0. -1.
    3000001    1    5    5    0    0 -0.45721143128E+00 -0.35103853830E+01 -0.28009860742E+01  0.46235668934E+01  0.10000000000E+01 0.  1.
        -13    1    6    6    0    0  0.10146626186E+02 -0.14261629022E+02 -0.26256044762E+02  0.31555332305E+02  0.10500000000E+00 0. -1.
         13    1    6    6    0    0  0.85626552330E+01 -0.11935765169E+02 -0.21840508947E+02  0.26321102007E+02  0.10500000000E+00 0.  1.
</event>
<event>
11    0  0.3443539E-009  0.9118800E+02  0.7816531E-02  0.1126479E+00
         25   -1    0    0    0    0  0.00000000000E+00  0.00000000000E+00  0.99999998245E-14  0.12500000000E+03  0.12500000000E+03 0.  0.
    3000001    1    3    3    0    0  0.28953778191E+02 -0.38208047809E+02 -0.23490171729E+02  0.53394422525E+02  0.10000000000E+01 0.  1.
    1000022    2    1    0    0    0  0.30090946613E+02 -0.45505889216E+02 -0.28809699270E+02  0.62499998511E+02  0.10000001024E+02 0.  0.
    3000022    2    3    3    0    0  0.11371684213E+01 -0.72978414069E+01 -0.53195275410E+01  0.91055759860E+01  0.24999911751E+00 0.  0.
    1000022    2    1    0    0    0 -0.30090946613E+02  0.45505889216E+02  0.28809699270E+02  0.62500001489E+02  0.10000019641E+02 0.  0.
    3000022    2    5    5    0    0 -0.54619916658E+01  0.45426363299E+01  0.96269135586E+00  0.71734313941E+01  0.24989104890E+00 0.  0.
        -13    1    4    4    0    0  0.56590358735E+00 -0.37863488153E+01 -0.26791098173E+01  0.46738997244E+01  0.10500000000E+00 0.  1.
         13    1    4    4    0    0  0.57126483395E+00 -0.35114925917E+01 -0.26404177237E+01  0.44316762616E+01  0.10500000000E+00 0. -1.
    3000001    1    5    5    0    0 -0.24628954947E+02  0.40963252886E+02  0.27847007914E+02  0.55326570095E+02  0.10000000000E+01 0.  1.
        -13    1    6    6    0    0 -0.32501217056E+01  0.27076913221E+01  0.50926437662E+00  0.42620721020E+01  0.10500000000E+00 0.  1.
         13    1    6    6    0    0 -0.22118699602E+01  0.18349450077E+01  0.45342697924E+00  0.29113592921E+01  0.10500000000E+00 0. -1.
</event>
<event>
11    0  0.3443539E-009  0.9118800E+02  0.7816531E-02  0.1126479E+00
         25   -1    0    0    0    0  0.00000000000E+00  0.00000000000E+00  0.99999998245E-14  0.12500000000E+03  0.12500000000E+03 0.  0.
    3000001    1    3    3    0    0  0.84624690423E+01 -0.34554787896E+02  0.20993818157E+02  0.41320541498E+02  0.10000000000E+01 0. -1.
    1000022    2    1    0    0    0  0.17756818459E+02 -0.47978997004E+02  0.34481318372E+02  0.62500000473E+02  0.99999993607E+01 0.  0.
    3000022    2    3    3    0    0  0.92943494162E+01 -0.13424209108E+02  0.13487500215E+02  0.21179458976E+02  0.24999843179E+00 0.  0.
    1000022    2    1    0    0    0 -0.17756818459E+02  0.47978997004E+02 -0.34481318372E+02  0.62499999527E+02  0.99999934450E+01 0.  0.
    3000022    2    5    5    0    0 -0.16864370899E+02  0.39005121235E+02 -0.31677849692E+02  0.53003350349E+02  0.24999745733E+00 0.  0.
        -13    1    4    4    0    0  0.51897766322E+01 -0.73883602782E+01  0.74240952119E+01  0.11689733265E+02  0.10500000000E+00 0. -1.
         13    1    4    4    0    0  0.41045727840E+01 -0.60358488295E+01  0.60634050028E+01  0.94897257105E+01  0.10500000000E+00 0.  1.
    3000001    1    5    5    0    0 -0.89244755926E+00  0.89738757692E+01 -0.28034686798E+01  0.94966491778E+01  0.10000000000E+01 0.  1.
        -13    1    6    6    0    0 -0.70820389570E+01  0.16399667678E+02 -0.13396742269E+02  0.22329086505E+02  0.10500000000E+00 0.  1.
         13    1    6    6    0    0 -0.97823319422E+01  0.22605453557E+02 -0.18281107423E+02  0.30674263844E+02  0.10500000000E+00 0. -1.
</event>
<event>
11    0  0.3443539E-009  0.9118800E+02  0.7816531E-02  0.1126479E+00
         25   -1    0    0    0    0  0.00000000000E+00  0.00000000000E+00  0.99999998245E-14  0.12500000000E+03  0.12500000000E+03 0.  0.
    3000001    1    3    3    0    0 -0.16030105128E+02  0.36251257847E+02 -0.17765606581E+02  0.43448069498E+02  0.10000000000E+01 0. -1.
    1000022    2    1    0    0    0 -0.27149630000E+02  0.51482953659E+02 -0.20461021504E+02  0.62500002053E+02  0.99999964516E+01 0.  0.
    3000022    2    3    3    0    0 -0.11119524872E+02  0.15231695812E+02 -0.26954149236E+01  0.19051932555E+02  0.24996357499E+00 0.  0.
    1000022    2    1    0    0    0  0.27149630000E+02 -0.51482953659E+02  0.20461021504E+02  0.62499997947E+02  0.99999707885E+01 0.  0.
    3000022    2    5    5    0    0  0.13002541242E+01 -0.81669605445E+01  0.65655538949E+00  0.82996070742E+01  0.25001456578E+00 0.  0.
        -13    1    4    4    0    0 -0.71039338276E+01  0.96572896794E+01 -0.16736420451E+01  0.12105421202E+02  0.10500000000E+00 0.  1.
         13    1    4    4    0    0 -0.40155910445E+01  0.55744061326E+01 -0.10217728784E+01  0.69465113534E+01  0.10500000000E+00 0. -1.
    3000001    1    5    5    0    0  0.25849375876E+02 -0.43315993115E+02  0.19804466115E+02  0.54200390873E+02  0.10000000000E+01 0. -1.
        -13    1    6    6    0    0  0.68992404861E+00 -0.44659591758E+01  0.42244096139E+00  0.45398532926E+01  0.10500000000E+00 0. -1.
         13    1    6    6    0    0  0.61033007559E+00 -0.37010013688E+01  0.23411442810E+00  0.37597537816E+01  0.10500000000E+00 0.  1.
</event>
<event>
11    0  0.3443539E-009  0.9118800E+02  0.7816531E-02  0.1126479E+00
         25   -1    0    0    0    0  0.00000000000E+00  0.00000000000E+00  0.99999998245E-14  0.12500000000E+03  0.12500000000E+03 0.  0.
    3000001    1    3    3    0    0  0.28322516560E+01 -0.61844769573E+01  0.57587715346E+01  0.89684365564E+01  0.10000000000E+01 0. -1.
    1000022    2    1    0    0    0  0.64312529202E+01 -0.29358083376E+02  0.53879421411E+02  0.62500000039E+02  0.99999939833E+01 0.  0.
    3000022    2    3    3    0    0  0.35990012643E+01 -0.23173606419E+02  0.48120649876E+02  0.53531563483E+02  0.24999966146E+00 0.  0.
    1000022    2    1    0    0    0 -0.64312529202E+01  0.29358083376E+02 -0.53879421411E+02  0.62499999961E+02  0.99999934916E+01 0.  0.
    3000022    2    5    5    0    0 -0.66323184695E+01  0.91134629084E+01 -0.22029900453E+02  0.24747158074E+02  0.24992862089E+00 0.  0.
        -13    1    4    4    0    0  0.22909895159E+01 -0.15081915649E+02  0.31244541863E+02  0.34769889759E+02  0.10500000000E+00 0.  1.
         13    1    4    4    0    0  0.13080117484E+01 -0.80916907699E+01  0.16876108013E+02  0.18761673724E+02  0.10500000000E+00 0. -1.
    3000001    1    5    5    0    0  0.20106554929E+00  0.20244620468E+02 -0.31849520958E+02  0.37752841887E+02  0.10000000000E+01 0.  1.
        -13    1    6    6    0    0 -0.18446487952E+01  0.25422707958E+01 -0.60561145847E+01  0.68230065837E+01  0.10500000000E+00 0. -1.
         13    1    6    6    0    0 -0.47876696743E+01  0.65711921126E+01 -0.15973785868E+02  0.17924151490E+02  0.10500000000E+00 0.  1.
</event>
<event>
11    0  0.3443539E-009  0.9118800E+02  0.7816531E-02  0.1126479E+00
         25   -1    0    0    0    0  0.00000000000E+00  0.00000000000E+00  0.99999998245E-14  0.12500000000E+03  0.12500000000E+03 0.  0.
    3000001    1    3    3    0    0 -0.30671216723E+00  0.96411910254E+00 -0.22468542387E+01  0.26593141911E+01  0.10000000000E+01 0.  1.
    1000022    2    1    0    0    0  0.94064035986E+01 -0.14806050515E+02 -0.59148543254E+02  0.62499998809E+02  0.10000006074E+02 0.  0.
    3000022    2    3    3    0    0  0.97131157659E+01 -0.15770169617E+02 -0.56901689016E+02  0.59840684618E+02  0.24991003586E+00 0.  0.
    1000022    2    1    0    0    0 -0.94064035986E+01  0.14806050515E+02  0.59148543254E+02  0.62500001191E+02  0.10000020963E+02 0.  0.
    3000022    2    5    5    0    0  0.21041879175E-01  0.25748900371E+00 -0.36052755829E+00  0.50913993501E+00  0.25000001086E+00 0.  0.
        -13    1    4    4    0    0  0.53341265263E+01 -0.86994199718E+01 -0.31554486582E+02  0.33163676849E+02  0.10500000000E+00 0.  1.
         13    1    4    4    0    0  0.43789892395E+01 -0.70707496456E+01 -0.25347202433E+02  0.26677007769E+02  0.10500000000E+00 0. -1.
    3000001    1    5    5    0    0 -0.94274454778E+01  0.14548561511E+02  0.59509070813E+02  0.61990861256E+02  0.10000000000E+01 0.  1.
        -13    1    6    6    0    0 -0.18363482364E-01  0.16273165174E+00 -0.28213322703E+00  0.34269952693E+00  0.10500000000E+00 0. -1.
         13    1    6    6    0    0  0.39405361539E-01  0.94757351969E-01 -0.78394331259E-01  0.16644040809E+00  0.10500000000E+00 0.  1.
</event>
<event>
11    0  0.3443539E-009  0.9118800E+02  0.7816531E-02  0.1126479E+00
         25   -1    0    0    0    0  0.00000000000E+00  0.00000000000E+00  0.99999998245E-14  0.12500000000E+03  0.12500000000E+03 0.  0.
    3000001    1    3    3    0    0  0.75940538536E+01  0.45578518185E+01 -0.49452223144E+01  0.10193080539E+02  0.10000000000E+01 0. -1.
    1000022    2    1    0    0    0  0.51110767667E+02  0.67816325768E+01 -0.33881390413E+02  0.62500000821E+02  0.10000018720E+02 0.  0.
    3000022    2    3    3    0    0  0.43516713813E+02  0.22237807583E+01 -0.28936168098E+02  0.52306920282E+02  0.25000642445E+00 0.  0.
    1000022    2    1    0    0    0 -0.51110767667E+02 -0.67816325768E+01  0.33881390413E+02  0.62499999179E+02  0.10000008460E+02 0.  0.
    3000022    2    5    5    0    0 -0.12526668351E+02 -0.60549373576E+01  0.89237458268E+01  0.16531044120E+02  0.24998747484E+00 0.  0.
        -13    1    4    4    0    0  0.24921943171E+02  0.12909532829E+01 -0.16647831475E+02  0.29998852138E+02  0.10500000000E+00 0.  1.
         13    1    4    4    0    0  0.18594770642E+02  0.93282747543E+00 -0.12288336624E+02  0.22308068144E+02  0.10500000000E+00 0. -1.
    3000001    1    5    5    0    0 -0.38584099316E+02 -0.72669521921E+00  0.24957644586E+02  0.45968955059E+02  0.10000000000E+01 0. -1.
        -13    1    6    6    0    0 -0.78511628349E+01 -0.38591161825E+01  0.56284405602E+01  0.10403071840E+02  0.10500000000E+00 0. -1.
         13    1    6    6    0    0 -0.46755055162E+01 -0.21958211751E+01  0.32953052666E+01  0.61279722801E+01  0.10500000000E+00 0.  1.
</event>
<event>
11    0  0.3443539E-009  0.9118800E+02  0.7816531E-02  0.1126479E+00
         25   -1    0    0    0    0  0.00000000000E+00  0.00000000000E+00  0.99999998245E-14  0.12500000000E+03  0.12500000000E+03 0.  0.
    3000001    1    3    3    0    0  0.13319728925E+02  0.20887482565E+01 -0.14929425331E+02  0.20141146656E+02  0.10000000000E+01 0.  1.
    1000022    2    1    0    0    0  0.32882719253E+02  0.17631369912E+02 -0.49133606377E+02  0.62499996744E+02  0.99999943447E+01 0.  0.
    3000022    2    3    3    0    0  0.19562990328E+02  0.15542621656E+02 -0.34204181046E+02  0.42358850088E+02  0.25000237918E+00 0.  0.
    1000022    2    1    0    0    0 -0.32882719253E+02 -0.17631369912E+02  0.49133606377E+02  0.62500003256E+02  0.10000035047E+02 0.  0.
    3000022    2    5    5    0    0 -0.55513154193E+01 -0.56753955771E+01  0.16264331724E+02  0.18100226522E+02  0.24999175330E+00 0.  0.
        -13    1    4    4    0    0  0.13000663385E+02  0.10393714300E+02 -0.22814517645E+02  0.28241101001E+02  0.10500000000E+00 0.  1.
         13    1    4    4    0    0  0.65623269433E+01  0.51489073560E+01 -0.11389663401E+02  0.14117749086E+02  0.10500000000E+00 0. -1.
    3000001    1    5    5    0    0 -0.27331403834E+02 -0.11955974335E+02  0.32869274653E+02  0.44399776734E+02  0.10000000000E+01 0. -1.
        -13    1    6    6    0    0 -0.22008119603E+01 -0.21617442944E+01  0.63290494108E+01  0.70416335550E+01  0.10500000000E+00 0.  1.
         13    1    6    6    0    0 -0.33505034590E+01 -0.35136512827E+01  0.99352823134E+01  0.11058592967E+02  0.10500000000E+00 0. -1.
</event>
<event>
11    0  0.3443539E-009  0.9118800E+02  0.7816531E-02  0.1126479E+00
         25   -1    0    0    0    0  0.00000000000E+00  0.00000000000E+00  0.99999998245E-14  0.12500000000E+03  0.12500000000E+03 0.  0.
    3000001    1    3    3    0    0 -0.26816901922E+02  0.28371070073E+02 -0.80260590587E+01  0.39868301566E+02  0.10000000000E+01 0. -1.
    1000022    2    1    0    0    0 -0.46580165816E+02  0.39257595105E+02 -0.97662297718E+01  0.62499998748E+02  0.99999989370E+01 0.  0.
    3000022    2    3    3    0    0 -0.19763263894E+02  0.10886525032E+02 -0.17401707131E+01  0.22631697182E+02  0.24999244134E+00 0.  0.
    1000022    2    1    0    0    0  0.46580165816E+02 -0.39257595105E+02  0.97662297718E+01  0.62500001252E+02  0.10000014582E+02 0.  0.
    3000022    2    5    5    0    0  0.21200365656E+02 -0.22639987202E+02  0.15556414194E+01  0.31056513696E+02  0.24999654096E+00 0.  0.
        -13    1    4    4    0    0 -0.55230544497E+01  0.30877042615E+01 -0.49099358080E+00  0.63474520681E+01  0.10500000000E+00 0. -1.
         13    1    4    4    0    0 -0.14240209444E+02  0.77988207709E+01 -0.12491771323E+01  0.16284245114E+02  0.10500000000E+00 0.  1.
    3000001    1    5    5    0    0  0.25379800159E+02 -0.16617607904E+02  0.82105883525E+01  0.31443487556E+02  0.10000000000E+01 0. -1.
        -13    1    6    6    0    0  0.13597444983E+02 -0.14521930075E+02  0.10557279779E+01  0.19922413251E+02  0.10500000000E+00 0.  1.
         13    1    6    6    0    0  0.76029206736E+01 -0.81180571262E+01  0.49991344147E+00  0.11134100445E+02  0.10500000000E+00 0. -1.
</event>
<event>
11    0  0.3443539E-009  0.9118800E+02  0.7816531E-02  0.1126479E+00
         25   -1    0    0    0    0  0.00000000000E+00  0.00000000000E+00  0.99999998245E-14  0.12500000000E+03  0.12500000000E+03 0.  0.
    3000001    1    3    3    0    0  0.38718976018E+02  0.17274597127E+02  0.41800628376E+02  0.59547152261E+02  0.10000000000E+01 0. -1.
    1000022    2    1    0    0    0  0.40623735771E+02  0.19490710876E+02  0.42143496719E+02  0.62500000011E+02  0.99999983598E+01 0.  0.
    3000022    2    3    3    0    0  0.19047597533E+01  0.22161137489E+01  0.34286834320E+00  0.29528477499E+01  0.24996253275E+00 0.  0.
    1000022    2    1    0    0    0 -0.40623735771E+02 -0.19490710876E+02 -0.42143496719E+02  0.62499999989E+02  0.99999982208E+01 0.  0.
    3000022    2    5    5    0    0 -0.16223644127E+02 -0.29214841051E+01 -0.17610348027E+02  0.24123195369E+02  0.24999813470E+00 0.  0.
        -13    1    4    4    0    0  0.86715607780E+00  0.90850017066E+00  0.14613185375E+00  0.12687441594E+01  0.10500000000E+00 0.  1.
         13    1    4    4    0    0  0.10376036755E+01  0.13076135782E+01  0.19673648945E+00  0.16841035905E+01  0.10500000000E+00 0. -1.
    3000001    1    5    5    0    0 -0.24400091644E+02 -0.16569226771E+02 -0.24533148692E+02  0.38376804619E+02  0.10000000000E+01 0.  1.
        -13    1    6    6    0    0 -0.49844333347E+01 -0.91578460566E+00 -0.54795041378E+01  0.74645313121E+01  0.10500000000E+00 0.  1.
         13    1    6    6    0    0 -0.11239210793E+02 -0.20056994994E+01 -0.12130843889E+02  0.16658664057E+02  0.10500000000E+00 0. -1.
</event>
<event>
11    0  0.3443539E-009  0.9118800E+02  0.7816531E-02  0.1126479E+00
         25   -1    0    0    0    0  0.00000000000E+00  0.00000000000E+00  0.99999998245E-14  0.12500000000E+03  0.12500000000E+03 0.  0.
    3000001    1    3    3    0    0 -0.34463291830E+00 -0.14644732918E+01 -0.17331690562E+01  0.25034633706E+01  0.10000000000E+01 0. -1.
    1000022    2    1    0    0    0 -0.43239480369E+02 -0.12145871707E+02 -0.42297460000E+02  0.62500000011E+02  0.10000000840E+02 0.  0.
    3000022    2    3    3    0    0 -0.42894847451E+02 -0.10681398415E+02 -0.40564290944E+02  0.59996536640E+02  0.24999824422E+00 0.  0.
    1000022    2    1    0    0    0  0.43239480369E+02  0.12145871707E+02  0.42297460000E+02  0.62499999989E+02  0.10000000703E+02 0.  0.
    3000022    2    5    5    0    0  0.13049040953E+02  0.71345392616E+01  0.18389769396E+02  0.23652171800E+02  0.24998427363E+00 0.  0.
        -13    1    4    4    0    0 -0.27009637443E+02 -0.67068192447E+01 -0.25614711386E+02  0.37823622295E+02  0.10500000000E+00 0.  1.
         13    1    4    4    0    0 -0.15885210008E+02 -0.39745791700E+01 -0.14949579559E+02  0.22172914345E+02  0.10500000000E+00 0. -1.
    3000001    1    5    5    0    0  0.30190439415E+02  0.50113324449E+01  0.23907690604E+02  0.38847828189E+02  0.10000000000E+01 0. -1.
        -13    1    6    6    0    0  0.49215687822E+01  0.27402466624E+01  0.70332989302E+01  0.90116097280E+01  0.10500000000E+00 0.  1.
         13    1    6    6    0    0  0.81274721712E+01  0.43942925992E+01  0.11356470466E+02  0.14640562072E+02  0.10500000000E+00 0. -1.
</event>
<event>
11    0  0.3443539E-009  0.9118800E+02  0.7816531E-02  0.1126479E+00
         25   -1    0    0    0    0  0.00000000000E+00  0.00000000000E+00  0.99999998245E-14  0.12500000000E+03  0.12500000000E+03 0.  0.
    3000001    1    3    3    0    0  0.11477811087E+02  0.29493472341E+02  0.11702440014E+02  0.33757253448E+02  0.10000000000E+01 0.  1.
    1000022    2    1    0    0    0  0.16433831346E+02  0.57662888315E+02  0.14531711890E+02  0.62499998811E+02  0.99999849716E+01 0.  0.
    3000022    2    3    3    0    0  0.49560202590E+01  0.28169415974E+02  0.28292718754E+01  0.28742745363E+02  0.24999707598E+00 0.  0.
    1000022    2    1    0    0    0 -0.16433831346E+02 -0.57662888315E+02 -0.14531711890E+02  0.62500001189E+02  0.99999998308E+01 0.  0.
    3000022    2    5    5    0    0 -0.60211831304E+01 -0.38172014132E+02 -0.10046636622E+02  0.39929371613E+02  0.25000165845E+00 0.  0.
        -13    1    4    4    0    0  0.23784225372E+01  0.13890949720E+02  0.13730938793E+01  0.14160218561E+02  0.10500000000E+00 0. -1.
         13    1    4    4    0    0  0.25775977218E+01  0.14278466254E+02  0.14561779960E+01  0.14582526802E+02  0.10500000000E+00 0.  1.
    3000001    1    5    5    0    0 -0.10412648216E+02 -0.19490874183E+02 -0.44850752677E+01  0.22570629575E+02  0.10000000000E+01 0. -1.
        -13    1    6    6    0    0 -0.23245094370E+01 -0.14470096767E+02 -0.38560038033E+01  0.15154762779E+02  0.10500000000E+00 0. -1.
         13    1    6    6    0    0 -0.36966736934E+01 -0.23701917365E+02 -0.61906328186E+01  0.24774608834E+02  0.10500000000E+00 0.  1.
</event>
<event>
11    0  0.3443539E-009  0.9118800E+02  0.7816531E-02  0.1126479E+00
         25   -1    0    0    0    0  0.00000000000E+00  0.00000000000E+00  0.99999998245E-14  0.12500000000E+03  0.12500000000E+03 0.  0.
    3000001    1    3    3    0    0  0.28319426514E+01 -0.92643330428E+01  0.19518680235E+02  0.21813450988E+02  0.10000000000E+01 0. -1.
    1000022    2    1    0    0    0  0.13749931961E+02 -0.35993979490E+02  0.48183226100E+02  0.62499998877E+02  0.99999696835E+01 0.  0.
    3000022    2    3    3    0    0  0.10917989309E+02 -0.26729646447E+02  0.28664545866E+02  0.40686547889E+02  0.24999927186E+00 0.  0.
    1000022    2    1    0    0    0 -0.13749931961E+02  0.35993979490E+02 -0.48183226100E+02  0.62500001123E+02  0.99999837256E+01 0.  0.
    3000022    2    5    5    0    0 -0.98872647058E+01  0.17320914219E+02 -0.30700287905E+02  0.36610684931E+02  0.25000187372E+00 0.  0.
        -13    1    4    4    0    0  0.72238049123E+01 -0.17788462741E+02  0.19007583490E+02  0.27016883965E+02  0.10500000000E+00 0.  1.
         13    1    4    4    0    0  0.36941843968E+01 -0.89411837065E+01  0.96569623764E+01  0.13669663923E+02  0.10500000000E+00 0. -1.
    3000001    1    5    5    0    0 -0.38626672547E+01  0.18673065272E+02 -0.17482938195E+02  0.25889316192E+02  0.10000000000E+01 0. -1.
        -13    1    6    6    0    0 -0.45876896052E+01  0.79066100564E+01 -0.14103766358E+02  0.16807398043E+02  0.10500000000E+00 0. -1.
         13    1    6    6    0    0 -0.52995751006E+01  0.94143041622E+01 -0.16596521548E+02  0.19803286889E+02  0.10500000000E+00 0.  1.
</event>
<event>
11    0  0.3443539E-009  0.9118800E+02  0.7816531E-02  0.1126479E+00
         25   -1    0    0    0    0  0.00000000000E+00  0.00000000000E+00  0.99999998245E-14  0.12500000000E+03  0.12500000000E+03 0.  0.
    3000001    1    3    3    0    0 -0.11920716409E+01  0.40524119824E+01 -0.83568344157E+00  0.44205706065E+01  0.10000000000E+01 0.  1.
    1000022    2    1    0    0    0 -0.38301934588E+02  0.46896486717E+02  0.11829264090E+02  0.62499999870E+02  0.99999917632E+01 0.  0.
    3000022    2    3    3    0    0 -0.37109862947E+02  0.42844074734E+02  0.12664947532E+02  0.58079429263E+02  0.25007956518E+00 0.  0.
    1000022    2    1    0    0    0  0.38301934588E+02 -0.46896486717E+02 -0.11829264090E+02  0.62500000130E+02  0.99999933942E+01 0.  0.
    3000022    2    5    5    0    0  0.10789826525E+02 -0.15533726028E+02 -0.81830479566E+01  0.20609264399E+02  0.25000888445E+00 0.  0.
        -13    1    4    4    0    0 -0.26252997039E+02  0.30316703408E+02  0.89162337864E+01  0.41083240001E+02  0.10500000000E+00 0.  1.
         13    1    4    4    0    0 -0.10856865908E+02  0.12527371326E+02  0.37487137452E+01  0.16996189262E+02  0.10500000000E+00 0. -1.
    3000001    1    5    5    0    0  0.27512108063E+02 -0.31362760689E+02 -0.36462161335E+01  0.41890735732E+02  0.10000000000E+01 0. -1.
        -13    1    6    6    0    0  0.25148373545E+01 -0.36434657706E+01 -0.19193013465E+01  0.48263850240E+01  0.10500000000E+00 0.  1.
         13    1    6    6    0    0  0.82749891705E+01 -0.11890260257E+02 -0.62637466101E+01  0.15782879375E+02  0.10500000000E+00 0. -1.
</event>
<event>
11    0  0.3443539E-009  0.9118800E+02  0.7816531E-02  0.1126479E+00
         25   -1    0    0    0    0  0.00000000000E+00  0.00000000000E+00  0.99999998245E-14  0.12500000000E+03  0.12500000000E+03 0.  0.
    3000001    1    3    3    0    0 -0.10940144353E+02 -0.17897925468E+02  0.71342940186E+01  0.22179284156E+02  0.10000000000E+01 0. -1.
    1000022    2    1    0    0    0 -0.41142771243E+02 -0.42380377204E+02  0.17816450683E+02  0.62499999459E+02  0.10000001000E+02 0.  0.
    3000022    2    3    3    0    0 -0.30202626890E+02 -0.24482451736E+02  0.10682156665E+02  0.40320715304E+02  0.24999507548E+00 0.  0.
    1000022    2    1    0    0    0  0.41142771243E+02  0.42380377204E+02 -0.17816450683E+02  0.62500000541E+02  0.10000007760E+02 0.  0.
    3000022    2    5    5    0    0  0.30219144759E+02  0.33653262300E+02 -0.17443573571E+02  0.48477618880E+02  0.24999995021E+00 0.  0.
        -13    1    4    4    0    0 -0.14980771796E+02 -0.12211475042E+02  0.52660639674E+01  0.20032126722E+02  0.10500000000E+00 0. -1.
         13    1    4    4    0    0 -0.15221855094E+02 -0.12270976693E+02  0.54160926972E+01  0.20288588581E+02  0.10500000000E+00 0.  1.
    3000001    1    5    5    0    0  0.10923626484E+02  0.87271149040E+01 -0.37287711264E+00  0.14022381661E+02  0.10000000000E+01 0. -1.
        -13    1    6    6    0    0  0.17117709669E+02  0.19103647931E+02 -0.99567192475E+01  0.27515679744E+02  0.10500000000E+00 0. -1.
         13    1    6    6    0    0  0.13101435089E+02  0.14549614369E+02 -0.74868543230E+01  0.20961939136E+02  0.10500000000E+00 0.  1.
</event>
<event>
11    0  0.3443539E-009  0.9118800E+02  0.7816531E-02  0.1126479E+00
         25   -1    0    0    0    0  0.00000000000E+00  0.00000000000E+00  0.99999998245E-14  0.12500000000E+03  0.12500000000E+03 0.  0.
    3000001    1    3    3    0    0  0.50725077235E+02 -0.20906203373E+02 -0.93806956930E+01  0.55669563063E+02  0.10000000000E+01 0.  1.
    1000022    2    1    0    0    0  0.54760667405E+02 -0.25849229476E+02 -0.11804097541E+02  0.62500000595E+02  0.99999998192E+01 0.  0.
    3000022    2    3    3    0    0  0.40355901700E+01 -0.49430261037E+01 -0.24234018480E+01  0.68304375313E+01  0.25001053888E+00 0.  0.
    1000022    2    1    0    0    0 -0.54760667405E+02  0.25849229476E+02  0.11804097541E+02  0.62499999405E+02  0.99999923871E+01 0.  0.
    3000022    2    5    5    0    0 -0.43952174634E+02  0.16340815086E+02  0.10119701627E+02  0.47971728696E+02  0.25000071268E+00 0.  0.
        -13    1    4    4    0    0  0.13808316719E+01 -0.17556906569E+01 -0.80672478976E+00  0.23771780908E+01  0.10500000000E+00 0.  1.
         13    1    4    4    0    0  0.26547584981E+01 -0.31873354468E+01 -0.16166770583E+01  0.44532594405E+01  0.10500000000E+00 0. -1.
    3000001    1    5    5    0    0 -0.10808492771E+02  0.95084143905E+01  0.16843959141E+01  0.14528270709E+02  0.10000000000E+01 0.  1.
        -13    1    6    6    0    0 -0.18018468838E+02  0.67072282522E+01  0.42142609454E+01  0.19683067607E+02  0.10500000000E+00 0. -1.
         13    1    6    6    0    0 -0.25933705796E+02  0.96335868336E+01  0.59054406815E+01  0.28288661089E+02  0.10500000000E+00 0.  1.
</event>
<event>
11    0  0.3443539E-009  0.9118800E+02  0.7816531E-02  0.1126479E+00
         25   -1    0    0    0    0  0.00000000000E+00  0.00000000000E+00  0.99999998245E-14  0.12500000000E+03  0.12500000000E+03 0.  0.
    3000001    1    3    3    0    0 -0.19677704951E+02  0.81101649081E+01  0.21404304995E+02  0.30201508560E+02  0.10000000000E+01 0.  1.
    1000022    2    1    0    0    0 -0.32571731341E+02  0.14987025665E+02  0.50206785779E+02  0.62499999753E+02  0.10000000504E+02 0.  0.
    3000022    2    3    3    0    0 -0.12894026390E+02  0.68768607567E+01  0.28802480784E+02  0.32298491194E+02  0.25000729789E+00 0.  0.
    1000022    2    1    0    0    0  0.32571731341E+02 -0.14987025665E+02 -0.50206785779E+02  0.62500000247E+02  0.10000003587E+02 0.  0.
    3000022    2    5    5    0    0  0.28185273865E+02 -0.13854757004E+02 -0.37170689563E+02  0.48662990235E+02  0.25000309800E+00 0.  0.
        -13    1    4    4    0    0 -0.43763899606E+01  0.23857654792E+01  0.98930732891E+01  0.11078293646E+02  0.10500000000E+00 0.  1.
         13    1    4    4    0    0 -0.85176364294E+01  0.44910952774E+01  0.18909407495E+02  0.21220197547E+02  0.10500000000E+00 0. -1.
    3000001    1    5    5    0    0  0.43864574759E+01 -0.11322686611E+01 -0.13036096216E+02  0.13837010011E+02  0.10000000000E+01 0.  1.
        -13    1    6    6    0    0  0.14934231121E+02 -0.73354344928E+01 -0.19588062913E+02  0.25701032899E+02  0.10500000000E+00 0. -1.
         13    1    6    6    0    0  0.13251042744E+02 -0.65193225109E+01 -0.17582626651E+02  0.22961957337E+02  0.10500000000E+00 0.  1.
</event>
<event>
11    0  0.3443539E-009  0.9118800E+02  0.7816531E-02  0.1126479E+00
         25   -1    0    0    0    0  0.00000000000E+00  0.00000000000E+00  0.99999998245E-14  0.12500000000E+03  0.12500000000E+03 0.  0.
    3000001    1    3    3    0    0 -0.31292257194E+02 -0.10876906064E+02  0.37915505345E+02  0.50359686172E+02  0.10000000000E+01 0. -1.
    1000022    2    1    0    0    0 -0.35438026499E+02 -0.16951375672E+02  0.47571490900E+02  0.62499997171E+02  0.10000002027E+02 0.  0.
    3000022    2    3    3    0    0 -0.41457693044E+01 -0.60744696085E+01  0.96559855555E+01  0.12140310998E+02  0.25001987058E+00 0.  0.
    1000022    2    1    0    0    0  0.35438026499E+02  0.16951375672E+02 -0.47571490900E+02  0.62500002829E+02  0.10000037396E+02 0.  0.
    3000022    2    5    5    0    0  0.11030502746E+02  0.47718083135E+01 -0.22139123939E+02  0.25192170327E+02  0.24998318856E+00 0.  0.
        -13    1    4    4    0    0 -0.26486711084E+01 -0.37795524094E+01  0.60280477466E+01  0.75926846168E+01  0.10500000000E+00 0.  1.
         13    1    4    4    0    0 -0.14970981960E+01 -0.22949171991E+01  0.36279378090E+01  0.45476263814E+01  0.10500000000E+00 0. -1.
    3000001    1    5    5    0    0  0.24407523752E+02  0.12179567359E+02 -0.25432366962E+02  0.37307832502E+02  0.10000000000E+01 0.  1.
        -13    1    6    6    0    0  0.81719752380E+01  0.35686144837E+01 -0.16421988138E+02  0.18687132151E+02  0.10500000000E+00 0.  1.
         13    1    6    6    0    0  0.28585275083E+01  0.12031938298E+01 -0.57171358008E+01  0.65050381761E+01  0.10500000000E+00 0. -1.
</event>
<event>
11    0  0.3443539E-009  0.9118800E+02  0.7816531E-02  0.1126479E+00
         25   -1    0    0    0    0  0.00000000000E+00  0.00000000000E+00  0.99999998245E-14  0.12500000000E+03  0.12500000000E+03 0.  0.
    3000001    1    3    3    0    0  0.98278465182E+01  0.22557940517E+01 -0.39734305614E+01  0.10884085833E+02  0.10000000000E+01 0. -1.
    1000022    2    1    0    0    0  0.61424600035E+02  0.34955864307E+01 -0.45879229940E+01  0.62499995726E+02  0.99999907222E+01 0.  0.
    3000022    2    3    3    0    0  0.51596753517E+02  0.12397923791E+01 -0.61449243264E+00  0.51615909894E+02  0.24998916040E+00 0.  0.
    1000022    2    1    0    0    0 -0.61424600035E+02 -0.34955864307E+01  0.45879229940E+01  0.62500004274E+02  0.10000044141E+02 0.  0.
    3000022    2    5    5    0    0 -0.34672442622E+02 -0.35362952581E+01 -0.20667197277E+01  0.34914430993E+02  0.24999919930E+00 0.  0.
        -13    1    4    4    0    0  0.27940776130E+02  0.64160186918E+00 -0.39279842624E+00  0.27951099072E+02  0.10500000000E+00 0.  1.
         13    1    4    4    0    0  0.23655977387E+02  0.59819050989E+00 -0.22169400640E+00  0.23664810822E+02  0.10500000000E+00 0. -1.
    3000001    1    5    5    0    0 -0.26752157413E+02  0.40708827333E-01  0.66546427217E+01  0.27585573280E+02  0.10000000000E+01 0.  1.
        -13    1    6    6    0    0 -0.10359603808E+02 -0.10238546965E+01 -0.58554810518E+00  0.10427059081E+02  0.10500000000E+00 0. -1.
         13    1    6    6    0    0 -0.24312838814E+02 -0.25124405616E+01 -0.14811716226E+01  0.24487371912E+02  0.10500000000E+00 0.  1.
</event>
<event>
11    0  0.3443539E-009  0.9118800E+02  0.7816531E-02  0.1126479E+00
         25   -1    0    0    0    0  0.00000000000E+00  0.00000000000E+00  0.99999998245E-14  0.12500000000E+03  0.12500000000E+03 0.  0.
    3000001    1    3    3    0    0  0.26611235528E+02 -0.87880815673E+01 -0.81134763522E+01  0.29192751369E+02  0.10000000000E+01 0.  1.
    1000022    2    1    0    0    0  0.51545375621E+02 -0.21882246076E+02 -0.25893854029E+02  0.62500000136E+02  0.99999949639E+01 0.  0.
    3000022    2    3    3    0    0  0.24934140093E+02 -0.13094164508E+02 -0.17780377677E+02  0.33307248767E+02  0.25000749331E+00 0.  0.
    1000022    2    1    0    0    0 -0.51545375621E+02  0.21882246076E+02  0.25893854029E+02  0.62499999864E+02  0.99999932671E+01 0.  0.
    3000022    2    5    5    0    0 -0.46471775539E+02  0.21981792245E+02  0.25289512308E+02  0.57292643899E+02  0.25000022358E+00 0.  0.
        -13    1    4    4    0    0  0.78746141475E+01 -0.41549445390E+01 -0.56766550886E+01  0.10559760892E+02  0.10500000000E+00 0.  1.
         13    1    4    4    0    0  0.17059525945E+02 -0.89392199693E+01 -0.12103722589E+02  0.22747487875E+02  0.10500000000E+00 0. -1.
    3000001    1    5    5    0    0 -0.50736000822E+01 -0.99546169618E-01  0.60434172089E+00  0.52073559654E+01  0.10000000000E+01 0.  1.
        -13    1    6    6    0    0 -0.23859801938E+02  0.11218807614E+02  0.13003546287E+02  0.29398214807E+02  0.10500000000E+00 0.  1.
         13    1    6    6    0    0 -0.22611973600E+02  0.10762984631E+02  0.12285966022E+02  0.27894429092E+02  0.10500000000E+00 0. -1.
</event>
<event>
11    0  0.3443539E-009  0.9118800E+02  0.7816531E-02  0.1126479E+00
         25   -1    0    0    0    0  0.00000000000E+00  0.00000000000E+00  0.99999998245E-14  0.12500000000E+03  0.12500000000E+03 0.  0.
    3000001    1    3    3    0    0 -0.10001931151E+02  0.44206888913E+02 -0.33644992572E+02  0.56455940160E+02  0.10000000000E+01 0.  1.
    1000022    2    1    0    0    0 -0.10542281693E+02  0.50185763677E+02 -0.34300109390E+02  0.62499995206E+02  0.10000065876E+02 0.  0.
    3000022    2    3    3    0    0 -0.54035054173E+00  0.59788747635E+01 -0.65511681801E+00  0.60440550466E+01  0.25000243322E+00 0.  0.
    1000022    2    1    0    0    0  0.10542281693E+02 -0.50185763677E+02  0.34300109390E+02  0.62500004794E+02  0.10000125794E+02 0.  0.
    3000022    2    5    5    0    0  0.56432043141E+01 -0.42488841672E+02  0.30282127984E+02  0.52480636445E+02  0.25000988558E+00 0.  0.
        -13    1    4    4    0    0 -0.42136294209E+00  0.42441761833E+01 -0.48581787773E+00  0.42939052405E+01  0.10500000000E+00 0.  1.
         13    1    4    4    0    0 -0.11898759964E+00  0.17346985801E+01 -0.16929894028E+00  0.17501498061E+01  0.10500000000E+00 0. -1.
    3000001    1    5    5    0    0  0.48990773788E+01 -0.76969220047E+01  0.40179814069E+01  0.10019368348E+02  0.10000000000E+01 0. -1.
        -13    1    6    6    0    0  0.25060079498E+01 -0.18888807500E+02  0.13543236019E+02  0.23377283663E+02  0.10500000000E+00 0.  1.
         13    1    6    6    0    0  0.31371963643E+01 -0.23600034172E+02  0.16738891964E+02  0.29103352782E+02  0.10500000000E+00 0. -1.
</event>
<event>
11    0  0.3443539E-009  0.9118800E+02  0.7816531E-02  0.1126479E+00
         25   -1    0    0    0    0  0.00000000000E+00  0.00000000000E+00  0.99999998245E-14  0.12500000000E+03  0.12500000000E+03 0.  0.
    3000001    1    3    3    0    0  0.30032150285E+01  0.19600525329E+02 -0.89856180828E+01  0.21793146308E+02  0.10000000000E+01 0. -1.
    1000022    2    1    0    0    0  0.13170000147E+02  0.48483392155E+02 -0.35807290111E+02  0.62500002058E+02  0.10000000665E+02 0.  0.
    3000022    2    3    3    0    0  0.10166785119E+02  0.28882866826E+02 -0.26821672029E+02  0.40706855749E+02  0.24999765306E+00 0.  0.
    1000022    2    1    0    0    0 -0.13170000147E+02 -0.48483392155E+02  0.35807290111E+02  0.62499997942E+02  0.99999749450E+01 0.  0.
    3000022    2    5    5    0    0 -0.12312889916E+00 -0.18113779096E+02  0.11481886869E+02  0.21448085810E+02  0.25001003421E+00 0.  0.
        -13    1    4    4    0    0  0.59264176582E+01  0.16937879934E+02 -0.15791411888E+02  0.23903847333E+02  0.10500000000E+00 0. -1.
         13    1    4    4    0    0  0.42403674605E+01  0.11944986893E+02 -0.11030260141E+02  0.16803008416E+02  0.10500000000E+00 0.  1.
    3000001    1    5    5    0    0 -0.13046871248E+02 -0.30369613060E+02  0.24325403243E+02  0.41051912132E+02  0.10000000000E+01 0. -1.
        -13    1    6    6    0    0 -0.12007758494E+00 -0.10268817617E+02  0.65593703824E+01  0.12186032935E+02  0.10500000000E+00 0.  1.
         13    1    6    6    0    0 -0.30513142263E-02 -0.78449614788E+01  0.49225164861E+01  0.92620528756E+01  0.10500000000E+00 0. -1.
</event>
<event>
11    0  0.3443539E-009  0.9118800E+02  0.7816531E-02  0.1126479E+00
         25   -1    0    0    0    0  0.00000000000E+00  0.00000000000E+00  0.99999998245E-14  0.12500000000E+03  0.12500000000E+03 0.  0.
    3000001    1    3    3    0    0  0.18663863635E+01  0.20554479893E+01  0.27115940946E+01  0.40076186231E+01  0.10000000000E+01 0. -1.
    1000022    2    1    0    0    0  0.54511414343E+02  0.18102970547E+02  0.22517509953E+02  0.62500000632E+02  0.99999994106E+01 0.  0.
    3000022    2    3    3    0    0  0.52645027980E+02  0.16047522557E+02  0.19805915859E+02  0.58492382009E+02  0.24999774489E+00 0.  0.
    1000022    2    1    0    0    0 -0.54511414343E+02 -0.18102970547E+02 -0.22517509953E+02  0.62499999368E+02  0.99999915094E+01 0.  0.
    3000022    2    5    5    0    0 -0.69360862501E+00  0.91737133334E+00 -0.15287698355E+00  0.11868162388E+01  0.24999664943E+00 0.  0.
        -13    1    4    4    0    0  0.23883852143E+02  0.72276839815E+01  0.90265703706E+01  0.26536160359E+02  0.10500000000E+00 0.  1.
         13    1    4    4    0    0  0.28761175837E+02  0.88198385759E+01  0.10779345488E+02  0.31956221650E+02  0.10500000000E+00 0. -1.
    3000001    1    5    5    0    0 -0.53817805718E+02 -0.19020341880E+02 -0.22364632970E+02  0.61313183129E+02  0.10000000000E+01 0.  1.
        -13    1    6    6    0    0 -0.46825192335E+00  0.62586999556E+00 -0.15465179217E+00  0.80368855403E+00  0.10500000000E+00 0.  1.
         13    1    6    6    0    0 -0.22535670166E+00  0.29150133779E+00  0.17748086203E-02  0.38312768480E+00  0.10500000000E+00 0. -1.
</event>
<event>
11    0  0.3443539E-009  0.9118800E+02  0.7816531E-02  0.1126479E+00
         25   -1    0    0    0    0  0.00000000000E+00  0.00000000000E+00  0.99999998245E-14  0.12500000000E+03  0.12500000000E+03 0.  0.
    3000001    1    3    3    0    0 -0.46708856600E+01 -0.56662638016E+01 -0.11172743978E+02  0.13407234104E+02  0.10000000000E+01 0. -1.
    1000022    2    1    0    0    0 -0.33823189517E+01 -0.27371241881E+02 -0.55187182076E+02  0.62500000741E+02  0.10000003176E+02 0.  0.
    3000022    2    3    3    0    0  0.12885667083E+01 -0.21704978079E+02 -0.44014438098E+02  0.49092766637E+02  0.24999479509E+00 0.  0.
    1000022    2    1    0    0    0  0.33823189517E+01  0.27371241881E+02  0.55187182076E+02  0.62499999259E+02  0.99999939152E+01 0.  0.
    3000022    2    5    5    0    0 -0.19003396184E+01  0.20589273832E+02  0.38458766822E+02  0.43665418056E+02  0.25000189487E+00 0.  0.
        -13    1    4    4    0    0  0.70745821834E+00 -0.11003010594E+02 -0.22411035371E+02  0.24976634494E+02  0.10500000000E+00 0. -1.
         13    1    4    4    0    0  0.58110848997E+00 -0.10701967486E+02 -0.21603402727E+02  0.24116132143E+02  0.10500000000E+00 0.  1.
    3000001    1    5    5    0    0  0.52826585701E+01  0.67819680492E+01  0.16728415254E+02  0.18834581204E+02  0.10000000000E+01 0.  1.
        -13    1    6    6    0    0 -0.11263857350E+01  0.12124690058E+02  0.22514055844E+02  0.25596300307E+02  0.10500000000E+00 0. -1.
         13    1    6    6    0    0 -0.77395388343E+00  0.84645837736E+01  0.15944710977E+02  0.18069117749E+02  0.10500000000E+00 0.  1.
</event>
<event>
11    0  0.3443539E-009  0.9118800E+02  0.7816531E-02  0.1126479E+00
         25   -1    0    0    0    0  0.00000000000E+00  0.00000000000E+00  0.99999998245E-14  0.12500000000E+03  0.12500000000E+03 0.  0.
    3000001    1    3    3    0    0 -0.32430895625E+02 -0.24346164153E+02  0.61011689669E+01  0.41021006360E+02  0.10000000000E+01 0.  1.
    1000022    2    1    0    0    0 -0.46865919006E+02 -0.36796119875E+02  0.15996285981E+02  0.62499999273E+02  0.99999970943E+01 0.  0.
    3000022    2    3    3    0    0 -0.14435023381E+02 -0.12449955721E+02  0.98951170143E+01  0.21478992913E+02  0.24999675884E+00 0.  0.
    1000022    2    1    0    0    0  0.46865919006E+02  0.36796119875E+02 -0.15996285981E+02  0.62500000727E+02  0.10000006177E+02 0.  0.
    3000022    2    5    5    0    0  0.42624150684E+02  0.32035008693E+02 -0.11267026355E+02  0.54498333726E+02  0.24998499950E+00 0.  0.
        -13    1    4    4    0    0 -0.48069517127E+01 -0.41380156690E+01  0.32329582197E+01  0.71199018459E+01  0.10500000000E+00 0.  1.
         13    1    4    4    0    0 -0.96280716683E+01 -0.83119400521E+01  0.66621587947E+01  0.14359091068E+02  0.10500000000E+00 0. -1.
    3000001    1    5    5    0    0  0.42417683215E+01  0.47611111816E+01 -0.47292596259E+01  0.80016670004E+01  0.10000000000E+01 0.  1.
        -13    1    6    6    0    0  0.24025284937E+02  0.18006872039E+02 -0.62906287412E+01  0.30676453379E+02  0.10500000000E+00 0. -1.
         13    1    6    6    0    0  0.18598865747E+02  0.14028136654E+02 -0.49763976142E+01  0.23821880347E+02  0.10500000000E+00 0.  1.
</event>
<event>
11    0  0.3443539E-009  0.9118800E+02  0.7816531E-02  0.1126479E+00
         25   -1    0    0    0    0  0.00000000000E+00  0.00000000000E+00  0.99999998245E-14  0.12500000000E+03  0.12500000000E+03 0.  0.
    3000001    1    3    3    0    0  0.25571903320E+02 -0.93917953276E+01  0.46625199592E+02  0.54009603737E+02  0.10000000000E+01 0.  1.
    1000022    2    1    0    0    0  0.31603098135E+02 -0.13031377271E+02  0.51358323401E+02  0.62500000296E+02  0.10000002458E+02 0.  0.
    3000022    2    3    3    0    0  0.60311948149E+01 -0.36395819433E+01  0.47331238088E+01  0.84903965586E+01  0.25001023152E+00 0.  0.
    1000022    2    1    0    0    0 -0.31603098135E+02  0.13031377271E+02 -0.51358323401E+02  0.62499999704E+02  0.99999987569E+01 0.  0.
    3000022    2    5    5    0    0 -0.19433768700E+02  0.48161652100E+01 -0.36226184315E+02  0.41391614607E+02  0.25003301700E+00 0.  0.
        -13    1    4    4    0    0  0.32661256858E+01 -0.18985524536E+01  0.25065287540E+01  0.45349520184E+01  0.10500000000E+00 0.  1.
         13    1    4    4    0    0  0.27650691291E+01 -0.17410294897E+01  0.22265950548E+01  0.39554445402E+01  0.10500000000E+00 0. -1.
    3000001    1    5    5    0    0 -0.12169329435E+02  0.82152120609E+01 -0.15132139086E+02  0.21108385097E+02  0.10000000000E+01 0. -1.
        -13    1    6    6    0    0 -0.90180953399E+01  0.21658228746E+01 -0.16770659102E+02  0.19164625329E+02  0.10500000000E+00 0. -1.
         13    1    6    6    0    0 -0.10415673360E+02  0.26503423354E+01 -0.19455525213E+02  0.22226989278E+02  0.10500000000E+00 0.  1.
</event>
<event>
11    0  0.3443539E-009  0.9118800E+02  0.7816531E-02  0.1126479E+00
         25   -1    0    0    0    0  0.00000000000E+00  0.00000000000E+00  0.99999998245E-14  0.12500000000E+03  0.12500000000E+03 0.  0.
    3000001    1    3    3    0    0 -0.96019782866E+01  0.49344718404E+02  0.23583315088E+02  0.55536222161E+02  0.10000000000E+01 0.  1.
    1000022    2    1    0    0    0 -0.13719215166E+02  0.53671329891E+02  0.27155501851E+02  0.62500001580E+02  0.10000019986E+02 0.  0.
    3000022    2    3    3    0    0 -0.41172368789E+01  0.43266114868E+01  0.35721867624E+01  0.69637794186E+01  0.24999810228E+00 0.  0.
    1000022    2    1    0    0    0  0.13719215166E+02 -0.53671329891E+02 -0.27155501851E+02  0.62499998420E+02  0.10000000235E+02 0.  0.
    3000022    2    5    5    0    0  0.67889693485E+01 -0.30568326435E+02 -0.20608700698E+02  0.37487248049E+02  0.25007195862E+00 0.  0.
        -13    1    4    4    0    0 -0.14779798305E+01  0.14940322028E+01  0.13037856354E+01  0.24753663537E+01  0.10500000000E+00 0.  1.
         13    1    4    4    0    0 -0.26392570484E+01  0.28325792841E+01  0.22684011270E+01  0.44884130649E+01  0.10500000000E+00 0. -1.
    3000001    1    5    5    0    0  0.69302458170E+01 -0.23103003456E+02 -0.65468011525E+01  0.25012750370E+02  0.10000000000E+01 0.  1.
        -13    1    6    6    0    0  0.30231260095E+01 -0.13796785924E+02 -0.93597626193E+01  0.16944225388E+02  0.10500000000E+00 0.  1.
         13    1    6    6    0    0  0.37658433390E+01 -0.16771540511E+02 -0.11248938079E+02  0.20543022661E+02  0.10500000000E+00 0. -1.
</event>
<event>
11    0  0.3443539E-009  0.9118800E+02  0.7816531E-02  0.1126479E+00
         25   -1    0    0    0    0  0.00000000000E+00  0.00000000000E+00  0.99999998245E-14  0.12500000000E+03  0.12500000000E+03 0.  0.
    3000001    1    3    3    0    0  0.15344184144E+02  0.11725508313E+02 -0.37564126992E+02  0.42249203175E+02  0.10000000000E+01 0.  1.
    1000022    2    1    0    0    0  0.21389473878E+02  0.23521635066E+02 -0.52872235750E+02  0.62500001431E+02  0.99999978357E+01 0.  0.
    3000022    2    3    3    0    0  0.60452897337E+01  0.11796126753E+02 -0.15308108758E+02  0.20250798256E+02  0.25000384218E+00 0.  0.
    1000022    2    1    0    0    0 -0.21389473878E+02 -0.23521635066E+02  0.52872235750E+02  0.62499998569E+02  0.99999799480E+01 0.  0.
    3000022    2    5    5    0    0 -0.71073686843E+01 -0.21913791523E+01  0.14885840565E+02  0.16642343098E+02  0.25000454532E+00 0.  0.
        -13    1    4    4    0    0  0.33289017288E+01  0.66169691296E+01 -0.84983601457E+01  0.11273819998E+02  0.10500000000E+00 0.  1.
         13    1    4    4    0    0  0.27163880050E+01  0.51791576234E+01 -0.68097486121E+01  0.89769782578E+01  0.10500000000E+00 0. -1.
    3000001    1    5    5    0    0 -0.14282105193E+02 -0.21330255914E+02  0.37986395185E+02  0.45857655471E+02  0.10000000000E+01 0.  1.
        -13    1    6    6    0    0 -0.47641188584E+01 -0.15229725262E+01  0.10026259030E+02  0.11205051047E+02  0.10500000000E+00 0.  1.
         13    1    6    6    0    0 -0.23432498258E+01 -0.66840662611E+00  0.48595815345E+01  0.54372920516E+01  0.10500000000E+00 0. -1.
</event>
<event>
11    0  0.3443539E-009  0.9118800E+02  0.7816531E-02  0.1126479E+00
         25   -1    0    0    0    0  0.00000000000E+00  0.00000000000E+00  0.99999998245E-14  0.12500000000E+03  0.12500000000E+03 0.  0.
    3000001    1    3    3    0    0  0.12916925890E+02  0.27937313075E+02  0.44424938979E+01  0.31113922741E+02  0.10000000000E+01 0. -1.
    1000022    2    1    0    0    0  0.16452291645E+02  0.58913513628E+02  0.80479841994E+01  0.62500000395E+02  0.10000000562E+02 0.  0.
    3000022    2    3    3    0    0  0.35353657556E+01  0.30976200554E+02  0.36054903015E+01  0.31386077654E+02  0.24999684598E+00 0.  0.
    1000022    2    1    0    0    0 -0.16452291645E+02 -0.58913513628E+02 -0.80479841994E+01  0.62499999605E+02  0.99999956268E+01 0.  0.
    3000022    2    5    5    0    0 -0.14505448024E+02 -0.51140615077E+02 -0.35987342639E+01  0.53280239469E+02  0.24999350472E+00 0.  0.
        -13    1    4    4    0    0  0.23910158342E+01  0.21374548739E+02  0.24922804761E+01  0.21652038645E+02  0.10500000000E+00 0.  1.
         13    1    4    4    0    0  0.11443499214E+01  0.96016518144E+01  0.11132098255E+01  0.97340390087E+01  0.10500000000E+00 0. -1.
    3000001    1    5    5    0    0 -0.19468436214E+01 -0.77728985514E+01 -0.44492499356E+01  0.92197601360E+01  0.10000000000E+01 0. -1.
        -13    1    6    6    0    0 -0.73821248722E+01 -0.25820301220E+02 -0.18559521171E+01  0.26919125283E+02  0.10500000000E+00 0.  1.
         13    1    6    6    0    0 -0.71233231519E+01 -0.25320313857E+02 -0.17427821468E+01  0.26361114187E+02  0.10500000000E+00 0. -1.
</event>
<event>
11    0  0.3443539E-009  0.9118800E+02  0.7816531E-02  0.1126479E+00
         25   -1    0    0    0    0  0.00000000000E+00  0.00000000000E+00  0.99999998245E-14  0.12500000000E+03  0.12500000000E+03 0.  0.
    3000001    1    3    3    0    0  0.71154869918E+01 -0.99125356438E+01 -0.14379281769E+01  0.12327049747E+02  0.10000000000E+01 0. -1.
    1000022    2    1    0    0    0  0.42295617768E+02 -0.39053363601E+02 -0.22184806459E+02  0.62499999914E+02  0.99999930362E+01 0.  0.
    3000022    2    3    3    0    0  0.35180130776E+02 -0.29140827957E+02 -0.20746878282E+02  0.50172950167E+02  0.25002915984E+00 0.  0.
    1000022    2    1    0    0    0 -0.42295617768E+02  0.39053363601E+02  0.22184806459E+02  0.62500000086E+02  0.99999941088E+01 0.  0.
    3000022    2    5    5    0    0 -0.22842693738E+02  0.16699191175E+02  0.68280008514E+01  0.29109031896E+02  0.24999841642E+00 0.  0.
        -13    1    4    4    0    0  0.23757881986E+02 -0.19690627999E+02 -0.14069989936E+02  0.33913617166E+02  0.10500000000E+00 0.  1.
         13    1    4    4    0    0  0.11422248791E+02 -0.94501999583E+01 -0.66768883454E+01  0.16259333002E+02  0.10500000000E+00 0. -1.
    3000001    1    5    5    0    0 -0.19452924031E+02  0.22354172426E+02  0.15356805607E+02  0.33390968190E+02  0.10000000000E+01 0. -1.
        -13    1    6    6    0    0 -0.13077880957E+02  0.94974084357E+01  0.38579595403E+01  0.16617057927E+02  0.10500000000E+00 0. -1.
         13    1    6    6    0    0 -0.97648127804E+01  0.72017827391E+01  0.29700413111E+01  0.12491973969E+02  0.10500000000E+00 0.  1.
</event>
<event>
11    0  0.3443539E-009  0.9118800E+02  0.7816531E-02  0.1126479E+00
         25   -1    0    0    0    0  0.00000000000E+00  0.00000000000E+00  0.99999998245E-14  0.12500000000E+03  0.12500000000E+03 0.  0.
    3000001    1    3    3    0    0  0.13709535179E+02  0.41850871072E+02 -0.93945506219E+01  0.45041140590E+02  0.10000000000E+01 0. -1.
    1000022    2    1    0    0    0  0.24003706129E+02  0.54873730923E+02 -0.14796812396E+02  0.62499999769E+02  0.10000003033E+02 0.  0.
    3000022    2    3    3    0    0  0.10294170951E+02  0.13022859851E+02 -0.54022617742E+01  0.17458859179E+02  0.24999454585E+00 0.  0.
    1000022    2    1    0    0    0 -0.24003706129E+02 -0.54873730923E+02  0.14796812396E+02  0.62500000231E+02  0.10000005926E+02 0.  0.
    3000022    2    5    5    0    0 -0.23343904489E+02 -0.48545076547E+02  0.10858303507E+02  0.54950228269E+02  0.24999603693E+00 0.  0.
        -13    1    4    4    0    0  0.30334323024E+01  0.37677485790E+01 -0.15712963528E+01  0.50870067934E+01  0.10500000000E+00 0. -1.
         13    1    4    4    0    0  0.72607386482E+01  0.92551112723E+01 -0.38309654214E+01  0.12371852385E+02  0.10500000000E+00 0.  1.
    3000001    1    5    5    0    0 -0.65980163980E+00 -0.63286543758E+01  0.39385088892E+01  0.75497719623E+01  0.10000000000E+01 0.  1.
        -13    1    6    6    0    0 -0.16685475043E+02 -0.34700482011E+02  0.78037310795E+01  0.39286610607E+02  0.10500000000E+00 0.  1.
         13    1    6    6    0    0 -0.66584294464E+01 -0.13844594536E+02  0.30545724273E+01  0.15663617662E+02  0.10500000000E+00 0. -1.
</event>
<event>
11    0  0.3443539E-009  0.9118800E+02  0.7816531E-02  0.1126479E+00
         25   -1    0    0    0    0  0.00000000000E+00  0.00000000000E+00  0.99999998245E-14  0.12500000000E+03  0.12500000000E+03 0.  0.
    3000001    1    3    3    0    0 -0.48819921887E+01 -0.76251372790E+00 -0.43948810540E+01  0.66880680615E+01  0.10000000000E+01 0. -1.
    1000022    2    1    0    0    0 -0.26564555052E+02  0.66883205188E+01 -0.55279659296E+02  0.62499998865E+02  0.99999954874E+01 0.  0.
    3000022    2    3    3    0    0 -0.21682562864E+02  0.74508342467E+01 -0.50884778242E+02  0.55811930804E+02  0.24999994078E+00 0.  0.
    1000022    2    1    0    0    0  0.26564555052E+02 -0.66883205188E+01  0.55279659296E+02  0.62500001135E+02  0.10000009674E+02 0.  0.
    3000022    2    5    5    0    0  0.19797006313E+02 -0.84676880650E+01  0.46377526640E+02  0.51132774972E+02  0.24999802571E+00 0.  0.
        -13    1    4    4    0    0 -0.16318534273E+02  0.55840125820E+01 -0.38250593566E+02  0.41959441018E+02  0.10500000000E+00 0. -1.
         13    1    4    4    0    0 -0.53640285904E+01  0.18668216648E+01 -0.12634184676E+02  0.13852489786E+02  0.10500000000E+00 0.  1.
    3000001    1    5    5    0    0  0.67675487393E+01  0.17793675462E+01  0.89021326564E+01  0.11367226163E+02  0.10000000000E+01 0.  1.
        -13    1    6    6    0    0  0.14481067710E+02 -0.62098903426E+01  0.34012314357E+02  0.37484831772E+02  0.10500000000E+00 0.  1.
         13    1    6    6    0    0  0.53159386031E+01 -0.22577977224E+01  0.12365212283E+02  0.13647943200E+02  0.10500000000E+00 0. -1.
</event>
<event>
11    0  0.3443539E-009  0.9118800E+02  0.7816531E-02  0.1126479E+00
         25   -1    0    0    0    0  0.00000000000E+00  0.00000000000E+00  0.99999998245E-14  0.12500000000E+03  0.12500000000E+03 0.  0.
    3000001    1    3    3    0    0  0.13227973330E+02  0.17574573440E+02  0.32879889077E+01  0.22263328167E+02  0.10000000000E+01 0.  1.
    1000022    2    1    0    0    0  0.46244461106E+02  0.40461997683E+02  0.55250903266E+01  0.62500000199E+02  0.99999981104E+01 0.  0.
    3000022    2    3    3    0    0  0.33016487777E+02  0.22887424243E+02  0.22371014190E+01  0.40236672032E+02  0.24999971035E+00 0.  0.
    1000022    2    1    0    0    0 -0.46244461106E+02 -0.40461997683E+02 -0.55250903266E+01  0.62499999801E+02  0.99999956239E+01 0.  0.
    3000022    2    5    5    0    0 -0.78633065228E+01 -0.50081189527E+01  0.24317935482E+01  0.96378910160E+01  0.24995691377E+00 0.  0.
        -13    1    4    4    0    0  0.19332364364E+02  0.13479514708E+02  0.13088836295E+01  0.23604275673E+02  0.10500000000E+00 0.  1.
         13    1    4    4    0    0  0.13684123412E+02  0.94079095351E+01  0.92821778945E+00  0.16632396359E+02  0.10500000000E+00 0. -1.
    3000001    1    5    5    0    0 -0.38381154584E+02 -0.35453878731E+02 -0.79568838748E+01  0.52862108785E+02  0.10000000000E+01 0. -1.
        -13    1    6    6    0    0 -0.27451380257E+01 -0.17074233681E+01  0.88895146350E+00  0.33544503339E+01  0.10500000000E+00 0. -1.
         13    1    6    6    0    0 -0.51181684971E+01 -0.33006955845E+01  0.15428420847E+01  0.62834406820E+01  0.10500000000E+00 0.  1.
</event>
<event>
11    0  0.3443539E-009  0.9118800E+02  0.7816531E-02  0.1126479E+00
         25   -1    0    0    0    0  0.00000000000E+00  0.00000000000E+00  0.99999998245E-14  0.12500000000E+03  0.12500000000E+03 0.  0.
    3000001    1    3    3    0    0  0.24565257205E+02 -0.27654526788E+01  0.48064237008E+02  0.54058028722E+02  0.10000000000E+01 0. -1.
    1000022    2    1    0    0    0  0.24943987434E+02 -0.49287668200E+01  0.56211692512E+02  0.62500002320E+02  0.10000033170E+02 0.  0.
    3000022    2    3    3    0    0  0.37873022952E+00 -0.21633141412E+01  0.81474555039E+01  0.84419735983E+01  0.25004476878E+00 0.  0.
    1000022    2    1    0    0    0 -0.24943987434E+02  0.49287668200E+01 -0.56211692512E+02  0.62499997680E+02  0.10000004172E+02 0.  0.
    3000022    2    5    5    0    0 -0.21349769259E+02  0.34564399467E+01 -0.36862644959E+02  0.42739638576E+02  0.24997538669E+00 0.  0.
        -13    1    4    4    0    0  0.11119366520E+00 -0.65476860016E+00  0.26628763432E+01  0.27464561475E+01  0.10500000000E+00 0.  1.
         13    1    4    4    0    0  0.26753656433E+00 -0.15085455411E+01  0.54845791606E+01  0.56955174508E+01  0.10500000000E+00 0. -1.
    3000001    1    5    5    0    0 -0.35942181750E+01  0.14723268734E+01 -0.19349047554E+02  0.19760359105E+02  0.10000000000E+01 0. -1.
        -13    1    6    6    0    0 -0.89817276849E+01  0.15196214730E+01 -0.15516075262E+02  0.17992784614E+02  0.10500000000E+00 0.  1.
         13    1    6    6    0    0 -0.12368041574E+02  0.19368184736E+01 -0.21346569697E+02  0.24746853962E+02  0.10500000000E+00 0. -1.
</event>
<event>
11    0  0.3443539E-009  0.9118800E+02  0.7816531E-02  0.1126479E+00
         25   -1    0    0    0    0  0.00000000000E+00  0.00000000000E+00  0.99999998245E-14  0.12500000000E+03  0.12500000000E+03 0.  0.
    3000001    1    3    3    0    0 -0.17869670802E+01 -0.73278689130E+01 -0.37154281779E+02  0.37925342037E+02  0.10000000000E+01 0.  1.
    1000022    2    1    0    0    0  0.34454906167E+01 -0.73027238308E+01 -0.61164113908E+02  0.62499999426E+02  0.99999958581E+01 0.  0.
    3000022    2    3    3    0    0  0.52324576970E+01  0.25145082149E-01 -0.24009832129E+02  0.24574657389E+02  0.25000214518E+00 0.  0.
    1000022    2    1    0    0    0 -0.34454906167E+01  0.73027238308E+01  0.61164113908E+02  0.62500000574E+02  0.10000003034E+02 0.  0.
    3000022    2    5    5    0    0  0.58063099604E+00 -0.13393771141E+01  0.26309252917E+02  0.26350907934E+02  0.24999300738E+00 0.  0.
        -13    1    4    4    0    0  0.24745651368E+01  0.60081948172E-01 -0.11579067212E+02  0.11841153025E+02  0.10500000000E+00 0.  1.
         13    1    4    4    0    0  0.27578925601E+01 -0.34936866023E-01 -0.12430764917E+02  0.12733504364E+02  0.10500000000E+00 0. -1.
    3000001    1    5    5    0    0 -0.40261216128E+01  0.86421009449E+01  0.34854860991E+02  0.36149092640E+02  0.10000000000E+01 0. -1.
        -13    1    6    6    0    0  0.24133136154E+00 -0.67154396701E+00  0.11953112448E+02  0.11974854250E+02  0.10500000000E+00 0. -1.
         13    1    6    6    0    0  0.33929963450E+00 -0.66783314710E+00  0.14356140469E+02  0.14376053683E+02  0.10500000000E+00 0.  1.
</event>
<event>
11    0  0.3443539E-009  0.9118800E+02  0.7816531E-02  0.1126479E+00
         25   -1    0    0    0    0  0.00000000000E+00  0.00000000000E+00  0.99999998245E-14  0.12500000000E+03  0.12500000000E+03 0.  0.
    3000001    1    3    3    0    0 -0.19326595660E+02 -0.36459338035E+02  0.24422019157E+02  0.47960771986E+02  0.10000000000E+01 0.  1.
    1000022    2    1    0    0    0 -0.22274920601E+02 -0.50217009919E+02  0.28077219428E+02  0.62499999619E+02  0.99999764307E+01 0.  0.
    3000022    2    3    3    0    0 -0.29483249416E+01 -0.13757671884E+02  0.36552002704E+01  0.14539227633E+02  0.24999107147E+00 0.  0.
    1000022    2    1    0    0    0  0.22274920601E+02  0.50217009919E+02 -0.28077219428E+02  0.62500000381E+02  0.99999811880E+01 0.  0.
    3000022    2    5    5    0    0 -0.11997875931E+00  0.30576198060E+00  0.59810561612E+00  0.72671768870E+00  0.25000595905E+00 0.  0.
        -13    1    4    4    0    0 -0.17844048348E+01 -0.86132421781E+01  0.22816072302E+01  0.90878379159E+01  0.10500000000E+00 0.  1.
         13    1    4    4    0    0 -0.11639201069E+01 -0.51444297056E+01  0.13735930403E+01  0.54513897175E+01  0.10500000000E+00 0. -1.
    3000001    1    5    5    0    0  0.22394899361E+02  0.49911247938E+02 -0.28675325044E+02  0.61773282692E+02  0.10000000000E+01 0.  1.
        -13    1    6    6    0    0 -0.50904157691E-01  0.72370532428E-01  0.28585269144E+00  0.31712062127E+00  0.10500000000E+00 0. -1.
         13    1    6    6    0    0 -0.69074601623E-01  0.23339144817E+00  0.31225292468E+00  0.40959706742E+00  0.10500000000E+00 0. -1.
</event>
<event>
11    0  0.3443539E-009  0.9118800E+02  0.7816531E-02  0.1126479E+00
         25   -1    0    0    0    0  0.00000000000E+00  0.00000000000E+00  0.99999998245E-14  0.12500000000E+03  0.12500000000E+03 0.  0.
    3000001    1    3    3    0    0  0.49946445732E+02  0.19698693505E+01 -0.26186321696E+02  0.56438030356E+02  0.10000000000E+01 0. -1.
    1000022    2    1    0    0    0  0.53355995278E+02  0.49472950965E+00 -0.30970037248E+02  0.62500001777E+02  0.10000001278E+02 0.  0.
    3000022    2    3    3    0    0  0.34095495460E+01 -0.14751398409E+01 -0.47837155520E+01  0.60619714207E+01  0.24999473124E+00 0.  0.
    1000022    2    1    0    0    0 -0.53355995278E+02 -0.49472950965E+00  0.30970037248E+02  0.62499998223E+02  0.99999790676E+01 0.  0.
    3000022    2    5    5    0    0 -0.12933848816E+02  0.33854172609E+01  0.49405735269E+01  0.14255429149E+02  0.24999643411E+00 0.  0.
        -13    1    4    4    0    0  0.22721406872E+01 -0.98970215051E+00 -0.31011694483E+01  0.39711976275E+01  0.10500000000E+00 0.  1.
         13    1    4    4    0    0  0.11374088588E+01 -0.48543769035E+00 -0.16825461037E+01  0.20907737932E+01  0.10500000000E+00 0. -1.
    3000001    1    5    5    0    0 -0.40422146462E+02 -0.38801467705E+01  0.26029463721E+02  0.48244569074E+02  0.10000000000E+01 0. -1.
        -13    1    6    6    0    0 -0.92720735600E+01  0.24685226103E+01  0.35503454188E+01  0.10231369878E+02  0.10500000000E+00 0.  1.
         13    1    6    6    0    0 -0.36617752562E+01  0.91689465053E+00  0.13902281081E+01  0.40240592714E+01  0.10500000000E+00 0. -1.
</event>
<event>
11    0  0.3443539E-009  0.9118800E+02  0.7816531E-02  0.1126479E+00
         25   -1    0    0    0    0  0.00000000000E+00  0.00000000000E+00  0.99999998245E-14  0.12500000000E+03  0.12500000000E+03 0.  0.
    3000001    1    3    3    0    0  0.16241398137E+02 -0.44081088925E+02 -0.13001997916E+02  0.48754254831E+02  0.10000000000E+01 0.  1.
    1000022    2    1    0    0    0  0.22361249872E+02 -0.56310520644E+02 -0.11633985251E+02  0.62500001087E+02  0.10000014599E+02 0.  0.
    3000022    2    3    3    0    0  0.61198517352E+01 -0.12229431719E+02  0.13680126644E+01  0.13745746256E+02  0.24999213467E+00 0.  0.
    1000022    2    1    0    0    0 -0.22361249872E+02  0.56310520644E+02  0.11633985251E+02  0.62499998913E+02  0.10000001013E+02 0.  0.
    3000022    2    5    5    0    0 -0.10412376103E+02  0.23145297810E+02  0.52817933652E-01  0.25380852553E+02  0.24999962298E+00 0.  0.
        -13    1    4    4    0    0  0.22490706124E+01 -0.44372188437E+01  0.44465925532E+00  0.49955957142E+01  0.10500000000E+00 0. -1.
         13    1    4    4    0    0  0.38707811228E+01 -0.77922128752E+01  0.92335340911E+00  0.87501505422E+01  0.10500000000E+00 0.  1.
    3000001    1    5    5    0    0 -0.11948873770E+02  0.33165222835E+02  0.11581167318E+02  0.37119146360E+02  0.10000000000E+01 0.  1.
        -13    1    6    6    0    0 -0.75305305942E+01  0.16780647122E+02  0.42593950452E-02  0.18393206681E+02  0.10500000000E+00 0. -1.
         13    1    6    6    0    0 -0.28818455084E+01  0.63646506871E+01  0.48558538607E-01  0.69876458722E+01  0.10500000000E+00 0.  1.
</event>
<event>
11    0  0.3443539E-009  0.9118800E+02  0.7816531E-02  0.1126479E+00
         25   -1    0    0    0    0  0.00000000000E+00  0.00000000000E+00  0.99999998245E-14  0.12500000000E+03  0.12500000000E+03 0.  0.
    3000001    1    3    3    0    0  0.13579773971E+02  0.14084405543E+02 -0.19815542225E+02  0.27864609351E+02  0.10000000000E+01 0.  1.
    1000022    2    1    0    0    0  0.36063326647E+02  0.35139473622E+02 -0.35649737600E+02  0.62499999969E+02  0.10000003491E+02 0.  0.
    3000022    2    3    3    0    0  0.22483552676E+02  0.21055068080E+02 -0.15834195375E+02  0.34635390618E+02  0.25001462407E+00 0.  0.
    1000022    2    1    0    0    0 -0.36063326647E+02 -0.35139473622E+02  0.35649737600E+02  0.62500000031E+02  0.10000003882E+02 0.  0.
    3000022    2    5    5    0    0 -0.31160243341E+01 -0.48181332335E+01  0.80592204269E+01  0.98963399821E+01  0.24999129257E+00 0.  0.
        -13    1    4    4    0    0  0.71286809792E+01  0.66085335925E+01 -0.50062511355E+01  0.10934550022E+02  0.10500000000E+00 0.  1.
         13    1    4    4    0    0  0.15354871696E+02  0.14446534487E+02 -0.10827944239E+02  0.23700840596E+02  0.10500000000E+00 0. -1.
    3000001    1    5    5    0    0 -0.32947302313E+02 -0.30321340389E+02  0.27590517173E+02  0.52603660049E+02  0.10000000000E+01 0.  1.
        -13    1    6    6    0    0 -0.11024566159E+01 -0.16483961387E+01  0.27069589518E+01  0.33572715390E+01  0.10500000000E+00 0. -1.
         13    1    6    6    0    0 -0.20135677181E+01 -0.31697370949E+01  0.53522614751E+01  0.65390684431E+01  0.10500000000E+00 0. -1.
</event>
<event>
11    0  0.3443539E-009  0.9118800E+02  0.7816531E-02  0.1126479E+00
         25   -1    0    0    0    0  0.00000000000E+00  0.00000000000E+00  0.99999998245E-14  0.12500000000E+03  0.12500000000E+03 0.  0.
    3000001    1    3    3    0    0 -0.18522218945E+02  0.34238692223E+01 -0.35018175271E+02  0.39775219351E+02  0.10000000000E+01 0. -1.
    1000022    2    1    0    0    0 -0.26612858916E+02  0.12404484305E+02 -0.54259880180E+02  0.62499999064E+02  0.99999897619E+01 0.  0.
    3000022    2    3    3    0    0 -0.80906399708E+01  0.89806150826E+01 -0.19241704909E+02  0.22724779713E+02  0.25000556190E+00 0.  0.
    1000022    2    1    0    0    0  0.26612858916E+02 -0.12404484305E+02  0.54259880180E+02  0.62500000936E+02  0.10000001466E+02 0.  0.
    3000022    2    5    5    0    0  0.15797579153E+02 -0.69742819210E+01  0.41166284894E+02  0.44642240388E+02  0.24999894939E+00 0.  0.
        -13    1    4    4    0    0 -0.42108387591E+01  0.47614357801E+01 -0.10181025624E+02  0.12002780574E+02  0.10500000000E+00 0.  1.
         13    1    4    4    0    0 -0.38798012117E+01  0.42191793026E+01 -0.90606792848E+01  0.10721999139E+02  0.10500000000E+00 0. -1.
    3000001    1    5    5    0    0  0.10815279763E+02 -0.54302023839E+01  0.13093595286E+02  0.17857760548E+02  0.10000000000E+01 0. -1.
        -13    1    6    6    0    0  0.83880483384E+01 -0.37017965251E+01  0.22030665586E+02  0.23862604712E+02  0.10500000000E+00 0.  1.
         13    1    6    6    0    0  0.74095308147E+01 -0.32724853959E+01  0.19135619308E+02  0.20779635677E+02  0.10500000000E+00 0. -1.
</event>
<event>
11    0  0.3443539E-009  0.9118800E+02  0.7816531E-02  0.1126479E+00
         25   -1    0    0    0    0  0.00000000000E+00  0.00000000000E+00  0.99999998245E-14  0.12500000000E+03  0.12500000000E+03 0.  0.
    3000001    1    3    3    0    0 -0.20116799156E+02 -0.46971274786E+02 -0.23840637090E+02  0.56394700462E+02  0.10000000000E+01 0. -1.
    1000022    2    1    0    0    0 -0.19305333701E+02 -0.52821737001E+02 -0.25365686413E+02  0.62499998883E+02  0.10000000203E+02 0.  0.
    3000022    2    3    3    0    0  0.81146545518E+00 -0.58504622142E+01 -0.15250493232E+01  0.61052984208E+01  0.25001812575E+00 0.  0.
    1000022    2    1    0    0    0  0.19305333701E+02  0.52821737001E+02  0.25365686413E+02  0.62500001117E+02  0.10000014170E+02 0.  0.
    3000022    2    5    5    0    0  0.28195717294E+01  0.26803260524E+01 -0.73240412117E-01  0.38989735012E+01  0.24999544099E+00 0.  0.
        -13    1    4    4    0    0  0.26494581785E+00 -0.19424855200E+01 -0.56149034622E+00  0.20419947823E+01  0.10500000000E+00 0.  1.
         13    1    4    4    0    0  0.54651963733E+00 -0.39079766942E+01 -0.96355897694E+00  0.40633036385E+01  0.10500000000E+00 0. -1.
    3000001    1    5    5    0    0  0.16485761972E+02  0.50141410948E+02  0.25438926825E+02  0.58601027616E+02  0.10000000000E+01 0. -1.
        -13    1    6    6    0    0  0.13346514793E+01  0.13429595428E+01 -0.76805359837E-01  0.18978300683E+01  0.10500000000E+00 0.  1.
         13    1    6    6    0    0  0.14849202501E+01  0.13373665096E+01  0.35649477193E-02  0.20011434329E+01  0.10500000000E+00 0. -1.
</event>
<event>
11    0  0.3443539E-009  0.9118800E+02  0.7816531E-02  0.1126479E+00
         25   -1    0    0    0    0  0.00000000000E+00  0.00000000000E+00  0.99999998245E-14  0.12500000000E+03  0.12500000000E+03 0.  0.
    3000001    1    3    3    0    0  0.16019584725E+02 -0.11873725356E+02 -0.31670537881E+01  0.20214912275E+02  0.10000000000E+01 0.  1.
    1000022    2    1    0    0    0  0.54218690003E+02 -0.24757346446E+02 -0.15926645346E+02  0.62500004335E+02  0.99999980616E+01 0.  0.
    3000022    2    3    3    0    0  0.38199105278E+02 -0.12883621090E+02 -0.12759591557E+02  0.42285092060E+02  0.24999476823E+00 0.  0.
    1000022    2    1    0    0    0 -0.54218690003E+02  0.24757346446E+02  0.15926645346E+02  0.62499995665E+02  0.99999438693E+01 0.  0.
    3000022    2    5    5    0    0 -0.51735320449E+01  0.56990405352E+01  0.33041455655E+01  0.83799989531E+01  0.25001538841E+00 0.  0.
        -13    1    4    4    0    0  0.21734120670E+02 -0.72619370508E+01 -0.72423681733E+01  0.24032699656E+02  0.10500000000E+00 0. -1.
         13    1    4    4    0    0  0.16464984609E+02 -0.56216840394E+01 -0.55172233841E+01  0.18252392404E+02  0.10500000000E+00 0.  1.
    3000001    1    5    5    0    0 -0.49045157958E+02  0.19058305911E+02  0.12622499780E+02  0.54119996712E+02  0.10000000000E+01 0. -1.
        -13    1    6    6    0    0 -0.28133073622E+01  0.30323350167E+01  0.17209788242E+01  0.44813554960E+01  0.10500000000E+00 0.  1.
         13    1    6    6    0    0 -0.23602246827E+01  0.26667055185E+01  0.15831667413E+01  0.38986434571E+01  0.10500000000E+00 0. -1.
</event>
<event>
11    0  0.3443539E-009  0.9118800E+02  0.7816531E-02  0.1126479E+00
         25   -1    0    0    0    0  0.00000000000E+00  0.00000000000E+00  0.99999998245E-14  0.12500000000E+03  0.12500000000E+03 0.  0.
    3000001    1    3    3    0    0  0.11591581291E+02  0.41026002447E+01 -0.41911109006E+01  0.13029255396E+02  0.10000000000E+01 0.  1.
    1000022    2    1    0    0    0  0.44683155576E+02  0.24198176323E+02 -0.34987337927E+02  0.62499999925E+02  0.10000002288E+02 0.  0.
    3000022    2    3    3    0    0  0.33091574285E+02  0.20095576079E+02 -0.30796227027E+02  0.49470744529E+02  0.24999712047E+00 0.  0.
    1000022    2    1    0    0    0 -0.44683155576E+02 -0.24198176323E+02  0.34987337927E+02  0.62500000075E+02  0.10000003225E+02 0.  0.
    3000022    2    5    5    0    0 -0.11435395827E+02 -0.23416808473E+01  0.51702465872E+01  0.12768934746E+02  0.24999568983E+00 0.  0.
        -13    1    4    4    0    0  0.20260806338E+02  0.12261155267E+02 -0.18773921990E+02  0.30220975727E+02  0.10500000000E+00 0. -1.
         13    1    4    4    0    0  0.12830767947E+02  0.78344208120E+01 -0.12022305036E+02  0.19249768803E+02  0.10500000000E+00 0.  1.
    3000001    1    5    5    0    0 -0.33247759749E+02 -0.21856495476E+02  0.29817091340E+02  0.49731065329E+02  0.10000000000E+01 0.  1.
        -13    1    6    6    0    0 -0.47221141048E+01 -0.97608766031E+00  0.20664274255E+01  0.52471188327E+01  0.10500000000E+00 0. -1.
         13    1    6    6    0    0 -0.67132817226E+01 -0.13655931869E+01  0.31038191617E+01  0.75218159129E+01  0.10500000000E+00 0.  1.
</event>
<event>
11    0  0.3443539E-009  0.9118800E+02  0.7816531E-02  0.1126479E+00
         25   -1    0    0    0    0  0.00000000000E+00  0.00000000000E+00  0.99999998245E-14  0.12500000000E+03  0.12500000000E+03 0.  0.
    3000001    1    3    3    0    0 -0.23347829870E+02 -0.16553625282E+02 -0.40861768984E+01  0.28928195783E+02  0.10000000000E+01 0.  1.
    1000022    2    1    0    0    0 -0.53007126563E+02 -0.27649924074E+02 -0.15230768249E+02  0.62500001523E+02  0.10000006056E+02 0.  0.
    3000022    2    3    3    0    0 -0.29659296692E+02 -0.11096298792E+02 -0.11144591351E+02  0.33571805739E+02  0.24999410174E+00 0.  0.
    1000022    2    1    0    0    0  0.53007126563E+02  0.27649924074E+02  0.15230768249E+02  0.62499998477E+02  0.99999870241E+01 0.  0.
    3000022    2    5    5    0    0  0.52855506817E+02  0.26759981215E+02  0.14623323923E+02  0.61022170527E+02  0.24999562696E+00 0.  0.
        -13    1    4    4    0    0 -0.14723507820E+02 -0.55458070396E+01 -0.54754474490E+01  0.16659207904E+02  0.10500000000E+00 0.  1.
         13    1    4    4    0    0 -0.14935788873E+02 -0.55504917529E+01 -0.56691439017E+01  0.16912597835E+02  0.10500000000E+00 0. -1.
    3000001    1    5    5    0    0  0.15161974552E+00  0.88994285955E+00  0.60744432622E+00  0.14778279501E+01  0.10000000000E+01 0. -1.
        -13    1    6    6    0    0  0.21236611251E+02  0.10736872229E+02  0.58101664745E+01  0.24495778047E+02  0.10500000000E+00 0.  1.
         13    1    6    6    0    0  0.31618895566E+02  0.16023108986E+02  0.88131574484E+01  0.36526392480E+02  0.10500000000E+00 0. -1.
</event>
<event>
11    0  0.3443539E-009  0.9118800E+02  0.7816531E-02  0.1126479E+00
         25   -1    0    0    0    0  0.00000000000E+00  0.00000000000E+00  0.99999998245E-14  0.12500000000E+03  0.12500000000E+03 0.  0.
    3000001    1    3    3    0    0  0.15587599031E+02  0.33228808655E+00  0.11447508281E+02  0.19368249915E+02  0.10000000000E+01 0.  1.
    1000022    2    1    0    0    0  0.47798739172E+02  0.15485833066E+02  0.35801109524E+02  0.62500000028E+02  0.10000003408E+02 0.  0.
    3000022    2    3    3    0    0  0.32211140142E+02  0.15153544980E+02  0.24353601243E+02  0.43131750113E+02  0.24999936825E+00 0.  0.
    1000022    2    1    0    0    0 -0.47798739172E+02 -0.15485833066E+02 -0.35801109524E+02  0.62499999972E+02  0.10000003054E+02 0.  0.
    3000022    2    5    5    0    0 -0.12517633606E+02  0.34031895997E+00 -0.79368259720E+01  0.14827767007E+02  0.24999964491E+00 0.  0.
        -13    1    4    4    0    0  0.23637677371E+02  0.11089909747E+02  0.17887892561E+02  0.31649859636E+02  0.10500000000E+00 0. -1.
         13    1    4    4    0    0  0.85734627704E+01  0.40636352327E+01  0.64657086817E+01  0.11481890477E+02  0.10500000000E+00 0.  1.
    3000001    1    5    5    0    0 -0.35281105566E+02 -0.15826152026E+02 -0.27864283552E+02  0.47672232964E+02  0.10000000000E+01 0.  1.
        -13    1    6    6    0    0 -0.33657667830E+01  0.60135384983E-01 -0.21539817362E+01  0.39978324905E+01  0.10500000000E+00 0. -1.
         13    1    6    6    0    0 -0.91518668232E+01  0.28018357499E+00 -0.57828442359E+01  0.10829934517E+02  0.10500000000E+00 0.  1.
</event>
<event>
11    0  0.3443539E-009  0.9118800E+02  0.7816531E-02  0.1126479E+00
         25   -1    0    0    0    0  0.00000000000E+00  0.00000000000E+00  0.99999998245E-14  0.12500000000E+03  0.12500000000E+03 0.  0.
    3000001    1    3    3    0    0  0.28937673167E+02 -0.13237704699E+01  0.23169226719E+02  0.37107335708E+02  0.10000000000E+01 0.  1.
    1000022    2    1    0    0    0  0.52612723922E+02  0.19428380696E+00  0.32219770619E+02  0.62499999577E+02  0.99999931814E+01 0.  0.
    3000022    2    3    3    0    0  0.23675050755E+02  0.15180542769E+01  0.90505439004E+01  0.25392663869E+02  0.25003284439E+00 0.  0.
    1000022    2    1    0    0    0 -0.52612723922E+02 -0.19428380696E+00 -0.32219770619E+02  0.62500000423E+02  0.99999984710E+01 0.  0.
    3000022    2    5    5    0    0 -0.12502904934E+01  0.14264409578E+01 -0.24317691902E+01  0.30941813005E+01  0.24999280439E+00 0.  0.
        -13    1    4    4    0    0  0.12486182150E+02  0.85821590460E+00  0.47367362265E+01  0.13382412873E+02  0.10500000000E+00 0.  1.
         13    1    4    4    0    0  0.11188868605E+02  0.65983837231E+00  0.43138076739E+01  0.12010250996E+02  0.10500000000E+00 0. -1.
    3000001    1    5    5    0    0 -0.51362433429E+02 -0.16207247647E+01 -0.29788001429E+02  0.59405819123E+02  0.10000000000E+01 0.  1.
        -13    1    6    6    0    0 -0.28584956480E+00  0.32389290435E+00 -0.55444905057E+00  0.71067245399E+00  0.10500000000E+00 0.  1.
         13    1    6    6    0    0 -0.96444092863E+00  0.11025480534E+01 -0.18773201396E+01  0.23835088465E+01  0.10500000000E+00 0. -1.
</event>
<event>
11    0  0.3443539E-009  0.9118800E+02  0.7816531E-02  0.1126479E+00
         25   -1    0    0    0    0  0.00000000000E+00  0.00000000000E+00  0.99999998245E-14  0.12500000000E+03  0.12500000000E+03 0.  0.
    3000001    1    3    3    0    0 -0.60040268744E+01 -0.11165875083E+02 -0.27055426181E+02  0.29895170026E+02  0.10000000000E+01 0. -1.
    1000022    2    1    0    0    0 -0.19968525962E+02 -0.16172444972E+02 -0.56088851849E+02  0.62500005154E+02  0.10000066853E+02 0.  0.
    3000022    2    3    3    0    0 -0.13964499088E+02 -0.50065698890E+01 -0.29033425668E+02  0.32604835128E+02  0.24998171406E+00 0.  0.
    1000022    2    1    0    0    0  0.19968525962E+02  0.16172444972E+02  0.56088851849E+02  0.62499994846E+02  0.10000002429E+02 0.  0.
    3000022    2    5    5    0    0  0.18554365061E+01  0.36139856885E+01  0.31477780931E+01  0.51453420303E+01  0.25000100190E+00 0.  0.
        -13    1    4    4    0    0 -0.63617466863E+01 -0.23264733651E+01 -0.13369912580E+02  0.14988325010E+02  0.10500000000E+00 0.  1.
         13    1    4    4    0    0 -0.76027524015E+01 -0.26800965239E+01 -0.15663513088E+02  0.17616510117E+02  0.10500000000E+00 0. -1.
    3000001    1    5    5    0    0  0.18113089456E+02  0.12558459283E+02  0.52941073756E+02  0.57354652816E+02  0.10000000000E+01 0. -1.
        -13    1    6    6    0    0  0.44788954480E+00  0.91465185075E+00  0.81580140723E+00  0.13091027417E+01  0.10500000000E+00 0. -1.
         13    1    6    6    0    0  0.14075469613E+01  0.26993338377E+01  0.23319766858E+01  0.38362392885E+01  0.10500000000E+00 0.  1.
</event>
<event>
11    0  0.3443539E-009  0.9118800E+02  0.7816531E-02  0.1126479E+00
         25   -1    0    0    0    0  0.00000000000E+00  0.00000000000E+00  0.99999998245E-14  0.12500000000E+03  0.12500000000E+03 0.  0.
    3000001    1    3    3    0    0  0.24667085487E+02 -0.18886625395E+02 -0.52085950308E+01  0.31516649369E+02  0.10000000000E+01 0. -1.
    1000022    2    1    0    0    0  0.42630304173E+02 -0.44082581212E+02 -0.67552493966E+01  0.62500000852E+02  0.99999955992E+01 0.  0.
    3000022    2    3    3    0    0  0.17963218686E+02 -0.25195955817E+02 -0.15466543658E+01  0.30983351484E+02  0.25002873279E+00 0.  0.
    1000022    2    1    0    0    0 -0.42630304173E+02  0.44082581212E+02  0.67552493966E+01  0.62499999148E+02  0.99999849431E+01 0.  0.
    3000022    2    5    5    0    0 -0.34133929169E+01  0.49830662917E+00 -0.10948603854E+00  0.34603538915E+01  0.25000232100E+00 0.  0.
        -13    1    4    4    0    0  0.54646445691E+01 -0.76589783739E+01 -0.51716267360E+00  0.94234161656E+01  0.10500000000E+00 0.  1.
         13    1    4    4    0    0  0.12498574117E+02 -0.17536977443E+02 -0.10294916922E+01  0.21559935318E+02  0.10500000000E+00 0. -1.
    3000001    1    5    5    0    0 -0.39216911256E+02  0.43584274583E+02  0.68647354351E+01  0.59039645256E+02  0.10000000000E+01 0.  1.
        -13    1    6    6    0    0 -0.90750731619E+00  0.98506607605E-01 -0.33574666300E-01  0.91947014030E+00  0.10500000000E+00 0.  1.
         13    1    6    6    0    0 -0.25058856007E+01  0.39980002156E+00 -0.75911372243E-01  0.25408837512E+01  0.10500000000E+00 0. -1.
</event>
<event>
11    0  0.3443539E-009  0.9118800E+02  0.7816531E-02  0.1126479E+00
         25   -1    0    0    0    0  0.00000000000E+00  0.00000000000E+00  0.99999998245E-14  0.12500000000E+03  0.12500000000E+03 0.  0.
    3000001    1    3    3    0    0  0.19807045932E+02  0.38869394058E+02 -0.10345354535E+02  0.44846128299E+02  0.10000000000E+01 0.  1.
    1000022    2    1    0    0    0  0.32603752984E+02  0.50504305529E+02 -0.13876601502E+02  0.62499997059E+02  0.99999988793E+01 0.  0.
    3000022    2    3    3    0    0  0.12796707052E+02  0.11634911471E+02 -0.35312469678E+01  0.17653868761E+02  0.25000149372E+00 0.  0.
    1000022    2    1    0    0    0 -0.32603752984E+02 -0.50504305529E+02  0.13876601502E+02  0.62500002941E+02  0.10000035636E+02 0.  0.
    3000022    2    5    5    0    0 -0.89254257681E+01 -0.97454152884E+01 -0.44441600251E+00  0.13224838245E+02  0.24999348422E+00 0.  0.
        -13    1    4    4    0    0  0.33808943303E+01  0.30457830320E+01 -0.90305916718E+00  0.46404505827E+01  0.10500000000E+00 0.  1.
         13    1    4    4    0    0  0.94158127219E+01  0.85891284393E+01 -0.26281878006E+01  0.13013418178E+02  0.10500000000E+00 0. -1.
    3000001    1    5    5    0    0 -0.23678327216E+02 -0.40758890241E+02  0.14321017505E+02  0.49275164695E+02  0.10000000000E+01 0.  1.
        -13    1    6    6    0    0 -0.64180251731E+01 -0.70294809498E+01 -0.35683893448E+00  0.95259124798E+01  0.10500000000E+00 0. -1.
         13    1    6    6    0    0 -0.25074005950E+01 -0.27159343385E+01 -0.87577068031E-01  0.36989257654E+01  0.10500000000E+00 0.  1.
</event>
<event>
11    0  0.3443539E-009  0.9118800E+02  0.7816531E-02  0.1126479E+00
         25   -1    0    0    0    0  0.00000000000E+00  0.00000000000E+00  0.99999998245E-14  0.12500000000E+03  0.12500000000E+03 0.  0.
    3000001    1    3    3    0    0 -0.12561837163E+02 -0.76699412129E+01  0.19176088571E+02  0.24194010085E+02  0.10000000000E+01 0.  1.
    1000022    2    1    0    0    0 -0.30674464592E+02 -0.30702193974E+02  0.43848632492E+02  0.62499999985E+02  0.99999966926E+01 0.  0.
    3000022    2    3    3    0    0 -0.18112627429E+02 -0.23032252761E+02  0.24672543921E+02  0.38305989900E+02  0.24999803457E+00 0.  0.
    1000022    2    1    0    0    0  0.30674464592E+02  0.30702193974E+02 -0.43848632492E+02  0.62500000015E+02  0.99999968825E+01 0.  0.
    3000022    2    5    5    0    0  0.22471830307E+02  0.27603233955E+02 -0.33258647011E+02  0.48714697881E+02  0.25001323831E+00 0.  0.
        -13    1    4    4    0    0 -0.12722817865E+02 -0.16183605925E+02  0.17274868047E+02  0.26873989027E+02  0.10500000000E+00 0.  1.
         13    1    4    4    0    0 -0.53898095647E+01 -0.68486468362E+01  0.73976758735E+01  0.11432000873E+02  0.10500000000E+00 0. -1.
    3000001    1    5    5    0    0  0.82026342859E+01  0.30989600195E+01 -0.10589985481E+02  0.13785302134E+02  0.10000000000E+01 0. -1.
        -13    1    6    6    0    0  0.15162714505E+02  0.18565136423E+02 -0.22348185135E+02  0.32772314618E+02  0.10500000000E+00 0. -1.
         13    1    6    6    0    0  0.73091158015E+01  0.90380975320E+01 -0.10910461875E+02  0.15942383264E+02  0.10500000000E+00 0.  1.
</event>
<event>
11    0  0.3443539E-009  0.9118800E+02  0.7816531E-02  0.1126479E+00
         25   -1    0    0    0    0  0.00000000000E+00  0.00000000000E+00  0.99999998245E-14  0.12500000000E+03  0.12500000000E+03 0.  0.
    3000001    1    3    3    0    0  0.15097002727E+02  0.39714979456E+02 -0.33432524717E+01  0.42630698113E+02  0.10000000000E+01 0.  1.
    1000022    2    1    0    0    0  0.19234421839E+02  0.58607476643E+02  0.12044909145E+01  0.62499999629E+02  0.99999926698E+01 0.  0.
    3000022    2    3    3    0    0  0.41374191125E+01  0.18892497187E+02  0.45477433862E+01  0.19869301516E+02  0.24997194888E+00 0.  0.
    1000022    2    1    0    0    0 -0.19234421839E+02 -0.58607476643E+02 -0.12044909145E+01  0.62500000371E+02  0.99999973019E+01 0.  0.
    3000022    2    5    5    0    0 -0.51049300837E+01 -0.28257987469E+02 -0.35007159467E+01  0.28929080220E+02  0.25000651687E+00 0.  0.
        -13    1    4    4    0    0  0.14065058348E+01  0.65308400744E+01  0.16230451745E+01  0.68757131542E+01  0.10500000000E+00 0.  1.
         13    1    4    4    0    0  0.27309132777E+01  0.12361657112E+02  0.29246982117E+01  0.12993588362E+02  0.10500000000E+00 0. -1.
    3000001    1    5    5    0    0 -0.14129491756E+02 -0.30349489173E+02  0.22962250322E+01  0.33570920151E+02  0.10000000000E+01 0. -1.
        -13    1    6    6    0    0 -0.16186953336E+01 -0.88913682704E+01 -0.10534431933E+01  0.90993061199E+01  0.10500000000E+00 0.  1.
         13    1    6    6    0    0 -0.34862347501E+01 -0.19366619199E+02 -0.24472727534E+01  0.19829774100E+02  0.10500000000E+00 0. -1.
</event>
<event>
11    0  0.3443539E-009  0.9118800E+02  0.7816531E-02  0.1126479E+00
         25   -1    0    0    0    0  0.00000000000E+00  0.00000000000E+00  0.99999998245E-14  0.12500000000E+03  0.12500000000E+03 0.  0.
    3000001    1    3    3    0    0 -0.64643745954E+01 -0.20687645737E+02  0.72996328127E+01  0.22892170370E+02  0.10000000000E+01 0. -1.
    1000022    2    1    0    0    0 -0.23845036086E+02 -0.49159041666E+02  0.28654021534E+02  0.62500000396E+02  0.99999988004E+01 0.  0.
    3000022    2    3    3    0    0 -0.17380661491E+02 -0.28471395929E+02  0.21354388722E+02  0.39607830026E+02  0.25000346414E+00 0.  0.
    1000022    2    1    0    0    0  0.23845036086E+02  0.49159041666E+02 -0.28654021534E+02  0.62499999604E+02  0.99999938452E+01 0.  0.
    3000022    2    5    5    0    0  0.20046072368E+02  0.46104110941E+02 -0.27807218868E+02  0.57452049344E+02  0.24997929983E+00 0.  0.
        -13    1    4    4    0    0 -0.92722682399E+01 -0.15288630320E+02  0.11395892676E+02  0.21203645211E+02  0.10500000000E+00 0. -1.
         13    1    4    4    0    0 -0.81083932507E+01 -0.13182765609E+02  0.99584960461E+01  0.18404184815E+02  0.10500000000E+00 0.  1.
    3000001    1    5    5    0    0  0.37989637182E+01  0.30549307252E+01 -0.84680266667E+00  0.50479502596E+01  0.10000000000E+01 0. -1.
        -13    1    6    6    0    0  0.62951277630E+01  0.14408981748E+02 -0.86510485418E+01  0.17947118277E+02  0.10500000000E+00 0. -1.
         13    1    6    6    0    0  0.13750944605E+02  0.31695129192E+02 -0.19156170326E+02  0.39504931067E+02  0.10500000000E+00 0.  1.
</event>
<event>
11    0  0.3443539E-009  0.9118800E+02  0.7816531E-02  0.1126479E+00
         25   -1    0    0    0    0  0.00000000000E+00  0.00000000000E+00  0.99999998245E-14  0.12500000000E+03  0.12500000000E+03 0.  0.
    3000001    1    3    3    0    0 -0.11252794208E+02 -0.22537787279E+02 -0.20379130877E+02  0.32417375098E+02  0.10000000000E+01 0.  1.
    1000022    2    1    0    0    0 -0.12354021047E+02 -0.44560867899E+02 -0.40840632631E+02  0.62500000177E+02  0.99999982242E+01 0.  0.
    3000022    2    3    3    0    0 -0.11012268397E+01 -0.22023080620E+02 -0.20461501754E+02  0.30082625079E+02  0.24999419960E+00 0.  0.
    1000022    2    1    0    0    0  0.12354021047E+02  0.44560867899E+02  0.40840632631E+02  0.62499999823E+02  0.99999960125E+01 0.  0.
    3000022    2    5    5    0    0  0.31423901513E+00  0.75146661528E+01  0.11410247627E+02  0.13668401685E+02  0.25000036208E+00 0.  0.
        -13    1    4    4    0    0 -0.30353306691E+00 -0.70488710549E+01 -0.65658264358E+01  0.96384551281E+01  0.10500000000E+00 0. -1.
         13    1    4    4    0    0 -0.79769377281E+00 -0.14974209565E+02 -0.13895675318E+02  0.20444169951E+02  0.10500000000E+00 0.  1.
    3000001    1    5    5    0    0  0.12039782032E+02  0.37046201746E+02  0.29430385004E+02  0.48831598138E+02  0.10000000000E+01 0. -1.
        -13    1    6    6    0    0  0.22402604071E+00  0.37614154692E+01  0.56929940549E+01  0.68278576661E+01  0.10500000000E+00 0.  1.
         13    1    6    6    0    0  0.90212974419E-01  0.37532506836E+01  0.57172535718E+01  0.68405440193E+01  0.10500000000E+00 0. -1.
</event>
<event>
11    0  0.3443539E-009  0.9118800E+02  0.7816531E-02  0.1126479E+00
         25   -1    0    0    0    0  0.00000000000E+00  0.00000000000E+00  0.99999998245E-14  0.12500000000E+03  0.12500000000E+03 0.  0.
    3000001    1    3    3    0    0  0.12364315054E+02 -0.37617781063E+01  0.28752061382E+02  0.31538996417E+02  0.10000000000E+01 0.  1.
    1000022    2    1    0    0    0  0.16297632441E+02 -0.12693791823E+02  0.58133508442E+02  0.62500000417E+02  0.10000003713E+02 0.  0.
    3000022    2    3    3    0    0  0.39333173867E+01 -0.89320137164E+01  0.29381447061E+02  0.30961004000E+02  0.24996521992E+00 0.  0.
    1000022    2    1    0    0    0 -0.16297632441E+02  0.12693791823E+02 -0.58133508442E+02  0.62499999583E+02  0.99999985044E+01 0.  0.
    3000022    2    5    5    0    0 -0.85380198113E+00  0.25824248304E+01 -0.19575541934E+01  0.33604233463E+01  0.25006162895E+00 0.  0.
        -13    1    4    4    0    0  0.27889530679E+01 -0.62316567456E+01  0.20615063918E+02  0.21716438252E+02  0.10500000000E+00 0. -1.
         13    1    4    4    0    0  0.11443643188E+01 -0.27003569709E+01  0.87663831429E+01  0.92445657482E+01  0.10500000000E+00 0.  1.
    3000001    1    5    5    0    0 -0.15443830460E+02  0.10111366992E+02 -0.56175954249E+02  0.59139576237E+02  0.10000000000E+01 0. -1.
        -13    1    6    6    0    0 -0.47467981434E+00  0.15362683406E+01 -0.12240049172E+01  0.20235252353E+01  0.10500000000E+00 0.  1.
         13    1    6    6    0    0 -0.37912216679E+00  0.10461564899E+01 -0.73354927615E+00  0.13368981110E+01  0.10500000000E+00 0. -1.
</event>
<event>
11    0  0.3443539E-009  0.9118800E+02  0.7816531E-02  0.1126479E+00
         25   -1    0    0    0    0  0.00000000000E+00  0.00000000000E+00  0.99999998245E-14  0.12500000000E+03  0.12500000000E+03 0.  0.
    3000001    1    3    3    0    0  0.47532760602E+01 -0.45304171606E+01  0.65832874838E+01  0.93518975106E+01  0.10000000000E+01 0.  1.
    1000022    2    1    0    0    0  0.18583746234E+02 -0.47040060613E+02  0.35328817796E+02  0.62499989710E+02  0.10000021018E+02 0.  0.
    3000022    2    3    3    0    0  0.13830470174E+02 -0.42509643452E+02  0.28745530312E+02  0.53148092199E+02  0.24999973664E+00 0.  0.
    1000022    2    1    0    0    0 -0.18583746234E+02  0.47040060613E+02 -0.35328817796E+02  0.62500010290E+02  0.10000149644E+02 0.  0.
    3000022    2    5    5    0    0 -0.14000789563E+02  0.43429775069E+02 -0.31580360898E+02  0.55493685814E+02  0.24999966424E+00 0.  0.
        -13    1    4    4    0    0  0.98446035144E+01 -0.30224640881E+02  0.20391181339E+02  0.37765810413E+02  0.10500000000E+00 0.  1.
         13    1    4    4    0    0  0.39858666593E+01 -0.12285002571E+02  0.83543489729E+01  0.15382281786E+02  0.10500000000E+00 0. -1.
    3000001    1    5    5    0    0 -0.45829566707E+01  0.36102855438E+01 -0.37484568975E+01  0.70063244762E+01  0.10000000000E+01 0. -1.
        -13    1    6    6    0    0 -0.10741203858E+02  0.33279081048E+02 -0.24206830452E+02  0.42530604995E+02  0.10500000000E+00 0.  1.
         13    1    6    6    0    0 -0.32595857051E+01  0.10150694021E+02 -0.73735304464E+01  0.12963080819E+02  0.10500000000E+00 0. -1.
</event>
<event>
11    0  0.3443539E-009  0.9118800E+02  0.7816531E-02  0.1126479E+00
         25   -1    0    0    0    0  0.00000000000E+00  0.00000000000E+00  0.99999998245E-14  0.12500000000E+03  0.12500000000E+03 0.  0.
    3000001    1    3    3    0    0 -0.26367446363E+02 -0.10754104603E+01  0.46438286234E+02  0.53422028824E+02  0.10000000000E+01 0. -1.
    1000022    2    1    0    0    0 -0.26928108389E+02 -0.13096887116E+01  0.55492446879E+02  0.62499999560E+02  0.99999989220E+01 0.  0.
    3000022    2    3    3    0    0 -0.56066202570E+00 -0.23427825133E+00  0.90541606454E+01  0.90779707357E+01  0.24999896035E+00 0.  0.
    1000022    2    1    0    0    0  0.26928108389E+02  0.13096887116E+01 -0.55492446879E+02  0.62500000440E+02  0.10000004420E+02 0.  0.
    3000022    2    5    5    0    0  0.11686792325E+02  0.44032687167E+01 -0.31545462530E+02  0.33928580944E+02  0.25001673780E+00 0.  0.
        -13    1    4    4    0    0 -0.43287732239E+00 -0.19883684146E+00  0.66462860750E+01  0.66641625473E+01  0.10500000000E+00 0.  1.
         13    1    4    4    0    0 -0.12778470331E+00 -0.35441409869E-01  0.24078745703E+01  0.24138081884E+01  0.10500000000E+00 0. -1.
    3000001    1    5    5    0    0  0.15241316063E+02 -0.30935800051E+01 -0.23946984349E+02  0.28571419496E+02  0.10000000000E+01 0.  1.
        -13    1    6    6    0    0  0.66330631095E+01  0.25520038789E+01 -0.17833319531E+02  0.19197618616E+02  0.10500000000E+00 0. -1.
         13    1    6    6    0    0  0.50537292160E+01  0.18512648379E+01 -0.13712142999E+02  0.14730962328E+02  0.10500000000E+00 0.  1.
</event>
<event>
11    0  0.3443539E-009  0.9118800E+02  0.7816531E-02  0.1126479E+00
         25   -1    0    0    0    0  0.00000000000E+00  0.00000000000E+00  0.99999998245E-14  0.12500000000E+03  0.12500000000E+03 0.  0.
    3000001    1    3    3    0    0 -0.11409163000E+02  0.31748309818E+01  0.14885884689E+02  0.19048310032E+02  0.10000000000E+01 0. -1.
    1000022    2    1    0    0    0 -0.35545233794E+02 -0.42417432686E+01  0.50247324447E+02  0.62500000625E+02  0.10000021637E+02 0.  0.
    3000022    2    3    3    0    0 -0.24136070794E+02 -0.74165742504E+01  0.35361439758E+02  0.43451690593E+02  0.25001335470E+00 0.  0.
    1000022    2    1    0    0    0  0.35545233794E+02  0.42417432686E+01 -0.50247324447E+02  0.62499999375E+02  0.10000013819E+02 0.  0.
    3000022    2    5    5    0    0  0.13613414747E+02  0.48105622973E+01 -0.26323119053E+02  0.30023918245E+02  0.24999889665E+00 0.  0.
        -13    1    4    4    0    0 -0.94819307140E+01 -0.29216441463E+01  0.13789074927E+02  0.16988014213E+02  0.10500000000E+00 0.  1.
         13    1    4    4    0    0 -0.14654140080E+02 -0.44949301041E+01  0.21572364831E+02  0.26463676380E+02  0.10500000000E+00 0. -1.
    3000001    1    5    5    0    0  0.21931819047E+02 -0.56881902874E+00 -0.23924205394E+02  0.32476081129E+02  0.10000000000E+01 0.  1.
        -13    1    6    6    0    0  0.55541860792E+01  0.19535042153E+01 -0.10866211493E+02  0.12359236988E+02  0.10500000000E+00 0. -1.
         13    1    6    6    0    0  0.80592286674E+01  0.28570580821E+01 -0.15456907560E+02  0.17664681257E+02  0.10500000000E+00 0.  1.
</event>
<event>
11    0  0.3443539E-009  0.9118800E+02  0.7816531E-02  0.1126479E+00
         25   -1    0    0    0    0  0.00000000000E+00  0.00000000000E+00  0.99999998245E-14  0.12500000000E+03  0.12500000000E+03 0.  0.
    3000001    1    3    3    0    0 -0.39524983244E+02  0.15346575281E+02  0.14778678511E+02  0.44912704347E+02  0.10000000000E+01 0.  1.
    1000022    2    1    0    0    0 -0.52414564662E+02  0.26664194963E+02  0.18654337248E+02  0.62500002423E+02  0.10000006151E+02 0.  0.
    3000022    2    3    3    0    0 -0.12889581419E+02  0.11317619682E+02  0.38756587372E+01  0.17587298076E+02  0.24999712558E+00 0.  0.
    1000022    2    1    0    0    0  0.52414564662E+02 -0.26664194963E+02 -0.18654337248E+02  0.62499997577E+02  0.99999758582E+01 0.  0.
    3000022    2    5    5    0    0  0.21765750302E+02 -0.62267836917E+01 -0.48941736579E+01  0.23163250085E+02  0.24999475528E+00 0.  0.
        -13    1    4    4    0    0 -0.67846506785E+01  0.59933000594E+01  0.21087095315E+01  0.92956339923E+01  0.10500000000E+00 0. -1.
         13    1    4    4    0    0 -0.61049307402E+01  0.53243196223E+01  0.17669492057E+01  0.82916640838E+01  0.10500000000E+00 0.  1.
    3000001    1    5    5    0    0  0.30648814360E+02 -0.20437411271E+02 -0.13760163590E+02  0.39336747491E+02  0.10000000000E+01 0. -1.
        -13    1    6    6    0    0  0.86895447938E+01 -0.24374448080E+01 -0.19078516431E+01  0.92249796101E+01  0.10500000000E+00 0.  1.
         13    1    6    6    0    0  0.13076205508E+02 -0.37893388837E+01 -0.29863220147E+01  0.13938270475E+02  0.10500000000E+00 0. -1.
</event>
<event>
11    0  0.3443539E-009  0.9118800E+02  0.7816531E-02  0.1126479E+00
         25   -1    0    0    0    0  0.00000000000E+00  0.00000000000E+00  0.99999998245E-14  0.12500000000E+03  0.12500000000E+03 0.  0.
    3000001    1    3    3    0    0 -0.10796406291E+02  0.16706911898E+01 -0.29017397449E+02  0.31021975317E+02  0.10000000000E+01 0. -1.
    1000022    2    1    0    0    0 -0.13064298398E+02 -0.11626533958E+01 -0.60284512338E+02  0.62500001727E+02  0.10000006623E+02 0.  0.
    3000022    2    3    3    0    0 -0.22678921077E+01 -0.28333445856E+01 -0.31267114889E+02  0.31478026410E+02  0.24999407361E+00 0.  0.
    1000022    2    1    0    0    0  0.13064298398E+02  0.11626533958E+01  0.60284512338E+02  0.62499998273E+02  0.99999850380E+01 0.  0.
    3000022    2    5    5    0    0  0.80309903707E+01 -0.42019981170E+01  0.33639685873E+02  0.34840272084E+02  0.24999737778E+00 0.  0.
        -13    1    4    4    0    0 -0.15888795711E+01 -0.19282165289E+01 -0.21204633045E+02  0.21351581788E+02  0.10500000000E+00 0.  1.
         13    1    4    4    0    0 -0.67901253655E+00 -0.90512805666E+00 -0.10062481843E+02  0.10126444622E+02  0.10500000000E+00 0. -1.
    3000001    1    5    5    0    0  0.50333080277E+01  0.53646515128E+01  0.26644826465E+02  0.27659726190E+02  0.10000000000E+01 0. -1.
        -13    1    6    6    0    0  0.55281170819E+01 -0.28716695365E+01  0.22940450576E+02  0.23771450566E+02  0.10500000000E+00 0. -1.
         13    1    6    6    0    0  0.25028732888E+01 -0.13303285805E+01  0.10699235297E+02  0.11068821517E+02  0.10500000000E+00 0.  1.
</event>
<event>
11    0  0.3443539E-009  0.9118800E+02  0.7816531E-02  0.1126479E+00
         25   -1    0    0    0    0  0.00000000000E+00  0.00000000000E+00  0.99999998245E-14  0.12500000000E+03  0.12500000000E+03 0.  0.
    3000001    1    3    3    0    0  0.44708462642E+02 -0.28151328153E+01  0.25942772984E+02  0.51776433584E+02  0.10000000000E+01 0. -1.
    1000022    2    1    0    0    0  0.54982370500E+02 -0.52891110544E+00  0.27980522803E+02  0.62500001962E+02  0.99999888071E+01 0.  0.
    3000022    2    3    3    0    0  0.10273907857E+02  0.22862217098E+01  0.20377498194E+01  0.10723568377E+02  0.25000410244E+00 0.  0.
    1000022    2    1    0    0    0 -0.54982370500E+02  0.52891110544E+00 -0.27980522803E+02  0.62499998038E+02  0.99999642867E+01 0.  0.
    3000022    2    5    5    0    0 -0.35488626362E+02  0.50267389840E+01 -0.18574839649E+02  0.40370755129E+02  0.24999170245E+00 0.  0.
        -13    1    4    4    0    0  0.61609709874E+01  0.13094444169E+01  0.11992314973E+01  0.64125961492E+01  0.10500000000E+00 0. -1.
         13    1    4    4    0    0  0.41129368700E+01  0.97677729289E+00  0.83851832209E+00  0.43109722283E+01  0.10500000000E+00 0.  1.
    3000001    1    5    5    0    0 -0.19493744137E+02 -0.44978278786E+01 -0.94056831547E+01  0.22129242909E+02  0.10000000000E+01 0.  1.
        -13    1    6    6    0    0 -0.26490353905E+02  0.37641566693E+01 -0.13894737577E+02  0.30149336357E+02  0.10500000000E+00 0.  1.
         13    1    6    6    0    0 -0.89982724571E+01  0.12625823148E+01 -0.46801020717E+01  0.10221418772E+02  0.10500000000E+00 0. -1.
</event>
<event>
11    0  0.3443539E-009  0.9118800E+02  0.7816531E-02  0.1126479E+00
         25   -1    0    0    0    0  0.00000000000E+00  0.00000000000E+00  0.99999998245E-14  0.12500000000E+03  0.12500000000E+03 0.  0.
    3000001    1    3    3    0    0  0.26612560389E+02  0.17846931624E+02  0.63462474773E+01  0.32680517068E+02  0.10000000000E+01 0. -1.
    1000022    2    1    0    0    0  0.49888284917E+02  0.36175118064E+02  0.29613842407E+01  0.62500000107E+02  0.10000003894E+02 0.  0.
    3000022    2    3    3    0    0  0.23275724528E+02  0.18328186440E+02 -0.33848632366E+01  0.29819483038E+02  0.24999811044E+00 0.  0.
    1000022    2    1    0    0    0 -0.49888284917E+02 -0.36175118064E+02 -0.29613842407E+01  0.62499999893E+02  0.10000002561E+02 0.  0.
    3000022    2    5    5    0    0 -0.43185315618E+02 -0.27558462899E+02 -0.35152229033E+00  0.51231108065E+02  0.25000647274E+00 0.  0.
        -13    1    4    4    0    0  0.11785044537E+02  0.93662056278E+01 -0.17171782396E+01  0.15151660262E+02  0.10500000000E+00 0. -1.
         13    1    4    4    0    0  0.11490679991E+02  0.89619808122E+01 -0.16676849970E+01  0.14667822776E+02  0.10500000000E+00 0.  1.
    3000001    1    5    5    0    0 -0.67029692982E+01 -0.86166551648E+01 -0.26098619503E+01  0.11268891828E+02  0.10000000000E+01 0.  1.
        -13    1    6    6    0    0 -0.16182962163E+02 -0.10337674120E+02 -0.19128166521E+00  0.19204254327E+02  0.10500000000E+00 0. -1.
         13    1    6    6    0    0 -0.27002353455E+02 -0.17220788779E+02 -0.16024062512E+00  0.32026853738E+02  0.10500000000E+00 0.  1.
</event>
<event>
11    0  0.3443539E-009  0.9118800E+02  0.7816531E-02  0.1126479E+00
         25   -1    0    0    0    0  0.00000000000E+00  0.00000000000E+00  0.99999998245E-14  0.12500000000E+03  0.12500000000E+03 0.  0.
    3000001    1    3    3    0    0 -0.26156944997E+02 -0.44540453348E+02 -0.16193760608E+02  0.54141256345E+02  0.10000000000E+01 0.  1.
    1000022    2    1    0    0    0 -0.32976745186E+02 -0.48687334786E+02 -0.18663533898E+02  0.62499998963E+02  0.10000004060E+02 0.  0.
    3000022    2    3    3    0    0 -0.68198001891E+01 -0.41468814385E+01 -0.24697732899E+01  0.83587426182E+01  0.24999553958E+00 0.  0.
    1000022    2    1    0    0    0  0.32976745186E+02  0.48687334786E+02  0.18663533898E+02  0.62500001037E+02  0.10000017017E+02 0.  0.
    3000022    2    5    5    0    0  0.29020648950E+02  0.45736949401E+02  0.14799780753E+02  0.56153028552E+02  0.24999847958E+00 0.  0.
        -13    1    4    4    0    0 -0.34133804628E+01 -0.20333642226E+01 -0.12894945927E+01  0.41784635395E+01  0.10500000000E+00 0. -1.
         13    1    4    4    0    0 -0.34064197263E+01 -0.21135172158E+01 -0.11802786972E+01  0.41802790787E+01  0.10500000000E+00 0.  1.
    3000001    1    5    5    0    0  0.39560962365E+01  0.29503853850E+01  0.38637531449E+01  0.63469724844E+01  0.10000000000E+01 0.  1.
        -13    1    6    6    0    0  0.17597565687E+02  0.27849954642E+02  0.89978133454E+01  0.34150636329E+02  0.10500000000E+00 0. -1.
         13    1    6    6    0    0  0.11423083263E+02  0.17886994759E+02  0.58019674076E+01  0.22002392223E+02  0.10500000000E+00 0.  1.
</event>
<event>
11    0  0.3443539E-009  0.9118800E+02  0.7816531E-02  0.1126479E+00
         25   -1    0    0    0    0  0.00000000000E+00  0.00000000000E+00  0.99999998245E-14  0.12500000000E+03  0.12500000000E+03 0.  0.
    3000001    1    3    3    0    0 -0.68450081795E+01 -0.27793821841E+02  0.52067337180E+01  0.29111179047E+02  0.10000000000E+01 0. -1.
    1000022    2    1    0    0    0 -0.22153578689E+02 -0.57440864059E+02  0.40020046208E+01  0.62499999273E+02  0.99999977800E+01 0.  0.
    3000022    2    3    3    0    0 -0.15308570510E+02 -0.29647042217E+02 -0.12047290972E+01  0.33388820225E+02  0.25000113833E+00 0.  0.
    1000022    2    1    0    0    0  0.22153578689E+02  0.57440864059E+02 -0.40020046208E+01  0.62500000727E+02  0.10000006868E+02 0.  0.
    3000022    2    5    5    0    0  0.22792869885E+02  0.55076582583E+02 -0.46114967486E+01  0.59785226190E+02  0.25000356554E+00 0.  0.
        -13    1    4    4    0    0 -0.11609768747E+02 -0.22521612470E+02 -0.92457717633E+00  0.25354992143E+02  0.10500000000E+00 0. -1.
         13    1    4    4    0    0 -0.36988017623E+01 -0.71254297476E+01 -0.28015192090E+00  0.80338280827E+01  0.10500000000E+00 0.  1.
    3000001    1    5    5    0    0 -0.63929119623E+00  0.23642814760E+01  0.60949212777E+00  0.27147745367E+01  0.10000000000E+01 0.  1.
        -13    1    6    6    0    0  0.66788629309E+01  0.16043871317E+02 -0.13206116206E+01  0.17428943082E+02  0.10500000000E+00 0.  1.
         13    1    6    6    0    0  0.16114006954E+02  0.39032711265E+02 -0.32908851279E+01  0.42356283109E+02  0.10500000000E+00 0. -1.
</event>
<event>
11    0  0.3443539E-009  0.9118800E+02  0.7816531E-02  0.1126479E+00
         25   -1    0    0    0    0  0.00000000000E+00  0.00000000000E+00  0.99999998245E-14  0.12500000000E+03  0.12500000000E+03 0.  0.
    3000001    1    3    3    0    0  0.59934119054E+02  0.45371518017E+01  0.13015441920E+02  0.61506797198E+02  0.10000000000E+01 0.  1.
    1000022    2    1    0    0    0  0.60120374650E+02  0.36581604270E+01  0.13356950188E+02  0.62499997534E+02  0.99999993799E+01 0.  0.
    3000022    2    3    3    0    0  0.18625559654E+00 -0.87899137470E+00  0.34150826874E+00  0.99320033564E+00  0.25000405009E+00 0.  0.
    1000022    2    1    0    0    0 -0.60120374650E+02 -0.36581604270E+01 -0.13356950188E+02  0.62500002466E+02  0.10000030205E+02 0.  0.
    3000022    2    5    5    0    0 -0.27750111984E+02 -0.66245796637E+01 -0.58936715176E+01  0.29133341310E+02  0.24988213562E+00 0.  0.
        -13    1    4    4    0    0  0.72791424154E-01 -0.31760478006E+00  0.18999080229E+00  0.39152636271E+00  0.10500000000E+00 0.  1.
         13    1    4    4    0    0  0.11346417239E+00 -0.56138659464E+00  0.15151746645E+00  0.60167397293E+00  0.10500000000E+00 0. -1.
    3000001    1    5    5    0    0 -0.32370262666E+02  0.29664192367E+01 -0.74632786708E+01  0.33366661156E+02  0.10000000000E+01 0. -1.
        -13    1    6    6    0    0 -0.86614635706E+01 -0.21150010816E+01 -0.18250502436E+01  0.91014292368E+01  0.10500000000E+00 0. -1.
         13    1    6    6    0    0 -0.19088648413E+02 -0.45095785821E+01 -0.40686212740E+01  0.20031912073E+02  0.10500000000E+00 0.  1.
</event>
<event>
11    0  0.3443539E-009  0.9118800E+02  0.7816531E-02  0.1126479E+00
         25   -1    0    0    0    0  0.00000000000E+00  0.00000000000E+00  0.99999998245E-14  0.12500000000E+03  0.12500000000E+03 0.  0.
    3000001    1    3    3    0    0  0.24458183566E+02 -0.76501179269E+00  0.92977690478E+01  0.26196116041E+02  0.10000000000E+01 0.  1.
    1000022    2    1    0    0    0  0.54214630095E+02  0.69255259219E+01  0.28619237606E+02  0.62500001893E+02  0.10000022493E+02 0.  0.
    3000022    2    3    3    0    0  0.29756446530E+02  0.76905377146E+01  0.19321468558E+02  0.36303885852E+02  0.25000065069E+00 0.  0.
    1000022    2    1    0    0    0 -0.54214630095E+02 -0.69255259219E+01 -0.28619237606E+02  0.62499998107E+02  0.99999988306E+01 0.  0.
    3000022    2    5    5    0    0 -0.42855073456E+02 -0.30398635608E+01 -0.25842682554E+02  0.50136861087E+02  0.25001333687E+00 0.  0.
        -13    1    4    4    0    0  0.21850698855E+02  0.56662636007E+01  0.14224759456E+02  0.26681723898E+02  0.10500000000E+00 0. -1.
         13    1    4    4    0    0  0.79057476750E+01  0.20242741139E+01  0.50967091021E+01  0.96221619535E+01  0.10500000000E+00 0.  1.
    3000001    1    5    5    0    0 -0.11359556640E+02 -0.38856623611E+01 -0.27765550510E+01  0.12363137020E+02  0.10000000000E+01 0. -1.
        -13    1    6    6    0    0 -0.12646161769E+02 -0.94159229966E+00 -0.76257119871E+01  0.14797787398E+02  0.10500000000E+00 0.  1.
         13    1    6    6    0    0 -0.30208911686E+02 -0.20982712612E+01 -0.18216970567E+02  0.35339073689E+02  0.10500000000E+00 0. -1.
</event>
<event>
11    0  0.3443539E-009  0.9118800E+02  0.7816531E-02  0.1126479E+00
         25   -1    0    0    0    0  0.00000000000E+00  0.00000000000E+00  0.99999998245E-14  0.12500000000E+03  0.12500000000E+03 0.  0.
    3000001    1    3    3    0    0 -0.88396535757E+01 -0.97118279597E+00 -0.35821530076E+01  0.96392163339E+01  0.10000000000E+01 0. -1.
    1000022    2    1    0    0    0 -0.61438022121E+02  0.42831346321E+01 -0.36433634624E+01  0.62500000235E+02  0.10000006381E+02 0.  0.
    3000022    2    3    3    0    0 -0.52598368546E+02  0.52543174281E+01 -0.61210454812E-01  0.52860783901E+02  0.25000529052E+00 0.  0.
    1000022    2    1    0    0    0  0.61438022121E+02 -0.42831346321E+01  0.36433634624E+01  0.62499999765E+02  0.10000003440E+02 0.  0.
    3000022    2    5    5    0    0 -0.23476532985E+00  0.27086399960E+00 -0.29289307381E+00  0.52608806734E+00  0.25000047106E+00 0.  0.
        -13    1    4    4    0    0 -0.32254709759E+02  0.31735395505E+01 -0.75833811111E-01  0.32410714751E+02  0.10500000000E+00 0.  1.
         13    1    4    4    0    0 -0.20343658787E+02  0.20807778776E+01  0.14623356300E-01  0.20450069151E+02  0.10500000000E+00 0. -1.
    3000001    1    5    5    0    0  0.61672787451E+02 -0.45539986317E+01  0.39362565362E+01  0.61973911697E+02  0.10000000000E+01 0.  1.
        -13    1    6    6    0    0 -0.54688895352E-01  0.38031971493E-01 -0.89766548966E-01  0.15336342277E+00  0.10500000000E+00 0.  1.
         13    1    6    6    0    0 -0.18007643450E+00  0.23283202811E+00 -0.20312652485E+00  0.37272464457E+00  0.10500000000E+00 0. -1.
</event>
<event>
11    0  0.3443539E-009  0.9118800E+02  0.7816531E-02  0.1126479E+00
         25   -1    0    0    0    0  0.00000000000E+00  0.00000000000E+00  0.99999998245E-14  0.12500000000E+03  0.12500000000E+03 0.  0.
    3000001    1    3    3    0    0 -0.30012099725E+02  0.20084693510E+02  0.15964818953E+01  0.36161717295E+02  0.10000000000E+01 0.  1.
    1000022    2    1    0    0    0 -0.49706640769E+02  0.36160521593E+02 -0.52835961164E+01  0.62500000600E+02  0.10000011433E+02 0.  0.
    3000022    2    3    3    0    0 -0.19694541044E+02  0.16075828083E+02 -0.68800780117E+01  0.26338283304E+02  0.24999701655E+00 0.  0.
    1000022    2    1    0    0    0  0.49706640769E+02 -0.36160521593E+02  0.52835961164E+01  0.62499999400E+02  0.10000003936E+02 0.  0.
    3000022    2    5    5    0    0 -0.39972041859E+00 -0.50178114088E+00  0.40582799380E+00  0.79922287417E+00  0.25000023131E+00 0.  0.
        -13    1    4    4    0    0 -0.10800938603E+02  0.87791770199E+01 -0.38292089251E+01  0.14436346139E+02  0.10500000000E+00 0.  1.
         13    1    4    4    0    0 -0.88936024403E+01  0.72966510628E+01 -0.30508690866E+01  0.11901937165E+02  0.10500000000E+00 0. -1.
    3000001    1    5    5    0    0  0.50106361187E+02 -0.35658740452E+02  0.48777681226E+01  0.61700776526E+02  0.10000000000E+01 0.  1.
        -13    1    6    6    0    0 -0.24554781553E+00 -0.20173392404E+00  0.21312607743E+00  0.39678461500E+00  0.10500000000E+00 0.  1.
         13    1    6    6    0    0 -0.15417260307E+00 -0.30004721684E+00  0.19270191637E+00  0.40243825917E+00  0.10500000000E+00 0. -1.
</event>
<event>
11    0  0.3443539E-009  0.9118800E+02  0.7816531E-02  0.1126479E+00
         25   -1    0    0    0    0  0.00000000000E+00  0.00000000000E+00  0.99999998245E-14  0.12500000000E+03  0.12500000000E+03 0.  0.
    3000001    1    3    3    0    0 -0.16206700904E+02 -0.82500126215E+01 -0.11245596542E+02  0.21405216749E+02  0.10000000000E+01 0.  1.
    1000022    2    1    0    0    0 -0.53678730103E+02 -0.13344848723E+02 -0.27326894870E+02  0.62499997387E+02  0.99999718631E+01 0.  0.
    3000022    2    3    3    0    0 -0.37472029198E+02 -0.50948361015E+01 -0.16081298328E+02  0.41094780638E+02  0.25002535889E+00 0.  0.
    1000022    2    1    0    0    0  0.53678730103E+02  0.13344848723E+02  0.27326894870E+02  0.62500002613E+02  0.10000004525E+02 0.  0.
    3000022    2    5    5    0    0  0.51421783275E+02  0.12269324156E+02  0.23580759756E+02  0.57886534246E+02  0.25001188328E+00 0.  0.
        -13    1    4    4    0    0 -0.14902349039E+02 -0.20473234805E+01 -0.64610839310E+01  0.16371565926E+02  0.10500000000E+00 0. -1.
         13    1    4    4    0    0 -0.22569680159E+02 -0.30475126210E+01 -0.96202143969E+01  0.24723214712E+02  0.10500000000E+00 0.  1.
    3000001    1    5    5    0    0  0.22569468280E+01  0.10755245673E+01  0.37461351145E+01  0.46134683672E+01  0.10000000000E+01 0. -1.
        -13    1    6    6    0    0  0.26242701089E+02  0.62809963884E+01  0.11964987897E+02  0.29517829129E+02  0.10500000000E+00 0. -1.
         13    1    6    6    0    0  0.25179082185E+02  0.59883277674E+01  0.11615771858E+02  0.28368705117E+02  0.10500000000E+00 0.  1.
</event>
<event>
11    0  0.3443539E-009  0.9118800E+02  0.7816531E-02  0.1126479E+00
         25   -1    0    0    0    0  0.00000000000E+00  0.00000000000E+00  0.99999998245E-14  0.12500000000E+03  0.12500000000E+03 0.  0.
    3000001    1    3    3    0    0  0.14736572082E+02 -0.13829065900E+02  0.10014550228E+02  0.22576555022E+02  0.10000000000E+01 0.  1.
    1000022    2    1    0    0    0  0.29683375765E+02 -0.44632938915E+02  0.30545833257E+02  0.62500001939E+02  0.10000014006E+02 0.  0.
    3000022    2    3    3    0    0  0.14946803683E+02 -0.30803873014E+02  0.20531283029E+02  0.39923446917E+02  0.24999586269E+00 0.  0.
    1000022    2    1    0    0    0 -0.29683375765E+02  0.44632938915E+02 -0.30545833257E+02  0.62499998061E+02  0.99999897635E+01 0.  0.
    3000022    2    5    5    0    0 -0.18956433713E+02  0.31152664264E+02 -0.15574446656E+02  0.39654265260E+02  0.24998963745E+00 0.  0.
        -13    1    4    4    0    0  0.35487296651E+01 -0.73106675530E+01  0.48535967783E+01  0.94661380189E+01  0.10500000000E+00 0.  1.
         13    1    4    4    0    0  0.11398074018E+02 -0.23493205461E+02  0.15677686251E+02  0.30457308899E+02  0.10500000000E+00 0. -1.
    3000001    1    5    5    0    0 -0.10726942052E+02  0.13480274651E+02 -0.14971386601E+02  0.22845732801E+02  0.10000000000E+01 0. -1.
        -13    1    6    6    0    0 -0.97652331436E+01  0.15920244705E+02 -0.79618835122E+01  0.20303117590E+02  0.10500000000E+00 0. -1.
         13    1    6    6    0    0 -0.91912005693E+01  0.15232419559E+02 -0.76125631436E+01  0.19351147670E+02  0.10500000000E+00 0.  1.
</event>
<event>
11    0  0.3443539E-009  0.9118800E+02  0.7816531E-02  0.1126479E+00
         25   -1    0    0    0    0  0.00000000000E+00  0.00000000000E+00  0.99999998245E-14  0.12500000000E+03  0.12500000000E+03 0.  0.
    3000001    1    3    3    0    0 -0.74293652235E+01  0.46242120377E+01 -0.69715749294E+01  0.11233061096E+02  0.10000000000E+01 0.  1.
    1000022    2    1    0    0    0 -0.53151289768E+02  0.11723128327E+02 -0.29047523972E+02  0.62500000036E+02  0.10000000688E+02 0.  0.
    3000022    2    3    3    0    0 -0.45721924545E+02  0.70989162897E+01 -0.22075949042E+02  0.51266938939E+02  0.25001106931E+00 0.  0.
    1000022    2    1    0    0    0  0.53151289768E+02 -0.11723128327E+02  0.29047523972E+02  0.62499999964E+02  0.10000000242E+02 0.  0.
    3000022    2    5    5    0    0  0.66535269757E+01 -0.50092618408E+01  0.49356311249E+01  0.96842700671E+01  0.25001345165E+00 0.  0.
        -13    1    4    4    0    0 -0.15061289928E+02  0.23816626214E+01 -0.73097071453E+01  0.16910281330E+02  0.10500000000E+00 0. -1.
         13    1    4    4    0    0 -0.30660634617E+02  0.47172536683E+01 -0.14766241897E+02  0.34356657609E+02  0.10500000000E+00 0.  1.
    3000001    1    5    5    0    0  0.46497762793E+02 -0.67138664867E+01  0.24111892847E+02  0.52815729897E+02  0.10000000000E+01 0. -1.
        -13    1    6    6    0    0  0.44389152204E+01 -0.32812632807E+01  0.32420593601E+01  0.64025487851E+01  0.10500000000E+00 0. -1.
         13    1    6    6    0    0  0.22146117553E+01 -0.17279985600E+01  0.16935717648E+01  0.32817212820E+01  0.10500000000E+00 0.  1.
</event>
<event>
11    0  0.3443539E-009  0.9118800E+02  0.7816531E-02  0.1126479E+00
         25   -1    0    0    0    0  0.00000000000E+00  0.00000000000E+00  0.99999998245E-14  0.12500000000E+03  0.12500000000E+03 0.  0.
    3000001    1    3    3    0    0 -0.14743022297E+02  0.21460771314E+02 -0.18612071940E+02  0.32020784402E+02  0.10000000000E+01 0. -1.
    1000022    2    1    0    0    0 -0.36203526742E+02  0.35940257315E+02 -0.34696577971E+02  0.62500000356E+02  0.10000003859E+02 0.  0.
    3000022    2    3    3    0    0 -0.21460504445E+02  0.14479486001E+02 -0.16084506032E+02  0.30479215954E+02  0.25001000696E+00 0.  0.
    1000022    2    1    0    0    0  0.36203526742E+02 -0.35940257315E+02  0.34696577971E+02  0.62499999644E+02  0.99999994078E+01 0.  0.
    3000022    2    5    5    0    0  0.33062994750E+02 -0.34271741354E+02  0.29145992854E+02  0.55832475227E+02  0.25002649547E+00 0.  0.
        -13    1    4    4    0    0 -0.13980272658E+02  0.94963643957E+01 -0.10521865832E+02  0.19908531988E+02  0.10500000000E+00 0. -1.
         13    1    4    4    0    0 -0.74802317871E+01  0.49831216050E+01 -0.55626402000E+01  0.10570683966E+02  0.10500000000E+00 0.  1.
    3000001    1    5    5    0    0  0.31405319924E+01 -0.16685159603E+01  0.55505851174E+01  0.66675244169E+01  0.10000000000E+01 0.  1.
        -13    1    6    6    0    0  0.14059470075E+02 -0.14582809960E+02  0.12321906221E+02  0.23710070499E+02  0.10500000000E+00 0. -1.
         13    1    6    6    0    0  0.19003524675E+02 -0.19688931394E+02  0.16824086633E+02  0.32122404728E+02  0.10500000000E+00 0.  1.
</event>
<event>
11    0  0.3443539E-009  0.9118800E+02  0.7816531E-02  0.1126479E+00
         25   -1    0    0    0    0  0.00000000000E+00  0.00000000000E+00  0.99999998245E-14  0.12500000000E+03  0.12500000000E+03 0.  0.
    3000001    1    3    3    0    0  0.49384130333E+01 -0.53695368741E+02 -0.15360692814E+02  0.56076121756E+02  0.10000000000E+01 0. -1.
    1000022    2    1    0    0    0  0.85933778022E+01 -0.58903048716E+02 -0.16212174615E+02  0.62500000606E+02  0.10000008995E+02 0.  0.
    3000022    2    3    3    0    0  0.36549647689E+01 -0.52076799750E+01 -0.85148180168E+00  0.64238788497E+01  0.25000006385E+00 0.  0.
    1000022    2    1    0    0    0 -0.85933778022E+01  0.58903048716E+02  0.16212174615E+02  0.62499999394E+02  0.10000001419E+02 0.  0.
    3000022    2    5    5    0    0 -0.54417728284E+01  0.48974761425E+02  0.16685040352E+02  0.52024928776E+02  0.24998889476E+00 0.  0.
        -13    1    4    4    0    0  0.23016865494E+01 -0.32138633422E+01 -0.48090058579E+00  0.39835874444E+01  0.10500000000E+00 0.  1.
         13    1    4    4    0    0  0.13532782196E+01 -0.19938166329E+01 -0.37058121589E+00  0.24402914053E+01  0.10500000000E+00 0. -1.
    3000001    1    5    5    0    0 -0.31516049738E+01  0.99282872913E+01 -0.47286573673E+00  0.10475070618E+02  0.10000000000E+01 0.  1.
        -13    1    6    6    0    0 -0.39688863200E+01  0.36009371964E+02  0.12277886190E+02  0.38251593982E+02  0.10500000000E+00 0. -1.
         13    1    6    6    0    0 -0.14728865084E+01  0.12965389461E+02  0.44071541620E+01  0.13773334794E+02  0.10500000000E+00 0.  1.
</event>
<event>
11    0  0.3443539E-009  0.9118800E+02  0.7816531E-02  0.1126479E+00
         25   -1    0    0    0    0  0.00000000000E+00  0.00000000000E+00  0.99999998245E-14  0.12500000000E+03  0.12500000000E+03 0.  0.
    3000001    1    3    3    0    0 -0.41687571423E+02  0.13382694354E+02 -0.37647710448E+02  0.57752058156E+02  0.10000000000E+01 0.  1.
    1000022    2    1    0    0    0 -0.43069506973E+02  0.13131367243E+02 -0.42176234843E+02  0.62499999260E+02  0.99999942731E+01 0.  0.
    3000022    2    3    3    0    0 -0.13819355499E+01 -0.25132711075E+00 -0.45285243952E+01  0.47479411042E+01  0.25000070165E+00 0.  0.
    1000022    2    1    0    0    0  0.43069506973E+02 -0.13131367243E+02  0.42176234843E+02  0.62500000740E+02  0.10000003517E+02 0.  0.
    3000022    2    5    5    0    0  0.36365636879E+02 -0.82359025958E+01  0.37662888750E+02  0.52998540783E+02  0.24999789782E+00 0.  0.
        -13    1    4    4    0    0 -0.58676666935E+00 -0.74236419806E-01 -0.17269896218E+01  0.18284759567E+01  0.10500000000E+00 0. -1.
         13    1    4    4    0    0 -0.79516888055E+00 -0.17709069094E+00 -0.28015347734E+01  0.29194651475E+01  0.10500000000E+00 0.  1.
    3000001    1    5    5    0    0  0.67038700942E+01 -0.48954646476E+01  0.45133460931E+01  0.95014599568E+01  0.10000000000E+01 0. -1.
        -13    1    6    6    0    0  0.14430713434E+02 -0.32971543233E+01  0.14872496435E+02  0.20983776877E+02  0.10500000000E+00 0. -1.
         13    1    6    6    0    0  0.21934923445E+02 -0.49387482725E+01  0.22790392315E+02  0.32014763905E+02  0.10500000000E+00 0.  1.
</event>
<event>
11    0  0.3443539E-009  0.9118800E+02  0.7816531E-02  0.1126479E+00
         25   -1    0    0    0    0  0.00000000000E+00  0.00000000000E+00  0.99999998245E-14  0.12500000000E+03  0.12500000000E+03 0.  0.
    3000001    1    3    3    0    0 -0.31413546170E+02  0.25799627568E+02  0.13764006645E+02  0.42928772922E+02  0.10000000000E+01 0. -1.
    1000022    2    1    0    0    0 -0.40607821719E+02  0.41867808814E+02  0.20108240758E+02  0.62500000711E+02  0.10000007141E+02 0.  0.
    3000022    2    3    3    0    0 -0.91942755494E+01  0.16068181246E+02  0.63442341123E+01  0.19571227789E+02  0.24999856455E+00 0.  0.
    1000022    2    1    0    0    0  0.40607821719E+02 -0.41867808814E+02 -0.20108240758E+02  0.62499999289E+02  0.99999982572E+01 0.  0.
    3000022    2    5    5    0    0  0.12844480316E+02 -0.14103418219E+02 -0.17891475723E+01  0.19161175054E+02  0.25000072489E+00 0.  0.
        -13    1    4    4    0    0 -0.30266305659E+01  0.51918892069E+01  0.20403927638E+01  0.63474745962E+01  0.10500000000E+00 0.  1.
         13    1    4    4    0    0 -0.61676449835E+01  0.10876292039E+02  0.43038413485E+01  0.13223753193E+02  0.10500000000E+00 0. -1.
    3000001    1    5    5    0    0  0.27763341403E+02 -0.27764390595E+02 -0.18319093185E+02  0.43338824235E+02  0.10000000000E+01 0. -1.
        -13    1    6    6    0    0  0.91124023930E+01 -0.10023584866E+02 -0.12291538593E+01  0.13602572372E+02  0.10500000000E+00 0. -1.
         13    1    6    6    0    0  0.37320779232E+01 -0.40798333531E+01 -0.55999371303E+00  0.55586026816E+01  0.10500000000E+00 0.  1.
</event>
<event>
11    0  0.3443539E-009  0.9118800E+02  0.7816531E-02  0.1126479E+00
         25   -1    0    0    0    0  0.00000000000E+00  0.00000000000E+00  0.99999998245E-14  0.12500000000E+03  0.12500000000E+03 0.  0.
    3000001    1    3    3    0    0  0.13708244799E+02  0.11908069737E+02 -0.18782495900E+02  0.26143837755E+02  0.10000000000E+01 0.  1.
    1000022    2    1    0    0    0  0.33724542935E+02  0.36517702374E+02 -0.36542616216E+02  0.62500000659E+02  0.99999949792E+01 0.  0.
    3000022    2    3    3    0    0  0.20016298136E+02  0.24609632637E+02 -0.17760120316E+02  0.36356162904E+02  0.24999567999E+00 0.  0.
    1000022    2    1    0    0    0 -0.33724542935E+02 -0.36517702374E+02  0.36542616216E+02  0.62499999341E+02  0.99999867448E+01 0.  0.
    3000022    2    5    5    0    0 -0.33101230911E+02 -0.35668831227E+02  0.33352850227E+02  0.58995187340E+02  0.25000415520E+00 0.  0.
        -13    1    4    4    0    0  0.11333160304E+02  0.13936606287E+02 -0.10132171094E+02  0.20623807440E+02  0.10500000000E+00 0.  1.
         13    1    4    4    0    0  0.86831378324E+01  0.10673026351E+02 -0.76279492217E+01  0.15732355463E+02  0.10500000000E+00 0. -1.
    3000001    1    5    5    0    0 -0.62331202397E+00 -0.84887114783E+00  0.31897659885E+01  0.35048120016E+01  0.10000000000E+01 0. -1.
        -13    1    6    6    0    0 -0.21953305281E+02 -0.23706422079E+02  0.22196026118E+02  0.39199702307E+02  0.10500000000E+00 0.  1.
         13    1    6    6    0    0 -0.11147925630E+02 -0.11962409148E+02  0.11156824109E+02  0.19795485032E+02  0.10500000000E+00 0. -1.
</event>
<event>
11    0  0.3443539E-009  0.9118800E+02  0.7816531E-02  0.1126479E+00
         25   -1    0    0    0    0  0.00000000000E+00  0.00000000000E+00  0.99999998245E-14  0.12500000000E+03  0.12500000000E+03 0.  0.
    3000001    1    3    3    0    0  0.45412946042E+02 -0.33783461328E+02  0.14658860707E+02  0.58476834087E+02  0.10000000000E+01 0. -1.
    1000022    2    1    0    0    0  0.49417930653E+02 -0.33774042652E+02  0.14947639976E+02  0.62500002144E+02  0.10000025005E+02 0.  0.
    3000022    2    3    3    0    0  0.40049846104E+01  0.94186766168E-02  0.28877926901E+00  0.40231680574E+01  0.24999462068E+00 0.  0.
    1000022    2    1    0    0    0 -0.49417930653E+02  0.33774042652E+02 -0.14947639976E+02  0.62499997856E+02  0.99999982062E+01 0.  0.
    3000022    2    5    5    0    0 -0.40570183860E+02  0.23214096170E+02 -0.13241027348E+02  0.48582109379E+02  0.24993408227E+00 0.  0.
        -13    1    4    4    0    0  0.13336803445E+01 -0.46805748726E-01  0.77100573871E-01  0.13408443377E+01  0.10500000000E+00 0. -1.
         13    1    4    4    0    0  0.26713042659E+01  0.56224425343E-01  0.21167869514E+00  0.26823237197E+01  0.10500000000E+00 0. -1.
    3000001    1    5    5    0    0 -0.88477467923E+01  0.10559946481E+02 -0.17066126283E+01  0.13917888477E+02  0.10000000000E+01 0.  1.
        -13    1    6    6    0    0 -0.17407594456E+02  0.99410795329E+01 -0.57443133960E+01  0.20853238799E+02  0.10500000000E+00 0. -1.
         13    1    6    6    0    0 -0.23162589404E+02  0.13273016638E+02 -0.74967139515E+01  0.27728870580E+02  0.10500000000E+00 0.  1.
</event>
<event>
11    0  0.3443539E-009  0.9118800E+02  0.7816531E-02  0.1126479E+00
         25   -1    0    0    0    0  0.00000000000E+00  0.00000000000E+00  0.99999998245E-14  0.12500000000E+03  0.12500000000E+03 0.  0.
    3000001    1    3    3    0    0 -0.51889124984E+01 -0.27764420424E+02 -0.40151566715E+02  0.49101284749E+02  0.10000000000E+01 0.  1.
    1000022    2    1    0    0    0 -0.15159284593E+01 -0.34364889813E+02 -0.51215290168E+02  0.62499996978E+02  0.99999992173E+01 0.  0.
    3000022    2    3    3    0    0  0.36729840391E+01 -0.66004693889E+01 -0.11063723453E+02  0.13398712229E+02  0.25000967149E+00 0.  0.
    1000022    2    1    0    0    0  0.15159284593E+01  0.34364889813E+02  0.51215290168E+02  0.62500003022E+02  0.10000036988E+02 0.  0.
    3000022    2    5    5    0    0 -0.32926704177E+01  0.10772773804E+02  0.11907432767E+02  0.16393406808E+02  0.24999553400E+00 0.  0.
        -13    1    4    4    0    0  0.25943613260E+01 -0.46750099972E+01 -0.79052209819E+01  0.95441067124E+01  0.10500000000E+00 0.  1.
         13    1    4    4    0    0  0.10786227131E+01 -0.19254593917E+01 -0.31585024713E+01  0.38546055165E+01  0.10500000000E+00 0. -1.
    3000001    1    5    5    0    0  0.48085988770E+01  0.23592116009E+02  0.39307857401E+02  0.46106596214E+02  0.10000000000E+01 0. -1.
        -13    1    6    6    0    0 -0.19343565523E+01  0.64453747645E+01  0.70350606069E+01  0.97358971785E+01  0.10500000000E+00 0.  1.
         13    1    6    6    0    0 -0.13583138654E+01  0.43273990393E+01  0.48723721600E+01  0.66575096295E+01  0.10500000000E+00 0. -1.
</event>
<event>
11    0  0.3443539E-009  0.9118800E+02  0.7816531E-02  0.1126479E+00
         25   -1    0    0    0    0  0.00000000000E+00  0.00000000000E+00  0.99999998245E-14  0.12500000000E+03  0.12500000000E+03 0.  0.
    3000001    1    3    3    0    0 -0.16175661986E+01 -0.57223639894E+00  0.14956657909E+01  0.24861599026E+01  0.10000000000E+01 0. -1.
    1000022    2    1    0    0    0 -0.45800033111E+02  0.27282914660E+02  0.31052369543E+02  0.62500000396E+02  0.99999964989E+01 0.  0.
    3000022    2    3    3    0    0 -0.44182466912E+02  0.27855151059E+02  0.29556703752E+02  0.60013840493E+02  0.24998225272E+00 0.  0.
    1000022    2    1    0    0    0  0.45800033111E+02 -0.27282914660E+02 -0.31052369543E+02  0.62499999604E+02  0.99999915522E+01 0.  0.
    3000022    2    5    5    0    0  0.11481071356E+02 -0.94493567174E+01 -0.13224654956E+02  0.19901239855E+02  0.25001439530E+00 0.  0.
        -13    1    4    4    0    0 -0.31021392964E+02  0.19554404421E+02  0.20803107121E+02  0.42160192653E+02  0.10500000000E+00 0. -1.
         13    1    4    4    0    0 -0.13161073948E+02  0.83007466377E+01  0.87535966306E+01  0.17853647840E+02  0.10500000000E+00 0.  1.
    3000001    1    5    5    0    0  0.34318961755E+02 -0.17833557942E+02 -0.17827714587E+02  0.42598759749E+02  0.10000000000E+01 0.  1.
        -13    1    6    6    0    0  0.34485478375E+01 -0.28985093197E+01 -0.40118603966E+01  0.60332319122E+01  0.10500000000E+00 0. -1.
         13    1    6    6    0    0  0.80325235184E+01 -0.65508473977E+01 -0.92127945597E+01  0.13868007943E+02  0.10500000000E+00 0.  1.
</event>
<event>
11    0  0.3443539E-009  0.9118800E+02  0.7816531E-02  0.1126479E+00
         25   -1    0    0    0    0  0.00000000000E+00  0.00000000000E+00  0.99999998245E-14  0.12500000000E+03  0.12500000000E+03 0.  0.
    3000001    1    3    3    0    0 -0.71293580761E+01  0.84754283797E+01  0.53556645399E+01  0.12342762068E+02  0.10000000000E+01 0.  1.
    1000022    2    1    0    0    0 -0.26866014641E+02  0.53831108527E+02  0.13663039498E+02  0.62499997787E+02  0.10000004353E+02 0.  0.
    3000022    2    3    3    0    0 -0.19736656565E+02  0.45355680148E+02  0.83073749581E+01  0.50157235719E+02  0.24996453362E+00 0.  0.
    1000022    2    1    0    0    0  0.26866014641E+02 -0.53831108527E+02 -0.13663039498E+02  0.62500002213E+02  0.10000032020E+02 0.  0.
    3000022    2    5    5    0    0  0.12923492253E+02 -0.18745897143E+02 -0.88397663308E+01  0.24425995956E+02  0.24999592814E+00 0.  0.
        -13    1    4    4    0    0 -0.14234267034E+02  0.32804564009E+02  0.59958514127E+01  0.36258999394E+02  0.10500000000E+00 0. -1.
         13    1    4    4    0    0 -0.55023895302E+01  0.12551116138E+02  0.23115235454E+01  0.13898236325E+02  0.10500000000E+00 0.  1.
    3000001    1    5    5    0    0  0.13942522388E+02 -0.35085211385E+02 -0.48232731671E+01  0.38074006257E+02  0.10000000000E+01 0.  1.
        -13    1    6    6    0    0  0.89192115526E+01 -0.13014599958E+02 -0.61456271670E+01  0.16932569358E+02  0.10500000000E+00 0.  1.
         13    1    6    6    0    0  0.40042807006E+01 -0.57312971851E+01 -0.26941391638E+01  0.74934265985E+01  0.10500000000E+00 0. -1.
</event>
<event>
11    0  0.3443539E-009  0.9118800E+02  0.7816531E-02  0.1126479E+00
         25   -1    0    0    0    0  0.00000000000E+00  0.00000000000E+00  0.99999998245E-14  0.12500000000E+03  0.12500000000E+03 0.  0.
    3000001    1    3    3    0    0 -0.14187259310E+02  0.80617811762E+01 -0.25616671798E+01  0.16547893558E+02  0.10000000000E+01 0. -1.
    1000022    2    1    0    0    0 -0.56951485039E+02  0.16340564084E+02 -0.17197798991E+02  0.62500000139E+02  0.10000002224E+02 0.  0.
    3000022    2    3    3    0    0 -0.42764225729E+02  0.82787829073E+01 -0.14636131811E+02  0.45952106581E+02  0.24999238532E+00 0.  0.
    1000022    2    1    0    0    0  0.56951485039E+02 -0.16340564084E+02  0.17197798991E+02  0.62499999861E+02  0.10000000490E+02 0.  0.
    3000022    2    5    5    0    0  0.40853118375E+02 -0.89828095057E+01  0.15808433277E+02  0.44717303250E+02  0.24999944224E+00 0.  0.
        -13    1    4    4    0    0 -0.31991022095E+02  0.62025717628E+01 -0.10922223683E+02  0.34368639577E+02  0.10500000000E+00 0. -1.
         13    1    4    4    0    0 -0.10773203634E+02  0.20762111445E+01 -0.37139081280E+01  0.11583467004E+02  0.10500000000E+00 0.  1.
    3000001    1    5    5    0    0  0.16098366664E+02 -0.73577545779E+01  0.13893657146E+01  0.17782696611E+02  0.10000000000E+01 0. -1.
        -13    1    6    6    0    0  0.24244251814E+02 -0.53607047621E+01  0.94443627764E+01  0.26565539988E+02  0.10500000000E+00 0.  1.
         13    1    6    6    0    0  0.16608866561E+02 -0.36221047435E+01  0.63640705002E+01  0.18151763262E+02  0.10500000000E+00 0. -1.
</event>
<event>
11    0  0.3443539E-009  0.9118800E+02  0.7816531E-02  0.1126479E+00
         25   -1    0    0    0    0  0.00000000000E+00  0.00000000000E+00  0.99999998245E-14  0.12500000000E+03  0.12500000000E+03 0.  0.
    3000001    1    3    3    0    0 -0.59619999645E-01 -0.51607527023E+01  0.29365596369E-01  0.52571651426E+01  0.10000000000E+01 0.  1.
    1000022    2    1    0    0    0  0.26095930107E+02 -0.54266204044E+02 -0.13432484123E+02  0.62499999171E+02  0.99999898597E+01 0.  0.
    3000022    2    3    3    0    0  0.26155550107E+02 -0.49105451341E+02 -0.13461849719E+02  0.57242834028E+02  0.24999380890E+00 0.  0.
    1000022    2    1    0    0    0 -0.26095930107E+02  0.54266204044E+02  0.13432484123E+02  0.62500000829E+02  0.10000000224E+02 0.  0.
    3000022    2    5    5    0    0 -0.89282205168E+01  0.10014729060E+02  0.11916939302E+01  0.13471843253E+02  0.25001292120E+00 0.  0.
        -13    1    4    4    0    0  0.10029376957E+02 -0.18959260043E+02 -0.51977523455E+01  0.22069653327E+02  0.10500000000E+00 0.  1.
         13    1    4    4    0    0  0.16126173149E+02 -0.30146191299E+02 -0.82640973737E+01  0.35173180701E+02  0.10500000000E+00 0. -1.
    3000001    1    5    5    0    0 -0.17167709590E+02  0.44251474984E+02  0.12240790193E+02  0.49028157577E+02  0.10000000000E+01 0. -1.
        -13    1    6    6    0    0 -0.43528392471E+01  0.48960492599E+01  0.51445614867E+00  0.65722293018E+01  0.10500000000E+00 0. -1.
         13    1    6    6    0    0 -0.45753812697E+01  0.51186798000E+01  0.67723778155E+00  0.68996139508E+01  0.10500000000E+00 0.  1.
</event>
<event>
11    0  0.3443539E-009  0.9118800E+02  0.7816531E-02  0.1126479E+00
         25   -1    0    0    0    0  0.00000000000E+00  0.00000000000E+00  0.99999998245E-14  0.12500000000E+03  0.12500000000E+03 0.  0.
    3000001    1    3    3    0    0  0.10522414332E+02  0.12444813503E+02 -0.36223693534E+02  0.39733494180E+02  0.10000000000E+01 0.  1.
    1000022    2    1    0    0    0  0.22450307992E+02  0.22058422481E+02 -0.53062789961E+02  0.62499999808E+02  0.99999983168E+01 0.  0.
    3000022    2    3    3    0    0  0.11927893660E+02  0.96136089774E+01 -0.16839096427E+02  0.22766505628E+02  0.24997063122E+00 0.  0.
    1000022    2    1    0    0    0 -0.22450307992E+02 -0.22058422481E+02  0.53062789961E+02  0.62500000192E+02  0.10000000713E+02 0.  0.
    3000022    2    5    5    0    0 -0.15294731020E+02 -0.13913127934E+02  0.42820479864E+02  0.47551655094E+02  0.24996095009E+00 0.  0.
        -13    1    4    4    0    0  0.52887088560E+01  0.41776893908E+01 -0.74057054565E+01  0.10013941697E+02  0.10500000000E+00 0.  1.
         13    1    4    4    0    0  0.66391848038E+01  0.54359195866E+01 -0.94333909701E+01  0.12752563931E+02  0.10500000000E+00 0. -1.
    3000001    1    5    5    0    0 -0.71555769716E+01 -0.81452945464E+01  0.10242310097E+02  0.14948345098E+02  0.10000000000E+01 0.  1.
        -13    1    6    6    0    0 -0.10769644706E+02 -0.97411266419E+01  0.30030291776E+02  0.33357221775E+02  0.10500000000E+00 0.  1.
         13    1    6    6    0    0 -0.45250863141E+01 -0.41720012925E+01  0.12790188088E+02  0.14194433319E+02  0.10500000000E+00 0. -1.
</event>
<event>
11    0  0.3443539E-009  0.9118800E+02  0.7816531E-02  0.1126479E+00
         25   -1    0    0    0    0  0.00000000000E+00  0.00000000000E+00  0.99999998245E-14  0.12500000000E+03  0.12500000000E+03 0.  0.
    3000001    1    3    3    0    0  0.14374598803E+02 -0.31370167312E+02  0.15901918796E+02  0.38007729600E+02  0.10000000000E+01 0. -1.
    1000022    2    1    0    0    0  0.18825713785E+02 -0.49249125839E+02  0.32036949182E+02  0.62499999637E+02  0.99999973140E+01 0.  0.
    3000022    2    3    3    0    0  0.44511149820E+01 -0.17878958527E+02  0.16135030387E+02  0.24492270037E+02  0.25000681259E+00 0.  0.
    1000022    2    1    0    0    0 -0.18825713785E+02  0.49249125839E+02 -0.32036949182E+02  0.62500000363E+02  0.10000001852E+02 0.  0.
    3000022    2    5    5    0    0 -0.62312602691E+01  0.22328885047E+02 -0.19234734005E+02  0.30123831086E+02  0.24999003655E+00 0.  0.
        -13    1    4    4    0    0  0.23935000501E+01 -0.95184281943E+01  0.85108640481E+01  0.12991349030E+02  0.10500000000E+00 0. -1.
         13    1    4    4    0    0  0.20576149320E+01 -0.83605303327E+01  0.76241663387E+01  0.11500921007E+02  0.10500000000E+00 0.  1.
    3000001    1    5    5    0    0 -0.12594453516E+02  0.26920240791E+02 -0.12802215177E+02  0.32376169278E+02  0.10000000000E+01 0.  1.
        -13    1    6    6    0    0 -0.20046571322E+01  0.73285785501E+01 -0.62589711782E+01  0.98444125773E+01  0.10500000000E+00 0. -1.
         13    1    6    6    0    0 -0.42266031369E+01  0.15000306497E+02 -0.12975762827E+02  0.20279418508E+02  0.10500000000E+00 0.  1.
</event>
<event>
11    0  0.3443539E-009  0.9118800E+02  0.7816531E-02  0.1126479E+00
         25   -1    0    0    0    0  0.00000000000E+00  0.00000000000E+00  0.99999998245E-14  0.12500000000E+03  0.12500000000E+03 0.  0.
    3000001    1    3    3    0    0  0.27828076138E+02  0.26264017361E+02 -0.54652592116E+00  0.38281837992E+02  0.10000000000E+01 0. -1.
    1000022    2    1    0    0    0  0.47690150151E+02  0.38500231216E+02 -0.70449830193E+01  0.62499999870E+02  0.99999986457E+01 0.  0.
    3000022    2    3    3    0    0  0.19862074013E+02  0.12236213855E+02 -0.64984570982E+01  0.24218161878E+02  0.25001297391E+00 0.  0.
    1000022    2    1    0    0    0 -0.47690150151E+02 -0.38500231216E+02  0.70449830193E+01  0.62500000130E+02  0.10000000271E+02 0.  0.
    3000022    2    5    5    0    0 -0.29482766291E+02 -0.18093561015E+02  0.18342319445E+01  0.34641555406E+02  0.24999144567E+00 0.  0.
        -13    1    4    4    0    0  0.52359686131E+01  0.32404816175E+01 -0.16832760641E+01  0.63843975235E+01  0.10500000000E+00 0.  1.
         13    1    4    4    0    0  0.14626105400E+02  0.89957322375E+01 -0.48151810341E+01  0.17833764354E+02  0.10500000000E+00 0. -1.
    3000001    1    5    5    0    0 -0.18207383860E+02 -0.20406670200E+02  0.52107510748E+01  0.27858444724E+02  0.10000000000E+01 0. -1.
        -13    1    6    6    0    0 -0.93930608702E+01 -0.57951810464E+01  0.54194146249E+00  0.11050721308E+02  0.10500000000E+00 0.  1.
         13    1    6    6    0    0 -0.20089705421E+02 -0.12298379969E+02  0.12922904820E+01  0.23590834098E+02  0.10500000000E+00 0. -1.
</event>
<event>
11    0  0.3443539E-009  0.9118800E+02  0.7816531E-02  0.1126479E+00
         25   -1    0    0    0    0  0.00000000000E+00  0.00000000000E+00  0.99999998245E-14  0.12500000000E+03  0.12500000000E+03 0.  0.
    3000001    1    3    3    0    0 -0.56689583818E+01  0.20129484782E+02 -0.32293960684E+02  0.38486791804E+02  0.10000000000E+01 0.  1.
    1000022    2    1    0    0    0 -0.68600458316E+01  0.38482936569E+02 -0.47731053490E+02  0.62500000990E+02  0.10000001038E+02 0.  0.
    3000022    2    3    3    0    0 -0.11910874498E+01  0.18353451786E+02 -0.15437092806E+02  0.24013209186E+02  0.24999864228E+00 0.  0.
    1000022    2    1    0    0    0  0.68600458316E+01 -0.38482936569E+02  0.47731053490E+02  0.62499999010E+02  0.99999886622E+01 0.  0.
    3000022    2    5    5    0    0  0.83078042986E+01 -0.22035616470E+02  0.24522556288E+02  0.34000092249E+02  0.25000116195E+00 0.  0.
        -13    1    4    4    0    0 -0.41843038893E+00  0.59487229965E+01 -0.49530967472E+01  0.77528434569E+01  0.10500000000E+00 0.  1.
         13    1    4    4    0    0 -0.77265706087E+00  0.12404728790E+02 -0.10483996059E+02  0.16260365729E+02  0.10500000000E+00 0. -1.
    3000001    1    5    5    0    0 -0.14477584670E+01 -0.16447320099E+02  0.23208497202E+02  0.28499906761E+02  0.10000000000E+01 0.  1.
        -13    1    6    6    0    0  0.50619398479E+01 -0.13398836061E+02  0.15003228274E+02  0.20742707790E+02  0.10500000000E+00 0. -1.
         13    1    6    6    0    0  0.32458644507E+01 -0.86367804084E+01  0.95193280135E+01  0.13257384459E+02  0.10500000000E+00 0.  1.
</event>
<event>
11    0  0.3443539E-009  0.9118800E+02  0.7816531E-02  0.1126479E+00
         25   -1    0    0    0    0  0.00000000000E+00  0.00000000000E+00  0.99999998245E-14  0.12500000000E+03  0.12500000000E+03 0.  0.
    3000001    1    3    3    0    0 -0.34154349627E+02 -0.37929707475E+01  0.28265648352E+01  0.34494864753E+02  0.10000000000E+01 0. -1.
    1000022    2    1    0    0    0 -0.60909291685E+02  0.66751280925E+00  0.97909151348E+01  0.62499998349E+02  0.10000019372E+02 0.  0.
    3000022    2    3    3    0    0 -0.26754942059E+02  0.44604835567E+01  0.69643502996E+01  0.28005133596E+02  0.24998905850E+00 0.  0.
    1000022    2    1    0    0    0  0.60909291685E+02 -0.66751280925E+00 -0.97909151348E+01  0.62500001651E+02  0.10000040012E+02 0.  0.
    3000022    2    5    5    0    0  0.25167060972E+02  0.41813740061E+01 -0.60680697128E+01  0.26224964259E+02  0.24986762722E+00 0.  0.
        -13    1    4    4    0    0 -0.13088453878E+02  0.21782439263E+01  0.33369399714E+01  0.13682052656E+02  0.10500000000E+00 0.  1.
         13    1    4    4    0    0 -0.13666488181E+02  0.22822396304E+01  0.36274103282E+01  0.14323080940E+02  0.10500000000E+00 0. -1.
    3000001    1    5    5    0    0  0.35742230714E+02 -0.48488868154E+01 -0.37228454221E+01  0.36275037392E+02  0.10000000000E+01 0. -1.
        -13    1    6    6    0    0  0.15027976286E+02  0.24729003350E+01 -0.35621456259E+01  0.15641458173E+02  0.10500000000E+00 0. -1.
         13    1    6    6    0    0  0.10139084685E+02  0.17084736711E+01 -0.25059240869E+01  0.10583506086E+02  0.10500000000E+00 0.  1.
</event>
<event>
11    0  0.3443539E-009  0.9118800E+02  0.7816531E-02  0.1126479E+00
         25   -1    0    0    0    0  0.00000000000E+00  0.00000000000E+00  0.99999998245E-14  0.12500000000E+03  0.12500000000E+03 0.  0.
    3000001    1    3    3    0    0 -0.10645212753E+02 -0.19293186799E+02  0.19922054231E+01  0.22147606955E+02  0.10000000000E+01 0. -1.
    1000022    2    1    0    0    0 -0.37262684581E+02 -0.47119903089E+02  0.14051949701E+02  0.62500003062E+02  0.10000008149E+02 0.  0.
    3000022    2    3    3    0    0 -0.26617471828E+02 -0.27826716291E+02  0.12059744278E+02  0.40352396107E+02  0.24998686564E+00 0.  0.
    1000022    2    1    0    0    0  0.37262684581E+02  0.47119903089E+02 -0.14051949701E+02  0.62499996938E+02  0.99999698750E+01 0.  0.
    3000022    2    5    5    0    0  0.14463823741E+02  0.15607201269E+02 -0.95751004011E+01  0.23335209037E+02  0.25000895208E+00 0.  0.
        -13    1    4    4    0    0 -0.86906733125E+01 -0.91612078611E+01  0.39516153485E+01  0.13231848736E+02  0.10500000000E+00 0.  1.
         13    1    4    4    0    0 -0.17926798516E+02 -0.18665508429E+02  0.81081289298E+01  0.27120547371E+02  0.10500000000E+00 0. -1.
    3000001    1    5    5    0    0  0.22798860841E+02  0.31512701820E+02 -0.44768493003E+01  0.39164787901E+02  0.10000000000E+01 0.  1.
        -13    1    6    6    0    0  0.98543260100E+01  0.10634847109E+02 -0.65791753790E+01  0.15921817981E+02  0.10500000000E+00 0.  1.
         13    1    6    6    0    0  0.46094977307E+01  0.49723541596E+01 -0.29959250221E+01  0.74133910564E+01  0.10500000000E+00 0. -1.
</event>
<event>
11    0  0.3443539E-009  0.9118800E+02  0.7816531E-02  0.1126479E+00
         25   -1    0    0    0    0  0.00000000000E+00  0.00000000000E+00  0.99999998245E-14  0.12500000000E+03  0.12500000000E+03 0.  0.
    3000001    1    3    3    0    0  0.28197432052E+01  0.42192971206E+02 -0.10514478501E+02  0.43586144921E+02  0.10000000000E+01 0. -1.
    1000022    2    1    0    0    0  0.25646074753E+01  0.61019503390E+02 -0.87345870126E+01  0.62500000126E+02  0.99999999995E+01 0.  0.
    3000022    2    3    3    0    0 -0.25513572999E+00  0.18826532184E+02  0.17798914887E+01  0.18913855204E+02  0.24999335567E+00 0.  0.
    1000022    2    1    0    0    0 -0.25646074753E+01 -0.61019503390E+02  0.87345870126E+01  0.62499999874E+02  0.99999984302E+01 0.  0.
    3000022    2    5    5    0    0  0.26812271243E+01 -0.56398965346E+01  0.94614123573E+00  0.63210044786E+01  0.25000513520E+00 0.  0.
        -13    1    4    4    0    0 -0.18555915884E+00  0.89032757872E+01  0.82324921011E+00  0.89437976390E+01  0.10500000000E+00 0. -1.
         13    1    4    4    0    0 -0.69576571151E-01  0.99232563964E+01  0.95664227860E+00  0.99700575654E+01  0.10500000000E+00 0.  1.
    3000001    1    5    5    0    0 -0.52458345996E+01 -0.55379606855E+02  0.77884457769E+01  0.56178995396E+02  0.10000000000E+01 0.  1.
        -13    1    6    6    0    0  0.12557455378E+01 -0.27366419036E+01  0.40162296349E+00  0.30394788647E+01  0.10500000000E+00 0.  1.
         13    1    6    6    0    0  0.14254815865E+01 -0.29032546310E+01  0.54451827224E+00  0.32815256139E+01  0.10500000000E+00 0. -1.
</event>
<event>
11    0  0.3443539E-009  0.9118800E+02  0.7816531E-02  0.1126479E+00
         25   -1    0    0    0    0  0.00000000000E+00  0.00000000000E+00  0.99999998245E-14  0.12500000000E+03  0.12500000000E+03 0.  0.
    3000001    1    3    3    0    0 -0.52299044817E+02  0.14646016553E+02 -0.15560995554E+02  0.56505225177E+02  0.10000000000E+01 0.  1.
    1000022    2    1    0    0    0 -0.56205161933E+02  0.18967371742E+02 -0.16954898323E+02  0.62499999999E+02  0.10000000198E+02 0.  0.
    3000022    2    3    3    0    0 -0.39061171159E+01  0.43213551883E+01 -0.13939027688E+01  0.59947748215E+01  0.24999728953E+00 0.  0.
    1000022    2    1    0    0    0  0.56205161933E+02 -0.18967371742E+02  0.16954898323E+02  0.62500000001E+02  0.10000000217E+02 0.  0.
    3000022    2    5    5    0    0  0.46890527460E+02 -0.15217727541E+02  0.17704693796E+02  0.52381480334E+02  0.25000528533E+00 0.  0.
        -13    1    4    4    0    0 -0.16822607507E+01  0.19227423669E+01 -0.55844068052E+00  0.26172161616E+01  0.10500000000E+00 0. -1.
         13    1    4    4    0    0 -0.22238563652E+01  0.23986128213E+01 -0.83546208831E+00  0.33775586599E+01  0.10500000000E+00 0.  1.
    3000001    1    5    5    0    0  0.93146344732E+01 -0.37496442008E+01 -0.74979547303E+00  0.10118519667E+02  0.10000000000E+01 0. -1.
        -13    1    6    6    0    0  0.24898518945E+02 -0.81289774625E+01  0.93542230760E+01  0.27812389948E+02  0.10500000000E+00 0. -1.
         13    1    6    6    0    0  0.21992008515E+02 -0.70887500783E+01  0.83504707197E+01  0.24569090387E+02  0.10500000000E+00 0.  1.
</event>
<event>
11    0  0.3443539E-009  0.9118800E+02  0.7816531E-02  0.1126479E+00
         25   -1    0    0    0    0  0.00000000000E+00  0.00000000000E+00  0.99999998245E-14  0.12500000000E+03  0.12500000000E+03 0.  0.
    3000001    1    3    3    0    0 -0.11312439921E+01 -0.90976792083E+01  0.24628884324E+01  0.95453286679E+01  0.10000000000E+01 0.  1.
    1000022    2    1    0    0    0 -0.21840140045E+02 -0.49114029587E+02  0.30283169362E+02  0.62499999721E+02  0.99999999566E+01 0.  0.
    3000022    2    3    3    0    0 -0.20708896053E+02 -0.40016350378E+02  0.27820280930E+02  0.52954671054E+02  0.24996408705E+00 0.  0.
    1000022    2    1    0    0    0  0.21840140045E+02  0.49114029587E+02 -0.30283169362E+02  0.62500000279E+02  0.10000003438E+02 0.  0.
    3000022    2    5    5    0    0  0.77206064416E+01  0.26409999177E+02 -0.19132216459E+02  0.33514176560E+02  0.25000695139E+00 0.  0.
        -13    1    4    4    0    0 -0.57005501033E+01 -0.10948105763E+02  0.75965556521E+01  0.14493997863E+02  0.10500000000E+00 0. -1.
         13    1    4    4    0    0 -0.15008345949E+02 -0.29068244615E+02  0.20223725278E+02  0.38460673190E+02  0.10500000000E+00 0.  1.
    3000001    1    5    5    0    0  0.14119533603E+02  0.22704030409E+02 -0.11150952903E+02  0.28985823719E+02  0.10000000000E+01 0. -1.
        -13    1    6    6    0    0  0.49304773917E+01  0.16662051072E+02 -0.12101279711E+02  0.21175116266E+02  0.10500000000E+00 0.  1.
         13    1    6    6    0    0  0.27901290499E+01  0.97479481052E+01 -0.70309367480E+01  0.12339060294E+02  0.10500000000E+00 0. -1.
</event>
<event>
11    0  0.3443539E-009  0.9118800E+02  0.7816531E-02  0.1126479E+00
         25   -1    0    0    0    0  0.00000000000E+00  0.00000000000E+00  0.99999998245E-14  0.12500000000E+03  0.12500000000E+03 0.  0.
    3000001    1    3    3    0    0  0.14826348132E+01 -0.24908126959E+00  0.12294325215E+01  0.21844339755E+01  0.10000000000E+01 0.  1.
    1000022    2    1    0    0    0  0.59401820508E+02 -0.15937188374E+02 -0.48661732273E+01  0.62500001525E+02  0.10000014792E+02 0.  0.
    3000022    2    3    3    0    0  0.57919185694E+02 -0.15688107104E+02 -0.60956057488E+01  0.60315567549E+02  0.25000666143E+00 0.  0.
    1000022    2    1    0    0    0 -0.59401820508E+02  0.15937188374E+02  0.48661732273E+01  0.62499998475E+02  0.99999957328E+01 0.  0.
    3000022    2    5    5    0    0 -0.50157138976E+02  0.16043301445E+02  0.64920015308E+01  0.53059727596E+02  0.24999433017E+00 0.  0.
        -13    1    4    4    0    0  0.24565536726E+02 -0.66177334456E+01 -0.26396706961E+01  0.25578093694E+02  0.10500000000E+00 0. -1.
         13    1    4    4    0    0  0.33353648968E+02 -0.90703736588E+01 -0.34559350527E+01  0.34737473856E+02  0.10500000000E+00 0.  1.
    3000001    1    5    5    0    0 -0.92446815318E+01 -0.10611307103E+00 -0.16258283035E+01  0.94402708796E+01  0.10000000000E+01 0. -1.
        -13    1    6    6    0    0 -0.32815217656E+02  0.10467240770E+02  0.41974278796E+01  0.34699150782E+02  0.10500000000E+00 0. -1.
         13    1    6    6    0    0 -0.17341921320E+02  0.55760606747E+01  0.22945736512E+01  0.18360576814E+02  0.10500000000E+00 0.  1.
</event>
<event>
11    0  0.3443539E-009  0.9118800E+02  0.7816531E-02  0.1126479E+00
         25   -1    0    0    0    0  0.00000000000E+00  0.00000000000E+00  0.99999998245E-14  0.12500000000E+03  0.12500000000E+03 0.  0.
    3000001    1    3    3    0    0 -0.19723974704E+02 -0.16519872458E+02  0.13554061888E+02  0.29097318740E+02  0.10000000000E+01 0. -1.
    1000022    2    1    0    0    0 -0.48678681128E+02 -0.30902479768E+02  0.21947049492E+02  0.62500000635E+02  0.99999922903E+01 0.  0.
    3000022    2    3    3    0    0 -0.28954706424E+02 -0.14382607309E+02  0.83929876039E+01  0.33402681895E+02  0.24999953351E+00 0.  0.
    1000022    2    1    0    0    0  0.48678681128E+02  0.30902479768E+02 -0.21947049492E+02  0.62499999365E+02  0.99999843573E+01 0.  0.
    3000022    2    5    5    0    0  0.48235565972E+02  0.28886644518E+02 -0.21189904688E+02  0.60084795223E+02  0.25000028033E+00 0.  0.
        -13    1    4    4    0    0 -0.10447616379E+02 -0.51390231817E+01  0.30602263041E+01  0.12039030580E+02  0.10500000000E+00 0.  1.
         13    1    4    4    0    0 -0.18507090044E+02 -0.92435841274E+01  0.53327612999E+01  0.21363651315E+02  0.10500000000E+00 0. -1.
    3000001    1    5    5    0    0  0.44311515553E+00  0.20158352498E+01 -0.75714480400E+00  0.24152041425E+01  0.10000000000E+01 0.  1.
        -13    1    6    6    0    0  0.25013843625E+02  0.14925644839E+02 -0.10925612331E+02  0.31110243916E+02  0.10500000000E+00 0.  1.
         13    1    6    6    0    0  0.23221722348E+02  0.13960999679E+02 -0.10264292357E+02  0.28974551307E+02  0.10500000000E+00 0. -1.
</event>
<event>
11    0  0.3443539E-009  0.9118800E+02  0.7816531E-02  0.1126479E+00
         25   -1    0    0    0    0  0.00000000000E+00  0.00000000000E+00  0.99999998245E-14  0.12500000000E+03  0.12500000000E+03 0.  0.
    3000001    1    3    3    0    0  0.17822894873E+02  0.13455314183E+01  0.10055800096E+01  0.17929786045E+02  0.10000000000E+01 0. -1.
    1000022    2    1    0    0    0  0.60789910088E+02 -0.21966455978E+01 -0.10296192966E+02  0.62500000144E+02  0.10000000405E+02 0.  0.
    3000022    2    3    3    0    0  0.42967015214E+02 -0.35421770161E+01 -0.11301772976E+02  0.44570214100E+02  0.24999605549E+00 0.  0.
    1000022    2    1    0    0    0 -0.60789910088E+02  0.21966455978E+01  0.10296192966E+02  0.62499999856E+02  0.99999986006E+01 0.  0.
    3000022    2    5    5    0    0 -0.18799878417E+02  0.46073846849E+01  0.82158175387E+00  0.19375265882E+02  0.25001860259E+00 0.  0.
        -13    1    4    4    0    0  0.26696178246E+02 -0.21731946453E+01 -0.69654660261E+01  0.27675574969E+02  0.10500000000E+00 0.  1.
         13    1    4    4    0    0  0.16270836969E+02 -0.13689823708E+01 -0.43363069500E+01  0.16894639131E+02  0.10500000000E+00 0. -1.
    3000001    1    5    5    0    0 -0.41990031671E+02 -0.24107390871E+01  0.94746112126E+01  0.43124733973E+02  0.10000000000E+01 0. -1.
        -13    1    6    6    0    0 -0.11355559802E+02  0.27260965002E+01  0.46590419676E+00  0.11687960996E+02  0.10500000000E+00 0. -1.
         13    1    6    6    0    0 -0.74443186153E+01  0.18812881847E+01  0.35567755710E+00  0.76873048857E+01  0.10500000000E+00 0.  1.
</event>
<event>
11    0  0.3443539E-009  0.9118800E+02  0.7816531E-02  0.1126479E+00
         25   -1    0    0    0    0  0.00000000000E+00  0.00000000000E+00  0.99999998245E-14  0.12500000000E+03  0.12500000000E+03 0.  0.
    3000001    1    3    3    0    0  0.16758246282E+02  0.89095665932E+01 -0.64378256904E+01  0.20066509287E+02  0.10000000000E+01 0. -1.
    1000022    2    1    0    0    0  0.57645867969E+02  0.19851435865E+02 -0.94405742219E+01  0.62499999625E+02  0.99999955859E+01 0.  0.
    3000022    2    3    3    0    0  0.40887621687E+02  0.10941869272E+02 -0.30027485315E+01  0.42433490339E+02  0.24998641568E+00 0.  0.
    1000022    2    1    0    0    0 -0.57645867969E+02 -0.19851435865E+02  0.94405742219E+01  0.62500000375E+02  0.10000000269E+02 0.  0.
    3000022    2    5    5    0    0 -0.28089608673E+02 -0.54382580338E+01  0.73167769844E+01  0.29533006677E+02  0.24998416281E+00 0.  0.
        -13    1    4    4    0    0  0.24202678893E+02  0.64467368595E+01 -0.18338069873E+01  0.25113819996E+02  0.10500000000E+00 0. -1.
         13    1    4    4    0    0  0.16684942793E+02  0.44951324124E+01 -0.11689415442E+01  0.17319670342E+02  0.10500000000E+00 0.  1.
    3000001    1    5    5    0    0 -0.29556259296E+02 -0.14413177831E+02  0.21237972375E+01  0.32966993698E+02  0.10000000000E+01 0.  1.
        -13    1    6    6    0    0 -0.15500221502E+02 -0.29750247710E+01  0.39726992417E+01  0.16275779652E+02  0.10500000000E+00 0. -1.
         13    1    6    6    0    0 -0.12589387171E+02 -0.24632332628E+01  0.33440777427E+01  0.13257227025E+02  0.10500000000E+00 0.  1.
</event>
<event>
11    0  0.3443539E-009  0.9118800E+02  0.7816531E-02  0.1126479E+00
         25   -1    0    0    0    0  0.00000000000E+00  0.00000000000E+00  0.99999998245E-14  0.12500000000E+03  0.12500000000E+03 0.  0.
    3000001    1    3    3    0    0  0.34387168913E+01 -0.30836096388E+01  0.22516079331E+01  0.52348028184E+01  0.10000000000E+01 0.  1.
    1000022    2    1    0    0    0  0.33795817821E+02 -0.51611406411E+02  0.59639678379E+00  0.62500000439E+02  0.99999895931E+01 0.  0.
    3000022    2    3    3    0    0  0.30357100930E+02 -0.48527796773E+02 -0.16552111493E+01  0.57265197621E+02  0.24999635067E+00 0.  0.
    1000022    2    1    0    0    0 -0.33795817821E+02  0.51611406411E+02 -0.59639678379E+00  0.62499999561E+02  0.99999841000E+01 0.  0.
    3000022    2    5    5    0    0 -0.23167234275E+02  0.27593124286E+02  0.20171186770E+01  0.36086458951E+02  0.25000016596E+00 0.  0.
        -13    1    4    4    0    0  0.10674751608E+02 -0.17144610953E+02 -0.54616604916E+00  0.20203893906E+02  0.10500000000E+00 0. -1.
         13    1    4    4    0    0  0.19682349321E+02 -0.31383185820E+02 -0.11090451002E+01  0.37061303715E+02  0.10500000000E+00 0.  1.
    3000001    1    5    5    0    0 -0.10628583546E+02  0.24018282126E+02 -0.26135154608E+01  0.26413540610E+02  0.10000000000E+01 0. -1.
        -13    1    6    6    0    0 -0.66792158129E+01  0.79481490589E+01  0.53907007120E+00  0.10396471463E+02  0.10500000000E+00 0. -1.
         13    1    6    6    0    0 -0.16488018462E+02  0.19644975227E+02  0.14780486058E+01  0.25689987488E+02  0.10500000000E+00 0.  1.
</event>
<event>
11    0  0.3443539E-009  0.9118800E+02  0.7816531E-02  0.1126479E+00
         25   -1    0    0    0    0  0.00000000000E+00  0.00000000000E+00  0.99999998245E-14  0.12500000000E+03  0.12500000000E+03 0.  0.
    3000001    1    3    3    0    0  0.44852958588E+01  0.92351167502E+01 -0.22888876125E+01  0.10566185065E+02  0.10000000000E+01 0.  1.
    1000022    2    1    0    0    0  0.17978522119E+02  0.49253156628E+02 -0.32513840358E+02  0.62499998158E+02  0.99999629754E+01 0.  0.
    3000022    2    3    3    0    0  0.13493226260E+02  0.40018039878E+02 -0.30224952746E+02  0.51933813093E+02  0.25000660372E+00 0.  0.
    1000022    2    1    0    0    0 -0.17978522119E+02 -0.49253156628E+02  0.32513840358E+02  0.62500001842E+02  0.99999859970E+01 0.  0.
    3000022    2    5    5    0    0 -0.13176807988E+02 -0.23057433430E+02  0.13752311052E+02  0.29907558632E+02  0.24999781426E+00 0.  0.
        -13    1    4    4    0    0  0.69348617482E+01  0.20779036174E+02 -0.15679990179E+02  0.26939446334E+02  0.10500000000E+00 0. -1.
         13    1    4    4    0    0  0.65583645115E+01  0.19239003705E+02 -0.14544962567E+02  0.24994366759E+02  0.10500000000E+00 0.  1.
    3000001    1    5    5    0    0 -0.48017141302E+01 -0.26195723198E+02  0.18761529307E+02  0.32592443210E+02  0.10000000000E+01 0.  1.
        -13    1    6    6    0    0 -0.45534355881E+01 -0.80307646628E+01  0.48332920737E+01  0.10421069714E+02  0.10500000000E+00 0. -1.
         13    1    6    6    0    0 -0.86233724002E+01 -0.15026668768E+02  0.89190189782E+01  0.19486488918E+02  0.10500000000E+00 0.  1.
</event>
<event>
11    0  0.3443539E-009  0.9118800E+02  0.7816531E-02  0.1126479E+00
         25   -1    0    0    0    0  0.00000000000E+00  0.00000000000E+00  0.99999998245E-14  0.12500000000E+03  0.12500000000E+03 0.  0.
    3000001    1    3    3    0    0 -0.22528567194E+02 -0.24518985861E+02 -0.10182814285E+02  0.34833987918E+02  0.10000000000E+01 0. -1.
    1000022    2    1    0    0    0 -0.35641590681E+02 -0.48759851812E+02 -0.12585864863E+02  0.62499998057E+02  0.99999813883E+01 0.  0.
    3000022    2    3    3    0    0 -0.13113023487E+02 -0.24240865951E+02 -0.24030505772E+01  0.27666010139E+02  0.24999584358E+00 0.  0.
    1000022    2    1    0    0    0  0.35641590681E+02  0.48759851812E+02  0.12585864863E+02  0.62500001943E+02  0.10000005676E+02 0.  0.
    3000022    2    5    5    0    0  0.13765131738E+02  0.24625099142E+02  0.94821129690E+01  0.29763187526E+02  0.25001171792E+00 0.  0.
        -13    1    4    4    0    0 -0.76457424697E+01 -0.13999647739E+02 -0.13795636980E+01  0.16011300251E+02  0.10500000000E+00 0. -1.
         13    1    4    4    0    0 -0.54672810170E+01 -0.10241218212E+02 -0.10234868792E+01  0.11654709888E+02  0.10500000000E+00 0.  1.
    3000001    1    5    5    0    0  0.21876458942E+02  0.24134752670E+02  0.31037518937E+01  0.32736814417E+02  0.10000000000E+01 0.  1.
        -13    1    6    6    0    0  0.55073947763E+01  0.99818837718E+01  0.38382857874E+01  0.12029665982E+02  0.10500000000E+00 0.  1.
         13    1    6    6    0    0  0.82577369622E+01  0.14643215370E+02  0.56438271817E+01  0.17733521544E+02  0.10500000000E+00 0. -1.
</event>
<event>
11    0  0.3443539E-009  0.9118800E+02  0.7816531E-02  0.1126479E+00
         25   -1    0    0    0    0  0.00000000000E+00  0.00000000000E+00  0.99999998245E-14  0.12500000000E+03  0.12500000000E+03 0.  0.
    3000001    1    3    3    0    0 -0.25781787263E+01  0.43271818871E+02 -0.19359770629E+02  0.47485766633E+02  0.10000000000E+01 0.  1.
    1000022    2    1    0    0    0 -0.46289769976E+01  0.58121261548E+02 -0.20167834972E+02  0.62499999508E+02  0.99999949505E+01 0.  0.
    3000022    2    3    3    0    0 -0.20507982713E+01  0.14849442678E+02 -0.80806434294E+00  0.15014232875E+02  0.24999889741E+00 0.  0.
    1000022    2    1    0    0    0  0.46289769976E+01 -0.58121261548E+02  0.20167834972E+02  0.62500000492E+02  0.10000001101E+02 0.  0.
    3000022    2    5    5    0    0  0.42612059987E+00 -0.44715007004E+02  0.18193639623E+02  0.48277162868E+02  0.25000342723E+00 0.  0.
        -13    1    4    4    0    0 -0.15601966806E+01  0.11281466364E+02 -0.59434463661E+00  0.11404822118E+02  0.10500000000E+00 0.  1.
         13    1    4    4    0    0 -0.49060159068E+00  0.35679763140E+01 -0.21371970633E+00  0.36094107568E+01  0.10500000000E+00 0. -1.
    3000001    1    5    5    0    0  0.42028563978E+01 -0.13406254544E+02  0.19741953496E+01  0.14222837624E+02  0.10000000000E+01 0. -1.
        -13    1    6    6    0    0  0.19924723137E+00 -0.15306705103E+02  0.62131115896E+01  0.16521159196E+02  0.10500000000E+00 0. -1.
         13    1    6    6    0    0  0.22687336849E+00 -0.29408301902E+02  0.11980528033E+02  0.31756003672E+02  0.10500000000E+00 0.  1.
</event>
<event>
11    0  0.3443539E-009  0.9118800E+02  0.7816531E-02  0.1126479E+00
         25   -1    0    0    0    0  0.00000000000E+00  0.00000000000E+00  0.99999998245E-14  0.12500000000E+03  0.12500000000E+03 0.  0.
    3000001    1    3    3    0    0 -0.15774735826E+02  0.26960166347E+02 -0.60337626812E+01  0.31829218525E+02  0.10000000000E+01 0.  1.
    1000022    2    1    0    0    0 -0.21982797917E+02  0.56550120828E+02 -0.11184391554E+02  0.62500001254E+02  0.99999986189E+01 0.  0.
    3000022    2    3    3    0    0 -0.62080620913E+01  0.29589954481E+02 -0.51506288726E+01  0.30670782729E+02  0.24998857545E+00 0.  0.
    1000022    2    1    0    0    0  0.21982797917E+02 -0.56550120828E+02  0.11184391554E+02  0.62499998746E+02  0.99999829480E+01 0.  0.
    3000022    2    5    5    0    0  0.11287970397E+02 -0.40158426079E+02  0.53805725433E+01  0.42061033324E+02  0.25000516376E+00 0.  0.
        -13    1    4    4    0    0 -0.28421023028E+01  0.13846177962E+02 -0.23802494998E+01  0.14334252765E+02  0.10500000000E+00 0.  1.
         13    1    4    4    0    0 -0.33659597885E+01  0.15743776519E+02 -0.27703793728E+01  0.16336529964E+02  0.10500000000E+00 0. -1.
    3000001    1    5    5    0    0  0.10694827520E+02 -0.16391694749E+02  0.58038190105E+01  0.20438965422E+02  0.10000000000E+01 0. -1.
        -13    1    6    6    0    0  0.41002031231E+01 -0.14403990879E+02  0.19620657607E+01  0.15104547194E+02  0.10500000000E+00 0.  1.
         13    1    6    6    0    0  0.71877672743E+01 -0.25754435200E+02  0.34185067826E+01  0.26956486130E+02  0.10500000000E+00 0. -1.
</event>
<event>
11    0  0.3443539E-009  0.9118800E+02  0.7816531E-02  0.1126479E+00
         25   -1    0    0    0    0  0.00000000000E+00  0.00000000000E+00  0.99999998245E-14  0.12500000000E+03  0.12500000000E+03 0.  0.
    3000001    1    3    3    0    0  0.37715805174E+01  0.26921951918E+02 -0.45696470631E+02  0.53180670763E+02  0.10000000000E+01 0.  1.
    1000022    2    1    0    0    0  0.61256133158E+00  0.30022141977E+02 -0.53893836928E+02  0.62499999708E+02  0.10000003219E+02 0.  0.
    3000022    2    3    3    0    0 -0.31590191858E+01  0.31001900587E+01 -0.81973662967E+01  0.93193289444E+01  0.24999430793E+00 0.  0.
    1000022    2    1    0    0    0 -0.61256133158E+00 -0.30022141977E+02  0.53893836928E+02  0.62500000292E+02  0.10000006871E+02 0.  0.
    3000022    2    5    5    0    0  0.43073671745E+01 -0.83473909600E+01  0.16491522066E+02  0.18980651892E+02  0.24999673127E+00 0.  0.
        -13    1    4    4    0    0 -0.16235616641E+01  0.15934338455E+01 -0.43551463896E+01  0.49146016087E+01  0.10500000000E+00 0.  1.
         13    1    4    4    0    0 -0.15354575217E+01  0.15067562132E+01 -0.38422199071E+01  0.44047273356E+01  0.10500000000E+00 0. -1.
    3000001    1    5    5    0    0 -0.49199285061E+01 -0.21674751017E+02  0.37402314862E+02  0.43519348400E+02  0.10000000000E+01 0. -1.
        -13    1    6    6    0    0  0.17468812906E+01 -0.34322361631E+01  0.66407436800E+01  0.76773915457E+01  0.10500000000E+00 0.  1.
         13    1    6    6    0    0  0.25604858839E+01 -0.49151547969E+01  0.98507783863E+01  0.11303260346E+02  0.10500000000E+00 0. -1.
</event>
<event>
11    0  0.3443539E-009  0.9118800E+02  0.7816531E-02  0.1126479E+00
         25   -1    0    0    0    0  0.00000000000E+00  0.00000000000E+00  0.99999998245E-14  0.12500000000E+03  0.12500000000E+03 0.  0.
    3000001    1    3    3    0    0 -0.13303349687E+02 -0.55547056312E+01 -0.29049824279E+02  0.32445741757E+02  0.10000000000E+01 0. -1.
    1000022    2    1    0    0    0 -0.17368072547E+02 -0.15283105388E+02 -0.57192887371E+02  0.62499996597E+02  0.99999977254E+01 0.  0.
    3000022    2    3    3    0    0 -0.40647228601E+01 -0.97283997571E+01 -0.28143063092E+02  0.30054254840E+02  0.25000003784E+00 0.  0.
    1000022    2    1    0    0    0  0.17368072547E+02  0.15283105388E+02  0.57192887371E+02  0.62500003403E+02  0.10000040266E+02 0.  0.
    3000022    2    5    5    0    0  0.18293613522E+02  0.12853866164E+02  0.49407149294E+02  0.54231052642E+02  0.24999639590E+00 0.  0.
        -13    1    4    4    0    0 -0.26678040586E+01 -0.62356501282E+01 -0.18103153129E+02  0.19332244806E+02  0.10500000000E+00 0.  1.
         13    1    4    4    0    0 -0.13969188015E+01 -0.34927496289E+01 -0.10039909963E+02  0.10722010034E+02  0.10500000000E+00 0. -1.
    3000001    1    5    5    0    0 -0.92554097490E+00  0.24292392243E+01  0.77857380764E+01  0.82689507617E+01  0.10000000000E+01 0. -1.
        -13    1    6    6    0    0  0.97677970115E+01  0.68515776708E+01  0.26204112296E+02  0.28792716114E+02  0.10500000000E+00 0. -1.
         13    1    6    6    0    0  0.85258165101E+01  0.60022884932E+01  0.23203036998E+02  0.25438336527E+02  0.10500000000E+00 0.  1.
</event>
<event>
11    0  0.3443539E-009  0.9118800E+02  0.7816531E-02  0.1126479E+00
         25   -1    0    0    0    0  0.00000000000E+00  0.00000000000E+00  0.99999998245E-14  0.12500000000E+03  0.12500000000E+03 0.  0.
    3000001    1    3    3    0    0 -0.13755067473E+01 -0.13877248015E+01  0.13693904359E+01  0.25870889243E+01  0.10000000000E+01 0. -1.
    1000022    2    1    0    0    0 -0.50077154420E+02 -0.35656095789E+02 -0.52126201140E+01  0.62500001383E+02  0.10000010135E+02 0.  0.
    3000022    2    3    3    0    0 -0.48701647673E+02 -0.34268370987E+02 -0.65820105499E+01  0.59912912459E+02  0.24996044705E+00 0.  0.
    1000022    2    1    0    0    0  0.50077154420E+02  0.35656095789E+02  0.52126201140E+01  0.62499998617E+02  0.99999928470E+01 0.  0.
    3000022    2    5    5    0    0  0.42799310750E+02  0.27703584486E+02  0.72100785205E+01  0.51490943953E+02  0.24996567782E+00 0.  0.
        -13    1    4    4    0    0 -0.29382088225E+02 -0.20750636919E+02 -0.39703880780E+01  0.36189377551E+02  0.10500000000E+00 0. -1.
         13    1    4    4    0    0 -0.19319559448E+02 -0.13517734068E+02 -0.26116224719E+01  0.23723534908E+02  0.10500000000E+00 0.  1.
    3000001    1    5    5    0    0  0.72778436701E+01  0.79525113030E+01 -0.19974584065E+01  0.11009054664E+02  0.10000000000E+01 0.  1.
        -13    1    6    6    0    0  0.11152047251E+02  0.72256776600E+01  0.18476562365E+01  0.13416535846E+02  0.10500000000E+00 0.  1.
         13    1    6    6    0    0  0.31647263499E+02  0.20477906826E+02  0.53624222840E+01  0.38074408107E+02  0.10500000000E+00 0. -1.
</event>
<event>
11    0  0.3443539E-009  0.9118800E+02  0.7816531E-02  0.1126479E+00
         25   -1    0    0    0    0  0.00000000000E+00  0.00000000000E+00  0.99999998245E-14  0.12500000000E+03  0.12500000000E+03 0.  0.
    3000001    1    3    3    0    0  0.44590374557E+02 -0.88101461549E+01  0.21709513214E+02  0.50380781478E+02  0.10000000000E+01 0. -1.
    1000022    2    1    0    0    0  0.54982663135E+02 -0.60898789648E+01  0.27314284425E+02  0.62499998374E+02  0.99999895927E+01 0.  0.
    3000022    2    3    3    0    0  0.10392288578E+02  0.27202671901E+01  0.56047712113E+01  0.12119216896E+02  0.24988467692E+00 0.  0.
    1000022    2    1    0    0    0 -0.54982663135E+02  0.60898789648E+01 -0.27314284425E+02  0.62500001626E+02  0.10000009918E+02 0.  0.
    3000022    2    5    5    0    0 -0.38762344484E+02  0.69630896379E+01 -0.23217144073E+02  0.45717636087E+02  0.25000653829E+00 0.  0.
        -13    1    4    4    0    0  0.75283935966E+01  0.19447676100E+01  0.40235495594E+01  0.87555015425E+01  0.10500000000E+00 0. -1.
         13    1    4    4    0    0  0.28638949818E+01  0.77549958010E+00  0.15812216519E+01  0.33637153533E+01  0.10500000000E+00 0.  1.
    3000001    1    5    5    0    0 -0.16220318651E+02 -0.87321067314E+00 -0.40971403524E+01  0.16782365539E+02  0.10000000000E+01 0.  1.
        -13    1    6    6    0    0 -0.14708671558E+02  0.26454591103E+01 -0.87399335748E+01  0.17313027950E+02  0.10500000000E+00 0. -1.
         13    1    6    6    0    0 -0.24053672926E+02  0.43176305276E+01 -0.14477210498E+02  0.28404608137E+02  0.10500000000E+00 0.  1.
</event>
<event>
11    0  0.3443539E-009  0.9118800E+02  0.7816531E-02  0.1126479E+00
         25   -1    0    0    0    0  0.00000000000E+00  0.00000000000E+00  0.99999998245E-14  0.12500000000E+03  0.12500000000E+03 0.  0.
    3000001    1    3    3    0    0 -0.80621094533E+01 -0.69379575164E+01 -0.45393880936E+01  0.11607708973E+02  0.10000000000E+01 0.  1.
    1000022    2    1    0    0    0 -0.38346443072E+02 -0.26132826443E+02 -0.40655574546E+02  0.62499999967E+02  0.99999970015E+01 0.  0.
    3000022    2    3    3    0    0 -0.30284333619E+02 -0.19194868927E+02 -0.36116186453E+02  0.50892290994E+02  0.25000583018E+00 0.  0.
    1000022    2    1    0    0    0  0.38346443072E+02  0.26132826443E+02  0.40655574546E+02  0.62500000033E+02  0.99999974097E+01 0.  0.
    3000022    2    5    5    0    0  0.21606032519E+01  0.12984257019E+01 -0.18615384165E+00  0.25399363119E+01  0.25001500044E+00 0.  0.
        -13    1    4    4    0    0 -0.90207925043E+01 -0.57234634341E+01 -0.10825322464E+02  0.15209581274E+02  0.10500000000E+00 0. -1.
         13    1    4    4    0    0 -0.21263541115E+02 -0.13471405493E+02 -0.25290863989E+02  0.35682709720E+02  0.10500000000E+00 0.  1.
    3000001    1    5    5    0    0  0.36185839820E+02  0.24834400741E+02  0.40841728388E+02  0.59960063721E+02  0.10000000000E+01 0. -1.
        -13    1    6    6    0    0  0.15711904862E+01  0.91980641637E+00 -0.10066732462E+00  0.18264288373E+01  0.10500000000E+00 0.  1.
         13    1    6    6    0    0  0.58941276567E+00  0.37861928552E+00 -0.85486517028E-01  0.71350747459E+00  0.10500000000E+00 0. -1.
</event>
<event>
11    0  0.3443539E-009  0.9118800E+02  0.7816531E-02  0.1126479E+00
         25   -1    0    0    0    0  0.00000000000E+00  0.00000000000E+00  0.99999998245E-14  0.12500000000E+03  0.12500000000E+03 0.  0.
    3000001    1    3    3    0    0 -0.36737132562E+01 -0.18213727997E+02 -0.31976924460E+02  0.36996753298E+02  0.10000000000E+01 0. -1.
    1000022    2    1    0    0    0 -0.13980123615E+02 -0.31186199256E+02 -0.51363672853E+02  0.62500000466E+02  0.10000014452E+02 0.  0.
    3000022    2    3    3    0    0 -0.10306410358E+02 -0.12972471259E+02 -0.19386748392E+02  0.25503247168E+02  0.24999571537E+00 0.  0.
    1000022    2    1    0    0    0  0.13980123615E+02  0.31186199256E+02  0.51363672853E+02  0.62499999534E+02  0.10000008629E+02 0.  0.
    3000022    2    5    5    0    0  0.71860224133E+01  0.16455990366E+02  0.35526136391E+02  0.39807127829E+02  0.25004407812E+00 0.  0.
        -13    1    4    4    0    0 -0.60619928054E+01 -0.77216772329E+01 -0.11530401486E+02  0.15143752490E+02  0.10500000000E+00 0.  1.
         13    1    4    4    0    0 -0.42444175529E+01 -0.52507940260E+01 -0.78563469067E+01  0.10359494678E+02  0.10500000000E+00 0. -1.
    3000001    1    5    5    0    0  0.67941012013E+01  0.14730208890E+02  0.15837536461E+02  0.22692871705E+02  0.10000000000E+01 0. -1.
        -13    1    6    6    0    0  0.36875762919E+01  0.82799961499E+01  0.17968449760E+02  0.20125425882E+02  0.10500000000E+00 0. -1.
         13    1    6    6    0    0  0.34984461214E+01  0.81759942158E+01  0.17557686632E+02  0.19681701947E+02  0.10500000000E+00 0.  1.
</event>
<event>
11    0  0.3443539E-009  0.9118800E+02  0.7816531E-02  0.1126479E+00
         25   -1    0    0    0    0  0.00000000000E+00  0.00000000000E+00  0.99999998245E-14  0.12500000000E+03  0.12500000000E+03 0.  0.
    3000001    1    3    3    0    0  0.51802703586E+02 -0.78989657665E+01  0.76324263784E+01  0.52963833806E+02  0.10000000000E+01 0.  1.
    1000022    2    1    0    0    0  0.60872043745E+02 -0.51367163142E+01  0.86289342050E+01  0.62500000443E+02  0.99999992856E+01 0.  0.
    3000022    2    3    3    0    0  0.90693401587E+01  0.27622494523E+01  0.99650782652E+00  0.95361666371E+01  0.24998666064E+00 0.  0.
    1000022    2    1    0    0    0 -0.60872043745E+02  0.51367163142E+01 -0.86289342050E+01  0.62499999557E+02  0.99999937487E+01 0.  0.
    3000022    2    5    5    0    0 -0.12014435506E+01  0.16720608266E+01 -0.74056393124E+00  0.22023151012E+01  0.25000571091E+00 0.  0.
        -13    1    4    4    0    0  0.34534188987E+01  0.10841027894E+01  0.43345067022E+00  0.36469556388E+01  0.10500000000E+00 0. -1.
         13    1    4    4    0    0  0.56159212600E+01  0.16781466629E+01  0.56305715630E+00  0.58892109983E+01  0.10500000000E+00 0.  1.
    3000001    1    5    5    0    0 -0.59670600194E+02  0.34646554876E+01 -0.78883702737E+01  0.60297684456E+02  0.10000000000E+01 0.  1.
        -13    1    6    6    0    0 -0.45358520812E+00  0.74258226730E+00 -0.31199019334E+00  0.93033910241E+00  0.10500000000E+00 0.  1.
         13    1    6    6    0    0 -0.74785834253E+00  0.92947855931E+00 -0.42857373790E+00  0.12719759988E+01  0.10500000000E+00 0. -1.
</event>
<event>
11    0  0.3443539E-009  0.9118800E+02  0.7816531E-02  0.1126479E+00
         25   -1    0    0    0    0  0.00000000000E+00  0.00000000000E+00  0.99999998245E-14  0.12500000000E+03  0.12500000000E+03 0.  0.
    3000001    1    3    3    0    0  0.19141312369E+01  0.13179894721E+01 -0.11275097008E+01  0.27698867786E+01  0.10000000000E+01 0.  1.
    1000022    2    1    0    0    0  0.22324884853E+02  0.12635439012E+02 -0.56108784938E+02  0.62500001866E+02  0.99999841661E+01 0.  0.
    3000022    2    3    3    0    0  0.20410753616E+02  0.11317449540E+02 -0.54981275238E+02  0.59730115088E+02  0.24998880150E+00 0.  0.
    1000022    2    1    0    0    0 -0.22324884853E+02 -0.12635439012E+02  0.56108784938E+02  0.62499998134E+02  0.99999608354E+01 0.  0.
    3000022    2    5    5    0    0 -0.18219553518E+02 -0.13579217146E+02  0.42155483581E+02  0.47890443681E+02  0.25006260825E+00 0.  0.
        -13    1    4    4    0    0  0.88451735894E+01  0.49289774579E+01 -0.24014120992E+02  0.26061867673E+02  0.10500000000E+00 0. -1.
         13    1    4    4    0    0  0.11565580027E+02  0.63884720818E+01 -0.30967154246E+02  0.33668247415E+02  0.10500000000E+00 0.  1.
    3000001    1    5    5    0    0 -0.41053313349E+01  0.94377813410E+00  0.13953301357E+02  0.14609554452E+02  0.10000000000E+01 0.  1.
        -13    1    6    6    0    0 -0.48714535315E+01 -0.36671653365E+01  0.11270768582E+02  0.12814851171E+02  0.10500000000E+00 0.  1.
         13    1    6    6    0    0 -0.13348099987E+02 -0.99120518094E+01  0.30884714999E+02  0.35075592510E+02  0.10500000000E+00 0. -1.
</event>
<event>
11    0  0.3443539E-009  0.9118800E+02  0.7816531E-02  0.1126479E+00
         25   -1    0    0    0    0  0.00000000000E+00  0.00000000000E+00  0.99999998245E-14  0.12500000000E+03  0.12500000000E+03 0.  0.
    3000001    1    3    3    0    0 -0.17961898183E+02  0.40786480805E+01  0.89890811552E+01  0.20519959467E+02  0.10000000000E+01 0. -1.
    1000022    2    1    0    0    0 -0.46616349172E+02  0.11192346870E+02  0.38831652548E+02  0.62500000328E+02  0.10000008143E+02 0.  0.
    3000022    2    3    3    0    0 -0.28654450989E+02  0.71136987891E+01  0.29842571393E+02  0.41980040861E+02  0.24998290878E+00 0.  0.
    1000022    2    1    0    0    0  0.46616349172E+02 -0.11192346870E+02 -0.38831652548E+02  0.62499999672E+02  0.10000004037E+02 0.  0.
    3000022    2    5    5    0    0  0.16173588141E+02 -0.57261069960E+01 -0.84260211918E+01  0.19116317304E+02  0.24999894715E+00 0.  0.
        -13    1    4    4    0    0 -0.18838131312E+02  0.46276464864E+01  0.19567007554E+02  0.27553023662E+02  0.10500000000E+00 0.  1.
         13    1    4    4    0    0 -0.98163196763E+01  0.24860523027E+01  0.10275563839E+02  0.14427017199E+02  0.10500000000E+00 0. -1.
    3000001    1    5    5    0    0  0.30442761031E+02 -0.54662398736E+01 -0.30405631356E+02  0.43383682367E+02  0.10000000000E+01 0. -1.
        -13    1    6    6    0    0  0.67907784097E+01 -0.24598782862E+01 -0.35895915392E+01  0.80660935409E+01  0.10500000000E+00 0.  1.
         13    1    6    6    0    0  0.93828097312E+01 -0.32662287098E+01 -0.48364296526E+01  0.11050223763E+02  0.10500000000E+00 0. -1.
</event>
<event>
11    0  0.3443539E-009  0.9118800E+02  0.7816531E-02  0.1126479E+00
         25   -1    0    0    0    0  0.00000000000E+00  0.00000000000E+00  0.99999998245E-14  0.12500000000E+03  0.12500000000E+03 0.  0.
    3000001    1    3    3    0    0  0.33022141379E+01 -0.11515571581E+02 -0.15868953959E+02  0.19908207021E+02  0.10000000000E+01 0. -1.
    1000022    2    1    0    0    0  0.22666251017E+02 -0.28686094716E+02 -0.49695060303E+02  0.62499999214E+02  0.99999958972E+01 0.  0.
    3000022    2    3    3    0    0  0.19364036879E+02 -0.17170523135E+02 -0.33826106345E+02  0.42591792193E+02  0.25000551083E+00 0.  0.
    1000022    2    1    0    0    0 -0.22666251017E+02  0.28686094716E+02  0.49695060303E+02  0.62500000786E+02  0.10000005724E+02 0.  0.
    3000022    2    5    5    0    0 -0.29840041451E+01  0.41079385129E+01  0.13982491009E+02  0.14877902870E+02  0.24999889322E+00 0.  0.
        -13    1    4    4    0    0  0.10796802663E+02 -0.95485301292E+01 -0.18942973897E+02  0.23803206936E+02  0.10500000000E+00 0.  1.
         13    1    4    4    0    0  0.85672342168E+01 -0.76219930056E+01 -0.14883132448E+02  0.18788585257E+02  0.10500000000E+00 0. -1.
    3000001    1    5    5    0    0 -0.19682246872E+02  0.24578156203E+02  0.35712569294E+02  0.47622097916E+02  0.10000000000E+01 0.  1.
        -13    1    6    6    0    0 -0.15606918859E+01  0.20352984851E+01  0.70225268730E+01  0.74769718314E+01  0.10500000000E+00 0.  1.
         13    1    6    6    0    0 -0.14233122592E+01  0.20726400278E+01  0.69599641359E+01  0.74009310390E+01  0.10500000000E+00 0. -1.
</event>
<event>
11    0  0.3443539E-009  0.9118800E+02  0.7816531E-02  0.1126479E+00
         25   -1    0    0    0    0  0.00000000000E+00  0.00000000000E+00  0.99999998245E-14  0.12500000000E+03  0.12500000000E+03 0.  0.
    3000001    1    3    3    0    0  0.36367279031E+02  0.57446003994E+01 -0.26441990039E+01  0.36926565048E+02  0.10000000000E+01 0.  1.
    1000022    2    1    0    0    0  0.59832495112E+02  0.84609219586E+01 -0.12439264930E+02  0.62500000147E+02  0.10000001732E+02 0.  0.
    3000022    2    3    3    0    0  0.23465216081E+02  0.27163215592E+01 -0.97950659265E+01  0.25573435099E+02  0.24999542583E+00 0.  0.
    1000022    2    1    0    0    0 -0.59832495112E+02 -0.84609219586E+01  0.12439264930E+02  0.62499999853E+02  0.99999998976E+01 0.  0.
    3000022    2    5    5    0    0 -0.44511552377E+02 -0.10376666713E+02  0.10596664038E+02  0.46918069861E+02  0.24996721981E+00 0.  0.
        -13    1    4    4    0    0  0.13311018749E+02  0.15340955709E+01 -0.54852577333E+01  0.14478803360E+02  0.10500000000E+00 0. -1.
         13    1    4    4    0    0  0.10154197332E+02  0.11822259883E+01 -0.43098081933E+01  0.11094631738E+02  0.10500000000E+00 0.  1.
    3000001    1    5    5    0    0 -0.15320942735E+02  0.19157447548E+01  0.18426008923E+01  0.15581929993E+02  0.10000000000E+01 0.  1.
        -13    1    6    6    0    0 -0.31426237924E+02 -0.72808734377E+01  0.74773328061E+01  0.33114061650E+02  0.10500000000E+00 0.  1.
         13    1    6    6    0    0 -0.13085314453E+02 -0.30957932758E+01  0.31193312320E+01  0.13804008210E+02  0.10500000000E+00 0. -1.
</event>
<event>
11    0  0.3443539E-009  0.9118800E+02  0.7816531E-02  0.1126479E+00
         25   -1    0    0    0    0  0.00000000000E+00  0.00000000000E+00  0.99999998245E-14  0.12500000000E+03  0.12500000000E+03 0.  0.
    3000001    1    3    3    0    0  0.41972690653E+01 -0.70024055494E+00 -0.28246079637E+01  0.52044033846E+01  0.10000000000E+01 0.  1.
    1000022    2    1    0    0    0  0.29022105078E+02 -0.26379034259E+02 -0.47624718873E+02  0.62499999790E+02  0.10000004720E+02 0.  0.
    3000022    2    3    3    0    0  0.24824836013E+02 -0.25678793704E+02 -0.44800110910E+02  0.57295596405E+02  0.25000157170E+00 0.  0.
    1000022    2    1    0    0    0 -0.29022105078E+02  0.26379034259E+02  0.47624718873E+02  0.62500000210E+02  0.10000007344E+02 0.  0.
    3000022    2    5    5    0    0 -0.13722295650E+02  0.13299953950E+02  0.30797064776E+02  0.36245163462E+02  0.25000512154E+00 0.  0.
        -13    1    4    4    0    0  0.18386661513E+02 -0.19059354084E+02 -0.33238437426E+02  0.42498624063E+02  0.10500000000E+00 0.  1.
         13    1    4    4    0    0  0.64381744990E+01 -0.66194396201E+01 -0.11561673484E+02  0.14796972343E+02  0.10500000000E+00 0. -1.
    3000001    1    5    5    0    0 -0.15299809428E+02  0.13079080309E+02  0.16827654097E+02  0.26254836748E+02  0.10000000000E+01 0. -1.
        -13    1    6    6    0    0 -0.68222219791E+01  0.66984895866E+01  0.15460376173E+02  0.18178193857E+02  0.10500000000E+00 0.  1.
         13    1    6    6    0    0 -0.69000736710E+01  0.66014643633E+01  0.15336688603E+02  0.18066969605E+02  0.10500000000E+00 0. -1.
</event>
<event>
11    0  0.3443539E-009  0.9118800E+02  0.7816531E-02  0.1126479E+00
         25   -1    0    0    0    0  0.00000000000E+00  0.00000000000E+00  0.99999998245E-14  0.12500000000E+03  0.12500000000E+03 0.  0.
    3000001    1    3    3    0    0  0.28700457649E+02  0.12610413450E+02  0.24616234901E+02  0.39871014752E+02  0.10000000000E+01 0. -1.
    1000022    2    1    0    0    0  0.39270659821E+02  0.19541501375E+02  0.43384273456E+02  0.62499998923E+02  0.99999841647E+01 0.  0.
    3000022    2    3    3    0    0  0.10570202171E+02  0.69310879249E+01  0.18768038556E+02  0.22628984171E+02  0.24999924064E+00 0.  0.
    1000022    2    1    0    0    0 -0.39270659821E+02 -0.19541501375E+02 -0.43384273456E+02  0.62500001077E+02  0.99999976269E+01 0.  0.
    3000022    2    5    5    0    0 -0.55508448948E+01 -0.13181124080E+01 -0.19190479760E+01  0.60244953402E+01  0.24999920771E+00 0.  0.
        -13    1    4    4    0    0  0.42975072620E+01  0.28204479829E+01  0.75192670008E+01  0.91090008630E+01  0.10500000000E+00 0.  1.
         13    1    4    4    0    0  0.62726949093E+01  0.41106399420E+01  0.11248771555E+02  0.13519983308E+02  0.10500000000E+00 0. -1.
    3000001    1    5    5    0    0 -0.33719814926E+02 -0.18223388967E+02 -0.41465225480E+02  0.56475505737E+02  0.10000000000E+01 0. -1.
        -13    1    6    6    0    0 -0.27722928256E+01 -0.59000019630E+00 -0.93892657154E+00  0.29876940689E+01  0.10500000000E+00 0.  1.
         13    1    6    6    0    0 -0.27785520692E+01 -0.72811221170E+00 -0.98012140444E+00  0.30368012713E+01  0.10500000000E+00 0. -1.
</event>
<event>
11    0  0.3443539E-009  0.9118800E+02  0.7816531E-02  0.1126479E+00
         25   -1    0    0    0    0  0.00000000000E+00  0.00000000000E+00  0.99999998245E-14  0.12500000000E+03  0.12500000000E+03 0.  0.
    3000001    1    3    3    0    0 -0.16943843435E+02 -0.17049363884E+02 -0.36882856800E+01  0.24338818592E+02  0.10000000000E+01 0.  1.
    1000022    2    1    0    0    0 -0.36662792818E+02 -0.45587253173E+02 -0.19593162673E+02  0.62499999143E+02  0.99999920161E+01 0.  0.
    3000022    2    3    3    0    0 -0.19718949383E+02 -0.28537889289E+02 -0.15904876993E+02  0.38161180551E+02  0.24999814879E+00 0.  0.
    1000022    2    1    0    0    0  0.36662792818E+02  0.45587253173E+02  0.19593162673E+02  0.62500000857E+02  0.10000002726E+02 0.  0.
    3000022    2    5    5    0    0  0.24524126243E+02  0.23632792649E+02  0.88393955088E+01  0.35187200353E+02  0.24999878058E+00 0.  0.
        -13    1    4    4    0    0 -0.11602542819E+02 -0.16752884095E+02 -0.94100476898E+01  0.22446339298E+02  0.10500000000E+00 0.  1.
         13    1    4    4    0    0 -0.81164065639E+01 -0.11785005194E+02 -0.64948293032E+01  0.15714841253E+02  0.10500000000E+00 0. -1.
    3000001    1    5    5    0    0  0.12138666575E+02  0.21954460524E+02  0.10753767164E+02  0.27312800503E+02  0.10000000000E+01 0.  1.
        -13    1    6    6    0    0  0.66323665107E+01  0.63774185114E+01  0.23523923408E+01  0.94976063894E+01  0.10500000000E+00 0. -1.
         13    1    6    6    0    0  0.17891759732E+02  0.17255374137E+02  0.64870031681E+01  0.25689593964E+02  0.10500000000E+00 0.  1.
</event>
<event>
11    0  0.3443539E-009  0.9118800E+02  0.7816531E-02  0.1126479E+00
         25   -1    0    0    0    0  0.00000000000E+00  0.00000000000E+00  0.99999998245E-14  0.12500000000E+03  0.12500000000E+03 0.  0.
    3000001    1    3    3    0    0  0.14131571472E+01  0.98282491147E-01  0.99252358849E+00  0.19979428532E+01  0.10000000000E+01 0.  1.
    1000022    2    1    0    0    0  0.16094880333E+02 -0.24157218206E+02  0.54439266064E+02  0.62500001442E+02  0.10000006318E+02 0.  0.
    3000022    2    3    3    0    0  0.14681723186E+02 -0.24255500697E+02  0.53446742475E+02  0.60502058589E+02  0.25000509473E+00 0.  0.
    1000022    2    1    0    0    0 -0.16094880333E+02  0.24157218206E+02 -0.54439266064E+02  0.62499998558E+02  0.99999882888E+01 0.  0.
    3000022    2    5    5    0    0 -0.17354370943E+01  0.11128030365E+02 -0.21125266811E+02  0.23941265537E+02  0.24999196011E+00 0.  0.
        -13    1    4    4    0    0  0.10004102919E+02 -0.16445717218E+02  0.36345967094E+02  0.41128871113E+02  0.10500000000E+00 0. -1.
         13    1    4    4    0    0  0.46776202673E+01 -0.78097834785E+01  0.17100775381E+02  0.19373187476E+02  0.10500000000E+00 0.  1.
    3000001    1    5    5    0    0 -0.14359443239E+02  0.13029187840E+02 -0.33313999253E+02  0.38558733020E+02  0.10000000000E+01 0. -1.
        -13    1    6    6    0    0 -0.56717478032E+00  0.38470411078E+01 -0.73916201425E+01  0.83527531897E+01  0.10500000000E+00 0. -1.
         13    1    6    6    0    0 -0.11682623140E+01  0.72809892577E+01 -0.13733646668E+02  0.15588512348E+02  0.10500000000E+00 0.  1.
</event>
<event>
11    0  0.3443539E-009  0.9118800E+02  0.7816531E-02  0.1126479E+00
         25   -1    0    0    0    0  0.00000000000E+00  0.00000000000E+00  0.99999998245E-14  0.12500000000E+03  0.12500000000E+03 0.  0.
    3000001    1    3    3    0    0 -0.43335423288E+02  0.14169262445E+02 -0.71347989219E+01  0.46158772356E+02  0.10000000000E+01 0.  1.
    1000022    2    1    0    0    0 -0.56422986672E+02  0.19889446283E+02 -0.15070058455E+02  0.62499998226E+02  0.99999808976E+01 0.  0.
    3000022    2    3    3    0    0 -0.13087563384E+02  0.57201838382E+01 -0.79352595330E+01  0.16341225870E+02  0.25000117870E+00 0.  0.
    1000022    2    1    0    0    0  0.56422986672E+02 -0.19889446283E+02  0.15070058455E+02  0.62500001774E+02  0.10000003075E+02 0.  0.
    3000022    2    5    5    0    0  0.24140412881E+02 -0.11992631360E+02  0.29793902181E+01  0.27120508916E+02  0.24999356983E+00 0.  0.
        -13    1    4    4    0    0 -0.43858121202E+01  0.19456331636E+01 -0.26120375687E+01  0.54639364584E+01  0.10500000000E+00 0. -1.
         13    1    4    4    0    0 -0.87017512638E+01  0.37745506746E+01 -0.53232219644E+01  0.10877289411E+02  0.10500000000E+00 0.  1.
    3000001    1    5    5    0    0  0.32282573791E+02 -0.78968149234E+01  0.12090668237E+02  0.35379492858E+02  0.10000000000E+01 0.  1.
        -13    1    6    6    0    0  0.14938827234E+02 -0.74334273736E+01  0.19046467261E+01  0.16794734466E+02  0.10500000000E+00 0.  1.
         13    1    6    6    0    0  0.92015856471E+01 -0.45592039863E+01  0.10747434920E+01  0.10325774450E+02  0.10500000000E+00 0. -1.
</event>
<event>
11    0  0.3443539E-009  0.9118800E+02  0.7816531E-02  0.1126479E+00
         25   -1    0    0    0    0  0.00000000000E+00  0.00000000000E+00  0.99999998245E-14  0.12500000000E+03  0.12500000000E+03 0.  0.
    3000001    1    3    3    0    0  0.28193555712E+02 -0.16792633757E+02 -0.25147478268E+02  0.41355347846E+02  0.10000000000E+01 0. -1.
    1000022    2    1    0    0    0  0.44499289315E+02 -0.18562952381E+02 -0.38489996156E+02  0.62499999305E+02  0.10000007920E+02 0.  0.
    3000022    2    3    3    0    0  0.16305733603E+02 -0.17703186234E+01 -0.13342517888E+02  0.21144651459E+02  0.25005076982E+00 0.  0.
    1000022    2    1    0    0    0 -0.44499289315E+02  0.18562952381E+02  0.38489996156E+02  0.62500000695E+02  0.10000016607E+02 0.  0.
    3000022    2    5    5    0    0 -0.41186861904E+02  0.19621707921E+02  0.35754247953E+02  0.57963762509E+02  0.25000460940E+00 0.  0.
        -13    1    4    4    0    0  0.11895552038E+02 -0.13239830632E+01 -0.97568845065E+01  0.15442309080E+02  0.10500000000E+00 0.  1.
         13    1    4    4    0    0  0.44101815646E+01 -0.44633556022E+00 -0.35856333814E+01  0.57023423793E+01  0.10500000000E+00 0. -1.
    3000001    1    5    5    0    0 -0.33124274105E+01 -0.10587555403E+01  0.27357482036E+01  0.45362381857E+01  0.10000000000E+01 0. -1.
        -13    1    6    6    0    0 -0.19289778126E+02  0.91768130696E+01  0.16656808068E+02  0.27088184109E+02  0.10500000000E+00 0. -1.
         13    1    6    6    0    0 -0.21897083778E+02  0.10444894851E+02  0.19097439884E+02  0.30875578401E+02  0.10500000000E+00 0.  1.
</event>
<event>
11    0  0.3443539E-009  0.9118800E+02  0.7816531E-02  0.1126479E+00
         25   -1    0    0    0    0  0.00000000000E+00  0.00000000000E+00  0.99999998245E-14  0.12500000000E+03  0.12500000000E+03 0.  0.
    3000001    1    3    3    0    0  0.83183410181E+01 -0.34394378165E+00  0.67598205064E+00  0.84124934681E+01  0.10000000000E+01 0. -1.
    1000022    2    1    0    0    0  0.54760225222E+02 -0.18247033658E+01  0.28359091923E+02  0.62499999667E+02  0.10000002745E+02 0.  0.
    3000022    2    3    3    0    0  0.46441884204E+02 -0.14807595842E+01  0.27683109872E+02  0.54087506199E+02  0.24999444205E+00 0.  0.
    1000022    2    1    0    0    0 -0.54760225222E+02  0.18247033658E+01 -0.28359091923E+02  0.62500000333E+02  0.10000006908E+02 0.  0.
    3000022    2    5    5    0    0 -0.54477544376E+01  0.15465836747E+01 -0.62811916263E+01  0.84608403935E+01  0.25000488366E+00 0.  0.
        -13    1    4    4    0    0  0.21541325954E+02 -0.66915252857E+00  0.12764575625E+02  0.25048391263E+02  0.10500000000E+00 0.  1.
         13    1    4    4    0    0  0.24900558250E+02 -0.81160705563E+00  0.14918534247E+02  0.29039114936E+02  0.10500000000E+00 0. -1.
    3000001    1    5    5    0    0 -0.49312470785E+02  0.27811969114E+00 -0.22077900296E+02  0.54039159940E+02  0.10000000000E+01 0.  1.
        -13    1    6    6    0    0 -0.22716362312E+01  0.58278581268E+00 -0.25658194311E+01  0.34777039585E+01  0.10500000000E+00 0. -1.
         13    1    6    6    0    0 -0.31761182064E+01  0.96379786203E+00 -0.37153721952E+01  0.49831364349E+01  0.10500000000E+00 0.  1.
</event>
<event>
11    0  0.3443539E-009  0.9118800E+02  0.7816531E-02  0.1126479E+00
         25   -1    0    0    0    0  0.00000000000E+00  0.00000000000E+00  0.99999998245E-14  0.12500000000E+03  0.12500000000E+03 0.  0.
    3000001    1    3    3    0    0  0.17834097770E+02 -0.64678902013E+01  0.43323648609E+02  0.47305678050E+02  0.10000000000E+01 0.  1.
    1000022    2    1    0    0    0  0.23567802562E+02 -0.13827927131E+02  0.55313622375E+02  0.62500002114E+02  0.10000027880E+02 0.  0.
    3000022    2    3    3    0    0  0.57337047927E+01 -0.73600369301E+01  0.11989973766E+02  0.15194324064E+02  0.24999720298E+00 0.  0.
    1000022    2    1    0    0    0 -0.23567802562E+02  0.13827927131E+02 -0.55313622375E+02  0.62499997886E+02  0.10000001455E+02 0.  0.
    3000022    2    5    5    0    0 -0.32415159405E+01 -0.17196020358E+00 -0.13926441951E+02  0.14301932814E+02  0.25000178255E+00 0.  0.
        -13    1    4    4    0    0  0.31729637011E+01 -0.41285391342E+01  0.65985474795E+01  0.84062112673E+01  0.10500000000E+00 0. -1.
         13    1    4    4    0    0  0.25607410916E+01 -0.32314977959E+01  0.53914262865E+01  0.67881127970E+01  0.10500000000E+00 0.  1.
    3000001    1    5    5    0    0 -0.20326286622E+02  0.13999887335E+02 -0.41387180424E+02  0.48198065072E+02  0.10000000000E+01 0.  1.
        -13    1    6    6    0    0 -0.19118594970E+01 -0.86884765461E-01 -0.84772347955E+01  0.86912191594E+01  0.10500000000E+00 0. -1.
         13    1    6    6    0    0 -0.13296564435E+01 -0.85075438118E-01 -0.54492071558E+01  0.56107136547E+01  0.10500000000E+00 0.  1.
</event>
<event>
11    0  0.3443539E-009  0.9118800E+02  0.7816531E-02  0.1126479E+00
         25   -1    0    0    0    0  0.00000000000E+00  0.00000000000E+00  0.99999998245E-14  0.12500000000E+03  0.12500000000E+03 0.  0.
    3000001    1    3    3    0    0  0.51082013601E+02  0.11009292777E+02  0.48118016639E+01  0.52485522540E+02  0.10000000000E+01 0.  1.
    1000022    2    1    0    0    0  0.58956831998E+02  0.16897029880E+02  0.66956996526E+01  0.62500001276E+02  0.10000005386E+02 0.  0.
    3000022    2    3    3    0    0  0.78748183967E+01  0.58877371024E+01  0.18838979887E+01  0.10014478737E+02  0.24999953042E+00 0.  0.
    1000022    2    1    0    0    0 -0.58956831998E+02 -0.16897029880E+02 -0.66956996526E+01  0.62499998724E+02  0.99999894322E+01 0.  0.
    3000022    2    5    5    0    0 -0.25238005529E+02 -0.45030900996E+01  0.13450597730E+01  0.25673068172E+02  0.25000010159E+00 0.  0.
        -13    1    4    4    0    0  0.42150745694E+01  0.31806995601E+01  0.10758062337E+01  0.53899988284E+01  0.10500000000E+00 0.  1.
         13    1    4    4    0    0  0.36597438272E+01  0.27070375424E+01  0.80809175500E+00  0.46244799082E+01  0.10500000000E+00 0. -1.
    3000001    1    5    5    0    0 -0.33718826469E+02 -0.12393939780E+02 -0.80407594256E+01  0.36826930552E+02  0.10000000000E+01 0.  1.
        -13    1    6    6    0    0 -0.10948394516E+02 -0.19634950009E+01  0.51847323559E+00  0.11135640735E+02  0.10500000000E+00 0. -1.
         13    1    6    6    0    0 -0.14289611013E+02 -0.25395950987E+01  0.82658653745E+00  0.14537427437E+02  0.10500000000E+00 0.  1.
</event>
<event>
11    0  0.3443539E-009  0.9118800E+02  0.7816531E-02  0.1126479E+00
         25   -1    0    0    0    0  0.00000000000E+00  0.00000000000E+00  0.99999998245E-14  0.12500000000E+03  0.12500000000E+03 0.  0.
    3000001    1    3    3    0    0  0.14495220346E+02  0.15591482584E+01 -0.34108155284E+02  0.37106719244E+02  0.10000000000E+01 0.  1.
    1000022    2    1    0    0    0  0.20999280559E+02 -0.48156026286E+01 -0.57810815806E+02  0.62500003077E+02  0.10000007388E+02 0.  0.
    3000022    2    3    3    0    0  0.65040602124E+01 -0.63747508870E+01 -0.23702660523E+02  0.25393283833E+02  0.24999972575E+00 0.  0.
    1000022    2    1    0    0    0 -0.20999280559E+02  0.48156026286E+01  0.57810815806E+02  0.62499996923E+02  0.99999689279E+01 0.  0.
    3000022    2    5    5    0    0 -0.72616733941E+01  0.31663990503E+00  0.89312328359E+01  0.11517880965E+02  0.25000129708E+00 0.  0.
        -13    1    4    4    0    0  0.23281208358E+01 -0.23356668773E+01 -0.84622949803E+01  0.90827830383E+01  0.10500000000E+00 0.  1.
         13    1    4    4    0    0  0.41759393766E+01 -0.40390840097E+01 -0.15240365542E+02  0.16310500795E+02  0.10500000000E+00 0. -1.
    3000001    1    5    5    0    0 -0.13737607165E+02  0.44989627235E+01  0.48879582970E+02  0.50982115958E+02  0.10000000000E+01 0.  1.
        -13    1    6    6    0    0 -0.48786939151E+01  0.16632775991E+00  0.59568548511E+01  0.77022375942E+01  0.10500000000E+00 0. -1.
         13    1    6    6    0    0 -0.23829794790E+01  0.15031214512E+00  0.29743779848E+01  0.38156433710E+01  0.10500000000E+00 0.  1.
</event>
<event>
11    0  0.3443539E-009  0.9118800E+02  0.7816531E-02  0.1126479E+00
         25   -1    0    0    0    0  0.00000000000E+00  0.00000000000E+00  0.99999998245E-14  0.12500000000E+03  0.12500000000E+03 0.  0.
    3000001    1    3    3    0    0 -0.95923883628E+01  0.26731172162E+01 -0.37892952384E+01  0.10701319010E+02  0.10000000000E+01 0.  1.
    1000022    2    1    0    0    0 -0.50352712607E+02  0.10348908367E+00 -0.35648891988E+02  0.62500001378E+02  0.10000014770E+02 0.  0.
    3000022    2    3    3    0    0 -0.40760324245E+02 -0.25696281325E+01 -0.31859596750E+02  0.51798682368E+02  0.25013747865E+00 0.  0.
    1000022    2    1    0    0    0  0.50352712607E+02 -0.10348908367E+00  0.35648891988E+02  0.62499998622E+02  0.99999975423E+01 0.  0.
    3000022    2    5    5    0    0  0.12345866887E+02  0.42491948412E+01  0.85683612035E+01  0.15619071513E+02  0.24999048192E+00 0.  0.
        -13    1    4    4    0    0 -0.17737518007E+02 -0.10994060511E+01 -0.13783147867E+02  0.22490318558E+02  0.10500000000E+00 0. -1.
         13    1    4    4    0    0 -0.23022806237E+02 -0.14702220814E+01 -0.18076448882E+02  0.29308363810E+02  0.10500000000E+00 0.  1.
    3000001    1    5    5    0    0  0.38006845721E+02 -0.43526839249E+01  0.27080530784E+02  0.46880927108E+02  0.10000000000E+01 0. -1.
        -13    1    6    6    0    0  0.46293273532E+01  0.16567015232E+01  0.32179335794E+01  0.58771977337E+01  0.10500000000E+00 0.  1.
         13    1    6    6    0    0  0.77165395336E+01  0.25924933180E+01  0.53504276242E+01  0.97418737796E+01  0.10500000000E+00 0. -1.
</event>
<event>
11    0  0.3443539E-009  0.9118800E+02  0.7816531E-02  0.1126479E+00
         25   -1    0    0    0    0  0.00000000000E+00  0.00000000000E+00  0.99999998245E-14  0.12500000000E+03  0.12500000000E+03 0.  0.
    3000001    1    3    3    0    0  0.17529818527E+02  0.18618238404E+02 -0.10160283036E+02  0.27534790543E+02  0.10000000000E+01 0.  1.
    1000022    2    1    0    0    0  0.44169473056E+02  0.33079015264E+02 -0.27587793237E+02  0.62499999976E+02  0.10000003024E+02 0.  0.
    3000022    2    3    3    0    0  0.26639654529E+02  0.14460776859E+02 -0.17427510200E+02  0.34965209433E+02  0.24999623363E+00 0.  0.
    1000022    2    1    0    0    0 -0.44169473056E+02 -0.33079015264E+02  0.27587793237E+02  0.62500000024E+02  0.10000003325E+02 0.  0.
    3000022    2    5    5    0    0 -0.19897741863E+01 -0.15549585879E+01 -0.81049381868E+00  0.26639251721E+01  0.24999913943E+00 0.  0.
        -13    1    4    4    0    0  0.11837856491E+02  0.63616870958E+01 -0.77668451966E+01  0.15522268465E+02  0.10500000000E+00 0. -1.
         13    1    4    4    0    0  0.14801798038E+02  0.80990897637E+01 -0.96606650039E+01  0.19442940968E+02  0.10500000000E+00 0.  1.
    3000001    1    5    5    0    0 -0.42179698870E+02 -0.31524056676E+02  0.28398287055E+02  0.59836074852E+02  0.10000000000E+01 0.  1.
        -13    1    6    6    0    0 -0.94794173160E+00 -0.66035075237E+00 -0.34788379559E+00  0.12110758762E+01  0.10500000000E+00 0. -1.
         13    1    6    6    0    0 -0.10418324547E+01 -0.89460783556E+00 -0.46261002310E+00  0.14528492959E+01  0.10500000000E+00 0.  1.
</event>
<event>
11    0  0.3443539E-009  0.9118800E+02  0.7816531E-02  0.1126479E+00
         25   -1    0    0    0    0  0.00000000000E+00  0.00000000000E+00  0.99999998245E-14  0.12500000000E+03  0.12500000000E+03 0.  0.
    3000001    1    3    3    0    0  0.92162632820E+01 -0.35798396970E+02  0.39847545885E+02  0.54362594194E+02  0.10000000000E+01 0.  1.
    1000022    2    1    0    0    0  0.68117981454E+01 -0.40547325415E+02  0.45997432253E+02  0.62500000015E+02  0.10000001782E+02 0.  0.
    3000022    2    3    3    0    0 -0.24044651367E+01 -0.47489284456E+01  0.61498863682E+01  0.81374058203E+01  0.24999433606E+00 0.  0.
    1000022    2    1    0    0    0 -0.68117981454E+01  0.40547325415E+02 -0.45997432253E+02  0.62499999985E+02  0.10000001600E+02 0.  0.
    3000022    2    5    5    0    0 -0.64779781066E+00  0.30158420501E+02 -0.33800630176E+02  0.45304470731E+02  0.24999753705E+00 0.  0.
        -13    1    4    4    0    0 -0.73145035023E+00 -0.14184144395E+01  0.19140959640E+01  0.24943350811E+01  0.10500000000E+00 0. -1.
         13    1    4    4    0    0 -0.16730147864E+01 -0.33305140060E+01  0.42357904042E+01  0.56430707392E+01  0.10500000000E+00 0.  1.
    3000001    1    5    5    0    0 -0.61640003347E+01  0.10388904914E+02 -0.12196802077E+02  0.17195529255E+02  0.10000000000E+01 0. -1.
        -13    1    6    6    0    0 -0.20071859632E+00  0.11408677455E+02 -0.12847787501E+02  0.17183564179E+02  0.10500000000E+00 0. -1.
         13    1    6    6    0    0 -0.44707921434E+00  0.18749743046E+02 -0.20952842675E+02  0.28120906552E+02  0.10500000000E+00 0.  1.
</event>
<event>
11    0  0.3443539E-009  0.9118800E+02  0.7816531E-02  0.1126479E+00
         25   -1    0    0    0    0  0.00000000000E+00  0.00000000000E+00  0.99999998245E-14  0.12500000000E+03  0.12500000000E+03 0.  0.
    3000001    1    3    3    0    0 -0.65282232194E+01  0.22958098950E+02  0.15974950341E+02  0.28738320135E+02  0.10000000000E+01 0.  1.
    1000022    2    1    0    0    0 -0.35776449109E+01  0.51232079010E+02  0.34186613312E+02  0.62499999421E+02  0.99999967543E+01 0.  0.
    3000022    2    3    3    0    0  0.29505783085E+01  0.28273980060E+02  0.18211662971E+02  0.33761679286E+02  0.24991845328E+00 0.  0.
    1000022    2    1    0    0    0  0.35776449109E+01 -0.51232079010E+02 -0.34186613312E+02  0.62500000579E+02  0.10000003990E+02 0.  0.
    3000022    2    5    5    0    0 -0.31530646166E+01 -0.24506456192E+02 -0.17270860577E+02  0.30147194575E+02  0.25000814715E+00 0.  0.
        -13    1    4    4    0    0  0.13176112004E+01  0.12702992045E+02  0.81032471730E+01  0.15125334572E+02  0.10500000000E+00 0. -1.
         13    1    4    4    0    0  0.16329671081E+01  0.15570988015E+02  0.10108415798E+02  0.18636344714E+02  0.10500000000E+00 0.  1.
    3000001    1    5    5    0    0  0.67307095276E+01 -0.26725622818E+02 -0.16915752735E+02  0.32352806004E+02  0.10000000000E+01 0. -1.
        -13    1    6    6    0    0 -0.18779043775E+01 -0.14926835242E+02 -0.10460102225E+02  0.18323801428E+02  0.10500000000E+00 0.  1.
         13    1    6    6    0    0 -0.12751602391E+01 -0.95796209496E+01 -0.68107583517E+01  0.11823393147E+02  0.10500000000E+00 0. -1.
</event>
<event>
11    0  0.3443539E-009  0.9118800E+02  0.7816531E-02  0.1126479E+00
         25   -1    0    0    0    0  0.00000000000E+00  0.00000000000E+00  0.99999998245E-14  0.12500000000E+03  0.12500000000E+03 0.  0.
    3000001    1    3    3    0    0  0.10090882255E+01 -0.54646701392E+00 -0.29489576197E+01  0.33186196358E+01  0.10000000000E+01 0. -1.
    1000022    2    1    0    0    0  0.50357589603E+02 -0.10638004447E+02 -0.34017585039E+02  0.62500000320E+02  0.99999989419E+01 0.  0.
    3000022    2    3    3    0    0  0.49348501378E+02 -0.10091537433E+02 -0.31068627420E+02  0.59181380684E+02  0.24998794216E+00 0.  0.
    1000022    2    1    0    0    0 -0.50357589603E+02  0.10638004447E+02  0.34017585039E+02  0.62499999680E+02  0.99999949409E+01 0.  0.
    3000022    2    5    5    0    0 -0.40363337594E+02  0.97274704680E+01  0.22622353297E+02  0.47282724897E+02  0.25000317157E+00 0.  0.
        -13    1    4    4    0    0  0.37911543969E+02 -0.77618906026E+01 -0.23863834353E+02  0.45464554621E+02  0.10500000000E+00 0.  1.
         13    1    4    4    0    0  0.11436957409E+02 -0.23296468303E+01 -0.72047930662E+01  0.13716826063E+02  0.10500000000E+00 0. -1.
    3000001    1    5    5    0    0 -0.99942520093E+01  0.91053397875E+00  0.11395231742E+02  0.15217274782E+02  0.10000000000E+01 0.  1.
        -13    1    6    6    0    0 -0.12529891166E+02  0.30611807111E+01  0.70588589990E+01  0.14703996577E+02  0.10500000000E+00 0.  1.
         13    1    6    6    0    0 -0.27833446428E+02  0.66662897570E+01  0.15563494298E+02  0.32578728321E+02  0.10500000000E+00 0. -1.
</event>
<event>
11    0  0.3443539E-009  0.9118800E+02  0.7816531E-02  0.1126479E+00
         25   -1    0    0    0    0  0.00000000000E+00  0.00000000000E+00  0.99999998245E-14  0.12500000000E+03  0.12500000000E+03 0.  0.
    3000001    1    3    3    0    0  0.23293370089E+02  0.35153941772E+02 -0.19014725419E+02  0.46270298194E+02  0.10000000000E+01 0.  1.
    1000022    2    1    0    0    0  0.27767540007E+02  0.50425950605E+02 -0.22190928768E+02  0.62500000002E+02  0.99999954168E+01 0.  0.
    3000022    2    3    3    0    0  0.44741699178E+01  0.15272008832E+02 -0.31762033492E+01  0.16229701808E+02  0.25000569188E+00 0.  0.
    1000022    2    1    0    0    0 -0.27767540007E+02 -0.50425950605E+02  0.22190928768E+02  0.62499999998E+02  0.99999953860E+01 0.  0.
    3000022    2    5    5    0    0 -0.36400998866E+01 -0.31132807979E+01  0.43211103429E+01  0.64557986782E+01  0.24999493451E+00 0.  0.
        -13    1    4    4    0    0  0.32616640842E+01  0.10993603363E+02 -0.22841423432E+01  0.11692993575E+02  0.10500000000E+00 0. -1.
         13    1    4    4    0    0  0.12125058336E+01  0.42784054698E+01 -0.89206100601E+00  0.45367082338E+01  0.10500000000E+00 0.  1.
    3000001    1    5    5    0    0 -0.24127440120E+02 -0.47312669807E+02  0.17869818425E+02  0.56044201319E+02  0.10000000000E+01 0.  1.
        -13    1    6    6    0    0 -0.25762694602E+01 -0.21565955006E+01  0.30666333471E+01  0.45500916002E+01  0.10500000000E+00 0.  1.
         13    1    6    6    0    0 -0.10638304264E+01 -0.95668529732E+00  0.12544769958E+01  0.19057070780E+01  0.10500000000E+00 0. -1.
</event>
<event>
11    0  0.3443539E-009  0.9118800E+02  0.7816531E-02  0.1126479E+00
         25   -1    0    0    0    0  0.00000000000E+00  0.00000000000E+00  0.99999998245E-14  0.12500000000E+03  0.12500000000E+03 0.  0.
    3000001    1    3    3    0    0 -0.48558560659E+01 -0.25482197751E+02 -0.29979408264E+00  0.25961733703E+02  0.10000000000E+01 0. -1.
    1000022    2    1    0    0    0 -0.10115119281E+02 -0.59624545863E+02 -0.12200322714E+02  0.62499999492E+02  0.99999977365E+01 0.  0.
    3000022    2    3    3    0    0 -0.52592632148E+01 -0.34142348111E+02 -0.11900528631E+02  0.36538265789E+02  0.25000203236E+00 0.  0.
    1000022    2    1    0    0    0  0.10115119281E+02  0.59624545863E+02  0.12200322714E+02  0.62500000508E+02  0.10000004092E+02 0.  0.
    3000022    2    5    5    0    0  0.48197046407E+01  0.47689351400E+02  0.11959359596E+02  0.49402353915E+02  0.25000118202E+00 0.  0.
        -13    1    4    4    0    0 -0.21440057394E+01 -0.14339212329E+02 -0.50050355847E+01  0.15338551986E+02  0.10500000000E+00 0. -1.
         13    1    4    4    0    0 -0.31152574754E+01 -0.19803135782E+02 -0.68954930467E+01  0.21199713802E+02  0.10500000000E+00 0.  1.
    3000001    1    5    5    0    0  0.52954146400E+01  0.11935194462E+02  0.24096311816E+00  0.13097646594E+02  0.10000000000E+01 0.  1.
        -13    1    6    6    0    0  0.26091278796E+01  0.25601609229E+02  0.64863879878E+01  0.26539295347E+02  0.10500000000E+00 0. -1.
         13    1    6    6    0    0  0.22105767611E+01  0.22087742172E+02  0.54729716082E+01  0.22863058568E+02  0.10500000000E+00 0.  1.
</event>
<event>
11    0  0.3443539E-009  0.9118800E+02  0.7816531E-02  0.1126479E+00
         25   -1    0    0    0    0  0.00000000000E+00  0.00000000000E+00  0.99999998245E-14  0.12500000000E+03  0.12500000000E+03 0.  0.
    3000001    1    3    3    0    0  0.19114146162E+02  0.44817420754E+02  0.32803547644E+02  0.58745421308E+02  0.10000000000E+01 0. -1.
    1000022    2    1    0    0    0  0.21568120493E+02  0.47646909043E+02  0.32723662839E+02  0.62500001820E+02  0.10000017749E+02 0.  0.
    3000022    2    3    3    0    0  0.24539743315E+01  0.28294882889E+01 -0.79884805321E-01  0.37545805128E+01  0.24999849702E+00 0.  0.
    1000022    2    1    0    0    0 -0.21568120493E+02 -0.47646909043E+02 -0.32723662839E+02  0.62499998180E+02  0.99999949938E+01 0.  0.
    3000022    2    5    5    0    0 -0.47109704094E+01 -0.22215492652E+02 -0.13351471950E+02  0.26344746439E+02  0.25001143839E+00 0.  0.
        -13    1    4    4    0    0  0.97404037866E+00  0.12047431136E+01 -0.68713934249E-01  0.15543188970E+01  0.10500000000E+00 0. -1.
         13    1    4    4    0    0  0.14799339528E+01  0.16247451753E+01 -0.11170871072E-01  0.22002616158E+01  0.10500000000E+00 0.  1.
    3000001    1    5    5    0    0 -0.16857150084E+02 -0.25431416391E+02 -0.19372190888E+02  0.36155251741E+02  0.10000000000E+01 0. -1.
        -13    1    6    6    0    0 -0.20314211245E+01 -0.98447531794E+01 -0.59528386525E+01  0.11683028288E+02  0.10500000000E+00 0.  1.
         13    1    6    6    0    0 -0.26795492849E+01 -0.12370739473E+02 -0.73986332978E+01  0.14661718151E+02  0.10500000000E+00 0. -1.
</event>
<event>
11    0  0.3443539E-009  0.9118800E+02  0.7816531E-02  0.1126479E+00
         25   -1    0    0    0    0  0.00000000000E+00  0.00000000000E+00  0.99999998245E-14  0.12500000000E+03  0.12500000000E+03 0.  0.
    3000001    1    3    3    0    0  0.49854737272E+01 -0.27388260757E+01 -0.25413620220E+00  0.57810640687E+01  0.10000000000E+01 0. -1.
    1000022    2    1    0    0    0  0.34295954906E+02 -0.51247362457E+02  0.19351747965E+01  0.62500002607E+02  0.10000037134E+02 0.  0.
    3000022    2    3    3    0    0  0.29310481179E+02 -0.48508536382E+02  0.21893109987E+01  0.56718938539E+02  0.24999495536E+00 0.  0.
    1000022    2    1    0    0    0 -0.34295954906E+02  0.51247362457E+02 -0.19351747965E+01  0.62499997393E+02  0.10000004542E+02 0.  0.
    3000022    2    5    5    0    0 -0.16290291953E+02  0.27282664348E+02 -0.56619123024E+01  0.32277502024E+02  0.25000033410E+00 0.  0.
        -13    1    4    4    0    0  0.15855881643E+02 -0.26194753386E+02  0.11201525091E+01  0.30640493701E+02  0.10500000000E+00 0. -1.
         13    1    4    4    0    0  0.13454599536E+02 -0.22313782996E+02  0.10691584896E+01  0.26078444837E+02  0.10500000000E+00 0.  1.
    3000001    1    5    5    0    0 -0.18005662953E+02  0.23964698109E+02  0.37267375058E+01  0.30222495368E+02  0.10000000000E+01 0. -1.
        -13    1    6    6    0    0 -0.55947786046E+01  0.92742262953E+01 -0.19049549446E+01  0.10997849760E+02  0.10500000000E+00 0. -1.
         13    1    6    6    0    0 -0.10695513348E+02  0.18008438053E+02 -0.37569573578E+01  0.21279652264E+02  0.10500000000E+00 0.  1.
</event>
<event>
11    0  0.3443539E-009  0.9118800E+02  0.7816531E-02  0.1126479E+00
         25   -1    0    0    0    0  0.00000000000E+00  0.00000000000E+00  0.99999998245E-14  0.12500000000E+03  0.12500000000E+03 0.  0.
    3000001    1    3    3    0    0 -0.36417892044E+02  0.22254513007E+01 -0.41296158092E+02  0.55114319079E+02  0.10000000000E+01 0. -1.
    1000022    2    1    0    0    0 -0.42299148901E+02  0.52137971316E+01 -0.44607714467E+02  0.62500000898E+02  0.10000012202E+02 0.  0.
    3000022    2    3    3    0    0 -0.58812568573E+01  0.29883458309E+01 -0.33115563756E+01  0.73856818196E+01  0.24999456979E+00 0.  0.
    1000022    2    1    0    0    0  0.42299148901E+02 -0.52137971316E+01  0.44607714467E+02  0.62499999102E+02  0.10000000971E+02 0.  0.
    3000022    2    5    5    0    0  0.29969507472E+02 -0.81256151296E+01  0.30880077052E+02  0.43793134831E+02  0.25000054133E+00 0.  0.
        -13    1    4    4    0    0 -0.26903923576E+01  0.13234684122E+01 -0.14443013738E+01  0.33296863417E+01  0.10500000000E+00 0. -1.
         13    1    4    4    0    0 -0.31908644997E+01  0.16648774187E+01 -0.18672550018E+01  0.40559954779E+01  0.10500000000E+00 0.  1.
    3000001    1    5    5    0    0  0.12329641429E+02  0.29118179980E+01  0.13727637416E+02  0.18706864271E+02  0.10000000000E+01 0. -1.
        -13    1    6    6    0    0  0.20627724867E+02 -0.55640856101E+01  0.21303430801E+02  0.30171331936E+02  0.10500000000E+00 0.  1.
         13    1    6    6    0    0  0.93417826044E+01 -0.25615295194E+01  0.95766462502E+01  0.13621802895E+02  0.10500000000E+00 0. -1.
</event>
<event>
11    0  0.3443539E-009  0.9118800E+02  0.7816531E-02  0.1126479E+00
         25   -1    0    0    0    0  0.00000000000E+00  0.00000000000E+00  0.99999998245E-14  0.12500000000E+03  0.12500000000E+03 0.  0.
    3000001    1    3    3    0    0 -0.36664222607E+01 -0.17700923305E-01 -0.74963899361E+01  0.84046908088E+01  0.10000000000E+01 0.  1.
    1000022    2    1    0    0    0 -0.19210112739E+02  0.22833078697E+02 -0.53998815332E+02  0.62500000299E+02  0.10000003292E+02 0.  0.
    3000022    2    3    3    0    0 -0.15543690479E+02  0.22850779620E+02 -0.46502425396E+02  0.54095309490E+02  0.24999633712E+00 0.  0.
    1000022    2    1    0    0    0  0.19210112739E+02 -0.22833078697E+02  0.53998815332E+02  0.62499999701E+02  0.99999995605E+01 0.  0.
    3000022    2    5    5    0    0  0.96794895364E+01 -0.18102702412E+02  0.39138041966E+02  0.44195578830E+02  0.25001367144E+00 0.  0.
        -13    1    4    4    0    0 -0.11209779779E+02  0.16542048710E+02 -0.33591625581E+02  0.39085890963E+02  0.10500000000E+00 0. -1.
         13    1    4    4    0    0 -0.43339106999E+01  0.63087309102E+01 -0.12910799815E+02  0.15009418527E+02  0.10500000000E+00 0.  1.
    3000001    1    5    5    0    0  0.95306232028E+01 -0.47303762854E+01  0.14860773365E+02  0.18304420872E+02  0.10000000000E+01 0. -1.
        -13    1    6    6    0    0  0.63634402730E+01 -0.11811378882E+02  0.25499499937E+02  0.28813843292E+02  0.10500000000E+00 0. -1.
         13    1    6    6    0    0  0.33160492634E+01 -0.62913235293E+01  0.13638542029E+02  0.15381735538E+02  0.10500000000E+00 0.  1.
</event>
<event>
11    0  0.3443539E-009  0.9118800E+02  0.7816531E-02  0.1126479E+00
         25   -1    0    0    0    0  0.00000000000E+00  0.00000000000E+00  0.99999998245E-14  0.12500000000E+03  0.12500000000E+03 0.  0.
    3000001    1    3    3    0    0 -0.17262286491E+00  0.27383871295E+00  0.33074765394E+00  0.11018985002E+01  0.10000000000E+01 0. -1.
    1000022    2    1    0    0    0  0.20059343746E+02  0.54413009226E+02  0.21049871317E+02  0.62499999785E+02  0.10000002303E+02 0.  0.
    3000022    2    3    3    0    0  0.20231966611E+02  0.54139170513E+02  0.20719123663E+02  0.61398101285E+02  0.24999835270E+00 0.  0.
    1000022    2    1    0    0    0 -0.20059343746E+02 -0.54413009226E+02 -0.21049871317E+02  0.62500000215E+02  0.10000004993E+02 0.  0.
    3000022    2    5    5    0    0 -0.11025945498E+02 -0.18261756995E+02 -0.49786850174E+01  0.21906917666E+02  0.24998887493E+00 0.  0.
        -13    1    4    4    0    0  0.14640316419E+02  0.39243563616E+02  0.15047015578E+02  0.44506402381E+02  0.10500000000E+00 0. -1.
         13    1    4    4    0    0  0.55916501919E+01  0.14895606897E+02  0.56721080852E+01  0.16891698903E+02  0.10500000000E+00 0.  1.
    3000001    1    5    5    0    0 -0.90333982475E+01 -0.36151252231E+02 -0.16071186300E+02  0.40593082549E+02  0.10000000000E+01 0.  1.
        -13    1    6    6    0    0 -0.36493147389E+01 -0.60148881269E+01 -0.16940307998E+01  0.72372054409E+01  0.10500000000E+00 0.  1.
         13    1    6    6    0    0 -0.73766307592E+01 -0.12246868868E+02 -0.32846542175E+01  0.14669712225E+02  0.10500000000E+00 0. -1.
</event>
<event>
11    0  0.3443539E-009  0.9118800E+02  0.7816531E-02  0.1126479E+00
         25   -1    0    0    0    0  0.00000000000E+00  0.00000000000E+00  0.99999998245E-14  0.12500000000E+03  0.12500000000E+03 0.  0.
    3000001    1    3    3    0    0  0.28765827407E+02  0.37234267385E+02  0.15520961768E+02  0.49555663131E+02  0.10000000000E+01 0. -1.
    1000022    2    1    0    0    0  0.38269884240E+02  0.46003848256E+02  0.15010401416E+02  0.62499998473E+02  0.99999782166E+01 0.  0.
    3000022    2    3    3    0    0  0.95040568331E+01  0.87695808715E+01 -0.51056035173E+00  0.12944335343E+02  0.25000129072E+00 0.  0.
    1000022    2    1    0    0    0 -0.38269884240E+02 -0.46003848256E+02 -0.15010401416E+02  0.62500001527E+02  0.99999972995E+01 0.  0.
    3000022    2    5    5    0    0 -0.19263951761E+02 -0.18105035889E+02 -0.10420240492E+02  0.28417179193E+02  0.24999876145E+00 0.  0.
        -13    1    4    4    0    0  0.31589462017E+01  0.29873442945E+01 -0.18077335769E+00  0.43528003683E+01  0.10500000000E+00 0. -1.
         13    1    4    4    0    0  0.63451106314E+01  0.57822365770E+01 -0.32978699405E+00  0.85915349745E+01  0.10500000000E+00 0.  1.
    3000001    1    5    5    0    0 -0.19005932480E+02 -0.27898812368E+02 -0.45901609241E+01  0.34082822334E+02  0.10000000000E+01 0. -1.
        -13    1    6    6    0    0 -0.79664355309E+01 -0.74139933847E+01 -0.43278028071E+01  0.11712057681E+02  0.10500000000E+00 0. -1.
         13    1    6    6    0    0 -0.11297516230E+02 -0.10691042504E+02 -0.60924376851E+01  0.16705121512E+02  0.10500000000E+00 0.  1.
</event>
<event>
11    0  0.3443539E-009  0.9118800E+02  0.7816531E-02  0.1126479E+00
         25   -1    0    0    0    0  0.00000000000E+00  0.00000000000E+00  0.99999998245E-14  0.12500000000E+03  0.12500000000E+03 0.  0.
    3000001    1    3    3    0    0  0.45427226665E+01 -0.39050736943E+02  0.44597385699E+02  0.59460265693E+02  0.10000000000E+01 0. -1.
    1000022    2    1    0    0    0  0.30909399604E+01 -0.39613478472E+02  0.47196064651E+02  0.62499999560E+02  0.99999919926E+01 0.  0.
    3000022    2    3    3    0    0 -0.14517827061E+01 -0.56274152926E+00  0.25986789522E+01  0.30397338671E+01  0.24999726284E+00 0.  0.
    1000022    2    1    0    0    0 -0.30909399604E+01  0.39613478472E+02 -0.47196064651E+02  0.62500000440E+02  0.99999974978E+01 0.  0.
    3000022    2    5    5    0    0 -0.10041311885E+01  0.17023321843E+02 -0.12972266457E+02  0.21427645867E+02  0.25008866148E+00 0.  0.
        -13    1    4    4    0    0 -0.73581788532E+00 -0.34427785580E+00  0.14270723982E+01  0.16454530781E+01  0.10500000000E+00 0.  1.
         13    1    4    4    0    0 -0.71596482080E+00 -0.21846367346E+00  0.11716065540E+01  0.13942807890E+01  0.10500000000E+00 0. -1.
    3000001    1    5    5    0    0 -0.20868087718E+01  0.22590156629E+02 -0.34223798194E+02  0.41072354573E+02  0.10000000000E+01 0.  1.
        -13    1    6    6    0    0 -0.23550858767E+00  0.39801211672E+01 -0.30505846156E+01  0.50213464626E+01  0.10500000000E+00 0.  1.
         13    1    6    6    0    0 -0.76862260087E+00  0.13043200676E+02 -0.99216818417E+01  0.16406299404E+02  0.10500000000E+00 0. -1.
</event>
<event>
11    0  0.3443539E-009  0.9118800E+02  0.7816531E-02  0.1126479E+00
         25   -1    0    0    0    0  0.00000000000E+00  0.00000000000E+00  0.99999998245E-14  0.12500000000E+03  0.12500000000E+03 0.  0.
    3000001    1    3    3    0    0  0.19552986367E+02 -0.90160268436E+00 -0.12931832648E+02  0.23481151141E+02  0.10000000000E+01 0. -1.
    1000022    2    1    0    0    0  0.56063267109E+02 -0.88018646899E+01 -0.24200973271E+02  0.62500002645E+02  0.10000024118E+02 0.  0.
    3000022    2    3    3    0    0  0.36510280742E+02 -0.79002620055E+01 -0.11269140624E+02  0.39018851504E+02  0.25000535616E+00 0.  0.
    1000022    2    1    0    0    0 -0.56063267109E+02  0.88018646899E+01  0.24200973271E+02  0.62499997355E+02  0.99999910554E+01 0.  0.
    3000022    2    5    5    0    0 -0.53301753983E+02  0.65773533267E+01  0.23956821615E+02  0.58807570567E+02  0.24999933274E+00 0.  0.
        -13    1    4    4    0    0  0.18034106097E+02 -0.38341965965E+01 -0.55485017657E+01  0.19254270776E+02  0.10500000000E+00 0.  1.
         13    1    4    4    0    0  0.18476174645E+02 -0.40660654090E+01 -0.57206388580E+01  0.19764580729E+02  0.10500000000E+00 0. -1.
    3000001    1    5    5    0    0 -0.27615131264E+01  0.22245113632E+01  0.24415165599E+00  0.36924267879E+01  0.10000000000E+01 0. -1.
        -13    1    6    6    0    0 -0.12385789236E+02  0.15263432608E+01  0.55788555885E+01  0.13670118998E+02  0.10500000000E+00 0.  1.
         13    1    6    6    0    0 -0.40915964747E+02  0.50510100658E+01  0.18377966027E+02  0.45137451569E+02  0.10500000000E+00 0. -1.
</event>
<event>
11    0  0.3443539E-009  0.9118800E+02  0.7816531E-02  0.1126479E+00
         25   -1    0    0    0    0  0.00000000000E+00  0.00000000000E+00  0.99999998245E-14  0.12500000000E+03  0.12500000000E+03 0.  0.
    3000001    1    3    3    0    0 -0.27483886735E+00  0.98599506192E+00  0.34731460991E+00  0.14725318684E+01  0.10000000000E+01 0. -1.
    1000022    2    1    0    0    0  0.29006526512E+02  0.35783203996E+02  0.41041850882E+02  0.62500000225E+02  0.10000011795E+02 0.  0.
    3000022    2    3    3    0    0  0.29281365380E+02  0.34797208934E+02  0.40694536272E+02  0.61027468357E+02  0.25000726264E+00 0.  0.
    1000022    2    1    0    0    0 -0.29006526512E+02 -0.35783203996E+02 -0.41041850882E+02  0.62499999775E+02  0.10000008978E+02 0.  0.
    3000022    2    5    5    0    0 -0.44665208909E+00 -0.52593195738E+01 -0.54278655950E+01  0.75752340015E+01  0.25000958123E+00 0.  0.
        -13    1    4    4    0    0  0.16341255847E+02  0.19380669148E+02  0.22601630175E+02  0.33963093070E+02  0.10500000000E+00 0.  1.
         13    1    4    4    0    0  0.12940109533E+02  0.15416539785E+02  0.18092906096E+02  0.27064375287E+02  0.10500000000E+00 0. -1.
    3000001    1    5    5    0    0 -0.28559874423E+02 -0.30523884422E+02 -0.35613985287E+02  0.54924765773E+02  0.10000000000E+01 0. -1.
        -13    1    6    6    0    0 -0.27498882120E+00 -0.29358614373E+01 -0.31190584295E+01  0.42935360389E+01  0.10500000000E+00 0. -1.
         13    1    6    6    0    0 -0.17166326789E+00 -0.23234581365E+01 -0.23088071656E+01  0.32816979626E+01  0.10500000000E+00 0.  1.
</event>
<event>
11    0  0.3443539E-009  0.9118800E+02  0.7816531E-02  0.1126479E+00
         25   -1    0    0    0    0  0.00000000000E+00  0.00000000000E+00  0.99999998245E-14  0.12500000000E+03  0.12500000000E+03 0.  0.
    3000001    1    3    3    0    0  0.51618050488E+00 -0.48084975044E+00 -0.13646409375E+01  0.18330040056E+01  0.10000000000E+01 0. -1.
    1000022    2    1    0    0    0  0.39348463321E+02 -0.44611073739E+02 -0.16364610440E+02  0.62500000329E+02  0.10000005024E+02 0.  0.
    3000022    2    3    3    0    0  0.38832282816E+02 -0.44130223988E+02 -0.14999969502E+02  0.60666996324E+02  0.24999983802E+00 0.  0.
    1000022    2    1    0    0    0 -0.39348463321E+02  0.44611073739E+02  0.16364610440E+02  0.62499999671E+02  0.10000000908E+02 0.  0.
    3000022    2    5    5    0    0 -0.25749273655E+02  0.35745768206E+02  0.11997990407E+02  0.45659602636E+02  0.25000143444E+00 0.  0.
        -13    1    4    4    0    0  0.98885959254E+01 -0.11238746774E+02 -0.38498598358E+01  0.15457237922E+02  0.10500000000E+00 0.  1.
         13    1    4    4    0    0  0.28943686890E+02 -0.32891477215E+02 -0.11150109666E+02  0.45209758402E+02  0.10500000000E+00 0. -1.
    3000001    1    5    5    0    0 -0.13599189666E+02  0.88653055326E+01  0.43666200330E+01  0.16840397034E+02  0.10000000000E+01 0.  1.
        -13    1    6    6    0    0 -0.13018240743E+02  0.18017645860E+02  0.61158607382E+01  0.23054824484E+02  0.10500000000E+00 0. -1.
         13    1    6    6    0    0 -0.12731032912E+02  0.17728122346E+02  0.58821296684E+01  0.22604778153E+02  0.10500000000E+00 0.  1.
</event>
<event>
11    0  0.3443539E-009  0.9118800E+02  0.7816531E-02  0.1126479E+00
         25   -1    0    0    0    0  0.00000000000E+00  0.00000000000E+00  0.99999998245E-14  0.12500000000E+03  0.12500000000E+03 0.  0.
    3000001    1    3    3    0    0  0.70805081423E+01  0.43160945905E+01 -0.47173336267E+02  0.47907055040E+02  0.10000000000E+01 0.  1.
    1000022    2    1    0    0    0  0.11274291135E+02  0.10390244352E+02 -0.59759377494E+02  0.62500000030E+02  0.99999993496E+01 0.  0.
    3000022    2    3    3    0    0  0.41937829925E+01  0.60741497619E+01 -0.12586041227E+02  0.14592944990E+02  0.24999717939E+00 0.  0.
    1000022    2    1    0    0    0 -0.11274291135E+02 -0.10390244352E+02  0.59759377494E+02  0.62499999970E+02  0.99999989721E+01 0.  0.
    3000022    2    5    5    0    0 -0.60459418267E+01 -0.74996232271E+01  0.50663272686E+02  0.51571576037E+02  0.24998908912E+00 0.  0.
        -13    1    4    4    0    0  0.14656868862E+01  0.20952117890E+01 -0.42560821512E+01  0.49662270152E+01  0.10500000000E+00 0.  1.
         13    1    4    4    0    0  0.27280961063E+01  0.39789379729E+01 -0.83299590758E+01  0.96267179746E+01  0.10500000000E+00 0. -1.
    3000001    1    5    5    0    0 -0.52283493081E+01 -0.28906211254E+01  0.90961048080E+01  0.10928423933E+02  0.10000000000E+01 0. -1.
        -13    1    6    6    0    0 -0.36137269661E+01 -0.44106614502E+01  0.29743029247E+02  0.30284843913E+02  0.10500000000E+00 0.  1.
         13    1    6    6    0    0 -0.24322148606E+01 -0.30889617768E+01  0.20920243439E+02  0.21286732124E+02  0.10500000000E+00 0. -1.
</event>
<event>
11    0  0.3443539E-009  0.9118800E+02  0.7816531E-02  0.1126479E+00
         25   -1    0    0    0    0  0.00000000000E+00  0.00000000000E+00  0.99999998245E-14  0.12500000000E+03  0.12500000000E+03 0.  0.
    3000001    1    3    3    0    0 -0.51631178785E+01  0.19569742994E+02  0.10302416809E+02  0.22732628955E+02  0.10000000000E+01 0. -1.
    1000022    2    1    0    0    0 -0.15848803294E+01  0.55995938693E+02  0.25849432566E+02  0.62499998950E+02  0.99999854497E+01 0.  0.
    3000022    2    3    3    0    0  0.35782375491E+01  0.36426195699E+02  0.15547015757E+02  0.39767369995E+02  0.25000069024E+00 0.  0.
    1000022    2    1    0    0    0  0.15848803294E+01 -0.55995938693E+02 -0.25849432566E+02  0.62500001050E+02  0.99999985717E+01 0.  0.
    3000022    2    5    5    0    0  0.40564606488E+01 -0.96345786673E+01 -0.43165914578E+01  0.11312623124E+02  0.25000207598E+00 0.  0.
        -13    1    4    4    0    0  0.14806013628E+01  0.14563286359E+02  0.62599219253E+01  0.15921028154E+02  0.10500000000E+00 0. -1.
         13    1    4    4    0    0  0.20976361863E+01  0.21862909340E+02  0.92870938315E+01  0.23846341841E+02  0.10500000000E+00 0.  1.
    3000001    1    5    5    0    0 -0.24715803194E+01 -0.46361360026E+02 -0.21532841108E+02  0.51187377926E+02  0.10000000000E+01 0.  1.
        -13    1    6    6    0    0  0.12061324585E+01 -0.28540000991E+01 -0.13282081138E+01  0.33727190613E+01  0.10500000000E+00 0.  1.
         13    1    6    6    0    0  0.28503281903E+01 -0.67805785681E+01 -0.29883833440E+01  0.79399040625E+01  0.10500000000E+00 0. -1.
</event>
<event>
11    0  0.3443539E-009  0.9118800E+02  0.7816531E-02  0.1126479E+00
         25   -1    0    0    0    0  0.00000000000E+00  0.00000000000E+00  0.99999998245E-14  0.12500000000E+03  0.12500000000E+03 0.  0.
    3000001    1    3    3    0    0  0.18376230991E+02 -0.33525702331E+01  0.14749600478E+02  0.23821761204E+02  0.10000000000E+01 0. -1.
    1000022    2    1    0    0    0  0.51722443940E+02 -0.16424521418E+02  0.29347469871E+02  0.62499999421E+02  0.99999914438E+01 0.  0.
    3000022    2    3    3    0    0  0.33346212949E+02 -0.13071951185E+02  0.14597869392E+02  0.38678238217E+02  0.24998986450E+00 0.  0.
    1000022    2    1    0    0    0 -0.51722443940E+02  0.16424521418E+02 -0.29347469871E+02  0.62500000579E+02  0.99999986815E+01 0.  0.
    3000022    2    5    5    0    0 -0.22612179950E+02  0.90199094953E+01 -0.18389471114E+02  0.30510729190E+02  0.24999682497E+00 0.  0.
        -13    1    4    4    0    0  0.20118435779E+02 -0.79414386703E+01  0.87761187741E+01  0.23342004886E+02  0.10500000000E+00 0.  1.
         13    1    4    4    0    0  0.13227777170E+02 -0.51305125149E+01  0.58217506183E+01  0.15336233331E+02  0.10500000000E+00 0. -1.
    3000001    1    5    5    0    0 -0.29110263990E+02  0.74046119230E+01 -0.10957998756E+02  0.31989271389E+02  0.10000000000E+01 0. -1.
        -13    1    6    6    0    0 -0.91761971310E+01  0.37063402781E+01 -0.74164816450E+01  0.12367488712E+02  0.10500000000E+00 0. -1.
         13    1    6    6    0    0 -0.13435982819E+02  0.53135692172E+01 -0.10972989469E+02  0.18143240478E+02  0.10500000000E+00 0.  1.
</event>
<event>
11    0  0.3443539E-009  0.9118800E+02  0.7816531E-02  0.1126479E+00
         25   -1    0    0    0    0  0.00000000000E+00  0.00000000000E+00  0.99999998245E-14  0.12500000000E+03  0.12500000000E+03 0.  0.
    3000001    1    3    3    0    0  0.79859817579E+00  0.46781183061E+02  0.79480275467E+01  0.47468810703E+02  0.10000000000E+01 0.  1.
    1000022    2    1    0    0    0 -0.11946471042E+01  0.61450276975E+02  0.53559564413E+01  0.62500000384E+02  0.10000002830E+02 0.  0.
    3000022    2    3    3    0    0 -0.19932452800E+01  0.14669093914E+02 -0.25920711054E+01  0.15031189682E+02  0.24997524269E+00 0.  0.
    1000022    2    1    0    0    0  0.11946471042E+01 -0.61450276975E+02 -0.53559564413E+01  0.62499999616E+02  0.99999980243E+01 0.  0.
    3000022    2    5    5    0    0 -0.22921082685E+01 -0.46781131528E+02 -0.67630354526E+01  0.47323664006E+02  0.24999815269E+00 0.  0.
        -13    1    4    4    0    0 -0.12807563089E+01  0.97929368400E+01 -0.17086934081E+01  0.10023602488E+02  0.10500000000E+00 0.  1.
         13    1    4    4    0    0 -0.71248897103E+00  0.48761570743E+01 -0.88337769731E+00  0.50075871938E+01  0.10500000000E+00 0. -1.
    3000001    1    5    5    0    0  0.34867553727E+01 -0.14669145447E+02  0.14070790113E+01  0.15176335610E+02  0.10000000000E+01 0.  1.
        -13    1    6    6    0    0 -0.15434012958E+01 -0.30886187257E+02 -0.44191161140E+01  0.31239050290E+02  0.10500000000E+00 0. -1.
         13    1    6    6    0    0 -0.74870697271E+00 -0.15894944271E+02 -0.23439193386E+01  0.16084613716E+02  0.10500000000E+00 0.  1.
</event>
<event>
11    0  0.3443539E-009  0.9118800E+02  0.7816531E-02  0.1126479E+00
         25   -1    0    0    0    0  0.00000000000E+00  0.00000000000E+00  0.99999998245E-14  0.12500000000E+03  0.12500000000E+03 0.  0.
    3000001    1    3    3    0    0  0.37492729137E+02 -0.26185913728E+02 -0.12865316684E+02  0.47517609255E+02  0.10000000000E+01 0. -1.
    1000022    2    1    0    0    0  0.51840773445E+02 -0.29762751303E+02 -0.15263115517E+02  0.62500001644E+02  0.10000017682E+02 0.  0.
    3000022    2    3    3    0    0  0.14348044308E+02 -0.35768375758E+01 -0.23977988328E+01  0.14982392389E+02  0.24999989422E+00 0.  0.
    1000022    2    1    0    0    0 -0.51840773445E+02  0.29762751303E+02  0.15263115517E+02  0.62499998356E+02  0.99999971322E+01 0.  0.
    3000022    2    5    5    0    0 -0.10828391322E+02  0.77071816245E+01  0.75508647553E+01  0.15288321272E+02  0.25000307468E+00 0.  0.
        -13    1    4    4    0    0  0.51912892411E+01 -0.12623125308E+01 -0.91648064271E+00  0.54216121845E+01  0.10500000000E+00 0. -1.
         13    1    4    4    0    0  0.91567550671E+01 -0.23145250450E+01 -0.14813181901E+01  0.95607802048E+01  0.10500000000E+00 0.  1.
    3000001    1    5    5    0    0 -0.41012382124E+02  0.22055569679E+02  0.77122507617E+01  0.47211677084E+02  0.10000000000E+01 0. -1.
        -13    1    6    6    0    0 -0.75041311495E+01  0.53059191204E+01  0.51763252498E+01  0.10548465771E+02  0.10500000000E+00 0.  1.
         13    1    6    6    0    0 -0.33242601723E+01  0.24012625040E+01  0.23745395056E+01  0.47398555010E+01  0.10500000000E+00 0. -1.
</event>
<event>
11    0  0.3443539E-009  0.9118800E+02  0.7816531E-02  0.1126479E+00
         25   -1    0    0    0    0  0.00000000000E+00  0.00000000000E+00  0.99999998245E-14  0.12500000000E+03  0.12500000000E+03 0.  0.
    3000001    1    3    3    0    0  0.17054229573E+02  0.38288150789E+01 -0.11432024781E+01  0.17544614078E+02  0.10000000000E+01 0. -1.
    1000022    2    1    0    0    0  0.61645395132E+02 -0.18559828220E+01 -0.16281148456E+01  0.62499998773E+02  0.99999837708E+01 0.  0.
    3000022    2    3    3    0    0  0.44591165559E+02 -0.56847979010E+01 -0.48491236753E+00  0.44955384695E+02  0.24999992590E+00 0.  0.
    1000022    2    1    0    0    0 -0.61645395132E+02  0.18559828220E+01  0.16281148456E+01  0.62500001227E+02  0.99999991116E+01 0.  0.
    3000022    2    5    5    0    0 -0.14033257256E+01  0.16630967957E+01  0.45917324689E+00  0.22379853644E+01  0.25004874882E+00 0.  0.
        -13    1    4    4    0    0  0.13604619633E+02 -0.17677512793E+01 -0.18167793085E+00  0.13720592254E+02  0.10500000000E+00 0.  1.
         13    1    4    4    0    0  0.30986545927E+02 -0.39170466216E+01 -0.30323443668E+00  0.31234792441E+02  0.10500000000E+00 0. -1.
    3000001    1    5    5    0    0 -0.60242069406E+02  0.19288602638E+00  0.11689415987E+01  0.60262015863E+02  0.10000000000E+01 0.  1.
        -13    1    6    6    0    0 -0.70948457137E+00  0.89053356542E+00  0.17918798516E+00  0.11573900476E+01  0.10500000000E+00 0.  1.
         13    1    6    6    0    0 -0.69384115424E+00  0.77256323024E+00  0.27998526173E+00  0.10805953169E+01  0.10500000000E+00 0. -1.
</event>
<event>
11    0  0.3443539E-009  0.9118800E+02  0.7816531E-02  0.1126479E+00
         25   -1    0    0    0    0  0.00000000000E+00  0.00000000000E+00  0.99999998245E-14  0.12500000000E+03  0.12500000000E+03 0.  0.
    3000001    1    3    3    0    0  0.33996355771E+02 -0.31977426563E+01  0.20581381792E+02  0.39881963847E+02  0.10000000000E+01 0.  1.
    1000022    2    1    0    0    0  0.56024821066E+02 -0.27624247787E+01  0.25687307635E+02  0.62500004530E+02  0.10000061324E+02 0.  0.
    3000022    2    3    3    0    0  0.22028465295E+02  0.43531787757E+00  0.51059258430E+01  0.22618040683E+02  0.25000138925E+00 0.  0.
    1000022    2    1    0    0    0 -0.56024821066E+02  0.27624247787E+01 -0.25687307635E+02  0.62499995470E+02  0.10000004704E+02 0.  0.
    3000022    2    5    5    0    0 -0.55583211719E+02  0.33808852786E+01 -0.25428567153E+02  0.61217630919E+02  0.24999516767E+00 0.  0.
        -13    1    4    4    0    0  0.16430822592E+02  0.34821581091E+00  0.38252209210E+01  0.16874137767E+02  0.10500000000E+00 0.  1.
         13    1    4    4    0    0  0.55976427034E+01  0.87102066661E-01  0.12807049219E+01  0.57439029155E+01  0.10500000000E+00 0. -1.
    3000001    1    5    5    0    0 -0.44160934697E+00 -0.61846049984E+00 -0.25874048173E+00  0.12823645512E+01  0.10000000000E+01 0.  1.
        -13    1    6    6    0    0 -0.37230216697E+02  0.23168268366E+01 -0.17024256729E+02  0.41003573796E+02  0.10500000000E+00 0.  1.
         13    1    6    6    0    0 -0.18352995022E+02  0.10640584420E+01 -0.84043104242E+01  0.20214057123E+02  0.10500000000E+00 0. -1.
</event>
<event>
11    0  0.3443539E-009  0.9118800E+02  0.7816531E-02  0.1126479E+00
         25   -1    0    0    0    0  0.00000000000E+00  0.00000000000E+00  0.99999998245E-14  0.12500000000E+03  0.12500000000E+03 0.  0.
    3000001    1    3    3    0    0 -0.12507698840E+01 -0.95460433070E+00  0.52000926942E+02  0.52034335755E+02  0.10000000000E+01 0. -1.
    1000022    2    1    0    0    0  0.27038544809E+01 -0.23091653032E+01  0.61592263347E+02  0.62499999676E+02  0.99999990892E+01 0.  0.
    3000022    2    3    3    0    0  0.39546243649E+01 -0.13545609725E+01  0.95913364055E+01  0.10465663920E+02  0.24999589890E+00 0.  0.
    1000022    2    1    0    0    0 -0.27038544809E+01  0.23091653032E+01 -0.61592263347E+02  0.62500000324E+02  0.10000003145E+02 0.  0.
    3000022    2    5    5    0    0 -0.12806244606E+01 -0.19019896495E+01 -0.32788212228E+01  0.40088305457E+01  0.24998019278E+00 0.  0.
        -13    1    4    4    0    0  0.10351788085E+01 -0.34762330497E+00  0.25929168449E+01  0.28154360039E+01  0.10500000000E+00 0. -1.
         13    1    4    4    0    0  0.29194455564E+01 -0.10069376675E+01  0.69984195606E+01  0.76502279162E+01  0.10500000000E+00 0.  1.
    3000001    1    5    5    0    0 -0.14232300203E+01  0.42111549527E+01 -0.58313442124E+02  0.58491169779E+02  0.10000000000E+01 0. -1.
        -13    1    6    6    0    0 -0.87406010313E+00 -0.12354922262E+01 -0.20837691678E+01  0.25775067506E+01  0.10500000000E+00 0.  1.
         13    1    6    6    0    0 -0.40656435751E+00 -0.66649742328E+00 -0.11950520551E+01  0.14313237951E+01  0.10500000000E+00 0. -1.
</event>
<event>
11    0  0.3443539E-009  0.9118800E+02  0.7816531E-02  0.1126479E+00
         25   -1    0    0    0    0  0.00000000000E+00  0.00000000000E+00  0.99999998245E-14  0.12500000000E+03  0.12500000000E+03 0.  0.
    3000001    1    3    3    0    0 -0.54045021443E+02  0.23602682767E+01 -0.22633941227E+02  0.58649215720E+02  0.10000000000E+01 0. -1.
    1000022    2    1    0    0    0 -0.57469205565E+02  0.62828363075E+00 -0.22430903146E+02  0.62499999196E+02  0.10000007748E+02 0.  0.
    3000022    2    3    3    0    0 -0.34241841226E+01 -0.17319846460E+01  0.20303808133E+00  0.38507834764E+01  0.25000240019E+00 0.  0.
    1000022    2    1    0    0    0  0.57469205565E+02 -0.62828363075E+00  0.22430903146E+02  0.62500000804E+02  0.10000017798E+02 0.  0.
    3000022    2    5    5    0    0  0.33367940818E+02 -0.50732926213E+01  0.11639429689E+02  0.35702893372E+02  0.24999843186E+00 0.  0.
        -13    1    4    4    0    0 -0.18771841272E+01 -0.98774649046E+00  0.54979282035E-01  0.21245025531E+01  0.10500000000E+00 0.  1.
         13    1    4    4    0    0 -0.15469999955E+01 -0.74423815552E+00  0.14805879929E+00  0.17262809233E+01  0.10500000000E+00 0. -1.
    3000001    1    5    5    0    0  0.24101264747E+02  0.44450089906E+01  0.10791473456E+02  0.26797107432E+02  0.10000000000E+01 0. -1.
        -13    1    6    6    0    0  0.15145039023E+02 -0.22372421620E+01  0.52972941981E+01  0.16200302785E+02  0.10500000000E+00 0. -1.
         13    1    6    6    0    0  0.18222901795E+02 -0.28360504594E+01  0.63421354912E+01  0.19502590588E+02  0.10500000000E+00 0.  1.
</event>
<event>
11    0  0.3443539E-009  0.9118800E+02  0.7816531E-02  0.1126479E+00
         25   -1    0    0    0    0  0.00000000000E+00  0.00000000000E+00  0.99999998245E-14  0.12500000000E+03  0.12500000000E+03 0.  0.
    3000001    1    3    3    0    0 -0.23522489701E+02  0.32908757664E+01  0.23199464524E+02  0.33216750884E+02  0.10000000000E+01 0. -1.
    1000022    2    1    0    0    0 -0.37035317102E+02  0.42303941264E+01  0.49160339969E+02  0.62500001223E+02  0.10000008982E+02 0.  0.
    3000022    2    3    3    0    0 -0.13512827401E+02  0.93951836001E+00  0.25960875445E+02  0.29283250339E+02  0.24999487879E+00 0.  0.
    1000022    2    1    0    0    0  0.37035317102E+02 -0.42303941264E+01 -0.49160339969E+02  0.62499998777E+02  0.99999936943E+01 0.  0.
    3000022    2    5    5    0    0  0.35453160907E+02 -0.20759417652E+01 -0.47057017721E+02  0.58954741709E+02  0.25000114194E+00 0.  0.
        -13    1    4    4    0    0 -0.64659972822E+01  0.41308390198E+00  0.12540966582E+02  0.14116183159E+02  0.10500000000E+00 0. -1.
         13    1    4    4    0    0 -0.70468301188E+01  0.52643445803E+00  0.13419908863E+02  0.15167067180E+02  0.10500000000E+00 0.  1.
    3000001    1    5    5    0    0  0.15821561953E+01 -0.21544523612E+01 -0.21033222479E+01  0.35452570684E+01  0.10000000000E+01 0. -1.
        -13    1    6    6    0    0  0.14274007715E+02 -0.85636602059E+00 -0.19047140072E+02  0.23817750292E+02  0.10500000000E+00 0. -1.
         13    1    6    6    0    0  0.21179153192E+02 -0.12195757446E+01 -0.28009877649E+02  0.35136991417E+02  0.10500000000E+00 0.  1.
</event>
<event>
11    0  0.3443539E-009  0.9118800E+02  0.7816531E-02  0.1126479E+00
         25   -1    0    0    0    0  0.00000000000E+00  0.00000000000E+00  0.99999998245E-14  0.12500000000E+03  0.12500000000E+03 0.  0.
    3000001    1    3    3    0    0 -0.12531374237E+00 -0.18938690794E+02 -0.36869773885E+02  0.41461668307E+02  0.10000000000E+01 0. -1.
    1000022    2    1    0    0    0 -0.59768723106E+01 -0.31439557671E+02 -0.52745434797E+02  0.62500003297E+02  0.10000036547E+02 0.  0.
    3000022    2    3    3    0    0 -0.58515585683E+01 -0.12500866878E+02 -0.15875660912E+02  0.21038334989E+02  0.25003868233E+00 0.  0.
    1000022    2    1    0    0    0  0.59768723106E+01  0.31439557671E+02  0.52745434797E+02  0.62499996703E+02  0.99999953382E+01 0.  0.
    3000022    2    5    5    0    0  0.10979806796E+01  0.36559280080E+00  0.12992358303E+00  0.11910504013E+01  0.25000250440E+00 0.  0.
        -13    1    4    4    0    0 -0.17215818139E+01 -0.36400626561E+01 -0.46941240126E+01  0.61854446346E+01  0.10500000000E+00 0.  1.
         13    1    4    4    0    0 -0.41299767544E+01 -0.88608042218E+01 -0.11181536900E+02  0.14852890355E+02  0.10500000000E+00 0. -1.
    3000001    1    5    5    0    0  0.48788916311E+01  0.31073964871E+02  0.52615511214E+02  0.61308946302E+02  0.10000000000E+01 0.  1.
        -13    1    6    6    0    0  0.28478052811E+00  0.76334771567E-01  0.60859390395E-01  0.31883508580E+00  0.10500000000E+00 0. -1.
         13    1    6    6    0    0  0.81320015146E+00  0.28925802924E+00  0.69064192640E-01  0.87221531546E+00  0.10500000000E+00 0.  1.
</event>
<event>
11    0  0.3443539E-009  0.9118800E+02  0.7816531E-02  0.1126479E+00
         25   -1    0    0    0    0  0.00000000000E+00  0.00000000000E+00  0.99999998245E-14  0.12500000000E+03  0.12500000000E+03 0.  0.
    3000001    1    3    3    0    0 -0.73933443784E+01 -0.43794540883E+02 -0.43217845385E+02  0.61979073178E+02  0.10000000000E+01 0.  1.
    1000022    2    1    0    0    0 -0.71109958788E+01 -0.43435458040E+02 -0.43232447436E+02  0.62500001921E+02  0.10000022564E+02 0.  0.
    3000022    2    3    3    0    0  0.28234849959E+00  0.35908284322E+00 -0.14602051306E-01  0.52092874326E+00  0.24998474380E+00 0.  0.
    1000022    2    1    0    0    0  0.71109958788E+01  0.43435458040E+02  0.43232447436E+02  0.62499998079E+02  0.99999985460E+01 0.  0.
    3000022    2    5    5    0    0  0.83849959216E+00  0.52519297041E+01  0.13978852832E+01  0.55047646251E+01  0.25000625897E+00 0.  0.
        -13    1    4    4    0    0  0.91254259184E-01  0.19660327831E+00 -0.52157117859E-01  0.24642555429E+00  0.10500000000E+00 0. -1.
         13    1    4    4    0    0  0.19109424041E+00  0.16247956491E+00  0.37555066553E-01  0.27450318897E+00  0.10500000000E+00 0.  1.
    3000001    1    5    5    0    0  0.62724962866E+01  0.38183528336E+02  0.41834562153E+02  0.56995233453E+02  0.10000000000E+01 0.  1.
        -13    1    6    6    0    0  0.49363754754E+00  0.29770289364E+01  0.85824040802E+00  0.31391051136E+01  0.10500000000E+00 0.  1.
         13    1    6    6    0    0  0.34486204461E+00  0.22749007677E+01  0.53964487519E+00  0.23656595115E+01  0.10500000000E+00 0. -1.
</event>
<event>
11    0  0.3443539E-009  0.9118800E+02  0.7816531E-02  0.1126479E+00
         25   -1    0    0    0    0  0.00000000000E+00  0.00000000000E+00  0.99999998245E-14  0.12500000000E+03  0.12500000000E+03 0.  0.
    3000001    1    3    3    0    0 -0.17145572970E+02 -0.28677825908E+02 -0.33714314275E+02  0.47476766511E+02  0.10000000000E+01 0. -1.
    1000022    2    1    0    0    0 -0.24800112135E+02 -0.40068771074E+02 -0.39820823805E+02  0.62499999622E+02  0.99999983462E+01 0.  0.
    3000022    2    3    3    0    0 -0.76545391645E+01 -0.11390945166E+02 -0.61065095301E+01  0.15023233111E+02  0.24994572680E+00 0.  0.
    1000022    2    1    0    0    0  0.24800112135E+02  0.40068771074E+02  0.39820823805E+02  0.62500000378E+02  0.10000003072E+02 0.  0.
    3000022    2    5    5    0    0  0.18082639370E+02  0.33219883881E+02  0.27071048158E+02  0.46512865701E+02  0.24999138266E+00 0.  0.
        -13    1    4    4    0    0 -0.44859382554E+01 -0.66633173867E+01 -0.35039781229E+01  0.87642642767E+01  0.10500000000E+00 0.  1.
         13    1    4    4    0    0 -0.31686009091E+01 -0.47276277797E+01 -0.26025314072E+01  0.62589688344E+01  0.10500000000E+00 0. -1.
    3000001    1    5    5    0    0  0.67174727641E+01  0.68488871934E+01  0.12749775647E+02  0.15987134677E+02  0.10000000000E+01 0.  1.
        -13    1    6    6    0    0  0.43582752822E+01  0.79665059035E+01  0.65033897611E+01  0.11169820192E+02  0.10500000000E+00 0. -1.
         13    1    6    6    0    0  0.13724364088E+02  0.25253377977E+02  0.20567658397E+02  0.35343045509E+02  0.10500000000E+00 0.  1.
</event>
<event>
11    0  0.3443539E-009  0.9118800E+02  0.7816531E-02  0.1126479E+00
         25   -1    0    0    0    0  0.00000000000E+00  0.00000000000E+00  0.99999998245E-14  0.12500000000E+03  0.12500000000E+03 0.  0.
    3000001    1    3    3    0    0  0.13293987030E+02  0.17848140148E+02  0.22466462858E+02  0.31639028924E+02  0.10000000000E+01 0.  1.
    1000022    2    1    0    0    0  0.29692971304E+02  0.26529286129E+02  0.47125092676E+02  0.62499999469E+02  0.10000000327E+02 0.  0.
    3000022    2    3    3    0    0  0.16398984274E+02  0.86811459808E+01  0.24658629818E+02  0.30860970545E+02  0.24999545218E+00 0.  0.
    1000022    2    1    0    0    0 -0.29692971304E+02 -0.26529286129E+02 -0.47125092676E+02  0.62500000531E+02  0.10000006960E+02 0.  0.
    3000022    2    5    5    0    0 -0.77490910717E+01 -0.10045372989E+02 -0.91928328038E+01  0.15669352328E+02  0.24999297601E+00 0.  0.
        -13    1    4    4    0    0  0.57727201607E+01  0.30314631214E+01  0.85784642253E+01  0.10775673537E+02  0.10500000000E+00 0. -1.
         13    1    4    4    0    0  0.10626264114E+02  0.56496828594E+01  0.16080165592E+02  0.20085297008E+02  0.10500000000E+00 0.  1.
    3000001    1    5    5    0    0 -0.21943880233E+02 -0.16483913140E+02 -0.37932259872E+02  0.46830648203E+02  0.10000000000E+01 0.  1.
        -13    1    6    6    0    0 -0.54170864071E+01 -0.69881129368E+01 -0.64575230610E+01  0.10949391611E+02  0.10500000000E+00 0. -1.
         13    1    6    6    0    0 -0.23320046646E+01 -0.30572600523E+01 -0.27353097428E+01  0.47199607172E+01  0.10500000000E+00 0.  1.
</event>
<event>
11    0  0.3443539E-009  0.9118800E+02  0.7816531E-02  0.1126479E+00
         25   -1    0    0    0    0  0.00000000000E+00  0.00000000000E+00  0.99999998245E-14  0.12500000000E+03  0.12500000000E+03 0.  0.
    3000001    1    3    3    0    0 -0.29045313671E+02  0.14614675139E+02  0.39778159302E+02  0.51385999388E+02  0.10000000000E+01 0. -1.
    1000022    2    1    0    0    0 -0.31189572027E+02  0.19450144238E+02  0.49549490366E+02  0.62500000348E+02  0.10000026690E+02 0.  0.
    3000022    2    3    3    0    0 -0.21442583559E+01  0.48354690995E+01  0.97713310642E+01  0.11114000960E+02  0.25000250620E+00 0.  0.
    1000022    2    1    0    0    0  0.31189572027E+02 -0.19450144238E+02 -0.49549490366E+02  0.62499999652E+02  0.10000022345E+02 0.  0.
    3000022    2    5    5    0    0  0.28619800618E+02 -0.14082257883E+02 -0.39418258834E+02  0.50707638508E+02  0.24999801239E+00 0.  0.
        -13    1    4    4    0    0 -0.12307224667E+01  0.27794866585E+01  0.54768686256E+01  0.62647696540E+01  0.10500000000E+00 0. -1.
         13    1    4    4    0    0 -0.91353588916E+00  0.20559824410E+01  0.42944624386E+01  0.48492313055E+01  0.10500000000E+00 0.  1.
    3000001    1    5    5    0    0  0.25697714091E+01 -0.53678863549E+01 -0.10131231532E+02  0.11792361145E+02  0.10000000000E+01 0. -1.
        -13    1    6    6    0    0  0.81483105540E+01 -0.39694220469E+01 -0.11233465271E+02  0.14434439486E+02  0.10500000000E+00 0. -1.
         13    1    6    6    0    0  0.20471490064E+02 -0.10112835836E+02 -0.28184793563E+02  0.36273199022E+02  0.10500000000E+00 0.  1.
</event>
<event>
11    0  0.3443539E-009  0.9118800E+02  0.7816531E-02  0.1126479E+00
         25   -1    0    0    0    0  0.00000000000E+00  0.00000000000E+00  0.99999998245E-14  0.12500000000E+03  0.12500000000E+03 0.  0.
    3000001    1    3    3    0    0  0.29005949304E+02  0.72750808099E+01  0.16549704651E+02  0.34193049292E+02  0.10000000000E+01 0.  1.
    1000022    2    1    0    0    0  0.47974914578E+02  0.10755973673E+02  0.37268842818E+02  0.62499999744E+02  0.99999962318E+01 0.  0.
    3000022    2    3    3    0    0  0.18968965273E+02  0.34808928632E+01  0.20719138166E+02  0.28306950452E+02  0.24999773492E+00 0.  0.
    1000022    2    1    0    0    0 -0.47974914578E+02 -0.10755973673E+02 -0.37268842818E+02  0.62500000256E+02  0.99999994338E+01 0.  0.
    3000022    2    5    5    0    0 -0.18172741005E+02 -0.90180161724E+01 -0.14347824180E+02  0.24849460535E+02  0.24999770514E+00 0.  0.
        -13    1    4    4    0    0  0.10528494185E+02  0.19994703950E+01  0.11516288229E+02  0.15731592139E+02  0.10500000000E+00 0. -1.
         13    1    4    4    0    0  0.84404710884E+01  0.14814224682E+01  0.92028499372E+01  0.12575358313E+02  0.10500000000E+00 0.  1.
    3000001    1    5    5    0    0 -0.29802173572E+02 -0.17379575008E+01 -0.22921018637E+02  0.37650539721E+02  0.10000000000E+01 0.  1.
        -13    1    6    6    0    0 -0.58759146541E+01 -0.29228266655E+01 -0.47043722356E+01  0.80753595504E+01  0.10500000000E+00 0.  1.
         13    1    6    6    0    0 -0.12296826351E+02 -0.60951895069E+01 -0.96434519446E+01  0.16774100985E+02  0.10500000000E+00 0. -1.
</event>
<event>
11    0  0.3443539E-009  0.9118800E+02  0.7816531E-02  0.1126479E+00
         25   -1    0    0    0    0  0.00000000000E+00  0.00000000000E+00  0.99999998245E-14  0.12500000000E+03  0.12500000000E+03 0.  0.
    3000001    1    3    3    0    0 -0.20088433526E+01 -0.37458817875E+00  0.26217089975E+00  0.22900876620E+01  0.10000000000E+01 0.  1.
    1000022    2    1    0    0    0 -0.37513506287E+02 -0.48833762691E+02 -0.37749619565E+01  0.62500000650E+02  0.10000010548E+02 0.  0.
    3000022    2    3    3    0    0 -0.35504662935E+02 -0.48459174513E+02 -0.40371328562E+01  0.60209912988E+02  0.24999163231E+00 0.  0.
    1000022    2    1    0    0    0  0.37513506287E+02  0.48833762691E+02  0.37749619565E+01  0.62499999350E+02  0.10000002419E+02 0.  0.
    3000022    2    5    5    0    0  0.18459698797E+02  0.17229049559E+02 -0.10186726671E+01  0.25272530930E+02  0.24999441101E+00 0.  0.
        -13    1    4    4    0    0 -0.26314837777E+02 -0.35958220246E+02 -0.29761596082E+01  0.44657953844E+02  0.10500000000E+00 0.  1.
         13    1    4    4    0    0 -0.91898251579E+01 -0.12500954266E+02 -0.10609732480E+01  0.15551959144E+02  0.10500000000E+00 0. -1.
    3000001    1    5    5    0    0  0.19053807490E+02  0.31604713133E+02  0.47936346236E+01  0.37227468420E+02  0.10000000000E+01 0. -1.
        -13    1    6    6    0    0  0.64560092636E+01  0.59641881259E+01 -0.38839407302E+00  0.87984925168E+01  0.10500000000E+00 0. -1.
         13    1    6    6    0    0  0.12003689534E+02  0.11264861433E+02 -0.63027859411E+00  0.16474038413E+02  0.10500000000E+00 0.  1.
</event>
<event>
11    0  0.3443539E-009  0.9118800E+02  0.7816531E-02  0.1126479E+00
         25   -1    0    0    0    0  0.00000000000E+00  0.00000000000E+00  0.99999998245E-14  0.12500000000E+03  0.12500000000E+03 0.  0.
    3000001    1    3    3    0    0  0.45182061834E-01 -0.16178702680E+01  0.54098503210E+00  0.19779308450E+01  0.10000000000E+01 0.  1.
    1000022    2    1    0    0    0 -0.31326728096E+02 -0.51043475362E+02 -0.14813848200E+02  0.62499997856E+02  0.99999681656E+01 0.  0.
    3000022    2    3    3    0    0 -0.31371910157E+02 -0.49425605094E+02 -0.15354833232E+02  0.60522067011E+02  0.25001174212E+00 0.  0.
    1000022    2    1    0    0    0  0.31326728096E+02  0.51043475362E+02  0.14813848200E+02  0.62500002144E+02  0.99999949627E+01 0.  0.
    3000022    2    5    5    0    0  0.14497248795E+02  0.16098933771E+02  0.25845886043E+01  0.21819452113E+02  0.25000213317E+00 0.  0.
        -13    1    4    4    0    0 -0.94479113737E+01 -0.14825219184E+02 -0.45770189522E+01  0.18166185089E+02  0.10500000000E+00 0.  1.
         13    1    4    4    0    0 -0.21923998784E+02 -0.34600385910E+02 -0.10777814280E+02  0.42355881923E+02  0.10500000000E+00 0. -1.
    3000001    1    5    5    0    0  0.16829479300E+02  0.34944541591E+02  0.12229259596E+02  0.40680550031E+02  0.10000000000E+01 0. -1.
        -13    1    6    6    0    0  0.10030072417E+02  0.11142334417E+02  0.18366552583E+01  0.15104247630E+02  0.10500000000E+00 0. -1.
         13    1    6    6    0    0  0.44671763783E+01  0.49565993545E+01  0.74793334601E+00  0.67152044828E+01  0.10500000000E+00 0.  1.
</event>
<event>
11    0  0.3443539E-009  0.9118800E+02  0.7816531E-02  0.1126479E+00
         25   -1    0    0    0    0  0.00000000000E+00  0.00000000000E+00  0.99999998245E-14  0.12500000000E+03  0.12500000000E+03 0.  0.
    3000001    1    3    3    0    0  0.35724558457E+01  0.48047254379E+02 -0.52989705494E+01  0.48480719704E+02  0.10000000000E+01 0. -1.
    1000022    2    1    0    0    0  0.66027729567E-01  0.61561430988E+02 -0.40541009466E+01  0.62499999536E+02  0.10000003129E+02 0.  0.
    3000022    2    3    3    0    0 -0.35064281162E+01  0.13514176609E+02  0.12448696028E+01  0.14019279832E+02  0.24999826179E+00 0.  0.
    1000022    2    1    0    0    0 -0.66027729567E-01 -0.61561430988E+02  0.40541009466E+01  0.62500000464E+02  0.10000008930E+02 0.  0.
    3000022    2    5    5    0    0  0.38605002146E+01 -0.11301881932E+02  0.82444546929E+00  0.11974060913E+02  0.24985458132E+00 0.  0.
        -13    1    4    4    0    0 -0.17652889077E+01  0.68813194797E+01  0.56824938326E+00  0.71276037397E+01  0.10500000000E+00 0. -1.
         13    1    4    4    0    0 -0.17411392084E+01  0.66328571293E+01  0.67662021954E+00  0.68916760924E+01  0.10500000000E+00 0.  1.
    3000001    1    5    5    0    0 -0.39265279442E+01 -0.50259549056E+02  0.32296554773E+01  0.50525939551E+02  0.10000000000E+01 0. -1.
        -13    1    6    6    0    0  0.16641658234E+01 -0.46731446553E+01  0.34036484313E+00  0.49733893959E+01  0.10500000000E+00 0.  1.
         13    1    6    6    0    0  0.21963343912E+01 -0.66287372765E+01  0.48408062616E+00  0.70006715172E+01  0.10500000000E+00 0. -1.
</event>
<event>
11    0  0.3443539E-009  0.9118800E+02  0.7816531E-02  0.1126479E+00
         25   -1    0    0    0    0  0.00000000000E+00  0.00000000000E+00  0.99999998245E-14  0.12500000000E+03  0.12500000000E+03 0.  0.
    3000001    1    3    3    0    0 -0.20026920064E+02 -0.11966905225E+02  0.18053626551E+02  0.29516398486E+02  0.10000000000E+01 0.  1.
    1000022    2    1    0    0    0 -0.47898348420E+02 -0.25521564199E+02  0.29336787067E+02  0.62499993019E+02  0.10000001574E+02 0.  0.
    3000022    2    3    3    0    0 -0.27871428356E+02 -0.13554658973E+02  0.11283160516E+02  0.32983594534E+02  0.24999727021E+00 0.  0.
    1000022    2    1    0    0    0  0.47898348420E+02  0.25521564199E+02 -0.29336787067E+02  0.62500006981E+02  0.10000088835E+02 0.  0.
    3000022    2    5    5    0    0  0.26053265864E+02  0.82796573572E+01 -0.14716850407E+02  0.31047923881E+02  0.25000653143E+00 0.  0.
        -13    1    4    4    0    0 -0.75684064786E+01 -0.36533695338E+01  0.30883097149E+01  0.89541368914E+01  0.10500000000E+00 0. -1.
         13    1    4    4    0    0 -0.20303021877E+02 -0.99012894397E+01  0.81948508011E+01  0.24029457642E+02  0.10500000000E+00 0.  1.
    3000001    1    5    5    0    0  0.21845082556E+02  0.17241906842E+02 -0.14619936660E+02  0.31452083100E+02  0.10000000000E+01 0. -1.
        -13    1    6    6    0    0  0.17633852729E+02  0.55777559809E+01 -0.99052959002E+01  0.20980706273E+02  0.10500000000E+00 0.  1.
         13    1    6    6    0    0  0.84194131348E+01  0.27019013763E+01 -0.48115545072E+01  0.10067217607E+02  0.10500000000E+00 0. -1.
</event>
<event>
11    0  0.3443539E-009  0.9118800E+02  0.7816531E-02  0.1126479E+00
         25   -1    0    0    0    0  0.00000000000E+00  0.00000000000E+00  0.99999998245E-14  0.12500000000E+03  0.12500000000E+03 0.  0.
    3000001    1    3    3    0    0  0.76813545123E+00 -0.21939776566E+01 -0.18550186142E+00  0.25373176722E+01  0.10000000000E+01 0. -1.
    1000022    2    1    0    0    0  0.35699753675E+02 -0.39422239401E+02  0.31267627548E+02  0.62500000020E+02  0.10000004911E+02 0.  0.
    3000022    2    3    3    0    0  0.34931618224E+02 -0.37228261744E+02  0.31453129409E+02  0.59962682348E+02  0.25000098429E+00 0.  0.
    1000022    2    1    0    0    0 -0.35699753675E+02  0.39422239401E+02 -0.31267627548E+02  0.62499999980E+02  0.10000004655E+02 0.  0.
    3000022    2    5    5    0    0 -0.18139250250E+02  0.15801176914E+02 -0.94442133603E+01  0.25845023777E+02  0.24999312861E+00 0.  0.
        -13    1    4    4    0    0  0.26599561020E+02 -0.28339361955E+02  0.23926412341E+02  0.45641431999E+02  0.10500000000E+00 0. -1.
         13    1    4    4    0    0  0.83320572039E+01 -0.88888997897E+01  0.75267170689E+01  0.14321250349E+02  0.10500000000E+00 0.  1.
    3000001    1    5    5    0    0 -0.17560503425E+02  0.23621062487E+02 -0.21823414188E+02  0.36654976202E+02  0.10000000000E+01 0. -1.
        -13    1    6    6    0    0 -0.80277475625E+01  0.69119896935E+01 -0.41315366096E+01  0.11371057656E+02  0.10500000000E+00 0. -1.
         13    1    6    6    0    0 -0.10111502687E+02  0.88891872203E+01 -0.53126767507E+01  0.14473966122E+02  0.10500000000E+00 0.  1.
</event>
<event>
11    0  0.3443539E-009  0.9118800E+02  0.7816531E-02  0.1126479E+00
         25   -1    0    0    0    0  0.00000000000E+00  0.00000000000E+00  0.99999998245E-14  0.12500000000E+03  0.12500000000E+03 0.  0.
    3000001    1    3    3    0    0 -0.68198023205E+01 -0.22628459389E+01  0.74613017327E+01  0.10406786198E+02  0.10000000000E+01 0. -1.
    1000022    2    1    0    0    0 -0.50018689251E+02 -0.23245833086E+02  0.27640767039E+02  0.62499999726E+02  0.99999966468E+01 0.  0.
    3000022    2    3    3    0    0 -0.43198886931E+02 -0.20982987147E+02  0.20179465306E+02  0.52093213527E+02  0.24998776139E+00 0.  0.
    1000022    2    1    0    0    0  0.50018689251E+02  0.23245833086E+02 -0.27640767039E+02  0.62500000274E+02  0.10000000077E+02 0.  0.
    3000022    2    5    5    0    0  0.25407116627E+02  0.16650567500E+02 -0.17498834058E+02  0.35057590763E+02  0.25000671369E+00 0.  0.
        -13    1    4    4    0    0 -0.17198446186E+02 -0.84176683503E+01  0.80178855248E+01  0.20759123415E+02  0.10500000000E+00 0. -1.
         13    1    4    4    0    0 -0.26000440745E+02 -0.12565318796E+02  0.12161579782E+02  0.31334090112E+02  0.10500000000E+00 0.  1.
    3000001    1    5    5    0    0  0.24611572625E+02  0.65952655854E+01 -0.10141932981E+02  0.27442409511E+02  0.10000000000E+01 0.  1.
        -13    1    6    6    0    0  0.15561442153E+02  0.10148624215E+02 -0.10754889448E+02  0.21466991577E+02  0.10500000000E+00 0.  1.
         13    1    6    6    0    0  0.98456744737E+01  0.65019432850E+01 -0.67439446101E+01  0.13590599186E+02  0.10500000000E+00 0. -1.
</event>
<event>
11    0  0.3443539E-009  0.9118800E+02  0.7816531E-02  0.1126479E+00
         25   -1    0    0    0    0  0.00000000000E+00  0.00000000000E+00  0.99999998245E-14  0.12500000000E+03  0.12500000000E+03 0.  0.
    3000001    1    3    3    0    0 -0.29924547222E+02 -0.53228304938E+02 -0.26018207424E+01  0.61126920781E+02  0.10000000000E+01 0.  1.
    1000022    2    1    0    0    0 -0.30882810925E+02 -0.53382910500E+02 -0.16633763098E+01  0.62500000751E+02  0.10000006448E+02 0.  0.
    3000022    2    3    3    0    0 -0.95826370304E+00 -0.15460556244E+00  0.93844443259E+00  0.13730799695E+01  0.24999689016E+00 0.  0.
    1000022    2    1    0    0    0  0.30882810925E+02  0.53382910500E+02  0.16633763098E+01  0.62499999249E+02  0.99999970666E+01 0.  0.
    3000022    2    5    5    0    0  0.21915877547E+02  0.36647984750E+02  0.56511054962E+01  0.43074098546E+02  0.24999468916E+00 0.  0.
        -13    1    4    4    0    0 -0.38857473415E+00 -0.12236517767E+00  0.43113654865E+00  0.60238466473E+00  0.10500000000E+00 0. -1.
         13    1    4    4    0    0 -0.56968896889E+00 -0.32240384770E-01  0.50730788394E+00  0.77069530477E+00  0.10500000000E+00 0.  1.
    3000001    1    5    5    0    0  0.89669333784E+01  0.16734925750E+02 -0.39877291864E+01  0.19425900703E+02  0.10000000000E+01 0. -1.
        -13    1    6    6    0    0  0.12549382640E+02  0.20874644760E+02  0.32563166293E+01  0.24573408829E+02  0.10500000000E+00 0.  1.
         13    1    6    6    0    0  0.93664949066E+01  0.15773339990E+02  0.23947888669E+01  0.18500689717E+02  0.10500000000E+00 0. -1.
</event>
<event>
11    0  0.3443539E-009  0.9118800E+02  0.7816531E-02  0.1126479E+00
         25   -1    0    0    0    0  0.00000000000E+00  0.00000000000E+00  0.99999998245E-14  0.12500000000E+03  0.12500000000E+03 0.  0.
    3000001    1    3    3    0    0 -0.60403226234E+00  0.16945446815E+02 -0.81649409624E+01  0.18846200775E+02  0.10000000000E+01 0. -1.
    1000022    2    1    0    0    0  0.11182702016E+02  0.57248792416E+02 -0.20094102542E+02  0.62499999703E+02  0.99999974198E+01 0.  0.
    3000022    2    3    3    0    0  0.11786734278E+02  0.40303345601E+02 -0.11929161580E+02  0.43653798928E+02  0.24998648531E+00 0.  0.
    1000022    2    1    0    0    0 -0.11182702016E+02 -0.57248792416E+02  0.20094102542E+02  0.62500000297E+02  0.10000001135E+02 0.  0.
    3000022    2    5    5    0    0 -0.96032397131E+01 -0.55112259667E+02  0.20601672912E+02  0.59616061838E+02  0.25004761111E+00 0.  0.
        -13    1    4    4    0    0  0.41753515939E+01  0.14100662639E+02 -0.42060884799E+01  0.15295896609E+02  0.10500000000E+00 0.  1.
         13    1    4    4    0    0  0.76113826841E+01  0.26202682963E+02 -0.77230731002E+01  0.28357902319E+02  0.10500000000E+00 0. -1.
    3000001    1    5    5    0    0 -0.15794623025E+01 -0.21365327493E+01 -0.50757036935E+00  0.28839384588E+01  0.10000000000E+01 0. -1.
        -13    1    6    6    0    0 -0.23068090518E+01 -0.13197095284E+02  0.49149928105E+01  0.14270699747E+02  0.10500000000E+00 0. -1.
         13    1    6    6    0    0 -0.72964306613E+01 -0.41915164382E+02  0.15686680101E+02  0.45345362091E+02  0.10500000000E+00 0.  1.
</event>
<event>
11    0  0.3443539E-009  0.9118800E+02  0.7816531E-02  0.1126479E+00
         25   -1    0    0    0    0  0.00000000000E+00  0.00000000000E+00  0.99999998245E-14  0.12500000000E+03  0.12500000000E+03 0.  0.
    3000001    1    3    3    0    0  0.40051989733E+02  0.10479116551E+02  0.23295202907E+02  0.47514631891E+02  0.10000000000E+01 0.  1.
    1000022    2    1    0    0    0  0.50497301157E+02  0.18868712843E+02  0.30004070909E+02  0.62500000328E+02  0.10000001068E+02 0.  0.
    3000022    2    3    3    0    0  0.10445311424E+02  0.83895962923E+01  0.67088680016E+01  0.14985368437E+02  0.25000124535E+00 0.  0.
    1000022    2    1    0    0    0 -0.50497301157E+02 -0.18868712843E+02 -0.30004070909E+02  0.62499999672E+02  0.99999969676E+01 0.  0.
    3000022    2    5    5    0    0 -0.30335634721E+02 -0.15166463213E+02 -0.15045299812E+02  0.37103852749E+02  0.25000410104E+00 0.  0.
        -13    1    4    4    0    0  0.73377935045E+01  0.58807683105E+01  0.47578559262E+01  0.10539206206E+02  0.10500000000E+00 0. -1.
         13    1    4    4    0    0  0.31075179195E+01  0.25088279817E+01  0.19510120754E+01  0.44461622305E+01  0.10500000000E+00 0.  1.
    3000001    1    5    5    0    0 -0.20161666437E+02 -0.37022496301E+01 -0.14958771097E+02  0.25396146923E+02  0.10000000000E+01 0.  1.
        -13    1    6    6    0    0 -0.12633615372E+02 -0.63716228890E+01 -0.63221861507E+01  0.15497963683E+02  0.10500000000E+00 0.  1.
         13    1    6    6    0    0 -0.17702019349E+02 -0.87948403240E+01 -0.87231136615E+01  0.21605889065E+02  0.10500000000E+00 0. -1.
</event>
<event>
11    0  0.3443539E-009  0.9118800E+02  0.7816531E-02  0.1126479E+00
         25   -1    0    0    0    0  0.00000000000E+00  0.00000000000E+00  0.99999998245E-14  0.12500000000E+03  0.12500000000E+03 0.  0.
    3000001    1    3    3    0    0  0.26642484479E+02  0.34462541551E+02  0.14615145034E+02  0.45957493554E+02  0.10000000000E+01 0. -1.
    1000022    2    1    0    0    0  0.34009059248E+02  0.44963725051E+02  0.25057882766E+02  0.62500000922E+02  0.99999972548E+01 0.  0.
    3000022    2    3    3    0    0  0.73665747690E+01  0.10501183501E+02  0.10442737732E+02  0.16542507369E+02  0.24999991418E+00 0.  0.
    1000022    2    1    0    0    0 -0.34009059248E+02 -0.44963725051E+02 -0.25057882766E+02  0.62499999078E+02  0.99999857269E+01 0.  0.
    3000022    2    5    5    0    0 -0.29145272402E+02 -0.41396422991E+02 -0.19551497492E+02  0.54271855589E+02  0.25003021800E+00 0.  0.
        -13    1    4    4    0    0  0.40793974963E+01  0.59169201935E+01  0.58904446876E+01  0.92929969400E+01  0.10500000000E+00 0. -1.
         13    1    4    4    0    0  0.32871772727E+01  0.45842633073E+01  0.45522930445E+01  0.72495104287E+01  0.10500000000E+00 0.  1.
    3000001    1    5    5    0    0 -0.48637868462E+01 -0.35673020607E+01 -0.55063852743E+01  0.82281434884E+01  0.10000000000E+01 0. -1.
        -13    1    6    6    0    0 -0.13953660623E+02 -0.19826593773E+02 -0.94352786332E+01  0.26016033005E+02  0.10500000000E+00 0.  1.
         13    1    6    6    0    0 -0.15191611779E+02 -0.21569829217E+02 -0.10116218859E+02  0.28255822584E+02  0.10500000000E+00 0. -1.
</event>
<event>
11    0  0.3443539E-009  0.9118800E+02  0.7816531E-02  0.1126479E+00
         25   -1    0    0    0    0  0.00000000000E+00  0.00000000000E+00  0.99999998245E-14  0.12500000000E+03  0.12500000000E+03 0.  0.
    3000001    1    3    3    0    0  0.11879841537E+02 -0.92625229210E+01 -0.37242334869E+02  0.40186023345E+02  0.10000000000E+01 0. -1.
    1000022    2    1    0    0    0  0.17277598407E+02 -0.21206560317E+02 -0.55299334893E+02  0.62500000167E+02  0.99999987041E+01 0.  0.
    3000022    2    3    3    0    0  0.53977568704E+01 -0.11944037396E+02 -0.18057000024E+02  0.22313976822E+02  0.25000640338E+00 0.  0.
    1000022    2    1    0    0    0 -0.17277598407E+02  0.21206560317E+02  0.55299334893E+02  0.62499999833E+02  0.99999966161E+01 0.  0.
    3000022    2    5    5    0    0 -0.17560550276E+02  0.21720045738E+02  0.53625573116E+02  0.60464021561E+02  0.24999691434E+00 0.  0.
        -13    1    4    4    0    0  0.34758846975E+01 -0.75606631842E+01 -0.11503382245E+02  0.14198036142E+02  0.10500000000E+00 0. -1.
         13    1    4    4    0    0  0.19218721728E+01 -0.43833742114E+01 -0.65536177792E+01  0.81159406800E+01  0.10500000000E+00 0. -1.
    3000001    1    5    5    0    0  0.28295186836E+00 -0.51348542141E+00  0.16737617767E+01  0.20359782718E+01  0.10000000000E+01 0.  1.
        -13    1    6    6    0    0 -0.11426696743E+02  0.14175731358E+02  0.34849954660E+02  0.39319856597E+02  0.10500000000E+00 0. -1.
         13    1    6    6    0    0 -0.61338535326E+01  0.75443143801E+01  0.18775618456E+02  0.21144164964E+02  0.10500000000E+00 0.  1.
</event>
<event>
11    0  0.3443539E-009  0.9118800E+02  0.7816531E-02  0.1126479E+00
         25   -1    0    0    0    0  0.00000000000E+00  0.00000000000E+00  0.99999998245E-14  0.12500000000E+03  0.12500000000E+03 0.  0.
    3000001    1    3    3    0    0  0.21161943915E+02 -0.44707683568E+02  0.25238373557E+02  0.55538998371E+02  0.10000000000E+01 0. -1.
    1000022    2    1    0    0    0  0.22151686219E+02 -0.51584719760E+02  0.25584554548E+02  0.62500001046E+02  0.10000009216E+02 0.  0.
    3000022    2    3    3    0    0  0.98974230312E+00 -0.68770361923E+01  0.34618099040E+00  0.69610026749E+01  0.25000068966E+00 0.  0.
    1000022    2    1    0    0    0 -0.22151686219E+02  0.51584719760E+02 -0.25584554548E+02  0.62499998954E+02  0.99999961372E+01 0.  0.
    3000022    2    5    5    0    0 -0.22165029383E+02  0.42967106830E+02 -0.21737766414E+02  0.53009940493E+02  0.25001089536E+00 0.  0.
        -13    1    4    4    0    0  0.49064399390E+00 -0.30628696132E+01  0.19919523231E+00  0.31100812749E+01  0.10500000000E+00 0.  1.
         13    1    4    4    0    0  0.49909830923E+00 -0.38141665792E+01  0.14698575809E+00  0.38509214000E+01  0.10500000000E+00 0.  1.
    3000001    1    5    5    0    0  0.13343164269E-01  0.86176129302E+01 -0.38467881331E+01  0.94900584611E+01  0.10000000000E+01 0. -1.
        -13    1    6    6    0    0 -0.13613811104E+02  0.26475933033E+02 -0.13437226404E+02  0.32663143774E+02  0.10500000000E+00 0.  1.
         13    1    6    6    0    0 -0.85512182787E+01  0.16491173797E+02 -0.83005400105E+01  0.20346796719E+02  0.10500000000E+00 0. -1.
</event>
<event>
11    0  0.3443539E-009  0.9118800E+02  0.7816531E-02  0.1126479E+00
         25   -1    0    0    0    0  0.00000000000E+00  0.00000000000E+00  0.99999998245E-14  0.12500000000E+03  0.12500000000E+03 0.  0.
    3000001    1    3    3    0    0  0.74687522470E+01  0.11826983403E+01 -0.21702156996E+02  0.23003579151E+02  0.10000000000E+01 0.  1.
    1000022    2    1    0    0    0  0.20086791688E+02  0.15818368148E+02 -0.56147575314E+02  0.62499997882E+02  0.99999775219E+01 0.  0.
    3000022    2    3    3    0    0  0.12618039441E+02  0.14635669807E+02 -0.34445418318E+02  0.39496418731E+02  0.24999881167E+00 0.  0.
    1000022    2    1    0    0    0 -0.20086791688E+02 -0.15818368148E+02  0.56147575314E+02  0.62500002118E+02  0.10000003995E+02 0.  0.
    3000022    2    5    5    0    0 -0.10100974124E+02 -0.11076284987E+02  0.41477377620E+02  0.44103844761E+02  0.25000210815E+00 0.  0.
        -13    1    4    4    0    0  0.75291823786E+01  0.88295425789E+01 -0.20686946862E+02  0.23719405661E+02  0.10500000000E+00 0.  1.
         13    1    4    4    0    0  0.50888570628E+01  0.58061272283E+01 -0.13758471456E+02  0.15777013070E+02  0.10500000000E+00 0. -1.
    3000001    1    5    5    0    0 -0.99858175648E+01 -0.47420831608E+01  0.14670197694E+02  0.18396157357E+02  0.10000000000E+01 0.  1.
        -13    1    6    6    0    0 -0.32550599417E+01 -0.35060278670E+01  0.13159018861E+02  0.14002087309E+02  0.10500000000E+00 0.  1.
         13    1    6    6    0    0 -0.68459141819E+01 -0.75702571198E+01  0.28318358759E+02  0.30101757452E+02  0.10500000000E+00 0. -1.
</event>
<event>
11    0  0.3443539E-009  0.9118800E+02  0.7816531E-02  0.1126479E+00
         25   -1    0    0    0    0  0.00000000000E+00  0.00000000000E+00  0.99999998245E-14  0.12500000000E+03  0.12500000000E+03 0.  0.
    3000001    1    3    3    0    0  0.16835999395E+01  0.47545669514E+01 -0.23259742801E+00  0.51472825078E+01  0.10000000000E+01 0.  1.
    1000022    2    1    0    0    0  0.29783824604E+02  0.47738840956E+02  0.25301717423E+02  0.62499999777E+02  0.99999961860E+01 0.  0.
    3000022    2    3    3    0    0  0.28100224664E+02  0.42984274005E+02  0.25534314851E+02  0.57352717269E+02  0.25001072774E+00 0.  0.
    1000022    2    1    0    0    0 -0.29783824604E+02 -0.47738840956E+02 -0.25301717423E+02  0.62500000223E+02  0.99999989719E+01 0.  0.
    3000022    2    5    5    0    0 -0.14133732928E+02 -0.16204405840E+02 -0.59345310649E+01  0.22307539798E+02  0.24999555247E+00 0.  0.
        -13    1    4    4    0    0  0.10666310448E+02  0.16404364557E+02  0.97706587584E+01  0.21871217449E+02  0.10500000000E+00 0.  1.
         13    1    4    4    0    0  0.17433914216E+02  0.26579909447E+02  0.15763656093E+02  0.35481499821E+02  0.10500000000E+00 0. -1.
    3000001    1    5    5    0    0 -0.15650091675E+02 -0.31534435116E+02 -0.19367186358E+02  0.40192460425E+02  0.10000000000E+01 0.  1.
        -13    1    6    6    0    0 -0.83316492612E+01 -0.96201635052E+01 -0.34650464696E+01  0.13190204597E+02  0.10500000000E+00 0. -1.
         13    1    6    6    0    0 -0.58020836673E+01 -0.65842423347E+01 -0.24694845953E+01  0.91173352012E+01  0.10500000000E+00 0.  1.
</event>
<event>
11    0  0.3443539E-009  0.9118800E+02  0.7816531E-02  0.1126479E+00
         25   -1    0    0    0    0  0.00000000000E+00  0.00000000000E+00  0.99999998245E-14  0.12500000000E+03  0.12500000000E+03 0.  0.
    3000001    1    3    3    0    0 -0.42544086858E+01 -0.15653577114E+02 -0.53564477416E+01  0.17112159482E+02  0.10000000000E+01 0.  1.
    1000022    2    1    0    0    0 -0.27488434099E+02 -0.54441653989E+02 -0.93135467579E+01  0.62499998994E+02  0.10000001140E+02 0.  0.
    3000022    2    3    3    0    0 -0.23234025413E+02 -0.38788076875E+02 -0.39570990163E+01  0.45387839512E+02  0.24999682314E+00 0.  0.
    1000022    2    1    0    0    0  0.27488434099E+02  0.54441653989E+02  0.93135467579E+01  0.62500001006E+02  0.10000013715E+02 0.  0.
    3000022    2    5    5    0    0  0.58265416590E+01  0.15642058491E+02 -0.14820617791E+01  0.16759522669E+02  0.25002282992E+00 0.  0.
        -13    1    4    4    0    0 -0.90929112135E+01 -0.15087380650E+02 -0.15814056749E+01  0.17686773536E+02  0.10500000000E+00 0. -1.
         13    1    4    4    0    0 -0.14141114199E+02 -0.23700696225E+02 -0.23756933414E+01  0.27701065976E+02  0.10500000000E+00 0.  1.
    3000001    1    5    5    0    0  0.21661892440E+02  0.38799595498E+02  0.10795608537E+02  0.45740478337E+02  0.10000000000E+01 0.  1.
        -13    1    6    6    0    0  0.30198544287E+01  0.80913633272E+01 -0.83456626786E+00  0.86773963329E+01  0.10500000000E+00 0. -1.
         13    1    6    6    0    0  0.28066872303E+01  0.75506951640E+01 -0.64749551129E+00  0.80821263357E+01  0.10500000000E+00 0.  1.
</event>
<event>
11    0  0.3443539E-009  0.9118800E+02  0.7816531E-02  0.1126479E+00
         25   -1    0    0    0    0  0.00000000000E+00  0.00000000000E+00  0.99999998245E-14  0.12500000000E+03  0.12500000000E+03 0.  0.
    3000001    1    3    3    0    0  0.45965440877E+01  0.15784335983E+02  0.25014859565E+02  0.29950236711E+02  0.10000000000E+01 0. -1.
    1000022    2    1    0    0    0  0.14763246496E+02  0.38891817365E+02  0.45560102272E+02  0.62499999103E+02  0.10000003191E+02 0.  0.
    3000022    2    3    3    0    0  0.10166702409E+02  0.23107481382E+02  0.20545242706E+02  0.32549762392E+02  0.25000045599E+00 0.  0.
    1000022    2    1    0    0    0 -0.14763246496E+02 -0.38891817365E+02 -0.45560102272E+02  0.62500000897E+02  0.10000014401E+02 0.  0.
    3000022    2    5    5    0    0 -0.73430205468E+01 -0.31161993524E+02 -0.34575835982E+02  0.47122613743E+02  0.25000191475E+00 0.  0.
        -13    1    4    4    0    0  0.67840158876E+01  0.15356752310E+02  0.13723996619E+02  0.21684368131E+02  0.10500000000E+00 0. -1.
         13    1    4    4    0    0  0.33826865211E+01  0.77507290724E+01  0.68212460879E+01  0.10865394261E+02  0.10500000000E+00 0.  1.
    3000001    1    5    5    0    0 -0.74202259496E+01 -0.77298238406E+01 -0.10984266290E+02  0.15377387154E+02  0.10000000000E+01 0.  1.
        -13    1    6    6    0    0 -0.19806295585E+01 -0.82678972906E+01 -0.91628856392E+01  0.12500020692E+02  0.10500000000E+00 0. -1.
         13    1    6    6    0    0 -0.53623909883E+01 -0.22894096234E+02 -0.25412950343E+02  0.34622593052E+02  0.10500000000E+00 0.  1.
</event>
<event>
11    0  0.3443539E-009  0.9118800E+02  0.7816531E-02  0.1126479E+00
         25   -1    0    0    0    0  0.00000000000E+00  0.00000000000E+00  0.99999998245E-14  0.12500000000E+03  0.12500000000E+03 0.  0.
    3000001    1    3    3    0    0  0.62861271051E+01 -0.31344653536E+01 -0.12377207017E+02  0.14266587559E+02  0.10000000000E+01 0. -1.
    1000022    2    1    0    0    0  0.29832620097E+02 -0.29226301038E+02 -0.45410208277E+02  0.62500008425E+02  0.10000107157E+02 0.  0.
    3000022    2    3    3    0    0  0.23546492992E+02 -0.26091835684E+02 -0.33033001260E+02  0.48233420866E+02  0.24998921369E+00 0.  0.
    1000022    2    1    0    0    0 -0.29832620097E+02  0.29226301038E+02  0.45410208277E+02  0.62499991575E+02  0.10000001845E+02 0.  0.
    3000022    2    5    5    0    0 -0.16408396533E+02  0.96524459029E+01  0.22806227703E+02  0.29708445090E+02  0.24999776027E+00 0.  0.
        -13    1    4    4    0    0  0.15384155675E+02 -0.17049022027E+02 -0.21506491880E+02  0.31462384142E+02  0.10500000000E+00 0.  1.
         13    1    4    4    0    0  0.81623373171E+01 -0.90428136567E+01 -0.11526509380E+02  0.16771036724E+02  0.10500000000E+00 0. -1.
    3000001    1    5    5    0    0 -0.13424223564E+02  0.19573855135E+02  0.22603980573E+02  0.32791546485E+02  0.10000000000E+01 0. -1.
        -13    1    6    6    0    0 -0.46839333312E+01  0.28032905916E+01  0.65515063158E+01  0.85282430546E+01  0.10500000000E+00 0. -1.
         13    1    6    6    0    0 -0.11724463202E+02  0.68491553113E+01  0.16254721388E+02  0.21180202035E+02  0.10500000000E+00 0.  1.
</event>
<event>
11    0  0.3443539E-009  0.9118800E+02  0.7816531E-02  0.1126479E+00
         25   -1    0    0    0    0  0.00000000000E+00  0.00000000000E+00  0.99999998245E-14  0.12500000000E+03  0.12500000000E+03 0.  0.
    3000001    1    3    3    0    0 -0.23908679571E+02 -0.16093282545E+02  0.12436407158E+02  0.31405141695E+02  0.10000000000E+01 0. -1.
    1000022    2    1    0    0    0 -0.44930529803E+02 -0.26826926434E+02  0.32677415233E+02  0.62500000048E+02  0.10000002474E+02 0.  0.
    3000022    2    3    3    0    0 -0.21021850232E+02 -0.10733643888E+02  0.20241008076E+02  0.31094858353E+02  0.25001957283E+00 0.  0.
    1000022    2    1    0    0    0  0.44930529803E+02  0.26826926434E+02 -0.32677415233E+02  0.62499999952E+02  0.10000001868E+02 0.  0.
    3000022    2    5    5    0    0  0.72797647408E+01  0.32068443772E+01 -0.94012056225E+01  0.12317629342E+02  0.24999983441E+00 0.  0.
        -13    1    4    4    0    0 -0.84578850245E+01 -0.43271104443E+01  0.82300754456E+01  0.12569998836E+02  0.10500000000E+00 0.  1.
         13    1    4    4    0    0 -0.12563965207E+02 -0.64065334440E+01  0.12010932630E+02  0.18524859517E+02  0.10500000000E+00 0. -1.
    3000001    1    5    5    0    0  0.37650765062E+02  0.23620082056E+02 -0.23276209611E+02  0.50182370609E+02  0.10000000000E+01 0.  1.
        -13    1    6    6    0    0  0.38700344794E+01  0.16330439221E+01 -0.49394961317E+01  0.64848782840E+01  0.10500000000E+00 0.  1.
         13    1    6    6    0    0  0.34097302614E+01  0.15738004550E+01 -0.44617094908E+01  0.58327510583E+01  0.10500000000E+00 0. -1.
</event>
<event>
11    0  0.3443539E-009  0.9118800E+02  0.7816531E-02  0.1126479E+00
         25   -1    0    0    0    0  0.00000000000E+00  0.00000000000E+00  0.99999998245E-14  0.12500000000E+03  0.12500000000E+03 0.  0.
    3000001    1    3    3    0    0  0.27962700715E+01  0.41268655770E+01  0.26645219278E+01  0.57401936298E+01  0.10000000000E+01 0. -1.
    1000022    2    1    0    0    0  0.92657223996E+01  0.59355074960E+02  0.14048901243E+02  0.62499999103E+02  0.99999863359E+01 0.  0.
    3000022    2    3    3    0    0  0.64694523281E+01  0.55228209383E+02  0.11384379315E+02  0.56759805473E+02  0.24999991988E+00 0.  0.
    1000022    2    1    0    0    0 -0.92657223996E+01 -0.59355074960E+02 -0.14048901243E+02  0.62500000897E+02  0.99999975463E+01 0.  0.
    3000022    2    5    5    0    0 -0.96756456224E+01 -0.45058849022E+02 -0.13988570645E+02  0.48162854986E+02  0.24999648238E+00 0.  0.
        -13    1    4    4    0    0  0.23878870393E+01  0.20147162082E+02  0.42066768363E+01  0.20719973443E+02  0.10500000000E+00 0. -1.
         13    1    4    4    0    0  0.40815652888E+01  0.35081047300E+02  0.71777024789E+01  0.36039832030E+02  0.10500000000E+00 0.  1.
    3000001    1    5    5    0    0  0.40992322279E+00 -0.14296225937E+02 -0.60330597634E-01  0.14337145911E+02  0.10000000000E+01 0. -1.
        -13    1    6    6    0    0 -0.30302785728E+01 -0.14334918435E+02 -0.44663979931E+01  0.15317709059E+02  0.10500000000E+00 0. -1.
         13    1    6    6    0    0 -0.66453670495E+01 -0.30723930587E+02 -0.95221726523E+01  0.32845145927E+02  0.10500000000E+00 0.  1.
</event>
<event>
11    0  0.3443539E-009  0.9118800E+02  0.7816531E-02  0.1126479E+00
         25   -1    0    0    0    0  0.00000000000E+00  0.00000000000E+00  0.99999998245E-14  0.12500000000E+03  0.12500000000E+03 0.  0.
    3000001    1    3    3    0    0  0.18138977380E+02 -0.17622868532E+02  0.16756606493E+02  0.30354107743E+02  0.10000000000E+01 0. -1.
    1000022    2    1    0    0    0  0.38450905792E+02 -0.27550170230E+02  0.39607649042E+02  0.62500000395E+02  0.10000007540E+02 0.  0.
    3000022    2    3    3    0    0  0.20311928412E+02 -0.99273016978E+01  0.22851042548E+02  0.32145892651E+02  0.25002804458E+00 0.  0.
    1000022    2    1    0    0    0 -0.38450905792E+02  0.27550170230E+02 -0.39607649042E+02  0.62499999605E+02  0.10000002608E+02 0.  0.
    3000022    2    5    5    0    0 -0.10529289877E+02  0.13343119239E+02 -0.13529143321E+02  0.21725676879E+02  0.25008102218E+00 0.  0.
        -13    1    4    4    0    0  0.90275793467E+01 -0.44071866895E+01  0.10059826051E+02  0.14217299623E+02  0.10500000000E+00 0. -1.
         13    1    4    4    0    0  0.11284349065E+02 -0.55201150083E+01  0.12791216497E+02  0.17928593029E+02  0.10500000000E+00 0.  1.
    3000001    1    5    5    0    0 -0.27921615915E+02  0.14207050991E+02 -0.26078505721E+02  0.40774322726E+02  0.10000000000E+01 0. -1.
        -13    1    6    6    0    0 -0.53158779878E+01  0.66732093588E+01 -0.67200045159E+01  0.10860928488E+02  0.10500000000E+00 0. -1.
         13    1    6    6    0    0 -0.52134118894E+01  0.66699098805E+01 -0.68091388047E+01  0.10864748391E+02  0.10500000000E+00 0.  1.
</event>
<event>
11    0  0.3443539E-009  0.9118800E+02  0.7816531E-02  0.1126479E+00
         25   -1    0    0    0    0  0.00000000000E+00  0.00000000000E+00  0.99999998245E-14  0.12500000000E+03  0.12500000000E+03 0.  0.
    3000001    1    3    3    0    0 -0.15302054719E+02 -0.50586504335E+02 -0.31326131741E+02  0.61444884484E+02  0.10000000000E+01 0. -1.
    1000022    2    1    0    0    0 -0.16298346553E+02 -0.50461213836E+02 -0.31532205790E+02  0.62500001063E+02  0.99999964346E+01 0.  0.
    3000022    2    3    3    0    0 -0.99629183390E+00  0.12529049821E+00 -0.20607404823E+00  0.10551165784E+01  0.25001870636E+00 0.  0.
    1000022    2    1    0    0    0  0.16298346553E+02  0.50461213836E+02  0.31532205790E+02  0.62499998937E+02  0.99999831496E+01 0.  0.
    3000022    2    5    5    0    0  0.43974488242E+00  0.16053914373E+02  0.95978971280E+01  0.18711057414E+02  0.24999598210E+00 0.  0.
        -13    1    4    4    0    0 -0.64837728494E+00  0.97565869090E-01 -0.18830281083E+00  0.69021384440E+00  0.10500000000E+00 0.  1.
         13    1    4    4    0    0 -0.34791454895E+00  0.27724629120E-01 -0.17771237406E-01  0.36490273404E+00  0.10500000000E+00 0. -1.
    3000001    1    5    5    0    0  0.15858601671E+02  0.34407299463E+02  0.21934308662E+02  0.43788941524E+02  0.10000000000E+01 0. -1.
        -13    1    6    6    0    0  0.28075932526E+00  0.77774429526E+01  0.46525093115E+01  0.90677622693E+01  0.10500000000E+00 0. -1.
         13    1    6    6    0    0  0.15898555716E+00  0.82764714208E+01  0.49453878165E+01  0.96432951444E+01  0.10500000000E+00 0.  1.
</event>
<event>
11    0  0.3443539E-009  0.9118800E+02  0.7816531E-02  0.1126479E+00
         25   -1    0    0    0    0  0.00000000000E+00  0.00000000000E+00  0.99999998245E-14  0.12500000000E+03  0.12500000000E+03 0.  0.
    3000001    1    3    3    0    0  0.60009661176E+01 -0.74933584712E+01 -0.10499554117E+02  0.14261930170E+02  0.10000000000E+01 0.  1.
    1000022    2    1    0    0    0  0.89143066449E+01 -0.36070167084E+02 -0.49251680876E+02  0.62499999929E+02  0.10000005283E+02 0.  0.
    3000022    2    3    3    0    0  0.29133405273E+01 -0.28576808613E+02 -0.38752126758E+02  0.48238069759E+02  0.25000450684E+00 0.  0.
    1000022    2    1    0    0    0 -0.89143066449E+01  0.36070167084E+02  0.49251680876E+02  0.62500000071E+02  0.10000006169E+02 0.  0.
    3000022    2    5    5    0    0 -0.48098113758E+00  0.17370301125E+02  0.17335110521E+02  0.24546430684E+02  0.24999707643E+00 0.  0.
        -13    1    4    4    0    0  0.20323524190E+01 -0.19437596435E+02 -0.26372635004E+02  0.32824952606E+02  0.10500000000E+00 0.  1.
         13    1    4    4    0    0  0.88098810835E+00 -0.91392121779E+01 -0.12379491754E+02  0.15413117153E+02  0.10500000000E+00 0. -1.
    3000001    1    5    5    0    0 -0.84333255073E+01  0.18699865959E+02  0.31916570355E+02  0.37953569387E+02  0.10000000000E+01 0. -1.
        -13    1    6    6    0    0 -0.26317721599E+00  0.10135922044E+02  0.10202342171E+02  0.14384192321E+02  0.10500000000E+00 0. -1.
         13    1    6    6    0    0 -0.21780392159E+00  0.72343790804E+01  0.71327683497E+01  0.10162238364E+02  0.10500000000E+00 0.  1.
</event>
<event>
11    0  0.3443539E-009  0.9118800E+02  0.7816531E-02  0.1126479E+00
         25   -1    0    0    0    0  0.00000000000E+00  0.00000000000E+00  0.99999998245E-14  0.12500000000E+03  0.12500000000E+03 0.  0.
    3000001    1    3    3    0    0  0.60772915719E+01  0.46415377851E+02 -0.40622280757E+02  0.61987825158E+02  0.10000000000E+01 0.  1.
    1000022    2    1    0    0    0  0.57192907162E+01  0.46285195924E+02 -0.40388369656E+02  0.62499999974E+02  0.99999972669E+01 0.  0.
    3000022    2    3    3    0    0 -0.35800085570E+00 -0.13018192756E+00  0.23391110060E+00  0.51217481660E+00  0.24999338557E+00 0.  0.
    1000022    2    1    0    0    0 -0.57192907162E+01 -0.46285195924E+02  0.40388369656E+02  0.62500000026E+02  0.99999975858E+01 0.  0.
    3000022    2    5    5    0    0 -0.45941070245E+00 -0.15505702978E+02  0.19498435468E+02  0.24917652119E+02  0.25003681521E+00 0.  0.
        -13    1    4    4    0    0 -0.14965351381E+00  0.34180942301E-02  0.62068480909E-01  0.19309415809E+00  0.10500000000E+00 0.  1.
         13    1    4    4    0    0 -0.20834734189E+00 -0.13360002179E+00  0.17184261969E+00  0.31908065851E+00  0.10500000000E+00 0. -1.
    3000001    1    5    5    0    0 -0.52598800137E+01 -0.30779492946E+02  0.20889934188E+02  0.37582347907E+02  0.10000000000E+01 0.  1.
        -13    1    6    6    0    0 -0.30102183095E+00 -0.82017572796E+01  0.10260351103E+02  0.13139454569E+02  0.10500000000E+00 0.  1.
         13    1    6    6    0    0 -0.15838887150E+00 -0.73039456982E+01  0.92380843646E+01  0.11778197550E+02  0.10500000000E+00 0. -1.
</event>
<event>
11    0  0.3443539E-009  0.9118800E+02  0.7816531E-02  0.1126479E+00
         25   -1    0    0    0    0  0.00000000000E+00  0.00000000000E+00  0.99999998245E-14  0.12500000000E+03  0.12500000000E+03 0.  0.
    3000001    1    3    3    0    0  0.17396906823E+02  0.39491738323E+02 -0.20536749394E+02  0.47801755600E+02  0.10000000000E+01 0.  1.
    1000022    2    1    0    0    0  0.27239642204E+02  0.48462525820E+02 -0.26751363107E+02  0.62500000290E+02  0.10000004595E+02 0.  0.
    3000022    2    3    3    0    0  0.98427353806E+01  0.89707874971E+01 -0.62146137124E+01  0.14698244690E+02  0.25001053974E+00 0.  0.
    1000022    2    1    0    0    0 -0.27239642204E+02 -0.48462525820E+02  0.26751363107E+02  0.62499999710E+02  0.10000000976E+02 0.  0.
    3000022    2    5    5    0    0 -0.92076034747E+01 -0.83128197195E+01  0.70236654574E+01  0.14257535271E+02  0.25000421640E+00 0.  0.
        -13    1    4    4    0    0  0.44614346229E+01  0.40395218158E+01 -0.27382457284E+01  0.66129532029E+01  0.10500000000E+00 0. -1.
         13    1    4    4    0    0  0.53813007576E+01  0.49312656813E+01 -0.34763679840E+01  0.80852914866E+01  0.10500000000E+00 0.  1.
    3000001    1    5    5    0    0 -0.18032038729E+02 -0.40149706100E+02  0.19727697649E+02  0.48242464440E+02  0.10000000000E+01 0. -1.
        -13    1    6    6    0    0 -0.22074285260E+01 -0.19814237333E+01  0.16611561856E+01  0.34013593726E+01  0.10500000000E+00 0.  1.
         13    1    6    6    0    0 -0.70001749487E+01 -0.63313959862E+01  0.53625092718E+01  0.10856175898E+02  0.10500000000E+00 0. -1.
</event>
<event>
11    0  0.3443539E-009  0.9118800E+02  0.7816531E-02  0.1126479E+00
         25   -1    0    0    0    0  0.00000000000E+00  0.00000000000E+00  0.99999998245E-14  0.12500000000E+03  0.12500000000E+03 0.  0.
    3000001    1    3    3    0    0 -0.88235401206E+01 -0.14029634175E+02  0.48760432459E+01  0.17304949959E+02  0.10000000000E+01 0.  1.
    1000022    2    1    0    0    0 -0.42775717761E+02 -0.39501299503E+02  0.20399387793E+02  0.62500003090E+02  0.10000033575E+02 0.  0.
    3000022    2    3    3    0    0 -0.33952177640E+02 -0.25471665329E+02  0.15523344547E+02  0.45195053131E+02  0.25000094391E+00 0.  0.
    1000022    2    1    0    0    0  0.42775717761E+02  0.39501299503E+02 -0.20399387793E+02  0.62499996910E+02  0.99999949524E+01 0.  0.
    3000022    2    5    5    0    0  0.77666839022E+01  0.52199497532E+01 -0.70109870557E+01  0.11695541725E+02  0.25000495036E+00 0.  0.
        -13    1    4    4    0    0 -0.15436468650E+02 -0.11497447314E+02  0.70444510778E+01  0.20496613747E+02  0.10500000000E+00 0. -1.
         13    1    4    4    0    0 -0.18515708990E+02 -0.13974218015E+02  0.84788934695E+01  0.24698439384E+02  0.10500000000E+00 0.  1.
    3000001    1    5    5    0    0  0.35009033858E+02  0.34281349750E+02 -0.13388400737E+02  0.50804455186E+02  0.10000000000E+01 0.  1.
        -13    1    6    6    0    0  0.22878859072E+01  0.15761999330E+01 -0.21219247371E+01  0.34974873471E+01  0.10500000000E+00 0.  1.
         13    1    6    6    0    0  0.54787979950E+01  0.36437498202E+01 -0.48890623186E+01  0.81980543775E+01  0.10500000000E+00 0. -1.
</event>
<event>
11    0  0.3443539E-009  0.9118800E+02  0.7816531E-02  0.1126479E+00
         25   -1    0    0    0    0  0.00000000000E+00  0.00000000000E+00  0.99999998245E-14  0.12500000000E+03  0.12500000000E+03 0.  0.
    3000001    1    3    3    0    0  0.64487703811E+01 -0.30565521050E+02  0.32007719183E+02  0.44736247091E+02  0.10000000000E+01 0.  1.
    1000022    2    1    0    0    0  0.93983282044E+01 -0.37465448940E+02  0.48106772699E+02  0.62499999963E+02  0.99999989260E+01 0.  0.
    3000022    2    3    3    0    0  0.29495578233E+01 -0.68999278905E+01  0.16099053517E+02  0.17763752873E+02  0.24999147911E+00 0.  0.
    1000022    2    1    0    0    0 -0.93983282044E+01  0.37465448940E+02 -0.48106772699E+02  0.62500000037E+02  0.99999993873E+01 0.  0.
    3000022    2    5    5    0    0 -0.25303075922E+01  0.68564211930E+01 -0.39092206200E+01  0.82920126498E+01  0.24999968371E+00 0.  0.
        -13    1    4    4    0    0  0.20969527527E+01 -0.48567428921E+01  0.11250807217E+02  0.12432893887E+02  0.10500000000E+00 0.  1.
         13    1    4    4    0    0  0.85260507058E+00 -0.20431849983E+01  0.48482462992E+01  0.53308589853E+01  0.10500000000E+00 0. -1.
    3000001    1    5    5    0    0 -0.68680206122E+01  0.30609027747E+02 -0.44197552079E+02  0.54207987387E+02  0.10000000000E+01 0.  1.
        -13    1    6    6    0    0 -0.18487474778E+01  0.49586434859E+01 -0.28681665143E+01  0.60202505438E+01  0.10500000000E+00 0.  1.
         13    1    6    6    0    0 -0.68156011440E+00  0.18977777072E+01 -0.10410541057E+01  0.22717621060E+01  0.10500000000E+00 0. -1.
</event>
<event>
11    0  0.3443539E-009  0.9118800E+02  0.7816531E-02  0.1126479E+00
         25   -1    0    0    0    0  0.00000000000E+00  0.00000000000E+00  0.99999998245E-14  0.12500000000E+03  0.12500000000E+03 0.  0.
    3000001    1    3    3    0    0 -0.10397212752E+02 -0.21725820663E+01 -0.54858225644E+02  0.55886018525E+02  0.10000000000E+01 0.  1.
    1000022    2    1    0    0    0 -0.13624141046E+02 -0.48300202027E+01 -0.59977523929E+02  0.62500000140E+02  0.10000016322E+02 0.  0.
    3000022    2    3    3    0    0 -0.32269282933E+01 -0.26574381365E+01 -0.51192982857E+01  0.66139816148E+01  0.24998840897E+00 0.  0.
    1000022    2    1    0    0    0  0.13624141046E+02  0.48300202027E+01  0.59977523929E+02  0.62499999860E+02  0.10000014571E+02 0.  0.
    3000022    2    5    5    0    0  0.26298087889E+01  0.35333377165E+01  0.63468327825E+01  0.77294990396E+01  0.24999869840E+00 0.  0.
        -13    1    4    4    0    0 -0.11164293704E+01 -0.89258483561E+00 -0.16724066378E+01  0.22025192826E+01  0.10500000000E+00 0. -1.
         13    1    4    4    0    0 -0.21104989229E+01 -0.17648533008E+01 -0.34468916478E+01  0.44114623323E+01  0.10500000000E+00 0.  1.
    3000001    1    5    5    0    0  0.10994332257E+02  0.12966824862E+01  0.53630691147E+02  0.54770500820E+02  0.10000000000E+01 0.  1.
        -13    1    6    6    0    0  0.18056815083E+01  0.25024561592E+01  0.44354881316E+01  0.54043827126E+01  0.10500000000E+00 0.  1.
         13    1    6    6    0    0  0.82412728059E+00  0.10308815573E+01  0.19113446509E+01  0.23251163270E+01  0.10500000000E+00 0. -1.
</event>
<event>
11    0  0.3443539E-009  0.9118800E+02  0.7816531E-02  0.1126479E+00
         25   -1    0    0    0    0  0.00000000000E+00  0.00000000000E+00  0.99999998245E-14  0.12500000000E+03  0.12500000000E+03 0.  0.
    3000001    1    3    3    0    0  0.22809298794E+02  0.59260109213E+01 -0.35990000398E+01  0.23860731719E+02  0.10000000000E+01 0. -1.
    1000022    2    1    0    0    0  0.57088010796E+02  0.23392493211E+02 -0.18153917526E-01  0.62499999900E+02  0.99999971391E+01 0.  0.
    3000022    2    3    3    0    0  0.34278712002E+02  0.17466482290E+02  0.35808461222E+01  0.38639268181E+02  0.24997307869E+00 0.  0.
    1000022    2    1    0    0    0 -0.57088010796E+02 -0.23392493211E+02  0.18153917526E-01  0.62500000100E+02  0.99999983831E+01 0.  0.
    3000022    2    5    5    0    0 -0.75777135533E+01 -0.17271027510E+01 -0.30684443611E+01  0.83595737461E+01  0.24999162286E+00 0.  0.
        -13    1    4    4    0    0  0.21886019313E+02  0.11154616882E+02  0.22278749089E+01  0.24665720561E+02  0.10500000000E+00 0. -1.
         13    1    4    4    0    0  0.12392692688E+02  0.63118654080E+01  0.13529712133E+01  0.13973547620E+02  0.10500000000E+00 0.  1.
    3000001    1    5    5    0    0 -0.49510297242E+02 -0.21665390460E+02  0.30865982786E+01  0.54140426353E+02  0.10000000000E+01 0.  1.
        -13    1    6    6    0    0 -0.26999869135E+01 -0.66817383557E+00 -0.11265669392E+01  0.30027593436E+01  0.10500000000E+00 0. -1.
         13    1    6    6    0    0 -0.48777266399E+01 -0.10589289154E+01 -0.19418774219E+01  0.53568144025E+01  0.10500000000E+00 0.  1.
</event>
<event>
11    0  0.3443539E-009  0.9118800E+02  0.7816531E-02  0.1126479E+00
         25   -1    0    0    0    0  0.00000000000E+00  0.00000000000E+00  0.99999998245E-14  0.12500000000E+03  0.12500000000E+03 0.  0.
    3000001    1    3    3    0    0  0.86284061851E+01  0.39986441304E+01  0.69028186378E+01  0.11793534386E+02  0.10000000000E+01 0.  1.
    1000022    2    1    0    0    0  0.40192501309E+02  0.45717952263E+01  0.46582308554E+02  0.62499993836E+02  0.99999643123E+01 0.  0.
    3000022    2    3    3    0    0  0.31564095124E+02  0.57315109583E+00  0.39679489917E+02  0.50706459450E+02  0.25001351548E+00 0.  0.
    1000022    2    1    0    0    0 -0.40192501309E+02 -0.45717952263E+01 -0.46582308554E+02  0.62500006164E+02  0.10000041356E+02 0.  0.
    3000022    2    5    5    0    0 -0.10206178028E+02  0.48572782127E-01 -0.18581193380E+02  0.21201218828E+02  0.25000617185E+00 0.  0.
        -13    1    4    4    0    0  0.11181797940E+02  0.20301867362E+00  0.13965191845E+02  0.17891658113E+02  0.10500000000E+00 0.  1.
         13    1    4    4    0    0  0.20382297183E+02  0.37013242220E+00  0.25714298072E+02  0.32814801337E+02  0.10500000000E+00 0. -1.
    3000001    1    5    5    0    0 -0.29986323280E+02 -0.46203680084E+01 -0.28001115174E+02  0.41298787336E+02  0.10000000000E+01 0. -1.
        -13    1    6    6    0    0 -0.71329597105E+01  0.47761452311E-01 -0.12892607452E+02  0.14734712325E+02  0.10500000000E+00 0.  1.
         13    1    6    6    0    0 -0.30732183180E+01  0.81132981618E-03 -0.56885859286E+01  0.64665065032E+01  0.10500000000E+00 0. -1.
</event>
<event>
11    0  0.3443539E-009  0.9118800E+02  0.7816531E-02  0.1126479E+00
         25   -1    0    0    0    0  0.00000000000E+00  0.00000000000E+00  0.99999998245E-14  0.12500000000E+03  0.12500000000E+03 0.  0.
    3000001    1    3    3    0    0  0.75520830296E+01 -0.10588051436E+02  0.13153936069E+02  0.18524762493E+02  0.10000000000E+01 0.  1.
    1000022    2    1    0    0    0  0.10837300960E+02 -0.38699086375E+02  0.46810077963E+02  0.62499997939E+02  0.99999982599E+01 0.  0.
    3000022    2    3    3    0    0  0.32852179305E+01 -0.28111034939E+02  0.33656141893E+02  0.43975235447E+02  0.25000650470E+00 0.  0.
    1000022    2    1    0    0    0 -0.10837300960E+02  0.38699086375E+02 -0.46810077963E+02  0.62500002061E+02  0.10000024020E+02 0.  0.
    3000022    2    5    5    0    0 -0.50042884670E+00  0.74175568800E+01 -0.14748233981E+02  0.16517974571E+02  0.24999851162E+00 0.  0.
        -13    1    4    4    0    0  0.21333221029E+01 -0.18015461126E+02  0.21651682837E+02  0.28247376824E+02  0.10500000000E+00 0.  1.
         13    1    4    4    0    0  0.11518958276E+01 -0.10095573813E+02  0.12004459057E+02  0.15727858623E+02  0.10500000000E+00 0. -1.
    3000001    1    5    5    0    0 -0.10336872113E+02  0.31281529495E+02 -0.32061843981E+02  0.45982027490E+02  0.10000000000E+01 0. -1.
        -13    1    6    6    0    0 -0.36276218117E+00  0.46243165291E+01 -0.92719814820E+01  0.10368055042E+02  0.10500000000E+00 0.  1.
         13    1    6    6    0    0 -0.13766666553E+00  0.27932403510E+01 -0.54762524991E+01  0.61499195282E+01  0.10500000000E+00 0. -1.
</event>
<event>
11    0  0.3443539E-009  0.9118800E+02  0.7816531E-02  0.1126479E+00
         25   -1    0    0    0    0  0.00000000000E+00  0.00000000000E+00  0.99999998245E-14  0.12500000000E+03  0.12500000000E+03 0.  0.
    3000001    1    3    3    0    0  0.81924493222E+00  0.66569501697E-01  0.10190943229E+01  0.16474668423E+01  0.10000000000E+01 0.  1.
    1000022    2    1    0    0    0 -0.52593949627E+01  0.29734049085E+02  0.53800328859E+02  0.62499997024E+02  0.99999666152E+01 0.  0.
    3000022    2    3    3    0    0 -0.60786398949E+01  0.29667479583E+02  0.52781234536E+02  0.60852530182E+02  0.25000512932E+00 0.  0.
    1000022    2    1    0    0    0  0.52593949627E+01 -0.29734049085E+02 -0.53800328859E+02  0.62500002976E+02  0.10000003815E+02 0.  0.
    3000022    2    5    5    0    0  0.49651604790E+01 -0.50047646857E+01 -0.12284684731E+02  0.14166031608E+02  0.24996887580E+00 0.  0.
        -13    1    4    4    0    0 -0.23784584880E+01  0.11356767127E+02  0.20153675600E+02  0.23255427099E+02  0.10500000000E+00 0.  1.
         13    1    4    4    0    0 -0.37001814069E+01  0.18310712456E+02  0.32627558936E+02  0.37597103083E+02  0.10500000000E+00 0. -1.
    3000001    1    5    5    0    0  0.29423448371E+00 -0.24729284399E+02 -0.41515644128E+02  0.48333971368E+02  0.10000000000E+01 0.  1.
        -13    1    6    6    0    0  0.34005811104E+01 -0.33849525494E+01 -0.84396451086E+01  0.97087841777E+01  0.10500000000E+00 0. -1.
         13    1    6    6    0    0  0.15645793685E+01 -0.16198121363E+01 -0.38450396225E+01  0.44572474304E+01  0.10500000000E+00 0.  1.
</event>
<event>
11    0  0.3443539E-009  0.9118800E+02  0.7816531E-02  0.1126479E+00
         25   -1    0    0    0    0  0.00000000000E+00  0.00000000000E+00  0.99999998245E-14  0.12500000000E+03  0.12500000000E+03 0.  0.
    3000001    1    3    3    0    0 -0.41444222816E+01 -0.58225388056E+01 -0.28980836478E+02  0.29865817872E+02  0.10000000000E+01 0. -1.
    1000022    2    1    0    0    0 -0.50455756115E+01 -0.25373396885E+01 -0.61435770433E+02  0.62499999991E+02  0.10000009211E+02 0.  0.
    3000022    2    3    3    0    0 -0.90115332996E+00  0.32851991171E+01 -0.32454933955E+02  0.32634182119E+02  0.24998798333E+00 0.  0.
    1000022    2    1    0    0    0  0.50455756115E+01  0.25373396885E+01  0.61435770433E+02  0.62500000009E+02  0.10000009323E+02 0.  0.
    3000022    2    5    5    0    0  0.67914023169E+01  0.36640326650E+01  0.56800441642E+02  0.57322778654E+02  0.25000236167E+00 0.  0.
        -13    1    4    4    0    0 -0.67952909100E+00  0.23190188033E+01 -0.22876493660E+02  0.23004012588E+02  0.10500000000E+00 0.  1.
         13    1    4    4    0    0 -0.22162423896E+00  0.96618031380E+00 -0.95784402953E+01  0.96301695309E+01  0.10500000000E+00 0. -1.
    3000001    1    5    5    0    0 -0.17458267054E+01 -0.11266929764E+01  0.46353287916E+01  0.51772213546E+01  0.10000000000E+01 0. -1.
        -13    1    6    6    0    0  0.39740611295E+01  0.22114496039E+01  0.33288284964E+02  0.33597687599E+02  0.10500000000E+00 0. -1.
         13    1    6    6    0    0  0.28173411874E+01  0.14525830610E+01  0.23512156678E+02  0.23725091055E+02  0.10500000000E+00 0.  1.
</event>
<event>
11    0  0.3443539E-009  0.9118800E+02  0.7816531E-02  0.1126479E+00
         25   -1    0    0    0    0  0.00000000000E+00  0.00000000000E+00  0.99999998245E-14  0.12500000000E+03  0.12500000000E+03 0.  0.
    3000001    1    3    3    0    0  0.51844316340E+02  0.27341309279E+02 -0.11283618071E+02  0.59696736650E+02  0.10000000000E+01 0. -1.
    1000022    2    1    0    0    0  0.52816555348E+02  0.29939508656E+02 -0.10967563474E+02  0.62499999829E+02  0.99999916315E+01 0.  0.
    3000022    2    3    3    0    0  0.97223900792E+00  0.25981993763E+01  0.31605459725E+00  0.28032631785E+01  0.25001050345E+00 0.  0.
    1000022    2    1    0    0    0 -0.52816555348E+02 -0.29939508656E+02  0.10967563474E+02  0.62500000171E+02  0.99999937713E+01 0.  0.
    3000022    2    5    5    0    0 -0.52465768168E+02 -0.28637218888E+02  0.10135760680E+02  0.60626258948E+02  0.24998864997E+00 0.  0.
        -13    1    4    4    0    0  0.53316225501E+00  0.12978801109E+01  0.10824342519E+00  0.14112038873E+01  0.10500000000E+00 0. -1.
         13    1    4    4    0    0  0.43907675291E+00  0.13003192654E+01  0.20781117206E+00  0.13920592912E+01  0.10500000000E+00 0.  1.
    3000001    1    5    5    0    0 -0.35078718022E+00 -0.13022897677E+01  0.83180279333E+00  0.18737412233E+01  0.10000000000E+01 0.  1.
        -13    1    6    6    0    0 -0.26609408004E+02 -0.14585882637E+02  0.51043552053E+01  0.30771318361E+02  0.10500000000E+00 0. -1.
         13    1    6    6    0    0 -0.25856360164E+02 -0.14051336252E+02  0.50314054752E+01  0.29854940587E+02  0.10500000000E+00 0.  1.
</event>
<event>
11    0  0.3443539E-009  0.9118800E+02  0.7816531E-02  0.1126479E+00
         25   -1    0    0    0    0  0.00000000000E+00  0.00000000000E+00  0.99999998245E-14  0.12500000000E+03  0.12500000000E+03 0.  0.
    3000001    1    3    3    0    0 -0.35329301120E+01  0.11060964149E+00 -0.33461189789E+01  0.49689377024E+01  0.10000000000E+01 0. -1.
    1000022    2    1    0    0    0 -0.55988869879E+02  0.18643331510E+02 -0.17997850706E+02  0.62500000034E+02  0.10000000705E+02 0.  0.
    3000022    2    3    3    0    0 -0.52455939767E+02  0.18532721868E+02 -0.14651731727E+02  0.57531062332E+02  0.24998741649E+00 0.  0.
    1000022    2    1    0    0    0  0.55988869879E+02 -0.18643331510E+02  0.17997850706E+02  0.62499999966E+02  0.10000000277E+02 0.  0.
    3000022    2    5    5    0    0  0.16400606668E+02 -0.21022327551E+01  0.18246472889E+01  0.16637040610E+02  0.25000179213E+00 0.  0.
        -13    1    4    4    0    0 -0.33179470540E+02  0.11783203833E+02 -0.92874726659E+01  0.36414136422E+02  0.10500000000E+00 0.  1.
         13    1    4    4    0    0 -0.19276469228E+02  0.67495180346E+01 -0.53642590610E+01  0.21116925909E+02  0.10500000000E+00 0. -1.
    3000001    1    5    5    0    0  0.39588263211E+02 -0.16541098754E+02  0.16173203417E+02  0.45862959356E+02  0.10000000000E+01 0.  1.
        -13    1    6    6    0    0  0.90768015583E+01 -0.11276649463E+01  0.95273571625E+00  0.91966670651E+01  0.10500000000E+00 0. -1.
         13    1    6    6    0    0  0.73238051099E+01 -0.97456780881E+00  0.87191157266E+00  0.74403735452E+01  0.10500000000E+00 0.  1.
</event>
<event>
11    0  0.3443539E-009  0.9118800E+02  0.7816531E-02  0.1126479E+00
         25   -1    0    0    0    0  0.00000000000E+00  0.00000000000E+00  0.99999998245E-14  0.12500000000E+03  0.12500000000E+03 0.  0.
    3000001    1    3    3    0    0  0.48409901979E+02  0.83110100356E+01 -0.23222323654E+02  0.54340296405E+02  0.10000000000E+01 0.  1.
    1000022    2    1    0    0    0  0.54748270103E+02  0.13007915290E+02 -0.25291708904E+02  0.62499995898E+02  0.10000000425E+02 0.  0.
    3000022    2    3    3    0    0  0.63383681239E+01  0.46969052540E+01 -0.20693852502E+01  0.81596994935E+01  0.25002214243E+00 0.  0.
    1000022    2    1    0    0    0 -0.54748270103E+02 -0.13007915290E+02  0.25291708904E+02  0.62500004102E+02  0.10000051697E+02 0.  0.
    3000022    2    5    5    0    0 -0.37641445139E+02 -0.48451807940E+01  0.19413121765E+02  0.42629637182E+02  0.25000092569E+00 0.  0.
        -13    1    4    4    0    0  0.41839419044E+01  0.31380233094E+01 -0.14181316211E+01  0.54198415516E+01  0.10500000000E+00 0.  1.
         13    1    4    4    0    0  0.21544262196E+01  0.15588819446E+01 -0.65125362912E+00  0.27398579420E+01  0.10500000000E+00 0. -1.
    3000001    1    5    5    0    0 -0.17106824964E+02 -0.81627344955E+01  0.58785871390E+01  0.19870366920E+02  0.10000000000E+01 0.  1.
        -13    1    6    6    0    0 -0.13889649238E+02 -0.17346848868E+01  0.71294501276E+01  0.15708964693E+02  0.10500000000E+00 0. -1.
         13    1    6    6    0    0 -0.23751795901E+02 -0.31104959073E+01  0.12283671638E+02  0.26920672488E+02  0.10500000000E+00 0.  1.
</event>
<event>
11    0  0.3443539E-009  0.9118800E+02  0.7816531E-02  0.1126479E+00
         25   -1    0    0    0    0  0.00000000000E+00  0.00000000000E+00  0.99999998245E-14  0.12500000000E+03  0.12500000000E+03 0.  0.
    3000001    1    3    3    0    0  0.22000439580E+01  0.15251070002E+01  0.12362205372E+01  0.31135808959E+01  0.10000000000E+01 0. -1.
    1000022    2    1    0    0    0  0.34624126426E+02  0.32512273373E+01  0.50959291194E+02  0.62500000828E+02  0.10000006726E+02 0.  0.
    3000022    2    3    3    0    0  0.32424082468E+02  0.17261203371E+01  0.49723070657E+02  0.59386419932E+02  0.25000295106E+00 0.  0.
    1000022    2    1    0    0    0 -0.34624126426E+02 -0.32512273373E+01 -0.50959291194E+02  0.62499999172E+02  0.99999963750E+01 0.  0.
    3000022    2    5    5    0    0 -0.15206792145E+02 -0.62453624655E+01 -0.21244332250E+02  0.26863269513E+02  0.25003298169E+00 0.  0.
        -13    1    4    4    0    0  0.96440903839E+01  0.52830957326E+00  0.14869163818E+02  0.17731064491E+02  0.10500000000E+00 0. -1.
         13    1    4    4    0    0  0.22779992085E+02  0.11978107639E+01  0.34853906839E+02  0.41655355441E+02  0.10500000000E+00 0.  1.
    3000001    1    5    5    0    0 -0.19417334281E+02  0.29941351282E+01 -0.29714958944E+02  0.35636729659E+02  0.10000000000E+01 0. -1.
        -13    1    6    6    0    0 -0.85328960889E+01 -0.35695980140E+01 -0.11908424135E+02  0.15078923570E+02  0.10500000000E+00 0. -1.
         13    1    6    6    0    0 -0.66738960565E+01 -0.26757644515E+01 -0.93359081145E+01  0.11784345943E+02  0.10500000000E+00 0.  1.
</event>
<event>
11    0  0.3443539E-009  0.9118800E+02  0.7816531E-02  0.1126479E+00
         25   -1    0    0    0    0  0.00000000000E+00  0.00000000000E+00  0.99999998245E-14  0.12500000000E+03  0.12500000000E+03 0.  0.
    3000001    1    3    3    0    0  0.59906122192E+02  0.55719131978E+01  0.88073773159E+01  0.60814139704E+02  0.10000000000E+01 0.  1.
    1000022    2    1    0    0    0  0.61008367066E+02  0.50080578182E+01  0.76907965375E+01  0.62500001724E+02  0.10000018448E+02 0.  0.
    3000022    2    3    3    0    0  0.11022448736E+01 -0.56385537961E+00 -0.11165807784E+01  0.16858620196E+01  0.25000292780E+00 0.  0.
    1000022    2    1    0    0    0 -0.61008367066E+02 -0.50080578182E+01 -0.76907965375E+01  0.62499998276E+02  0.99999968978E+01 0.  0.
    3000022    2    5    5    0    0 -0.21092022398E+02  0.29174382713E+01 -0.34480804084E+01  0.21571662125E+02  0.24998688005E+00 0.  0.
        -13    1    4    4    0    0  0.77097525806E+00 -0.34401974762E+00 -0.71907639568E+00  0.11139337045E+01  0.10500000000E+00 0. -1.
         13    1    4    4    0    0  0.33126961555E+00 -0.21983563200E+00 -0.39750438268E+00  0.57192831503E+00  0.10500000000E+00 0.  1.
    3000001    1    5    5    0    0 -0.39916344668E+02 -0.79254960895E+01 -0.42427161291E+01  0.40928336151E+02  0.10000000000E+01 0. -1.
        -13    1    6    6    0    0 -0.74886332903E+01  0.10729068466E+01 -0.11804935968E+01  0.76573721204E+01  0.10500000000E+00 0. -1.
         13    1    6    6    0    0 -0.13603389108E+02  0.18445314247E+01 -0.22675868116E+01  0.13914290005E+02  0.10500000000E+00 0.  1.
</event>
<event>
11    0  0.3443539E-009  0.9118800E+02  0.7816531E-02  0.1126479E+00
         25   -1    0    0    0    0  0.00000000000E+00  0.00000000000E+00  0.99999998245E-14  0.12500000000E+03  0.12500000000E+03 0.  0.
    3000001    1    3    3    0    0 -0.94438604750E+01  0.51732042174E+01 -0.16702138403E+02  0.19897486519E+02  0.10000000000E+01 0. -1.
    1000022    2    1    0    0    0 -0.40666224208E+02  0.10474639043E+02 -0.45197234873E+02  0.62500000973E+02  0.10000011355E+02 0.  0.
    3000022    2    3    3    0    0 -0.31222363733E+02  0.53014348261E+01 -0.28495096470E+02  0.42602514454E+02  0.25001342032E+00 0.  0.
    1000022    2    1    0    0    0  0.40666224208E+02 -0.10474639043E+02  0.45197234873E+02  0.62499999027E+02  0.99999991906E+01 0.  0.
    3000022    2    5    5    0    0  0.34039386496E+02 -0.83437202581E+01  0.42198061947E+02  0.54854684699E+02  0.25000125140E+00 0.  0.
        -13    1    4    4    0    0 -0.16357694768E+02  0.28107586060E+01 -0.15013275905E+02  0.22380438344E+02  0.10500000000E+00 0.  1.
         13    1    4    4    0    0 -0.14864668965E+02  0.24906762201E+01 -0.13481820565E+02  0.20222076110E+02  0.10500000000E+00 0. -1.
    3000001    1    5    5    0    0  0.66268377119E+01 -0.21309187854E+01  0.29991729261E+01  0.76453143278E+01  0.10000000000E+01 0.  1.
        -13    1    6    6    0    0  0.13822336670E+02 -0.34532806263E+01  0.17165191368E+02  0.22307777966E+02  0.10500000000E+00 0. -1.
         13    1    6    6    0    0  0.20217049826E+02 -0.48904396318E+01  0.25032870579E+02  0.32546906733E+02  0.10500000000E+00 0.  1.
</event>
<event>
11    0  0.3443539E-009  0.9118800E+02  0.7816531E-02  0.1126479E+00
         25   -1    0    0    0    0  0.00000000000E+00  0.00000000000E+00  0.99999998245E-14  0.12500000000E+03  0.12500000000E+03 0.  0.
    3000001    1    3    3    0    0 -0.24357922293E+02 -0.31509202390E+02 -0.10804781625E+01  0.39853552498E+02  0.10000000000E+01 0. -1.
    1000022    2    1    0    0    0 -0.32838838998E+02 -0.52157525639E+02  0.27300127072E+01  0.62499998847E+02  0.10000002946E+02 0.  0.
    3000022    2    3    3    0    0 -0.84809167055E+01 -0.20648323250E+02  0.38104908697E+01  0.22646446349E+02  0.24998076506E+00 0.  0.
    1000022    2    1    0    0    0  0.32838838998E+02  0.52157525639E+02 -0.27300127072E+01  0.62500001153E+02  0.10000017361E+02 0.  0.
    3000022    2    5    5    0    0  0.11666470953E+02  0.10489214962E+02 -0.77067644187E+00  0.15709443538E+02  0.24999817252E+00 0.  0.
        -13    1    4    4    0    0 -0.53618764203E+01 -0.12955815028E+02  0.24406888705E+01  0.14232738631E+02  0.10500000000E+00 0. -1.
         13    1    4    4    0    0 -0.31190402852E+01 -0.76925082220E+01  0.13698019992E+01  0.84137077180E+01  0.10500000000E+00 0.  1.
    3000001    1    5    5    0    0  0.21172368046E+02  0.41668310677E+02 -0.19593362654E+01  0.46790557615E+02  0.10000000000E+01 0. -1.
        -13    1    6    6    0    0  0.51869461681E+01  0.47093370493E+01 -0.40133560289E+00  0.70181451439E+01  0.10500000000E+00 0. -1.
         13    1    6    6    0    0  0.64795247846E+01  0.57798779130E+01 -0.36934083898E+00  0.86912983943E+01  0.10500000000E+00 0.  1.
</event>
<event>
11    0  0.3443539E-009  0.9118800E+02  0.7816531E-02  0.1126479E+00
         25   -1    0    0    0    0  0.00000000000E+00  0.00000000000E+00  0.99999998245E-14  0.12500000000E+03  0.12500000000E+03 0.  0.
    3000001    1    3    3    0    0  0.73007816267E+01 -0.21537167457E+02  0.28706287092E+02  0.36636073930E+02  0.10000000000E+01 0.  1.
    1000022    2    1    0    0    0  0.19843462445E+02 -0.37064341106E+02  0.45152206296E+02  0.62500000954E+02  0.10000000118E+02 0.  0.
    3000022    2    3    3    0    0  0.12542680819E+02 -0.15527173649E+02  0.16445919205E+02  0.25863927023E+02  0.24999790273E+00 0.  0.
    1000022    2    1    0    0    0 -0.19843462445E+02  0.37064341106E+02 -0.45152206296E+02  0.62499999046E+02  0.99999881981E+01 0.  0.
    3000022    2    5    5    0    0  0.65931919910E+00  0.52229247620E+01 -0.66419622579E+01  0.84789036685E+01  0.24999981789E+00 0.  0.
        -13    1    4    4    0    0  0.87592582476E+01 -0.10909911305E+02  0.11503449601E+02  0.18113286490E+02  0.10500000000E+00 0. -1.
         13    1    4    4    0    0  0.37834225712E+01 -0.46172623439E+01  0.49424696032E+01  0.77506405338E+01  0.10500000000E+00 0.  1.
    3000001    1    5    5    0    0 -0.20502781645E+02  0.31841416344E+02 -0.38510244038E+02  0.54021095378E+02  0.10000000000E+01 0.  1.
        -13    1    6    6    0    0  0.51889967770E+00  0.39870121898E+01 -0.50764881365E+01  0.64766719754E+01  0.10500000000E+00 0. -1.
         13    1    6    6    0    0  0.14041952140E+00  0.12359125721E+01 -0.15654741214E+01  0.20022316930E+01  0.10500000000E+00 0.  1.
</event>
<event>
11    0  0.3443539E-009  0.9118800E+02  0.7816531E-02  0.1126479E+00
         25   -1    0    0    0    0  0.00000000000E+00  0.00000000000E+00  0.99999998245E-14  0.12500000000E+03  0.12500000000E+03 0.  0.
    3000001    1    3    3    0    0  0.28876667394E+02  0.23015015515E+02 -0.34694601702E+01  0.37102425969E+02  0.10000000000E+01 0.  1.
    1000022    2    1    0    0    0  0.43913407973E+02  0.41675307121E+02 -0.11875665189E+02  0.62500001494E+02  0.10000006981E+02 0.  0.
    3000022    2    3    3    0    0  0.15036740579E+02  0.18660291606E+02 -0.84062050186E+01  0.25397575524E+02  0.25001929097E+00 0.  0.
    1000022    2    1    0    0    0 -0.43913407973E+02 -0.41675307121E+02  0.11875665189E+02  0.62499998506E+02  0.99999883119E+01 0.  0.
    3000022    2    5    5    0    0 -0.41376503854E+02 -0.37100420734E+02  0.85693238883E+01  0.56231237803E+02  0.25000635778E+00 0.  0.
        -13    1    4    4    0    0  0.41678978664E+01  0.51163650362E+01 -0.23306093315E+01  0.69993805915E+01  0.10500000000E+00 0. -1.
         13    1    4    4    0    0  0.10868842713E+02  0.13543926570E+02 -0.60755956871E+01  0.18398194933E+02  0.10500000000E+00 0.  1.
    3000001    1    5    5    0    0 -0.25369041193E+01 -0.45748863862E+01  0.33063413005E+01  0.62687607031E+01  0.10000000000E+01 0.  1.
        -13    1    6    6    0    0 -0.10839807127E+02 -0.97542027697E+01  0.22690080326E+01  0.14758228643E+02  0.10500000000E+00 0. -1.
         13    1    6    6    0    0 -0.30536696726E+02 -0.27346217965E+02  0.63003158557E+01  0.41473009160E+02  0.10500000000E+00 0.  1.
</event>
<event>
11    0  0.3443539E-009  0.9118800E+02  0.7816531E-02  0.1126479E+00
         25   -1    0    0    0    0  0.00000000000E+00  0.00000000000E+00  0.99999998245E-14  0.12500000000E+03  0.12500000000E+03 0.  0.
    3000001    1    3    3    0    0 -0.54460191428E+01 -0.45190423858E+02  0.35158193371E+02  0.57523317830E+02  0.10000000000E+01 0.  1.
    1000022    2    1    0    0    0 -0.81379362705E+01 -0.47300378936E+02  0.38764650174E+02  0.62500000208E+02  0.10000003430E+02 0.  0.
    3000022    2    3    3    0    0 -0.26919171277E+01 -0.21099550775E+01  0.36064568033E+01  0.49766823782E+01  0.25001713470E+00 0.  0.
    1000022    2    1    0    0    0  0.81379362705E+01  0.47300378936E+02 -0.38764650174E+02  0.62499999792E+02  0.10000000834E+02 0.  0.
    3000022    2    5    5    0    0  0.76395918082E+01  0.18178380835E+02 -0.13173671579E+02  0.23715501523E+02  0.24999361243E+00 0.  0.
        -13    1    4    4    0    0 -0.12142756741E+01 -0.86805821458E+00  0.15774928076E+01  0.21742812685E+01  0.10500000000E+00 0.  1.
         13    1    4    4    0    0 -0.14776414536E+01 -0.12418968629E+01  0.20289639958E+01  0.28024011097E+01  0.10500000000E+00 0.  1.
    3000001    1    5    5    0    0  0.49834446227E+00  0.29121998101E+02 -0.25590978595E+02  0.38784498270E+02  0.10000000000E+01 0.  1.
        -13    1    6    6    0    0  0.22546094013E+01  0.54428877296E+01 -0.38954749132E+01  0.70635713481E+01  0.10500000000E+00 0.  1.
         13    1    6    6    0    0  0.53849824070E+01  0.12735493105E+02 -0.92781966662E+01  0.16651930174E+02  0.10500000000E+00 0. -1.
</event>
<event>
11    0  0.3443539E-009  0.9118800E+02  0.7816531E-02  0.1126479E+00
         25   -1    0    0    0    0  0.00000000000E+00  0.00000000000E+00  0.99999998245E-14  0.12500000000E+03  0.12500000000E+03 0.  0.
    3000001    1    3    3    0    0  0.10943403267E+02  0.13882095784E+02 -0.29324115098E+01  0.17946300334E+02  0.10000000000E+01 0. -1.
    1000022    2    1    0    0    0  0.48157090172E+02  0.38356332211E+02 -0.39920480450E+01  0.62499999138E+02  0.99999945005E+01 0.  0.
    3000022    2    3    3    0    0  0.37213686906E+02  0.24474236428E+02 -0.10596365352E+01  0.44553698804E+02  0.25001134733E+00 0.  0.
    1000022    2    1    0    0    0 -0.48157090172E+02 -0.38356332211E+02  0.39920480450E+01  0.62500000862E+02  0.10000005281E+02 0.  0.
    3000022    2    5    5    0    0 -0.31363368571E+02 -0.29416008413E+02  0.56804225711E+01  0.43373864730E+02  0.25000378546E+00 0.  0.
        -13    1    4    4    0    0  0.19988285944E+02  0.13206383636E+02 -0.61396762553E+00  0.23965143959E+02  0.10500000000E+00 0.  1.
         13    1    4    4    0    0  0.17225400962E+02  0.11267852792E+02 -0.44566890964E+00  0.20588554845E+02  0.10500000000E+00 0. -1.
    3000001    1    5    5    0    0 -0.16793721601E+02 -0.89403237985E+01 -0.16883745260E+01  0.19126136133E+02  0.10000000000E+01 0. -1.
        -13    1    6    6    0    0 -0.15063013613E+02 -0.14137375297E+02  0.27969028308E+01  0.20846905042E+02  0.10500000000E+00 0.  1.
         13    1    6    6    0    0 -0.16300354958E+02 -0.15278633116E+02  0.28835197403E+01  0.22526959687E+02  0.10500000000E+00 0. -1.
</event>
<event>
11    0  0.3443539E-009  0.9118800E+02  0.7816531E-02  0.1126479E+00
         25   -1    0    0    0    0  0.00000000000E+00  0.00000000000E+00  0.99999998245E-14  0.12500000000E+03  0.12500000000E+03 0.  0.
    3000001    1    3    3    0    0  0.23346171066E+01  0.68224654312E+01  0.24669592798E+01  0.76865050369E+01  0.10000000000E+01 0.  1.
    1000022    2    1    0    0    0  0.50098139993E+01  0.46941087373E+02  0.39720097192E+02  0.62500000562E+02  0.10000001460E+02 0.  0.
    3000022    2    3    3    0    0  0.26751968927E+01  0.40118621942E+02  0.37253137912E+02  0.54813495525E+02  0.25000483673E+00 0.  0.
    1000022    2    1    0    0    0 -0.50098139993E+01 -0.46941087373E+02 -0.39720097192E+02  0.62499999438E+02  0.99999944373E+01 0.  0.
    3000022    2    5    5    0    0  0.28618546202E+01 -0.87196781413E+01 -0.66068975335E+01  0.11310906048E+02  0.25000368845E+00 0.  0.
        -13    1    4    4    0    0  0.19309431779E+01  0.28477156346E+02  0.26405646453E+02  0.38883751937E+02  0.10500000000E+00 0.  1.
         13    1    4    4    0    0  0.74425371483E+00  0.11641465596E+02  0.10847491459E+02  0.15929743588E+02  0.10500000000E+00 0. -1.
    3000001    1    5    5    0    0 -0.78716686195E+01 -0.38221409232E+02 -0.33113199658E+02  0.51189093391E+02  0.10000000000E+01 0. -1.
        -13    1    6    6    0    0  0.99333029500E+00 -0.31785572100E+01 -0.24401512116E+01  0.41298055581E+01  0.10500000000E+00 0. -1.
         13    1    6    6    0    0  0.18685243252E+01 -0.55411209313E+01 -0.41667463218E+01  0.71811004895E+01  0.10500000000E+00 0.  1.
</event>
<event>
11    0  0.3443539E-009  0.9118800E+02  0.7816531E-02  0.1126479E+00
         25   -1    0    0    0    0  0.00000000000E+00  0.00000000000E+00  0.99999998245E-14  0.12500000000E+03  0.12500000000E+03 0.  0.
    3000001    1    3    3    0    0  0.33357527155E+02  0.14897448357E+02  0.46870587087E+02  0.59434926763E+02  0.10000000000E+01 0. -1.
    1000022    2    1    0    0    0  0.33436419165E+02  0.14243464670E+02  0.49853582844E+02  0.62500000422E+02  0.99999958956E+01 0.  0.
    3000022    2    3    3    0    0  0.78892010645E-01 -0.65398368716E+00  0.29829957574E+01  0.30650736590E+01  0.24998846840E+00 0.  0.
    1000022    2    1    0    0    0 -0.33436419165E+02 -0.14243464670E+02 -0.49853582844E+02  0.62499999578E+02  0.99999906260E+01 0.  0.
    3000022    2    5    5    0    0 -0.30352747568E+02 -0.10049137280E+02 -0.45653574578E+02  0.55736754632E+02  0.25000027316E+00 0.  0.
        -13    1    4    4    0    0  0.29781589351E-01 -0.24988968941E+00  0.14534344050E+01  0.14787928758E+01  0.10500000000E+00 0. -1.
         13    1    4    4    0    0  0.49110421294E-01 -0.40409399775E+00  0.15295613524E+01  0.15862807832E+01  0.10500000000E+00 0.  1.
    3000001    1    5    5    0    0 -0.30836715968E+01 -0.41943273897E+01 -0.42000082659E+01  0.67632449463E+01  0.10000000000E+01 0.  1.
        -13    1    6    6    0    0 -0.11478842887E+02 -0.37477042914E+01 -0.17301459949E+02  0.21098830841E+02  0.10500000000E+00 0.  1.
         13    1    6    6    0    0 -0.18873904681E+02 -0.63014329884E+01 -0.28352114629E+02  0.34637923791E+02  0.10500000000E+00 0. -1.
</event>
<event>
11    0  0.3443539E-009  0.9118800E+02  0.7816531E-02  0.1126479E+00
         25   -1    0    0    0    0  0.00000000000E+00  0.00000000000E+00  0.99999998245E-14  0.12500000000E+03  0.12500000000E+03 0.  0.
    3000001    1    3    3    0    0 -0.24791863267E+02  0.41809937616E+02 -0.31120836638E+02  0.57725331015E+02  0.10000000000E+01 0. -1.
    1000022    2    1    0    0    0 -0.27809722672E+02  0.42777836353E+02 -0.34683228186E+02  0.62499999374E+02  0.99999823107E+01 0.  0.
    3000022    2    3    3    0    0 -0.30178594048E+01  0.96789873713E+00 -0.35623915478E+01  0.47746683593E+01  0.25004209305E+00 0.  0.
    1000022    2    1    0    0    0  0.27809722672E+02 -0.42777836353E+02  0.34683228186E+02  0.62500000626E+02  0.99999901374E+01 0.  0.
    3000022    2    5    5    0    0  0.10824469908E+02 -0.25278285832E+02  0.16574179412E+02  0.32108048939E+02  0.25000016270E+00 0.  0.
        -13    1    4    4    0    0 -0.14312682427E+01  0.51630900943E+00 -0.17698170940E+01  0.23363178983E+01  0.10500000000E+00 0.  1.
         13    1    4    4    0    0 -0.15865911621E+01  0.45158972770E+00 -0.17925744539E+01  0.24383504610E+01  0.10500000000E+00 0. -1.
    3000001    1    5    5    0    0  0.16985252763E+02 -0.17499550522E+02  0.18109048773E+02  0.30391951687E+02  0.10000000000E+01 0. -1.
        -13    1    6    6    0    0  0.69238880022E+01 -0.16143599239E+02  0.10520261738E+02  0.20475423157E+02  0.10500000000E+00 0. -1.
         13    1    6    6    0    0  0.39005819062E+01 -0.91346865930E+01  0.60539176746E+01  0.11632625781E+02  0.10500000000E+00 0.  1.
</event>
<event>
11    0  0.3443539E-009  0.9118800E+02  0.7816531E-02  0.1126479E+00
         25   -1    0    0    0    0  0.00000000000E+00  0.00000000000E+00  0.99999998245E-14  0.12500000000E+03  0.12500000000E+03 0.  0.
    3000001    1    3    3    0    0  0.28452102906E+02 -0.38217258745E+02  0.19577766481E+02  0.51520578085E+02  0.10000000000E+01 0.  1.
    1000022    2    1    0    0    0  0.30273222635E+02 -0.47632794706E+02  0.24917842374E+02  0.62500000042E+02  0.99999998223E+01 0.  0.
    3000022    2    3    3    0    0  0.18211197282E+01 -0.94155359605E+01  0.53400758938E+01  0.10979421957E+02  0.25000294522E+00 0.  0.
    1000022    2    1    0    0    0 -0.30273222635E+02  0.47632794706E+02 -0.24917842374E+02  0.62499999958E+02  0.99999992999E+01 0.  0.
    3000022    2    5    5    0    0 -0.28057294674E+02  0.39613645820E+02 -0.18518051340E+02  0.51956072280E+02  0.25000370354E+00 0.  0.
        -13    1    4    4    0    0  0.10059436718E+01 -0.48691351138E+01  0.27965338978E+01  0.57054383064E+01  0.10500000000E+00 0. -1.
         13    1    4    4    0    0  0.81517605637E+00 -0.45464008468E+01  0.25435419960E+01  0.52739836507E+01  0.10500000000E+00 0.  1.
    3000001    1    5    5    0    0 -0.22159279609E+01  0.80191488861E+01 -0.63997910346E+01  0.10543927678E+02  0.10000000000E+01 0.  1.
        -13    1    6    6    0    0 -0.10599526649E+02  0.15034292567E+02 -0.70662954577E+01  0.19705924861E+02  0.10500000000E+00 0. -1.
         13    1    6    6    0    0 -0.17457768025E+02  0.24579353253E+02 -0.11451755882E+02  0.32250147419E+02  0.10500000000E+00 0.  1.
</event>
<event>
11    0  0.3443539E-009  0.9118800E+02  0.7816531E-02  0.1126479E+00
         25   -1    0    0    0    0  0.00000000000E+00  0.00000000000E+00  0.99999998245E-14  0.12500000000E+03  0.12500000000E+03 0.  0.
    3000001    1    3    3    0    0  0.32663648750E+00 -0.49090899556E+01 -0.74149924270E+01  0.89547734913E+01  0.10000000000E+01 0. -1.
    1000022    2    1    0    0    0 -0.20711011232E+02 -0.29284852048E+02 -0.50196627859E+02  0.62499999462E+02  0.99999969330E+01 0.  0.
    3000022    2    3    3    0    0 -0.21037647720E+02 -0.24375762092E+02 -0.42781635432E+02  0.53545225971E+02  0.24998981640E+00 0.  0.
    1000022    2    1    0    0    0  0.20711011232E+02  0.29284852048E+02  0.50196627859E+02  0.62500000538E+02  0.10000003658E+02 0.  0.
    3000022    2    5    5    0    0  0.42674895383E+01  0.14116745294E+02  0.22122667955E+02  0.26588886759E+02  0.24999394876E+00 0.  0.
        -13    1    4    4    0    0 -0.68898305632E+01 -0.79826754887E+01 -0.13924013852E+02  0.17466598407E+02  0.10500000000E+00 0. -1.
         13    1    4    4    0    0 -0.14147817157E+02 -0.16393086603E+02 -0.28857621579E+02  0.36078627564E+02  0.10500000000E+00 0.  1.
    3000001    1    5    5    0    0  0.16443521694E+02  0.15168106753E+02  0.28073959903E+02  0.35911113779E+02  0.10000000000E+01 0. -1.
        -13    1    6    6    0    0  0.30699230005E+01  0.10205442055E+02  0.16049950172E+02  0.19266224339E+02  0.10500000000E+00 0. -1.
         13    1    6    6    0    0  0.11975665378E+01  0.39113032388E+01  0.60727177835E+01  0.73226624200E+01  0.10500000000E+00 0.  1.
</event>
<event>
11    0  0.3443539E-009  0.9118800E+02  0.7816531E-02  0.1126479E+00
         25   -1    0    0    0    0  0.00000000000E+00  0.00000000000E+00  0.99999998245E-14  0.12500000000E+03  0.12500000000E+03 0.  0.
    3000001    1    3    3    0    0 -0.13234562473E+02 -0.22078470042E+02 -0.72411511475E+01  0.26759049931E+02  0.10000000000E+01 0. -1.
    1000022    2    1    0    0    0 -0.39809024218E+02 -0.44658714014E+02 -0.15069536682E+02  0.62500000569E+02  0.99999994339E+01 0.  0.
    3000022    2    3    3    0    0 -0.26574461745E+02 -0.22580243972E+02 -0.78283855346E+01  0.35740950638E+02  0.24999510736E+00 0.  0.
    1000022    2    1    0    0    0  0.39809024218E+02  0.44658714014E+02  0.15069536682E+02  0.62499999431E+02  0.99999923219E+01 0.  0.
    3000022    2    5    5    0    0  0.39436744662E+01  0.20713246585E+01  0.33857752488E+01  0.56007962186E+01  0.24998021870E+00 0.  0.
        -13    1    4    4    0    0 -0.77887460071E+01 -0.65906861652E+01 -0.23298978593E+01  0.10466191166E+02  0.10500000000E+00 0.  1.
         13    1    4    4    0    0 -0.18785715738E+02 -0.15989557807E+02 -0.54984876754E+01  0.25274759472E+02  0.10500000000E+00 0. -1.
    3000001    1    5    5    0    0  0.35865349752E+02  0.42587389356E+02  0.11683761433E+02  0.56899203212E+02  0.10000000000E+01 0.  1.
        -13    1    6    6    0    0  0.20779338216E+01  0.10167380944E+01  0.17754573414E+01  0.29180197207E+01  0.10500000000E+00 0. -1.
         13    1    6    6    0    0  0.18657406446E+01  0.10545865641E+01  0.16103179075E+01  0.26827764978E+01  0.10500000000E+00 0.  1.
</event>
<event>
11    0  0.3443539E-009  0.9118800E+02  0.7816531E-02  0.1126479E+00
         25   -1    0    0    0    0  0.00000000000E+00  0.00000000000E+00  0.99999998245E-14  0.12500000000E+03  0.12500000000E+03 0.  0.
    3000001    1    3    3    0    0  0.28644704892E+02  0.74051785346E+01 -0.13509643806E+02  0.32540225310E+02  0.10000000000E+01 0. -1.
    1000022    2    1    0    0    0  0.52588589125E+02  0.69187029545E+01 -0.31509071613E+02  0.62500000913E+02  0.10000018175E+02 0.  0.
    3000022    2    3    3    0    0  0.23943884234E+02 -0.48647558010E+00 -0.17999427806E+02  0.29959775603E+02  0.25000430406E+00 0.  0.
    1000022    2    1    0    0    0 -0.52588589125E+02 -0.69187029545E+01  0.31509071613E+02  0.62499999087E+02  0.10000006759E+02 0.  0.
    3000022    2    5    5    0    0 -0.38263841773E+02 -0.49191896092E+01  0.27748039861E+02  0.47521955150E+02  0.24998308158E+00 0.  0.
        -13    1    4    4    0    0  0.16691464678E+02 -0.29437779740E+00 -0.12562868917E+02  0.20893260918E+02  0.10500000000E+00 0.  1.
         13    1    4    4    0    0  0.72524195556E+01 -0.19209778269E+00 -0.54365588896E+01  0.90665146847E+01  0.10500000000E+00 0. -1.
    3000001    1    5    5    0    0 -0.14324747352E+02 -0.19995133453E+01  0.37610317521E+01  0.14978043936E+02  0.10000000000E+01 0.  1.
        -13    1    6    6    0    0 -0.25521740840E+02 -0.33214803511E+01  0.18467800000E+02  0.31677470686E+02  0.10500000000E+00 0. -1.
         13    1    6    6    0    0 -0.12742100933E+02 -0.15977092581E+01  0.92802398610E+01  0.15844484464E+02  0.10500000000E+00 0.  1.
</event>
<event>
11    0  0.3443539E-009  0.9118800E+02  0.7816531E-02  0.1126479E+00
         25   -1    0    0    0    0  0.00000000000E+00  0.00000000000E+00  0.99999998245E-14  0.12500000000E+03  0.12500000000E+03 0.  0.
    3000001    1    3    3    0    0 -0.37424965013E+01  0.28351128379E+01  0.15276239241E+02  0.16012733378E+02  0.10000000000E+01 0. -1.
    1000022    2    1    0    0    0 -0.18423610578E+02  0.25861031701E+02  0.52896385710E+02  0.62500000358E+02  0.10000001809E+02 0.  0.
    3000022    2    3    3    0    0 -0.14681114077E+02  0.23025918863E+02  0.37620146468E+02  0.46487266980E+02  0.25004185294E+00 0.  0.
    1000022    2    1    0    0    0  0.18423610578E+02 -0.25861031701E+02 -0.52896385710E+02  0.62499999642E+02  0.99999973370E+01 0.  0.
    3000022    2    5    5    0    0  0.14816528028E+02 -0.23364454348E+02 -0.38453981390E+02  0.47372971331E+02  0.24999635338E+00 0.  0.
        -13    1    4    4    0    0 -0.80674089511E+01  0.12562635334E+02  0.20645765409E+02  0.25478648866E+02  0.10500000000E+00 0.  1.
         13    1    4    4    0    0 -0.66137051259E+01  0.10463283529E+02  0.16974381059E+02  0.21008618114E+02  0.10500000000E+00 0. -1.
    3000001    1    5    5    0    0  0.36070825500E+01 -0.24965773535E+01 -0.14442404320E+02  0.15127028312E+02  0.10000000000E+01 0.  1.
        -13    1    6    6    0    0  0.94927777092E+01 -0.14870969833E+02 -0.24477818044E+02  0.30173385186E+02  0.10500000000E+00 0.  1.
         13    1    6    6    0    0  0.53237503191E+01 -0.84934845142E+01 -0.13976163346E+02  0.17199586144E+02  0.10500000000E+00 0. -1.
</event>
<event>
11    0  0.3443539E-009  0.9118800E+02  0.7816531E-02  0.1126479E+00
         25   -1    0    0    0    0  0.00000000000E+00  0.00000000000E+00  0.99999998245E-14  0.12500000000E+03  0.12500000000E+03 0.  0.
    3000001    1    3    3    0    0 -0.34635310252E+02  0.23652589148E+02 -0.12824172578E+02  0.43869227164E+02  0.10000000000E+01 0. -1.
    1000022    2    1    0    0    0 -0.52079458330E+02  0.27857952323E+02 -0.17830158744E+02  0.62500002200E+02  0.10000011332E+02 0.  0.
    3000022    2    3    3    0    0 -0.17444148078E+02  0.42053631750E+01 -0.50059861660E+01  0.18630775036E+02  0.24999871699E+00 0.  0.
    1000022    2    1    0    0    0  0.52079458330E+02 -0.27857952323E+02  0.17830158744E+02  0.62499997800E+02  0.99999838269E+01 0.  0.
    3000022    2    5    5    0    0  0.44713036075E+02 -0.20510683249E+02  0.12450392347E+02  0.50744640460E+02  0.25008688694E+00 0.  0.
        -13    1    4    4    0    0 -0.77237467181E+01  0.19216745577E+01 -0.22538768219E+01  0.82728521200E+01  0.10500000000E+00 0.  1.
         13    1    4    4    0    0 -0.97204013598E+01  0.22836886173E+01 -0.27521093441E+01  0.10357922916E+02  0.10500000000E+00 0. -1.
    3000001    1    5    5    0    0  0.73664222546E+01 -0.73472690749E+01  0.53797663971E+01  0.11755357339E+02  0.10000000000E+01 0.  1.
        -13    1    6    6    0    0  0.15641275967E+02 -0.71239738438E+01  0.43833661169E+01  0.17737684199E+02  0.10500000000E+00 0. -1.
         13    1    6    6    0    0  0.29071760108E+02 -0.13386709405E+02  0.80670262296E+01  0.33006956261E+02  0.10500000000E+00 0.  1.
</event>
<event>
11    0  0.3443539E-009  0.9118800E+02  0.7816531E-02  0.1126479E+00
         25   -1    0    0    0    0  0.00000000000E+00  0.00000000000E+00  0.99999998245E-14  0.12500000000E+03  0.12500000000E+03 0.  0.
    3000001    1    3    3    0    0  0.54442533405E+01  0.78661629326E+01 -0.26532851332E+01  0.99777921263E+01  0.10000000000E+01 0.  1.
    1000022    2    1    0    0    0  0.18725558259E+02  0.48894264749E+02 -0.32633638066E+02  0.62499999401E+02  0.99999967131E+01 0.  0.
    3000022    2    3    3    0    0  0.13281304919E+02  0.41028101817E+02 -0.29980352933E+02  0.52522207275E+02  0.24999210008E+00 0.  0.
    1000022    2    1    0    0    0 -0.18725558259E+02 -0.48894264749E+02  0.32633638066E+02  0.62500000599E+02  0.10000004195E+02 0.  0.
    3000022    2    5    5    0    0 -0.18953332527E+02 -0.46213978364E+02  0.28628022224E+02  0.57572448011E+02  0.25000689024E+00 0.  0.
        -13    1    4    4    0    0  0.56198072453E+01  0.17515512278E+02 -0.12734162843E+02  0.22372870450E+02  0.10500000000E+00 0. -1.
         13    1    4    4    0    0  0.76614976735E+01  0.23512589538E+02 -0.17246190090E+02  0.30149336826E+02  0.10500000000E+00 0.  1.
    3000001    1    5    5    0    0  0.22777426821E+00 -0.26802863854E+01  0.40056158423E+01  0.49275525873E+01  0.10000000000E+01 0.  1.
        -13    1    6    6    0    0 -0.13540216964E+02 -0.32990137150E+02  0.20391550214E+02  0.41079349675E+02  0.10500000000E+00 0. -1.
         13    1    6    6    0    0 -0.54131155638E+01 -0.13223841214E+02  0.82364720099E+01  0.16493098336E+02  0.10500000000E+00 0.  1.
</event>
<event>
11    0  0.3443539E-009  0.9118800E+02  0.7816531E-02  0.1126479E+00
         25   -1    0    0    0    0  0.00000000000E+00  0.00000000000E+00  0.99999998245E-14  0.12500000000E+03  0.12500000000E+03 0.  0.
    3000001    1    3    3    0    0 -0.17734866994E+02 -0.31788495421E+02  0.29808071171E+02  0.47059059227E+02  0.10000000000E+01 0. -1.
    1000022    2    1    0    0    0 -0.20963747711E+02 -0.45624664529E+02  0.35849161021E+02  0.62499995356E+02  0.99999171047E+01 0.  0.
    3000022    2    3    3    0    0 -0.32288807177E+01 -0.13836169108E+02  0.60410898507E+01  0.15440936129E+02  0.24999137502E+00 0.  0.
    1000022    2    1    0    0    0  0.20963747711E+02  0.45624664529E+02 -0.35849161021E+02  0.62500004644E+02  0.99999751513E+01 0.  0.
    3000022    2    5    5    0    0  0.21764999649E+02  0.43860509018E+02 -0.34857688873E+02  0.60104745502E+02  0.24999444477E+00 0.  0.
        -13    1    4    4    0    0 -0.19781525772E+01 -0.83562933224E+01  0.37121879749E+01  0.93558586068E+01  0.10500000000E+00 0. -1.
         13    1    4    4    0    0 -0.12507281405E+01 -0.54798757857E+01  0.23289018758E+01  0.60850775225E+01  0.10500000000E+00 0.  1.
    3000001    1    5    5    0    0 -0.80125193804E+00  0.17641555111E+01 -0.99147214856E+00  0.23952591419E+01  0.10000000000E+01 0.  1.
        -13    1    6    6    0    0  0.11123429005E+02  0.22418711663E+02 -0.17733406448E+02  0.30672692003E+02  0.10500000000E+00 0. -1.
         13    1    6    6    0    0  0.10641570645E+02  0.21441797355E+02 -0.17124282425E+02  0.29432053499E+02  0.10500000000E+00 0.  1.
</event>
<event>
11    0  0.3443539E-009  0.9118800E+02  0.7816531E-02  0.1126479E+00
         25   -1    0    0    0    0  0.00000000000E+00  0.00000000000E+00  0.99999998245E-14  0.12500000000E+03  0.12500000000E+03 0.  0.
    3000001    1    3    3    0    0 -0.25981466591E+01 -0.27327456970E+01 -0.11168079610E+01  0.40577734200E+01  0.10000000000E+01 0. -1.
    1000022    2    1    0    0    0 -0.13652787884E+02 -0.60084741411E+02 -0.31104873161E+01  0.62499999263E+02  0.10000000456E+02 0.  0.
    3000022    2    3    3    0    0 -0.11054641225E+02 -0.57351995714E+02 -0.19936793551E+01  0.58442225843E+02  0.24999829993E+00 0.  0.
    1000022    2    1    0    0    0  0.13652787884E+02  0.60084741411E+02  0.31104873161E+01  0.62500000737E+02  0.10000009669E+02 0.  0.
    3000022    2    5    5    0    0  0.75604139152E+01  0.33751132976E+02  0.66493923208E+01  0.35221807938E+02  0.25000084438E+00 0.  0.
        -13    1    4    4    0    0 -0.26076852908E+01 -0.13527183173E+02 -0.48572499699E+00  0.13785197168E+02  0.10500000000E+00 0. -1.
         13    1    4    4    0    0 -0.84469559342E+01 -0.43824812541E+02 -0.15079543581E+01  0.44657028675E+02  0.10500000000E+00 0.  1.
    3000001    1    5    5    0    0  0.60923739689E+01  0.26333608434E+02 -0.35389050047E+01  0.27278192799E+02  0.10000000000E+01 0. -1.
        -13    1    6    6    0    0  0.55432225645E+01  0.24711976256E+02  0.48339110723E+01  0.25783459972E+02  0.10500000000E+00 0.  1.
         13    1    6    6    0    0  0.20171913507E+01  0.90391567200E+01  0.18154812485E+01  0.94383479655E+01  0.10500000000E+00 0. -1.
</event>
<event>
11    0  0.3443539E-009  0.9118800E+02  0.7816531E-02  0.1126479E+00
         25   -1    0    0    0    0  0.00000000000E+00  0.00000000000E+00  0.99999998245E-14  0.12500000000E+03  0.12500000000E+03 0.  0.
    3000001    1    3    3    0    0 -0.87959997055E+01 -0.91599447148E+01 -0.34286075709E+02  0.36576073949E+02  0.10000000000E+01 0.  1.
    1000022    2    1    0    0    0 -0.15731802984E+02 -0.73641559220E+01 -0.59199059674E+02  0.62499991374E+02  0.99999918932E+01 0.  0.
    3000022    2    3    3    0    0 -0.69358032788E+01  0.17957887928E+01 -0.24912983965E+02  0.25923917425E+02  0.25000020228E+00 0.  0.
    1000022    2    1    0    0    0  0.15731802984E+02  0.73641559220E+01  0.59199059674E+02  0.62500008626E+02  0.10000099717E+02 0.  0.
    3000022    2    5    5    0    0  0.58192448550E+01 -0.19673838796E+01  0.14141508150E+02  0.15420083041E+02  0.24999644324E+00 0.  0.
        -13    1    4    4    0    0 -0.36876088273E+01  0.88605300288E+00 -0.13224471940E+02  0.13757951588E+02  0.10500000000E+00 0.  1.
         13    1    4    4    0    0 -0.32481944516E+01  0.90973578992E+00 -0.11688512024E+02  0.12165965837E+02  0.10500000000E+00 0. -1.
    3000001    1    5    5    0    0  0.99125581294E+01  0.93315398016E+01  0.45057551524E+02  0.47079925585E+02  0.10000000000E+01 0. -1.
        -13    1    6    6    0    0  0.25005103499E+01 -0.91136523268E+00  0.61777471032E+01  0.67274603579E+01  0.10500000000E+00 0.  1.
         13    1    6    6    0    0  0.33187345051E+01 -0.10560186469E+01  0.79637610471E+01  0.86926226832E+01  0.10500000000E+00 0. -1.
</event>
<event>
11    0  0.3443539E-009  0.9118800E+02  0.7816531E-02  0.1126479E+00
         25   -1    0    0    0    0  0.00000000000E+00  0.00000000000E+00  0.99999998245E-14  0.12500000000E+03  0.12500000000E+03 0.  0.
    3000001    1    3    3    0    0  0.88631948261E+01  0.18541634871E+02 -0.49198460631E+01  0.21155456305E+02  0.10000000000E+01 0.  1.
    1000022    2    1    0    0    0  0.13688818169E+02  0.59179661813E+02 -0.10799726496E+02  0.62500001031E+02  0.99999960658E+01 0.  0.
    3000022    2    3    3    0    0  0.48256233431E+01  0.40638026942E+02 -0.58798804326E+01  0.41344544726E+02  0.25002049898E+00 0.  0.
    1000022    2    1    0    0    0 -0.13688818169E+02 -0.59179661813E+02  0.10799726496E+02  0.62499998969E+02  0.99999831814E+01 0.  0.
    3000022    2    5    5    0    0 -0.96178058113E+01 -0.52940500074E+02  0.76444561020E+01  0.54347943273E+02  0.24998432832E+00 0.  0.
        -13    1    4    4    0    0  0.32910008425E+01  0.28043929925E+02 -0.40277080017E+01  0.28522379791E+02  0.10500000000E+00 0.  1.
         13    1    4    4    0    0  0.15346225006E+01  0.12594097017E+02 -0.18521724309E+01  0.12822164935E+02  0.10500000000E+00 0. -1.
    3000001    1    5    5    0    0 -0.40710123580E+01 -0.62391617383E+01  0.31552703937E+01  0.81520556961E+01  0.10000000000E+01 0. -1.
        -13    1    6    6    0    0 -0.39230565436E+01 -0.21700399612E+02  0.30713171560E+01  0.22265258365E+02  0.10500000000E+00 0.  1.
         13    1    6    6    0    0 -0.56947492677E+01 -0.31240100462E+02  0.45731389460E+01  0.32082684908E+02  0.10500000000E+00 0. -1.
</event>
<event>
11    0  0.3443539E-009  0.9118800E+02  0.7816531E-02  0.1126479E+00
         25   -1    0    0    0    0  0.00000000000E+00  0.00000000000E+00  0.99999998245E-14  0.12500000000E+03  0.12500000000E+03 0.  0.
    3000001    1    3    3    0    0 -0.80954730220E+01 -0.83549062518E+00 -0.57794849757E+02  0.58373618925E+02  0.10000000000E+01 0.  1.
    1000022    2    1    0    0    0 -0.10091473163E+02  0.10668388629E+01 -0.60854531187E+02  0.62500000406E+02  0.10000005449E+02 0.  0.
    3000022    2    3    3    0    0 -0.19960001415E+01  0.19023294880E+01 -0.30596814306E+01  0.41263814809E+01  0.24999924659E+00 0.  0.
    1000022    2    1    0    0    0  0.10091473163E+02 -0.10668388629E+01  0.60854531187E+02  0.62499999594E+02  0.10000000374E+02 0.  0.
    3000022    2    5    5    0    0  0.11815855874E+02 -0.19023355342E+01  0.54081115680E+02  0.55390097482E+02  0.24999050929E+00 0.  0.
        -13    1    4    4    0    0 -0.12483250139E+01  0.11172342810E+01 -0.19055162764E+01  0.25393985623E+01  0.10500000000E+00 0.  1.
         13    1    4    4    0    0 -0.74767512762E+00  0.78509520705E+00 -0.11541651542E+01  0.15869829186E+01  0.10500000000E+00 0. -1.
    3000001    1    5    5    0    0 -0.17243827109E+01  0.83549667129E+00  0.67734155066E+01  0.71099021123E+01  0.10000000000E+01 0. -1.
        -13    1    6    6    0    0  0.58066611782E+01 -0.89129573082E+00  0.26788339676E+02  0.27425132446E+02  0.10500000000E+00 0. -1.
         13    1    6    6    0    0  0.60091946961E+01 -0.10110398033E+01  0.27292776005E+02  0.27964965035E+02  0.10500000000E+00 0.  1.
</event>
<event>
11    0  0.3443539E-009  0.9118800E+02  0.7816531E-02  0.1126479E+00
         25   -1    0    0    0    0  0.00000000000E+00  0.00000000000E+00  0.99999998245E-14  0.12500000000E+03  0.12500000000E+03 0.  0.
    3000001    1    3    3    0    0  0.36483616841E+02  0.33919031123E+02  0.47101374985E+01  0.50047381204E+02  0.10000000000E+01 0. -1.
    1000022    2    1    0    0    0  0.43064906865E+02  0.44132598390E+02  0.19944775742E+01  0.62499997037E+02  0.99999622429E+01 0.  0.
    3000022    2    3    3    0    0  0.65812900243E+01  0.10213567267E+02 -0.27156599243E+01  0.12452615833E+02  0.24999511490E+00 0.  0.
    1000022    2    1    0    0    0 -0.43064906865E+02 -0.44132598390E+02 -0.19944775742E+01  0.62500002963E+02  0.99999992811E+01 0.  0.
    3000022    2    5    5    0    0 -0.24859862521E+02 -0.23828312942E+02  0.36633836751E+01  0.34630682178E+02  0.25001180742E+00 0.  0.
        -13    1    4    4    0    0  0.36396481971E+01  0.55263872652E+01 -0.14682608678E+01  0.67789977268E+01  0.10500000000E+00 0.  1.
         13    1    4    4    0    0  0.29416418273E+01  0.46871800019E+01 -0.12473990565E+01  0.56736181063E+01  0.10500000000E+00 0. -1.
    3000001    1    5    5    0    0 -0.18205044344E+02 -0.20304285448E+02 -0.56578612493E+01  0.27869320785E+02  0.10000000000E+01 0.  1.
        -13    1    6    6    0    0 -0.13121469434E+02 -0.12655705664E+02  0.19759082722E+01  0.18337259459E+02  0.10500000000E+00 0. -1.
         13    1    6    6    0    0 -0.11738393088E+02 -0.11172607278E+02  0.16874754029E+01  0.16293422719E+02  0.10500000000E+00 0.  1.
</event>
<event>
11    0  0.3443539E-009  0.9118800E+02  0.7816531E-02  0.1126479E+00
         25   -1    0    0    0    0  0.00000000000E+00  0.00000000000E+00  0.99999998245E-14  0.12500000000E+03  0.12500000000E+03 0.  0.
    3000001    1    3    3    0    0 -0.18338872509E+02 -0.45855772916E+01 -0.20310623937E+02  0.27764423435E+02  0.10000000000E+01 0.  1.
    1000022    2    1    0    0    0 -0.37892159387E+02 -0.20710409671E+02 -0.44062604089E+02  0.62500000431E+02  0.10000008157E+02 0.  0.
    3000022    2    3    3    0    0 -0.19553286878E+02 -0.16124832379E+02 -0.23751980152E+02  0.34735576996E+02  0.25000226627E+00 0.  0.
    1000022    2    1    0    0    0  0.37892159387E+02  0.20710409671E+02  0.44062604089E+02  0.62499999569E+02  0.10000002766E+02 0.  0.
    3000022    2    5    5    0    0  0.37588604242E+02  0.20852505616E+02  0.43885259906E+02  0.61430519348E+02  0.25002210715E+00 0.  0.
        -13    1    4    4    0    0 -0.11151246176E+02 -0.92243982805E+01 -0.13647069765E+02  0.19892042456E+02  0.10500000000E+00 0.  1.
         13    1    4    4    0    0 -0.84020407014E+01 -0.69004340985E+01 -0.10104910387E+02  0.14843534539E+02  0.10500000000E+00 0. -1.
    3000001    1    5    5    0    0  0.30355514421E+00 -0.14209594497E+00  0.17734418292E+00  0.10694802207E+01  0.10000000000E+01 0. -1.
        -13    1    6    6    0    0  0.28479115685E+02  0.15779795470E+02  0.33220791587E+02  0.46515524225E+02  0.10500000000E+00 0. -1.
         13    1    6    6    0    0  0.91094885572E+01  0.50727101457E+01  0.10664468319E+02  0.14914995123E+02  0.10500000000E+00 0.  1.
</event>
<event>
11    0  0.3443539E-009  0.9118800E+02  0.7816531E-02  0.1126479E+00
         25   -1    0    0    0    0  0.00000000000E+00  0.00000000000E+00  0.99999998245E-14  0.12500000000E+03  0.12500000000E+03 0.  0.
    3000001    1    3    3    0    0  0.46526569535E+00  0.58434083942E+01 -0.37046772863E+02  0.37520997766E+02  0.10000000000E+01 0. -1.
    1000022    2    1    0    0    0 -0.47377007453E+01  0.38286107909E+01 -0.61393381185E+02  0.62499991090E+02  0.99998782022E+01 0.  0.
    3000022    2    3    3    0    0 -0.52029664406E+01 -0.20147976033E+01 -0.24346608322E+02  0.24978993324E+02  0.25000307491E+00 0.  0.
    1000022    2    1    0    0    0  0.47377007453E+01 -0.38286107909E+01  0.61393381185E+02  0.62500008910E+02  0.99999895732E+01 0.  0.
    3000022    2    5    5    0    0  0.43966588846E+01 -0.65415180687E+01  0.53667824999E+02  0.54244078083E+02  0.24999772345E+00 0.  0.
        -13    1    4    4    0    0 -0.25204877027E+01 -0.90772213747E+00 -0.11585890158E+02  0.11892043285E+02  0.10500000000E+00 0. -1.
         13    1    4    4    0    0 -0.26824787380E+01 -0.11070754659E+01 -0.12760718164E+02  0.13086950039E+02  0.10500000000E+00 0.  1.
    3000001    1    5    5    0    0  0.34104186074E+00  0.27129072779E+01  0.77255561854E+01  0.82559308271E+01  0.10000000000E+01 0. -1.
        -13    1    6    6    0    0  0.31743858190E+01 -0.46664247962E+01  0.38597671366E+02  0.39008249200E+02  0.10500000000E+00 0. -1.
         13    1    6    6    0    0  0.12222730655E+01 -0.18750932726E+01  0.15070153633E+02  0.15235828883E+02  0.10500000000E+00 0.  1.
</event>
<event>
11    0  0.3443539E-009  0.9118800E+02  0.7816531E-02  0.1126479E+00
         25   -1    0    0    0    0  0.00000000000E+00  0.00000000000E+00  0.99999998245E-14  0.12500000000E+03  0.12500000000E+03 0.  0.
    3000001    1    3    3    0    0 -0.83684454773E+01  0.25471795961E+02 -0.35021022171E+02  0.44117063174E+02  0.10000000000E+01 0.  1.
    1000022    2    1    0    0    0 -0.16771993715E+02  0.32003540713E+02 -0.50007231985E+02  0.62499998145E+02  0.10000006296E+02 0.  0.
    3000022    2    3    3    0    0 -0.84035482375E+01  0.65317447525E+01 -0.14986209814E+02  0.18382934971E+02  0.25000212723E+00 0.  0.
    1000022    2    1    0    0    0  0.16771993715E+02 -0.32003540713E+02  0.50007231985E+02  0.62500001855E+02  0.10000029490E+02 0.  0.
    3000022    2    5    5    0    0  0.69347647600E+01 -0.15525839001E+02  0.15535918703E+02  0.23034103075E+02  0.24999106787E+00 0.  0.
        -13    1    4    4    0    0 -0.39375735459E+01  0.31191874894E+01 -0.69881908264E+01  0.86069537033E+01  0.10500000000E+00 0.  1.
         13    1    4    4    0    0 -0.44659746916E+01  0.34125572631E+01 -0.79980189875E+01  0.97759812676E+01  0.10500000000E+00 0. -1.
    3000001    1    5    5    0    0  0.98372289548E+01 -0.16477701712E+02  0.34471313282E+02  0.39465898781E+02  0.10000000000E+01 0.  1.
        -13    1    6    6    0    0  0.28130377268E+01 -0.61773834068E+01  0.62550559039E+01  0.92309260840E+01  0.10500000000E+00 0.  1.
         13    1    6    6    0    0  0.41217270332E+01 -0.93484555942E+01  0.92808627996E+01  0.13803176991E+02  0.10500000000E+00 0. -1.
</event>
<event>
11    0  0.3443539E-009  0.9118800E+02  0.7816531E-02  0.1126479E+00
         25   -1    0    0    0    0  0.00000000000E+00  0.00000000000E+00  0.99999998245E-14  0.12500000000E+03  0.12500000000E+03 0.  0.
    3000001    1    3    3    0    0  0.12466766128E+02 -0.24407049938E+01 -0.28573760689E+01  0.13059169061E+02  0.10000000000E+01 0.  1.
    1000022    2    1    0    0    0  0.60924795205E+02  0.62107694006E+01 -0.74730307793E+01  0.62499995940E+02  0.99999488076E+01 0.  0.
    3000022    2    3    3    0    0  0.48458029076E+02  0.86514743944E+01 -0.46156547104E+01  0.49440826879E+02  0.25000576162E+00 0.  0.
    1000022    2    1    0    0    0 -0.60924795205E+02 -0.62107694006E+01  0.74730307793E+01  0.62500004060E+02  0.99999995590E+01 0.  0.
    3000022    2    5    5    0    0 -0.19703298796E+02 -0.21221394981E+00  0.67370638375E+01  0.20825838430E+02  0.24999785799E+00 0.  0.
        -13    1    4    4    0    0  0.29416215830E+02  0.52057646225E+01 -0.27581765661E+01  0.30000538363E+02  0.10500000000E+00 0.  1.
         13    1    4    4    0    0  0.19041813246E+02  0.34457097719E+01 -0.18574781443E+01  0.19440288516E+02  0.10500000000E+00 0. -1.
    3000001    1    5    5    0    0 -0.41221496408E+02 -0.59985554508E+01  0.73596694176E+00  0.41674165630E+02  0.10000000000E+01 0. -1.
        -13    1    6    6    0    0 -0.11877342395E+02 -0.74406302148E-01  0.40261977924E+01  0.12541853624E+02  0.10500000000E+00 0. -1.
         13    1    6    6    0    0 -0.78259564016E+01 -0.13780764766E+00  0.27108660451E+01  0.82839848057E+01  0.10500000000E+00 0.  1.
</event>
<event>
11    0  0.3443539E-009  0.9118800E+02  0.7816531E-02  0.1126479E+00
         25   -1    0    0    0    0  0.00000000000E+00  0.00000000000E+00  0.99999998245E-14  0.12500000000E+03  0.12500000000E+03 0.  0.
    3000001    1    3    3    0    0  0.12198881423E+01 -0.40776408621E+00 -0.40638895611E+00  0.16791517541E+01  0.10000000000E+01 0. -1.
    1000022    2    1    0    0    0  0.21184436987E+02 -0.14251366566E+02 -0.56163762047E+02  0.62500000935E+02  0.10000006508E+02 0.  0.
    3000022    2    3    3    0    0  0.19964548845E+02 -0.13843602479E+02 -0.55757373091E+02  0.60820849181E+02  0.25000179939E+00 0.  0.
    1000022    2    1    0    0    0 -0.21184436987E+02  0.14251366566E+02  0.56163762047E+02  0.62499999065E+02  0.99999948183E+01 0.  0.
    3000022    2    5    5    0    0 -0.85353254177E+01  0.38094697056E+01  0.31538389322E+02  0.32895232297E+02  0.24993481553E+00 0.  0.
        -13    1    4    4    0    0  0.15174945731E+02 -0.10539101981E+02 -0.42434000863E+02  0.46281822596E+02  0.10500000000E+00 0.  1.
         13    1    4    4    0    0  0.47896031142E+01 -0.33045004986E+01 -0.13323372228E+02  0.14539026586E+02  0.10500000000E+00 0. -1.
    3000001    1    5    5    0    0 -0.12649111570E+02  0.10441896860E+02  0.24625372725E+02  0.29604766768E+02  0.10000000000E+01 0.  1.
        -13    1    6    6    0    0 -0.29590284921E+01  0.13075113796E+01  0.11110813065E+02  0.11572667263E+02  0.10500000000E+00 0. -1.
         13    1    6    6    0    0 -0.55762969256E+01  0.25019583260E+01  0.20427576258E+02  0.21322565034E+02  0.10500000000E+00 0.  1.
</event>
<event>
11    0  0.3443539E-009  0.9118800E+02  0.7816531E-02  0.1126479E+00
         25   -1    0    0    0    0  0.00000000000E+00  0.00000000000E+00  0.99999998245E-14  0.12500000000E+03  0.12500000000E+03 0.  0.
    3000001    1    3    3    0    0 -0.32511583265E+00 -0.12000751887E+00 -0.15016246773E+00  0.10689484908E+01  0.10000000000E+01 0. -1.
    1000022    2    1    0    0    0 -0.38680660695E+02  0.22057300405E+02 -0.42702839937E+02  0.62499996570E+02  0.99999509823E+01 0.  0.
    3000022    2    3    3    0    0 -0.38355544862E+02  0.22177307924E+02 -0.42552677469E+02  0.61431048079E+02  0.24999981929E+00 0.  0.
    1000022    2    1    0    0    0  0.38680660695E+02 -0.22057300405E+02  0.42702839937E+02  0.62500003430E+02  0.99999938559E+01 0.  0.
    3000022    2    5    5    0    0  0.33660153319E+02 -0.22282514554E+02  0.39367796484E+02  0.56386188700E+02  0.24999952833E+00 0.  0.
        -13    1    4    4    0    0 -0.11859135312E+02  0.68014808590E+01 -0.13130747887E+02  0.18955917211E+02  0.10500000000E+00 0.  1.
         13    1    4    4    0    0 -0.26496409550E+02  0.15375827065E+02 -0.29421929582E+02  0.42475130868E+02  0.10500000000E+00 0. -1.
    3000001    1    5    5    0    0  0.50205073754E+01  0.22521414900E+00  0.33350434528E+01  0.61138147300E+01  0.10000000000E+01 0.  1.
        -13    1    6    6    0    0  0.16622904274E+02 -0.11055609419E+02  0.19396022342E+02  0.27834585569E+02  0.10500000000E+00 0.  1.
         13    1    6    6    0    0  0.17037249045E+02 -0.11226905135E+02  0.19971774143E+02  0.28551603131E+02  0.10500000000E+00 0. -1.
</event>
<event>
11    0  0.3443539E-009  0.9118800E+02  0.7816531E-02  0.1126479E+00
         25   -1    0    0    0    0  0.00000000000E+00  0.00000000000E+00  0.99999998245E-14  0.12500000000E+03  0.12500000000E+03 0.  0.
    3000001    1    3    3    0    0  0.12236713615E+02 -0.27187183597E+02  0.41951221926E+02  0.51476063691E+02  0.10000000000E+01 0.  1.
    1000022    2    1    0    0    0  0.15746826387E+02 -0.35997837990E+02  0.47565147015E+02  0.62500000343E+02  0.99999975605E+01 0.  0.
    3000022    2    3    3    0    0  0.35101127715E+01 -0.88106543932E+01  0.56139250885E+01  0.11023936652E+02  0.25000382767E+00 0.  0.
    1000022    2    1    0    0    0 -0.15746826387E+02  0.35997837990E+02 -0.47565147015E+02  0.62499999657E+02  0.99999932692E+01 0.  0.
    3000022    2    5    5    0    0 -0.46983045474E+01  0.16242101729E+02 -0.27241127735E+02  0.32062773934E+02  0.24999569966E+00 0.  0.
        -13    1    4    4    0    0  0.25873122557E+01 -0.65267632797E+01  0.41210322959E+01  0.81416678759E+01  0.10500000000E+00 0.  1.
         13    1    4    4    0    0  0.92280051582E+00 -0.22838911135E+01  0.14928927926E+01  0.28822687766E+01  0.10500000000E+00 0. -1.
    3000001    1    5    5    0    0 -0.11048521839E+02  0.19755736261E+02 -0.20324019279E+02  0.30437225723E+02  0.10000000000E+01 0.  1.
        -13    1    6    6    0    0 -0.32932417840E+01  0.11424491964E+02 -0.19072117159E+02  0.22474900133E+02  0.10500000000E+00 0.  1.
         13    1    6    6    0    0 -0.14050627634E+01  0.48176097647E+01 -0.81690105762E+01  0.95878738002E+01  0.10500000000E+00 0. -1.
</event>
<event>
11    0  0.3443539E-009  0.9118800E+02  0.7816531E-02  0.1126479E+00
         25   -1    0    0    0    0  0.00000000000E+00  0.00000000000E+00  0.99999998245E-14  0.12500000000E+03  0.12500000000E+03 0.  0.
    3000001    1    3    3    0    0  0.42374280464E+01  0.25440298291E+01  0.65463698458E+01  0.82633432930E+01  0.10000000000E+01 0. -1.
    1000022    2    1    0    0    0  0.45945294686E+02  0.70810876325E+00  0.41167686299E+02  0.62499998811E+02  0.99999967211E+01 0.  0.
    3000022    2    3    3    0    0  0.41707866639E+02 -0.18359210659E+01  0.34621316453E+02  0.54236655518E+02  0.25000619210E+00 0.  0.
    1000022    2    1    0    0    0 -0.45945294686E+02 -0.70810876325E+00 -0.41167686299E+02  0.62500001189E+02  0.10000011580E+02 0.  0.
    3000022    2    5    5    0    0 -0.84315148278E+01 -0.34169579138E+01 -0.53741897367E+01  0.10569317204E+02  0.25001431816E+00 0.  0.
        -13    1    4    4    0    0  0.22772130372E+02 -0.97031011762E+00  0.18977916942E+02  0.29659463580E+02  0.10500000000E+00 0. -1.
         13    1    4    4    0    0  0.18935736267E+02 -0.86561094827E+00  0.15643399512E+02  0.24577191938E+02  0.10500000000E+00 0.  1.
    3000001    1    5    5    0    0 -0.37513779858E+02  0.27088491506E+01 -0.35793496562E+02  0.51930683985E+02  0.10000000000E+01 0. -1.
        -13    1    6    6    0    0 -0.40165230483E+01 -0.16108987493E+01 -0.24801248729E+01  0.49889374183E+01  0.10500000000E+00 0.  1.
         13    1    6    6    0    0 -0.44149917795E+01 -0.18060591645E+01 -0.28940648639E+01  0.55803797859E+01  0.10500000000E+00 0. -1.
</event>
<event>
11    0  0.3443539E-009  0.9118800E+02  0.7816531E-02  0.1126479E+00
         25   -1    0    0    0    0  0.00000000000E+00  0.00000000000E+00  0.99999998245E-14  0.12500000000E+03  0.12500000000E+03 0.  0.
    3000001    1    3    3    0    0 -0.31333826267E+01  0.27607052277E+02 -0.59246172668E+01  0.28426545901E+02  0.10000000000E+01 0.  1.
    1000022    2    1    0    0    0 -0.18852970741E+01  0.57571103938E+02 -0.22096681731E+02  0.62500000058E+02  0.10000015503E+02 0.  0.
    3000022    2    3    3    0    0  0.12480855526E+01  0.29964051661E+02 -0.16172064464E+02  0.34073454157E+02  0.24999934323E+00 0.  0.
    1000022    2    1    0    0    0  0.18852970741E+01 -0.57571103938E+02  0.22096681731E+02  0.62499999942E+02  0.10000014775E+02 0.  0.
    3000022    2    5    5    0    0  0.23015203442E+01 -0.29539261924E+01  0.62945869076E+00  0.38054430240E+01  0.25000504104E+00 0.  0.
        -13    1    4    4    0    0  0.45420176919E+00  0.96792348967E+01 -0.52329261027E+01  0.11013102561E+02  0.10500000000E+00 0. -1.
         13    1    4    4    0    0  0.79388378339E+00  0.20284816764E+02 -0.10939138362E+02  0.23060351596E+02  0.10500000000E+00 0.  1.
    3000001    1    5    5    0    0 -0.41622327015E+00 -0.54617177746E+02  0.21467223040E+02  0.58694556918E+02  0.10000000000E+01 0.  1.
        -13    1    6    6    0    0  0.14111235196E+01 -0.17079836639E+01  0.36403079283E+00  0.22476701720E+01  0.10500000000E+00 0.  1.
         13    1    6    6    0    0  0.89039682464E+00 -0.12459425284E+01  0.26542789793E+00  0.15577728520E+01  0.10500000000E+00 0. -1.
</event>
<event>
11    0  0.3443539E-009  0.9118800E+02  0.7816531E-02  0.1126479E+00
         25   -1    0    0    0    0  0.00000000000E+00  0.00000000000E+00  0.99999998245E-14  0.12500000000E+03  0.12500000000E+03 0.  0.
    3000001    1    3    3    0    0 -0.20724338507E+01 -0.16027461549E+02  0.10183117203E+02  0.19127738542E+02  0.10000000000E+01 0. -1.
    1000022    2    1    0    0    0  0.58915455780E+01 -0.47369626224E+02  0.39085268304E+02  0.62500000327E+02  0.10000002233E+02 0.  0.
    3000022    2    3    3    0    0  0.79639794287E+01 -0.31342164675E+02  0.28902151101E+02  0.43372261786E+02  0.24999853795E+00 0.  0.
    1000022    2    1    0    0    0 -0.58915455780E+01  0.47369626224E+02 -0.39085268304E+02  0.62499999673E+02  0.99999981415E+01 0.  0.
    3000022    2    5    5    0    0 -0.57085193364E+01  0.26114802849E+02 -0.27151412855E+02  0.38102911298E+02  0.25001695430E+00 0.  0.
        -13    1    4    4    0    0  0.32980383351E+01 -0.13038049168E+02  0.11935611473E+02  0.17981591397E+02  0.10500000000E+00 0.  1.
         13    1    4    4    0    0  0.46659410936E+01 -0.18304115507E+02  0.16966539628E+02  0.25390670388E+02  0.10500000000E+00 0. -1.
    3000001    1    5    5    0    0 -0.18302624154E+00  0.21254823375E+02 -0.11933855448E+02  0.24397088375E+02  0.10000000000E+01 0.  1.
        -13    1    6    6    0    0 -0.33368995802E+01  0.14961338097E+02 -0.15559326967E+02  0.21842166035E+02  0.10500000000E+00 0. -1.
         13    1    6    6    0    0 -0.23716197562E+01  0.11153464752E+02 -0.11592085889E+02  0.16260745262E+02  0.10500000000E+00 0.  1.
</event>
<event>
11    0  0.3443539E-009  0.9118800E+02  0.7816531E-02  0.1126479E+00
         25   -1    0    0    0    0  0.00000000000E+00  0.00000000000E+00  0.99999998245E-14  0.12500000000E+03  0.12500000000E+03 0.  0.
    3000001    1    3    3    0    0 -0.38648602708E+01  0.49486823531E+01 -0.23272213804E+02  0.24125143259E+02  0.10000000000E+01 0.  1.
    1000022    2    1    0    0    0 -0.61691606400E+01  0.10376900705E+01 -0.61376825223E+02  0.62499999666E+02  0.99999970069E+01 0.  0.
    3000022    2    3    3    0    0 -0.23043003692E+01 -0.39109922826E+01 -0.38104611419E+02  0.38374856407E+02  0.25006404901E+00 0.  0.
    1000022    2    1    0    0    0  0.61691606400E+01 -0.10376900705E+01  0.61376825223E+02  0.62500000334E+02  0.10000001180E+02 0.  0.
    3000022    2    5    5    0    0  0.82787592425E+01 -0.26910887427E+01  0.40324111255E+02  0.41253803055E+02  0.25000941295E+00 0.  0.
        -13    1    4    4    0    0 -0.10340286914E+01 -0.17757604052E+01 -0.17811719185E+02  0.17930167475E+02  0.10500000000E+00 0.  1.
         13    1    4    4    0    0 -0.12702716778E+01 -0.21352318774E+01 -0.20292892234E+02  0.20444688932E+02  0.10500000000E+00 0. -1.
    3000001    1    5    5    0    0 -0.21095986026E+01  0.16533986722E+01  0.21052713967E+02  0.21246197279E+02  0.10000000000E+01 0. -1.
        -13    1    6    6    0    0  0.31131726050E+01 -0.95085145080E+00  0.15152070979E+02  0.15498136730E+02  0.10500000000E+00 0.  1.
         13    1    6    6    0    0  0.51655866375E+01 -0.17402372919E+01  0.25172040277E+02  0.25755666325E+02  0.10500000000E+00 0. -1.
</event>
<event>
11    0  0.3443539E-009  0.9118800E+02  0.7816531E-02  0.1126479E+00
         25   -1    0    0    0    0  0.00000000000E+00  0.00000000000E+00  0.99999998245E-14  0.12500000000E+03  0.12500000000E+03 0.  0.
    3000001    1    3    3    0    0  0.14259819259E+02  0.20579421502E+02  0.98496975229E+01  0.26923439156E+02  0.10000000000E+01 0.  1.
    1000022    2    1    0    0    0  0.29417049217E+02  0.43311528237E+02  0.32634316287E+02  0.62499999776E+02  0.10000005481E+02 0.  0.
    3000022    2    3    3    0    0  0.15157229958E+02  0.22732106735E+02  0.22784618764E+02  0.35576560621E+02  0.25003350690E+00 0.  0.
    1000022    2    1    0    0    0 -0.29417049217E+02 -0.43311528237E+02 -0.32634316287E+02  0.62500000224E+02  0.10000008276E+02 0.  0.
    3000022    2    5    5    0    0 -0.84599696015E+01 -0.74157728620E+01 -0.10532007226E+02  0.15412671718E+02  0.25000094320E+00 0.  0.
        -13    1    4    4    0    0  0.61321532409E+01  0.92985775056E+01  0.92502281686E+01  0.14479108853E+02  0.10500000000E+00 0. -1.
         13    1    4    4    0    0  0.90250767169E+01  0.13433529229E+02  0.13534390596E+02  0.21097451768E+02  0.10500000000E+00 0.  1.
    3000001    1    5    5    0    0 -0.20957079616E+02 -0.35895755375E+02 -0.22102309061E+02  0.47087328506E+02  0.10000000000E+01 0. -1.
        -13    1    6    6    0    0 -0.55709971613E+01 -0.49190078923E+01 -0.68913383699E+01  0.10135788945E+02  0.10500000000E+00 0.  1.
         13    1    6    6    0    0 -0.28889724402E+01 -0.24967649697E+01 -0.36406688562E+01  0.52768827725E+01  0.10500000000E+00 0. -1.
</event>
<event>
11    0  0.3443539E-009  0.9118800E+02  0.7816531E-02  0.1126479E+00
         25   -1    0    0    0    0  0.00000000000E+00  0.00000000000E+00  0.99999998245E-14  0.12500000000E+03  0.12500000000E+03 0.  0.
    3000001    1    3    3    0    0  0.75771424450E+00 -0.34890401704E+00 -0.35164897856E+01  0.37498753715E+01  0.10000000000E+01 0. -1.
    1000022    2    1    0    0    0  0.22475425930E+02  0.27907749123E+02 -0.50222134884E+02  0.62500000748E+02  0.10000001463E+02 0.  0.
    3000022    2    3    3    0    0  0.21717711686E+02  0.28256653140E+02 -0.46705645099E+02  0.58750125376E+02  0.25000016082E+00 0.  0.
    1000022    2    1    0    0    0 -0.22475425930E+02 -0.27907749123E+02  0.50222134884E+02  0.62499999252E+02  0.99999921175E+01 0.  0.
    3000022    2    5    5    0    0 -0.80404186577E+01 -0.13537624106E+02  0.14710173614E+02  0.21549183372E+02  0.24999527542E+00 0.  0.
        -13    1    4    4    0    0  0.87880684130E+01  0.11330231109E+02 -0.18789867894E+02  0.23636295054E+02  0.10500000000E+00 0.  1.
         13    1    4    4    0    0  0.12929643273E+02  0.16926422031E+02 -0.27915777205E+02  0.35113830322E+02  0.10500000000E+00 0. -1.
    3000001    1    5    5    0    0 -0.14435007272E+02 -0.14370125017E+02  0.35511961271E+02  0.40950815880E+02  0.10000000000E+01 0.  1.
        -13    1    6    6    0    0 -0.38657785636E+01 -0.66281030392E+01  0.71278921556E+01  0.10473483918E+02  0.10500000000E+00 0.  1.
         13    1    6    6    0    0 -0.41746400941E+01 -0.69095210667E+01  0.75822814580E+01  0.11075699454E+02  0.10500000000E+00 0. -1.
</event>
<event>
11    0  0.3443539E-009  0.9118800E+02  0.7816531E-02  0.1126479E+00
         25   -1    0    0    0    0  0.00000000000E+00  0.00000000000E+00  0.99999998245E-14  0.12500000000E+03  0.12500000000E+03 0.  0.
    3000001    1    3    3    0    0  0.41258929698E+01  0.20608250287E+02 -0.44422660512E+02  0.49153796798E+02  0.10000000000E+01 0. -1.
    1000022    2    1    0    0    0  0.99001294874E+01  0.27217494503E+02 -0.54474263786E+02  0.62500000123E+02  0.10000001474E+02 0.  0.
    3000022    2    3    3    0    0  0.57742365176E+01  0.66092442161E+01 -0.10051603274E+02  0.13346203325E+02  0.24999670247E+00 0.  0.
    1000022    2    1    0    0    0 -0.99001294874E+01 -0.27217494503E+02  0.54474263786E+02  0.62499999877E+02  0.99999999371E+01 0.  0.
    3000022    2    5    5    0    0 -0.36348596756E+01 -0.77843478055E+01  0.80578808637E+01  0.11781350448E+02  0.24999747592E+00 0.  0.
        -13    1    4    4    0    0  0.28365260710E+01  0.32399981709E+01 -0.48292036216E+01  0.64711437102E+01  0.10500000000E+00 0.  1.
         13    1    4    4    0    0  0.29377104466E+01  0.33692460453E+01 -0.52223996522E+01  0.68750596150E+01  0.10500000000E+00 0. -1.
    3000001    1    5    5    0    0 -0.62652698117E+01 -0.19433146698E+02  0.46416382922E+02  0.50718649429E+02  0.10000000000E+01 0. -1.
        -13    1    6    6    0    0 -0.94696508963E+00 -0.21101265334E+01  0.21817284903E+01  0.31812483514E+01  0.10500000000E+00 0.  1.
         13    1    6    6    0    0 -0.26878945860E+01 -0.56742212721E+01  0.58761523734E+01  0.86001020962E+01  0.10500000000E+00 0. -1.
</event>
<event>
11    0  0.3443539E-009  0.9118800E+02  0.7816531E-02  0.1126479E+00
         25   -1    0    0    0    0  0.00000000000E+00  0.00000000000E+00  0.99999998245E-14  0.12500000000E+03  0.12500000000E+03 0.  0.
    3000001    1    3    3    0    0  0.19995163958E+02  0.16185968925E+02 -0.87510124490E+00  0.25759619057E+02  0.10000000000E+01 0. -1.
    1000022    2    1    0    0    0  0.46103320440E+02  0.39904355011E+02  0.94008635409E+01  0.62500000328E+02  0.10000005062E+02 0.  0.
    3000022    2    3    3    0    0  0.26108156482E+02  0.23718386086E+02  0.10275964786E+02  0.36740381271E+02  0.24998055230E+00 0.  0.
    1000022    2    1    0    0    0 -0.46103320440E+02 -0.39904355011E+02 -0.94008635409E+01  0.62499999672E+02  0.10000000962E+02 0.  0.
    3000022    2    5    5    0    0 -0.32197392979E+02 -0.30547148130E+02 -0.10713676626E+02  0.45657920900E+02  0.25000107662E+00 0.  0.
        -13    1    4    4    0    0  0.94913296204E+01  0.86644575591E+01  0.36920625524E+01  0.13371630927E+02  0.10500000000E+00 0.  1.
         13    1    4    4    0    0  0.16616826862E+02  0.15053928527E+02  0.65839022334E+01  0.23368750344E+02  0.10500000000E+00 0. -1.
    3000001    1    5    5    0    0 -0.13905927461E+02 -0.93572068813E+01  0.13128130853E+01  0.16842078772E+02  0.10000000000E+01 0.  1.
        -13    1    6    6    0    0 -0.24182972137E+02 -0.22925440894E+02 -0.80667321337E+01  0.34285203425E+02  0.10500000000E+00 0.  1.
         13    1    6    6    0    0 -0.80144208423E+01 -0.76217072362E+01 -0.26469444924E+01  0.11372717476E+02  0.10500000000E+00 0. -1.
</event>
<event>
11    0  0.3443539E-009  0.9118800E+02  0.7816531E-02  0.1126479E+00
         25   -1    0    0    0    0  0.00000000000E+00  0.00000000000E+00  0.99999998245E-14  0.12500000000E+03  0.12500000000E+03 0.  0.
    3000001    1    3    3    0    0 -0.13297575298E+02  0.36042993157E+02  0.27076625612E+02  0.47011344578E+02  0.10000000000E+01 0. -1.
    1000022    2    1    0    0    0 -0.18244984190E+02  0.43594453171E+02  0.39659732403E+02  0.62500001093E+02  0.99999983451E+01 0.  0.
    3000022    2    3    3    0    0 -0.49474088920E+01  0.75514600140E+01  0.12583106792E+02  0.15488656515E+02  0.25000201584E+00 0.  0.
    1000022    2    1    0    0    0  0.18244984190E+02 -0.43594453171E+02 -0.39659732403E+02  0.62499998907E+02  0.99999846869E+01 0.  0.
    3000022    2    5    5    0    0  0.16988787744E+02 -0.29089870633E+02 -0.26772884338E+02  0.43031259935E+02  0.25002669353E+00 0.  0.
        -13    1    4    4    0    0 -0.14049903773E+01  0.22216269462E+01  0.36815494704E+01  0.45248707994E+01  0.10500000000E+00 0.  1.
         13    1    4    4    0    0 -0.35424185146E+01  0.53298330678E+01  0.89015573214E+01  0.10963785715E+02  0.10500000000E+00 0.  1.
    3000001    1    5    5    0    0  0.12561964454E+01 -0.14504582538E+02 -0.12886848066E+02  0.19468738973E+02  0.10000000000E+01 0. -1.
        -13    1    6    6    0    0  0.79491879614E+01 -0.13623644440E+02 -0.12450002704E+02  0.20094946365E+02  0.10500000000E+00 0.  1.
         13    1    6    6    0    0  0.90395997829E+01 -0.15466226192E+02 -0.14322881634E+02  0.22936313570E+02  0.10500000000E+00 0. -1.
</event>
<event>
11    0  0.3443539E-009  0.9118800E+02  0.7816531E-02  0.1126479E+00
         25   -1    0    0    0    0  0.00000000000E+00  0.00000000000E+00  0.99999998245E-14  0.12500000000E+03  0.12500000000E+03 0.  0.
    3000001    1    3    3    0    0  0.21759501847E+02  0.15664036582E+01  0.98901927697E+01  0.23973849380E+02  0.10000000000E+01 0.  1.
    1000022    2    1    0    0    0  0.57427354038E+02 -0.75467958686E+01  0.21246056969E+02  0.62499999385E+02  0.99999933343E+01 0.  0.
    3000022    2    3    3    0    0  0.35667852190E+02 -0.91131995268E+01  0.11355864200E+02  0.38526150005E+02  0.24999397347E+00 0.  0.
    1000022    2    1    0    0    0 -0.57427354038E+02  0.75467958686E+01 -0.21246056969E+02  0.62500000615E+02  0.10000001027E+02 0.  0.
    3000022    2    5    5    0    0 -0.30275162733E+02  0.10948463523E+01 -0.67630703453E+01  0.31041678239E+02  0.25000067252E+00 0.  0.
        -13    1    4    4    0    0  0.17263686966E+02 -0.44800591327E+01  0.54914881449E+01  0.18662081463E+02  0.10500000000E+00 0. -1.
         13    1    4    4    0    0  0.18404165224E+02 -0.46331403941E+01  0.58643760549E+01  0.19864068542E+02  0.10500000000E+00 0.  1.
    3000001    1    5    5    0    0 -0.27152191304E+02  0.64519495163E+01 -0.14482986624E+02  0.31458322377E+02  0.10000000000E+01 0.  1.
        -13    1    6    6    0    0 -0.15059519751E+02  0.56170206493E+00 -0.32969887615E+01  0.15426788527E+02  0.10500000000E+00 0.  1.
         13    1    6    6    0    0 -0.15215642982E+02  0.53314428739E+00 -0.34660815838E+01  0.15614889712E+02  0.10500000000E+00 0. -1.
</event>
<event>
11    0  0.3443539E-009  0.9118800E+02  0.7816531E-02  0.1126479E+00
         25   -1    0    0    0    0  0.00000000000E+00  0.00000000000E+00  0.99999998245E-14  0.12500000000E+03  0.12500000000E+03 0.  0.
    3000001    1    3    3    0    0 -0.30962224758E+01 -0.10208598675E+02 -0.16446468820E+01  0.10840061987E+02  0.10000000000E+01 0. -1.
    1000022    2    1    0    0    0 -0.29038774386E+02 -0.53871617835E+02  0.78005458637E+01  0.62500002081E+02  0.10000005918E+02 0.  0.
    3000022    2    3    3    0    0 -0.25942551910E+02 -0.43663019160E+02  0.94451927456E+01  0.51659940094E+02  0.25000537144E+00 0.  0.
    1000022    2    1    0    0    0  0.29038774386E+02  0.53871617835E+02 -0.78005458637E+01  0.62499997919E+02  0.99999799027E+01 0.  0.
    3000022    2    5    5    0    0  0.16671001409E+02  0.29965715100E+02  0.56513802374E+00  0.34296475782E+02  0.25000134507E+00 0.  0.
        -13    1    4    4    0    0 -0.74550234314E+01 -0.12467995771E+02  0.27116906205E+01  0.14778111650E+02  0.10500000000E+00 0.  1.
         13    1    4    4    0    0 -0.18487528479E+02 -0.31195023389E+02  0.67335021251E+01  0.36881828444E+02  0.10500000000E+00 0. -1.
    3000001    1    5    5    0    0  0.12367772977E+02  0.23905902735E+02 -0.83656838874E+01  0.28203522137E+02  0.10000000000E+01 0.  1.
        -13    1    6    6    0    0  0.69853015254E+01  0.12429713034E+02  0.21515538277E+00  0.14260067333E+02  0.10500000000E+00 0.  1.
         13    1    6    6    0    0  0.96856998834E+01  0.17536002066E+02  0.34998264097E+00  0.20036408449E+02  0.10500000000E+00 0. -1.
</event>
<event>
11    0  0.3443539E-009  0.9118800E+02  0.7816531E-02  0.1126479E+00
         25   -1    0    0    0    0  0.00000000000E+00  0.00000000000E+00  0.99999998245E-14  0.12500000000E+03  0.12500000000E+03 0.  0.
    3000001    1    3    3    0    0 -0.26707755881E+01 -0.75758177460E+00 -0.42270389947E+00  0.29808809056E+01  0.10000000000E+01 0. -1.
    1000022    2    1    0    0    0 -0.37083029604E+02 -0.24788670729E+02 -0.42621833993E+02  0.62499999979E+02  0.99999991694E+01 0.  0.
    3000022    2    3    3    0    0 -0.34412254016E+02 -0.24031088955E+02 -0.42199130094E+02  0.59519119074E+02  0.24998376663E+00 0.  0.
    1000022    2    1    0    0    0  0.37083029604E+02  0.24788670729E+02  0.42621833993E+02  0.62500000021E+02  0.99999994257E+01 0.  0.
    3000022    2    5    5    0    0  0.33700981539E+02  0.25295849571E+02  0.39647560013E+02  0.57858687146E+02  0.25000217219E+00 0.  0.
        -13    1    4    4    0    0 -0.25398749472E+02 -0.17717331978E+02 -0.31174937435E+02  0.43941871560E+02  0.10500000000E+00 0. -1.
         13    1    4    4    0    0 -0.90135045439E+01 -0.63137569768E+01 -0.11024192659E+02  0.15577247514E+02  0.10500000000E+00 0.  1.
    3000001    1    5    5    0    0  0.33820480648E+01 -0.50717884154E+00  0.29742739801E+01  0.46413128744E+01  0.10000000000E+01 0. -1.
        -13    1    6    6    0    0  0.12806398543E+02  0.96734616256E+01  0.15050628932E+02  0.22002548937E+02  0.10500000000E+00 0. -1.
         13    1    6    6    0    0  0.20894582996E+02  0.15622387945E+02  0.24596931081E+02  0.35856138209E+02  0.10500000000E+00 0.  1.
</event>
<event>
11    0  0.3443539E-009  0.9118800E+02  0.7816531E-02  0.1126479E+00
         25   -1    0    0    0    0  0.00000000000E+00  0.00000000000E+00  0.99999998245E-14  0.12500000000E+03  0.12500000000E+03 0.  0.
    3000001    1    3    3    0    0  0.34659223542E+02  0.30912945517E+02  0.73244926587E+01  0.47026802675E+02  0.10000000000E+01 0.  1.
    1000022    2    1    0    0    0  0.48823964554E+02  0.37108028055E+02  0.67427575581E+01  0.62500000600E+02  0.10000001734E+02 0.  0.
    3000022    2    3    3    0    0  0.14164741012E+02  0.61950825376E+01 -0.58173510056E+00  0.15473197926E+02  0.25000548610E+00 0.  0.
    1000022    2    1    0    0    0 -0.48823964554E+02 -0.37108028055E+02 -0.67427575581E+01  0.62499999400E+02  0.99999942312E+01 0.  0.
    3000022    2    5    5    0    0 -0.28790413446E+02 -0.26554456990E+02 -0.12939095284E+01  0.39188822315E+02  0.25000037975E+00 0.  0.
        -13    1    4    4    0    0  0.72446180620E+01  0.31551099141E+01 -0.23062859732E+00  0.79059106993E+01  0.10500000000E+00 0. -1.
         13    1    4    4    0    0  0.69201229495E+01  0.30399726235E+01 -0.35110650324E+00  0.75672872263E+01  0.10500000000E+00 0.  1.
    3000001    1    5    5    0    0 -0.20033551107E+02 -0.10553571065E+02 -0.54488480298E+01  0.23311177084E+02  0.10000000000E+01 0.  1.
        -13    1    6    6    0    0 -0.12263935129E+02 -0.11264139397E+02 -0.49495627744E+00  0.16659560256E+02  0.10500000000E+00 0.  1.
         13    1    6    6    0    0 -0.16526478318E+02 -0.15290317593E+02 -0.79895325093E+00  0.22529262060E+02  0.10500000000E+00 0. -1.
</event>
<event>
11    0  0.3443539E-009  0.9118800E+02  0.7816531E-02  0.1126479E+00
         25   -1    0    0    0    0  0.00000000000E+00  0.00000000000E+00  0.99999998245E-14  0.12500000000E+03  0.12500000000E+03 0.  0.
    3000001    1    3    3    0    0 -0.13659980941E+02  0.21790590827E+02 -0.52971059699E+01  0.26277067180E+02  0.10000000000E+01 0. -1.
    1000022    2    1    0    0    0 -0.32715470252E+02  0.52296409197E+02 -0.10167150097E+01  0.62500000151E+02  0.99999950377E+01 0.  0.
    3000022    2    3    3    0    0 -0.19055489311E+02  0.30505818369E+02  0.42803909602E+01  0.36222932971E+02  0.24999796779E+00 0.  0.
    1000022    2    1    0    0    0  0.32715470252E+02 -0.52296409197E+02  0.10167150097E+01  0.62499999849E+02  0.99999931545E+01 0.  0.
    3000022    2    5    5    0    0  0.28111985804E+02 -0.49647125492E+02  0.35826020517E+00  0.57055338617E+02  0.24999758413E+00 0.  0.
        -13    1    4    4    0    0 -0.54720719411E+01  0.88406647168E+01  0.12358881317E+01  0.10470881932E+02  0.10500000000E+00 0. -1.
         13    1    4    4    0    0 -0.13583417370E+02  0.21665153652E+02  0.30445028285E+01  0.25752051039E+02  0.10500000000E+00 0.  1.
    3000001    1    5    5    0    0  0.46034844482E+01 -0.26492837043E+01  0.65845480450E+00  0.54446612328E+01  0.10000000000E+01 0.  1.
        -13    1    6    6    0    0  0.10616800283E+02 -0.18856736658E+02  0.10568865524E+00  0.21640590582E+02  0.10500000000E+00 0.  1.
         13    1    6    6    0    0  0.17495185520E+02 -0.30790388834E+02  0.25257154993E+00  0.35414748034E+02  0.10500000000E+00 0. -1.
</event>
<event>
11    0  0.3443539E-009  0.9118800E+02  0.7816531E-02  0.1126479E+00
         25   -1    0    0    0    0  0.00000000000E+00  0.00000000000E+00  0.99999998245E-14  0.12500000000E+03  0.12500000000E+03 0.  0.
    3000001    1    3    3    0    0 -0.24298912855E+01 -0.17962113984E+02  0.53611424064E+01  0.18928384990E+02  0.10000000000E+01 0. -1.
    1000022    2    1    0    0    0  0.33975046925E+01 -0.61043397913E+02  0.82710815409E+01  0.62500002153E+02  0.10000000615E+02 0.  0.
    3000022    2    3    3    0    0  0.58273959780E+01 -0.43081283929E+02  0.29099391345E+01  0.43571617162E+02  0.25001502765E+00 0.  0.
    1000022    2    1    0    0    0 -0.33975046925E+01  0.61043397913E+02 -0.82710815409E+01  0.62499997847E+02  0.99999737058E+01 0.  0.
    3000022    2    5    5    0    0 -0.34654044469E+01  0.50228761539E+02 -0.10451985349E+02  0.51422213244E+02  0.25000698937E+00 0.  0.
        -13    1    4    4    0    0  0.33646025453E+01 -0.24796323329E+02  0.16105083928E+01  0.25075545123E+02  0.10500000000E+00 0. -1.
         13    1    4    4    0    0  0.24627934328E+01 -0.18284960600E+02  0.12994307417E+01  0.18496072039E+02  0.10500000000E+00 0.  1.
    3000001    1    5    5    0    0  0.67899754407E-01  0.10814636375E+02  0.21809038084E+01  0.11077784603E+02  0.10000000000E+01 0. -1.
        -13    1    6    6    0    0 -0.18474324497E+01  0.27701219579E+02 -0.57431405918E+01  0.28350754164E+02  0.10500000000E+00 0.  1.
         13    1    6    6    0    0 -0.16179719972E+01  0.22527541960E+02 -0.47088447575E+01  0.23071459080E+02  0.10500000000E+00 0. -1.
</event>
<event>
11    0  0.3443539E-009  0.9118800E+02  0.7816531E-02  0.1126479E+00
         25   -1    0    0    0    0  0.00000000000E+00  0.00000000000E+00  0.99999998245E-14  0.12500000000E+03  0.12500000000E+03 0.  0.
    3000001    1    3    3    0    0  0.35511391406E+02 -0.24028074400E+02  0.14098689929E+02  0.45146210657E+02  0.10000000000E+01 0. -1.
    1000022    2    1    0    0    0  0.50661307722E+02 -0.32473723438E+02  0.13606543023E+02  0.62499990068E+02  0.99999965746E+01 0.  0.
    3000022    2    3    3    0    0  0.15149916316E+02 -0.84456490378E+01 -0.49214690607E+00  0.17353779411E+02  0.24999846694E+00 0.  0.
    1000022    2    1    0    0    0 -0.50661307722E+02  0.32473723438E+02 -0.13606543023E+02  0.62500009932E+02  0.10000120718E+02 0.  0.
    3000022    2    5    5    0    0 -0.30665536151E+02  0.20972282336E+02 -0.35682325972E+01  0.37323002478E+02  0.24999249927E+00 0.  0.
        -13    1    4    4    0    0  0.54476777431E+01 -0.29725832452E+01 -0.16276681329E+00  0.62089420981E+01  0.10500000000E+00 0.  1.
         13    1    4    4    0    0  0.97022385727E+01 -0.54730657926E+01 -0.32938009278E+00  0.11144837313E+02  0.10500000000E+00 0. -1.
    3000001    1    5    5    0    0 -0.19995771571E+02  0.11501441102E+02 -0.10038310426E+02  0.25177007454E+02  0.10000000000E+01 0.  1.
        -13    1    6    6    0    0 -0.94435613613E+01  0.64981593786E+01 -0.11363563431E+01  0.11519950401E+02  0.10500000000E+00 0.  1.
         13    1    6    6    0    0 -0.21221974790E+02  0.14474122958E+02 -0.24318762540E+01  0.25803052077E+02  0.10500000000E+00 0. -1.
</event>
<event>
11    0  0.3443539E-009  0.9118800E+02  0.7816531E-02  0.1126479E+00
         25   -1    0    0    0    0  0.00000000000E+00  0.00000000000E+00  0.99999998245E-14  0.12500000000E+03  0.12500000000E+03 0.  0.
    3000001    1    3    3    0    0 -0.10748394903E+02  0.41633477178E+01  0.18538915426E+01  0.11717438758E+02  0.10000000000E+01 0.  1.
    1000022    2    1    0    0    0 -0.59797899915E+02  0.27532253377E+01  0.14929197598E+02  0.62499999978E+02  0.99999986169E+01 0.  0.
    3000022    2    3    3    0    0 -0.49049505013E+02 -0.14101223801E+01  0.13075306055E+02  0.50782561220E+02  0.25001703360E+00 0.  0.
    1000022    2    1    0    0    0  0.59797899915E+02 -0.27532253377E+01 -0.14929197598E+02  0.62500000022E+02  0.99999988878E+01 0.  0.
    3000022    2    5    5    0    0  0.59262616398E+02 -0.34373578718E+01 -0.14505539517E+02  0.61109298063E+02  0.25000317734E+00 0.  0.
        -13    1    4    4    0    0 -0.19478795533E+02 -0.49849293436E+00  0.52052185502E+01  0.20168720728E+02  0.10500000000E+00 0.  1.
         13    1    4    4    0    0 -0.29570709479E+02 -0.91162944573E+00  0.78700875052E+01  0.30613840493E+02  0.10500000000E+00 0. -1.
    3000001    1    5    5    0    0  0.53528351703E+00  0.68413253410E+00 -0.42365808155E+00  0.13907019587E+01  0.10000000000E+01 0.  1.
        -13    1    6    6    0    0  0.21095813228E+02 -0.12571769377E+01 -0.52121483321E+01  0.21766748606E+02  0.10500000000E+00 0.  1.
         13    1    6    6    0    0  0.38166803170E+02 -0.21801809342E+01 -0.92933911844E+01  0.39342549457E+02  0.10500000000E+00 0. -1.
</event>
<event>
11    0  0.3443539E-009  0.9118800E+02  0.7816531E-02  0.1126479E+00
         25   -1    0    0    0    0  0.00000000000E+00  0.00000000000E+00  0.99999998245E-14  0.12500000000E+03  0.12500000000E+03 0.  0.
    3000001    1    3    3    0    0  0.11631789943E+02 -0.19235912514E+02 -0.26462883824E+02  0.34736192765E+02  0.10000000000E+01 0.  1.
    1000022    2    1    0    0    0  0.28660068708E+02 -0.31464235578E+02 -0.44663771230E+02  0.62499999395E+02  0.99999902464E+01 0.  0.
    3000022    2    3    3    0    0  0.17028278765E+02 -0.12228323064E+02 -0.18200887406E+02  0.27763806629E+02  0.24998703286E+00 0.  0.
    1000022    2    1    0    0    0 -0.28660068708E+02  0.31464235578E+02  0.44663771230E+02  0.62500000605E+02  0.99999978148E+01 0.  0.
    3000022    2    5    5    0    0 -0.12884195722E+02  0.95047614611E+01  0.11581288921E+02  0.19761875849E+02  0.24998830046E+00 0.  0.
        -13    1    4    4    0    0  0.10569021304E+02 -0.75175957104E+01 -0.11282026436E+02  0.17190509070E+02  0.10500000000E+00 0.  1.
         13    1    4    4    0    0  0.64592574616E+01 -0.47107273539E+01 -0.69188609702E+01  0.10573297560E+02  0.10500000000E+00 0. -1.
    3000001    1    5    5    0    0 -0.15775872986E+02  0.21959474117E+02  0.33082482310E+02  0.42738124757E+02  0.10000000000E+01 0. -1.
        -13    1    6    6    0    0 -0.36833954067E+01  0.27426051367E+01  0.33676322311E+01  0.56957226497E+01  0.10500000000E+00 0.  1.
         13    1    6    6    0    0 -0.92008003156E+01  0.67621563245E+01  0.82136566898E+01  0.14066153199E+02  0.10500000000E+00 0. -1.
</event>
<event>
11    0  0.3443539E-009  0.9118800E+02  0.7816531E-02  0.1126479E+00
         25   -1    0    0    0    0  0.00000000000E+00  0.00000000000E+00  0.99999998245E-14  0.12500000000E+03  0.12500000000E+03 0.  0.
    3000001    1    3    3    0    0 -0.90044500252E+01  0.46841697404E+01 -0.31648184628E+02  0.33251002341E+02  0.10000000000E+01 0. -1.
    1000022    2    1    0    0    0 -0.23060142521E+02  0.22296996504E+01 -0.57179618788E+02  0.62499994552E+02  0.99999390311E+01 0.  0.
    3000022    2    3    3    0    0 -0.14055692496E+02 -0.24544700900E+01 -0.25531434159E+02  0.29248992211E+02  0.25000028179E+00 0.  0.
    1000022    2    1    0    0    0  0.23060142521E+02 -0.22296996504E+01  0.57179618788E+02  0.62500005448E+02  0.10000007135E+02 0.  0.
    3000022    2    5    5    0    0  0.11638267696E+02  0.31864182004E+01  0.21820306939E+02  0.24935733973E+02  0.24999584147E+00 0.  0.
        -13    1    4    4    0    0 -0.51018597284E+01 -0.93725293897E+00 -0.92072238396E+01  0.10568415756E+02  0.10500000000E+00 0.  1.
         13    1    4    4    0    0 -0.89538327677E+01 -0.15172171510E+01 -0.16324210320E+02  0.18680576454E+02  0.10500000000E+00 0. -1.
    3000001    1    5    5    0    0  0.11421874825E+02 -0.54161178508E+01  0.35359311849E+02  0.37564271476E+02  0.10000000000E+01 0.  1.
        -13    1    6    6    0    0  0.72903937624E+01  0.20571553517E+01  0.13675584325E+02  0.15633757097E+02  0.10500000000E+00 0. -1.
         13    1    6    6    0    0  0.43478739338E+01  0.11292628487E+01  0.81447226143E+01  0.93019768753E+01  0.10500000000E+00 0.  1.
</event>
<event>
11    0  0.3443539E-009  0.9118800E+02  0.7816531E-02  0.1126479E+00
         25   -1    0    0    0    0  0.00000000000E+00  0.00000000000E+00  0.99999998245E-14  0.12500000000E+03  0.12500000000E+03 0.  0.
    3000001    1    3    3    0    0  0.39923512318E+02 -0.85199392661E+01  0.56989577831E+01  0.41230502310E+02  0.10000000000E+01 0. -1.
    1000022    2    1    0    0    0  0.60837396371E+02 -0.10024321634E+02  0.21387194719E+01  0.62499999441E+02  0.99999993870E+01 0.  0.
    3000022    2    3    3    0    0  0.20913884053E+02 -0.15043823683E+01 -0.35602383112E+01  0.21269497131E+02  0.24999779843E+00 0.  0.
    1000022    2    1    0    0    0 -0.60837396371E+02  0.10024321634E+02 -0.21387194719E+01  0.62500000559E+02  0.10000006377E+02 0.  0.
    3000022    2    5    5    0    0 -0.38317196327E+02  0.10898091880E+02 -0.27494402943E+01  0.39932416188E+02  0.24999931903E+00 0.  0.
        -13    1    4    4    0    0  0.13053643323E+02 -0.88126751180E+00 -0.22030812796E+01  0.13267962487E+02  0.10500000000E+00 0. -1.
         13    1    4    4    0    0  0.78602407295E+01 -0.62311485650E+00 -0.13571570316E+01  0.80015346440E+01  0.10500000000E+00 0.  1.
    3000001    1    5    5    0    0 -0.22520200044E+02 -0.87377024580E+00  0.61072082248E+00  0.22567584372E+02  0.10000000000E+01 0.  1.
        -13    1    6    6    0    0 -0.11075079078E+02  0.31942221203E+01 -0.79192355857E+00  0.11554159401E+02  0.10500000000E+00 0. -1.
         13    1    6    6    0    0 -0.27242117249E+02  0.77038697599E+01 -0.19575167358E+01  0.28378256787E+02  0.10500000000E+00 0.  1.
</event>
<event>
11    0  0.3443539E-009  0.9118800E+02  0.7816531E-02  0.1126479E+00
         25   -1    0    0    0    0  0.00000000000E+00  0.00000000000E+00  0.99999998245E-14  0.12500000000E+03  0.12500000000E+03 0.  0.
    3000001    1    3    3    0    0  0.32005117979E+01  0.37034996359E+01  0.98155145628E+01  0.11013787335E+02  0.10000000000E+01 0. -1.
    1000022    2    1    0    0    0 -0.25546944126E+01  0.19228718596E+02  0.58566030427E+02  0.62500000252E+02  0.10000001457E+02 0.  0.
    3000022    2    3    3    0    0 -0.57552062105E+01  0.15525218960E+02  0.48750515864E+02  0.51486212917E+02  0.25000252775E+00 0.  0.
    1000022    2    1    0    0    0  0.25546944126E+01 -0.19228718596E+02 -0.58566030427E+02  0.62499999748E+02  0.99999983067E+01 0.  0.
    3000022    2    5    5    0    0  0.15160332160E+01 -0.14242707367E+02 -0.27541629271E+02  0.31044434388E+02  0.24998738631E+00 0.  0.
        -13    1    4    4    0    0 -0.29641586070E+01  0.79291612318E+01  0.25121406194E+02  0.26509505998E+02  0.10500000000E+00 0.  1.
         13    1    4    4    0    0 -0.27910476035E+01  0.75960577281E+01  0.23629109670E+02  0.24976706919E+02  0.10500000000E+00 0. -1.
    3000001    1    5    5    0    0  0.10386611966E+01 -0.49860112292E+01 -0.31024401156E+02  0.31455565360E+02  0.10000000000E+01 0. -1.
        -13    1    6    6    0    0  0.44887061513E+00 -0.38702276509E+01 -0.74975553516E+01  0.84501188246E+01  0.10500000000E+00 0.  1.
         13    1    6    6    0    0  0.10671626009E+01 -0.10372479716E+02 -0.20044073920E+02  0.22594315563E+02  0.10500000000E+00 0. -1.
</event>
<event>
11    0  0.3443539E-009  0.9118800E+02  0.7816531E-02  0.1126479E+00
         25   -1    0    0    0    0  0.00000000000E+00  0.00000000000E+00  0.99999998245E-14  0.12500000000E+03  0.12500000000E+03 0.  0.
    3000001    1    3    3    0    0 -0.22640291880E+02  0.22940443869E+01 -0.33543744258E+01  0.23023841640E+02  0.10000000000E+01 0.  1.
    1000022    2    1    0    0    0 -0.61549567829E+02  0.26511271201E+01  0.32973466473E+01  0.62500000971E+02  0.99999925777E+01 0.  0.
    3000022    2    3    3    0    0 -0.38909275949E+02  0.35708273312E+00  0.66517210731E+01  0.39476159331E+02  0.24999876920E+00 0.  0.
    1000022    2    1    0    0    0  0.61549567829E+02 -0.26511271201E+01 -0.32973466473E+01  0.62499999029E+02  0.99999804372E+01 0.  0.
    3000022    2    5    5    0    0  0.57592017865E+02 -0.12818853820E+01 -0.99020023029E+00  0.57615334327E+02  0.25000255783E+00 0.  0.
        -13    1    4    4    0    0 -0.27832309847E+02  0.25104371210E+00  0.47996200601E+01  0.28244430815E+02  0.10500000000E+00 0.  1.
         13    1    4    4    0    0 -0.11076966102E+02  0.10603902102E+00  0.18521010130E+01  0.11231728516E+02  0.10500000000E+00 0. -1.
    3000001    1    5    5    0    0  0.39575499641E+01 -0.13692417381E+01 -0.23071464170E+01  0.48846647014E+01  0.10000000000E+01 0.  1.
        -13    1    6    6    0    0  0.31177486384E+02 -0.74363648174E+00 -0.58107947366E+00  0.31191943364E+02  0.10500000000E+00 0. -1.
         13    1    6    6    0    0  0.26414531481E+02 -0.53824890022E+00 -0.40912075663E+00  0.26423390964E+02  0.10500000000E+00 0.  1.
</event>
<event>
11    0  0.3443539E-009  0.9118800E+02  0.7816531E-02  0.1126479E+00
         25   -1    0    0    0    0  0.00000000000E+00  0.00000000000E+00  0.99999998245E-14  0.12500000000E+03  0.12500000000E+03 0.  0.
    3000001    1    3    3    0    0 -0.29359423808E+01  0.10422529069E+02  0.73886552487E+01  0.13146904436E+02  0.10000000000E+01 0.  1.
    1000022    2    1    0    0    0 -0.17601207256E+02  0.56363804230E+02  0.17876497270E+02  0.62500000469E+02  0.99999989915E+01 0.  0.
    3000022    2    3    3    0    0 -0.14665264875E+02  0.45941275162E+02  0.10487842021E+02  0.49353096034E+02  0.25000104372E+00 0.  0.
    1000022    2    1    0    0    0  0.17601207256E+02 -0.56363804230E+02 -0.17876497270E+02  0.62499999531E+02  0.99999931247E+01 0.  0.
    3000022    2    5    5    0    0  0.85256014697E+01 -0.18333720471E+02 -0.10182023725E+02  0.22639507634E+02  0.25002404571E+00 0.  0.
        -13    1    4    4    0    0 -0.41841698727E+01  0.13047211970E+02  0.30174641402E+01  0.14030435936E+02  0.10500000000E+00 0.  1.
         13    1    4    4    0    0 -0.10481095003E+02  0.32894063192E+02  0.74703778808E+01  0.35322660098E+02  0.10500000000E+00 0. -1.
    3000001    1    5    5    0    0  0.90756057865E+01 -0.38030083759E+02 -0.76944735441E+01  0.39860491897E+02  0.10000000000E+01 0.  1.
        -13    1    6    6    0    0  0.33245143132E+01 -0.72558728434E+01 -0.40679379705E+01  0.89587516134E+01  0.10500000000E+00 0. -1.
         13    1    6    6    0    0  0.52010871565E+01 -0.11077847628E+02 -0.61140857550E+01  0.13680756021E+02  0.10500000000E+00 0.  1.
</event>
<event>
11    0  0.3443539E-009  0.9118800E+02  0.7816531E-02  0.1126479E+00
         25   -1    0    0    0    0  0.00000000000E+00  0.00000000000E+00  0.99999998245E-14  0.12500000000E+03  0.12500000000E+03 0.  0.
    3000001    1    3    3    0    0  0.11884689015E+02  0.22826046008E+02 -0.31776152282E+01  0.25949401686E+02  0.10000000000E+01 0.  1.
    1000022    2    1    0    0    0  0.35684163135E+02  0.50325726030E+02  0.46059837309E+00  0.62500003094E+02  0.10000001844E+02 0.  0.
    3000022    2    3    3    0    0  0.23799474119E+02  0.27499680022E+02  0.36382136013E+01  0.36550601408E+02  0.24999081135E+00 0.  0.
    1000022    2    1    0    0    0 -0.35684163135E+02 -0.50325726030E+02 -0.46059837309E+00  0.62499996906E+02  0.99999631646E+01 0.  0.
    3000022    2    5    5    0    0 -0.18267658445E+01 -0.36123312974E+01 -0.24967037950E+01  0.47625712272E+01  0.25008798613E+00 0.  0.
        -13    1    4    4    0    0  0.14776606592E+02  0.17039060024E+02  0.21996084083E+01  0.22661133490E+02  0.10500000000E+00 0. -1.
         13    1    4    4    0    0  0.90228675271E+01  0.10460619998E+02  0.14386051931E+01  0.13889467918E+02  0.10500000000E+00 0.  1.
    3000001    1    5    5    0    0 -0.33857397290E+02 -0.46713394733E+02  0.20361054219E+01  0.57737425678E+02  0.10000000000E+01 0.  1.
        -13    1    6    6    0    0 -0.11059128109E+01 -0.20530647942E+01 -0.14082251920E+01  0.27262137455E+01  0.10500000000E+00 0. -1.
         13    1    6    6    0    0 -0.72085303363E+00 -0.15592665032E+01 -0.10884786030E+01  0.20363574817E+01  0.10500000000E+00 0.  1.
</event>
<event>
11    0  0.3443539E-009  0.9118800E+02  0.7816531E-02  0.1126479E+00
         25   -1    0    0    0    0  0.00000000000E+00  0.00000000000E+00  0.99999998245E-14  0.12500000000E+03  0.12500000000E+03 0.  0.
    3000001    1    3    3    0    0 -0.12836329560E+02  0.33451155450E+02 -0.13757937585E+01  0.35869819710E+02  0.10000000000E+01 0.  1.
    1000022    2    1    0    0    0 -0.17191383991E+02  0.58535850099E+02 -0.91793551536E+01  0.62499999685E+02  0.99999984653E+01 0.  0.
    3000022    2    3    3    0    0 -0.43550544305E+01  0.25084694649E+02 -0.78035613951E+01  0.26630179976E+02  0.25002075782E+00 0.  0.
    1000022    2    1    0    0    0  0.17191383991E+02 -0.58535850099E+02  0.91793551536E+01  0.62500000315E+02  0.10000002399E+02 0.  0.
    3000022    2    5    5    0    0  0.17387434981E+02 -0.49211629044E+02  0.97763167786E+01  0.53101282452E+02  0.24999986552E+00 0.  0.
        -13    1    4    4    0    0 -0.28958469708E+01  0.16376656869E+02 -0.51193374548E+01  0.17401133896E+02  0.10500000000E+00 0.  1.
         13    1    4    4    0    0 -0.14592074596E+01  0.87080377795E+01 -0.26842239402E+01  0.92290460797E+01  0.10500000000E+00 0. -1.
    3000001    1    5    5    0    0 -0.19605099073E+00 -0.93242210551E+01 -0.59696162506E+00  0.93987178624E+01  0.10000000000E+01 0.  1.
        -13    1    6    6    0    0  0.12481782685E+02 -0.35238448387E+02  0.69734923042E+01  0.38028722876E+02  0.10500000000E+00 0. -1.
         13    1    6    6    0    0  0.49056522963E+01 -0.13973180657E+02  0.28028244745E+01  0.15072559576E+02  0.10500000000E+00 0.  1.
</event>
<event>
11    0  0.3443539E-009  0.9118800E+02  0.7816531E-02  0.1126479E+00
         25   -1    0    0    0    0  0.00000000000E+00  0.00000000000E+00  0.99999998245E-14  0.12500000000E+03  0.12500000000E+03 0.  0.
    3000001    1    3    3    0    0  0.13022705623E+02 -0.13307596776E+02 -0.38861415212E+02  0.43103278135E+02  0.10000000000E+01 0. -1.
    1000022    2    1    0    0    0  0.12378718903E+02 -0.18542345078E+02 -0.57525633596E+02  0.62500000995E+02  0.10000018051E+02 0.  0.
    3000022    2    3    3    0    0 -0.64398671991E+00 -0.52347483027E+01 -0.18664218384E+02  0.19396722860E+02  0.25000224947E+00 0.  0.
    1000022    2    1    0    0    0 -0.12378718903E+02  0.18542345078E+02  0.57525633596E+02  0.62499999005E+02  0.10000005617E+02 0.  0.
    3000022    2    5    5    0    0 -0.83427030439E+01  0.14930489946E+02  0.30974679643E+02  0.35383803156E+02  0.25004538621E+00 0.  0.
        -13    1    4    4    0    0 -0.14439685831E+00 -0.13951165120E+01 -0.50503084764E+01  0.52425033373E+01  0.10500000000E+00 0. -1.
         13    1    4    4    0    0 -0.49958986159E+00 -0.38396317907E+01 -0.13613909908E+02  0.14154219522E+02  0.10500000000E+00 0.  1.
    3000001    1    5    5    0    0 -0.40360158592E+01  0.36118551321E+01  0.26550953953E+02  0.27116195849E+02  0.10000000000E+01 0. -1.
        -13    1    6    6    0    0 -0.54151530272E+01  0.97916763388E+01  0.20207715477E+02  0.23098995597E+02  0.10500000000E+00 0.  1.
         13    1    6    6    0    0 -0.29275500167E+01  0.51388136075E+01  0.10766964167E+02  0.12284807559E+02  0.10500000000E+00 0. -1.
</event>
<event>
11    0  0.3443539E-009  0.9118800E+02  0.7816531E-02  0.1126479E+00
         25   -1    0    0    0    0  0.00000000000E+00  0.00000000000E+00  0.99999998245E-14  0.12500000000E+03  0.12500000000E+03 0.  0.
    3000001    1    3    3    0    0 -0.12529786324E+02 -0.51283407898E+01 -0.14243209668E+02  0.19676494765E+02  0.10000000000E+01 0.  1.
    1000022    2    1    0    0    0 -0.33132446260E+02 -0.29014684729E+02 -0.43204616377E+02  0.62500000061E+02  0.10000010313E+02 0.  0.
    3000022    2    3    3    0    0 -0.20602659936E+02 -0.23886343940E+02 -0.28961406709E+02  0.42823505296E+02  0.25000815289E+00 0.  0.
    1000022    2    1    0    0    0  0.33132446260E+02  0.29014684729E+02  0.43204616377E+02  0.62499999939E+02  0.10000009547E+02 0.  0.
    3000022    2    5    5    0    0  0.16152999301E+02  0.19838913285E+02  0.27841091768E+02  0.37811251711E+02  0.24999677126E+00 0.  0.
        -13    1    4    4    0    0 -0.69267737555E+01 -0.79937078218E+01 -0.96461926100E+01  0.14315712217E+02  0.10500000000E+00 0.  1.
         13    1    4    4    0    0 -0.13675886180E+02 -0.15892636118E+02 -0.19315214099E+02  0.28507793080E+02  0.10500000000E+00 0. -1.
    3000001    1    5    5    0    0  0.16979446959E+02  0.91757714447E+01  0.15363524609E+02  0.24688748228E+02  0.10000000000E+01 0. -1.
        -13    1    6    6    0    0  0.10561821537E+02  0.13013422214E+02  0.18166312879E+02  0.24716941164E+02  0.10500000000E+00 0. -1.
         13    1    6    6    0    0  0.55911777638E+01  0.68254910712E+01  0.96747788890E+01  0.13094310547E+02  0.10500000000E+00 0.  1.
</event>
<event>
11    0  0.3443539E-009  0.9118800E+02  0.7816531E-02  0.1126479E+00
         25   -1    0    0    0    0  0.00000000000E+00  0.00000000000E+00  0.99999998245E-14  0.12500000000E+03  0.12500000000E+03 0.  0.
    3000001    1    3    3    0    0 -0.11968864194E+02  0.20402694526E+01  0.89641689703E+01  0.15125235035E+02  0.10000000000E+01 0.  1.
    1000022    2    1    0    0    0 -0.57291062272E+02  0.25770618460E+01  0.22745170867E+02  0.62499999412E+02  0.10000003234E+02 0.  0.
    3000022    2    3    3    0    0 -0.45322198078E+02  0.53679239339E+00  0.13781001897E+02  0.47374764377E+02  0.25000357956E+00 0.  0.
    1000022    2    1    0    0    0  0.57291062272E+02 -0.25770618460E+01 -0.22745170867E+02  0.62500000588E+02  0.10000010581E+02 0.  0.
    3000022    2    5    5    0    0  0.18332531123E+02 -0.11441125080E+01 -0.12367350327E+02  0.22145079546E+02  0.25000636589E+00 0.  0.
        -13    1    4    4    0    0 -0.16134452170E+02  0.17363029865E+00  0.49631991877E+01  0.16881796868E+02  0.10500000000E+00 0. -1.
         13    1    4    4    0    0 -0.29187745908E+02  0.36316209475E+00  0.88178027093E+01  0.30492967509E+02  0.10500000000E+00 0.  1.
    3000001    1    5    5    0    0  0.38958531149E+02 -0.14329493380E+01 -0.10377820541E+02  0.40354921042E+02  0.10000000000E+01 0.  1.
        -13    1    6    6    0    0  0.94274837609E+01 -0.56556286264E+00 -0.62819945407E+01  0.11343358930E+02  0.10500000000E+00 0. -1.
         13    1    6    6    0    0  0.89050473622E+01 -0.57854964539E+00 -0.60853557858E+01  0.10801720615E+02  0.10500000000E+00 0.  1.
</event>
<event>
11    0  0.3443539E-009  0.9118800E+02  0.7816531E-02  0.1126479E+00
         25   -1    0    0    0    0  0.00000000000E+00  0.00000000000E+00  0.99999998245E-14  0.12500000000E+03  0.12500000000E+03 0.  0.
    3000001    1    3    3    0    0  0.29215314664E+02  0.35569122821E+02  0.10855827535E+02  0.47302707118E+02  0.10000000000E+01 0. -1.
    1000022    2    1    0    0    0  0.39208006605E+02  0.43731790129E+02  0.18881549149E+02  0.62499999379E+02  0.99999887144E+01 0.  0.
    3000022    2    3    3    0    0  0.99926919403E+01  0.81626673082E+01  0.80257216139E+01  0.15197292261E+02  0.24990968526E+00 0.  0.
    1000022    2    1    0    0    0 -0.39208006605E+02 -0.43731790129E+02 -0.18881549149E+02  0.62500000621E+02  0.99999964769E+01 0.  0.
    3000022    2    5    5    0    0 -0.35448031166E+01 -0.87998126826E+01 -0.13774452774E+01  0.95896917605E+01  0.25000037014E+00 0.  0.
        -13    1    4    4    0    0  0.60374228843E+01  0.49931244481E+01  0.48255555695E+01  0.92021072800E+01  0.10500000000E+00 0. -1.
         13    1    4    4    0    0  0.39552690559E+01  0.31695428601E+01  0.32001660445E+01  0.59951849813E+01  0.10500000000E+00 0.  1.
    3000001    1    5    5    0    0 -0.35663203488E+02 -0.34931977447E+02 -0.17504103871E+02  0.52910308861E+02  0.10000000000E+01 0. -1.
        -13    1    6    6    0    0 -0.15181467866E+01 -0.38398047711E+01 -0.66046138582E+00  0.41828345160E+01  0.10500000000E+00 0. -1.
         13    1    6    6    0    0 -0.20266563299E+01 -0.49600079115E+01 -0.71698389159E+00  0.54068572445E+01  0.10500000000E+00 0.  1.
</event>
<event>
11    0  0.3443539E-009  0.9118800E+02  0.7816531E-02  0.1126479E+00
         25   -1    0    0    0    0  0.00000000000E+00  0.00000000000E+00  0.99999998245E-14  0.12500000000E+03  0.12500000000E+03 0.  0.
    3000001    1    3    3    0    0  0.14168823230E+02 -0.83928857836E+01 -0.70531335903E+00  0.16513435452E+02  0.10000000000E+01 0. -1.
    1000022    2    1    0    0    0  0.55603177035E+02 -0.24067247363E+02  0.11632042393E+02  0.62500000266E+02  0.99999965539E+01 0.  0.
    3000022    2    3    3    0    0  0.41434353805E+02 -0.15674361579E+02  0.12337355752E+02  0.45986564814E+02  0.25002064041E+00 0.  0.
    1000022    2    1    0    0    0 -0.55603177035E+02  0.24067247363E+02 -0.11632042393E+02  0.62499999734E+02  0.99999932242E+01 0.  0.
    3000022    2    5    5    0    0 -0.92570672969E+01  0.83207493479E+01 -0.24241485591E+01  0.12683341913E+02  0.25000238566E+00 0.  0.
        -13    1    4    4    0    0  0.27445914086E+02 -0.10330441631E+02  0.81419834203E+01  0.30435162942E+02  0.10500000000E+00 0.  1.
         13    1    4    4    0    0  0.13988439719E+02 -0.53439199489E+01  0.41953723317E+01  0.15551401872E+02  0.10500000000E+00 0. -1.
    3000001    1    5    5    0    0 -0.46346109738E+02  0.15746498015E+02 -0.92078938338E+01  0.49816657821E+02  0.10000000000E+01 0. -1.
        -13    1    6    6    0    0 -0.47235730368E+01  0.43220216764E+01 -0.12846360349E+01  0.65309515652E+01  0.10500000000E+00 0. -1.
         13    1    6    6    0    0 -0.45334942600E+01  0.39987276715E+01 -0.11395125243E+01  0.61523903476E+01  0.10500000000E+00 0.  1.
</event>
<event>
11    0  0.3443539E-009  0.9118800E+02  0.7816531E-02  0.1126479E+00
         25   -1    0    0    0    0  0.00000000000E+00  0.00000000000E+00  0.99999998245E-14  0.12500000000E+03  0.12500000000E+03 0.  0.
    3000001    1    3    3    0    0  0.25054152902E+02 -0.54859223555E+01  0.11564393919E+02  0.28152106998E+02  0.10000000000E+01 0. -1.
    1000022    2    1    0    0    0  0.49837698346E+02 -0.10580771873E+02  0.34792256570E+02  0.62499999497E+02  0.99999955061E+01 0.  0.
    3000022    2    3    3    0    0  0.24783545444E+02 -0.50948495176E+01  0.23227862651E+02  0.34347892499E+02  0.24999886375E+00 0.  0.
    1000022    2    1    0    0    0 -0.49837698346E+02  0.10580771873E+02 -0.34792256570E+02  0.62500000503E+02  0.10000001788E+02 0.  0.
    3000022    2    5    5    0    0 -0.44925887352E+02  0.11205758158E+02 -0.28271936426E+02  0.54251905579E+02  0.24999873414E+00 0.  0.
        -13    1    4    4    0    0  0.16087770377E+02 -0.33054980605E+01  0.15000392612E+02  0.22243324317E+02  0.10500000000E+00 0. -1.
         13    1    4    4    0    0  0.86957750665E+01 -0.17893514571E+01  0.82274700385E+01  0.12104568182E+02  0.10500000000E+00 0.  1.
    3000001    1    5    5    0    0 -0.49118109936E+01 -0.62498628513E+00 -0.65203201437E+01  0.82480949237E+01  0.10000000000E+01 0. -1.
        -13    1    6    6    0    0 -0.22274112989E+02  0.55261454899E+01 -0.14084720574E+02  0.26927026795E+02  0.10500000000E+00 0. -1.
         13    1    6    6    0    0 -0.22651774364E+02  0.56796126683E+01 -0.14187215852E+02  0.27324878783E+02  0.10500000000E+00 0.  1.
</event>
<event>
11    0  0.3443539E-009  0.9118800E+02  0.7816531E-02  0.1126479E+00
         25   -1    0    0    0    0  0.00000000000E+00  0.00000000000E+00  0.99999998245E-14  0.12500000000E+03  0.12500000000E+03 0.  0.
    3000001    1    3    3    0    0 -0.21276174721E+02  0.10266511942E+02  0.24142029942E+02  0.33792225259E+02  0.10000000000E+01 0. -1.
    1000022    2    1    0    0    0 -0.31452624379E+02  0.21134082943E+02  0.48686070993E+02  0.62500006096E+02  0.10000010554E+02 0.  0.
    3000022    2    3    3    0    0 -0.10176449659E+02  0.10867571001E+02  0.24544041051E+02  0.28707780837E+02  0.25000477614E+00 0.  0.
    1000022    2    1    0    0    0  0.31452624379E+02 -0.21134082943E+02 -0.48686070993E+02  0.62499993904E+02  0.99999343525E+01 0.  0.
    3000022    2    5    5    0    0  0.10887558228E+02 -0.10860895917E+02 -0.13538213133E+02  0.20490087577E+02  0.24997953669E+00 0.  0.
        -13    1    4    4    0    0 -0.34951191686E+01  0.38138244144E+01  0.85142810323E+01  0.99631883031E+01  0.10500000000E+00 0.  1.
         13    1    4    4    0    0 -0.66813304901E+01  0.70537465864E+01  0.16029760019E+02  0.18744592534E+02  0.10500000000E+00 0. -1.
    3000001    1    5    5    0    0  0.20565066151E+02 -0.10273187026E+02 -0.35147857860E+02  0.42009906327E+02  0.10000000000E+01 0. -1.
        -13    1    6    6    0    0  0.56845797122E+01 -0.56958940363E+01 -0.69973456320E+01  0.10664498407E+02  0.10500000000E+00 0.  1.
         13    1    6    6    0    0  0.52029785163E+01 -0.51650018809E+01 -0.65408675009E+01  0.98255891699E+01  0.10500000000E+00 0. -1.
</event>
<event>
11    0  0.3443539E-009  0.9118800E+02  0.7816531E-02  0.1126479E+00
         25   -1    0    0    0    0  0.00000000000E+00  0.00000000000E+00  0.99999998245E-14  0.12500000000E+03  0.12500000000E+03 0.  0.
    3000001    1    3    3    0    0 -0.91526601597E+01  0.37536688324E+02 -0.65098809922E+01  0.39193784059E+02  0.10000000000E+01 0.  1.
    1000022    2    1    0    0    0 -0.14792218762E+02  0.59832514697E+02 -0.27404578188E+01  0.62499996627E+02  0.99999959224E+01 0.  0.
    3000022    2    3    3    0    0 -0.56395586022E+01  0.22295826373E+02  0.37694231734E+01  0.23306212568E+02  0.24999664009E+00 0.  0.
    1000022    2    1    0    0    0  0.14792218762E+02 -0.59832514697E+02  0.27404578188E+01  0.62500003373E+02  0.10000038088E+02 0.  0.
    3000022    2    5    5    0    0 -0.10641190964E+01 -0.65237452132E+01 -0.12473755574E+01  0.67312740604E+01  0.25000727469E+00 0.  0.
        -13    1    4    4    0    0 -0.28830658195E+01  0.11665482014E+02  0.19861171021E+01  0.12179951777E+02  0.10500000000E+00 0.  1.
         13    1    4    4    0    0 -0.27564927826E+01  0.10630344358E+02  0.17833060713E+01  0.11126260791E+02  0.10500000000E+00 0. -1.
    3000001    1    5    5    0    0  0.15856337858E+02 -0.53308769484E+02  0.39878333761E+01  0.55768729313E+02  0.10000000000E+01 0.  1.
        -13    1    6    6    0    0 -0.58694280549E+00 -0.36210640817E+01 -0.75965009120E+00  0.37476259421E+01  0.10500000000E+00 0. -1.
         13    1    6    6    0    0 -0.47717629088E+00 -0.29026811315E+01 -0.48772546619E+00  0.29836481184E+01  0.10500000000E+00 0.  1.
</event>
<event>
11    0  0.3443539E-009  0.9118800E+02  0.7816531E-02  0.1126479E+00
         25   -1    0    0    0    0  0.00000000000E+00  0.00000000000E+00  0.99999998245E-14  0.12500000000E+03  0.12500000000E+03 0.  0.
    3000001    1    3    3    0    0 -0.94567558038E+01  0.16064612307E+02 -0.17560069114E+02  0.25629241623E+02  0.10000000000E+01 0.  1.
    1000022    2    1    0    0    0 -0.29777285663E+02  0.42321865894E+02 -0.33592008285E+02  0.62500000676E+02  0.99999994811E+01 0.  0.
    3000022    2    3    3    0    0 -0.20320529859E+02  0.26257253587E+02 -0.16031939172E+02  0.36870759052E+02  0.24999962931E+00 0.  0.
    1000022    2    1    0    0    0  0.29777285663E+02 -0.42321865894E+02  0.33592008285E+02  0.62499999324E+02  0.99999910345E+01 0.  0.
    3000022    2    5    5    0    0  0.12672751406E+02 -0.15278055018E+02  0.18385621489E+02  0.27057553045E+02  0.25001183566E+00 0.  0.
        -13    1    4    4    0    0 -0.10282127115E+02  0.13225126817E+02 -0.81517098108E+01  0.18630284893E+02  0.10500000000E+00 0. -1.
         13    1    4    4    0    0 -0.10038402744E+02  0.13032126770E+02 -0.78802293607E+01  0.18240474160E+02  0.10500000000E+00 0.  1.
    3000001    1    5    5    0    0  0.17104534257E+02 -0.27043810876E+02  0.15206386796E+02  0.35442446279E+02  0.10000000000E+01 0.  1.
        -13    1    6    6    0    0  0.49839201192E+01 -0.59260992905E+01  0.72169526829E+01  0.10585534638E+02  0.10500000000E+00 0. -1.
         13    1    6    6    0    0  0.76888312867E+01 -0.93519557274E+01  0.11168668807E+02  0.16472018407E+02  0.10500000000E+00 0.  1.
</event>
<event>
11    0  0.3443539E-009  0.9118800E+02  0.7816531E-02  0.1126479E+00
         25   -1    0    0    0    0  0.00000000000E+00  0.00000000000E+00  0.99999998245E-14  0.12500000000E+03  0.12500000000E+03 0.  0.
    3000001    1    3    3    0    0  0.86187551237E+00  0.40727261419E+01  0.40072842444E+01  0.58641499504E+01  0.10000000000E+01 0.  1.
    1000022    2    1    0    0    0 -0.19655146264E+02  0.44944674918E+02  0.37415256113E+02  0.62499999586E+02  0.99999990019E+01 0.  0.
    3000022    2    3    3    0    0 -0.20517021777E+02  0.40871948776E+02  0.33407971868E+02  0.56635849635E+02  0.25000035721E+00 0.  0.
    1000022    2    1    0    0    0  0.19655146264E+02 -0.44944674918E+02 -0.37415256113E+02  0.62500000414E+02  0.10000004182E+02 0.  0.
    3000022    2    5    5    0    0  0.18867078128E+02 -0.44316533151E+02 -0.37550394858E+02  0.61073860187E+02  0.24999309047E+00 0.  0.
        -13    1    4    4    0    0 -0.13904480723E+02  0.27800130145E+02  0.22734975890E+02  0.38510673507E+02  0.10500000000E+00 0.  1.
         13    1    4    4    0    0 -0.66125410541E+01  0.13071818631E+02  0.10672995978E+02  0.18125176128E+02  0.10500000000E+00 0. -1.
    3000001    1    5    5    0    0  0.78806813620E+00 -0.62814176720E+00  0.13513874550E+00  0.14261402272E+01  0.10000000000E+01 0.  1.
        -13    1    6    6    0    0  0.80696424187E+01 -0.19018489808E+02 -0.16029876361E+02  0.26149379428E+02  0.10500000000E+00 0. -1.
         13    1    6    6    0    0  0.10797435709E+02 -0.25298043343E+02 -0.21520518498E+02  0.34924480759E+02  0.10500000000E+00 0.  1.
</event>
<event>
11    0  0.3443539E-009  0.9118800E+02  0.7816531E-02  0.1126479E+00
         25   -1    0    0    0    0  0.00000000000E+00  0.00000000000E+00  0.99999998245E-14  0.12500000000E+03  0.12500000000E+03 0.  0.
    3000001    1    3    3    0    0  0.45722052037E+00 -0.57226635759E+01  0.63816791189E+01  0.86419764744E+01  0.10000000000E+01 0. -1.
    1000022    2    1    0    0    0  0.83220029559E+01 -0.20793143099E+02  0.57485988652E+02  0.62500003689E+02  0.10000051834E+02 0.  0.
    3000022    2    3    3    0    0  0.78647824356E+01 -0.15070479523E+02  0.51104309533E+02  0.53858027215E+02  0.24997353405E+00 0.  0.
    1000022    2    1    0    0    0 -0.83220029559E+01  0.20793143099E+02 -0.57485988652E+02  0.62499996311E+02  0.10000005719E+02 0.  0.
    3000022    2    5    5    0    0 -0.57045405444E+01  0.71854537568E+01 -0.13134747522E+02  0.16023626954E+02  0.24999961277E+00 0.  0.
        -13    1    4    4    0    0  0.38216340954E+01 -0.74560185670E+01  0.25097079873E+02  0.26458865115E+02  0.10500000000E+00 0.  1.
         13    1    4    4    0    0  0.40431483401E+01 -0.76144609564E+01  0.26007229660E+02  0.27399162100E+02  0.10500000000E+00 0. -1.
    3000001    1    5    5    0    0 -0.26174624116E+01  0.13607689343E+02 -0.44351241131E+02  0.46476369356E+02  0.10000000000E+01 0. -1.
        -13    1    6    6    0    0 -0.28669021848E+01  0.35142418563E+01 -0.64381708024E+01  0.78759185015E+01  0.10500000000E+00 0.  1.
         13    1    6    6    0    0 -0.28376383596E+01  0.36712119005E+01 -0.66965767191E+01  0.81477084529E+01  0.10500000000E+00 0. -1.
</event>
<event>
11    0  0.3443539E-009  0.9118800E+02  0.7816531E-02  0.1126479E+00
         25   -1    0    0    0    0  0.00000000000E+00  0.00000000000E+00  0.99999998245E-14  0.12500000000E+03  0.12500000000E+03 0.  0.
    3000001    1    3    3    0    0  0.45716063444E+02  0.50855190626E+01  0.19830066561E+02  0.50100424158E+02  0.10000000000E+01 0. -1.
    1000022    2    1    0    0    0  0.55203603490E+02  0.10894817605E+02  0.25300497358E+02  0.62499999799E+02  0.99999959731E+01 0.  0.
    3000022    2    3    3    0    0  0.94875400455E+01  0.58092985426E+01  0.54704307967E+01  0.12399575642E+02  0.24999463395E+00 0.  0.
    1000022    2    1    0    0    0 -0.55203603490E+02 -0.10894817605E+02 -0.25300497358E+02  0.62500000201E+02  0.99999984844E+01 0.  0.
    3000022    2    5    5    0    0 -0.85830675589E+01 -0.52955956232E+01 -0.58807476345E+01  0.11677246079E+02  0.25000302965E+00 0.  0.
        -13    1    4    4    0    0  0.27331566179E+01  0.17150873081E+01  0.15601078973E+01  0.35856144834E+01  0.10500000000E+00 0.  1.
         13    1    4    4    0    0  0.67543834276E+01  0.40942112345E+01  0.39103228993E+01  0.88139611581E+01  0.10500000000E+00 0. -1.
    3000001    1    5    5    0    0 -0.46620535931E+02 -0.55992219819E+01 -0.19419749723E+02  0.50822754122E+02  0.10000000000E+01 0. -1.
        -13    1    6    6    0    0 -0.64692287345E+01 -0.40071758666E+01 -0.44587022358E+01  0.88203984872E+01  0.10500000000E+00 0. -1.
         13    1    6    6    0    0 -0.21138388244E+01 -0.12884197567E+01 -0.14220453987E+01  0.28568475915E+01  0.10500000000E+00 0.  1.
</event>
<event>
11    0  0.3443539E-009  0.9118800E+02  0.7816531E-02  0.1126479E+00
         25   -1    0    0    0    0  0.00000000000E+00  0.00000000000E+00  0.99999998245E-14  0.12500000000E+03  0.12500000000E+03 0.  0.
    3000001    1    3    3    0    0  0.79352138674E+01 -0.74639969209E+01  0.83738330595E+01  0.13776790238E+02  0.10000000000E+01 0.  1.
    1000022    2    1    0    0    0  0.28724241949E+02 -0.47125857147E+02  0.27573903851E+02  0.62500009165E+02  0.10000124232E+02 0.  0.
    3000022    2    3    3    0    0  0.20789028081E+02 -0.39661860226E+02  0.19200070792E+02  0.48723218927E+02  0.24999806623E+00 0.  0.
    1000022    2    1    0    0    0 -0.28724241949E+02  0.47125857147E+02 -0.27573903851E+02  0.62499990835E+02  0.10000009672E+02 0.  0.
    3000022    2    5    5    0    0 -0.20464213998E+02  0.36412723724E+02 -0.16212872398E+02  0.44806140911E+02  0.25005663812E+00 0.  0.
        -13    1    4    4    0    0  0.59078075077E+01 -0.11186078268E+02  0.54342165497E+01  0.13768524651E+02  0.10500000000E+00 0.  1.
         13    1    4    4    0    0  0.14881220574E+02 -0.28475781958E+02  0.13765854242E+02  0.34954694276E+02  0.10500000000E+00 0. -1.
    3000001    1    5    5    0    0 -0.82600279507E+01  0.10713133422E+02 -0.11361031453E+02  0.17693849924E+02  0.10000000000E+01 0. -1.
        -13    1    6    6    0    0 -0.54757245732E+01  0.96731677816E+01 -0.43110721837E+01  0.11922671802E+02  0.10500000000E+00 0.  1.
         13    1    6    6    0    0 -0.14988489425E+02  0.26739555943E+02 -0.11901800215E+02  0.32883469108E+02  0.10500000000E+00 0. -1.
</event>
<event>
11    0  0.3443539E-009  0.9118800E+02  0.7816531E-02  0.1126479E+00
         25   -1    0    0    0    0  0.00000000000E+00  0.00000000000E+00  0.99999998245E-14  0.12500000000E+03  0.12500000000E+03 0.  0.
    3000001    1    3    3    0    0  0.11246239961E+02  0.10672224411E+02  0.31570905625E+02  0.35186593600E+02  0.10000000000E+01 0. -1.
    1000022    2    1    0    0    0  0.11430749152E+02  0.20400235846E+02  0.57091316617E+02  0.62499999264E+02  0.99999913145E+01 0.  0.
    3000022    2    3    3    0    0  0.18450919028E+00  0.97280114349E+01  0.25520410991E+02  0.27313405665E+02  0.25000343646E+00 0.  0.
    1000022    2    1    0    0    0 -0.11430749152E+02 -0.20400235846E+02 -0.57091316617E+02  0.62500000736E+02  0.10000000509E+02 0.  0.
    3000022    2    5    5    0    0 -0.46936011225E+00 -0.19818612328E+01 -0.16121855506E+02  0.16251916269E+02  0.24996924475E+00 0.  0.
        -13    1    4    4    0    0  0.14447870295E+00  0.42322040114E+01  0.11065698047E+02  0.11848760406E+02  0.10500000000E+00 0.  1.
         13    1    4    4    0    0  0.40030487333E-01  0.54958074236E+01  0.14454712944E+02  0.15464645259E+02  0.10500000000E+00 0. -1.
    3000001    1    5    5    0    0 -0.10961389039E+02 -0.18418374613E+02 -0.40969461111E+02  0.46248084466E+02  0.10000000000E+01 0.  1.
        -13    1    6    6    0    0 -0.24431877702E+00 -0.12811440631E+01 -0.10206387995E+02  0.10289917525E+02  0.10500000000E+00 0. -1.
         13    1    6    6    0    0 -0.22504133523E+00 -0.70071716967E+00 -0.59154675110E+01  0.59619987444E+01  0.10500000000E+00 0.  1.
</event>
<event>
11    0  0.3443539E-009  0.9118800E+02  0.7816531E-02  0.1126479E+00
         25   -1    0    0    0    0  0.00000000000E+00  0.00000000000E+00  0.99999998245E-14  0.12500000000E+03  0.12500000000E+03 0.  0.
    3000001    1    3    3    0    0  0.18128015996E+02  0.42065594226E+01 -0.11636882815E+01  0.18672821869E+02  0.10000000000E+01 0.  1.
    1000022    2    1    0    0    0  0.56492501625E+02  0.16989747742E+02 -0.18060889298E+02  0.62500000251E+02  0.10000002045E+02 0.  0.
    3000022    2    3    3    0    0  0.38364485629E+02  0.12783188320E+02 -0.16897201016E+02  0.43827178382E+02  0.25000307027E+00 0.  0.
    1000022    2    1    0    0    0 -0.56492501625E+02 -0.16989747742E+02  0.18060889298E+02  0.62499999749E+02  0.99999989088E+01 0.  0.
    3000022    2    5    5    0    0 -0.53287440581E+02 -0.17907735888E+02  0.15975541767E+02  0.58442439785E+02  0.25000998742E+00 0.  0.
        -13    1    4    4    0    0  0.14216515892E+02  0.46883274830E+01 -0.62959296121E+01  0.16240058293E+02  0.10500000000E+00 0. -1.
         13    1    4    4    0    0  0.24147969737E+02  0.80948608365E+01 -0.10601271404E+02  0.27587120088E+02  0.10500000000E+00 0.  1.
    3000001    1    5    5    0    0 -0.32050610442E+01  0.91798814624E+00  0.20853475309E+01  0.40575599637E+01  0.10000000000E+01 0. -1.
        -13    1    6    6    0    0 -0.18349467894E+02 -0.61081338960E+01  0.54914209592E+01  0.20104203561E+02  0.10500000000E+00 0.  1.
         13    1    6    6    0    0 -0.34937972687E+02 -0.11799601992E+02  0.10484120807E+02  0.38338236224E+02  0.10500000000E+00 0. -1.
</event>
<event>
11    0  0.3443539E-009  0.9118800E+02  0.7816531E-02  0.1126479E+00
         25   -1    0    0    0    0  0.00000000000E+00  0.00000000000E+00  0.99999998245E-14  0.12500000000E+03  0.12500000000E+03 0.  0.
    3000001    1    3    3    0    0 -0.44208012424E+01  0.21376819098E+02 -0.14620992445E+02  0.26292304928E+02  0.10000000000E+01 0.  1.
    1000022    2    1    0    0    0 -0.21021645928E+02  0.45977588039E+02 -0.35361017256E+02  0.62499997468E+02  0.99999971339E+01 0.  0.
    3000022    2    3    3    0    0 -0.16600844686E+02  0.24600768941E+02 -0.20740024811E+02  0.36207692540E+02  0.24998617594E+00 0.  0.
    1000022    2    1    0    0    0  0.21021645928E+02 -0.45977588039E+02  0.35361017256E+02  0.62500002532E+02  0.10000028783E+02 0.  0.
    3000022    2    5    5    0    0  0.38398188658E+01 -0.79055123422E+01  0.19586183899E+01  0.90077752545E+01  0.24998944595E+00 0.  0.
        -13    1    4    4    0    0 -0.10393649516E+02  0.15361054943E+02 -0.13028870954E+02  0.22666108236E+02  0.10500000000E+00 0.  1.
         13    1    4    4    0    0 -0.62071951696E+01  0.92397139981E+01 -0.77111538576E+01  0.13541584304E+02  0.10500000000E+00 0. -1.
    3000001    1    5    5    0    0  0.17181827063E+02 -0.38072075697E+02  0.33402398866E+02  0.53492227277E+02  0.10000000000E+01 0.  1.
        -13    1    6    6    0    0  0.19753814796E+01 -0.39549435422E+01  0.93705946499E+00  0.45202672324E+01  0.10500000000E+00 0.  1.
         13    1    6    6    0    0  0.18644373862E+01 -0.39505688000E+01  0.10215589250E+01  0.44875080220E+01  0.10500000000E+00 0. -1.
</event>
<event>
11    0  0.3443539E-009  0.9118800E+02  0.7816531E-02  0.1126479E+00
         25   -1    0    0    0    0  0.00000000000E+00  0.00000000000E+00  0.99999998245E-14  0.12500000000E+03  0.12500000000E+03 0.  0.
    3000001    1    3    3    0    0 -0.28312523431E+02 -0.22726123217E+02 -0.33382433206E+00  0.36320615333E+02  0.10000000000E+01 0.  1.
    1000022    2    1    0    0    0 -0.44314678622E+02 -0.42542063853E+02  0.57124366102E+01  0.62500000495E+02  0.10000009584E+02 0.  0.
    3000022    2    3    3    0    0 -0.16002155190E+02 -0.19815940636E+02  0.60462609423E+01  0.26179385162E+02  0.24992406846E+00 0.  0.
    1000022    2    1    0    0    0  0.44314678622E+02  0.42542063853E+02 -0.57124366102E+01  0.62499999505E+02  0.10000003395E+02 0.  0.
    3000022    2    5    5    0    0  0.10707509102E+02  0.67874809104E+01  0.19386055049E+01  0.12827366295E+02  0.24997299323E+00 0.  0.
        -13    1    4    4    0    0 -0.66036789007E+01 -0.82324320891E+01  0.25610791248E+01  0.10860555437E+02  0.10500000000E+00 0.  1.
         13    1    4    4    0    0 -0.93984762894E+01 -0.11583508547E+02  0.34851818175E+01  0.15318829724E+02  0.10500000000E+00 0. -1.
    3000001    1    5    5    0    0  0.33607169520E+02  0.35754582942E+02 -0.76510421151E+01  0.49672633209E+02  0.10000000000E+01 0.  1.
        -13    1    6    6    0    0  0.75070879533E+01  0.47558652946E+01  0.13127800676E+01  0.89838210548E+01  0.10500000000E+00 0. -1.
         13    1    6    6    0    0  0.32004211486E+01  0.20316156158E+01  0.62582543729E+00  0.38435452406E+01  0.10500000000E+00 0.  1.
</event>
<event>
11    0  0.3443539E-009  0.9118800E+02  0.7816531E-02  0.1126479E+00
         25   -1    0    0    0    0  0.00000000000E+00  0.00000000000E+00  0.99999998245E-14  0.12500000000E+03  0.12500000000E+03 0.  0.
    3000001    1    3    3    0    0  0.59257735061E+01 -0.27629510515E+02 -0.23895342123E+02  0.37020156917E+02  0.10000000000E+01 0. -1.
    1000022    2    1    0    0    0  0.17229232618E+02 -0.46719871603E+02 -0.36423304998E+02  0.62500000352E+02  0.10000001892E+02 0.  0.
    3000022    2    3    3    0    0  0.11303459112E+02 -0.19090361087E+02 -0.12527962875E+02  0.25479843435E+02  0.24998670131E+00 0.  0.
    1000022    2    1    0    0    0 -0.17229232618E+02  0.46719871603E+02  0.36423304998E+02  0.62499999648E+02  0.99999974911E+01 0.  0.
    3000022    2    5    5    0    0 -0.23896324849E+01  0.17748596706E+02  0.96715907946E+01  0.20354979609E+02  0.24999587508E+00 0.  0.
        -13    1    4    4    0    0  0.66865568295E+01 -0.11410166363E+02 -0.74921402910E+01  0.15200168743E+02  0.10500000000E+00 0.  1.
         13    1    4    4    0    0  0.46169022821E+01 -0.76801947245E+01 -0.50358225843E+01  0.10279674693E+02  0.10500000000E+00 0. -1.
    3000001    1    5    5    0    0 -0.14839600133E+02  0.28971274896E+02  0.26751714204E+02  0.42145020039E+02  0.10000000000E+01 0. -1.
        -13    1    6    6    0    0 -0.10063489107E+01  0.74303778685E+01  0.39763252444E+01  0.84879585795E+01  0.10500000000E+00 0. -1.
         13    1    6    6    0    0 -0.13832835742E+01  0.10318218838E+02  0.56952655502E+01  0.11867021030E+02  0.10500000000E+00 0.  1.
</event>
<event>
11    0  0.3443539E-009  0.9118800E+02  0.7816531E-02  0.1126479E+00
         25   -1    0    0    0    0  0.00000000000E+00  0.00000000000E+00  0.99999998245E-14  0.12500000000E+03  0.12500000000E+03 0.  0.
    3000001    1    3    3    0    0 -0.33777592166E+02  0.29617855990E+02 -0.54151106009E+01  0.45259988388E+02  0.10000000000E+01 0.  1.
    1000022    2    1    0    0    0 -0.42009820968E+02  0.44084437092E+02 -0.98988492171E+01  0.62499999052E+02  0.10000000711E+02 0.  0.
    3000022    2    3    3    0    0 -0.82322288015E+01  0.14466581101E+02 -0.44837386162E+01  0.17240010664E+02  0.24999185040E+00 0.  0.
    1000022    2    1    0    0    0  0.42009820968E+02 -0.44084437092E+02  0.98988492171E+01  0.62500000948E+02  0.10000012562E+02 0.  0.
    3000022    2    5    5    0    0  0.15528983871E+02 -0.23413514737E+02  0.49564323534E+01  0.28530172441E+02  0.25001085778E+00 0.  0.
        -13    1    4    4    0    0 -0.22242378411E+01  0.38536776397E+01 -0.12214035421E+01  0.46152916416E+01  0.10500000000E+00 0. -1.
         13    1    4    4    0    0 -0.60079909605E+01  0.10612903462E+02 -0.32623350741E+01  0.12624719023E+02  0.10500000000E+00 0.  1.
    3000001    1    5    5    0    0  0.26480837097E+02 -0.20670922355E+02  0.49424168637E+01  0.33969828507E+02  0.10000000000E+01 0.  1.
        -13    1    6    6    0    0  0.86250808173E+01 -0.12981526782E+02  0.28157674829E+01  0.15838296253E+02  0.10500000000E+00 0.  1.
         13    1    6    6    0    0  0.69039030536E+01 -0.10431987955E+02  0.21406648705E+01  0.12691876188E+02  0.10500000000E+00 0. -1.
</event>
<event>
11    0  0.3443539E-009  0.9118800E+02  0.7816531E-02  0.1126479E+00
         25   -1    0    0    0    0  0.00000000000E+00  0.00000000000E+00  0.99999998245E-14  0.12500000000E+03  0.12500000000E+03 0.  0.
    3000001    1    3    3    0    0 -0.20976882353E+02 -0.10121048702E+02 -0.32374133797E+02  0.39894232155E+02  0.10000000000E+01 0. -1.
    1000022    2    1    0    0    0 -0.26094847553E+02 -0.15215816065E+02 -0.53793933295E+02  0.62499995405E+02  0.10000001949E+02 0.  0.
    3000022    2    3    3    0    0 -0.51179651999E+01 -0.50947673636E+01 -0.21419799498E+02  0.22605763251E+02  0.24999871070E+00 0.  0.
    1000022    2    1    0    0    0  0.26094847553E+02  0.15215816065E+02  0.53793933295E+02  0.62500004595E+02  0.10000059381E+02 0.  0.
    3000022    2    5    5    0    0 -0.21451283578E+00  0.16850866613E+01  0.10373163256E+01  0.20060072368E+01  0.25001412351E+00 0.  0.
        -13    1    4    4    0    0 -0.33280051988E+01 -0.32681998709E+01 -0.13682159259E+02  0.14455768952E+02  0.10500000000E+00 0.  1.
         13    1    4    4    0    0 -0.17899600011E+01 -0.18265674927E+01 -0.77376402388E+01  0.81499942991E+01  0.10500000000E+00 0. -1.
    3000001    1    5    5    0    0  0.26309360389E+02  0.13530729404E+02  0.52756616969E+02  0.60493997358E+02  0.10000000000E+01 0.  1.
        -13    1    6    6    0    0 -0.83779857128E-01  0.42709861620E+00  0.28209327598E+00  0.52918230203E+00  0.10500000000E+00 0. -1.
         13    1    6    6    0    0 -0.13073297865E+00  0.12579880451E+01  0.75522304966E+00  0.14768249348E+01  0.10500000000E+00 0.  1.
</event>
<event>
11    0  0.3443539E-009  0.9118800E+02  0.7816531E-02  0.1126479E+00
         25   -1    0    0    0    0  0.00000000000E+00  0.00000000000E+00  0.99999998245E-14  0.12500000000E+03  0.12500000000E+03 0.  0.
    3000001    1    3    3    0    0  0.14301278783E+02 -0.14749219949E+02  0.58012357544E+02  0.61550789530E+02  0.10000000000E+01 0. -1.
    1000022    2    1    0    0    0  0.13459343950E+02 -0.14756865712E+02  0.58372353430E+02  0.62500004420E+02  0.99999941211E+01 0.  0.
    3000022    2    3    3    0    0 -0.84193483266E+00 -0.76457626168E-02  0.35999588588E+00  0.94921489072E+00  0.24999830154E+00 0.  0.
    1000022    2    1    0    0    0 -0.13459343950E+02  0.14756865712E+02 -0.58372353430E+02  0.62499995580E+02  0.99999388674E+01 0.  0.
    3000022    2    5    5    0    0 -0.45523035060E+01  0.12081000044E+02 -0.36260613698E+02  0.38491150116E+02  0.25000445986E+00 0.  0.
        -13    1    4    4    0    0 -0.46605500658E+00 -0.42454488104E-01  0.13893616028E+00  0.49933747040E+00  0.10500000000E+00 0.  1.
         13    1    4    4    0    0 -0.37587982608E+00  0.34808725487E-01  0.22105972559E+00  0.44987742031E+00  0.10500000000E+00 0. -1.
    3000001    1    5    5    0    0 -0.89070404438E+01  0.26758656682E+01 -0.22111739731E+02  0.24008845463E+02  0.10000000000E+01 0. -1.
        -13    1    6    6    0    0 -0.16439154358E+01  0.44485255572E+01 -0.13473356536E+02  0.14284054009E+02  0.10500000000E+00 0.  1.
         13    1    6    6    0    0 -0.29083880702E+01  0.76324744863E+01 -0.22787257163E+02  0.24207096107E+02  0.10500000000E+00 0. -1.
</event>
<event>
11    0  0.3443539E-009  0.9118800E+02  0.7816531E-02  0.1126479E+00
         25   -1    0    0    0    0  0.00000000000E+00  0.00000000000E+00  0.99999998245E-14  0.12500000000E+03  0.12500000000E+03 0.  0.
    3000001    1    3    3    0    0  0.26329338180E+01 -0.78509531009E+00  0.20894725736E+01  0.35936904112E+01  0.10000000000E+01 0.  1.
    1000022    2    1    0    0    0  0.36047082245E+02  0.20572005321E+02  0.45647018248E+02  0.62500000319E+02  0.10000011185E+02 0.  0.
    3000022    2    3    3    0    0  0.33414148427E+02  0.21357100631E+02  0.43557545674E+02  0.58906309908E+02  0.24999873686E+00 0.  0.
    1000022    2    1    0    0    0 -0.36047082245E+02 -0.20572005321E+02 -0.45647018248E+02  0.62499999681E+02  0.10000007196E+02 0.  0.
    3000022    2    5    5    0    0 -0.40466491422E+01  0.52057964160E+00 -0.66994737196E+01  0.78480456087E+01  0.24999862452E+00 0.  0.
        -13    1    4    4    0    0  0.17500122158E+02  0.11168496643E+02  0.22900599498E+02  0.30910161359E+02  0.10500000000E+00 0. -1.
         13    1    4    4    0    0  0.15914026268E+02  0.10188603988E+02  0.20656946176E+02  0.27996148549E+02  0.10500000000E+00 0.  1.
    3000001    1    5    5    0    0 -0.32000433102E+02 -0.21092584962E+02 -0.38947544528E+02  0.54651954072E+02  0.10000000000E+01 0. -1.
        -13    1    6    6    0    0 -0.23767353881E+01  0.36993570590E+00 -0.39596993520E+01  0.46342170309E+01  0.10500000000E+00 0.  1.
         13    1    6    6    0    0 -0.16699137541E+01  0.15064393570E+00 -0.27397743676E+01  0.32138285777E+01  0.10500000000E+00 0. -1.
</event>
<event>
11    0  0.3443539E-009  0.9118800E+02  0.7816531E-02  0.1126479E+00
         25   -1    0    0    0    0  0.00000000000E+00  0.00000000000E+00  0.99999998245E-14  0.12500000000E+03  0.12500000000E+03 0.  0.
    3000001    1    3    3    0    0  0.42944407887E+01 -0.40218311345E+02 -0.14453590987E+01  0.40485106547E+02  0.10000000000E+01 0.  1.
    1000022    2    1    0    0    0  0.13614736838E+02 -0.60096100756E+02 -0.30573823571E+01  0.62500000382E+02  0.10000003782E+02 0.  0.
    3000022    2    3    3    0    0  0.93202960495E+01 -0.19877789411E+02 -0.16120232584E+01  0.22014893836E+02  0.25000261045E+00 0.  0.
    1000022    2    1    0    0    0 -0.13614736838E+02  0.60096100756E+02  0.30573823571E+01  0.62499999618E+02  0.99999990041E+01 0.  0.
    3000022    2    5    5    0    0 -0.10865243212E+02  0.56635144977E+02  0.42158608468E+01  0.57822393123E+02  0.25001441640E+00 0.  0.
        -13    1    4    4    0    0  0.44815688958E+01 -0.97131272918E+01 -0.80144574881E+00  0.10727657799E+02  0.10500000000E+00 0.  1.
         13    1    4    4    0    0  0.48387271537E+01 -0.10164662119E+02 -0.81057750958E+00  0.11287236037E+02  0.10500000000E+00 0. -1.
    3000001    1    5    5    0    0 -0.27494936264E+01  0.34609557795E+01 -0.11584784898E+01  0.46776064949E+01  0.10000000000E+01 0.  1.
        -13    1    6    6    0    0 -0.65219472508E+01  0.33709885929E+02  0.24763203672E+01  0.34424343027E+02  0.10500000000E+00 0. -1.
         13    1    6    6    0    0 -0.43432959610E+01  0.22925259048E+02  0.17395404796E+01  0.23398050096E+02  0.10500000000E+00 0.  1.
</event>
<event>
11    0  0.3443539E-009  0.9118800E+02  0.7816531E-02  0.1126479E+00
         25   -1    0    0    0    0  0.00000000000E+00  0.00000000000E+00  0.99999998245E-14  0.12500000000E+03  0.12500000000E+03 0.  0.
    3000001    1    3    3    0    0 -0.10839008109E+02  0.14291511761E+02 -0.31660523426E+02  0.36402199779E+02  0.10000000000E+01 0. -1.
    1000022    2    1    0    0    0 -0.10703946205E+02  0.22612104020E+02 -0.56394761044E+02  0.62500005448E+02  0.99999947582E+01 0.  0.
    3000022    2    3    3    0    0  0.13506190353E+00  0.83205922590E+01 -0.24734237619E+02  0.26097805668E+02  0.24990572872E+00 0.  0.
    1000022    2    1    0    0    0  0.10703946205E+02 -0.22612104020E+02  0.56394761044E+02  0.62499994552E+02  0.99999266594E+01 0.  0.
    3000022    2    5    5    0    0  0.67429909862E+01 -0.20681144821E+02  0.40466457967E+02  0.45943164886E+02  0.25000159553E+00 0.  0.
        -13    1    4    4    0    0  0.10579325695E+00  0.34448900397E+01 -0.10371774139E+02  0.10929921473E+02  0.10500000000E+00 0. -1.
         13    1    4    4    0    0  0.29268646571E-01  0.48757022193E+01 -0.14362463479E+02  0.15167884196E+02  0.10500000000E+00 0.  1.
    3000001    1    5    5    0    0  0.39609552189E+01 -0.19309591995E+01  0.15928303077E+02  0.16556829666E+02  0.10000000000E+01 0. -1.
        -13    1    6    6    0    0  0.42689150399E+01 -0.13227113597E+02  0.25941511446E+02  0.29430480982E+02  0.10500000000E+00 0. -1.
         13    1    6    6    0    0  0.24740759463E+01 -0.74540312236E+01  0.14524946521E+02  0.16512683904E+02  0.10500000000E+00 0.  1.
</event>
<event>
11    0  0.3443539E-009  0.9118800E+02  0.7816531E-02  0.1126479E+00
         25   -1    0    0    0    0  0.00000000000E+00  0.00000000000E+00  0.99999998245E-14  0.12500000000E+03  0.12500000000E+03 0.  0.
    3000001    1    3    3    0    0  0.53916528127E+02 -0.15452595474E+01 -0.13912336527E+01  0.53965872210E+02  0.10000000000E+01 0. -1.
    1000022    2    1    0    0    0  0.61615015270E+02  0.19780076352E+01 -0.24346376433E+01  0.62499998229E+02  0.99999848642E+01 0.  0.
    3000022    2    3    3    0    0  0.76984871431E+01  0.35232671825E+01 -0.10434039906E+01  0.85341260192E+01  0.24999818266E+00 0.  0.
    1000022    2    1    0    0    0 -0.61615015270E+02 -0.19780076352E+01  0.24346376433E+01  0.62500001771E+02  0.10000007000E+02 0.  0.
    3000022    2    5    5    0    0 -0.42308509003E+02  0.17294595315E+01 -0.17287544450E+01  0.42379854388E+02  0.25000340373E+00 0.  0.
        -13    1    4    4    0    0  0.33514307444E+01  0.14679390527E+01 -0.47803964678E+00  0.36914062363E+01  0.10500000000E+00 0. -1.
         13    1    4    4    0    0  0.43470563987E+01  0.20553281299E+01 -0.56536434386E+00  0.48427197829E+01  0.10500000000E+00 0.  1.
    3000001    1    5    5    0    0 -0.19306506267E+02 -0.37074671667E+01  0.41633920883E+01  0.20120147383E+02  0.10000000000E+01 0. -1.
        -13    1    6    6    0    0 -0.13609250961E+02  0.56831292411E+00 -0.60584648561E+00  0.13634983178E+02  0.10500000000E+00 0. -1.
         13    1    6    6    0    0 -0.28699258042E+02  0.11611466074E+01 -0.11229079594E+01  0.28744871211E+02  0.10500000000E+00 0.  1.
</event>
<event>
11    0  0.3443539E-009  0.9118800E+02  0.7816531E-02  0.1126479E+00
         25   -1    0    0    0    0  0.00000000000E+00  0.00000000000E+00  0.99999998245E-14  0.12500000000E+03  0.12500000000E+03 0.  0.
    3000001    1    3    3    0    0 -0.16279205050E+02 -0.33601103635E+02  0.28506436896E+02  0.46985781116E+02  0.10000000000E+01 0.  1.
    1000022    2    1    0    0    0 -0.25514937455E+02 -0.44916590740E+02  0.33730361969E+02  0.62499997003E+02  0.10000007487E+02 0.  0.
    3000022    2    3    3    0    0 -0.92357324047E+01 -0.11315487105E+02  0.52239250724E+01  0.15514215887E+02  0.24999986962E+00 0.  0.
    1000022    2    1    0    0    0  0.25514937455E+02  0.44916590740E+02 -0.33730361969E+02  0.62500002997E+02  0.10000044955E+02 0.  0.
    3000022    2    5    5    0    0  0.19727501902E+02  0.31803753789E+02 -0.19193296085E+02  0.42060649101E+02  0.25000369154E+00 0.  0.
        -13    1    4    4    0    0 -0.40916765957E+01 -0.49174254364E+01  0.22597886616E+01  0.67853194532E+01  0.10500000000E+00 0. -1.
         13    1    4    4    0    0 -0.51440558090E+01 -0.63980616688E+01  0.29641364108E+01  0.87288964335E+01  0.10500000000E+00 0.  1.
    3000001    1    5    5    0    0  0.57874355522E+01  0.13112836951E+02 -0.14537065884E+02  0.20439353896E+02  0.10000000000E+01 0. -1.
        -13    1    6    6    0    0  0.94158086113E+01  0.15116882827E+02 -0.90672985284E+01  0.19985107601E+02  0.10500000000E+00 0. -1.
         13    1    6    6    0    0  0.10311693291E+02  0.16686870962E+02 -0.10125997557E+02  0.22075541501E+02  0.10500000000E+00 0.  1.
</event>
<event>
11    0  0.3443539E-009  0.9118800E+02  0.7816531E-02  0.1126479E+00
         25   -1    0    0    0    0  0.00000000000E+00  0.00000000000E+00  0.99999998245E-14  0.12500000000E+03  0.12500000000E+03 0.  0.
    3000001    1    3    3    0    0 -0.21070504901E+02  0.34729864519E+00  0.11699249889E+02  0.24123831394E+02  0.10000000000E+01 0. -1.
    1000022    2    1    0    0    0 -0.57900639461E+02 -0.59378021388E+01  0.20457487373E+02  0.62500002841E+02  0.10000001060E+02 0.  0.
    3000022    2    3    3    0    0 -0.36830134560E+02 -0.62851007839E+01  0.87582374836E+01  0.38376171447E+02  0.25001504117E+00 0.  0.
    1000022    2    1    0    0    0  0.57900639461E+02  0.59378021388E+01 -0.20457487373E+02  0.62499997159E+02  0.99999655510E+01 0.  0.
    3000022    2    5    5    0    0  0.50236856522E+02  0.33923870039E+01 -0.14446165756E+02  0.52383243988E+02  0.25000564645E+00 0.  0.
        -13    1    4    4    0    0 -0.23671659039E+02 -0.40098748801E+01  0.56789883737E+01  0.24671612679E+02  0.10500000000E+00 0.  1.
         13    1    4    4    0    0 -0.13158475521E+02 -0.22752259038E+01  0.30792491098E+01  0.13704558768E+02  0.10500000000E+00 0. -1.
    3000001    1    5    5    0    0  0.76637829394E+01  0.25454151348E+01 -0.60113216174E+01  0.10116753172E+02  0.10000000000E+01 0.  1.
        -13    1    6    6    0    0  0.20091416289E+02  0.13580295435E+01 -0.57119941943E+01  0.20931964920E+02  0.10500000000E+00 0.  1.
         13    1    6    6    0    0  0.30145440233E+02  0.20343574605E+01 -0.87341715613E+01  0.31451279068E+02  0.10500000000E+00 0. -1.
</event>
<event>
11    0  0.3443539E-009  0.9118800E+02  0.7816531E-02  0.1126479E+00
         25   -1    0    0    0    0  0.00000000000E+00  0.00000000000E+00  0.99999998245E-14  0.12500000000E+03  0.12500000000E+03 0.  0.
    3000001    1    3    3    0    0 -0.30547819677E+02  0.27758430354E+02  0.97463462797E+00  0.41299511563E+02  0.10000000000E+01 0. -1.
    1000022    2    1    0    0    0 -0.41362659591E+02  0.45464408245E+02  0.53261641413E+01  0.62500000315E+02  0.99999994697E+01 0.  0.
    3000022    2    3    3    0    0 -0.10814839915E+02  0.17705977891E+02  0.43515295133E+01  0.21200488752E+02  0.24999749770E+00 0.  0.
    1000022    2    1    0    0    0  0.41362659591E+02 -0.45464408245E+02 -0.53261641413E+01  0.62499999685E+02  0.99999955306E+01 0.  0.
    3000022    2    5    5    0    0  0.25338369919E+02 -0.34409438187E+02 -0.25377282206E+01  0.42808234975E+02  0.24998137680E+00 0.  0.
        -13    1    4    4    0    0 -0.42227186780E+01  0.68923151122E+01  0.16330816532E+01  0.82470201482E+01  0.10500000000E+00 0.  1.
         13    1    4    4    0    0 -0.65921212366E+01  0.10813662779E+02  0.27184478601E+01  0.12953468604E+02  0.10500000000E+00 0. -1.
    3000001    1    5    5    0    0  0.16024289673E+02 -0.11054970058E+02 -0.27884359207E+01  0.19691764710E+02  0.10000000000E+01 0.  1.
        -13    1    6    6    0    0  0.11109505928E+02 -0.15187486560E+02 -0.11458575077E+01  0.18852185136E+02  0.10500000000E+00 0.  1.
         13    1    6    6    0    0  0.14228863990E+02 -0.19221951627E+02 -0.13918707128E+01  0.23956049839E+02  0.10500000000E+00 0. -1.
</event>
<event>
11    0  0.3443539E-009  0.9118800E+02  0.7816531E-02  0.1126479E+00
         25   -1    0    0    0    0  0.00000000000E+00  0.00000000000E+00  0.99999998245E-14  0.12500000000E+03  0.12500000000E+03 0.  0.
    3000001    1    3    3    0    0  0.20542242274E+01 -0.27660407696E+01  0.18406026325E+01  0.40321999909E+01  0.10000000000E+01 0.  1.
    1000022    2    1    0    0    0  0.47573795934E+02 -0.39200765506E+02 -0.25068840049E+01  0.62500000639E+02  0.99999768249E+01 0.  0.
    3000022    2    3    3    0    0  0.45519571707E+02 -0.36434724737E+02 -0.43474866374E+01  0.58467800648E+02  0.24999494794E+00 0.  0.
    1000022    2    1    0    0    0 -0.47573795934E+02  0.39200765506E+02  0.25068840049E+01  0.62499999361E+02  0.99999688432E+01 0.  0.
    3000022    2    5    5    0    0 -0.11986605271E+02  0.14645709662E+02 -0.19278876277E+01  0.19025108835E+02  0.24999611840E+00 0.  0.
        -13    1    4    4    0    0  0.12457466885E+02 -0.10017879792E+02 -0.11828130556E+01  0.16029861772E+02  0.10500000000E+00 0. -1.
         13    1    4    4    0    0  0.33062104822E+02 -0.26416844945E+02 -0.31646735818E+01  0.42437938875E+02  0.10500000000E+00 0.  1.
    3000001    1    5    5    0    0 -0.35587190664E+02  0.24555055845E+02  0.44347716326E+01  0.43474890527E+02  0.10000000000E+01 0. -1.
        -13    1    6    6    0    0 -0.85398977302E+01  0.10498978712E+02 -0.13726163708E+01  0.13603437357E+02  0.10500000000E+00 0. -1.
         13    1    6    6    0    0 -0.34467075406E+01  0.41467309498E+01 -0.55527125687E+00  0.54216714775E+01  0.10500000000E+00 0.  1.
</event>
<event>
11    0  0.3443539E-009  0.9118800E+02  0.7816531E-02  0.1126479E+00
         25   -1    0    0    0    0  0.00000000000E+00  0.00000000000E+00  0.99999998245E-14  0.12500000000E+03  0.12500000000E+03 0.  0.
    3000001    1    3    3    0    0  0.52381348787E+02  0.94282360973E+00  0.15893519410E+01  0.52423474291E+02  0.10000000000E+01 0. -1.
    1000022    2    1    0    0    0  0.61444225895E+02 -0.12168308374E+01  0.54200223347E+01  0.62500000706E+02  0.99999936518E+01 0.  0.
    3000022    2    3    3    0    0  0.90628771076E+01 -0.21596544472E+01  0.38306703937E+01  0.10076526415E+02  0.25000026272E+00 0.  0.
    1000022    2    1    0    0    0 -0.61444225895E+02  0.12168308374E+01 -0.54200223347E+01  0.62499999294E+02  0.99999848242E+01 0.  0.
    3000022    2    5    5    0    0 -0.54353704211E+02  0.23372330248E+01 -0.18877163080E+01  0.54437246372E+02  0.25000003695E+00 0.  0.
        -13    1    4    4    0    0  0.32611475740E+01 -0.72465788325E+00  0.14033241095E+01  0.36249904970E+01  0.10500000000E+00 0.  1.
         13    1    4    4    0    0  0.58017295336E+01 -0.14349965639E+01  0.24273462842E+01  0.64515359181E+01  0.10500000000E+00 0. -1.
    3000001    1    5    5    0    0 -0.70905216837E+01 -0.11204021873E+01 -0.35323060267E+01  0.80627529216E+01  0.10000000000E+01 0.  1.
        -13    1    6    6    0    0 -0.28983076450E+02  0.12253079523E+01 -0.10705620772E+01  0.29028903325E+02  0.10500000000E+00 0.  1.
         13    1    6    6    0    0 -0.25370627761E+02  0.11119250724E+01 -0.81715423072E+00  0.25408343047E+02  0.10500000000E+00 0. -1.
</event>
<event>
11    0  0.3443539E-009  0.9118800E+02  0.7816531E-02  0.1126479E+00
         25   -1    0    0    0    0  0.00000000000E+00  0.00000000000E+00  0.99999998245E-14  0.12500000000E+03  0.12500000000E+03 0.  0.
    3000001    1    3    3    0    0 -0.19968139484E+02  0.41478620340E+02  0.26521161714E+02  0.53137317946E+02  0.10000000000E+01 0.  1.
    1000022    2    1    0    0    0 -0.19396764833E+02  0.49570146677E+02  0.31189999097E+02  0.62499999766E+02  0.99999999750E+01 0.  0.
    3000022    2    3    3    0    0  0.57137465109E+00  0.80915263366E+01  0.46688373828E+01  0.93626818202E+01  0.25000181943E+00 0.  0.
    1000022    2    1    0    0    0  0.19396764833E+02 -0.49570146677E+02 -0.31189999097E+02  0.62500000234E+02  0.10000002897E+02 0.  0.
    3000022    2    5    5    0    0  0.76514255698E+01 -0.13831968177E+02 -0.14042866267E+02  0.21145501552E+02  0.24997198441E+00 0.  0.
        -13    1    4    4    0    0  0.38333227227E+00  0.59124912444E+01  0.33963004102E+01  0.68301081853E+01  0.10500000000E+00 0. -1.
         13    1    4    4    0    0  0.18804237882E+00  0.21790350922E+01  0.12725369726E+01  0.25325736349E+01  0.10500000000E+00 0.  1.
    3000001    1    5    5    0    0  0.11745339264E+02 -0.35738178500E+02 -0.17147132830E+02  0.41354498682E+02  0.10000000000E+01 0.  1.
        -13    1    6    6    0    0  0.57461661718E+01 -0.10332183843E+02 -0.10509908146E+02  0.15819027874E+02  0.10500000000E+00 0.  1.
         13    1    6    6    0    0  0.19052593980E+01 -0.34997843344E+01 -0.35329581213E+01  0.53264736785E+01  0.10500000000E+00 0. -1.
</event>
<event>
11    0  0.3443539E-009  0.9118800E+02  0.7816531E-02  0.1126479E+00
         25   -1    0    0    0    0  0.00000000000E+00  0.00000000000E+00  0.99999998245E-14  0.12500000000E+03  0.12500000000E+03 0.  0.
    3000001    1    3    3    0    0 -0.10735136534E-01 -0.76107220760E+00 -0.25765349453E+01  0.28666842297E+01  0.10000000000E+01 0.  1.
    1000022    2    1    0    0    0 -0.16845182618E+01 -0.50826240528E+02 -0.34930002607E+02  0.62499997086E+02  0.10000011283E+02 0.  0.
    3000022    2    3    3    0    0 -0.16737831253E+01 -0.50065168320E+02 -0.32353467662E+02  0.59633312856E+02  0.25000721868E+00 0.  0.
    1000022    2    1    0    0    0  0.16845182618E+01  0.50826240528E+02  0.34930002607E+02  0.62500002914E+02  0.10000047709E+02 0.  0.
    3000022    2    5    5    0    0  0.28041573300E+01  0.49797094429E+02  0.32785444328E+02  0.59687199411E+02  0.25000363152E+00 0.  0.
        -13    1    4    4    0    0 -0.89861502081E+00 -0.27334529303E+02 -0.17741435026E+02  0.32599900965E+02  0.10500000000E+00 0. -1.
         13    1    4    4    0    0 -0.77516810448E+00 -0.22730639017E+02 -0.14612032636E+02  0.27033411891E+02  0.10500000000E+00 0.  1.
    3000001    1    5    5    0    0 -0.11196390682E+01  0.10291460985E+01  0.21445582789E+01  0.28128035030E+01  0.10000000000E+01 0. -1.
        -13    1    6    6    0    0  0.17505529675E+01  0.32073935681E+02  0.21096770972E+02  0.38430281761E+02  0.10500000000E+00 0. -1.
         13    1    6    6    0    0  0.10536043625E+01  0.17723158748E+02  0.11688673356E+02  0.21256917650E+02  0.10500000000E+00 0.  1.
</event>
<event>
11    0  0.3443539E-009  0.9118800E+02  0.7816531E-02  0.1126479E+00
         25   -1    0    0    0    0  0.00000000000E+00  0.00000000000E+00  0.99999998245E-14  0.12500000000E+03  0.12500000000E+03 0.  0.
    3000001    1    3    3    0    0 -0.24455976730E+02 -0.15423855418E+02  0.37719910564E+02  0.47537161955E+02  0.10000000000E+01 0. -1.
    1000022    2    1    0    0    0 -0.31948506050E+02 -0.24918643763E+02  0.46525307621E+02  0.62500000106E+02  0.99999959157E+01 0.  0.
    3000022    2    3    3    0    0 -0.74925293196E+01 -0.94947883449E+01  0.88053970562E+01  0.14962838151E+02  0.25001379527E+00 0.  0.
    1000022    2    1    0    0    0  0.31948506050E+02  0.24918643763E+02 -0.46525307621E+02  0.62499999894E+02  0.99999945850E+01 0.  0.
    3000022    2    5    5    0    0  0.30657958362E+02  0.22603659620E+02 -0.45811910797E+02  0.59578767286E+02  0.25000281562E+00 0.  0.
        -13    1    4    4    0    0 -0.55243794989E+01 -0.70418398928E+01  0.64917587018E+01  0.11057134980E+02  0.10500000000E+00 0.  1.
         13    1    4    4    0    0 -0.19681498208E+01 -0.24529484521E+01  0.23136383545E+01  0.39057031711E+01  0.10500000000E+00 0. -1.
    3000001    1    5    5    0    0  0.12905476884E+01  0.23149841427E+01 -0.71339682410E+00  0.29212326073E+01  0.10000000000E+01 0.  1.
        -13    1    6    6    0    0  0.11299169005E+02  0.83057002921E+01 -0.16779444064E+02  0.21868165119E+02  0.10500000000E+00 0.  1.
         13    1    6    6    0    0  0.19358789356E+02  0.14297959328E+02 -0.29032466732E+02  0.37710602168E+02  0.10500000000E+00 0. -1.
</event>
<event>
11    0  0.3443539E-009  0.9118800E+02  0.7816531E-02  0.1126479E+00
         25   -1    0    0    0    0  0.00000000000E+00  0.00000000000E+00  0.99999998245E-14  0.12500000000E+03  0.12500000000E+03 0.  0.
    3000001    1    3    3    0    0  0.13270494708E+02  0.71926271220E+01  0.34224838651E+01  0.15509781124E+02  0.10000000000E+01 0.  1.
    1000022    2    1    0    0    0  0.59377521557E+02  0.13456396717E+02  0.99742353706E+01  0.62499999977E+02  0.99999973541E+01 0.  0.
    3000022    2    3    3    0    0  0.46107026848E+02  0.62637695949E+01  0.65517515055E+01  0.46990218853E+02  0.24997138359E+00 0.  0.
    1000022    2    1    0    0    0 -0.59377521557E+02 -0.13456396717E+02 -0.99742353706E+01  0.62500000023E+02  0.99999976421E+01 0.  0.
    3000022    2    5    5    0    0 -0.49885396979E+02 -0.84846615972E+01 -0.57080297611E+01  0.50923338613E+02  0.24999518001E+00 0.  0.
        -13    1    4    4    0    0  0.24713787818E+02  0.34131034065E+01  0.35515942470E+01  0.25200107736E+02  0.10500000000E+00 0.  1.
         13    1    4    4    0    0  0.21393239030E+02  0.28506661883E+01  0.30001572585E+01  0.21790111117E+02  0.10500000000E+00 0. -1.
    3000001    1    5    5    0    0 -0.94921245781E+01 -0.49717351196E+01 -0.42662056095E+01  0.11576661410E+02  0.10000000000E+01 0. -1.
        -13    1    6    6    0    0 -0.27816944034E+02 -0.47832187656E+01 -0.32260878834E+01  0.28409157418E+02  0.10500000000E+00 0.  1.
         13    1    6    6    0    0 -0.22068452945E+02 -0.37014428317E+01 -0.24819418777E+01  0.22514181195E+02  0.10500000000E+00 0. -1.
</event>
<event>
11    0  0.3443539E-009  0.9118800E+02  0.7816531E-02  0.1126479E+00
         25   -1    0    0    0    0  0.00000000000E+00  0.00000000000E+00  0.99999998245E-14  0.12500000000E+03  0.12500000000E+03 0.  0.
    3000001    1    3    3    0    0 -0.13039782997E+01 -0.76685660478E+01 -0.93520566453E+01  0.12205254120E+02  0.10000000000E+01 0.  1.
    1000022    2    1    0    0    0 -0.73539532011E+00 -0.51674566798E+02 -0.33696413188E+02  0.62500001200E+02  0.10000011411E+02 0.  0.
    3000022    2    3    3    0    0  0.56858297956E+00 -0.44006000750E+02 -0.24344356543E+02  0.50294747080E+02  0.24999948462E+00 0.  0.
    1000022    2    1    0    0    0  0.73539532011E+00  0.51674566798E+02  0.33696413188E+02  0.62499998800E+02  0.99999964110E+01 0.  0.
    3000022    2    5    5    0    0 -0.19039385092E+01  0.18268877555E+01  0.10753385099E+01  0.28603165226E+01  0.25011393560E+00 0.  0.
        -13    1    4    4    0    0  0.33537572584E+00 -0.27655973237E+02 -0.15235683539E+02  0.31576928452E+02  0.10500000000E+00 0.  1.
         13    1    4    4    0    0  0.23320725372E+00 -0.16350027513E+02 -0.91086730045E+01  0.18717818628E+02  0.10500000000E+00 0. -1.
    3000001    1    5    5    0    0  0.26393338293E+01  0.49847679042E+02  0.32621074678E+02  0.59639682277E+02  0.10000000000E+01 0.  1.
        -13    1    6    6    0    0 -0.86002572889E+00  0.91158094844E+00  0.48199356059E+00  0.13468358743E+01  0.10500000000E+00 0.  1.
         13    1    6    6    0    0 -0.10439127803E+01  0.91530680702E+00  0.59334494935E+00  0.15134806483E+01  0.10500000000E+00 0. -1.
</event>
<event>
11    0  0.3443539E-009  0.9118800E+02  0.7816531E-02  0.1126479E+00
         25   -1    0    0    0    0  0.00000000000E+00  0.00000000000E+00  0.99999998245E-14  0.12500000000E+03  0.12500000000E+03 0.  0.
    3000001    1    3    3    0    0  0.28411564136E+01 -0.10814306307E+02 -0.42595991673E+01  0.12006897007E+02  0.10000000000E+01 0.  1.
    1000022    2    1    0    0    0  0.29476283437E+02 -0.45205056120E+02 -0.29898187006E+02  0.62499999206E+02  0.99999965217E+01 0.  0.
    3000022    2    3    3    0    0  0.26635127023E+02 -0.34390749813E+02 -0.25638587839E+02  0.50493102199E+02  0.25003815502E+00 0.  0.
    1000022    2    1    0    0    0 -0.29476283437E+02  0.45205056120E+02  0.29898187006E+02  0.62500000794E+02  0.10000006445E+02 0.  0.
    3000022    2    5    5    0    0 -0.21417133991E+02  0.38734522171E+02  0.26430211396E+02  0.51552647041E+02  0.25001242552E+00 0.  0.
        -13    1    4    4    0    0  0.10715780881E+02 -0.13932924273E+02 -0.10333947030E+02  0.20390091341E+02  0.10500000000E+00 0. -1.
         13    1    4    4    0    0  0.15919346142E+02 -0.20457825541E+02 -0.15304640809E+02  0.30103010858E+02  0.10500000000E+00 0.  1.
    3000001    1    5    5    0    0 -0.80591494451E+01  0.64705339488E+01  0.34679756101E+01  0.10947353753E+02  0.10000000000E+01 0.  1.
        -13    1    6    6    0    0 -0.15594585359E+02  0.28164178747E+02  0.19260611245E+02  0.37515253265E+02  0.10500000000E+00 0. -1.
         13    1    6    6    0    0 -0.58225486323E+01  0.10570343424E+02  0.71696001510E+01  0.14037393775E+02  0.10500000000E+00 0.  1.
</event>
<event>
11    0  0.3443539E-009  0.9118800E+02  0.7816531E-02  0.1126479E+00
         25   -1    0    0    0    0  0.00000000000E+00  0.00000000000E+00  0.99999998245E-14  0.12500000000E+03  0.12500000000E+03 0.  0.
    3000001    1    3    3    0    0 -0.74391265098E+01  0.28129093304E+01  0.70608054648E+01  0.10682136300E+02  0.10000000000E+01 0. -1.
    1000022    2    1    0    0    0 -0.27584121848E+02  0.29691702136E+02  0.46516329048E+02  0.62500001626E+02  0.10000019067E+02 0.  0.
    3000022    2    3    3    0    0 -0.20144995338E+02  0.26878792805E+02  0.39455523583E+02  0.51817865326E+02  0.24997169142E+00 0.  0.
    1000022    2    1    0    0    0  0.27584121848E+02 -0.29691702136E+02 -0.46516329048E+02  0.62499998374E+02  0.99999987405E+01 0.  0.
    3000022    2    5    5    0    0  0.89563647154E+01 -0.11154297797E+02 -0.98202652075E+01  0.17353239944E+02  0.24999905549E+00 0.  0.
        -13    1    4    4    0    0 -0.12054103232E+02  0.16185165893E+02  0.23728021303E+02  0.31149494694E+02  0.10500000000E+00 0.  1.
         13    1    4    4    0    0 -0.80908921064E+01  0.10693626912E+02  0.15727502280E+02  0.20668370632E+02  0.10500000000E+00 0. -1.
    3000001    1    5    5    0    0  0.18627757133E+02 -0.18537404339E+02 -0.36696063840E+02  0.45146758430E+02  0.10000000000E+01 0. -1.
        -13    1    6    6    0    0  0.48868125035E+01 -0.60229017219E+01 -0.52586455953E+01  0.93712677954E+01  0.10500000000E+00 0. -1.
         13    1    6    6    0    0  0.40695522118E+01 -0.51313960754E+01 -0.45616196122E+01  0.79819721481E+01  0.10500000000E+00 0.  1.
</event>
<event>
11    0  0.3443539E-009  0.9118800E+02  0.7816531E-02  0.1126479E+00
         25   -1    0    0    0    0  0.00000000000E+00  0.00000000000E+00  0.99999998245E-14  0.12500000000E+03  0.12500000000E+03 0.  0.
    3000001    1    3    3    0    0  0.11294894335E+02  0.33528513990E+02 -0.23839581167E+02  0.42673897393E+02  0.10000000000E+01 0. -1.
    1000022    2    1    0    0    0  0.10847329749E+02  0.51507747796E+02 -0.32179766283E+02  0.62500000113E+02  0.10000000520E+02 0.  0.
    3000022    2    3    3    0    0 -0.44756458661E+00  0.17979233806E+02 -0.83401851155E+01  0.19826102720E+02  0.24999802306E+00 0.  0.
    1000022    2    1    0    0    0 -0.10847329749E+02 -0.51507747796E+02  0.32179766283E+02  0.62499999887E+02  0.99999991106E+01 0.  0.
    3000022    2    5    5    0    0 -0.45864639485E+00 -0.25580650533E+02  0.16648482478E+02  0.30525636861E+02  0.24999749700E+00 0.  0.
        -13    1    4    4    0    0 -0.28348785231E+00  0.89219973427E+01 -0.41712465712E+01  0.98535640711E+01  0.10500000000E+00 0.  1.
         13    1    4    4    0    0 -0.16407673429E+00  0.90572364629E+01 -0.41689385443E+01  0.99725386490E+01  0.10500000000E+00 0. -1.
    3000001    1    5    5    0    0 -0.10388683354E+02 -0.25927097263E+02  0.15531283805E+02  0.31974363027E+02  0.10000000000E+01 0.  1.
        -13    1    6    6    0    0 -0.16913282196E+00 -0.80000833739E+01  0.51573477924E+01  0.95204622342E+01  0.10500000000E+00 0.  1.
         13    1    6    6    0    0 -0.28951357289E+00 -0.17580567159E+02  0.11491134685E+02  0.21005174626E+02  0.10500000000E+00 0. -1.
</event>
<event>
11    0  0.3443539E-009  0.9118800E+02  0.7816531E-02  0.1126479E+00
         25   -1    0    0    0    0  0.00000000000E+00  0.00000000000E+00  0.99999998245E-14  0.12500000000E+03  0.12500000000E+03 0.  0.
    3000001    1    3    3    0    0 -0.40437292341E+01  0.11637736293E+02 -0.14243869749E+02  0.18859386988E+02  0.10000000000E+01 0. -1.
    1000022    2    1    0    0    0 -0.27252732151E+02  0.35357798649E+02 -0.42583619695E+02  0.62499999905E+02  0.99999993386E+01 0.  0.
    3000022    2    3    3    0    0 -0.23209002917E+02  0.23720062356E+02 -0.28339749946E+02  0.43640612916E+02  0.24998832413E+00 0.  0.
    1000022    2    1    0    0    0  0.27252732151E+02 -0.35357798649E+02  0.42583619695E+02  0.62500000095E+02  0.10000000528E+02 0.  0.
    3000022    2    5    5    0    0  0.25026122813E+01 -0.95290647143E+01  0.75000306050E+01  0.12384631657E+02  0.24999929748E+00 0.  0.
        -13    1    4    4    0    0 -0.11287730737E+02  0.11495093680E+02 -0.13677371798E+02  0.21133659602E+02  0.10500000000E+00 0.  1.
         13    1    4    4    0    0 -0.11921272180E+02  0.12224968676E+02 -0.14662378148E+02  0.22506953314E+02  0.10500000000E+00 0. -1.
    3000001    1    5    5    0    0  0.24750119870E+02 -0.25828733935E+02  0.35083589090E+02  0.50115368438E+02  0.10000000000E+01 0. -1.
        -13    1    6    6    0    0  0.12603270643E+01 -0.47236719902E+01  0.38034618312E+01  0.61950664469E+01  0.10500000000E+00 0. -1.
         13    1    6    6    0    0  0.12422852170E+01 -0.48053927241E+01  0.36965687737E+01  0.61895652103E+01  0.10500000000E+00 0.  1.
</event>
<event>
11    0  0.3443539E-009  0.9118800E+02  0.7816531E-02  0.1126479E+00
         25   -1    0    0    0    0  0.00000000000E+00  0.00000000000E+00  0.99999998245E-14  0.12500000000E+03  0.12500000000E+03 0.  0.
    3000001    1    3    3    0    0  0.22467957417E+02 -0.43306816158E+01  0.90441357686E+01  0.24624384369E+02  0.10000000000E+01 0.  1.
    1000022    2    1    0    0    0  0.53789353842E+02 -0.22467705540E+02  0.20202905857E+02  0.62499998686E+02  0.10000002584E+02 0.  0.
    3000022    2    3    3    0    0  0.31321396425E+02 -0.18137023924E+02  0.11158770088E+02  0.37875614317E+02  0.24999831592E+00 0.  0.
    1000022    2    1    0    0    0 -0.53789353842E+02  0.22467705540E+02 -0.20202905857E+02  0.62500001314E+02  0.10000019011E+02 0.  0.
    3000022    2    5    5    0    0 -0.41650812218E+02  0.21625872862E+02 -0.15708184375E+02  0.49490182091E+02  0.25006315205E+00 0.  0.
        -13    1    4    4    0    0  0.16144301489E+02 -0.92768461887E+01  0.57689920258E+01  0.19493348603E+02  0.10500000000E+00 0. -1.
         13    1    4    4    0    0  0.15177094936E+02 -0.88601777350E+01  0.53897780626E+01  0.18382265714E+02  0.10500000000E+00 0.  1.
    3000001    1    5    5    0    0 -0.12138541625E+02  0.84183267791E+00 -0.44947214821E+01  0.13009819224E+02  0.10000000000E+01 0. -1.
        -13    1    6    6    0    0 -0.20637395789E+02  0.10659300413E+02 -0.78232697892E+01  0.24509944216E+02  0.10500000000E+00 0.  1.
         13    1    6    6    0    0 -0.21013416428E+02  0.10966572449E+02 -0.78849145857E+01  0.24980237875E+02  0.10500000000E+00 0. -1.
</event>
<event>
11    0  0.3443539E-009  0.9118800E+02  0.7816531E-02  0.1126479E+00
         25   -1    0    0    0    0  0.00000000000E+00  0.00000000000E+00  0.99999998245E-14  0.12500000000E+03  0.12500000000E+03 0.  0.
    3000001    1    3    3    0    0  0.22006835946E+02  0.13166880582E+02 -0.31564681252E+01  0.25857897510E+02  0.10000000000E+01 0. -1.
    1000022    2    1    0    0    0  0.49395995716E+02  0.31853339593E+02 -0.18752343459E+02  0.62499999680E+02  0.99999969382E+01 0.  0.
    3000022    2    3    3    0    0  0.27389159771E+02  0.18686459011E+02 -0.15595875333E+02  0.36642102170E+02  0.25000143982E+00 0.  0.
    1000022    2    1    0    0    0 -0.49395995716E+02 -0.31853339593E+02  0.18752343459E+02  0.62500000320E+02  0.10000000939E+02 0.  0.
    3000022    2    5    5    0    0 -0.22425457318E+02 -0.18358638121E+02  0.13075887830E+02  0.31795944272E+02  0.25000000280E+00 0.  0.
        -13    1    4    4    0    0  0.10668685238E+02  0.72373992895E+01 -0.61210458001E+01  0.14271615881E+02  0.10500000000E+00 0. -1.
         13    1    4    4    0    0  0.16720474533E+02  0.11449059721E+02 -0.94748295332E+01  0.22370486289E+02  0.10500000000E+00 0.  1.
    3000001    1    5    5    0    0 -0.26970538398E+02 -0.13494701472E+02  0.56764556284E+01  0.30704056048E+02  0.10000000000E+01 0.  1.
        -13    1    6    6    0    0 -0.14328771711E+02 -0.11804858391E+02  0.83696229454E+01  0.20364920663E+02  0.10500000000E+00 0. -1.
         13    1    6    6    0    0 -0.80966856072E+01 -0.65537797301E+01  0.47062648848E+01  0.11431023609E+02  0.10500000000E+00 0.  1.
</event>
<event>
11    0  0.3443539E-009  0.9118800E+02  0.7816531E-02  0.1126479E+00
         25   -1    0    0    0    0  0.00000000000E+00  0.00000000000E+00  0.99999998245E-14  0.12500000000E+03  0.12500000000E+03 0.  0.
    3000001    1    3    3    0    0  0.40573307456E+01 -0.59402938988E+01  0.54393754145E+02  0.54876493277E+02  0.10000000000E+01 0. -1.
    1000022    2    1    0    0    0  0.57697241869E+01 -0.33064541400E+01  0.61335366850E+02  0.62500002614E+02  0.10000037201E+02 0.  0.
    3000022    2    3    3    0    0  0.17123934413E+01  0.26338397588E+01  0.69416127048E+01  0.76235093375E+01  0.25000900320E+00 0.  0.
    1000022    2    1    0    0    0 -0.57697241869E+01  0.33064541400E+01 -0.61335366850E+02  0.62499997386E+02  0.10000004523E+02 0.  0.
    3000022    2    5    5    0    0 -0.83580726046E+01  0.16402495056E+01 -0.38167552041E+02  0.39107190192E+02  0.24999954806E+00 0.  0.
        -13    1    4    4    0    0  0.10757464921E+01  0.15680248194E+01  0.40964422934E+01  0.45174989554E+01  0.10500000000E+00 0.  1.
         13    1    4    4    0    0  0.63664694926E+00  0.10658149394E+01  0.28451704115E+01  0.31060103820E+01  0.10500000000E+00 0. -1.
    3000001    1    5    5    0    0  0.25883484176E+01  0.16662046344E+01 -0.23167814808E+02  0.23392807194E+02  0.10000000000E+01 0. -1.
        -13    1    6    6    0    0 -0.36407949908E+01  0.74012614535E+00 -0.16929740665E+02  0.17332925860E+02  0.10500000000E+00 0.  1.
         13    1    6    6    0    0 -0.47172776138E+01  0.90012336029E+00 -0.21237811376E+02  0.21774264332E+02  0.10500000000E+00 0. -1.
</event>
<event>
11    0  0.3443539E-009  0.9118800E+02  0.7816531E-02  0.1126479E+00
         25   -1    0    0    0    0  0.00000000000E+00  0.00000000000E+00  0.99999998245E-14  0.12500000000E+03  0.12500000000E+03 0.  0.
    3000001    1    3    3    0    0 -0.77484170966E+01 -0.34760919167E+01 -0.16916822812E+02  0.18955212385E+02  0.10000000000E+01 0. -1.
    1000022    2    1    0    0    0 -0.12982773266E+02 -0.47424606188E+01 -0.60126588758E+02  0.62500000238E+02  0.10000000981E+02 0.  0.
    3000022    2    3    3    0    0 -0.52343561693E+01 -0.12663687021E+01 -0.43209765947E+02  0.43544787853E+02  0.25000357075E+00 0.  0.
    1000022    2    1    0    0    0  0.12982773266E+02  0.47424606188E+01  0.60126588758E+02  0.62499999762E+02  0.99999980090E+01 0.  0.
    3000022    2    5    5    0    0  0.56954632774E+01  0.44177947973E+01  0.46077072409E+02  0.46638120794E+02  0.24999313739E+00 0.  0.
        -13    1    4    4    0    0 -0.28400343161E+01 -0.65469896384E+00 -0.22901562205E+02  0.23086511259E+02  0.10500000000E+00 0. -1.
         13    1    4    4    0    0 -0.23943218531E+01 -0.61166973828E+00 -0.20308203741E+02  0.20458276594E+02  0.10500000000E+00 0.  1.
    3000001    1    5    5    0    0  0.72873099885E+01  0.32466582151E+00  0.14049516349E+02  0.15861878969E+02  0.10000000000E+01 0. -1.
        -13    1    6    6    0    0  0.32222982183E+01  0.25396053824E+01  0.25851304124E+02  0.26175059718E+02  0.10500000000E+00 0.  1.
         13    1    6    6    0    0  0.24731650591E+01  0.18781894149E+01  0.20225768285E+02  0.20463061076E+02  0.10500000000E+00 0. -1.
</event>
<event>
11    0  0.3443539E-009  0.9118800E+02  0.7816531E-02  0.1126479E+00
         25   -1    0    0    0    0  0.00000000000E+00  0.00000000000E+00  0.99999998245E-14  0.12500000000E+03  0.12500000000E+03 0.  0.
    3000001    1    3    3    0    0  0.15458467697E+02 -0.52686452862E+02  0.15194633687E+02  0.56979851102E+02  0.10000000000E+01 0. -1.
    1000022    2    1    0    0    0  0.18552593870E+02 -0.57121331505E+02  0.14113993145E+02  0.62500000102E+02  0.99999979052E+01 0.  0.
    3000022    2    3    3    0    0  0.30941261730E+01 -0.44348786428E+01 -0.10806405415E+01  0.55201490004E+01  0.24999131297E+00 0.  0.
    1000022    2    1    0    0    0 -0.18552593870E+02  0.57121331505E+02 -0.14113993145E+02  0.62499999898E+02  0.99999966258E+01 0.  0.
    3000022    2    5    5    0    0 -0.49090786647E+01  0.51588120007E+01 -0.22530586858E+01  0.74733635601E+01  0.24998972981E+00 0.  0.
        -13    1    4    4    0    0  0.12850033635E+01 -0.19322386715E+01 -0.50467086351E+00  0.23770775352E+01  0.10500000000E+00 0.  1.
         13    1    4    4    0    0  0.18091228095E+01 -0.25026399712E+01 -0.57596967795E+00  0.31430714652E+01  0.10500000000E+00 0. -1.
    3000001    1    5    5    0    0 -0.13643515205E+02  0.51962519504E+02 -0.11860934460E+02  0.55026636338E+02  0.10000000000E+01 0. -1.
        -13    1    6    6    0    0 -0.29504550077E+01  0.30121584623E+01 -0.13534429517E+01  0.44295729115E+01  0.10500000000E+00 0.  1.
         13    1    6    6    0    0 -0.19586236570E+01  0.21466535384E+01 -0.89961573403E+00  0.30437906486E+01  0.10500000000E+00 0. -1.
</event>
<event>
11    0  0.3443539E-009  0.9118800E+02  0.7816531E-02  0.1126479E+00
         25   -1    0    0    0    0  0.00000000000E+00  0.00000000000E+00  0.99999998245E-14  0.12500000000E+03  0.12500000000E+03 0.  0.
    3000001    1    3    3    0    0 -0.27555468423E+01 -0.22849020122E+02 -0.14578864942E+02  0.27261952644E+02  0.10000000000E+01 0. -1.
    1000022    2    1    0    0    0 -0.16937758705E+02 -0.48748632165E+02 -0.33807294204E+02  0.62500000660E+02  0.10000006659E+02 0.  0.
    3000022    2    3    3    0    0 -0.14182211863E+02 -0.25899612042E+02 -0.19228429262E+02  0.35238048016E+02  0.24999763698E+00 0.  0.
    1000022    2    1    0    0    0  0.16937758705E+02  0.48748632165E+02  0.33807294204E+02  0.62499999340E+02  0.99999984129E+01 0.  0.
    3000022    2    5    5    0    0  0.16027647518E+02  0.34208122265E+02  0.26689620363E+02  0.46254507307E+02  0.24999436520E+00 0.  0.
        -13    1    4    4    0    0 -0.45481279408E+01 -0.82213269520E+01 -0.61539568132E+01  0.11232003119E+02  0.10500000000E+00 0. -1.
         13    1    4    4    0    0 -0.96340839223E+01 -0.17678285090E+02 -0.13074472449E+02  0.24006044897E+02  0.10500000000E+00 0.  1.
    3000001    1    5    5    0    0  0.91011118748E+00  0.14540509900E+02  0.71176738406E+01  0.16245492034E+02  0.10000000000E+01 0.  1.
        -13    1    6    6    0    0  0.11398279629E+02  0.24411562031E+02  0.19061259250E+02  0.33002844855E+02  0.10500000000E+00 0.  1.
         13    1    6    6    0    0  0.46293678892E+01  0.97965602339E+01  0.76283611135E+01  0.13251662452E+02  0.10500000000E+00 0. -1.
</event>
<event>
11    0  0.3443539E-009  0.9118800E+02  0.7816531E-02  0.1126479E+00
         25   -1    0    0    0    0  0.00000000000E+00  0.00000000000E+00  0.99999998245E-14  0.12500000000E+03  0.12500000000E+03 0.  0.
    3000001    1    3    3    0    0 -0.30441845206E+02 -0.28779521957E+02 -0.35469880096E+01  0.42054107381E+02  0.10000000000E+01 0. -1.
    1000022    2    1    0    0    0 -0.48563221117E+02 -0.38021131654E+02 -0.15023871319E+01  0.62499999626E+02  0.99999944381E+01 0.  0.
    3000022    2    3    3    0    0 -0.18121375910E+02 -0.92416096965E+01  0.20446008777E+01  0.20445892246E+02  0.25000461842E+00 0.  0.
    1000022    2    1    0    0    0  0.48563221117E+02  0.38021131654E+02  0.15023871319E+01  0.62500000374E+02  0.99999991082E+01 0.  0.
    3000022    2    5    5    0    0  0.84363348858E+01  0.77462189718E+01  0.40711490003E+01  0.12157812559E+02  0.24999472171E+00 0.  0.
        -13    1    4    4    0    0 -0.74953831860E+01 -0.38948117830E+01  0.85118968606E+00  0.84903402058E+01  0.10500000000E+00 0.  1.
         13    1    4    4    0    0 -0.10625992724E+02 -0.53467979135E+01  0.11934111916E+01  0.11955552040E+02  0.10500000000E+00 0. -1.
    3000001    1    5    5    0    0  0.40126886231E+02  0.30274912682E+02 -0.25687618684E+01  0.50342187815E+02  0.10000000000E+01 0. -1.
        -13    1    6    6    0    0  0.47248752841E+01  0.44025214620E+01  0.22466303713E+01  0.68384950610E+01  0.10500000000E+00 0.  1.
         13    1    6    6    0    0  0.37114596017E+01  0.33436975098E+01  0.18245186291E+01  0.53193174976E+01  0.10500000000E+00 0. -1.
</event>
<event>
11    0  0.3443539E-009  0.9118800E+02  0.7816531E-02  0.1126479E+00
         25   -1    0    0    0    0  0.00000000000E+00  0.00000000000E+00  0.99999998245E-14  0.12500000000E+03  0.12500000000E+03 0.  0.
    3000001    1    3    3    0    0 -0.29398514800E+01  0.22716288064E+02 -0.12962456555E+02  0.26338142495E+02  0.10000000000E+01 0.  1.
    1000022    2    1    0    0    0  0.45658450850E+01  0.53740337149E+02 -0.29956289564E+02  0.62500000359E+02  0.99999991108E+01 0.  0.
    3000022    2    3    3    0    0  0.75056965650E+01  0.31024049085E+02 -0.16993833009E+02  0.36161857864E+02  0.25000262486E+00 0.  0.
    1000022    2    1    0    0    0 -0.45658450850E+01 -0.53740337149E+02  0.29956289564E+02  0.62499999641E+02  0.99999946240E+01 0.  0.
    3000022    2    5    5    0    0  0.17482547558E+01 -0.35100548347E+02  0.18898875465E+02  0.39904071027E+02  0.25000346709E+00 0.  0.
        -13    1    4    4    0    0  0.49103571221E+01  0.20481395859E+02 -0.11250974697E+02  0.23878748711E+02  0.10500000000E+00 0. -1.
         13    1    4    4    0    0  0.25953394429E+01  0.10542653226E+02 -0.57428583127E+01  0.12283109153E+02  0.10500000000E+00 0.  1.
    3000001    1    5    5    0    0 -0.63140998408E+01 -0.18639788802E+02  0.11057414099E+02  0.22595928614E+02  0.10000000000E+01 0.  1.
        -13    1    6    6    0    0  0.11269543519E+01 -0.23667752664E+02  0.12746759767E+02  0.26905825612E+02  0.10500000000E+00 0.  1.
         13    1    6    6    0    0  0.62130040385E+00 -0.11432795682E+02  0.61521156981E+01  0.12998245415E+02  0.10500000000E+00 0. -1.
</event>
<event>
11    0  0.3443539E-009  0.9118800E+02  0.7816531E-02  0.1126479E+00
         25   -1    0    0    0    0  0.00000000000E+00  0.00000000000E+00  0.99999998245E-14  0.12500000000E+03  0.12500000000E+03 0.  0.
    3000001    1    3    3    0    0  0.69323070014E+01  0.12800276022E+02 -0.68983423455E+01  0.16139735863E+02  0.10000000000E+01 0. -1.
    1000022    2    1    0    0    0  0.11726761241E+02  0.50437975382E+02 -0.33537195559E+02  0.62500001262E+02  0.10000019101E+02 0.  0.
    3000022    2    3    3    0    0  0.47944542400E+01  0.37637699360E+02 -0.26638853213E+02  0.46360265399E+02  0.25000569722E+00 0.  0.
    1000022    2    1    0    0    0 -0.11726761241E+02 -0.50437975382E+02  0.33537195559E+02  0.62499998738E+02  0.10000003321E+02 0.  0.
    3000022    2    5    5    0    0 -0.77856762784E+01 -0.33169920050E+02  0.16322298641E+02  0.37780157283E+02  0.25000042399E+00 0.  0.
        -13    1    4    4    0    0  0.29728647661E+01  0.23283330621E+02 -0.16405674736E+02  0.28637538272E+02  0.10500000000E+00 0. -1.
         13    1    4    4    0    0  0.18215894739E+01  0.14354368739E+02 -0.10233178477E+02  0.17722727127E+02  0.10500000000E+00 0.  1.
    3000001    1    5    5    0    0 -0.39410849630E+01 -0.17268055332E+02  0.17214896917E+02  0.24719841454E+02  0.10000000000E+01 0. -1.
        -13    1    6    6    0    0 -0.53449454749E+01 -0.22594626122E+02  0.11089349319E+02  0.25730726088E+02  0.10500000000E+00 0. -1.
         13    1    6    6    0    0 -0.24407308035E+01 -0.10575293928E+02  0.52329493224E+01  0.12049431195E+02  0.10500000000E+00 0.  1.
</event>
<event>
11    0  0.3443539E-009  0.9118800E+02  0.7816531E-02  0.1126479E+00
         25   -1    0    0    0    0  0.00000000000E+00  0.00000000000E+00  0.99999998245E-14  0.12500000000E+03  0.12500000000E+03 0.  0.
    3000001    1    3    3    0    0  0.22287276665E+02 -0.31005103556E+02  0.11021058515E+02  0.39755538966E+02  0.10000000000E+01 0.  1.
    1000022    2    1    0    0    0  0.40166197748E+02 -0.43297976764E+02  0.17838493550E+02  0.62499999306E+02  0.99999913813E+01 0.  0.
    3000022    2    3    3    0    0  0.17878921083E+02 -0.12292873209E+02  0.68174350350E+01  0.22744460340E+02  0.25000976469E+00 0.  0.
    1000022    2    1    0    0    0 -0.40166197748E+02  0.43297976764E+02 -0.17838493550E+02  0.62500000694E+02  0.10000000061E+02 0.  0.
    3000022    2    5    5    0    0 -0.44419807442E+01  0.54365082537E+01  0.10747981375E+01  0.71066519890E+01  0.24999306651E+00 0.  0.
        -13    1    4    4    0    0  0.67820152475E+01 -0.46502741569E+01  0.26465674021E+01  0.86392201364E+01  0.10500000000E+00 0.  1.
         13    1    4    4    0    0  0.11096905836E+02 -0.76425990517E+01  0.41708676329E+01  0.14105240204E+02  0.10500000000E+00 0. -1.
    3000001    1    5    5    0    0 -0.35724217004E+02  0.37861468511E+02 -0.18913291687E+02  0.55393348705E+02  0.10000000000E+01 0.  1.
        -13    1    6    6    0    0 -0.19154521171E+01  0.23470699895E+01  0.39752706814E+00  0.30572450210E+01  0.10500000000E+00 0. -1.
         13    1    6    6    0    0 -0.25265286271E+01  0.30894382641E+01  0.67727106933E+00  0.40494069680E+01  0.10500000000E+00 0.  1.
</event>
<event>
11    0  0.3443539E-009  0.9118800E+02  0.7816531E-02  0.1126479E+00
         25   -1    0    0    0    0  0.00000000000E+00  0.00000000000E+00  0.99999998245E-14  0.12500000000E+03  0.12500000000E+03 0.  0.
    3000001    1    3    3    0    0 -0.13265648606E+02 -0.16082188074E+02  0.14149568539E+02  0.25215560593E+02  0.10000000000E+01 0. -1.
    1000022    2    1    0    0    0 -0.24865551732E+02 -0.36286346869E+02  0.43258011616E+02  0.62500004306E+02  0.10000016862E+02 0.  0.
    3000022    2    3    3    0    0 -0.11599903126E+02 -0.20204158795E+02  0.29108443077E+02  0.37284443713E+02  0.24999891843E+00 0.  0.
    1000022    2    1    0    0    0  0.24865551732E+02  0.36286346869E+02 -0.43258011616E+02  0.62499995694E+02  0.99999630352E+01 0.  0.
    3000022    2    5    5    0    0  0.14973183721E+02  0.24730784955E+02 -0.21947186450E+02  0.36298063985E+02  0.25000149962E+00 0.  0.
        -13    1    4    4    0    0 -0.81667104624E+01 -0.14143676988E+02  0.20439469551E+02  0.26163365591E+02  0.10500000000E+00 0.  1.
         13    1    4    4    0    0 -0.34331926638E+01 -0.60604818075E+01  0.86689735254E+01  0.11121078122E+02  0.10500000000E+00 0. -1.
    3000001    1    5    5    0    0  0.98923680111E+01  0.11555561914E+02 -0.21310825166E+02  0.26201931709E+02  0.10000000000E+01 0. -1.
        -13    1    6    6    0    0  0.65405726402E+01  0.10907954872E+02 -0.97024795367E+01  0.15997240516E+02  0.10500000000E+00 0. -1.
         13    1    6    6    0    0  0.84326110812E+01  0.13822830083E+02 -0.12244706913E+02  0.20300823470E+02  0.10500000000E+00 0.  1.
</event>
<event>
11    0  0.3443539E-009  0.9118800E+02  0.7816531E-02  0.1126479E+00
         25   -1    0    0    0    0  0.00000000000E+00  0.00000000000E+00  0.99999998245E-14  0.12500000000E+03  0.12500000000E+03 0.  0.
    3000001    1    3    3    0    0  0.14005577715E+02 -0.42479210577E+01  0.27034877355E+01  0.14916765279E+02  0.10000000000E+01 0.  1.
    1000022    2    1    0    0    0  0.52954737474E+02 -0.31576320488E+02  0.22318406296E+01  0.62499991430E+02  0.99999789807E+01 0.  0.
    3000022    2    3    3    0    0  0.38949159759E+02 -0.27328399431E+02 -0.47164710594E+00  0.47583226152E+02  0.24999717974E+00 0.  0.
    1000022    2    1    0    0    0 -0.52954737474E+02  0.31576320488E+02 -0.22318406296E+01  0.62500008570E+02  0.10000086103E+02 0.  0.
    3000022    2    5    5    0    0 -0.58248026962E+01  0.59151723249E+01  0.23525696528E+01  0.86321879819E+01  0.24999059967E+00 0.  0.
        -13    1    4    4    0    0  0.26994376213E+02 -0.18882948668E+02 -0.33516530223E+00  0.32945188698E+02  0.10500000000E+00 0.  1.
         13    1    4    4    0    0  0.11954783546E+02 -0.84454507623E+01 -0.13648180371E+00  0.14638037454E+02  0.10500000000E+00 0. -1.
    3000001    1    5    5    0    0 -0.47129934778E+02  0.25661148163E+02 -0.45844102824E+01  0.53867820588E+02  0.10000000000E+01 0. -1.
        -13    1    6    6    0    0 -0.23672770114E+01  0.24347384371E+01  0.10250256879E+01  0.35487539175E+01  0.10500000000E+00 0. -1.
         13    1    6    6    0    0 -0.34575256848E+01  0.34804338878E+01  0.13275439649E+01  0.50834340644E+01  0.10500000000E+00 0.  1.
</event>
<event>
11    0  0.3443539E-009  0.9118800E+02  0.7816531E-02  0.1126479E+00
         25   -1    0    0    0    0  0.00000000000E+00  0.00000000000E+00  0.99999998245E-14  0.12500000000E+03  0.12500000000E+03 0.  0.
    3000001    1    3    3    0    0 -0.16502132874E+02 -0.56409975056E+01  0.15663145594E+02  0.23462211578E+02  0.10000000000E+01 0. -1.
    1000022    2    1    0    0    0 -0.42122453497E+02 -0.28704681349E+01  0.44985657805E+02  0.62499999562E+02  0.99999930590E+01 0.  0.
    3000022    2    3    3    0    0 -0.25620320623E+02  0.27705293707E+01  0.29322512211E+02  0.39037787984E+02  0.25001295032E+00 0.  0.
    1000022    2    1    0    0    0  0.42122453497E+02  0.28704681349E+01 -0.44985657805E+02  0.62500000438E+02  0.99999985375E+01 0.  0.
    3000022    2    5    5    0    0  0.25757241028E+02 -0.16660834213E+01 -0.22076988532E+02  0.33965677124E+02  0.25000096919E+00 0.  0.
        -13    1    4    4    0    0 -0.88077921988E+01  0.90210271620E+00  0.10038770125E+02  0.13385773169E+02  0.10500000000E+00 0.  1.
         13    1    4    4    0    0 -0.16812528424E+02  0.18684266545E+01  0.19283742086E+02  0.25652014814E+02  0.10500000000E+00 0. -1.
    3000001    1    5    5    0    0  0.16365212468E+02  0.45365515562E+01 -0.22908669272E+02  0.28534323314E+02  0.10000000000E+01 0.  1.
        -13    1    6    6    0    0  0.69989942544E+01 -0.44675598021E+00 -0.59515191126E+01  0.91987562326E+01  0.10500000000E+00 0. -1.
         13    1    6    6    0    0  0.18758246774E+02 -0.12193274411E+01 -0.16125469420E+02  0.24766920892E+02  0.10500000000E+00 0.  1.
</event>
<event>
11    0  0.3443539E-009  0.9118800E+02  0.7816531E-02  0.1126479E+00
         25   -1    0    0    0    0  0.00000000000E+00  0.00000000000E+00  0.99999998245E-14  0.12500000000E+03  0.12500000000E+03 0.  0.
    3000001    1    3    3    0    0  0.12577913823E+01 -0.59869412223E+01  0.18407859448E+02  0.19423562851E+02  0.10000000000E+01 0. -1.
    1000022    2    1    0    0    0  0.15800407815E+02 -0.26000697278E+02  0.53670855050E+02  0.62500000351E+02  0.10000010794E+02 0.  0.
    3000022    2    3    3    0    0  0.14542616433E+02 -0.20013756056E+02  0.35262995602E+02  0.43076437500E+02  0.24996924959E+00 0.  0.
    1000022    2    1    0    0    0 -0.15800407815E+02  0.26000697278E+02 -0.53670855050E+02  0.62499999649E+02  0.10000006411E+02 0.  0.
    3000022    2    5    5    0    0 -0.25775455662E+01  0.13647492920E+02 -0.22432370177E+02  0.26385062557E+02  0.24998049006E+00 0.  0.
        -13    1    4    4    0    0  0.64361868722E+01 -0.87699896469E+01  0.15577894490E+02  0.19000501088E+02  0.10500000000E+00 0.  1.
         13    1    4    4    0    0  0.81064295607E+01 -0.11243766409E+02  0.19685101112E+02  0.24075936411E+02  0.10500000000E+00 0. -1.
    3000001    1    5    5    0    0 -0.13222862249E+02  0.12353204359E+02 -0.31238484873E+02  0.36114937092E+02  0.10000000000E+01 0. -1.
        -13    1    6    6    0    0 -0.14649755409E+01  0.80964891379E+01 -0.13306063909E+02  0.15644860225E+02  0.10500000000E+00 0.  1.
         13    1    6    6    0    0 -0.11125700253E+01  0.55510037818E+01 -0.91263062678E+01  0.10740202332E+02  0.10500000000E+00 0. -1.
</event>
<event>
11    0  0.3443539E-009  0.9118800E+02  0.7816531E-02  0.1126479E+00
         25   -1    0    0    0    0  0.00000000000E+00  0.00000000000E+00  0.99999998245E-14  0.12500000000E+03  0.12500000000E+03 0.  0.
    3000001    1    3    3    0    0  0.45102578885E+02  0.60009769155E+01 -0.20068111510E+00  0.45511477881E+02  0.10000000000E+01 0. -1.
    1000022    2    1    0    0    0  0.61046836330E+02  0.69569602353E+01  0.55798167021E+01  0.62500000675E+02  0.10000010417E+02 0.  0.
    3000022    2    3    3    0    0  0.15944257445E+02  0.95598331983E+00  0.57804978172E+01  0.16988522794E+02  0.25000425432E+00 0.  0.
    1000022    2    1    0    0    0 -0.61046836330E+02 -0.69569602353E+01 -0.55798167021E+01  0.62499999325E+02  0.10000001979E+02 0.  0.
    3000022    2    5    5    0    0 -0.17011046402E+02 -0.63982010722E+01 -0.24118576858E+01  0.18335545624E+02  0.24999835796E+00 0.  0.
        -13    1    4    4    0    0  0.60443039798E+01  0.30212146737E+00  0.21986140340E+01  0.64397062551E+01  0.10500000000E+00 0.  1.
         13    1    4    4    0    0  0.98999534653E+01  0.65386185245E+00  0.35818837831E+01  0.10548816539E+02  0.10500000000E+00 0. -1.
    3000001    1    5    5    0    0 -0.44035789928E+02 -0.55875916310E+00 -0.31679590163E+01  0.44164453701E+02  0.10000000000E+01 0. -1.
        -13    1    6    6    0    0 -0.43533781564E+01 -0.16596559238E+01 -0.63992080654E+00  0.47039220653E+01  0.10500000000E+00 0.  1.
         13    1    6    6    0    0 -0.12657668246E+02 -0.47385451485E+01 -0.17719368792E+01  0.13631623559E+02  0.10500000000E+00 0. -1.
</event>
<event>
11    0  0.3443539E-009  0.9118800E+02  0.7816531E-02  0.1126479E+00
         25   -1    0    0    0    0  0.00000000000E+00  0.00000000000E+00  0.99999998245E-14  0.12500000000E+03  0.12500000000E+03 0.  0.
    3000001    1    3    3    0    0 -0.10697964919E+02 -0.12002149259E+01 -0.49860473433E+01  0.11905781679E+02  0.10000000000E+01 0. -1.
    1000022    2    1    0    0    0 -0.47294202912E+02  0.61830178226E+01 -0.39131556632E+02  0.62500001412E+02  0.10000005683E+02 0.  0.
    3000022    2    3    3    0    0 -0.36596237993E+02  0.73832327485E+01 -0.34145509288E+02  0.50594219733E+02  0.25000963355E+00 0.  0.
    1000022    2    1    0    0    0  0.47294202912E+02 -0.61830178226E+01  0.39131556632E+02  0.62499998588E+02  0.99999880286E+01 0.  0.
    3000022    2    5    5    0    0  0.10944547053E+02  0.64304249557E+00  0.46049894312E+01  0.11893907816E+02  0.25000325696E+00 0.  0.
        -13    1    4    4    0    0 -0.15848620823E+02  0.31338829828E+01 -0.14747551142E+02  0.21874672437E+02  0.10500000000E+00 0. -1.
         13    1    4    4    0    0 -0.20747617170E+02  0.42493497657E+01 -0.19397958146E+02  0.28719547296E+02  0.10500000000E+00 0.  1.
    3000001    1    5    5    0    0  0.36349655858E+02 -0.68260603182E+01  0.34526567200E+02  0.50606090771E+02  0.10000000000E+01 0. -1.
        -13    1    6    6    0    0  0.63969343329E+01  0.32129557390E+00  0.27274475875E+01  0.69623268415E+01  0.10500000000E+00 0. -1.
         13    1    6    6    0    0  0.45476127205E+01  0.32174692167E+00  0.18775418437E+01  0.49315809749E+01  0.10500000000E+00 0.  1.
</event>
<event>
11    0  0.3443539E-009  0.9118800E+02  0.7816531E-02  0.1126479E+00
         25   -1    0    0    0    0  0.00000000000E+00  0.00000000000E+00  0.99999998245E-14  0.12500000000E+03  0.12500000000E+03 0.  0.
    3000001    1    3    3    0    0 -0.58026137698E+00  0.30183322347E+01  0.52100439648E+01  0.61311981585E+01  0.10000000000E+01 0. -1.
    1000022    2    1    0    0    0  0.21681607652E+02  0.22802978749E+02  0.53067711251E+02  0.62500000427E+02  0.10000006288E+02 0.  0.
    3000022    2    3    3    0    0  0.22261869029E+02  0.19784646514E+02  0.47857667287E+02  0.56368802269E+02  0.25000148602E+00 0.  0.
    1000022    2    1    0    0    0 -0.21681607652E+02 -0.22802978749E+02 -0.53067711251E+02  0.62499999573E+02  0.10000000945E+02 0.  0.
    3000022    2    5    5    0    0 -0.15839311372E+02 -0.10316728766E+02 -0.34666186367E+02  0.39485765226E+02  0.25000226247E+00 0.  0.
        -13    1    4    4    0    0  0.12043109121E+02  0.10682048342E+02  0.25990712694E+02  0.30572386322E+02  0.10500000000E+00 0.  1.
         13    1    4    4    0    0  0.10218759908E+02  0.91025981721E+01  0.21866954593E+02  0.25796415947E+02  0.10500000000E+00 0. -1.
    3000001    1    5    5    0    0 -0.58422962808E+01 -0.12486249983E+02 -0.18401524885E+02  0.23014234346E+02  0.10000000000E+01 0.  1.
        -13    1    6    6    0    0 -0.12147730808E+02 -0.78973067697E+01 -0.26574740449E+02  0.30268179214E+02  0.10500000000E+00 0.  1.
         13    1    6    6    0    0 -0.36915805634E+01 -0.24194219961E+01 -0.80914459177E+01  0.92175860121E+01  0.10500000000E+00 0. -1.
</event>
<event>
11    0  0.3443539E-009  0.9118800E+02  0.7816531E-02  0.1126479E+00
         25   -1    0    0    0    0  0.00000000000E+00  0.00000000000E+00  0.99999998245E-14  0.12500000000E+03  0.12500000000E+03 0.  0.
    3000001    1    3    3    0    0  0.44222021410E+01 -0.59250964810E+02  0.14756501697E+02  0.61228972269E+02  0.10000000000E+01 0.  1.
    1000022    2    1    0    0    0  0.55949465023E+01 -0.59663515932E+02  0.14670072432E+02  0.62499996215E+02  0.99999971019E+01 0.  0.
    3000022    2    3    3    0    0  0.11727443614E+01 -0.41255112134E+00 -0.86429265208E-01  0.12710239465E+01  0.25000817970E+00 0.  0.
    1000022    2    1    0    0    0 -0.55949465023E+01  0.59663515932E+02 -0.14670072432E+02  0.62500003785E+02  0.10000044413E+02 0.  0.
    3000022    2    5    5    0    0  0.11438651484E+00  0.40553023896E+01 -0.37578613391E+01  0.55355741135E+01  0.24999435339E+00 0.  0.
        -13    1    4    4    0    0  0.76836760916E+00 -0.20888715054E+00 -0.64131610156E-01  0.80570496330E+00  0.10500000000E+00 0.  1.
         13    1    4    4    0    0  0.40437675220E+00 -0.20366397079E+00 -0.22297655053E-01  0.46531898321E+00  0.10500000000E+00 0. -1.
    3000001    1    5    5    0    0 -0.57093330172E+01  0.55608213542E+02 -0.10912211093E+02  0.56964429671E+02  0.10000000000E+01 0.  1.
        -13    1    6    6    0    0  0.11034260998E+00  0.25149582941E+01 -0.22667417687E+01  0.33891494447E+01  0.10500000000E+00 0.  1.
         13    1    6    6    0    0  0.40439048556E-02  0.15403440955E+01 -0.14911195705E+01  0.21464246688E+01  0.10500000000E+00 0. -1.
</event>
<event>
11    0  0.3443539E-009  0.9118800E+02  0.7816531E-02  0.1126479E+00
         25   -1    0    0    0    0  0.00000000000E+00  0.00000000000E+00  0.99999998245E-14  0.12500000000E+03  0.12500000000E+03 0.  0.
    3000001    1    3    3    0    0  0.27574895040E+02 -0.19739689228E+02 -0.20524855929E+02  0.39652236736E+02  0.10000000000E+01 0. -1.
    1000022    2    1    0    0    0  0.37651909325E+02 -0.35804168124E+02 -0.33266283396E+02  0.62499997610E+02  0.99999679697E+01 0.  0.
    3000022    2    3    3    0    0  0.10077014285E+02 -0.16064478897E+02 -0.12741427467E+02  0.22847760874E+02  0.25000787733E+00 0.  0.
    1000022    2    1    0    0    0 -0.37651909325E+02  0.35804168124E+02  0.33266283396E+02  0.62500002390E+02  0.99999978428E+01 0.  0.
    3000022    2    5    5    0    0 -0.24054785645E+02  0.18275379090E+02  0.23336413321E+02  0.38174243674E+02  0.25000021987E+00 0.  0.
        -13    1    4    4    0    0  0.51334655852E+01 -0.82732452406E+01 -0.65998084177E+01  0.11762973768E+02  0.10500000000E+00 0.  1.
         13    1    4    4    0    0  0.49435486999E+01 -0.77912336562E+01 -0.61416190496E+01  0.11084787106E+02  0.10500000000E+00 0. -1.
    3000001    1    5    5    0    0 -0.13597123680E+02  0.17528789035E+02  0.99298700753E+01  0.24325758716E+02  0.10000000000E+01 0. -1.
        -13    1    6    6    0    0 -0.80587984145E+01  0.60861568771E+01  0.78584734020E+01  0.12796568549E+02  0.10500000000E+00 0.  1.
         13    1    6    6    0    0 -0.15995987230E+02  0.12189222213E+02  0.15477939919E+02  0.25377675125E+02  0.10500000000E+00 0. -1.
</event>
<event>
11    0  0.3443539E-009  0.9118800E+02  0.7816531E-02  0.1126479E+00
         25   -1    0    0    0    0  0.00000000000E+00  0.00000000000E+00  0.99999998245E-14  0.12500000000E+03  0.12500000000E+03 0.  0.
    3000001    1    3    3    0    0  0.21672510250E+02 -0.50887450052E+01  0.24017554432E+02  0.32763332357E+02  0.10000000000E+01 0. -1.
    1000022    2    1    0    0    0  0.33400934573E+02 -0.10054580415E+02  0.50887453032E+02  0.62500000114E+02  0.10000006026E+02 0.  0.
    3000022    2    3    3    0    0  0.11728424323E+02 -0.49658354095E+01  0.26869898600E+02  0.29736667757E+02  0.25000017267E+00 0.  0.
    1000022    2    1    0    0    0 -0.33400934573E+02  0.10054580415E+02 -0.50887453032E+02  0.62499999886E+02  0.10000004601E+02 0.  0.
    3000022    2    5    5    0    0 -0.17485321166E+02  0.18620951259E+00 -0.26113469184E+02  0.31428441024E+02  0.25000430638E+00 0.  0.
        -13    1    4    4    0    0  0.62317839381E+01 -0.26842902514E+01  0.14436954144E+02  0.15952341996E+02  0.10500000000E+00 0. -1.
         13    1    4    4    0    0  0.54966403849E+01 -0.22815451581E+01  0.12432944456E+02  0.13784325761E+02  0.10500000000E+00 0.  1.
    3000001    1    5    5    0    0 -0.15915613407E+02  0.98683709020E+01 -0.24773983848E+02  0.31071558862E+02  0.10000000000E+01 0.  1.
        -13    1    6    6    0    0 -0.53190326523E+01  0.71799232771E-01 -0.80248753478E+01  0.96284429081E+01  0.10500000000E+00 0.  1.
         13    1    6    6    0    0 -0.12166288514E+02  0.11441027982E+00 -0.18088593836E+02  0.21799998116E+02  0.10500000000E+00 0. -1.
</event>
<event>
11    0  0.3443539E-009  0.9118800E+02  0.7816531E-02  0.1126479E+00
         25   -1    0    0    0    0  0.00000000000E+00  0.00000000000E+00  0.99999998245E-14  0.12500000000E+03  0.12500000000E+03 0.  0.
    3000001    1    3    3    0    0 -0.37150502429E+02  0.62434619210E+01 -0.11048631149E+02  0.39271018547E+02  0.10000000000E+01 0. -1.
    1000022    2    1    0    0    0 -0.57434037358E+02  0.40771911252E+01 -0.22157572314E+02  0.62500000276E+02  0.99999944484E+01 0.  0.
    3000022    2    3    3    0    0 -0.20283534929E+02 -0.21662707958E+01 -0.11108941165E+02  0.23228981729E+02  0.24999995473E+00 0.  0.
    1000022    2    1    0    0    0  0.57434037358E+02 -0.40771911252E+01  0.22157572314E+02  0.62499999724E+02  0.99999909963E+01 0.  0.
    3000022    2    5    5    0    0  0.86268161036E+01 -0.18799331304E+01 -0.27768532297E-01  0.88328576560E+01  0.24999723915E+00 0.  0.
        -13    1    4    4    0    0 -0.73884442760E+01 -0.73278167124E+00 -0.40234588998E+01  0.84454321568E+01  0.10500000000E+00 0. -1.
         13    1    4    4    0    0 -0.12895090653E+02 -0.14334891246E+01 -0.70854822647E+01  0.14783549572E+02  0.10500000000E+00 0.  1.
    3000001    1    5    5    0    0  0.48807221254E+02 -0.21972579948E+01  0.22185340846E+02  0.53667142068E+02  0.10000000000E+01 0. -1.
        -13    1    6    6    0    0  0.32145203058E+01 -0.75804451960E+00  0.10755625235E-01  0.33043778497E+01  0.10500000000E+00 0.  1.
         13    1    6    6    0    0  0.54122957979E+01 -0.11218886108E+01 -0.38524157532E-01  0.55284798063E+01  0.10500000000E+00 0. -1.
</event>
<event>
11    0  0.3443539E-009  0.9118800E+02  0.7816531E-02  0.1126479E+00
         25   -1    0    0    0    0  0.00000000000E+00  0.00000000000E+00  0.99999998245E-14  0.12500000000E+03  0.12500000000E+03 0.  0.
    3000001    1    3    3    0    0  0.17574472122E+02 -0.36177520414E+02  0.25080030893E+02  0.47409735322E+02  0.10000000000E+01 0.  1.
    1000022    2    1    0    0    0  0.24564166385E+02 -0.49254224668E+02  0.27872443678E+02  0.62500000022E+02  0.99999984173E+01 0.  0.
    3000022    2    3    3    0    0  0.69896942634E+01 -0.13076704254E+02  0.27924127845E+01  0.15090264700E+02  0.24999905606E+00 0.  0.
    1000022    2    1    0    0    0 -0.24564166385E+02  0.49254224668E+02 -0.27872443678E+02  0.62499999978E+02  0.99999981446E+01 0.  0.
    3000022    2    5    5    0    0 -0.10058493485E+02  0.21807774968E+02 -0.67815265579E+01  0.24956039980E+02  0.24997754957E+00 0.  0.
        -13    1    4    4    0    0  0.22336022888E+01 -0.42705880799E+01  0.87872296709E+00  0.49000082434E+01  0.10500000000E+00 0. -1.
         13    1    4    4    0    0  0.47560919746E+01 -0.88061161737E+01  0.19136898174E+01  0.10190256457E+02  0.10500000000E+00 0.  1.
    3000001    1    5    5    0    0 -0.14505672900E+02  0.27446449700E+02 -0.21090917120E+02  0.37543959998E+02  0.10000000000E+01 0. -1.
        -13    1    6    6    0    0 -0.50316944824E+01  0.11069375288E+02 -0.34435476248E+01  0.12637961223E+02  0.10500000000E+00 0. -1.
         13    1    6    6    0    0 -0.50267990027E+01  0.10738399680E+02 -0.33379789331E+01  0.12318078757E+02  0.10500000000E+00 0.  1.
</event>
<event>
11    0  0.3443539E-009  0.9118800E+02  0.7816531E-02  0.1126479E+00
         25   -1    0    0    0    0  0.00000000000E+00  0.00000000000E+00  0.99999998245E-14  0.12500000000E+03  0.12500000000E+03 0.  0.
    3000001    1    3    3    0    0  0.29359803681E+01 -0.13593636847E+02 -0.53583359694E+01  0.14937158626E+02  0.10000000000E+01 0. -1.
    1000022    2    1    0    0    0  0.54020207398E+01 -0.61065816887E+02 -0.69306682130E+01  0.62500000865E+02  0.10000006308E+02 0.  0.
    3000022    2    3    3    0    0  0.24660403717E+01 -0.47472180040E+02 -0.15723322436E+01  0.47562842240E+02  0.25000073572E+00 0.  0.
    1000022    2    1    0    0    0 -0.54020207398E+01  0.61065816887E+02  0.69306682130E+01  0.62499999135E+02  0.99999954921E+01 0.  0.
    3000022    2    5    5    0    0  0.23957957053E+01  0.77080317001E+01  0.21365940584E+01  0.83535096055E+01  0.24999761633E+00 0.  0.
        -13    1    4    4    0    0  0.11856210624E+01 -0.23085502939E+02 -0.83099249848E+00  0.23131098477E+02  0.10500000000E+00 0.  1.
         13    1    4    4    0    0  0.12804193093E+01 -0.24386677101E+02 -0.74133974514E+00  0.24431743762E+02  0.10500000000E+00 0. -1.
    3000001    1    5    5    0    0 -0.77978164451E+01  0.53357785187E+02  0.47940741546E+01  0.54146489529E+02  0.10000000000E+01 0.  1.
        -13    1    6    6    0    0  0.15653806065E+01  0.48956534855E+01  0.14026942600E+01  0.53288287344E+01  0.10500000000E+00 0. -1.
         13    1    6    6    0    0  0.83041509876E+00  0.28123782146E+01  0.73389979835E+00  0.30246808711E+01  0.10500000000E+00 0.  1.
</event>
<event>
11    0  0.3443539E-009  0.9118800E+02  0.7816531E-02  0.1126479E+00
         25   -1    0    0    0    0  0.00000000000E+00  0.00000000000E+00  0.99999998245E-14  0.12500000000E+03  0.12500000000E+03 0.  0.
    3000001    1    3    3    0    0 -0.14116169630E+02 -0.82050607801E+00 -0.12870179837E+02  0.19146305239E+02  0.10000000000E+01 0. -1.
    1000022    2    1    0    0    0 -0.53934760331E+02  0.71889875139E+00 -0.29946200220E+02  0.62500000782E+02  0.10000000135E+02 0.  0.
    3000022    2    3    3    0    0 -0.39818590701E+02  0.15394048294E+01 -0.17076020383E+02  0.43353695543E+02  0.25002495784E+00 0.  0.
    1000022    2    1    0    0    0  0.53934760331E+02 -0.71889875139E+00  0.29946200220E+02  0.62499999218E+02  0.99999903662E+01 0.  0.
    3000022    2    5    5    0    0  0.51273970701E+02  0.11255264757E+01  0.29247069378E+02  0.59040159654E+02  0.25000709614E+00 0.  0.
        -13    1    4    4    0    0 -0.17279381098E+02  0.69184430564E+00 -0.74773717847E+01  0.18840853841E+02  0.10500000000E+00 0.  1.
         13    1    4    4    0    0 -0.22539209603E+02  0.84756052375E+00 -0.95986485979E+01  0.24512841702E+02  0.10500000000E+00 0. -1.
    3000001    1    5    5    0    0  0.26607896304E+01 -0.18444252271E+01  0.69913084168E+00  0.34598395641E+01  0.10000000000E+01 0. -1.
        -13    1    6    6    0    0  0.12929650717E+02  0.31137859060E+00  0.73735949815E+01  0.14888040578E+02  0.10500000000E+00 0. -1.
         13    1    6    6    0    0  0.38344319983E+02  0.81414788510E+00  0.21873474397E+02  0.44152119076E+02  0.10500000000E+00 0.  1.
</event>
<event>
11    0  0.3443539E-009  0.9118800E+02  0.7816531E-02  0.1126479E+00
         25   -1    0    0    0    0  0.00000000000E+00  0.00000000000E+00  0.99999998245E-14  0.12500000000E+03  0.12500000000E+03 0.  0.
    3000001    1    3    3    0    0 -0.78718197388E+01 -0.15386113135E+02 -0.14136655448E+01  0.17369412013E+02  0.10000000000E+01 0.  1.
    1000022    2    1    0    0    0 -0.31455197652E+02 -0.49400600019E+02 -0.19401064992E+02  0.62500000969E+02  0.10000002839E+02 0.  0.
    3000022    2    3    3    0    0 -0.23583377913E+02 -0.34014486884E+02 -0.17987399447E+02  0.45130588956E+02  0.24997779495E+00 0.  0.
    1000022    2    1    0    0    0  0.31455197652E+02  0.49400600019E+02  0.19401064992E+02  0.62499999031E+02  0.99999907250E+01 0.  0.
    3000022    2    5    5    0    0  0.19848338711E+02  0.25611605084E+02  0.14766082057E+02  0.35609135874E+02  0.25002769706E+00 0.  0.
        -13    1    4    4    0    0 -0.14403208909E+02 -0.20723479263E+02 -0.10907554042E+02  0.27493649809E+02  0.10500000000E+00 0. -1.
         13    1    4    4    0    0 -0.91801690044E+01 -0.13291007621E+02 -0.70798454052E+01  0.17636939147E+02  0.10500000000E+00 0.  1.
    3000001    1    5    5    0    0  0.11606858941E+02  0.23788994935E+02  0.46349829343E+01  0.26890863157E+02  0.10000000000E+01 0. -1.
        -13    1    6    6    0    0  0.10104008322E+02  0.12985467518E+02  0.75636101275E+01  0.18108908692E+02  0.10500000000E+00 0.  1.
         13    1    6    6    0    0  0.97443303885E+01  0.12626137566E+02  0.72024719298E+01  0.17500227183E+02  0.10500000000E+00 0. -1.
</event>
<event>
11    0  0.3443539E-009  0.9118800E+02  0.7816531E-02  0.1126479E+00
         25   -1    0    0    0    0  0.00000000000E+00  0.00000000000E+00  0.99999998245E-14  0.12500000000E+03  0.12500000000E+03 0.  0.
    3000001    1    3    3    0    0 -0.36530489734E+01 -0.77657223639E+01  0.10508180840E+02  0.13604156541E+02  0.10000000000E+01 0.  1.
    1000022    2    1    0    0    0 -0.33077703712E+02 -0.33671678511E+02  0.39728249782E+02  0.62500002584E+02  0.10000003783E+02 0.  0.
    3000022    2    3    3    0    0 -0.29424654739E+02 -0.25905956147E+02  0.29220068942E+02  0.48895846043E+02  0.24992174499E+00 0.  0.
    1000022    2    1    0    0    0  0.33077703712E+02  0.33671678511E+02 -0.39728249782E+02  0.62499997416E+02  0.99999714839E+01 0.  0.
    3000022    2    5    5    0    0  0.30810441098E+02  0.26434445191E+02 -0.33238957807E+02  0.52468599896E+02  0.24997134023E+00 0.  0.
        -13    1    4    4    0    0 -0.13789027681E+02 -0.12163697335E+02  0.13785803127E+02  0.22981562395E+02  0.10500000000E+00 0. -1.
         13    1    4    4    0    0 -0.15635627058E+02 -0.13742258812E+02  0.15434265815E+02  0.25914283648E+02  0.10500000000E+00 0.  1.
    3000001    1    5    5    0    0  0.22672626144E+01  0.72372333198E+01 -0.64892919742E+01  0.10031397520E+02  0.10000000000E+01 0. -1.
        -13    1    6    6    0    0  0.16166970619E+02  0.13861031128E+02 -0.17349305416E+02  0.27468318957E+02  0.10500000000E+00 0. -1.
         13    1    6    6    0    0  0.14643470479E+02  0.12573414063E+02 -0.15889652392E+02  0.25000280938E+02  0.10500000000E+00 0.  1.
</event>
<event>
11    0  0.3443539E-009  0.9118800E+02  0.7816531E-02  0.1126479E+00
         25   -1    0    0    0    0  0.00000000000E+00  0.00000000000E+00  0.99999998245E-14  0.12500000000E+03  0.12500000000E+03 0.  0.
    3000001    1    3    3    0    0  0.11329026525E+02  0.39890042173E+01 -0.47229487575E+01  0.12944699364E+02  0.10000000000E+01 0. -1.
    1000022    2    1    0    0    0  0.42769000537E+02  0.25952300052E+02 -0.36104580378E+02  0.62499998088E+02  0.99999875896E+01 0.  0.
    3000022    2    3    3    0    0  0.31439974012E+02  0.21963295835E+02 -0.31381631621E+02  0.49555298725E+02  0.24999736853E+00 0.  0.
    1000022    2    1    0    0    0 -0.42769000537E+02 -0.25952300052E+02  0.36104580378E+02  0.62500001912E+02  0.10000011487E+02 0.  0.
    3000022    2    5    5    0    0 -0.30282815097E+02 -0.12925440080E+02  0.24094382634E+02  0.40800952222E+02  0.25007250753E+00 0.  0.
        -13    1    4    4    0    0  0.22051858013E+02  0.15460107891E+02 -0.22036783792E+02  0.34798422992E+02  0.10500000000E+00 0.  1.
         13    1    4    4    0    0  0.93881159992E+01  0.65031879438E+01 -0.93448478287E+01  0.14756875733E+02  0.10500000000E+00 0. -1.
    3000001    1    5    5    0    0 -0.12486185440E+02 -0.13026859972E+02  0.12010197745E+02  0.21699049690E+02  0.10000000000E+01 0. -1.
        -13    1    6    6    0    0 -0.18400430574E+02 -0.78507857335E+01  0.14716381097E+02  0.24835329262E+02  0.10500000000E+00 0.  1.
         13    1    6    6    0    0 -0.11882384523E+02 -0.50746543465E+01  0.93780015368E+01  0.15965622960E+02  0.10500000000E+00 0. -1.
</event>
<event>
11    0  0.3443539E-009  0.9118800E+02  0.7816531E-02  0.1126479E+00
         25   -1    0    0    0    0  0.00000000000E+00  0.00000000000E+00  0.99999998245E-14  0.12500000000E+03  0.12500000000E+03 0.  0.
    3000001    1    3    3    0    0 -0.58242873860E+00 -0.85136329371E+00  0.13417093220E+00  0.14429291502E+01  0.10000000000E+01 0.  1.
    1000022    2    1    0    0    0 -0.34732929835E+02 -0.29446793337E+02 -0.41626433801E+02  0.62500000460E+02  0.10000000692E+02 0.  0.
    3000022    2    3    3    0    0 -0.34150501096E+02 -0.28595430044E+02 -0.41760604733E+02  0.61057071310E+02  0.25000968528E+00 0.  0.
    1000022    2    1    0    0    0  0.34732929835E+02  0.29446793337E+02  0.41626433801E+02  0.62499999540E+02  0.99999949381E+01 0.  0.
    3000022    2    5    5    0    0  0.27063628289E+02  0.23068849391E+02  0.37436210820E+02  0.51634718880E+02  0.25004976718E+00 0.  0.
        -13    1    4    4    0    0 -0.17743796607E+02 -0.14830643729E+02 -0.21769975532E+02  0.31760559994E+02  0.10500000000E+00 0. -1.
         13    1    4    4    0    0 -0.16406704489E+02 -0.13764786314E+02 -0.19990629201E+02  0.29296511316E+02  0.10500000000E+00 0.  1.
    3000001    1    5    5    0    0  0.76693015458E+01  0.63779439464E+01  0.41902229803E+01  0.10865280659E+02  0.10000000000E+01 0. -1.
        -13    1    6    6    0    0  0.18921084666E+02  0.16175761895E+02  0.26245956638E+02  0.36173525992E+02  0.10500000000E+00 0. -1.
         13    1    6    6    0    0  0.81425436223E+01  0.68930874954E+01  0.11190254182E+02  0.15461192888E+02  0.10500000000E+00 0.  1.
</event>
<event>
11    0  0.3443539E-009  0.9118800E+02  0.7816531E-02  0.1126479E+00
         25   -1    0    0    0    0  0.00000000000E+00  0.00000000000E+00  0.99999998245E-14  0.12500000000E+03  0.12500000000E+03 0.  0.
    3000001    1    3    3    0    0 -0.75923663454E+00 -0.18880393467E+01  0.32869686262E+01  0.39931560940E+01  0.10000000000E+01 0. -1.
    1000022    2    1    0    0    0 -0.76909447197E+01 -0.54770377485E+02  0.27336878625E+02  0.62500001243E+02  0.10000017096E+02 0.  0.
    3000022    2    3    3    0    0 -0.69317080851E+01 -0.52882338138E+02  0.24049909999E+02  0.58506845149E+02  0.24998882311E+00 0.  0.
    1000022    2    1    0    0    0  0.76909447197E+01  0.54770377485E+02 -0.27336878625E+02  0.62499998757E+02  0.10000001555E+02 0.  0.
    3000022    2    5    5    0    0  0.81590482676E+01  0.43746004270E+02 -0.17972883135E+02  0.47993436888E+02  0.24999579119E+00 0.  0.
        -13    1    4    4    0    0 -0.39305400069E+01 -0.29721411713E+02  0.13580536819E+02  0.32912816109E+02  0.10500000000E+00 0. -1.
         13    1    4    4    0    0 -0.30011680782E+01 -0.23160926426E+02  0.10469373179E+02  0.25594029040E+02  0.10500000000E+00 0.  1.
    3000001    1    5    5    0    0 -0.46810354793E+00  0.11024373215E+02 -0.93639954904E+01  0.14506561869E+02  0.10000000000E+01 0. -1.
        -13    1    6    6    0    0  0.45965747249E+01  0.24522519893E+02 -0.10143678823E+02  0.26933022968E+02  0.10500000000E+00 0.  1.
         13    1    6    6    0    0  0.35624735427E+01  0.19223484377E+02 -0.78292043115E+01  0.21060413920E+02  0.10500000000E+00 0. -1.
</event>
<event>
11    0  0.3443539E-009  0.9118800E+02  0.7816531E-02  0.1126479E+00
         25   -1    0    0    0    0  0.00000000000E+00  0.00000000000E+00  0.99999998245E-14  0.12500000000E+03  0.12500000000E+03 0.  0.
    3000001    1    3    3    0    0 -0.10913288814E+01  0.48628825949E+02 -0.15818590972E+02  0.51158396498E+02  0.10000000000E+01 0. -1.
    1000022    2    1    0    0    0  0.31233013835E+01  0.58244279184E+02 -0.20102212246E+02  0.62499999763E+02  0.99999981986E+01 0.  0.
    3000022    2    3    3    0    0  0.42146302649E+01  0.96154532352E+01 -0.42836212734E+01  0.11341603265E+02  0.25000842851E+00 0.  0.
    1000022    2    1    0    0    0 -0.31233013835E+01 -0.58244279184E+02  0.20102212246E+02  0.62500000237E+02  0.10000001159E+02 0.  0.
    3000022    2    5    5    0    0  0.81476723935E+00 -0.68947867011E+01 -0.62683393490E+00  0.69754820639E+01  0.24999986870E+00 0.  0.
        -13    1    4    4    0    0  0.26090055840E+01  0.58320983774E+01 -0.25641983818E+01  0.68852320195E+01  0.10500000000E+00 0.  1.
         13    1    4    4    0    0  0.16056246809E+01  0.37833548578E+01 -0.17194228916E+01  0.44563712453E+01  0.10500000000E+00 0. -1.
    3000001    1    5    5    0    0 -0.39380686229E+01 -0.51349492483E+02  0.20729046181E+02  0.55524518173E+02  0.10000000000E+01 0. -1.
        -13    1    6    6    0    0  0.18452235168E+00 -0.18488861768E+01 -0.17747783150E+00  0.18694790647E+01  0.10500000000E+00 0. -1.
         13    1    6    6    0    0  0.63024488767E+00 -0.50459005243E+01 -0.44935610341E+00  0.51060029991E+01  0.10500000000E+00 0.  1.
</event>
<event>
11    0  0.3443539E-009  0.9118800E+02  0.7816531E-02  0.1126479E+00
         25   -1    0    0    0    0  0.00000000000E+00  0.00000000000E+00  0.99999998245E-14  0.12500000000E+03  0.12500000000E+03 0.  0.
    3000001    1    3    3    0    0  0.21887210444E+02 -0.61175619756E+01 -0.52830431129E+02  0.57519813967E+02  0.10000000000E+01 0.  1.
    1000022    2    1    0    0    0  0.21092442799E+02 -0.55663855191E+01 -0.57709394324E+02  0.62499999150E+02  0.99999954760E+01 0.  0.
    3000022    2    3    3    0    0 -0.79476764543E+00  0.55117645649E+00 -0.48789631949E+01  0.49801851825E+01  0.25002299499E+00 0.  0.
    1000022    2    1    0    0    0 -0.21092442799E+02  0.55663855191E+01  0.57709394324E+02  0.62500000850E+02  0.10000006103E+02 0.  0.
    3000022    2    5    5    0    0 -0.46757730532E+01  0.12287579614E+00  0.25503601645E+02  0.25930178240E+02  0.24998919626E+00 0.  0.
        -13    1    4    4    0    0 -0.28324001596E+00  0.24976042553E+00 -0.21462167188E+01  0.21817140924E+01  0.10500000000E+00 0. -1.
         13    1    4    4    0    0 -0.51152762947E+00  0.30141603095E+00 -0.27327464761E+01  0.27984710901E+01  0.10500000000E+00 0.  1.
    3000001    1    5    5    0    0 -0.16416669746E+02  0.54435097230E+01  0.32205792679E+02  0.36569822610E+02  0.10000000000E+01 0. -1.
        -13    1    6    6    0    0 -0.14067623404E+01 -0.11562442141E-02  0.75388357840E+01  0.76696839308E+01  0.10500000000E+00 0. -1.
         13    1    6    6    0    0 -0.32690107128E+01  0.12403204035E+00  0.17964765861E+02  0.18260494309E+02  0.10500000000E+00 0.  1.
</event>
<event>
11    0  0.3443539E-009  0.9118800E+02  0.7816531E-02  0.1126479E+00
         25   -1    0    0    0    0  0.00000000000E+00  0.00000000000E+00  0.99999998245E-14  0.12500000000E+03  0.12500000000E+03 0.  0.
    3000001    1    3    3    0    0  0.45299328937E+01  0.32195766799E+02 -0.44635196758E+02  0.55230322119E+02  0.10000000000E+01 0. -1.
    1000022    2    1    0    0    0  0.80634879247E+01  0.34358319054E+02 -0.50603710208E+02  0.62500005371E+02  0.10000062943E+02 0.  0.
    3000022    2    3    3    0    0  0.35335550310E+01  0.21625522543E+01 -0.59685134506E+01  0.72696832519E+01  0.24999672601E+00 0.  0.
    1000022    2    1    0    0    0 -0.80634879247E+01 -0.34358319054E+02  0.50603710208E+02  0.62499994629E+02  0.99999958031E+01 0.  0.
    3000022    2    5    5    0    0 -0.18289121647E+01 -0.11749505947E+02  0.97358089968E+01  0.15370240604E+02  0.25001940348E+00 0.  0.
        -13    1    4    4    0    0  0.17214516242E+01  0.11280172447E+01 -0.30053487634E+01  0.36440313924E+01  0.10500000000E+00 0. -1.
         13    1    4    4    0    0  0.18121034068E+01  0.10345350096E+01 -0.29631646872E+01  0.36256518595E+01  0.10500000000E+00 0.  1.
    3000001    1    5    5    0    0 -0.62345757600E+01 -0.22608813106E+02  0.40867901211E+02  0.47129754025E+02  0.10000000000E+01 0. -1.
        -13    1    6    6    0    0 -0.92627329920E+00 -0.58704440867E+01  0.49521169357E+01  0.77365743805E+01  0.10500000000E+00 0. -1.
         13    1    6    6    0    0 -0.90263886550E+00 -0.58790618604E+01  0.47836920612E+01  0.76336662238E+01  0.10500000000E+00 0.  1.
</event>
<event>
11    0  0.3443539E-009  0.9118800E+02  0.7816531E-02  0.1126479E+00
         25   -1    0    0    0    0  0.00000000000E+00  0.00000000000E+00  0.99999998245E-14  0.12500000000E+03  0.12500000000E+03 0.  0.
    3000001    1    3    3    0    0 -0.10672944678E+02 -0.48845990632E+00 -0.25337178748E+02  0.27515867570E+02  0.10000000000E+01 0. -1.
    1000022    2    1    0    0    0 -0.19967493318E+02  0.91776289773E+01 -0.57648246170E+02  0.62499999462E+02  0.99999991609E+01 0.  0.
    3000022    2    3    3    0    0 -0.92945486400E+01  0.96660888837E+01 -0.32311067421E+02  0.34984131892E+02  0.24999521666E+00 0.  0.
    1000022    2    1    0    0    0  0.19967493318E+02 -0.91776289773E+01  0.57648246170E+02  0.62500000538E+02  0.10000005889E+02 0.  0.
    3000022    2    5    5    0    0  0.65638037154E+01 -0.72384428602E+00  0.29022389355E+02  0.29765232340E+02  0.25000531287E+00 0.  0.
        -13    1    4    4    0    0 -0.30388731957E+01  0.31879875156E+01 -0.10486491416E+02  0.11374336988E+02  0.10500000000E+00 0.  1.
         13    1    4    4    0    0 -0.62556754442E+01  0.64781013680E+01 -0.21824576005E+02  0.23609794904E+02  0.10500000000E+00 0. -1.
    3000001    1    5    5    0    0  0.13403689603E+02 -0.84537846913E+01  0.28625856815E+02  0.32734768198E+02  0.10000000000E+01 0.  1.
        -13    1    6    6    0    0  0.30020730838E+01 -0.30691154177E+00  0.13545665954E+02  0.13878138515E+02  0.10500000000E+00 0.  1.
         13    1    6    6    0    0  0.35617306316E+01 -0.41693274424E+00  0.15476723401E+02  0.15887093826E+02  0.10500000000E+00 0. -1.
</event>
<event>
11    0  0.3443539E-009  0.9118800E+02  0.7816531E-02  0.1126479E+00
         25   -1    0    0    0    0  0.00000000000E+00  0.00000000000E+00  0.99999998245E-14  0.12500000000E+03  0.12500000000E+03 0.  0.
    3000001    1    3    3    0    0  0.32054415054E+01  0.45727060796E+02 -0.87912404914E+01  0.46685381584E+02  0.10000000000E+01 0.  1.
    1000022    2    1    0    0    0 -0.22106551627E+00  0.59820548952E+02 -0.15089835744E+02  0.62500000105E+02  0.99999961765E+01 0.  0.
    3000022    2    3    3    0    0 -0.34265070217E+01  0.14093488156E+02 -0.62985952524E+01  0.15814618521E+02  0.24999609455E+00 0.  0.
    1000022    2    1    0    0    0  0.22106551627E+00 -0.59820548952E+02  0.15089835744E+02  0.62499999895E+02  0.99999948592E+01 0.  0.
    3000022    2    5    5    0    0 -0.31915657507E+01 -0.48427953008E+02  0.10151528443E+02  0.49583956634E+02  0.25000258350E+00 0.  0.
        -13    1    4    4    0    0 -0.97950249141E+00  0.38914842781E+01 -0.17656436299E+01  0.43853845265E+01  0.10500000000E+00 0.  1.
         13    1    4    4    0    0 -0.24470045303E+01  0.10202003878E+02 -0.45329516225E+01  0.11429233995E+02  0.10500000000E+00 0. -1.
    3000001    1    5    5    0    0  0.34126312670E+01 -0.11392595944E+02  0.49383073010E+01  0.12916043260E+02  0.10000000000E+01 0.  1.
        -13    1    6    6    0    0 -0.24227333706E+01 -0.36994275405E+02  0.77505870503E+01  0.37875172268E+02  0.10500000000E+00 0. -1.
         13    1    6    6    0    0 -0.76883238010E+00 -0.11433677604E+02  0.24009413925E+01  0.11708784367E+02  0.10500000000E+00 0.  1.
</event>
<event>
11    0  0.3443539E-009  0.9118800E+02  0.7816531E-02  0.1126479E+00
         25   -1    0    0    0    0  0.00000000000E+00  0.00000000000E+00  0.99999998245E-14  0.12500000000E+03  0.12500000000E+03 0.  0.
    3000001    1    3    3    0    0 -0.11015159042E+02  0.21391256877E+02 -0.22318846781E+01  0.24184724698E+02  0.10000000000E+01 0.  1.
    1000022    2    1    0    0    0 -0.17563682354E+02  0.59128918519E+02 -0.12401282534E+01  0.62500000220E+02  0.10000008318E+02 0.  0.
    3000022    2    3    3    0    0 -0.65485233126E+01  0.37737661642E+02  0.99175642477E+00  0.38315275522E+02  0.24998754122E+00 0.  0.
    1000022    2    1    0    0    0  0.17563682354E+02 -0.59128918519E+02  0.12401282534E+01  0.62499999780E+02  0.10000005567E+02 0.  0.
    3000022    2    5    5    0    0  0.11802368808E+02 -0.34541611777E+02  0.53558625402E+01  0.36893991592E+02  0.24999679050E+00 0.  0.
        -13    1    4    4    0    0 -0.37326790589E+01  0.21128584027E+02  0.56587924725E+00  0.21463485277E+02  0.10500000000E+00 0.  1.
         13    1    4    4    0    0 -0.28158442538E+01  0.16609077615E+02  0.42587717751E+00  0.16851790245E+02  0.10500000000E+00 0. -1.
    3000001    1    5    5    0    0  0.57613135458E+01 -0.24587306742E+02 -0.41157342869E+01  0.25606008188E+02  0.10000000000E+01 0. -1.
        -13    1    6    6    0    0  0.59241602686E+01 -0.17514480853E+02  0.27498875751E+01  0.18692929709E+02  0.10500000000E+00 0.  1.
         13    1    6    6    0    0  0.58782085399E+01 -0.17027130924E+02  0.26059749651E+01  0.18201061883E+02  0.10500000000E+00 0. -1.
</event>
<event>
11    0  0.3443539E-009  0.9118800E+02  0.7816531E-02  0.1126479E+00
         25   -1    0    0    0    0  0.00000000000E+00  0.00000000000E+00  0.99999998245E-14  0.12500000000E+03  0.12500000000E+03 0.  0.
    3000001    1    3    3    0    0  0.28476306995E+02 -0.19650281084E+02  0.31695222979E+02  0.46932086747E+02  0.10000000000E+01 0.  1.
    1000022    2    1    0    0    0  0.41658394899E+02 -0.23004186610E+02  0.39263661840E+02  0.62499998864E+02  0.10000012491E+02 0.  0.
    3000022    2    3    3    0    0  0.13182087904E+02 -0.33539055251E+01  0.75684388611E+01  0.15567912117E+02  0.24999421526E+00 0.  0.
    1000022    2    1    0    0    0 -0.41658394899E+02  0.23004186610E+02 -0.39263661840E+02  0.62500001136E+02  0.10000026690E+02 0.  0.
    3000022    2    5    5    0    0 -0.66193525995E+01  0.49172469727E+01 -0.26059433993E+01  0.86515081955E+01  0.25001285787E+00 0.  0.
        -13    1    4    4    0    0  0.10077550448E+02 -0.25696596928E+01  0.58020834263E+01  0.11909465608E+02  0.10500000000E+00 0. -1.
         13    1    4    4    0    0  0.31045374559E+01 -0.78424583230E+00  0.17663554348E+01  0.36584465095E+01  0.10500000000E+00 0.  1.
    3000001    1    5    5    0    0 -0.35039042300E+02  0.18086939637E+02 -0.36657718440E+02  0.53848492940E+02  0.10000000000E+01 0. -1.
        -13    1    6    6    0    0 -0.20028087209E+01  0.15386037566E+01 -0.82407870589E+00  0.26586979907E+01  0.10500000000E+00 0.  1.
         13    1    6    6    0    0 -0.46165438786E+01  0.33786432162E+01 -0.17818646934E+01  0.59928102048E+01  0.10500000000E+00 0. -1.
</event>
<event>
11    0  0.3443539E-009  0.9118800E+02  0.7816531E-02  0.1126479E+00
         25   -1    0    0    0    0  0.00000000000E+00  0.00000000000E+00  0.99999998245E-14  0.12500000000E+03  0.12500000000E+03 0.  0.
    3000001    1    3    3    0    0 -0.23742868598E+01  0.48129353670E+01  0.11964273374E+01  0.55886512965E+01  0.10000000000E+01 0.  1.
    1000022    2    1    0    0    0 -0.27131877046E+01  0.61550656893E+02 -0.32257074928E+01  0.62500000551E+02  0.10000006423E+02 0.  0.
    3000022    2    3    3    0    0 -0.33890084479E+00  0.56737721526E+02 -0.44221348302E+01  0.56911349254E+02  0.24999934140E+00 0.  0.
    1000022    2    1    0    0    0  0.27131877046E+01 -0.61550656893E+02  0.32257074928E+01  0.62499999449E+02  0.99999995415E+01 0.  0.
    3000022    2    5    5    0    0 -0.29364528245E+01 -0.40219390799E+02  0.20338951482E+01  0.40378476718E+02  0.25000231106E+00 0.  0.
        -13    1    4    4    0    0 -0.67284531717E-01  0.13220796069E+02 -0.10333575420E+01  0.13261705348E+02  0.10500000000E+00 0.  1.
         13    1    4    4    0    0 -0.27161631307E+00  0.43516925457E+02 -0.33887772883E+01  0.43649643906E+02  0.10500000000E+00 0. -1.
    3000001    1    5    5    0    0  0.56496405291E+01 -0.21331266094E+02  0.11918123446E+01  0.22121522731E+02  0.10000000000E+01 0. -1.
        -13    1    6    6    0    0 -0.19877556543E+01 -0.26554481497E+02  0.13183702512E+01  0.26661597574E+02  0.10500000000E+00 0.  1.
         13    1    6    6    0    0 -0.94869717017E+00 -0.13664909303E+02  0.71552489706E+00  0.13716879144E+02  0.10500000000E+00 0. -1.
</event>
<event>
11    0  0.3443539E-009  0.9118800E+02  0.7816531E-02  0.1126479E+00
         25   -1    0    0    0    0  0.00000000000E+00  0.00000000000E+00  0.99999998245E-14  0.12500000000E+03  0.12500000000E+03 0.  0.
    3000001    1    3    3    0    0 -0.41806605191E+01  0.26639068835E+01  0.46997826803E+01  0.69037873303E+01  0.10000000000E+01 0.  1.
    1000022    2    1    0    0    0 -0.39011123622E+02 -0.24085300227E+01  0.47734485415E+02  0.62500000455E+02  0.10000008800E+02 0.  0.
    3000022    2    3    3    0    0 -0.34830463102E+02 -0.50724369062E+01  0.43034702735E+02  0.55596213125E+02  0.24999655727E+00 0.  0.
    1000022    2    1    0    0    0  0.39011123622E+02  0.24085300227E+01 -0.47734485415E+02  0.62499999545E+02  0.10000003107E+02 0.  0.
    3000022    2    5    5    0    0 -0.42064396948E+00  0.13270510135E+00 -0.19965883768E+01  0.20599557002E+01  0.25000069472E+00 0.  0.
        -13    1    4    4    0    0 -0.23937905541E+02 -0.34587027567E+01  0.29635810172E+02  0.38252819713E+02  0.10500000000E+00 0. -1.
         13    1    4    4    0    0 -0.10892557561E+02 -0.16137341495E+01  0.13398892563E+02  0.17343393412E+02  0.10500000000E+00 0.  1.
    3000001    1    5    5    0    0  0.39431767591E+02  0.22758249213E+01 -0.45737897038E+02  0.60440043844E+02  0.10000000000E+01 0.  1.
        -13    1    6    6    0    0 -0.16231824557E+00  0.12791562086E-01 -0.59027694989E+00  0.62125897537E+00  0.10500000000E+00 0.  1.
         13    1    6    6    0    0 -0.25832572391E+00  0.11991353927E+00 -0.14063114269E+01  0.14386967248E+01  0.10500000000E+00 0. -1.
</event>
<event>
11    0  0.3443539E-009  0.9118800E+02  0.7816531E-02  0.1126479E+00
         25   -1    0    0    0    0  0.00000000000E+00  0.00000000000E+00  0.99999998245E-14  0.12500000000E+03  0.12500000000E+03 0.  0.
    3000001    1    3    3    0    0  0.85834507740E+00 -0.29984210625E+00  0.93063693483E+00  0.16409590687E+01  0.10000000000E+01 0.  1.
    1000022    2    1    0    0    0 -0.30075686182E+01  0.74982923191E+01  0.61163552754E+02  0.62499999804E+02  0.99999966683E+01 0.  0.
    3000022    2    3    3    0    0 -0.38659136956E+01  0.77981344253E+01  0.60232915819E+02  0.60859040735E+02  0.25000395874E+00 0.  0.
    1000022    2    1    0    0    0  0.30075686182E+01 -0.74982923191E+01 -0.61163552754E+02  0.62500000196E+02  0.99999991182E+01 0.  0.
    3000022    2    5    5    0    0  0.53272785921E+01 -0.55425391967E+00 -0.29727454042E+02  0.30207136807E+02  0.24999130550E+00 0.  0.
        -13    1    4    4    0    0 -0.27833687088E+01  0.55489491763E+01  0.43160731103E+02  0.43605019352E+02  0.10500000000E+00 0. -1.
         13    1    4    4    0    0 -0.10825449868E+01  0.22491852491E+01  0.17072184716E+02  0.17254021383E+02  0.10500000000E+00 0.  1.
    3000001    1    5    5    0    0 -0.23197099739E+01 -0.69440383994E+01 -0.31436098712E+02  0.32292863389E+02  0.10000000000E+01 0.  1.
        -13    1    6    6    0    0  0.25769076697E+01 -0.20090106630E+00 -0.14401866253E+02  0.14632347418E+02  0.10500000000E+00 0. -1.
         13    1    6    6    0    0  0.27503709224E+01 -0.35335285338E+00 -0.15325587789E+02  0.15574789389E+02  0.10500000000E+00 0.  1.
</event>
<event>
11    0  0.3443539E-009  0.9118800E+02  0.7816531E-02  0.1126479E+00
         25   -1    0    0    0    0  0.00000000000E+00  0.00000000000E+00  0.99999998245E-14  0.12500000000E+03  0.12500000000E+03 0.  0.
    3000001    1    3    3    0    0  0.29331278524E+01 -0.55341327137E+02  0.22127966646E+01  0.55472174983E+02  0.10000000000E+01 0. -1.
    1000022    2    1    0    0    0  0.42992221445E+01 -0.61539707990E+02 -0.79414454924E+00  0.62499999333E+02  0.10000014023E+02 0.  0.
    3000022    2    3    3    0    0  0.13660942920E+01 -0.61983808531E+01 -0.30069412139E+01  0.70278243495E+01  0.24996161543E+00 0.  0.
    1000022    2    1    0    0    0 -0.42992221445E+01  0.61539707990E+02  0.79414454924E+00  0.62500000667E+02  0.10000022362E+02 0.  0.
    3000022    2    5    5    0    0 -0.66232329879E+01  0.32162200994E+02 -0.18862726874E+01  0.32892170955E+02  0.24999494025E+00 0.  0.
        -13    1    4    4    0    0  0.51168445041E+00 -0.21339100031E+01 -0.99762324210E+00  0.24128137125E+01  0.10500000000E+00 0. -1.
         13    1    4    4    0    0  0.85440984163E+00 -0.40644708499E+01 -0.20093179718E+01  0.46150106369E+01  0.10500000000E+00 0.  1.
    3000001    1    5    5    0    0  0.23240108434E+01  0.29377506996E+02  0.26804172366E+01  0.29607829712E+02  0.10000000000E+01 0.  1.
        -13    1    6    6    0    0 -0.38596581670E+01  0.18909812704E+02 -0.11632857927E+01  0.19335000298E+02  0.10500000000E+00 0.  1.
         13    1    6    6    0    0 -0.27635748209E+01  0.13252388290E+02 -0.72298689474E+00  0.13557170657E+02  0.10500000000E+00 0. -1.
</event>
<event>
11    0  0.3443539E-009  0.9118800E+02  0.7816531E-02  0.1126479E+00
         25   -1    0    0    0    0  0.00000000000E+00  0.00000000000E+00  0.99999998245E-14  0.12500000000E+03  0.12500000000E+03 0.  0.
    3000001    1    3    3    0    0  0.43759568428E+02  0.21403132724E+02  0.11124071437E+02  0.49977383733E+02  0.10000000000E+01 0. -1.
    1000022    2    1    0    0    0  0.52905980503E+02  0.29933201520E+02  0.10545656459E+02  0.62500003228E+02  0.10000010353E+02 0.  0.
    3000022    2    3    3    0    0  0.91464120748E+01  0.85300687966E+01 -0.57841497829E+00  0.12522619495E+02  0.25001522924E+00 0.  0.
    1000022    2    1    0    0    0 -0.52905980503E+02 -0.29933201520E+02 -0.10545656459E+02  0.62499996772E+02  0.99999700085E+01 0.  0.
    3000022    2    5    5    0    0 -0.49947066786E+02 -0.28272525195E+02 -0.75971883797E+01  0.57894947342E+02  0.24999008750E+00 0.  0.
        -13    1    4    4    0    0  0.31476166569E+01  0.29731042053E+01 -0.24898714331E+00  0.43381861223E+01  0.10500000000E+00 0. -1.
         13    1    4    4    0    0  0.59987954179E+01  0.55569645912E+01 -0.32942783498E+00  0.81844333728E+01  0.10500000000E+00 0.  1.
    3000001    1    5    5    0    0 -0.29589137171E+01 -0.16606763256E+01 -0.29484680793E+01  0.46050494306E+01  0.10000000000E+01 0.  1.
        -13    1    6    6    0    0 -0.22540747177E+02 -0.12835377480E+02 -0.34412015468E+01  0.26166487946E+02  0.10500000000E+00 0. -1.
         13    1    6    6    0    0 -0.27406319609E+02 -0.15437147715E+02 -0.41559868328E+01  0.31728459396E+02  0.10500000000E+00 0.  1.
</event>
<event>
11    0  0.3443539E-009  0.9118800E+02  0.7816531E-02  0.1126479E+00
         25   -1    0    0    0    0  0.00000000000E+00  0.00000000000E+00  0.99999998245E-14  0.12500000000E+03  0.12500000000E+03 0.  0.
    3000001    1    3    3    0    0 -0.64349178878E+01 -0.31091430764E+02  0.13805723391E+02  0.34636443720E+02  0.10000000000E+01 0. -1.
    1000022    2    1    0    0    0 -0.19766765983E+02 -0.54148767598E+02  0.21987183737E+02  0.62499999583E+02  0.99999814687E+01 0.  0.
    3000022    2    3    3    0    0 -0.13331848096E+02 -0.23057336834E+02  0.81814603465E+01  0.27863555864E+02  0.24999291690E+00 0.  0.
    1000022    2    1    0    0    0  0.19766765983E+02  0.54148767598E+02 -0.21987183737E+02  0.62500000417E+02  0.99999866771E+01 0.  0.
    3000022    2    5    5    0    0  0.31542129517E+01  0.20584518805E+02 -0.53141194616E+01  0.21493576681E+02  0.24999818805E+00 0.  0.
        -13    1    4    4    0    0 -0.55148328260E+01 -0.95999803979E+01  0.34599764282E+01  0.11599804594E+02  0.10500000000E+00 0. -1.
         13    1    4    4    0    0 -0.78170152695E+01 -0.13457356436E+02  0.47214839183E+01  0.16263751270E+02  0.10500000000E+00 0.  1.
    3000001    1    5    5    0    0  0.16612553032E+02  0.33564248793E+02 -0.16673064276E+02  0.41006423736E+02  0.10000000000E+01 0. -1.
        -13    1    6    6    0    0  0.15582357164E+01  0.10537216196E+02 -0.27578509923E+01  0.11003535377E+02  0.10500000000E+00 0. -1.
         13    1    6    6    0    0  0.15959772353E+01  0.10047302609E+02 -0.25562684693E+01  0.10490041303E+02  0.10500000000E+00 0.  1.
</event>
<event>
11    0  0.3443539E-009  0.9118800E+02  0.7816531E-02  0.1126479E+00
         25   -1    0    0    0    0  0.00000000000E+00  0.00000000000E+00  0.99999998245E-14  0.12500000000E+03  0.12500000000E+03 0.  0.
    3000001    1    3    3    0    0 -0.50899637222E+00 -0.28447366941E+00 -0.15982742356E+01  0.19734444780E+01  0.10000000000E+01 0.  1.
    1000022    2    1    0    0    0 -0.54832482081E+02  0.76532826417E+00 -0.28267701154E+02  0.62500000771E+02  0.10000017468E+02 0.  0.
    3000022    2    3    3    0    0 -0.54323485709E+02  0.10498019336E+01 -0.26669426918E+02  0.60526556293E+02  0.25000181443E+00 0.  0.
    1000022    2    1    0    0    0  0.54832482081E+02 -0.76532826417E+00  0.28267701154E+02  0.62499999229E+02  0.10000007831E+02 0.  0.
    3000022    2    5    5    0    0  0.16130059031E+02 -0.46724537720E+01  0.95475687260E+01  0.19319140764E+02  0.25000538323E+00 0.  0.
        -13    1    4    4    0    0 -0.35886884618E+02  0.71530558347E+00 -0.17562483194E+02  0.39960380261E+02  0.10500000000E+00 0. -1.
         13    1    4    4    0    0 -0.18436601090E+02  0.33449635011E+00 -0.91069437240E+01  0.20566176032E+02  0.10500000000E+00 0.  1.
    3000001    1    5    5    0    0  0.38702423050E+02  0.39071255078E+01  0.18720132428E+02  0.43180858465E+02  0.10000000000E+01 0. -1.
        -13    1    6    6    0    0  0.11735714135E+02 -0.34085697082E+01  0.69062216266E+01  0.14037530262E+02  0.10500000000E+00 0. -1.
         13    1    6    6    0    0  0.43943448957E+01 -0.12638840637E+01  0.26413470994E+01  0.52816105014E+01  0.10500000000E+00 0.  1.
</event>
<event>
11    0  0.3443539E-009  0.9118800E+02  0.7816531E-02  0.1126479E+00
         25   -1    0    0    0    0  0.00000000000E+00  0.00000000000E+00  0.99999998245E-14  0.12500000000E+03  0.12500000000E+03 0.  0.
    3000001    1    3    3    0    0 -0.12450538240E+02  0.54088487068E+01  0.69433490291E+01  0.15280106103E+02  0.10000000000E+01 0. -1.
    1000022    2    1    0    0    0 -0.38779287688E+02  0.27411067636E+02  0.39383376895E+02  0.62500002298E+02  0.10000006453E+02 0.  0.
    3000022    2    3    3    0    0 -0.26328749448E+02  0.22002218929E+02  0.32440027866E+02  0.47219896194E+02  0.25000674301E+00 0.  0.
    1000022    2    1    0    0    0  0.38779287688E+02 -0.27411067636E+02 -0.39383376895E+02  0.62499997702E+02  0.99999777325E+01 0.  0.
    3000022    2    5    5    0    0 -0.19241720491E+00 -0.32053921733E+00  0.36854411471E+00  0.58145656820E+00  0.24999441119E+00 0.  0.
        -13    1    4    4    0    0 -0.77369558485E+01  0.65020126269E+01  0.96025428426E+01  0.13941180296E+02  0.10500000000E+00 0. -1.
         13    1    4    4    0    0 -0.18591793599E+02  0.15500206302E+02  0.22837485023E+02  0.33278715898E+02  0.10500000000E+00 0.  1.
    3000001    1    5    5    0    0  0.38971704892E+02 -0.27090528418E+02 -0.39751921010E+02  0.61918541134E+02  0.10000000000E+01 0. -1.
        -13    1    6    6    0    0 -0.14179882574E-01 -0.11466505704E+00  0.15342077853E+00  0.21888828123E+00  0.10500000000E+00 0. -1.
         13    1    6    6    0    0 -0.17823732234E+00 -0.20587416029E+00  0.21512333618E+00  0.36256828697E+00  0.10500000000E+00 0.  1.
</event>
<event>
11    0  0.3443539E-009  0.9118800E+02  0.7816531E-02  0.1126479E+00
         25   -1    0    0    0    0  0.00000000000E+00  0.00000000000E+00  0.99999998245E-14  0.12500000000E+03  0.12500000000E+03 0.  0.
    3000001    1    3    3    0    0 -0.10346061843E+02  0.15236095667E+02  0.24593749494E+02  0.30741374741E+02  0.10000000000E+01 0. -1.
    1000022    2    1    0    0    0 -0.11541758513E+02  0.34288320017E+02  0.49973482263E+02  0.62499999870E+02  0.99999987575E+01 0.  0.
    3000022    2    3    3    0    0 -0.11956966699E+01  0.19052224350E+02  0.25379732770E+02  0.31758625129E+02  0.24998286334E+00 0.  0.
    1000022    2    1    0    0    0  0.11541758513E+02 -0.34288320017E+02 -0.49973482263E+02  0.62500000130E+02  0.10000000379E+02 0.  0.
    3000022    2    5    5    0    0  0.10697538107E+02 -0.32909020719E+02 -0.42593627200E+02  0.54879144836E+02  0.24998736757E+00 0.  0.
        -13    1    4    4    0    0 -0.70722441441E+00  0.10843189977E+02  0.14346650989E+02  0.17997565247E+02  0.10500000000E+00 0.  1.
         13    1    4    4    0    0 -0.48847225546E+00  0.82090343735E+01  0.11033081781E+02  0.13761059882E+02  0.10500000000E+00 0. -1.
    3000001    1    5    5    0    0  0.84422040597E+00 -0.13792992973E+01 -0.73798550635E+01  0.76208552934E+01  0.10000000000E+01 0. -1.
        -13    1    6    6    0    0  0.65371674984E+01 -0.19984285168E+02 -0.25803753243E+02  0.33285896698E+02  0.10500000000E+00 0. -1.
         13    1    6    6    0    0  0.41603706083E+01 -0.12924735551E+02 -0.16789873956E+02  0.21593248138E+02  0.10500000000E+00 0.  1.
</event>
<event>
11    0  0.3443539E-009  0.9118800E+02  0.7816531E-02  0.1126479E+00
         25   -1    0    0    0    0  0.00000000000E+00  0.00000000000E+00  0.99999998245E-14  0.12500000000E+03  0.12500000000E+03 0.  0.
    3000001    1    3    3    0    0 -0.36615878867E+02 -0.17396883752E+02  0.16640209866E+01  0.40585010968E+02  0.10000000000E+01 0. -1.
    1000022    2    1    0    0    0 -0.57124791877E+02 -0.23018696990E+02 -0.36259641833E+01  0.62500000121E+02  0.10000007042E+02 0.  0.
    3000022    2    3    3    0    0 -0.20508913010E+02 -0.56218132376E+01 -0.52899851699E+01  0.21914989153E+02  0.25001907507E+00 0.  0.
    1000022    2    1    0    0    0  0.57124791877E+02  0.23018696990E+02  0.36259641833E+01  0.62499999879E+02  0.10000005526E+02 0.  0.
    3000022    2    5    5    0    0  0.28229552048E+02  0.15096867107E+02  0.54147163779E+01  0.32468517933E+02  0.24999603418E+00 0.  0.
        -13    1    4    4    0    0 -0.81926107955E+01 -0.22417124616E+01 -0.20481724177E+01  0.87378591005E+01  0.10500000000E+00 0. -1.
         13    1    4    4    0    0 -0.12316302215E+02 -0.33801007760E+01 -0.32418127522E+01  0.13177130052E+02  0.10500000000E+00 0.  1.
    3000001    1    5    5    0    0  0.28895239829E+02  0.79218298824E+01 -0.17887521946E+01  0.30031481946E+02  0.10000000000E+01 0. -1.
        -13    1    6    6    0    0  0.68334265503E+01  0.36428789799E+01  0.12913964501E+01  0.78514339755E+01  0.10500000000E+00 0.  1.
         13    1    6    6    0    0  0.21396125497E+02  0.11453988128E+02  0.41233199277E+01  0.24617083957E+02  0.10500000000E+00 0. -1.
</event>
<event>
11    0  0.3443539E-009  0.9118800E+02  0.7816531E-02  0.1126479E+00
         25   -1    0    0    0    0  0.00000000000E+00  0.00000000000E+00  0.99999998245E-14  0.12500000000E+03  0.12500000000E+03 0.  0.
    3000001    1    3    3    0    0 -0.10270852483E+01 -0.13067505138E+01 -0.31307293998E+00  0.19648195027E+01  0.10000000000E+01 0.  1.
    1000022    2    1    0    0    0 -0.17164350908E+02 -0.29556676244E+02 -0.51361833169E+02  0.62499999750E+02  0.10000000480E+02 0.  0.
    3000022    2    3    3    0    0 -0.16137265660E+02 -0.28249925730E+02 -0.51048760229E+02  0.60535180248E+02  0.24995986582E+00 0.  0.
    1000022    2    1    0    0    0  0.17164350908E+02  0.29556676244E+02  0.51361833169E+02  0.62500000250E+02  0.10000003601E+02 0.  0.
    3000022    2    5    5    0    0  0.13841743575E+02  0.14208100000E+02  0.30079784249E+02  0.36032206264E+02  0.24999399605E+00 0.  0.
        -13    1    4    4    0    0 -0.81300646489E+01 -0.14108104615E+02 -0.25497005624E+02  0.30253014524E+02  0.10500000000E+00 0.  1.
         13    1    4    4    0    0 -0.80072010106E+01 -0.14141821115E+02 -0.25551754605E+02  0.30282165723E+02  0.10500000000E+00 0. -1.
    3000001    1    5    5    0    0  0.33226073324E+01  0.15348576244E+02  0.21282048920E+02  0.26467793985E+02  0.10000000000E+01 0. -1.
        -13    1    6    6    0    0  0.90084193475E+01  0.92877034641E+01  0.19532219516E+02  0.23429291048E+02  0.10500000000E+00 0.  1.
         13    1    6    6    0    0  0.48333242278E+01  0.49203965360E+01  0.10547564733E+02  0.12602915217E+02  0.10500000000E+00 0. -1.
</event>
<event>
11    0  0.3443539E-009  0.9118800E+02  0.7816531E-02  0.1126479E+00
         25   -1    0    0    0    0  0.00000000000E+00  0.00000000000E+00  0.99999998245E-14  0.12500000000E+03  0.12500000000E+03 0.  0.
    3000001    1    3    3    0    0  0.66741903485E+01  0.16110851635E+02 -0.33437560134E+01  0.17784405008E+02  0.10000000000E+01 0. -1.
    1000022    2    1    0    0    0  0.29791400093E+02  0.48636593749E+02 -0.23520293706E+02  0.62500000297E+02  0.10000002503E+02 0.  0.
    3000022    2    3    3    0    0  0.23117209744E+02  0.32525742114E+02 -0.20176537693E+02  0.44715595289E+02  0.25000462985E+00 0.  0.
    1000022    2    1    0    0    0 -0.29791400093E+02 -0.48636593749E+02  0.23520293706E+02  0.62499999703E+02  0.99999987945E+01 0.  0.
    3000022    2    5    5    0    0 -0.22941750706E+02 -0.31353574824E+02  0.12250819939E+02  0.40737153408E+02  0.24999783114E+00 0.  0.
        -13    1    4    4    0    0  0.10857449058E+02  0.15171716628E+02 -0.94660755185E+01  0.20920869872E+02  0.10500000000E+00 0. -1.
         13    1    4    4    0    0  0.12259760686E+02  0.17354025486E+02 -0.10710462174E+02  0.23794725416E+02  0.10500000000E+00 0.  1.
    3000001    1    5    5    0    0 -0.68496493871E+01 -0.17283018926E+02  0.11269473767E+02  0.21762846296E+02  0.10000000000E+01 0.  1.
        -13    1    6    6    0    0 -0.97974724630E+01 -0.13296013134E+02  0.51719507069E+01  0.17307065928E+02  0.10500000000E+00 0. -1.
         13    1    6    6    0    0 -0.13144278243E+02 -0.18057561690E+02  0.70788692322E+01  0.23430087480E+02  0.10500000000E+00 0.  1.
</event>
<event>
11    0  0.3443539E-009  0.9118800E+02  0.7816531E-02  0.1126479E+00
         25   -1    0    0    0    0  0.00000000000E+00  0.00000000000E+00  0.99999998245E-14  0.12500000000E+03  0.12500000000E+03 0.  0.
    3000001    1    3    3    0    0  0.12715985178E+02 -0.12221851796E+02 -0.11921921622E+02  0.21312019040E+02  0.10000000000E+01 0. -1.
    1000022    2    1    0    0    0  0.39973755960E+02 -0.23659861031E+02 -0.40602458140E+02  0.62500000242E+02  0.10000011685E+02 0.  0.
    3000022    2    3    3    0    0  0.27257770782E+02 -0.11438009235E+02 -0.28680536517E+02  0.41187981202E+02  0.24999469490E+00 0.  0.
    1000022    2    1    0    0    0 -0.39973755960E+02  0.23659861031E+02  0.40602458140E+02  0.62499999758E+02  0.10000008660E+02 0.  0.
    3000022    2    5    5    0    0 -0.39287468762E+02  0.24138284264E+02  0.38729489417E+02  0.60217919404E+02  0.24999577258E+00 0.  0.
        -13    1    4    4    0    0  0.15708368435E+02 -0.66145312006E+01 -0.16451014430E+02  0.23688642061E+02  0.10500000000E+00 0. -1.
         13    1    4    4    0    0  0.11549402347E+02 -0.48234780346E+01 -0.12229522087E+02  0.17499339142E+02  0.10500000000E+00 0.  1.
    3000001    1    5    5    0    0 -0.68628719830E+00 -0.47842323281E+00  0.18729687224E+01  0.22820803543E+01  0.10000000000E+01 0. -1.
        -13    1    6    6    0    0 -0.14958772636E+02  0.92618601448E+01  0.14786611632E+02  0.22982642161E+02  0.10500000000E+00 0.  1.
         13    1    6    6    0    0 -0.24328696125E+02  0.14876424119E+02  0.23942877785E+02  0.37235277243E+02  0.10500000000E+00 0. -1.
</event>
<event>
11    0  0.3443539E-009  0.9118800E+02  0.7816531E-02  0.1126479E+00
         25   -1    0    0    0    0  0.00000000000E+00  0.00000000000E+00  0.99999998245E-14  0.12500000000E+03  0.12500000000E+03 0.  0.
    3000001    1    3    3    0    0 -0.45364516495E+02  0.51850763059E+01 -0.12071004246E+02  0.47239110033E+02  0.10000000000E+01 0.  1.
    1000022    2    1    0    0    0 -0.60511460490E+02  0.60051586351E+01 -0.10418796586E+02  0.62499999200E+02  0.99999898438E+01 0.  0.
    3000022    2    3    3    0    0 -0.15146943995E+02  0.82008232912E+00  0.16522076600E+01  0.15260889168E+02  0.25000127347E+00 0.  0.
    1000022    2    1    0    0    0  0.60511460490E+02 -0.60051586351E+01  0.10418796586E+02  0.62500000800E+02  0.99999998387E+01 0.  0.
    3000022    2    5    5    0    0  0.23202836061E+02  0.18107571400E+01  0.65131388147E+01  0.24168862559E+02  0.24999496785E+00 0.  0.
        -13    1    4    4    0    0 -0.61424697862E+01  0.33688488020E+00  0.73389023593E+00  0.61962122603E+01  0.10500000000E+00 0. -1.
         13    1    4    4    0    0 -0.90044742085E+01  0.48319744892E+00  0.91831742407E+00  0.90646769076E+01  0.10500000000E+00 0.  1.
    3000001    1    5    5    0    0  0.37308624429E+02 -0.78159157751E+01  0.39056577717E+01  0.38331138241E+02  0.10000000000E+01 0.  1.
        -13    1    6    6    0    0  0.12327434147E+02  0.10185635012E+01  0.34998893085E+01  0.12855479549E+02  0.10500000000E+00 0. -1.
         13    1    6    6    0    0  0.10875401914E+02  0.79219363885E+00  0.30132495061E+01  0.11313383010E+02  0.10500000000E+00 0.  1.
</event>
<event>
11    0  0.3443539E-009  0.9118800E+02  0.7816531E-02  0.1126479E+00
         25   -1    0    0    0    0  0.00000000000E+00  0.00000000000E+00  0.99999998245E-14  0.12500000000E+03  0.12500000000E+03 0.  0.
    3000001    1    3    3    0    0  0.25042785117E+02 -0.51492914710E+01  0.52161712013E+02  0.58099057559E+02  0.10000000000E+01 0.  1.
    1000022    2    1    0    0    0  0.28108066338E+02 -0.73343121365E+01  0.54427883049E+02  0.62500000337E+02  0.10000003060E+02 0.  0.
    3000022    2    3    3    0    0  0.30652812208E+01 -0.21850206656E+01  0.22661710358E+01  0.44009427786E+01  0.25000381022E+00 0.  0.
    1000022    2    1    0    0    0 -0.28108066338E+02  0.73343121365E+01 -0.54427883049E+02  0.62499999663E+02  0.99999988429E+01 0.  0.
    3000022    2    5    5    0    0 -0.12519211678E+02 -0.16372884828E+01 -0.24674484105E+02  0.27718298209E+02  0.25003028897E+00 0.  0.
        -13    1    4    4    0    0  0.13749270884E+01 -0.90157249346E+00  0.97081999076E+00  0.19122693099E+01  0.10500000000E+00 0.  1.
         13    1    4    4    0    0  0.16903541324E+01 -0.12834481721E+01  0.12953510450E+01  0.24886734686E+01  0.10500000000E+00 0. -1.
    3000001    1    5    5    0    0 -0.15588854660E+02  0.89716006193E+01 -0.29753398944E+02  0.34781701453E+02  0.10000000000E+01 0.  1.
        -13    1    6    6    0    0 -0.43968624203E+01 -0.52194184712E+00 -0.86079006746E+01  0.96804856004E+01  0.10500000000E+00 0. -1.
         13    1    6    6    0    0 -0.81223492572E+01 -0.11153466357E+01 -0.16066583431E+02  0.18037812609E+02  0.10500000000E+00 0.  1.
</event>
<event>
11    0  0.3443539E-009  0.9118800E+02  0.7816531E-02  0.1126479E+00
         25   -1    0    0    0    0  0.00000000000E+00  0.00000000000E+00  0.99999998245E-14  0.12500000000E+03  0.12500000000E+03 0.  0.
    3000001    1    3    3    0    0  0.95216058101E+01  0.44823382107E+00  0.67139432487E+01  0.11702090613E+02  0.10000000000E+01 0. -1.
    1000022    2    1    0    0    0  0.42329984983E+02 -0.14795192282E+02  0.42373632501E+02  0.62500001205E+02  0.10000003800E+02 0.  0.
    3000022    2    3    3    0    0  0.32808379173E+02 -0.15243426103E+02  0.35659689252E+02  0.50797910593E+02  0.24999936180E+00 0.  0.
    1000022    2    1    0    0    0 -0.42329984983E+02  0.14795192282E+02 -0.42373632501E+02  0.62499998795E+02  0.99999887314E+01 0.  0.
    3000022    2    5    5    0    0 -0.75695340791E+01 -0.11200009395E+01 -0.81013867292E+01  0.11146623515E+02  0.25000114226E+00 0.  0.
        -13    1    4    4    0    0  0.14969661366E+02 -0.70002236419E+01  0.16363931927E+02  0.23256895441E+02  0.10500000000E+00 0.  1.
         13    1    4    4    0    0  0.17838717807E+02 -0.82432024614E+01  0.19295757326E+02  0.27541015152E+02  0.10500000000E+00 0. -1.
    3000001    1    5    5    0    0 -0.34760450904E+02  0.15915193222E+02 -0.34272245772E+02  0.51353375279E+02  0.10000000000E+01 0. -1.
        -13    1    6    6    0    0 -0.46690571278E+01 -0.65234896498E+00 -0.49201897719E+01  0.68150528998E+01  0.10500000000E+00 0. -1.
         13    1    6    6    0    0 -0.29004769513E+01 -0.46765197452E+00 -0.31811969573E+01  0.43315706153E+01  0.10500000000E+00 0.  1.
</event>
<event>
11    0  0.3443539E-009  0.9118800E+02  0.7816531E-02  0.1126479E+00
         25   -1    0    0    0    0  0.00000000000E+00  0.00000000000E+00  0.99999998245E-14  0.12500000000E+03  0.12500000000E+03 0.  0.
    3000001    1    3    3    0    0  0.16561914382E+02 -0.73825392538E+01 -0.87109223288E+01  0.20141476154E+02  0.10000000000E+01 0.  1.
    1000022    2    1    0    0    0  0.46558004360E+02 -0.34765542539E+02 -0.20735426849E+02  0.62500010939E+02  0.10000136133E+02 0.  0.
    3000022    2    3    3    0    0  0.29996089978E+02 -0.27383003286E+02 -0.12024504520E+02  0.42358534785E+02  0.24995452389E+00 0.  0.
    1000022    2    1    0    0    0 -0.46558004360E+02  0.34765542539E+02  0.20735426849E+02  0.62499989061E+02  0.99999993976E+01 0.  0.
    3000022    2    5    5    0    0 -0.38244879650E+02  0.29295140960E+02  0.13124707935E+02  0.49931919270E+02  0.25000060524E+00 0.  0.
        -13    1    4    4    0    0  0.22131775431E+02 -0.20242263823E+02 -0.88635608220E+01  0.31275205257E+02  0.10500000000E+00 0.  1.
         13    1    4    4    0    0  0.78643145473E+01 -0.71407394625E+01 -0.31609436979E+01  0.11083329528E+02  0.10500000000E+00 0. -1.
    3000001    1    5    5    0    0 -0.83131247107E+01  0.54704015789E+01  0.76107189133E+01  0.12568069791E+02  0.10000000000E+01 0. -1.
        -13    1    6    6    0    0 -0.22033008443E+02  0.16831715950E+02  0.74973692687E+01  0.28722494561E+02  0.10500000000E+00 0.  1.
         13    1    6    6    0    0 -0.16211871207E+02  0.12463425011E+02  0.56273386666E+01  0.21209424709E+02  0.10500000000E+00 0. -1.
</event>
<event>
11    0  0.3443539E-009  0.9118800E+02  0.7816531E-02  0.1126479E+00
         25   -1    0    0    0    0  0.00000000000E+00  0.00000000000E+00  0.99999998245E-14  0.12500000000E+03  0.12500000000E+03 0.  0.
    3000001    1    3    3    0    0 -0.31975127402E+02  0.23584332256E+02 -0.13294265407E+02  0.41909032357E+02  0.10000000000E+01 0. -1.
    1000022    2    1    0    0    0 -0.42382420700E+02  0.38762229543E+02 -0.22527093412E+02  0.62499999634E+02  0.99999996538E+01 0.  0.
    3000022    2    3    3    0    0 -0.10407293298E+02  0.15177897286E+02 -0.92328280056E+01  0.20590967277E+02  0.25000119545E+00 0.  0.
    1000022    2    1    0    0    0  0.42382420700E+02 -0.38762229543E+02  0.22527093412E+02  0.62500000366E+02  0.10000004234E+02 0.  0.
    3000022    2    5    5    0    0  0.33994561987E+02 -0.28759405978E+02  0.21268463697E+02  0.49347175506E+02  0.25001094354E+00 0.  0.
        -13    1    4    4    0    0 -0.62420804034E+01  0.91434089818E+01 -0.54883965659E+01  0.12357144388E+02  0.10500000000E+00 0.  1.
         13    1    4    4    0    0 -0.41652128943E+01  0.60344883045E+01 -0.37444314397E+01  0.82338228885E+01  0.10500000000E+00 0. -1.
    3000001    1    5    5    0    0  0.83878587135E+01 -0.10002823564E+02  0.12586297152E+01  0.13152824861E+02  0.10000000000E+01 0. -1.
        -13    1    6    6    0    0  0.18960171990E+02 -0.16012685988E+02  0.11784080942E+02  0.27473074511E+02  0.10500000000E+00 0. -1.
         13    1    6    6    0    0  0.15034389997E+02 -0.12746719991E+02  0.94843827548E+01  0.21874100995E+02  0.10500000000E+00 0.  1.
</event>
<event>
11    0  0.3443539E-009  0.9118800E+02  0.7816531E-02  0.1126479E+00
         25   -1    0    0    0    0  0.00000000000E+00  0.00000000000E+00  0.99999998245E-14  0.12500000000E+03  0.12500000000E+03 0.  0.
    3000001    1    3    3    0    0  0.15277870281E+02 -0.30802798028E+02  0.50915586030E+01  0.34772829273E+02  0.10000000000E+01 0.  1.
    1000022    2    1    0    0    0  0.19788039736E+02 -0.56909108351E+02  0.13267893177E+02  0.62500000328E+02  0.99999960847E+01 0.  0.
    3000022    2    3    3    0    0  0.45101694553E+01 -0.26106310323E+02  0.81763345745E+01  0.27727171055E+02  0.25000080860E+00 0.  0.
    1000022    2    1    0    0    0 -0.19788039736E+02  0.56909108351E+02 -0.13267893177E+02  0.62499999672E+02  0.99999919856E+01 0.  0.
    3000022    2    5    5    0    0 -0.12137316398E+02  0.24045023376E+02 -0.24301030769E+01  0.27045249030E+02  0.24999123619E+00 0.  0.
        -13    1    4    4    0    0  0.13334064735E+01 -0.79350599076E+01  0.25135195929E+01  0.84304183944E+01  0.10500000000E+00 0. -1.
         13    1    4    4    0    0  0.31767629818E+01 -0.18171250416E+02  0.56628149817E+01  0.19296752660E+02  0.10500000000E+00 0.  1.
    3000001    1    5    5    0    0 -0.76507233385E+01  0.32864084975E+02 -0.10837790101E+02  0.35454750642E+02  0.10000000000E+01 0.  1.
        -13    1    6    6    0    0 -0.55571021176E+01  0.11095337592E+02 -0.11745017643E+01  0.12465086427E+02  0.10500000000E+00 0. -1.
         13    1    6    6    0    0 -0.65802142799E+01  0.12949685784E+02 -0.12556013126E+01  0.14580162603E+02  0.10500000000E+00 0.  1.
</event>
<event>
11    0  0.3443539E-009  0.9118800E+02  0.7816531E-02  0.1126479E+00
         25   -1    0    0    0    0  0.00000000000E+00  0.00000000000E+00  0.99999998245E-14  0.12500000000E+03  0.12500000000E+03 0.  0.
    3000001    1    3    3    0    0 -0.49491280725E+01  0.26153719567E+01 -0.14799739398E+02  0.15854536429E+02  0.10000000000E+01 0. -1.
    1000022    2    1    0    0    0 -0.32017882366E+02  0.59130949242E+00 -0.52732871885E+02  0.62500000614E+02  0.99999930688E+01 0.  0.
    3000022    2    3    3    0    0 -0.27068754293E+02 -0.20240624643E+01 -0.37933132488E+02  0.46645464185E+02  0.25000166693E+00 0.  0.
    1000022    2    1    0    0    0  0.32017882366E+02 -0.59130949242E+00  0.52732871885E+02  0.62499999386E+02  0.99999853957E+01 0.  0.
    3000022    2    5    5    0    0  0.98285996040E+00 -0.12703875068E+01  0.44824166457E+00  0.16862154227E+01  0.25000748548E+00 0.  0.
        -13    1    4    4    0    0 -0.13481320890E+02 -0.96369354037E+00 -0.18975924766E+02  0.23297456168E+02  0.10500000000E+00 0.  1.
         13    1    4    4    0    0 -0.13587433403E+02 -0.10603689239E+01 -0.18957207722E+02  0.23348008017E+02  0.10500000000E+00 0. -1.
    3000001    1    5    5    0    0  0.31035022405E+02  0.67907801439E+00  0.52284630221E+02  0.60813783963E+02  0.10000000000E+01 0.  1.
        -13    1    6    6    0    0  0.29939441533E+00 -0.40822944575E+00  0.19342546775E+00  0.55202056835E+00  0.10500000000E+00 0. -1.
         13    1    6    6    0    0  0.68346554507E+00 -0.86215806106E+00  0.25481619682E+00  0.11341948544E+01  0.10500000000E+00 0.  1.
</event>
<event>
11    0  0.3443539E-009  0.9118800E+02  0.7816531E-02  0.1126479E+00
         25   -1    0    0    0    0  0.00000000000E+00  0.00000000000E+00  0.99999998245E-14  0.12500000000E+03  0.12500000000E+03 0.  0.
    3000001    1    3    3    0    0 -0.90742343946E+01 -0.11542223412E+02 -0.13416903180E+02  0.19914264789E+02  0.10000000000E+01 0.  1.
    1000022    2    1    0    0    0 -0.36589612918E+02 -0.39137079125E+02 -0.30589855810E+02  0.62500000900E+02  0.10000004902E+02 0.  0.
    3000022    2    3    3    0    0 -0.27515378524E+02 -0.27594855714E+02 -0.17172952629E+02  0.42585736111E+02  0.25000186758E+00 0.  0.
    1000022    2    1    0    0    0  0.36589612918E+02  0.39137079125E+02  0.30589855810E+02  0.62499999100E+02  0.99999936558E+01 0.  0.
    3000022    2    5    5    0    0  0.27027390550E+02  0.30881505574E+02  0.18610781266E+02  0.45061856476E+02  0.25000647084E+00 0.  0.
        -13    1    4    4    0    0 -0.17386019106E+02 -0.17505769766E+02 -0.10836651449E+02  0.26947535603E+02  0.10500000000E+00 0.  1.
         13    1    4    4    0    0 -0.10129359417E+02 -0.10089085948E+02 -0.63363011804E+01  0.15638200508E+02  0.10500000000E+00 0. -1.
    3000001    1    5    5    0    0  0.95622223681E+01  0.82555735514E+01  0.11979074543E+02  0.17438142625E+02  0.10000000000E+01 0. -1.
        -13    1    6    6    0    0  0.20760777109E+02  0.23707284173E+02  0.14284599827E+02  0.34599219735E+02  0.10500000000E+00 0. -1.
         13    1    6    6    0    0  0.62666134407E+01  0.71742214009E+01  0.43261814393E+01  0.10462636741E+02  0.10500000000E+00 0.  1.
</event>
<event>
11    0  0.3443539E-009  0.9118800E+02  0.7816531E-02  0.1126479E+00
         25   -1    0    0    0    0  0.00000000000E+00  0.00000000000E+00  0.99999998245E-14  0.12500000000E+03  0.12500000000E+03 0.  0.
    3000001    1    3    3    0    0 -0.24770916829E+02  0.10437173756E+02 -0.39732756840E+01  0.27190436485E+02  0.10000000000E+01 0.  1.
    1000022    2    1    0    0    0 -0.58254436910E+02  0.20265437778E+02  0.14083656676E+01  0.62500002667E+02  0.99999725711E+01 0.  0.
    3000022    2    3    3    0    0 -0.33483520081E+02  0.98282640216E+01  0.53816413517E+01  0.35309566182E+02  0.25001922359E+00 0.  0.
    1000022    2    1    0    0    0  0.58254436910E+02 -0.20265437778E+02 -0.14083656676E+01  0.62499997333E+02  0.99999392381E+01 0.  0.
    3000022    2    5    5    0    0  0.54504449894E+02 -0.17662784218E+02 -0.34527950170E+01  0.57399418980E+02  0.25000248280E+00 0.  0.
        -13    1    4    4    0    0 -0.11748368014E+02  0.33903100722E+01  0.18954776387E+01  0.12374256093E+02  0.10500000000E+00 0. -1.
         13    1    4    4    0    0 -0.21735152067E+02  0.64379539495E+01  0.34861637130E+01  0.22935310089E+02  0.10500000000E+00 0.  1.
    3000001    1    5    5    0    0  0.37499870161E+01 -0.26026535594E+01  0.20444293493E+01  0.51005783531E+01  0.10000000000E+01 0. -1.
        -13    1    6    6    0    0  0.23996391424E+02 -0.77086945027E+01 -0.15034325541E+01  0.25249200121E+02  0.10500000000E+00 0.  1.
         13    1    6    6    0    0  0.30508058470E+02 -0.99540897156E+01 -0.19493624629E+01  0.32150218859E+02  0.10500000000E+00 0. -1.
</event>
<event>
11    0  0.3443539E-009  0.9118800E+02  0.7816531E-02  0.1126479E+00
         25   -1    0    0    0    0  0.00000000000E+00  0.00000000000E+00  0.99999998245E-14  0.12500000000E+03  0.12500000000E+03 0.  0.
    3000001    1    3    3    0    0  0.11635998235E+02  0.12229305937E+01 -0.72023840177E+01  0.13775570758E+02  0.10000000000E+01 0.  1.
    1000022    2    1    0    0    0  0.52878254332E+02  0.21437961008E+02 -0.23463886665E+02  0.62500001086E+02  0.10000010249E+02 0.  0.
    3000022    2    3    3    0    0  0.41242256097E+02  0.20215030414E+02 -0.16261502647E+02  0.48724430328E+02  0.24999975853E+00 0.  0.
    1000022    2    1    0    0    0 -0.52878254332E+02 -0.21437961008E+02  0.23463886665E+02  0.62499998914E+02  0.99999966771E+01 0.  0.
    3000022    2    5    5    0    0 -0.38257544678E+02 -0.17712276111E+02  0.21268216285E+02  0.47220376958E+02  0.25005252867E+00 0.  0.
        -13    1    4    4    0    0  0.27293218384E+02  0.13330017621E+02 -0.10789597125E+02  0.32234074683E+02  0.10500000000E+00 0.  1.
         13    1    4    4    0    0  0.13949037712E+02  0.68850127932E+01 -0.54719055216E+01  0.16490355645E+02  0.10500000000E+00 0. -1.
    3000001    1    5    5    0    0 -0.14620709653E+02 -0.37256848973E+01  0.21956703800E+01  0.15279621956E+02  0.10000000000E+01 0.  1.
        -13    1    6    6    0    0 -0.18838105091E+02 -0.87930184995E+01  0.10510052147E+02  0.23295141100E+02  0.10500000000E+00 0. -1.
         13    1    6    6    0    0 -0.19419439588E+02 -0.89192576111E+01  0.10758164138E+02  0.23925235858E+02  0.10500000000E+00 0.  1.
</event>
<event>
11    0  0.3443539E-009  0.9118800E+02  0.7816531E-02  0.1126479E+00
         25   -1    0    0    0    0  0.00000000000E+00  0.00000000000E+00  0.99999998245E-14  0.12500000000E+03  0.12500000000E+03 0.  0.
    3000001    1    3    3    0    0  0.31224319519E+02  0.16728477823E+02  0.26423133633E+02  0.44203869635E+02  0.10000000000E+01 0. -1.
    1000022    2    1    0    0    0  0.40402925513E+02  0.28774592355E+02  0.36686186282E+02  0.62500001422E+02  0.10000017933E+02 0.  0.
    3000022    2    3    3    0    0  0.91786059939E+01  0.12046114531E+02  0.10263052649E+02  0.18296131787E+02  0.25001081257E+00 0.  0.
    1000022    2    1    0    0    0 -0.40402925513E+02 -0.28774592355E+02 -0.36686186282E+02  0.62499998578E+02  0.10000000159E+02 0.  0.
    3000022    2    5    5    0    0 -0.64481657133E+01 -0.86843240406E+01 -0.51531738960E+01  0.11983907438E+02  0.25002233191E+00 0.  0.
        -13    1    4    4    0    0  0.46485304866E+01  0.60120810536E+01  0.50999689742E+01  0.91528499834E+01  0.10500000000E+00 0. -1.
         13    1    4    4    0    0  0.45300755074E+01  0.60340334777E+01  0.51630836748E+01  0.91432818039E+01  0.10500000000E+00 0.  1.
    3000001    1    5    5    0    0 -0.33954759800E+02 -0.20090268314E+02 -0.31533012386E+02  0.50516091140E+02  0.10000000000E+01 0. -1.
        -13    1    6    6    0    0 -0.41422263138E+01 -0.55213464528E+01 -0.33404560263E+01  0.76689619213E+01  0.10500000000E+00 0. -1.
         13    1    6    6    0    0 -0.23059393995E+01 -0.31629775878E+01 -0.18127178697E+01  0.43149455165E+01  0.10500000000E+00 0.  1.
</event>
<event>
11    0  0.3443539E-009  0.9118800E+02  0.7816531E-02  0.1126479E+00
         25   -1    0    0    0    0  0.00000000000E+00  0.00000000000E+00  0.99999998245E-14  0.12500000000E+03  0.12500000000E+03 0.  0.
    3000001    1    3    3    0    0  0.14436380145E+01  0.19194622875E+01 -0.82320351245E+00  0.27287525012E+01  0.10000000000E+01 0. -1.
    1000022    2    1    0    0    0  0.17108352334E+02  0.27077641778E+02 -0.52729089382E+02  0.62499989395E+02  0.99998701700E+01 0.  0.
    3000022    2    3    3    0    0  0.15664714320E+02  0.25158179491E+02 -0.51905885870E+02  0.59771236894E+02  0.25000372249E+00 0.  0.
    1000022    2    1    0    0    0 -0.17108352334E+02 -0.27077641778E+02  0.52729089382E+02  0.62500010605E+02  0.10000002733E+02 0.  0.
    3000022    2    5    5    0    0 -0.16612878024E+02 -0.22176360075E+02  0.38700379301E+02  0.47597904590E+02  0.25000182306E+00 0.  0.
        -13    1    4    4    0    0  0.83924297994E+01  0.13432943520E+02 -0.27867439162E+02  0.32054360702E+02  0.10500000000E+00 0. -1.
         13    1    4    4    0    0  0.72722845204E+01  0.11725235971E+02 -0.24038446708E+02  0.27716876192E+02  0.10500000000E+00 0.  1.
    3000001    1    5    5    0    0 -0.49547431013E+00 -0.49012817029E+01  0.14028710082E+02  0.14902106015E+02  0.10000000000E+01 0.  1.
        -13    1    6    6    0    0 -0.11006105528E+02 -0.14607436464E+02  0.25508495783E+02  0.31387990396E+02  0.10500000000E+00 0.  1.
         13    1    6    6    0    0 -0.56067724960E+01 -0.75689236109E+01  0.13191883517E+02  0.16209914194E+02  0.10500000000E+00 0. -1.
</event>
<event>
11    0  0.3443539E-009  0.9118800E+02  0.7816531E-02  0.1126479E+00
         25   -1    0    0    0    0  0.00000000000E+00  0.00000000000E+00  0.99999998245E-14  0.12500000000E+03  0.12500000000E+03 0.  0.
    3000001    1    3    3    0    0 -0.13466713387E+01 -0.24431628280E+02  0.29786427624E+02  0.38560980987E+02  0.10000000000E+01 0. -1.
    1000022    2    1    0    0    0 -0.61489991682E+00 -0.32990020197E+02  0.52129939200E+02  0.62499998752E+02  0.99999874231E+01 0.  0.
    3000022    2    3    3    0    0  0.73177142185E+00 -0.85583919167E+01  0.22343511576E+02  0.23939017764E+02  0.25000069981E+00 0.  0.
    1000022    2    1    0    0    0  0.61489991682E+00  0.32990020197E+02 -0.52129939200E+02  0.62500001248E+02  0.10000003026E+02 0.  0.
    3000022    2    5    5    0    0 -0.38015958129E+00  0.23025544294E+02 -0.27352329208E+02  0.35756574386E+02  0.24997471132E+00 0.  0.
        -13    1    4    4    0    0  0.25748042924E+00 -0.30999648856E+01  0.79326599289E+01  0.85213964238E+01  0.10500000000E+00 0.  1.
         13    1    4    4    0    0  0.47429099260E+00 -0.54584270311E+01  0.14410851647E+02  0.15417621341E+02  0.10500000000E+00 0. -1.
    3000001    1    5    5    0    0  0.99505949811E+00  0.99644759028E+01 -0.24777609992E+02  0.26743426862E+02  0.10000000000E+01 0. -1.
        -13    1    6    6    0    0 -0.27457325311E+00  0.12584434855E+02 -0.14951060299E+02  0.19544529162E+02  0.10500000000E+00 0. -1.
         13    1    6    6    0    0 -0.10558632818E+00  0.10441109439E+02 -0.12401268909E+02  0.16212045224E+02  0.10500000000E+00 0.  1.
</event>
<event>
11    0  0.3443539E-009  0.9118800E+02  0.7816531E-02  0.1126479E+00
         25   -1    0    0    0    0  0.00000000000E+00  0.00000000000E+00  0.99999998245E-14  0.12500000000E+03  0.12500000000E+03 0.  0.
    3000001    1    3    3    0    0  0.23643221295E+02  0.62645650202E+01  0.18331522565E+02  0.30582534356E+02  0.10000000000E+01 0. -1.
    1000022    2    1    0    0    0  0.53175193362E+02  0.74859371822E+01  0.30374488218E+02  0.62500000515E+02  0.10000004263E+02 0.  0.
    3000022    2    3    3    0    0  0.29531972067E+02  0.12213721620E+01  0.12042965654E+02  0.31917466159E+02  0.25000028848E+00 0.  0.
    1000022    2    1    0    0    0 -0.53175193362E+02 -0.74859371822E+01 -0.30374488218E+02  0.62499999485E+02  0.99999978287E+01 0.  0.
    3000022    2    5    5    0    0 -0.35671967330E+02 -0.42518032828E+00 -0.21082684415E+02  0.41439258122E+02  0.25000003458E+00 0.  0.
        -13    1    4    4    0    0  0.11269504984E+02  0.52205508109E+00  0.46230725815E+01  0.12192543180E+02  0.10500000000E+00 0.  1.
         13    1    4    4    0    0  0.18262467083E+02  0.69931708090E+00  0.74198930720E+01  0.19724922979E+02  0.10500000000E+00 0. -1.
    3000001    1    5    5    0    0 -0.17503226031E+02 -0.70607568539E+01 -0.92918038036E+01  0.21060741363E+02  0.10000000000E+01 0. -1.
        -13    1    6    6    0    0 -0.20837634311E+02 -0.22868001118E+00 -0.12386459076E+02  0.24242415137E+02  0.10500000000E+00 0. -1.
         13    1    6    6    0    0 -0.14834333019E+02 -0.19650031709E+00 -0.86962253391E+01  0.17196842985E+02  0.10500000000E+00 0.  1.
</event>
<event>
11    0  0.3443539E-009  0.9118800E+02  0.7816531E-02  0.1126479E+00
         25   -1    0    0    0    0  0.00000000000E+00  0.00000000000E+00  0.99999998245E-14  0.12500000000E+03  0.12500000000E+03 0.  0.
    3000001    1    3    3    0    0  0.19894114889E+01  0.14783553306E+01 -0.41021569706E+01  0.48960171943E+01  0.10000000000E+01 0.  1.
    1000022    2    1    0    0    0 -0.26630676798E+01  0.62951970073E+01 -0.61314995679E+02  0.62500000864E+02  0.99999989053E+01 0.  0.
    3000022    2    3    3    0    0 -0.46524791687E+01  0.48168416767E+01 -0.57212838708E+02  0.57603983670E+02  0.24999086885E+00 0.  0.
    1000022    2    1    0    0    0  0.26630676798E+01 -0.62951970073E+01  0.61314995679E+02  0.62499999136E+02  0.99999881027E+01 0.  0.
    3000022    2    5    5    0    0  0.54927525120E+01 -0.14801155463E+01  0.19916376135E+02  0.20714381684E+02  0.24999599352E+00 0.  0.
        -13    1    4    4    0    0 -0.15144275575E+01  0.16241879330E+01 -0.19292431390E+02  0.19420103275E+02  0.10500000000E+00 0.  1.
         13    1    4    4    0    0 -0.31380516112E+01  0.31926537437E+01 -0.37920407319E+02  0.38183880395E+02  0.10500000000E+00 0. -1.
    3000001    1    5    5    0    0 -0.28296848321E+01 -0.48150814611E+01  0.41398619544E+02  0.41785617452E+02  0.10000000000E+01 0. -1.
        -13    1    6    6    0    0  0.40523088535E+01 -0.10843685148E+01  0.14794133673E+02  0.15377726694E+02  0.10500000000E+00 0.  1.
         13    1    6    6    0    0  0.14404436585E+01 -0.39574703148E+00  0.51222424616E+01  0.53366549899E+01  0.10500000000E+00 0. -1.
</event>
<event>
11    0  0.3443539E-009  0.9118800E+02  0.7816531E-02  0.1126479E+00
         25   -1    0    0    0    0  0.00000000000E+00  0.00000000000E+00  0.99999998245E-14  0.12500000000E+03  0.12500000000E+03 0.  0.
    3000001    1    3    3    0    0 -0.96727593916E+01  0.30961281917E+02 -0.94581805991E+01  0.33802669013E+02  0.10000000000E+01 0. -1.
    1000022    2    1    0    0    0 -0.15413824693E+02  0.59071796210E+02 -0.88987697536E+01  0.62499990912E+02  0.99998830867E+01 0.  0.
    3000022    2    3    3    0    0 -0.57410653011E+01  0.28110514294E+02  0.55941084552E+00  0.28697321899E+02  0.24999808995E+00 0.  0.
    1000022    2    1    0    0    0  0.15413824693E+02 -0.59071796210E+02  0.88987697536E+01  0.62500009088E+02  0.99999966823E+01 0.  0.
    3000022    2    5    5    0    0  0.10575346040E+02 -0.24476692221E+02  0.66507030780E+01  0.27481643914E+02  0.24998959453E+00 0.  0.
        -13    1    4    4    0    0 -0.32043772183E+01  0.15880510635E+02  0.26216491599E+00  0.16203036963E+02  0.10500000000E+00 0.  1.
         13    1    4    4    0    0 -0.25366880828E+01  0.12230003659E+02  0.29724592953E+00  0.12494284936E+02  0.10500000000E+00 0. -1.
    3000001    1    5    5    0    0  0.48384786528E+01 -0.34595103989E+02  0.22480666755E+01  0.35018365174E+02  0.10000000000E+01 0. -1.
        -13    1    6    6    0    0  0.39213318447E+01 -0.89297751309E+01  0.24217865860E+01  0.10049567284E+02  0.10500000000E+00 0. -1.
         13    1    6    6    0    0  0.66540141952E+01 -0.15546917090E+02  0.42289164921E+01  0.17432076630E+02  0.10500000000E+00 0.  1.
</event>
<event>
11    0  0.3443539E-009  0.9118800E+02  0.7816531E-02  0.1126479E+00
         25   -1    0    0    0    0  0.00000000000E+00  0.00000000000E+00  0.99999998245E-14  0.12500000000E+03  0.12500000000E+03 0.  0.
    3000001    1    3    3    0    0  0.19322895746E+01  0.21828799776E+01 -0.44232975831E+00  0.31135773014E+01  0.10000000000E+01 0. -1.
    1000022    2    1    0    0    0  0.58093570869E+02  0.11037602046E+02 -0.17594269312E+02  0.62499999588E+02  0.10000000028E+02 0.  0.
    3000022    2    3    3    0    0  0.56161281295E+02  0.88547220686E+01 -0.17151939553E+02  0.59386422286E+02  0.25000386712E+00 0.  0.
    1000022    2    1    0    0    0 -0.58093570869E+02 -0.11037602046E+02  0.17594269312E+02  0.62500000412E+02  0.10000005181E+02 0.  0.
    3000022    2    5    5    0    0 -0.40796044596E+02 -0.99350197748E+01  0.82795379519E+01  0.42797606569E+02  0.25001347087E+00 0.  0.
        -13    1    4    4    0    0  0.42440849951E+02  0.66720745656E+01 -0.12947924162E+02  0.44870949273E+02  0.10500000000E+00 0. -1.
         13    1    4    4    0    0  0.13720431344E+02  0.21826475030E+01 -0.42040153912E+01  0.14515473013E+02  0.10500000000E+00 0.  1.
    3000001    1    5    5    0    0 -0.17297526273E+02 -0.11025822714E+01  0.93147313599E+01  0.19702393843E+02  0.10000000000E+01 0. -1.
        -13    1    6    6    0    0 -0.15940615426E+02 -0.39251783861E+01  0.32838839055E+01  0.16742316567E+02  0.10500000000E+00 0.  1.
         13    1    6    6    0    0 -0.24855429170E+02 -0.60098413887E+01  0.49956540464E+01  0.26055290002E+02  0.10500000000E+00 0. -1.
</event>
<event>
11    0  0.3443539E-009  0.9118800E+02  0.7816531E-02  0.1126479E+00
         25   -1    0    0    0    0  0.00000000000E+00  0.00000000000E+00  0.99999998245E-14  0.12500000000E+03  0.12500000000E+03 0.  0.
    3000001    1    3    3    0    0 -0.13718470391E+02  0.25145113647E+02  0.48591229843E+02  0.56414366857E+02  0.10000000000E+01 0. -1.
    1000022    2    1    0    0    0 -0.17126318214E+02  0.29199064037E+02  0.51578619146E+02  0.62500000331E+02  0.99999986120E+01 0.  0.
    3000022    2    3    3    0    0 -0.34078478229E+01  0.40539503898E+01  0.29873893023E+01  0.60856334742E+01  0.24999878377E+00 0.  0.
    1000022    2    1    0    0    0  0.17126318214E+02 -0.29199064037E+02 -0.51578619146E+02  0.62499999669E+02  0.99999944705E+01 0.  0.
    3000022    2    5    5    0    0  0.84689989313E+01 -0.12799709816E+02 -0.14922621441E+02  0.21408027657E+02  0.25000648931E+00 0.  0.
        -13    1    4    4    0    0 -0.24425450542E+01  0.29494443644E+01  0.21890308419E+01  0.44122703257E+01  0.10500000000E+00 0.  1.
         13    1    4    4    0    0 -0.96530276868E+00  0.11045060254E+01  0.79835846043E+00  0.16733631485E+01  0.10500000000E+00 0. -1.
    3000001    1    5    5    0    0  0.86573192825E+01 -0.16399354221E+02 -0.36655997705E+02  0.41091972011E+02  0.10000000000E+01 0. -1.
        -13    1    6    6    0    0  0.44236468538E+01 -0.68076639951E+01 -0.78997367364E+01  0.11328274629E+02  0.10500000000E+00 0.  1.
         13    1    6    6    0    0  0.40453520775E+01 -0.59920458209E+01 -0.70228847042E+01  0.10079753029E+02  0.10500000000E+00 0. -1.
</event>
<event>
11    0  0.3443539E-009  0.9118800E+02  0.7816531E-02  0.1126479E+00
         25   -1    0    0    0    0  0.00000000000E+00  0.00000000000E+00  0.99999998245E-14  0.12500000000E+03  0.12500000000E+03 0.  0.
    3000001    1    3    3    0    0 -0.17657694435E+01 -0.10459444241E+02  0.35463141517E+02  0.37029074007E+02  0.10000000000E+01 0. -1.
    1000022    2    1    0    0    0 -0.20983404063E+01 -0.95533084391E+01  0.60914542955E+02  0.62499999006E+02  0.99999798865E+01 0.  0.
    3000022    2    3    3    0    0 -0.33257096288E+00  0.90613580203E+00  0.25451401438E+02  0.25470924999E+02  0.24999921051E+00 0.  0.
    1000022    2    1    0    0    0  0.20983404063E+01  0.95533084391E+01 -0.60914542955E+02  0.62500000994E+02  0.99999923168E+01 0.  0.
    3000022    2    5    5    0    0 -0.47638826923E+00  0.55028216902E+01 -0.10675815056E+02  0.12022625354E+02  0.25000191653E+00 0.  0.
        -13    1    4    4    0    0 -0.12021408296E+00  0.37171795245E+00  0.12027957701E+02  0.12034758706E+02  0.10500000000E+00 0.  1.
         13    1    4    4    0    0 -0.21235687992E+00  0.53441784958E+00  0.13423443737E+02  0.13436166293E+02  0.10500000000E+00 0. -1.
    3000001    1    5    5    0    0  0.25747286756E+01  0.40504867489E+01 -0.50238727899E+02  0.50477375641E+02  0.10000000000E+01 0. -1.
        -13    1    6    6    0    0 -0.23750573287E+00  0.22307965294E+01 -0.42378055258E+01  0.47961320669E+01  0.10500000000E+00 0.  1.
         13    1    6    6    0    0 -0.23888253636E+00  0.32720251608E+01 -0.64380095300E+01  0.72264932870E+01  0.10500000000E+00 0. -1.
</event>
<event>
11    0  0.3443539E-009  0.9118800E+02  0.7816531E-02  0.1126479E+00
         25   -1    0    0    0    0  0.00000000000E+00  0.00000000000E+00  0.99999998245E-14  0.12500000000E+03  0.12500000000E+03 0.  0.
    3000001    1    3    3    0    0  0.20857360581E+01  0.90410983836E+01  0.32773100697E+01  0.98910321089E+01  0.10000000000E+01 0. -1.
    1000022    2    1    0    0    0  0.33588662160E+02  0.48713873301E+02  0.17464545048E+02  0.62500000544E+02  0.10000002830E+02 0.  0.
    3000022    2    3    3    0    0  0.31502926101E+02  0.39672774917E+02  0.14187234979E+02  0.52608968435E+02  0.25000173937E+00 0.  0.
    1000022    2    1    0    0    0 -0.33588662160E+02 -0.48713873301E+02 -0.17464545048E+02  0.62499999456E+02  0.99999960286E+01 0.  0.
    3000022    2    5    5    0    0 -0.90306973752E+01 -0.80685641272E+01 -0.71236593792E+00  0.12133638687E+02  0.25000078045E+00 0.  0.
        -13    1    4    4    0    0  0.16100374167E+02  0.20206769084E+02  0.72900871497E+01  0.26845706561E+02  0.10500000000E+00 0. -1.
         13    1    4    4    0    0  0.15402551935E+02  0.19466005834E+02  0.68971478289E+01  0.25763261874E+02  0.10500000000E+00 0.  1.
    3000001    1    5    5    0    0 -0.24557964784E+02 -0.40645309174E+02 -0.16752179110E+02  0.50366360769E+02  0.10000000000E+01 0.  1.
        -13    1    6    6    0    0 -0.48016391381E+01 -0.43519599906E+01 -0.33217700114E+00  0.64897350279E+01  0.10500000000E+00 0. -1.
         13    1    6    6    0    0 -0.42290582371E+01 -0.37166041366E+01 -0.38018893678E+00  0.56439036587E+01  0.10500000000E+00 0.  1.
</event>
<event>
11    0  0.3443539E-009  0.9118800E+02  0.7816531E-02  0.1126479E+00
         25   -1    0    0    0    0  0.00000000000E+00  0.00000000000E+00  0.99999998245E-14  0.12500000000E+03  0.12500000000E+03 0.  0.
    3000001    1    3    3    0    0  0.38356364908E+01  0.15420422740E+01  0.60577163704E+01  0.74017517716E+01  0.10000000000E+01 0. -1.
    1000022    2    1    0    0    0  0.18726432470E+02 -0.80568946626E+01  0.58229345824E+02  0.62499998611E+02  0.10000014330E+02 0.  0.
    3000022    2    3    3    0    0  0.14890795979E+02 -0.95989369366E+01  0.52171629454E+02  0.55098246839E+02  0.24997938337E+00 0.  0.
    1000022    2    1    0    0    0 -0.18726432470E+02  0.80568946626E+01 -0.58229345824E+02  0.62500001389E+02  0.10000031698E+02 0.  0.
    3000022    2    5    5    0    0 -0.17694539209E+02  0.38708372801E+01 -0.43527494903E+02  0.47146425239E+02  0.25000240252E+00 0.  0.
        -13    1    4    4    0    0  0.71942848530E+01 -0.46408244351E+01  0.25421614271E+02  0.26824699124E+02  0.10500000000E+00 0.  1.
         13    1    4    4    0    0  0.76965111259E+01 -0.49581125014E+01  0.26750015183E+02  0.28273547715E+02  0.10500000000E+00 0. -1.
    3000001    1    5    5    0    0 -0.10318932606E+01  0.41860573825E+01 -0.14701850921E+02  0.15353576151E+02  0.10000000000E+01 0. -1.
        -13    1    6    6    0    0 -0.52311873899E+01  0.11591650447E+01 -0.12987688418E+02  0.14049913186E+02  0.10500000000E+00 0. -1.
         13    1    6    6    0    0 -0.12463351819E+02  0.27116722354E+01 -0.30539806485E+02  0.33096512052E+02  0.10500000000E+00 0.  1.
</event>
<event>
11    0  0.3443539E-009  0.9118800E+02  0.7816531E-02  0.1126479E+00
         25   -1    0    0    0    0  0.00000000000E+00  0.00000000000E+00  0.99999998245E-14  0.12500000000E+03  0.12500000000E+03 0.  0.
    3000001    1    3    3    0    0  0.13662715453E+02  0.38535149029E+02 -0.50577313459E+01  0.41209321161E+02  0.10000000000E+01 0.  1.
    1000022    2    1    0    0    0  0.24244824938E+02  0.56705041346E+02 -0.17253973428E+01  0.62499999378E+02  0.99999837975E+01 0.  0.
    3000022    2    3    3    0    0  0.10582109485E+02  0.18169892317E+02  0.33323340031E+01  0.21290678217E+02  0.25000208541E+00 0.  0.
    1000022    2    1    0    0    0 -0.24244824938E+02 -0.56705041346E+02  0.17253973428E+01  0.62500000622E+02  0.99999915738E+01 0.  0.
    3000022    2    5    5    0    0 -0.13718439482E+02 -0.19824438713E+02  0.57589844712E+00  0.24116345389E+02  0.25000760055E+00 0.  0.
        -13    1    4    4    0    0  0.38239291204E+01  0.66807836980E+01  0.12082993294E+01  0.77927092212E+01  0.10500000000E+00 0. -1.
         13    1    4    4    0    0  0.67581803649E+01  0.11489108619E+02  0.21240346738E+01  0.13497968995E+02  0.10500000000E+00 0.  1.
    3000001    1    5    5    0    0 -0.10526385456E+02 -0.36880602633E+02  0.11494988957E+01  0.38383655233E+02  0.10000000000E+01 0.  1.
        -13    1    6    6    0    0 -0.59638935647E+01 -0.86995863248E+01  0.20481081615E+00  0.10550061665E+02  0.10500000000E+00 0.  1.
         13    1    6    6    0    0 -0.77545459176E+01 -0.11124852388E+02  0.37108763098E+00  0.13566283724E+02  0.10500000000E+00 0. -1.
</event>
<event>
11    0  0.3443539E-009  0.9118800E+02  0.7816531E-02  0.1126479E+00
         25   -1    0    0    0    0  0.00000000000E+00  0.00000000000E+00  0.99999998245E-14  0.12500000000E+03  0.12500000000E+03 0.  0.
    3000001    1    3    3    0    0  0.31158880205E+01 -0.36880941350E+02  0.31901234050E+02  0.48873319172E+02  0.10000000000E+01 0. -1.
    1000022    2    1    0    0    0 -0.10417334069E+01 -0.45788977552E+02  0.41334420854E+02  0.62500000237E+02  0.10000000427E+02 0.  0.
    3000022    2    3    3    0    0 -0.41576214274E+01 -0.89080362020E+01  0.94331868042E+01  0.13626681065E+02  0.24999729589E+00 0.  0.
    1000022    2    1    0    0    0  0.10417334069E+01  0.45788977552E+02 -0.41334420854E+02  0.62499999763E+02  0.99999974628E+01 0.  0.
    3000022    2    5    5    0    0  0.15852236588E+01  0.42925679670E+02 -0.41032267584E+02  0.59404009935E+02  0.25000822702E+00 0.  0.
        -13    1    4    4    0    0 -0.10910775343E+01 -0.22815661322E+01  0.24020714038E+01  0.34895510071E+01  0.10500000000E+00 0.  1.
         13    1    4    4    0    0 -0.30665438930E+01 -0.66264700698E+01  0.70311154003E+01  0.10137130058E+02  0.10500000000E+00 0. -1.
    3000001    1    5    5    0    0 -0.54349025194E+00  0.28632978816E+01 -0.30215327026E+00  0.30959898274E+01  0.10000000000E+01 0.  1.
        -13    1    6    6    0    0  0.11550444298E+01  0.32000786640E+02 -0.30603221829E+02  0.44293935077E+02  0.10500000000E+00 0. -1.
         13    1    6    6    0    0  0.43017922902E+00  0.10924893030E+02 -0.10429045755E+02  0.15110074859E+02  0.10500000000E+00 0.  1.
</event>
<event>
11    0  0.3443539E-009  0.9118800E+02  0.7816531E-02  0.1126479E+00
         25   -1    0    0    0    0  0.00000000000E+00  0.00000000000E+00  0.99999998245E-14  0.12500000000E+03  0.12500000000E+03 0.  0.
    3000001    1    3    3    0    0  0.79144915716E+01  0.21414311567E+02  0.10958444680E+02  0.25343626941E+02  0.10000000000E+01 0.  1.
    1000022    2    1    0    0    0  0.13583039766E+02  0.48045963095E+02  0.36239985948E+02  0.62500000896E+02  0.99999995702E+01 0.  0.
    3000022    2    3    3    0    0  0.56685481949E+01  0.26631651528E+02  0.25281541268E+02  0.37156373954E+02  0.24998959653E+00 0.  0.
    1000022    2    1    0    0    0 -0.13583039766E+02 -0.48045963095E+02 -0.36239985948E+02  0.62499999104E+02  0.99999883745E+01 0.  0.
    3000022    2    5    5    0    0 -0.12226293519E+02 -0.46718057373E+02 -0.36200469919E+02  0.60353920005E+02  0.24999933267E+00 0.  0.
        -13    1    4    4    0    0  0.40777767174E+01  0.19056591163E+02  0.18142364500E+02  0.26625896123E+02  0.10500000000E+00 0.  1.
         13    1    4    4    0    0  0.15907714775E+01  0.75750603644E+01  0.71391767683E+01  0.10530477831E+02  0.10500000000E+00 0. -1.
    3000001    1    5    5    0    0 -0.13567462470E+01 -0.13279057223E+01 -0.39516029424E-01  0.21460790998E+01  0.10000000000E+01 0. -1.
        -13    1    6    6    0    0 -0.73270327440E+01 -0.27898492335E+02 -0.21549885754E+02  0.36005831256E+02  0.10500000000E+00 0.  1.
         13    1    6    6    0    0 -0.48992607754E+01 -0.18819565038E+02 -0.14650584164E+02  0.24348088749E+02  0.10500000000E+00 0. -1.
</event>
<event>
11    0  0.3443539E-009  0.9118800E+02  0.7816531E-02  0.1126479E+00
         25   -1    0    0    0    0  0.00000000000E+00  0.00000000000E+00  0.99999998245E-14  0.12500000000E+03  0.12500000000E+03 0.  0.
    3000001    1    3    3    0    0 -0.13467261244E+02  0.16353370871E+02  0.14184485348E+02  0.25514691628E+02  0.10000000000E+01 0. -1.
    1000022    2    1    0    0    0 -0.22109383791E+02  0.42527595835E+02  0.38843644995E+02  0.62499999385E+02  0.99999953762E+01 0.  0.
    3000022    2    3    3    0    0 -0.86421225463E+01  0.26174224964E+02  0.24659159647E+02  0.36985307757E+02  0.25000167662E+00 0.  0.
    1000022    2    1    0    0    0  0.22109383791E+02 -0.42527595835E+02 -0.38843644995E+02  0.62500000615E+02  0.10000003064E+02 0.  0.
    3000022    2    5    5    0    0  0.22387551988E+02 -0.37410860329E+02 -0.36086793626E+02  0.56595884317E+02  0.24998581750E+00 0.  0.
        -13    1    4    4    0    0 -0.47224265914E+01  0.14484668161E+02  0.13675222204E+02  0.20472656203E+02  0.10500000000E+00 0. -1.
         13    1    4    4    0    0 -0.39196959550E+01  0.11689556803E+02  0.10983937443E+02  0.16512651555E+02  0.10500000000E+00 0.  1.
    3000001    1    5    5    0    0 -0.27816819694E+00 -0.51167355066E+01 -0.27568513684E+01  0.59041162977E+01  0.10000000000E+01 0. -1.
        -13    1    6    6    0    0  0.90477032329E+01 -0.15032844410E+02 -0.14464304406E+02  0.22739271576E+02  0.10500000000E+00 0.  1.
         13    1    6    6    0    0  0.13339848755E+02 -0.22378015919E+02 -0.21622489220E+02  0.33856612742E+02  0.10500000000E+00 0. -1.
</event>
<event>
11    0  0.3443539E-009  0.9118800E+02  0.7816531E-02  0.1126479E+00
         25   -1    0    0    0    0  0.00000000000E+00  0.00000000000E+00  0.99999998245E-14  0.12500000000E+03  0.12500000000E+03 0.  0.
    3000001    1    3    3    0    0  0.22225829068E+02  0.13400226361E+02  0.20218713694E+02  0.32914281516E+02  0.10000000000E+01 0.  1.
    1000022    2    1    0    0    0  0.34871698168E+02  0.25156443610E+02  0.44242152093E+02  0.62500000765E+02  0.10000004275E+02 0.  0.
    3000022    2    3    3    0    0  0.12645869101E+02  0.11756217249E+02  0.24023438399E+02  0.29585719248E+02  0.25008324169E+00 0.  0.
    1000022    2    1    0    0    0 -0.34871698168E+02 -0.25156443610E+02 -0.44242152093E+02  0.62499999235E+02  0.99999947174E+01 0.  0.
    3000022    2    5    5    0    0 -0.28391697501E+02 -0.20819862670E+02 -0.30104717117E+02  0.46323985802E+02  0.24999856220E+00 0.  0.
        -13    1    4    4    0    0  0.86835075470E+01  0.80964174008E+01  0.16439100796E+02  0.20278321874E+02  0.10500000000E+00 0. -1.
         13    1    4    4    0    0  0.39623615536E+01  0.36597998483E+01  0.75843376025E+01  0.93073973741E+01  0.10500000000E+00 0.  1.
    3000001    1    5    5    0    0 -0.64800006669E+01 -0.43365809402E+01 -0.14137434976E+02  0.16176013434E+02  0.10000000000E+01 0.  1.
        -13    1    6    6    0    0 -0.20850656217E+02 -0.15250303322E+02 -0.22071467862E+02  0.33977674062E+02  0.10500000000E+00 0.  1.
         13    1    6    6    0    0 -0.75410412839E+01 -0.55695593480E+01 -0.80332492549E+01  0.12346311739E+02  0.10500000000E+00 0. -1.
</event>
<event>
11    0  0.3443539E-009  0.9118800E+02  0.7816531E-02  0.1126479E+00
         25   -1    0    0    0    0  0.00000000000E+00  0.00000000000E+00  0.99999998245E-14  0.12500000000E+03  0.12500000000E+03 0.  0.
    3000001    1    3    3    0    0  0.13249100719E+02  0.30662984792E+02  0.25119887120E+01  0.33512197682E+02  0.10000000000E+01 0. -1.
    1000022    2    1    0    0    0  0.31414150600E+02  0.53097891562E+02 -0.12169874004E+00  0.62500003665E+02  0.10000035065E+02 0.  0.
    3000022    2    3    3    0    0  0.18165049881E+02  0.22434906770E+02 -0.26336874520E+01  0.28987805982E+02  0.25001425640E+00 0.  0.
    1000022    2    1    0    0    0 -0.31414150600E+02 -0.53097891562E+02  0.12169874004E+00  0.62499996335E+02  0.99999892536E+01 0.  0.
    3000022    2    5    5    0    0 -0.89039440730E+00 -0.51709039724E+00 -0.12996134961E+01  0.16768060891E+01  0.24999748380E+00 0.  0.
        -13    1    4    4    0    0  0.74184439635E+01  0.92373864563E+01 -0.11242593419E+01  0.11901159752E+02  0.10500000000E+00 0. -1.
         13    1    4    4    0    0  0.10746605918E+02  0.13197520313E+02 -0.15094281102E+01  0.17086646230E+02  0.10500000000E+00 0.  1.
    3000001    1    5    5    0    0 -0.30523756192E+02 -0.52580801165E+02  0.14213122361E+01  0.60823190246E+02  0.10000000000E+01 0. -1.
        -13    1    6    6    0    0 -0.29854466998E+00 -0.24017816247E+00 -0.51178617205E+00  0.64789239508E+00  0.10500000000E+00 0. -1.
         13    1    6    6    0    0 -0.59184973731E+00 -0.27691223477E+00 -0.78782732404E+00  0.10289136941E+01  0.10500000000E+00 0.  1.
</event>
<event>
11    0  0.3443539E-009  0.9118800E+02  0.7816531E-02  0.1126479E+00
         25   -1    0    0    0    0  0.00000000000E+00  0.00000000000E+00  0.99999998245E-14  0.12500000000E+03  0.12500000000E+03 0.  0.
    3000001    1    3    3    0    0  0.40821722680E+01  0.96668775285E-02 -0.75621521336E-01  0.42035630706E+01  0.10000000000E+01 0.  1.
    1000022    2    1    0    0    0  0.52315073361E+02 -0.29807260153E+02  0.13450287296E+02  0.62500000316E+02  0.10000007627E+02 0.  0.
    3000022    2    3    3    0    0  0.48232901093E+02 -0.29816927031E+02  0.13525908818E+02  0.58296437245E+02  0.25000151264E+00 0.  0.
    1000022    2    1    0    0    0 -0.52315073361E+02  0.29807260153E+02 -0.13450287296E+02  0.62499999684E+02  0.10000003677E+02 0.  0.
    3000022    2    5    5    0    0 -0.29287835202E+02  0.11055546128E+02 -0.61793639768E+01  0.31910020899E+02  0.25000730548E+00 0.  0.
        -13    1    4    4    0    0  0.33728771049E+02 -0.20884394115E+02  0.94258208824E+01  0.40775544611E+02  0.10500000000E+00 0. -1.
         13    1    4    4    0    0  0.14504130044E+02 -0.89325329157E+01  0.41000879352E+01  0.17520892634E+02  0.10500000000E+00 0.  1.
    3000001    1    5    5    0    0 -0.23027238159E+02  0.18751714025E+02 -0.72709233195E+01  0.30589978785E+02  0.10000000000E+01 0.  1.
        -13    1    6    6    0    0 -0.71713169153E+01  0.27102654242E+01 -0.14900456004E+01  0.78105432501E+01  0.10500000000E+00 0. -1.
         13    1    6    6    0    0 -0.22116518286E+02  0.83452807041E+01 -0.46893183764E+01  0.24099477649E+02  0.10500000000E+00 0.  1.
</event>
<event>
11    0  0.3443539E-009  0.9118800E+02  0.7816531E-02  0.1126479E+00
         25   -1    0    0    0    0  0.00000000000E+00  0.00000000000E+00  0.99999998245E-14  0.12500000000E+03  0.12500000000E+03 0.  0.
    3000001    1    3    3    0    0  0.12651836274E+02  0.93029930956E+01  0.55024829968E+01  0.16670091805E+02  0.10000000000E+01 0. -1.
    1000022    2    1    0    0    0  0.37139752216E+02  0.46587773709E+02  0.16014621912E+02  0.62499999697E+02  0.99999996660E+01 0.  0.
    3000022    2    3    3    0    0  0.24487915942E+02  0.37284780614E+02  0.10512138916E+02  0.45829907893E+02  0.25000058552E+00 0.  0.
    1000022    2    1    0    0    0 -0.37139752216E+02 -0.46587773709E+02 -0.16014621912E+02  0.62500000303E+02  0.10000003448E+02 0.  0.
    3000022    2    5    5    0    0 -0.10991156047E+02 -0.90795189468E+01 -0.70068220150E+01  0.15887140318E+02  0.24999435846E+00 0.  0.
        -13    1    4    4    0    0  0.12488530735E+02  0.18922074919E+02  0.52967790809E+01  0.23282508730E+02  0.10500000000E+00 0.  1.
         13    1    4    4    0    0  0.11999385207E+02  0.18362705695E+02  0.52153598347E+01  0.22547399163E+02  0.10500000000E+00 0. -1.
    3000001    1    5    5    0    0 -0.26148596169E+02 -0.37508254763E+02 -0.90077998974E+01  0.46612859985E+02  0.10000000000E+01 0. -1.
        -13    1    6    6    0    0 -0.82915595327E+01 -0.68408384819E+01 -0.53081116182E+01  0.11988915905E+02  0.10500000000E+00 0.  1.
         13    1    6    6    0    0 -0.26995965141E+01 -0.22386804648E+01 -0.16987103968E+01  0.38982244131E+01  0.10500000000E+00 0. -1.
</event>
<event>
11    0  0.3443539E-009  0.9118800E+02  0.7816531E-02  0.1126479E+00
         25   -1    0    0    0    0  0.00000000000E+00  0.00000000000E+00  0.99999998245E-14  0.12500000000E+03  0.12500000000E+03 0.  0.
    3000001    1    3    3    0    0  0.20674020785E+02 -0.30973853149E+02 -0.17378042323E+02  0.41107068362E+02  0.10000000000E+01 0. -1.
    1000022    2    1    0    0    0  0.24767257081E+02 -0.48943244231E+02 -0.28238124758E+02  0.62499998997E+02  0.10000000279E+02 0.  0.
    3000022    2    3    3    0    0  0.40932362955E+01 -0.17969391083E+02 -0.10860082436E+02  0.21392930636E+02  0.24998283897E+00 0.  0.
    1000022    2    1    0    0    0 -0.24767257081E+02  0.48943244231E+02  0.28238124758E+02  0.62500001003E+02  0.10000012814E+02 0.  0.
    3000022    2    5    5    0    0 -0.65373291922E+01  0.15558892287E+02  0.13801732465E+02  0.21802892407E+02  0.24999226082E+00 0.  0.
        -13    1    4    4    0    0  0.23948022798E+01 -0.10227841579E+02 -0.62089493277E+01  0.12202700442E+02  0.10500000000E+00 0.  1.
         13    1    4    4    0    0  0.16984340156E+01 -0.77415495033E+01 -0.46511331080E+01  0.91902301933E+01  0.10500000000E+00 0. -1.
    3000001    1    5    5    0    0 -0.18229927889E+02  0.33384351944E+02  0.14436392293E+02  0.40697108595E+02  0.10000000000E+01 0.  1.
        -13    1    6    6    0    0 -0.46220847979E+01  0.10952334988E+02  0.97735269907E+01  0.15389937115E+02  0.10500000000E+00 0. -1.
         13    1    6    6    0    0 -0.19152443943E+01  0.46065572993E+01  0.40282054742E+01  0.64129552925E+01  0.10500000000E+00 0.  1.
</event>
<event>
11    0  0.3443539E-009  0.9118800E+02  0.7816531E-02  0.1126479E+00
         25   -1    0    0    0    0  0.00000000000E+00  0.00000000000E+00  0.99999998245E-14  0.12500000000E+03  0.12500000000E+03 0.  0.
    3000001    1    3    3    0    0  0.25957193522E+02 -0.72852828714E+01  0.34959011977E+01  0.27204274797E+02  0.10000000000E+01 0. -1.
    1000022    2    1    0    0    0  0.60539052571E+02 -0.57721032290E+01  0.10390160619E+02  0.62499996881E+02  0.10000005526E+02 0.  0.
    3000022    2    3    3    0    0  0.34581859049E+02  0.15131796424E+01  0.68942594217E+01  0.35295722084E+02  0.24999303258E+00 0.  0.
    1000022    2    1    0    0    0 -0.60539052571E+02  0.57721032290E+01 -0.10390160619E+02  0.62500003119E+02  0.10000044518E+02 0.  0.
    3000022    2    5    5    0    0 -0.56479532120E+02  0.59279899717E+01 -0.11951652533E+02  0.58034326915E+02  0.24997717167E+00 0.  0.
        -13    1    4    4    0    0  0.16192008545E+02  0.68573601705E+00  0.31632248968E+01  0.16512673659E+02  0.10500000000E+00 0. -1.
         13    1    4    4    0    0  0.18389850504E+02  0.82744362536E+00  0.37310345249E+01  0.18783048425E+02  0.10500000000E+00 0.  1.
    3000001    1    5    5    0    0 -0.40595204508E+01 -0.15588674277E+00  0.15614919136E+01  0.44656762045E+01  0.10000000000E+01 0. -1.
        -13    1    6    6    0    0 -0.27844661421E+02  0.29620397091E+01 -0.59495223467E+01  0.28627027265E+02  0.10500000000E+00 0. -1.
         13    1    6    6    0    0 -0.28634870699E+02  0.29659502626E+01 -0.60021301863E+01  0.29407299650E+02  0.10500000000E+00 0.  1.
</event>
<event>
11    0  0.3443539E-009  0.9118800E+02  0.7816531E-02  0.1126479E+00
         25   -1    0    0    0    0  0.00000000000E+00  0.00000000000E+00  0.99999998245E-14  0.12500000000E+03  0.12500000000E+03 0.  0.
    3000001    1    3    3    0    0  0.22886743122E+00 -0.49908413295E+01 -0.61979248959E+01  0.80234126463E+01  0.10000000000E+01 0. -1.
    1000022    2    1    0    0    0 -0.22336836202E+02 -0.39604112011E+02 -0.41699281735E+02  0.62499997765E+02  0.99999841866E+01 0.  0.
    3000022    2    3    3    0    0 -0.22565703633E+02 -0.34613270681E+02 -0.35501356839E+02  0.54476585119E+02  0.25000212540E+00 0.  0.
    1000022    2    1    0    0    0  0.22336836202E+02  0.39604112011E+02  0.41699281735E+02  0.62500002235E+02  0.10000012127E+02 0.  0.
    3000022    2    5    5    0    0  0.50896840388E+01  0.10771855288E+02  0.17123913624E+02  0.20862134816E+02  0.25000261895E+00 0.  0.
        -13    1    4    4    0    0 -0.12888803696E+02 -0.19830549661E+02 -0.20246397052E+02  0.31133576395E+02  0.10500000000E+00 0.  1.
         13    1    4    4    0    0 -0.96768999365E+01 -0.14782721021E+02 -0.15254959787E+02  0.23343008723E+02  0.10500000000E+00 0. -1.
    3000001    1    5    5    0    0  0.17247152163E+02  0.28832256722E+02  0.24575368111E+02  0.41637867419E+02  0.10000000000E+01 0. -1.
        -13    1    6    6    0    0  0.32041033955E+01  0.67145524569E+01  0.10599455904E+02  0.12950327552E+02  0.10500000000E+00 0. -1.
         13    1    6    6    0    0  0.18855806433E+01  0.40573028316E+01  0.65244577205E+01  0.79118072636E+01  0.10500000000E+00 0.  1.
</event>
<event>
11    0  0.3443539E-009  0.9118800E+02  0.7816531E-02  0.1126479E+00
         25   -1    0    0    0    0  0.00000000000E+00  0.00000000000E+00  0.99999998245E-14  0.12500000000E+03  0.12500000000E+03 0.  0.
    3000001    1    3    3    0    0 -0.27241185818E+01  0.71877710362E-01  0.24564755115E+00  0.29131308197E+01  0.10000000000E+01 0. -1.
    1000022    2    1    0    0    0 -0.50373164593E+02 -0.33084083819E+02 -0.13199899951E+02  0.62499996981E+02  0.99999975328E+01 0.  0.
    3000022    2    3    3    0    0 -0.47649046011E+02 -0.33155961529E+02 -0.13445547502E+02  0.59586866161E+02  0.25000117867E+00 0.  0.
    1000022    2    1    0    0    0  0.50373164593E+02  0.33084083819E+02  0.13199899951E+02  0.62500003019E+02  0.10000035274E+02 0.  0.
    3000022    2    5    5    0    0  0.41590643378E+02  0.31221118767E+02  0.12145666878E+02  0.53405239413E+02  0.24999850240E+00 0.  0.
        -13    1    4    4    0    0 -0.29821824059E+02 -0.20710290119E+02 -0.84609022021E+01  0.37280761770E+02  0.10500000000E+00 0.  1.
         13    1    4    4    0    0 -0.17827221952E+02 -0.12445671410E+02 -0.49846452997E+01  0.22306104391E+02  0.10500000000E+00 0. -1.
    3000001    1    5    5    0    0  0.87825212149E+01  0.18629650519E+01  0.10542330726E+01  0.90947636058E+01  0.10000000000E+01 0.  1.
        -13    1    6    6    0    0  0.14471874827E+02  0.10853935331E+02  0.41677765093E+01  0.18564063650E+02  0.10500000000E+00 0.  1.
         13    1    6    6    0    0  0.27118768551E+02  0.20367183436E+02  0.79778903687E+01  0.34841175763E+02  0.10500000000E+00 0. -1.
</event>
<event>
11    0  0.3443539E-009  0.9118800E+02  0.7816531E-02  0.1126479E+00
         25   -1    0    0    0    0  0.00000000000E+00  0.00000000000E+00  0.99999998245E-14  0.12500000000E+03  0.12500000000E+03 0.  0.
    3000001    1    3    3    0    0  0.19588893082E+01  0.38141691365E+02  0.40845572204E+02  0.55928406344E+02  0.10000000000E+01 0. -1.
    1000022    2    1    0    0    0  0.27959295236E+01  0.44358921156E+02  0.42786900119E+02  0.62499999462E+02  0.10000000150E+02 0.  0.
    3000022    2    3    3    0    0  0.83704021543E+00  0.62172297907E+01  0.19413279148E+01  0.65715931181E+01  0.24999889108E+00 0.  0.
    1000022    2    1    0    0    0 -0.27959295236E+01 -0.44358921156E+02 -0.42786900119E+02  0.62500000538E+02  0.10000006872E+02 0.  0.
    3000022    2    5    5    0    0 -0.59503215013E+01 -0.33752928519E+02 -0.34575442202E+02  0.48684599361E+02  0.25000377327E+00 0.  0.
        -13    1    4    4    0    0  0.59455395029E+00  0.41019517125E+01  0.13188195312E+01  0.43508404025E+01  0.10500000000E+00 0.  1.
         13    1    4    4    0    0  0.24248626514E+00  0.21152780781E+01  0.62250838355E+00  0.22207527157E+01  0.10500000000E+00 0. -1.
    3000001    1    5    5    0    0  0.31543919777E+01 -0.10605992637E+02 -0.82114579168E+01  0.13815401177E+02  0.10000000000E+01 0. -1.
        -13    1    6    6    0    0 -0.17696878654E+01 -0.98038102505E+01 -0.10070533385E+02  0.14165915368E+02  0.10500000000E+00 0. -1.
         13    1    6    6    0    0 -0.41806336359E+01 -0.23949118269E+02 -0.24504908817E+02  0.34518683993E+02  0.10500000000E+00 0.  1.
</event>
<event>
11    0  0.3443539E-009  0.9118800E+02  0.7816531E-02  0.1126479E+00
         25   -1    0    0    0    0  0.00000000000E+00  0.00000000000E+00  0.99999998245E-14  0.12500000000E+03  0.12500000000E+03 0.  0.
    3000001    1    3    3    0    0  0.51261515249E+02  0.17745394746E+02 -0.88487005412E+01  0.54972188255E+02  0.10000000000E+01 0. -1.
    1000022    2    1    0    0    0  0.56735348470E+02  0.22849253062E+02 -0.80784895296E+01  0.62499999663E+02  0.99999916634E+01 0.  0.
    3000022    2    3    3    0    0  0.54738332208E+01  0.51038583163E+01  0.77021101160E+00  0.75278114074E+01  0.24999948147E+00 0.  0.
    1000022    2    1    0    0    0 -0.56735348470E+02 -0.22849253062E+02  0.80784895296E+01  0.62500000337E+02  0.99999958777E+01 0.  0.
    3000022    2    5    5    0    0 -0.46105853222E+02 -0.17277119381E+02  0.10170155489E+02  0.50276665708E+02  0.24999304365E+00 0.  0.
        -13    1    4    4    0    0  0.33745871222E+01  0.32037589180E+01  0.52280828496E+00  0.46836164395E+01  0.10500000000E+00 0.  1.
         13    1    4    4    0    0  0.20992460986E+01  0.19000993983E+01  0.24740272664E+00  0.28441949679E+01  0.10500000000E+00 0. -1.
    3000001    1    5    5    0    0 -0.10629495248E+02 -0.55721336808E+01 -0.20916659599E+01  0.12223334630E+02  0.10000000000E+01 0.  1.
        -13    1    6    6    0    0 -0.17127601934E+02 -0.64585486484E+01  0.37337484552E+01  0.18682063622E+02  0.10500000000E+00 0.  1.
         13    1    6    6    0    0 -0.28978251288E+02 -0.10818570733E+02  0.64364070343E+01  0.31594602085E+02  0.10500000000E+00 0. -1.
</event>
<event>
11    0  0.3443539E-009  0.9118800E+02  0.7816531E-02  0.1126479E+00
         25   -1    0    0    0    0  0.00000000000E+00  0.00000000000E+00  0.99999998245E-14  0.12500000000E+03  0.12500000000E+03 0.  0.
    3000001    1    3    3    0    0 -0.13643626664E+02 -0.55577659785E+02  0.10220880871E+02  0.58141991895E+02  0.10000000000E+01 0.  1.
    1000022    2    1    0    0    0 -0.15885446127E+02 -0.58977820449E+02  0.86902185935E+01  0.62500004571E+02  0.99999984323E+01 0.  0.
    3000022    2    3    3    0    0 -0.22418194629E+01 -0.34001606637E+01 -0.15306622780E+01  0.43580126761E+01  0.25000086516E+00 0.  0.
    1000022    2    1    0    0    0  0.15885446127E+02  0.58977820449E+02 -0.86902185935E+01  0.62499995429E+02  0.99999412932E+01 0.  0.
    3000022    2    5    5    0    0  0.98824180962E+01  0.20836678508E+02 -0.78765969905E+00  0.23076227330E+02  0.25000256210E+00 0.  0.
        -13    1    4    4    0    0 -0.73393134846E+00 -0.10631294189E+01 -0.53126905681E+00  0.14007752127E+01  0.10500000000E+00 0.  1.
         13    1    4    4    0    0 -0.15078881144E+01 -0.23370312448E+01 -0.99939322115E+00  0.29572374635E+01  0.10500000000E+00 0. -1.
    3000001    1    5    5    0    0  0.60030280305E+01  0.38141141940E+02 -0.79025588944E+01  0.39423768099E+02  0.10000000000E+01 0.  1.
        -13    1    6    6    0    0  0.75717573123E+01  0.15931311258E+02 -0.59918280619E+00  0.17649595809E+02  0.10500000000E+00 0.  1.
         13    1    6    6    0    0  0.23106607840E+01  0.49053672507E+01 -0.18847689286E+00  0.54266315208E+01  0.10500000000E+00 0. -1.
</event>
<event>
11    0  0.3443539E-009  0.9118800E+02  0.7816531E-02  0.1126479E+00
         25   -1    0    0    0    0  0.00000000000E+00  0.00000000000E+00  0.99999998245E-14  0.12500000000E+03  0.12500000000E+03 0.  0.
    3000001    1    3    3    0    0  0.30416327525E+02 -0.39487767467E+02  0.84779344377E+01  0.50569873759E+02  0.10000000000E+01 0. -1.
    1000022    2    1    0    0    0  0.40313083600E+02 -0.45132251805E+02  0.12007720393E+02  0.62499998412E+02  0.99999795080E+01 0.  0.
    3000022    2    3    3    0    0  0.98967560749E+01 -0.56444843382E+01  0.35297859552E+01  0.11930124654E+02  0.25000222213E+00 0.  0.
    1000022    2    1    0    0    0 -0.40313083600E+02  0.45132251805E+02 -0.12007720393E+02  0.62500001588E+02  0.99999993530E+01 0.  0.
    3000022    2    5    5    0    0 -0.25335768060E+02  0.22153039671E+02 -0.39061726083E+01  0.33881838691E+02  0.24999749595E+00 0.  0.
        -13    1    4    4    0    0  0.75585220897E+01 -0.43215654275E+01  0.26840303628E+01  0.91116534127E+01  0.10500000000E+00 0.  1.
         13    1    4    4    0    0  0.23382339852E+01 -0.13229189107E+01  0.84575559235E+00  0.28184712409E+01  0.10500000000E+00 0. -1.
    3000001    1    5    5    0    0 -0.14977315540E+02  0.22979212134E+02 -0.81015477845E+01  0.28618162897E+02  0.10000000000E+01 0.  1.
        -13    1    6    6    0    0 -0.15075372959E+02  0.13113324529E+02 -0.22812105763E+01  0.20110720940E+02  0.10500000000E+00 0.  1.
         13    1    6    6    0    0 -0.10260395102E+02  0.90397151421E+01 -0.16249620321E+01  0.13771117750E+02  0.10500000000E+00 0. -1.
</event>
<event>
11    0  0.3443539E-009  0.9118800E+02  0.7816531E-02  0.1126479E+00
         25   -1    0    0    0    0  0.00000000000E+00  0.00000000000E+00  0.99999998245E-14  0.12500000000E+03  0.12500000000E+03 0.  0.
    3000001    1    3    3    0    0 -0.90769803898E+01 -0.32632764938E+01 -0.84882199918E+01  0.12887607423E+02  0.10000000000E+01 0.  1.
    1000022    2    1    0    0    0 -0.28224515941E+02 -0.20593689008E+02 -0.50848064949E+02  0.62500007885E+02  0.10000097477E+02 0.  0.
    3000022    2    3    3    0    0 -0.19147535551E+02 -0.17330412514E+02 -0.42359844957E+02  0.49612400462E+02  0.24999840348E+00 0.  0.
    1000022    2    1    0    0    0  0.28224515941E+02  0.20593689008E+02  0.50848064949E+02  0.62499992115E+02  0.99999989128E+01 0.  0.
    3000022    2    5    5    0    0  0.49999975098E+01  0.85736345684E+01  0.17369954616E+02  0.20007124048E+02  0.25000899982E+00 0.  0.
        -13    1    4    4    0    0 -0.44682694109E+01 -0.40395665077E+01 -0.99038152267E+01  0.11592243534E+02  0.10500000000E+00 0.  1.
         13    1    4    4    0    0 -0.14679266140E+02 -0.13290846006E+02 -0.32456029730E+02  0.38020156928E+02  0.10500000000E+00 0. -1.
    3000001    1    5    5    0    0  0.23224518431E+02  0.12020054440E+02  0.33478110333E+02  0.42492868067E+02  0.10000000000E+01 0. -1.
        -13    1    6    6    0    0  0.16497122219E+01  0.27754296880E+01  0.55628380027E+01  0.64327872662E+01  0.10500000000E+00 0.  1.
         13    1    6    6    0    0  0.33502852879E+01  0.57982048804E+01  0.11807116613E+02  0.13574336782E+02  0.10500000000E+00 0. -1.
</event>
<event>
11    0  0.3443539E-009  0.9118800E+02  0.7816531E-02  0.1126479E+00
         25   -1    0    0    0    0  0.00000000000E+00  0.00000000000E+00  0.99999998245E-14  0.12500000000E+03  0.12500000000E+03 0.  0.
    3000001    1    3    3    0    0 -0.16599857088E+01 -0.18458291235E+02  0.22660072994E+01  0.18697562861E+02  0.10000000000E+01 0. -1.
    1000022    2    1    0    0    0 -0.48199238958E+01 -0.61055234678E+02 -0.74348263020E+01  0.62499999788E+02  0.99999991684E+01 0.  0.
    3000022    2    3    3    0    0 -0.31599381870E+01 -0.42596943443E+02 -0.97008336015E+01  0.43802436927E+02  0.25001619107E+00 0.  0.
    1000022    2    1    0    0    0  0.48199238958E+01  0.61055234678E+02  0.74348263020E+01  0.62500000212E+02  0.10000001821E+02 0.  0.
    3000022    2    5    5    0    0 -0.30695343212E+01  0.19904063444E+02  0.26884357148E+01  0.20319546582E+02  0.25000828739E+00 0.  0.
        -13    1    4    4    0    0 -0.12985798521E+01 -0.18234331883E+02 -0.41896560033E+01  0.18754770360E+02  0.10500000000E+00 0.  1.
         13    1    4    4    0    0 -0.18613583349E+01 -0.24362611561E+02 -0.55111775981E+01  0.25047666566E+02  0.10500000000E+00 0. -1.
    3000001    1    5    5    0    0  0.78894582171E+01  0.41151171234E+02  0.47463905872E+01  0.42180453631E+02  0.10000000000E+01 0.  1.
        -13    1    6    6    0    0 -0.14627212119E+01  0.92949080798E+01  0.11947387913E+01  0.94854254167E+01  0.10500000000E+00 0. -1.
         13    1    6    6    0    0 -0.16068131093E+01  0.10609155364E+02  0.14936969235E+01  0.10834121165E+02  0.10500000000E+00 0.  1.
</event>
<event>
11    0  0.3443539E-009  0.9118800E+02  0.7816531E-02  0.1126479E+00
         25   -1    0    0    0    0  0.00000000000E+00  0.00000000000E+00  0.99999998245E-14  0.12500000000E+03  0.12500000000E+03 0.  0.
    3000001    1    3    3    0    0 -0.12919774170E+01  0.13350345253E+01  0.15506121686E+02  0.15649004203E+02  0.10000000000E+01 0. -1.
    1000022    2    1    0    0    0 -0.15871160511E+02  0.17500496026E+02  0.56992006861E+02  0.62500000920E+02  0.10000008594E+02 0.  0.
    3000022    2    3    3    0    0 -0.14579183094E+02  0.16165461501E+02  0.41485885175E+02  0.46850996717E+02  0.24999872064E+00 0.  0.
    1000022    2    1    0    0    0  0.15871160511E+02 -0.17500496026E+02 -0.56992006861E+02  0.62499999080E+02  0.99999970925E+01 0.  0.
    3000022    2    5    5    0    0  0.75477237234E+01 -0.14677663175E+02 -0.41470315705E+02  0.44634644855E+02  0.25001388781E+00 0.  0.
        -13    1    4    4    0    0 -0.84186440276E+01  0.93013907265E+01  0.24039886600E+02  0.27116721953E+02  0.10500000000E+00 0.  1.
         13    1    4    4    0    0 -0.61605390664E+01  0.68640707744E+01  0.17445998575E+02  0.19734274764E+02  0.10500000000E+00 0. -1.
    3000001    1    5    5    0    0  0.83234367875E+01 -0.28228328514E+01 -0.15521691155E+02  0.17865354225E+02  0.10000000000E+01 0. -1.
        -13    1    6    6    0    0  0.56409146740E+01 -0.11002406154E+02 -0.31004144463E+02  0.33378748605E+02  0.10500000000E+00 0.  1.
         13    1    6    6    0    0  0.19068090495E+01 -0.36752570205E+01 -0.10466171242E+02  0.11255896250E+02  0.10500000000E+00 0. -1.
</event>
<event>
11    0  0.3443539E-009  0.9118800E+02  0.7816531E-02  0.1126479E+00
         25   -1    0    0    0    0  0.00000000000E+00  0.00000000000E+00  0.99999998245E-14  0.12500000000E+03  0.12500000000E+03 0.  0.
    3000001    1    3    3    0    0 -0.70977797359E+01  0.63442197059E+01  0.10974335788E+02  0.14562405256E+02  0.10000000000E+01 0.  1.
    1000022    2    1    0    0    0 -0.42047534995E+02  0.29803889858E+02  0.33911400678E+02  0.62499999451E+02  0.99999892743E+01 0.  0.
    3000022    2    3    3    0    0 -0.34949755259E+02  0.23459670152E+02  0.22937064890E+02  0.47937594195E+02  0.24995002531E+00 0.  0.
    1000022    2    1    0    0    0  0.42047534995E+02 -0.29803889858E+02 -0.33911400678E+02  0.62500000549E+02  0.99999961409E+01 0.  0.
    3000022    2    5    5    0    0  0.22701352905E+02 -0.18802321888E+02 -0.24442071928E+02  0.38293029523E+02  0.24999568292E+00 0.  0.
        -13    1    4    4    0    0 -0.94665960717E+01  0.63931327175E+01  0.62053083321E+01  0.13000210138E+02  0.10500000000E+00 0. -1.
         13    1    4    4    0    0 -0.25483159188E+02  0.17066537435E+02  0.16731756558E+02  0.34937384057E+02  0.10500000000E+00 0.  1.
    3000001    1    5    5    0    0  0.19346182090E+02 -0.11001567971E+02 -0.94693287507E+01  0.24206971026E+02  0.10000000000E+01 0.  1.
        -13    1    6    6    0    0  0.90441850560E+01 -0.74587050840E+01 -0.97958867998E+01  0.15277433949E+02  0.10500000000E+00 0.  1.
         13    1    6    6    0    0  0.13657167849E+02 -0.11343616804E+02 -0.14646185128E+02  0.23015595575E+02  0.10500000000E+00 0. -1.
</event>
<event>
11    0  0.3443539E-009  0.9118800E+02  0.7816531E-02  0.1126479E+00
         25   -1    0    0    0    0  0.00000000000E+00  0.00000000000E+00  0.99999998245E-14  0.12500000000E+03  0.12500000000E+03 0.  0.
    3000001    1    3    3    0    0 -0.13178270088E+02 -0.48903145710E+02 -0.32155668370E+01  0.50759475302E+02  0.10000000000E+01 0. -1.
    1000022    2    1    0    0    0 -0.12432632051E+02 -0.60039842068E+02 -0.68481191476E+01  0.62499999721E+02  0.10000012697E+02 0.  0.
    3000022    2    3    3    0    0  0.74563803687E+00 -0.11136696358E+02 -0.36325523106E+01  0.11740524419E+02  0.24999096552E+00 0.  0.
    1000022    2    1    0    0    0  0.12432632051E+02  0.60039842068E+02  0.68481191476E+01  0.62500000279E+02  0.10000016185E+02 0.  0.
    3000022    2    5    5    0    0  0.80516990698E+01  0.51713125695E+02  0.34644950791E+01  0.52451334139E+02  0.24999957604E+00 0.  0.
        -13    1    4    4    0    0  0.58351070383E+00 -0.83251484070E+01 -0.27057669490E+01  0.87738691876E+01  0.10500000000E+00 0.  1.
         13    1    4    4    0    0  0.16212733304E+00 -0.28115479510E+01 -0.92678536160E+00  0.29666552310E+01  0.10500000000E+00 0. -1.
    3000001    1    5    5    0    0  0.43809329817E+01  0.83267163738E+01  0.33836240685E+01  0.10048666140E+02  0.10000000000E+01 0.  1.
        -13    1    6    6    0    0  0.58155249349E+01  0.37472339831E+02  0.25434650209E+01  0.38006273455E+02  0.10500000000E+00 0. -1.
         13    1    6    6    0    0  0.22361741349E+01  0.14240785864E+02  0.92103005822E+00  0.14445060684E+02  0.10500000000E+00 0.  1.
</event>
<event>
11    0  0.3443539E-009  0.9118800E+02  0.7816531E-02  0.1126479E+00
         25   -1    0    0    0    0  0.00000000000E+00  0.00000000000E+00  0.99999998245E-14  0.12500000000E+03  0.12500000000E+03 0.  0.
    3000001    1    3    3    0    0  0.32476319735E+02 -0.23515697692E+00 -0.23512333612E+02  0.40107311980E+02  0.10000000000E+01 0.  1.
    1000022    2    1    0    0    0  0.51721403054E+02 -0.66971761488E+01 -0.32958991498E+02  0.62500006438E+02  0.99999990977E+01 0.  0.
    3000022    2    3    3    0    0  0.19245083319E+02 -0.64620191718E+01 -0.94466578855E+01  0.22392694458E+02  0.24999233793E+00 0.  0.
    1000022    2    1    0    0    0 -0.51721403054E+02  0.66971761488E+01  0.32958991498E+02  0.62499993562E+02  0.99999186207E+01 0.  0.
    3000022    2    5    5    0    0 -0.23937878890E+02  0.67323474514E+01  0.11596067947E+02  0.27438619450E+02  0.24999501970E+00 0.  0.
        -13    1    4    4    0    0  0.10744387021E+02 -0.36762415400E+01 -0.52702671540E+01  0.12519718256E+02  0.10500000000E+00 0.  1.
         13    1    4    4    0    0  0.85006962975E+01 -0.27857776318E+01 -0.41763907316E+01  0.98729762027E+01  0.10500000000E+00 0. -1.
    3000001    1    5    5    0    0 -0.27783524164E+02 -0.35171302596E-01  0.21362923551E+02  0.35061374112E+02  0.10000000000E+01 0. -1.
        -13    1    6    6    0    0 -0.86861200472E+01  0.25037449478E+01  0.42130584641E+01  0.99738812335E+01  0.10500000000E+00 0.  1.
         13    1    6    6    0    0 -0.15251758843E+02  0.42286025036E+01  0.73830094828E+01  0.17464738216E+02  0.10500000000E+00 0. -1.
</event>
<event>
11    0  0.3443539E-009  0.9118800E+02  0.7816531E-02  0.1126479E+00
         25   -1    0    0    0    0  0.00000000000E+00  0.00000000000E+00  0.99999998245E-14  0.12500000000E+03  0.12500000000E+03 0.  0.
    3000001    1    3    3    0    0 -0.61231665244E+01  0.14981924331E+00  0.11457873299E+02  0.13030674373E+02  0.10000000000E+01 0. -1.
    1000022    2    1    0    0    0 -0.25800305857E+02 -0.17856181693E+02  0.53120158903E+02  0.62500002511E+02  0.10000001255E+02 0.  0.
    3000022    2    3    3    0    0 -0.19677139332E+02 -0.18006000936E+02  0.41662285604E+02  0.49469328138E+02  0.25000531300E+00 0.  0.
    1000022    2    1    0    0    0  0.25800305857E+02  0.17856181693E+02 -0.53120158903E+02  0.62499997489E+02  0.99999698680E+01 0.  0.
    3000022    2    5    5    0    0  0.23556600701E+02  0.11774018769E+02 -0.43659229171E+02  0.50987564643E+02  0.25000369597E+00 0.  0.
        -13    1    4    4    0    0 -0.11865266195E+02 -0.10780299929E+02  0.24990888785E+02  0.29690991154E+02  0.10500000000E+00 0. -1.
         13    1    4    4    0    0 -0.78118731371E+01 -0.72257010071E+01  0.16671396819E+02  0.19778336984E+02  0.10500000000E+00 0.  1.
    3000001    1    5    5    0    0  0.22437051557E+01  0.60821629232E+01 -0.94609297321E+01  0.11512432847E+02  0.10000000000E+01 0. -1.
        -13    1    6    6    0    0  0.60335399927E+01  0.30490519858E+01 -0.11214065088E+02  0.13094525714E+02  0.10500000000E+00 0. -1.
         13    1    6    6    0    0  0.17523060708E+02  0.87249667836E+01 -0.32445164082E+02  0.37893038929E+02  0.10500000000E+00 0.  1.
</event>
<event>
11    0  0.3443539E-009  0.9118800E+02  0.7816531E-02  0.1126479E+00
         25   -1    0    0    0    0  0.00000000000E+00  0.00000000000E+00  0.99999998245E-14  0.12500000000E+03  0.12500000000E+03 0.  0.
    3000001    1    3    3    0    0 -0.36076145520E+02  0.24183449097E+02  0.33363782018E+01  0.43571308281E+02  0.10000000000E+01 0.  1.
    1000022    2    1    0    0    0 -0.50811723491E+02  0.33191382049E+02  0.11079296670E+02  0.62500000769E+02  0.10000009750E+02 0.  0.
    3000022    2    3    3    0    0 -0.14735577971E+02  0.90079329513E+01  0.77429184681E+01  0.18928692488E+02  0.24999739878E+00 0.  0.
    1000022    2    1    0    0    0  0.50811723491E+02 -0.33191382049E+02 -0.11079296670E+02  0.62499999231E+02  0.10000000134E+02 0.  0.
    3000022    2    5    5    0    0  0.46834355866E+02 -0.32839584854E+02 -0.11554791724E+02  0.58356412615E+02  0.24991755045E+00 0.  0.
        -13    1    4    4    0    0 -0.52341832088E+01  0.32551195089E+01  0.27995924243E+01  0.67706144199E+01  0.10500000000E+00 0. -1.
         13    1    4    4    0    0 -0.95013947622E+01  0.57528134425E+01  0.49433260437E+01  0.12158078068E+02  0.10500000000E+00 0.  1.
    3000001    1    5    5    0    0  0.39773676254E+01 -0.35179719481E+00  0.47549505406E+00  0.41435866155E+01  0.10000000000E+01 0. -1.
        -13    1    6    6    0    0  0.21219627891E+02 -0.14959717287E+02 -0.52355720541E+01  0.26485618529E+02  0.10500000000E+00 0.  1.
         13    1    6    6    0    0  0.25614727975E+02 -0.17879867566E+02 -0.63192196698E+01  0.31870794086E+02  0.10500000000E+00 0. -1.
</event>
<event>
11    0  0.3443539E-009  0.9118800E+02  0.7816531E-02  0.1126479E+00
         25   -1    0    0    0    0  0.00000000000E+00  0.00000000000E+00  0.99999998245E-14  0.12500000000E+03  0.12500000000E+03 0.  0.
    3000001    1    3    3    0    0 -0.15755977635E+02 -0.10358442374E+02 -0.24431151071E+02  0.30877650531E+02  0.10000000000E+01 0.  1.
    1000022    2    1    0    0    0 -0.23592770104E+02 -0.26467662228E+02 -0.50488552925E+02  0.62499999780E+02  0.10000002554E+02 0.  0.
    3000022    2    3    3    0    0 -0.78367924691E+01 -0.16109219854E+02 -0.26057401855E+02  0.31622349250E+02  0.25000031920E+00 0.  0.
    1000022    2    1    0    0    0  0.23592770104E+02  0.26467662228E+02  0.50488552925E+02  0.62500000220E+02  0.10000005299E+02 0.  0.
    3000022    2    5    5    0    0  0.16315644137E+01  0.74999324040E+01  0.12751255503E+02  0.14885160655E+02  0.25000463106E+00 0.  0.
        -13    1    4    4    0    0 -0.32067914290E+01 -0.64947334408E+01 -0.10619299934E+02  0.12854790151E+02  0.10500000000E+00 0.  1.
         13    1    4    4    0    0 -0.46300010401E+01 -0.96144864130E+01 -0.15438101920E+02  0.18767559099E+02  0.10500000000E+00 0. -1.
    3000001    1    5    5    0    0  0.21961205691E+02  0.18967729824E+02  0.37737297423E+02  0.47614839565E+02  0.10000000000E+01 0. -1.
        -13    1    6    6    0    0  0.11931511467E+01  0.54636421876E+01  0.92173627796E+01  0.10781734426E+02  0.10500000000E+00 0.  1.
         13    1    6    6    0    0  0.43841326698E+00  0.20362902164E+01  0.35338927231E+01  0.41034262289E+01  0.10500000000E+00 0. -1.
</event>
<event>
11    0  0.3443539E-009  0.9118800E+02  0.7816531E-02  0.1126479E+00
         25   -1    0    0    0    0  0.00000000000E+00  0.00000000000E+00  0.99999998245E-14  0.12500000000E+03  0.12500000000E+03 0.  0.
    3000001    1    3    3    0    0  0.12621254753E+01  0.63770736385E+01 -0.50563888827E+01  0.82962098237E+01  0.10000000000E+01 0. -1.
    1000022    2    1    0    0    0 -0.39820921397E+01  0.32943663293E+02 -0.52010652671E+02  0.62500000197E+02  0.10000001223E+02 0.  0.
    3000022    2    3    3    0    0 -0.52442176150E+01  0.26566589654E+02 -0.46954263788E+02  0.54203790374E+02  0.24999745092E+00 0.  0.
    1000022    2    1    0    0    0  0.39820921397E+01 -0.32943663293E+02  0.52010652671E+02  0.62499999803E+02  0.99999987552E+01 0.  0.
    3000022    2    5    5    0    0  0.60272370281E+00 -0.23093280074E+02  0.42441426173E+02  0.48321837850E+02  0.24999433627E+00 0.  0.
        -13    1    4    4    0    0 -0.12011544537E+01  0.60980298868E+01 -0.10787196961E+02  0.12450035494E+02  0.10500000000E+00 0. -1.
         13    1    4    4    0    0 -0.40430631613E+01  0.20468559767E+02 -0.36167066827E+02  0.41753754880E+02  0.10500000000E+00 0.  1.
    3000001    1    5    5    0    0  0.33793684368E+01 -0.98503832183E+01  0.95692264985E+01  0.14178161953E+02  0.10000000000E+01 0. -1.
        -13    1    6    6    0    0  0.34020333410E+00 -0.10553199619E+02  0.19433988349E+02  0.22117339095E+02  0.10500000000E+00 0.  1.
         13    1    6    6    0    0  0.26252036872E+00 -0.12540080455E+02  0.23007437824E+02  0.26204498755E+02  0.10500000000E+00 0. -1.
</event>
<event>
11    0  0.3443539E-009  0.9118800E+02  0.7816531E-02  0.1126479E+00
         25   -1    0    0    0    0  0.00000000000E+00  0.00000000000E+00  0.99999998245E-14  0.12500000000E+03  0.12500000000E+03 0.  0.
    3000001    1    3    3    0    0  0.23481589016E+02 -0.20425070445E+01  0.56546721971E+02  0.61270617946E+02  0.10000000000E+01 0.  1.
    1000022    2    1    0    0    0  0.22602735844E+02 -0.21089314318E+01  0.57366531311E+02  0.62500000650E+02  0.99999953620E+01 0.  0.
    3000022    2    3    3    0    0 -0.87885317271E+00 -0.66424387311E-01  0.81980933938E+00  0.12293827043E+01  0.24999876451E+00 0.  0.
    1000022    2    1    0    0    0 -0.22602735844E+02  0.21089314318E+01 -0.57366531311E+02  0.62499999350E+02  0.99999872349E+01 0.  0.
    3000022    2    5    5    0    0 -0.67662085769E+01  0.51877250509E+01 -0.22719532244E+02  0.24267956371E+02  0.24998263676E+00 0.  0.
        -13    1    4    4    0    0 -0.39295086222E+00 -0.86514085187E-01  0.32589122448E+00  0.52832296680E+00  0.10500000000E+00 0.  1.
         13    1    4    4    0    0 -0.48590231049E+00  0.20089697875E-01  0.49391811491E+00  0.70105973749E+00  0.10500000000E+00 0. -1.
    3000001    1    5    5    0    0 -0.15836527267E+02 -0.30787936191E+01 -0.34646999067E+02  0.38232042979E+02  0.10000000000E+01 0.  1.
        -13    1    6    6    0    0 -0.23460051246E+01  0.17457113122E+01 -0.76923997329E+01  0.82301449976E+01  0.10500000000E+00 0. -1.
         13    1    6    6    0    0 -0.44202034523E+01  0.34420137386E+01 -0.15027132511E+02  0.16037811373E+02  0.10500000000E+00 0.  1.
</event>
<event>
11    0  0.3443539E-009  0.9118800E+02  0.7816531E-02  0.1126479E+00
         25   -1    0    0    0    0  0.00000000000E+00  0.00000000000E+00  0.99999998245E-14  0.12500000000E+03  0.12500000000E+03 0.  0.
    3000001    1    3    3    0    0 -0.87802794142E+01  0.11045689170E+02 -0.34237235197E+02  0.37044416985E+02  0.10000000000E+01 0.  1.
    1000022    2    1    0    0    0 -0.17861582632E+02  0.11013646200E+02 -0.58016493072E+02  0.62499999890E+02  0.99999990581E+01 0.  0.
    3000022    2    3    3    0    0 -0.90813032178E+01 -0.32042969851E-01 -0.23779257875E+02  0.25455582905E+02  0.25000213389E+00 0.  0.
    1000022    2    1    0    0    0  0.17861582632E+02 -0.11013646200E+02  0.58016493072E+02  0.62500000110E+02  0.10000000427E+02 0.  0.
    3000022    2    5    5    0    0  0.14600370553E+02 -0.99218617297E+01  0.34936649153E+02  0.39143915401E+02  0.24999689232E+00 0.  0.
        -13    1    4    4    0    0 -0.40394696416E+01  0.16020735638E-01 -0.10412391937E+02  0.11168997381E+02  0.10500000000E+00 0.  1.
         13    1    4    4    0    0 -0.50418335762E+01 -0.48063705489E-01 -0.13366865938E+02  0.14286585524E+02  0.10500000000E+00 0. -1.
    3000001    1    5    5    0    0  0.32612120792E+01 -0.10917844706E+01  0.23079843920E+02  0.23356084708E+02  0.10000000000E+01 0. -1.
        -13    1    6    6    0    0  0.45739927479E+01 -0.30580849799E+01  0.10833508678E+02  0.12151099896E+02  0.10500000000E+00 0.  1.
         13    1    6    6    0    0  0.10026377805E+02 -0.68637767497E+01  0.24103140475E+02  0.26992815505E+02  0.10500000000E+00 0. -1.
</event>
<event>
11    0  0.3443539E-009  0.9118800E+02  0.7816531E-02  0.1126479E+00
         25   -1    0    0    0    0  0.00000000000E+00  0.00000000000E+00  0.99999998245E-14  0.12500000000E+03  0.12500000000E+03 0.  0.
    3000001    1    3    3    0    0  0.32885131725E+02  0.41081137964E+02 -0.76455101904E+01  0.53184072908E+02  0.10000000000E+01 0. -1.
    1000022    2    1    0    0    0  0.37343050928E+02  0.48845696019E+02 -0.50837558815E+01  0.62499999453E+02  0.99999942801E+01 0.  0.
    3000022    2    3    3    0    0  0.44579192032E+01  0.77645580542E+01  0.25617543089E+01  0.93159265450E+01  0.24999370565E+00 0.  0.
    1000022    2    1    0    0    0 -0.37343050928E+02 -0.48845696019E+02  0.50837558815E+01  0.62500000547E+02  0.10000001117E+02 0.  0.
    3000022    2    5    5    0    0 -0.72236753357E+01 -0.40867310383E+01  0.13489729324E+01  0.84121984483E+01  0.24999765230E+00 0.  0.
        -13    1    4    4    0    0  0.26021371422E+01  0.45286028402E+01  0.15613512410E+01  0.54523576634E+01  0.10500000000E+00 0. -1.
         13    1    4    4    0    0  0.18557820610E+01  0.32359552140E+01  0.10004030679E+01  0.38635688816E+01  0.10500000000E+00 0.  1.
    3000001    1    5    5    0    0 -0.30119375593E+02 -0.44758964980E+02  0.37347829491E+01  0.54087802099E+02  0.10000000000E+01 0. -1.
        -13    1    6    6    0    0 -0.23336253842E+01 -0.13492082552E+01  0.39249446777E+00  0.27260314116E+01  0.10500000000E+00 0.  1.
         13    1    6    6    0    0 -0.48900499515E+01 -0.27375227832E+01  0.95647846466E+00  0.56861670367E+01  0.10500000000E+00 0. -1.
</event>
<event>
11    0  0.3443539E-009  0.9118800E+02  0.7816531E-02  0.1126479E+00
         25   -1    0    0    0    0  0.00000000000E+00  0.00000000000E+00  0.99999998245E-14  0.12500000000E+03  0.12500000000E+03 0.  0.
    3000001    1    3    3    0    0 -0.80878676260E+01 -0.32678963375E+01  0.82160165094E+01  0.12024794239E+02  0.10000000000E+01 0.  1.
    1000022    2    1    0    0    0 -0.32418635071E+02 -0.34210966262E+02  0.39810700368E+02  0.62499999799E+02  0.99999999317E+01 0.  0.
    3000022    2    3    3    0    0 -0.24330767445E+02 -0.30943069924E+02  0.31594683859E+02  0.50475205560E+02  0.25001475505E+00 0.  0.
    1000022    2    1    0    0    0  0.32418635071E+02  0.34210966262E+02 -0.39810700368E+02  0.62500000201E+02  0.10000002443E+02 0.  0.
    3000022    2    5    5    0    0  0.16032922680E+02  0.17078277099E+02 -0.13367846468E+02  0.26971910879E+02  0.24999781808E+00 0.  0.
        -13    1    4    4    0    0 -0.58586939011E+01 -0.74826448984E+01  0.76202949095E+01  0.12181715331E+02  0.10500000000E+00 0.  1.
         13    1    4    4    0    0 -0.18472073544E+02 -0.23460425026E+02  0.23974388949E+02  0.38293490229E+02  0.10500000000E+00 0. -1.
    3000001    1    5    5    0    0  0.16385712391E+02  0.17132689163E+02 -0.26442853900E+02  0.35528089322E+02  0.10000000000E+01 0. -1.
        -13    1    6    6    0    0  0.10846138134E+02  0.11598775003E+02 -0.90150622166E+01  0.18260686344E+02  0.10500000000E+00 0.  1.
         13    1    6    6    0    0  0.51867845460E+01  0.54795020969E+01 -0.43527842516E+01  0.87112245349E+01  0.10500000000E+00 0. -1.
</event>
<event>
11    0  0.3443539E-009  0.9118800E+02  0.7816531E-02  0.1126479E+00
         25   -1    0    0    0    0  0.00000000000E+00  0.00000000000E+00  0.99999998245E-14  0.12500000000E+03  0.12500000000E+03 0.  0.
    3000001    1    3    3    0    0  0.57569070309E+01 -0.82701278613E+01  0.11623381518E+02  0.15415576257E+02  0.10000000000E+01 0. -1.
    1000022    2    1    0    0    0  0.67453223252E+01 -0.33608150032E+02  0.51295640934E+02  0.62500000460E+02  0.10000007842E+02 0.  0.
    3000022    2    3    3    0    0  0.98841529428E+00 -0.25338022170E+02  0.39672259416E+02  0.47084424204E+02  0.25000622842E+00 0.  0.
    1000022    2    1    0    0    0 -0.67453223252E+01  0.33608150032E+02 -0.51295640934E+02  0.62499999540E+02  0.10000002089E+02 0.  0.
    3000022    2    5    5    0    0  0.26561218843E+00  0.14523099502E+02 -0.28138423563E+02  0.31667401971E+02  0.24999595609E+00 0.  0.
        -13    1    4    4    0    0  0.47137067448E+00 -0.11547326782E+02  0.17963292664E+02  0.21360099589E+02  0.10500000000E+00 0. -1.
         13    1    4    4    0    0  0.51704461980E+00 -0.13790695388E+02  0.21708966752E+02  0.25724324614E+02  0.10500000000E+00 0. -1.
    3000001    1    5    5    0    0 -0.70109345136E+01  0.19085050529E+02 -0.23157217371E+02  0.30832597569E+02  0.10000000000E+01 0.  1.
        -13    1    6    6    0    0  0.12028126528E+00  0.43826721215E+01 -0.85449434183E+01  0.96046533269E+01  0.10500000000E+00 0.  1.
         13    1    6    6    0    0  0.14533092315E+00  0.10140427381E+02 -0.19593480145E+02  0.22062748644E+02  0.10500000000E+00 0. -1.
</event>
<event>
11    0  0.3443539E-009  0.9118800E+02  0.7816531E-02  0.1126479E+00
         25   -1    0    0    0    0  0.00000000000E+00  0.00000000000E+00  0.99999998245E-14  0.12500000000E+03  0.12500000000E+03 0.  0.
    3000001    1    3    3    0    0  0.47768093652E+02  0.29316005616E+02 -0.25680606551E+01  0.56114293117E+02  0.10000000000E+01 0. -1.
    1000022    2    1    0    0    0  0.51803773758E+02  0.32985730192E+02 -0.58788236032E+01  0.62499999428E+02  0.99999994838E+01 0.  0.
    3000022    2    3    3    0    0  0.40356801061E+01  0.36697245758E+01 -0.33107629481E+01  0.63857063116E+01  0.25000283729E+00 0.  0.
    1000022    2    1    0    0    0 -0.51803773758E+02 -0.32985730192E+02  0.58788236032E+01  0.62500000572E+02  0.10000006632E+02 0.  0.
    3000022    2    5    5    0    0 -0.31781072975E+01 -0.27297694245E+01  0.29807939075E+01  0.51477802415E+01  0.25000398127E+00 0.  0.
        -13    1    4    4    0    0  0.28598066010E+01  0.25787021305E+01 -0.23839393228E+01  0.45301644747E+01  0.10500000000E+00 0. -1.
         13    1    4    4    0    0  0.11758735051E+01  0.10910224453E+01 -0.92682362527E+00  0.18555418369E+01  0.10500000000E+00 0.  1.
    3000001    1    5    5    0    0 -0.48625666461E+02 -0.30255960767E+02  0.28980296957E+01  0.57352220330E+02  0.10000000000E+01 0. -1.
        -13    1    6    6    0    0 -0.20553273193E+01 -0.17107572147E+01  0.19514147857E+01  0.33121149291E+01  0.10500000000E+00 0.  1.
         13    1    6    6    0    0 -0.11227799782E+01 -0.10190122097E+01  0.10293791217E+01  0.18356653124E+01  0.10500000000E+00 0. -1.
</event>
<event>
11    0  0.3443539E-009  0.9118800E+02  0.7816531E-02  0.1126479E+00
         25   -1    0    0    0    0  0.00000000000E+00  0.00000000000E+00  0.99999998245E-14  0.12500000000E+03  0.12500000000E+03 0.  0.
    3000001    1    3    3    0    0 -0.25886997303E+01  0.87121328028E+00  0.11978111210E+01  0.31456526119E+01  0.10000000000E+01 0. -1.
    1000022    2    1    0    0    0 -0.35117035100E+02 -0.58798163435E+01  0.50383248172E+02  0.62500001435E+02  0.10000004424E+02 0.  0.
    3000022    2    3    3    0    0 -0.32528335370E+02 -0.67510296237E+01  0.49185437051E+02  0.59354348823E+02  0.25000666797E+00 0.  0.
    1000022    2    1    0    0    0  0.35117035100E+02  0.58798163435E+01 -0.50383248172E+02  0.62499998565E+02  0.99999864884E+01 0.  0.
    3000022    2    5    5    0    0  0.80278098495E+01  0.54832057107E+01 -0.15861702456E+02  0.18605573596E+02  0.24997640653E+00 0.  0.
        -13    1    4    4    0    0 -0.15304539030E+02 -0.31990676146E+01  0.23262327607E+02  0.28028732743E+02  0.10500000000E+00 0.  1.
         13    1    4    4    0    0 -0.17223796340E+02 -0.35519620091E+01  0.25923109445E+02  0.31325616080E+02  0.10500000000E+00 0. -1.
    3000001    1    5    5    0    0  0.27089225251E+02  0.39661063275E+00 -0.34521545717E+02  0.43894424969E+02  0.10000000000E+01 0.  1.
        -13    1    6    6    0    0  0.33309139951E+01  0.22469861719E+01 -0.64417948894E+01  0.75928704253E+01  0.10500000000E+00 0. -1.
         13    1    6    6    0    0  0.46968958544E+01  0.32362195389E+01 -0.94199075665E+01  0.11012703171E+02  0.10500000000E+00 0.  1.
</event>
<event>
11    0  0.3443539E-009  0.9118800E+02  0.7816531E-02  0.1126479E+00
         25   -1    0    0    0    0  0.00000000000E+00  0.00000000000E+00  0.99999998245E-14  0.12500000000E+03  0.12500000000E+03 0.  0.
    3000001    1    3    3    0    0  0.10708027776E+01 -0.69696783570E+00  0.41104433540E+00  0.16737204660E+01  0.10000000000E+01 0. -1.
    1000022    2    1    0    0    0  0.34353223685E+02 -0.42116144630E+02 -0.29194799827E+02  0.62499999776E+02  0.10000000946E+02 0.  0.
    3000022    2    3    3    0    0  0.33282420908E+02 -0.41419176795E+02 -0.29605844162E+02  0.60826279310E+02  0.24999654219E+00 0.  0.
    1000022    2    1    0    0    0 -0.34353223685E+02  0.42116144630E+02  0.29194799827E+02  0.62500000224E+02  0.10000003752E+02 0.  0.
    3000022    2    5    5    0    0 -0.14032754778E+02  0.18094020718E+02  0.17863938856E+02  0.29042978477E+02  0.24998992577E+00 0.  0.
        -13    1    4    4    0    0  0.11018313473E+02 -0.13757614952E+02 -0.98724542174E+01  0.20202761649E+02  0.10500000000E+00 0.  1.
         13    1    4    4    0    0  0.22264107435E+02 -0.27661561842E+02 -0.19733389945E+02  0.40623517661E+02  0.10500000000E+00 0. -1.
    3000001    1    5    5    0    0 -0.20320468907E+02  0.24022123912E+02  0.11330860971E+02  0.33457021748E+02  0.10000000000E+01 0.  1.
        -13    1    6    6    0    0 -0.69932824632E+01  0.90069994120E+01  0.88106281620E+01  0.14410767906E+02  0.10500000000E+00 0. -1.
         13    1    6    6    0    0 -0.70394723147E+01  0.90870213057E+01  0.90533106940E+01  0.14632210571E+02  0.10500000000E+00 0.  1.
</event>
<event>
11    0  0.3443539E-009  0.9118800E+02  0.7816531E-02  0.1126479E+00
         25   -1    0    0    0    0  0.00000000000E+00  0.00000000000E+00  0.99999998245E-14  0.12500000000E+03  0.12500000000E+03 0.  0.
    3000001    1    3    3    0    0  0.18308987398E+02  0.80360155711E+01  0.54215794431E+01  0.20741024311E+02  0.10000000000E+01 0. -1.
    1000022    2    1    0    0    0  0.55686560120E+02  0.12267879733E+02  0.23553262431E+02  0.62500000025E+02  0.99999990374E+01 0.  0.
    3000022    2    3    3    0    0  0.37377572722E+02  0.42318641621E+01  0.18131682988E+02  0.41758975714E+02  0.25001559617E+00 0.  0.
    1000022    2    1    0    0    0 -0.55686560120E+02 -0.12267879733E+02 -0.23553262431E+02  0.62499999975E+02  0.99999987277E+01 0.  0.
    3000022    2    5    5    0    0 -0.22278595805E+02 -0.92404473073E+01 -0.72264840052E+01  0.25179481215E+02  0.25001134500E+00 0.  0.
        -13    1    4    4    0    0  0.20864411109E+02  0.24242978419E+01  0.10097620788E+02  0.23306090225E+02  0.10500000000E+00 0.  1.
         13    1    4    4    0    0  0.16513161613E+02  0.18075663201E+01  0.80340622000E+01  0.18452885489E+02  0.10500000000E+00 0. -1.
    3000001    1    5    5    0    0 -0.33407964315E+02 -0.30274324258E+01 -0.16326778426E+02  0.37320518761E+02  0.10000000000E+01 0. -1.
        -13    1    6    6    0    0 -0.10663727901E+02 -0.43909381443E+01 -0.35187862050E+01  0.12057707572E+02  0.10500000000E+00 0. -1.
         13    1    6    6    0    0 -0.11614867904E+02 -0.48495091630E+01 -0.37076978001E+01  0.13121773643E+02  0.10500000000E+00 0.  1.
</event>
<event>
11    0  0.3443539E-009  0.9118800E+02  0.7816531E-02  0.1126479E+00
         25   -1    0    0    0    0  0.00000000000E+00  0.00000000000E+00  0.99999998245E-14  0.12500000000E+03  0.12500000000E+03 0.  0.
    3000001    1    3    3    0    0  0.93622584158E+00 -0.10184180519E+02  0.92783293600E+01  0.13844906912E+02  0.10000000000E+01 0.  1.
    1000022    2    1    0    0    0 -0.35454828485E+01 -0.32894580838E+02  0.52073279788E+02  0.62500001944E+02  0.99999939027E+01 0.  0.
    3000022    2    3    3    0    0 -0.44817086901E+01 -0.22710400319E+02  0.42794950428E+02  0.48655095033E+02  0.24999025170E+00 0.  0.
    1000022    2    1    0    0    0  0.35454828485E+01  0.32894580838E+02 -0.52073279788E+02  0.62499998056E+02  0.99999695984E+01 0.  0.
    3000022    2    5    5    0    0  0.52665630235E+01  0.92092770866E+01 -0.13210209302E+02  0.16944603442E+02  0.24997097433E+00 0.  0.
        -13    1    4    4    0    0 -0.32240159750E+01 -0.16268563839E+02  0.30578631712E+02  0.34786839332E+02  0.10500000000E+00 0. -1.
         13    1    4    4    0    0 -0.12576927151E+01 -0.64418364804E+01  0.12216318716E+02  0.13868255700E+02  0.10500000000E+00 0.  1.
    3000001    1    5    5    0    0 -0.17210801750E+01  0.23685303752E+02 -0.38863070486E+02  0.45555394613E+02  0.10000000000E+01 0. -1.
        -13    1    6    6    0    0  0.14695332126E+01  0.25329802389E+01 -0.37017559180E+01  0.47211797921E+01  0.10500000000E+00 0.  1.
         13    1    6    6    0    0  0.37970298109E+01  0.66762968477E+01 -0.95084533838E+01  0.12223423650E+02  0.10500000000E+00 0. -1.
</event>
<event>
11    0  0.3443539E-009  0.9118800E+02  0.7816531E-02  0.1126479E+00
         25   -1    0    0    0    0  0.00000000000E+00  0.00000000000E+00  0.99999998245E-14  0.12500000000E+03  0.12500000000E+03 0.  0.
    3000001    1    3    3    0    0 -0.49552460471E+02 -0.22554995564E+02 -0.80342938249E+00  0.54459339533E+02  0.10000000000E+01 0.  1.
    1000022    2    1    0    0    0 -0.55292837780E+02 -0.27043910325E+02 -0.41927431838E+01  0.62500000867E+02  0.10000000877E+02 0.  0.
    3000022    2    3    3    0    0 -0.57403773098E+01 -0.44889147608E+01 -0.33893138014E+01  0.80406613344E+01  0.24999852326E+00 0.  0.
    1000022    2    1    0    0    0  0.55292837780E+02  0.27043910325E+02  0.41927431838E+01  0.62499999133E+02  0.99999900353E+01 0.  0.
    3000022    2    5    5    0    0  0.72917839583E+01  0.15580614102E+00 -0.16706437078E+00  0.72996437302E+01  0.24999847371E+00 0.  0.
        -13    1    4    4    0    0 -0.25671403957E+01 -0.19241837715E+01 -0.14827953492E+01  0.35358733073E+01  0.10500000000E+00 0.  1.
         13    1    4    4    0    0 -0.31732369141E+01 -0.25647309893E+01 -0.19065184521E+01  0.45047880271E+01  0.10500000000E+00 0. -1.
    3000001    1    5    5    0    0  0.48001053822E+02  0.26888104184E+02  0.43598075546E+01  0.55200355402E+02  0.10000000000E+01 0.  1.
        -13    1    6    6    0    0  0.51396581704E+01  0.70357439923E-01 -0.97043351557E-01  0.51421278368E+01  0.10500000000E+00 0.  1.
         13    1    6    6    0    0  0.21521257879E+01  0.85448701100E-01 -0.70021019220E-01  0.21575158935E+01  0.10500000000E+00 0. -1.
</event>
<event>
11    0  0.3443539E-009  0.9118800E+02  0.7816531E-02  0.1126479E+00
         25   -1    0    0    0    0  0.00000000000E+00  0.00000000000E+00  0.99999998245E-14  0.12500000000E+03  0.12500000000E+03 0.  0.
    3000001    1    3    3    0    0 -0.97682797327E-01  0.28248365953E+01 -0.62881722768E+01  0.69663731096E+01  0.10000000000E+01 0. -1.
    1000022    2    1    0    0    0 -0.18851663505E+02  0.40142007228E+02 -0.42889223407E+02  0.62499988735E+02  0.99998573094E+01 0.  0.
    3000022    2    3    3    0    0 -0.18753980708E+02  0.37317170633E+02 -0.36601051130E+02  0.55533615625E+02  0.25000834386E+00 0.  0.
    1000022    2    1    0    0    0  0.18851663505E+02 -0.40142007228E+02  0.42889223407E+02  0.62500011265E+02  0.99999981229E+01 0.  0.
    3000022    2    5    5    0    0 -0.88377492401E+00 -0.21430609698E+01  0.40961466451E+01  0.47132458997E+01  0.25000227240E+00 0.  0.
        -13    1    4    4    0    0 -0.99646494476E+01  0.19976229852E+02 -0.19550772980E+02  0.29674698766E+02  0.10500000000E+00 0. -1.
         13    1    4    4    0    0 -0.87893312601E+01  0.17340940780E+02 -0.17050278150E+02  0.25858916859E+02  0.10500000000E+00 0.  1.
    3000001    1    5    5    0    0  0.19735438429E+02 -0.37998946258E+02  0.38793076762E+02  0.57786765365E+02  0.10000000000E+01 0. -1.
        -13    1    6    6    0    0 -0.38303184378E+00 -0.88561947254E+00  0.18348395937E+01  0.20757400074E+01  0.10500000000E+00 0. -1.
         13    1    6    6    0    0 -0.50074308023E+00 -0.12574414973E+01  0.22613070514E+01  0.26375058924E+01  0.10500000000E+00 0.  1.
</event>
<event>
11    0  0.3443539E-009  0.9118800E+02  0.7816531E-02  0.1126479E+00
         25   -1    0    0    0    0  0.00000000000E+00  0.00000000000E+00  0.99999998245E-14  0.12500000000E+03  0.12500000000E+03 0.  0.
    3000001    1    3    3    0    0  0.18829409223E+01 -0.34495534262E+02  0.35197062710E+02  0.49328699293E+02  0.10000000000E+01 0.  1.
    1000022    2    1    0    0    0  0.15842079889E+01 -0.39479062676E+02  0.47382949671E+02  0.62499999072E+02  0.99999929891E+01 0.  0.
    3000022    2    3    3    0    0 -0.29873293337E+00 -0.49835284131E+01  0.12185886961E+02  0.13171299779E+02  0.25000004052E+00 0.  0.
    1000022    2    1    0    0    0 -0.15842079889E+01  0.39479062676E+02 -0.47382949671E+02  0.62500000928E+02  0.10000004593E+02 0.  0.
    3000022    2    5    5    0    0 -0.52516292757E+01  0.24382365536E+02 -0.25771906738E+02  0.35865485350E+02  0.25000669524E+00 0.  0.
        -13    1    4    4    0    0 -0.14014010087E+00 -0.22236129112E+01  0.52656378684E+01  0.57185715688E+01  0.10500000000E+00 0. -1.
         13    1    4    4    0    0 -0.15859283251E+00 -0.27599155019E+01  0.69202490927E+01  0.74527282098E+01  0.10500000000E+00 0.  1.
    3000001    1    5    5    0    0  0.36674212868E+01  0.15096697140E+02 -0.21611042933E+02  0.26634515578E+02  0.10000000000E+01 0.  1.
        -13    1    6    6    0    0 -0.32212150508E+01  0.14850936925E+02 -0.15618434972E+02  0.21791583007E+02  0.10500000000E+00 0.  1.
         13    1    6    6    0    0 -0.20304142249E+01  0.95314286108E+01 -0.10153471765E+02  0.14073902344E+02  0.10500000000E+00 0. -1.
</event>
<event>
11    0  0.3443539E-009  0.9118800E+02  0.7816531E-02  0.1126479E+00
         25   -1    0    0    0    0  0.00000000000E+00  0.00000000000E+00  0.99999998245E-14  0.12500000000E+03  0.12500000000E+03 0.  0.
    3000001    1    3    3    0    0  0.58050336053E+01 -0.37148276219E+02  0.15331965226E+02  0.40617262327E+02  0.10000000000E+01 0.  1.
    1000022    2    1    0    0    0  0.12082150501E+02 -0.53196208355E+02  0.28817268898E+02  0.62500000677E+02  0.10000007692E+02 0.  0.
    3000022    2    3    3    0    0  0.62771168960E+01 -0.16047932136E+02  0.13485303672E+02  0.21882738351E+02  0.25000047741E+00 0.  0.
    1000022    2    1    0    0    0 -0.12082150501E+02  0.53196208355E+02 -0.28817268898E+02  0.62499999323E+02  0.99999992243E+01 0.  0.
    3000022    2    5    5    0    0  0.27545816297E-01  0.18964419518E+02 -0.75935527643E+01  0.20429745717E+02  0.25000011950E+00 0.  0.
        -13    1    4    4    0    0  0.44590754082E+01 -0.11491234209E+02  0.96144023449E+01  0.15632644517E+02  0.10500000000E+00 0.  1.
         13    1    4    4    0    0  0.18180414878E+01 -0.45566979274E+01  0.38709013268E+01  0.62500938341E+01  0.10500000000E+00 0. -1.
    3000001    1    5    5    0    0 -0.12109696318E+02  0.34231788837E+02 -0.21223716133E+02  0.42070253605E+02  0.10000000000E+01 0.  1.
        -13    1    6    6    0    0  0.28038283529E-01  0.13818064726E+02 -0.54942129065E+01  0.14870679183E+02  0.10500000000E+00 0.  1.
         13    1    6    6    0    0 -0.49246723285E-03  0.51463547925E+01 -0.20993398577E+01  0.55590665342E+01  0.10500000000E+00 0. -1.
</event>
<event>
11    0  0.3443539E-009  0.9118800E+02  0.7816531E-02  0.1126479E+00
         25   -1    0    0    0    0  0.00000000000E+00  0.00000000000E+00  0.99999998245E-14  0.12500000000E+03  0.12500000000E+03 0.  0.
    3000001    1    3    3    0    0 -0.18208498908E+02  0.30138007812E+02 -0.38510483790E+02  0.52191055835E+02  0.10000000000E+01 0.  1.
    1000022    2    1    0    0    0 -0.25337600128E+02  0.33673706122E+02 -0.45059268384E+02  0.62499999513E+02  0.99999903803E+01 0.  0.
    3000022    2    3    3    0    0 -0.71291012193E+01  0.35356983093E+01 -0.65487845943E+01  0.10308943678E+02  0.24998674478E+00 0.  0.
    1000022    2    1    0    0    0  0.25337600128E+02 -0.33673706122E+02  0.45059268384E+02  0.62500000487E+02  0.99999964685E+01 0.  0.
    3000022    2    5    5    0    0  0.96284755344E+01 -0.17950962900E+02  0.16010920138E+02  0.25910551384E+02  0.24999831636E+00 0.  0.
        -13    1    4    4    0    0 -0.44214109401E+01  0.21863270041E+01 -0.41367797958E+01  0.64383905247E+01  0.10500000000E+00 0.  1.
         13    1    4    4    0    0 -0.27076902792E+01  0.13493713052E+01 -0.24120047985E+01  0.38705531537E+01  0.10500000000E+00 0. -1.
    3000001    1    5    5    0    0  0.15709124593E+02 -0.15722743221E+02  0.29048348246E+02  0.36589449104E+02  0.10000000000E+01 0.  1.
        -13    1    6    6    0    0  0.46235490521E+01 -0.87539156682E+01  0.77505782199E+01  0.12573413741E+02  0.10500000000E+00 0. -1.
         13    1    6    6    0    0  0.50049264823E+01 -0.91970472321E+01  0.82603419184E+01  0.13337137642E+02  0.10500000000E+00 0.  1.
</event>
<event>
11    0  0.3443539E-009  0.9118800E+02  0.7816531E-02  0.1126479E+00
         25   -1    0    0    0    0  0.00000000000E+00  0.00000000000E+00  0.99999998245E-14  0.12500000000E+03  0.12500000000E+03 0.  0.
    3000001    1    3    3    0    0  0.18551078868E+01 -0.24042087573E+01 -0.90588382842E+01  0.96064663680E+01  0.10000000000E+01 0. -1.
    1000022    2    1    0    0    0  0.30328835757E+01  0.50117990398E+01 -0.61416065769E+02  0.62500001856E+02  0.10000029250E+02 0.  0.
    3000022    2    3    3    0    0  0.11777756889E+01  0.74160077970E+01 -0.52357227485E+02  0.52893535488E+02  0.24999852155E+00 0.  0.
    1000022    2    1    0    0    0 -0.30328835757E+01 -0.50117990398E+01  0.61416065769E+02  0.62499998144E+02  0.10000006055E+02 0.  0.
    3000022    2    5    5    0    0 -0.27881745810E+01 -0.77599926395E+01  0.37017704581E+02  0.37925774266E+02  0.24999597239E+00 0.  0.
        -13    1    4    4    0    0  0.75838197320E+00  0.44072243316E+01 -0.30987471713E+02  0.31308676077E+02  0.10500000000E+00 0. -1.
         13    1    4    4    0    0  0.41939371573E+00  0.30087834655E+01 -0.21369755772E+02  0.21584859411E+02  0.10500000000E+00 0.  1.
    3000001    1    5    5    0    0 -0.24470899476E+00  0.27481935997E+01  0.24398361189E+02  0.24574223879E+02  0.10000000000E+01 0.  1.
        -13    1    6    6    0    0 -0.12754912128E+01 -0.33653062206E+01  0.16253986248E+02  0.16647980590E+02  0.10500000000E+00 0. -1.
         13    1    6    6    0    0 -0.15126833681E+01 -0.43946864189E+01  0.20763718333E+02  0.21277793675E+02  0.10500000000E+00 0.  1.
</event>
<event>
11    0  0.3443539E-009  0.9118800E+02  0.7816531E-02  0.1126479E+00
         25   -1    0    0    0    0  0.00000000000E+00  0.00000000000E+00  0.99999998245E-14  0.12500000000E+03  0.12500000000E+03 0.  0.
    3000001    1    3    3    0    0  0.38138677450E+01 -0.63346237966E+01  0.27387144727E+02  0.28385361405E+02  0.10000000000E+01 0.  1.
    1000022    2    1    0    0    0  0.17761369275E+02 -0.88320451630E+01  0.58418998259E+02  0.62499997010E+02  0.99999504204E+01 0.  0.
    3000022    2    3    3    0    0  0.13947501530E+02 -0.24974213664E+01  0.31031853532E+02  0.34114635605E+02  0.25003280351E+00 0.  0.
    1000022    2    1    0    0    0 -0.17761369275E+02  0.88320451630E+01 -0.58418998259E+02  0.62500002990E+02  0.99999877944E+01 0.  0.
    3000022    2    5    5    0    0  0.26255441613E+00 -0.11516615922E+01 -0.13197381793E+01  0.17887048039E+01  0.24999353819E+00 0.  0.
        -13    1    4    4    0    0  0.53701182811E+01 -0.93209585842E+00  0.11807407760E+02  0.13005109613E+02  0.10500000000E+00 0. -1.
         13    1    4    4    0    0  0.85773832492E+01 -0.15653255080E+01  0.19224445772E+02  0.21109525992E+02  0.10500000000E+00 0.  1.
    3000001    1    5    5    0    0 -0.18023923691E+02  0.99837067552E+01 -0.57099260079E+02  0.60711298186E+02  0.10000000000E+01 0.  1.
        -13    1    6    6    0    0  0.19300819395E+00 -0.85988025183E+00 -0.92459658890E+00  0.12816200929E+01  0.10500000000E+00 0. -1.
         13    1    6    6    0    0  0.69546222180E-01 -0.29178134041E+00 -0.39514159040E+00  0.50708471096E+00  0.10500000000E+00 0.  1.
</event>
<event>
11    0  0.3443539E-009  0.9118800E+02  0.7816531E-02  0.1126479E+00
         25   -1    0    0    0    0  0.00000000000E+00  0.00000000000E+00  0.99999998245E-14  0.12500000000E+03  0.12500000000E+03 0.  0.
    3000001    1    3    3    0    0  0.22495097895E+02  0.41967055989E+02 -0.33053997211E+02  0.57972665536E+02  0.10000000000E+01 0. -1.
    1000022    2    1    0    0    0  0.24450530580E+02  0.46042199184E+02 -0.32992984602E+02  0.62499996481E+02  0.99999987948E+01 0.  0.
    3000022    2    3    3    0    0  0.19554326844E+01  0.40751431951E+01  0.61012608594E-01  0.45273309458E+01  0.24998782177E+00 0.  0.
    1000022    2    1    0    0    0 -0.24450530580E+02 -0.46042199184E+02  0.32992984602E+02  0.62500003519E+02  0.10000042776E+02 0.  0.
    3000022    2    5    5    0    0 -0.14905356185E+02 -0.30900502358E+02  0.16218822349E+02  0.37948957588E+02  0.24998923170E+00 0.  0.
        -13    1    4    4    0    0  0.95452930126E+00  0.18864057165E+01 -0.22001028340E-01  0.21168754710E+01  0.10500000000E+00 0.  1.
         13    1    4    4    0    0  0.10009033831E+01  0.21887374786E+01  0.83013636934E-01  0.24104554748E+01  0.10500000000E+00 0. -1.
    3000001    1    5    5    0    0 -0.95451743951E+01 -0.15141696825E+02  0.16774162254E+02  0.24551045931E+02  0.10000000000E+01 0.  1.
        -13    1    6    6    0    0 -0.89376088100E+01 -0.18383089909E+02  0.96685399534E+01  0.22612176712E+02  0.10500000000E+00 0.  1.
         13    1    6    6    0    0 -0.59677473747E+01 -0.12517412450E+02  0.65502823952E+01  0.15336780876E+02  0.10500000000E+00 0. -1.
</event>
<event>
11    0  0.3443539E-009  0.9118800E+02  0.7816531E-02  0.1126479E+00
         25   -1    0    0    0    0  0.00000000000E+00  0.00000000000E+00  0.99999998245E-14  0.12500000000E+03  0.12500000000E+03 0.  0.
    3000001    1    3    3    0    0  0.10358926764E+02  0.80572348806E+00  0.11412669388E+02  0.15466272227E+02  0.10000000000E+01 0.  1.
    1000022    2    1    0    0    0  0.28368444599E+02 -0.27074710005E+01  0.54718834745E+02  0.62500001924E+02  0.10000015821E+02 0.  0.
    3000022    2    3    3    0    0  0.18009517835E+02 -0.35131944885E+01  0.43306165357E+02  0.47033729697E+02  0.25000616597E+00 0.  0.
    1000022    2    1    0    0    0 -0.28368444599E+02  0.27074710005E+01 -0.54718834745E+02  0.62499998076E+02  0.99999917748E+01 0.  0.
    3000022    2    5    5    0    0 -0.88916373405E+01  0.51278621152E+01 -0.14890677195E+02  0.18087314663E+02  0.24999985077E+00 0.  0.
        -13    1    4    4    0    0  0.12862492832E+02 -0.24886934033E+01  0.30824838011E+02  0.33493566249E+02  0.10500000000E+00 0.  1.
         13    1    4    4    0    0  0.51470250034E+01 -0.10245010853E+01  0.12481327346E+02  0.13540163448E+02  0.10500000000E+00 0. -1.
    3000001    1    5    5    0    0 -0.19476807258E+02 -0.24203911148E+01 -0.39828157551E+02  0.44412683414E+02  0.10000000000E+01 0. -1.
        -13    1    6    6    0    0 -0.65258239665E+01  0.37254678594E+01 -0.10877422941E+02  0.13221000116E+02  0.10500000000E+00 0.  1.
         13    1    6    6    0    0 -0.23658133740E+01  0.14023942559E+01 -0.40132542533E+01  0.48663145471E+01  0.10500000000E+00 0. -1.
</event>
<event>
11    0  0.3443539E-009  0.9118800E+02  0.7816531E-02  0.1126479E+00
         25   -1    0    0    0    0  0.00000000000E+00  0.00000000000E+00  0.99999998245E-14  0.12500000000E+03  0.12500000000E+03 0.  0.
    3000001    1    3    3    0    0  0.59617096599E+01 -0.55138006270E+01 -0.80492015146E+01  0.11477526931E+02  0.10000000000E+01 0.  1.
    1000022    2    1    0    0    0  0.47340902445E+02 -0.19562644283E+02 -0.34385920410E+02  0.62500001065E+02  0.10000025754E+02 0.  0.
    3000022    2    3    3    0    0  0.41379192785E+02 -0.14048843656E+02 -0.26336718895E+02  0.51022474135E+02  0.25000206446E+00 0.  0.
    1000022    2    1    0    0    0 -0.47340902445E+02  0.19562644283E+02  0.34385920410E+02  0.62499998935E+02  0.10000012437E+02 0.  0.
    3000022    2    5    5    0    0 -0.17380226039E+02  0.69338162988E+01  0.70077586590E+01  0.19983023880E+02  0.24999264228E+00 0.  0.
        -13    1    4    4    0    0  0.19712737332E+02 -0.66490819483E+01 -0.12600542677E+02  0.24322561638E+02  0.10500000000E+00 0. -1.
         13    1    4    4    0    0  0.21666455453E+02 -0.73997617076E+01 -0.13736176218E+02  0.26699912497E+02  0.10500000000E+00 0.  1.
    3000001    1    5    5    0    0 -0.29960676406E+02  0.12628827984E+02  0.27378161751E+02  0.42516975055E+02  0.10000000000E+01 0. -1.
        -13    1    6    6    0    0 -0.11323519447E+02  0.45741676673E+01  0.45527227788E+01  0.13033933106E+02  0.10500000000E+00 0. -1.
         13    1    6    6    0    0 -0.60567065926E+01  0.23596486316E+01  0.24550358802E+01  0.69490907741E+01  0.10500000000E+00 0.  1.
</event>
<event>
11    0  0.3443539E-009  0.9118800E+02  0.7816531E-02  0.1126479E+00
         25   -1    0    0    0    0  0.00000000000E+00  0.00000000000E+00  0.99999998245E-14  0.12500000000E+03  0.12500000000E+03 0.  0.
    3000001    1    3    3    0    0 -0.50392787449E+02 -0.18711206483E+02 -0.11291440489E+01  0.53775619394E+02  0.10000000000E+01 0. -1.
    1000022    2    1    0    0    0 -0.59043806404E+02 -0.17886277541E+02 -0.39998460248E+00  0.62499999659E+02  0.99999985383E+01 0.  0.
    3000022    2    3    3    0    0 -0.86510189549E+01  0.82492894245E+00  0.72915944639E+00  0.87243802649E+01  0.25000157968E+00 0.  0.
    1000022    2    1    0    0    0  0.59043806404E+02  0.17886277541E+02  0.39998460248E+00  0.62500000341E+02  0.10000002804E+02 0.  0.
    3000022    2    5    5    0    0  0.10987387380E+01  0.20119340907E+01 -0.67215717025E+00  0.24019543271E+01  0.24996745422E+00 0.  0.
        -13    1    4    4    0    0 -0.32805013959E+01  0.27277325697E+00  0.32216811110E+00  0.33092162139E+01  0.10500000000E+00 0.  1.
         13    1    4    4    0    0 -0.53705175590E+01  0.55215568548E+00  0.40699133529E+00  0.54151640510E+01  0.10500000000E+00 0. -1.
    3000001    1    5    5    0    0  0.57945067666E+02  0.15874343450E+02  0.10721417727E+01  0.60098046014E+02  0.10000000000E+01 0.  1.
        -13    1    6    6    0    0  0.45672044208E+00  0.94471581090E+00 -0.26364813434E+00  0.10870220165E+01  0.10500000000E+00 0. -1.
         13    1    6    6    0    0  0.64201829593E+00  0.10672182798E+01 -0.40850903590E+00  0.13149323106E+01  0.10500000000E+00 0.  1.
</event>
<event>
11    0  0.3443539E-009  0.9118800E+02  0.7816531E-02  0.1126479E+00
         25   -1    0    0    0    0  0.00000000000E+00  0.00000000000E+00  0.99999998245E-14  0.12500000000E+03  0.12500000000E+03 0.  0.
    3000001    1    3    3    0    0  0.12994984073E+02  0.12824647440E+02 -0.86195846585E+01  0.20214807264E+02  0.10000000000E+01 0. -1.
    1000022    2    1    0    0    0  0.39673945160E+02  0.45253390151E+02 -0.13577875191E+02  0.62499999268E+02  0.99999984593E+01 0.  0.
    3000022    2    3    3    0    0  0.26678961087E+02  0.32428742710E+02 -0.49582905326E+01  0.42285192005E+02  0.24999885389E+00 0.  0.
    1000022    2    1    0    0    0 -0.39673945160E+02 -0.45253390151E+02  0.13577875191E+02  0.62500000732E+02  0.10000007605E+02 0.  0.
    3000022    2    5    5    0    0 -0.38876849379E+02 -0.44307751906E+02  0.11801987560E+02  0.60116018716E+02  0.24999849682E+00 0.  0.
        -13    1    4    4    0    0  0.16118184963E+02  0.19588919365E+02 -0.29322384788E+01  0.25536849764E+02  0.10500000000E+00 0.  1.
         13    1    4    4    0    0  0.10560776124E+02  0.12839823346E+02 -0.20260520538E+01  0.16748342241E+02  0.10500000000E+00 0. -1.
    3000001    1    5    5    0    0 -0.79709578012E+00 -0.94563824459E+00  0.17758876314E+01  0.23839820158E+01  0.10000000000E+01 0.  1.
        -13    1    6    6    0    0 -0.15210309136E+02 -0.17426018390E+02  0.46482685603E+01  0.23593156774E+02  0.10500000000E+00 0.  1.
         13    1    6    6    0    0 -0.23666540243E+02 -0.26881733516E+02  0.71537189995E+01  0.36522861942E+02  0.10500000000E+00 0. -1.
</event>
<event>
11    0  0.3443539E-009  0.9118800E+02  0.7816531E-02  0.1126479E+00
         25   -1    0    0    0    0  0.00000000000E+00  0.00000000000E+00  0.99999998245E-14  0.12500000000E+03  0.12500000000E+03 0.  0.
    3000001    1    3    3    0    0 -0.36169282646E+02  0.24157119281E+02  0.22112964650E+02  0.48803346450E+02  0.10000000000E+01 0.  1.
    1000022    2    1    0    0    0 -0.46494248659E+02  0.26329720908E+02  0.30842843861E+02  0.62500003451E+02  0.10000002619E+02 0.  0.
    3000022    2    3    3    0    0 -0.10324966013E+02  0.21726016270E+01  0.87298792116E+01  0.13696657001E+02  0.25000188930E+00 0.  0.
    1000022    2    1    0    0    0  0.46494248659E+02 -0.26329720908E+02 -0.30842843861E+02  0.62499996549E+02  0.99999594865E+01 0.  0.
    3000022    2    5    5    0    0  0.28886799462E+02 -0.12978099372E+02 -0.13656634528E+02  0.34488322981E+02  0.25001784156E+00 0.  0.
        -13    1    4    4    0    0 -0.38054672183E+01  0.74389714631E+00  0.31823413853E+01  0.50172986164E+01  0.10500000000E+00 0. -1.
         13    1    4    4    0    0 -0.65194987950E+01  0.14287044806E+01  0.55475378263E+01  0.86793583844E+01  0.10500000000E+00 0.  1.
    3000001    1    5    5    0    0  0.17607449197E+02 -0.13351621536E+02 -0.17186209333E+02  0.28011673568E+02  0.10000000000E+01 0. -1.
        -13    1    6    6    0    0  0.13957510384E+02 -0.62829815365E+01 -0.65280502447E+01  0.16640745719E+02  0.10500000000E+00 0. -1.
         13    1    6    6    0    0  0.14929289079E+02 -0.66951178360E+01 -0.71285842837E+01  0.17847577262E+02  0.10500000000E+00 0.  1.
</event>
<event>
11    0  0.3443539E-009  0.9118800E+02  0.7816531E-02  0.1126479E+00
         25   -1    0    0    0    0  0.00000000000E+00  0.00000000000E+00  0.99999998245E-14  0.12500000000E+03  0.12500000000E+03 0.  0.
    3000001    1    3    3    0    0 -0.10239754644E+02  0.21092634289E+02  0.18872487506E+02  0.30115155339E+02  0.10000000000E+01 0.  1.
    1000022    2    1    0    0    0 -0.29862096646E+02  0.42035000802E+02  0.33875710922E+02  0.62500001006E+02  0.10000011335E+02 0.  0.
    3000022    2    3    3    0    0 -0.19622342002E+02  0.20942366513E+02  0.15003223417E+02  0.32384845667E+02  0.24999036669E+00 0.  0.
    1000022    2    1    0    0    0  0.29862096646E+02 -0.42035000802E+02 -0.33875710922E+02  0.62499998994E+02  0.99999987629E+01 0.  0.
    3000022    2    5    5    0    0  0.29837645997E+02 -0.41923279567E+02 -0.32778093584E+02  0.61010756472E+02  0.24999600414E+00 0.  0.
        -13    1    4    4    0    0 -0.13170489281E+02  0.14120670497E+02  0.10062388401E+02  0.21774246451E+02  0.10500000000E+00 0. -1.
         13    1    4    4    0    0 -0.64518527209E+01  0.68216960165E+01  0.49408350155E+01  0.10610599216E+02  0.10500000000E+00 0.  1.
    3000001    1    5    5    0    0  0.24450648876E-01 -0.11172123544E+00 -0.10976173385E+01  0.14892425224E+01  0.10000000000E+01 0.  1.
        -13    1    6    6    0    0  0.79905398115E+01 -0.11213871600E+02 -0.88117900911E+01  0.16348036957E+02  0.10500000000E+00 0. -1.
         13    1    6    6    0    0  0.21847106185E+02 -0.30709407967E+02 -0.23966303493E+02  0.44662719515E+02  0.10500000000E+00 0.  1.
</event>
<event>
11    0  0.3443539E-009  0.9118800E+02  0.7816531E-02  0.1126479E+00
         25   -1    0    0    0    0  0.00000000000E+00  0.00000000000E+00  0.99999998245E-14  0.12500000000E+03  0.12500000000E+03 0.  0.
    3000001    1    3    3    0    0 -0.39371432271E+02  0.25366046802E+02 -0.40086275387E+02  0.61655944432E+02  0.10000000000E+01 0.  1.
    1000022    2    1    0    0    0 -0.39999192107E+02  0.24951812302E+02 -0.39795999012E+02  0.62499998193E+02  0.99999965211E+01 0.  0.
    3000022    2    3    3    0    0 -0.62775983589E+00 -0.41423449986E+00  0.29027637487E+00  0.84405376102E+00  0.24998749020E+00 0.  0.
    1000022    2    1    0    0    0  0.39999192107E+02 -0.24951812302E+02  0.39795999012E+02  0.62500001807E+02  0.10000019108E+02 0.  0.
    3000022    2    5    5    0    0  0.16450343018E+02 -0.15819330563E+02  0.20807171000E+02  0.30884719025E+02  0.24999872219E+00 0.  0.
        -13    1    4    4    0    0 -0.40971118856E+00 -0.21065629641E+00  0.13309242260E+00  0.49089502564E+00  0.10500000000E+00 0.  1.
         13    1    4    4    0    0 -0.21804864733E+00 -0.20357820345E+00  0.15718395228E+00  0.35315873538E+00  0.10500000000E+00 0. -1.
    3000001    1    5    5    0    0  0.23548849089E+02 -0.91324817395E+01  0.18988828011E+02  0.31615282782E+02  0.10000000000E+01 0.  1.
        -13    1    6    6    0    0  0.64469532599E+01 -0.61544902355E+01  0.80546521616E+01  0.12013717278E+02  0.10500000000E+00 0. -1.
         13    1    6    6    0    0  0.10003389758E+02 -0.96648403270E+01  0.12752518839E+02  0.18871001747E+02  0.10500000000E+00 0.  1.
</event>
<event>
11    0  0.3443539E-009  0.9118800E+02  0.7816531E-02  0.1126479E+00
         25   -1    0    0    0    0  0.00000000000E+00  0.00000000000E+00  0.99999998245E-14  0.12500000000E+03  0.12500000000E+03 0.  0.
    3000001    1    3    3    0    0 -0.24744835808E+02  0.15476052700E+01  0.17263979439E+01  0.24873327705E+02  0.10000000000E+01 0. -1.
    1000022    2    1    0    0    0 -0.60326288670E+02 -0.56373325036E+01  0.11627957470E+02  0.62500000410E+02  0.10000001695E+02 0.  0.
    3000022    2    3    3    0    0 -0.35581452862E+02 -0.71849377736E+01  0.99015595265E+01  0.37626672705E+02  0.24999854500E+00 0.  0.
    1000022    2    1    0    0    0  0.60326288670E+02  0.56373325036E+01 -0.11627957470E+02  0.62499999590E+02  0.99999965707E+01 0.  0.
    3000022    2    5    5    0    0  0.40424471644E+01 -0.13537287557E+01 -0.27629469377E+01  0.50862889987E+01  0.24999875506E+00 0.  0.
        -13    1    4    4    0    0 -0.22310373456E+02 -0.45580252160E+01  0.62423483646E+01  0.23611571225E+02  0.10500000000E+00 0.  1.
         13    1    4    4    0    0 -0.13271079406E+02 -0.26269125576E+01  0.36592111619E+01  0.14015101481E+02  0.10500000000E+00 0. -1.
    3000001    1    5    5    0    0  0.56283841505E+02  0.69910612592E+01 -0.88650105327E+01  0.57413710591E+02  0.10000000000E+01 0. -1.
        -13    1    6    6    0    0  0.26328326756E+01 -0.86091961272E+00 -0.18570076630E+01  0.33365390658E+01  0.10500000000E+00 0.  1.
         13    1    6    6    0    0  0.14096144888E+01 -0.49280914293E+00 -0.90593927464E+00  0.17497499329E+01  0.10500000000E+00 0. -1.
</event>
<event>
11    0  0.3443539E-009  0.9118800E+02  0.7816531E-02  0.1126479E+00
         25   -1    0    0    0    0  0.00000000000E+00  0.00000000000E+00  0.99999998245E-14  0.12500000000E+03  0.12500000000E+03 0.  0.
    3000001    1    3    3    0    0 -0.36293013893E+02  0.31005349027E+02 -0.61300207326E+01  0.48136178493E+02  0.10000000000E+01 0.  1.
    1000022    2    1    0    0    0 -0.45996049950E+02  0.38973544911E+02 -0.13102525965E+02  0.62500000461E+02  0.10000002854E+02 0.  0.
    3000022    2    3    3    0    0 -0.97030360569E+01  0.79681958842E+01 -0.69725052326E+01  0.14363821969E+02  0.24999590678E+00 0.  0.
    1000022    2    1    0    0    0  0.45996049950E+02 -0.38973544911E+02  0.13102525965E+02  0.62499999539E+02  0.99999970872E+01 0.  0.
    3000022    2    5    5    0    0  0.10406986319E+01 -0.83270301543E+00  0.21286298907E+01  0.25238890639E+01  0.25000568200E+00 0.  0.
        -13    1    4    4    0    0 -0.40676875620E+01  0.33183853169E+01 -0.28441180454E+01  0.59714148801E+01  0.10500000000E+00 0. -1.
         13    1    4    4    0    0 -0.56353484949E+01  0.46498105674E+01 -0.41283871872E+01  0.83924070885E+01  0.10500000000E+00 0.  1.
    3000001    1    5    5    0    0  0.44955351318E+02 -0.38140841896E+02  0.10973896075E+02  0.59976110475E+02  0.10000000000E+01 0. -1.
        -13    1    6    6    0    0  0.44686030276E+00 -0.40861698975E+00  0.86846509773E+00  0.10639119327E+01  0.10500000000E+00 0.  1.
         13    1    6    6    0    0  0.59383832910E+00 -0.42408602568E+00  0.12601647930E+01  0.14599771312E+01  0.10500000000E+00 0. -1.
</event>
<event>
11    0  0.3443539E-009  0.9118800E+02  0.7816531E-02  0.1126479E+00
         25   -1    0    0    0    0  0.00000000000E+00  0.00000000000E+00  0.99999998245E-14  0.12500000000E+03  0.12500000000E+03 0.  0.
    3000001    1    3    3    0    0  0.31828025778E+01  0.71396151405E+01 -0.27775270396E+01  0.83557760298E+01  0.10000000000E+01 0.  1.
    1000022    2    1    0    0    0  0.26814574699E+02  0.55457031478E+02  0.34274987898E+01  0.62500011435E+02  0.99999962436E+01 0.  0.
    3000022    2    3    3    0    0  0.23631772121E+02  0.48317416337E+02  0.62050258293E+01  0.54144235406E+02  0.25001407506E+00 0.  0.
    1000022    2    1    0    0    0 -0.26814574699E+02 -0.55457031478E+02 -0.34274987898E+01  0.62499988565E+02  0.99998533003E+01 0.  0.
    3000022    2    5    5    0    0 -0.15231783205E+02 -0.32195187494E+02 -0.68510463153E+01  0.36270327454E+02  0.25000127487E+00 0.  0.
        -13    1    4    4    0    0  0.64728625320E+01  0.13310103478E+02  0.16890275577E+01  0.14897001142E+02  0.10500000000E+00 0.  1.
         13    1    4    4    0    0  0.17158909589E+02  0.35007312859E+02  0.45159982716E+01  0.39247234263E+02  0.10500000000E+00 0. -1.
    3000001    1    5    5    0    0 -0.11582791494E+02 -0.23261843983E+02  0.34235475256E+01  0.26229661110E+02  0.10000000000E+01 0. -1.
        -13    1    6    6    0    0 -0.66900522199E+01 -0.14225064376E+02 -0.29672525458E+01  0.15997651949E+02  0.10500000000E+00 0. -1.
         13    1    6    6    0    0 -0.85417309846E+01 -0.17970123118E+02 -0.38837937696E+01  0.20272675505E+02  0.10500000000E+00 0.  1.
</event>
<event>
11    0  0.3443539E-009  0.9118800E+02  0.7816531E-02  0.1126479E+00
         25   -1    0    0    0    0  0.00000000000E+00  0.00000000000E+00  0.99999998245E-14  0.12500000000E+03  0.12500000000E+03 0.  0.
    3000001    1    3    3    0    0  0.48586960949E+01 -0.82942971594E+01  0.43174445960E+01  0.10585018703E+02  0.10000000000E+01 0. -1.
    1000022    2    1    0    0    0  0.25420338832E+02 -0.36556542367E+02  0.42704514799E+02  0.62500000141E+02  0.10000000867E+02 0.  0.
    3000022    2    3    3    0    0  0.20561642737E+02 -0.28262245208E+02  0.38387070203E+02  0.51914981438E+02  0.24996551317E+00 0.  0.
    1000022    2    1    0    0    0 -0.25420338832E+02  0.36556542367E+02 -0.42704514799E+02  0.62499999859E+02  0.99999990983E+01 0.  0.
    3000022    2    5    5    0    0 -0.20404475756E+02  0.25676410305E+02 -0.25663202337E+02  0.41644725070E+02  0.24998988715E+00 0.  0.
        -13    1    4    4    0    0  0.10082949762E+02 -0.13973864976E+02  0.18916904429E+02  0.25588963958E+02  0.10500000000E+00 0. -1.
         13    1    4    4    0    0  0.10478692975E+02 -0.14288380232E+02  0.19470165774E+02  0.26326017481E+02  0.10500000000E+00 0.  1.
    3000001    1    5    5    0    0 -0.50158630759E+01  0.10880132061E+02 -0.17041312462E+02  0.20855274788E+02  0.10000000000E+01 0. -1.
        -13    1    6    6    0    0 -0.10279023396E+02  0.13026536950E+02 -0.13030848998E+02  0.21098887115E+02  0.10500000000E+00 0. -1.
         13    1    6    6    0    0 -0.10125452360E+02  0.12649873355E+02 -0.12632353339E+02  0.20545837955E+02  0.10500000000E+00 0.  1.
</event>
<event>
11    0  0.3443539E-009  0.9118800E+02  0.7816531E-02  0.1126479E+00
         25   -1    0    0    0    0  0.00000000000E+00  0.00000000000E+00  0.99999998245E-14  0.12500000000E+03  0.12500000000E+03 0.  0.
    3000001    1    3    3    0    0  0.84417318677E+01 -0.22055311552E+01 -0.12288337656E+02  0.15103987783E+02  0.10000000000E+01 0.  1.
    1000022    2    1    0    0    0  0.26299795642E+02 -0.24151614316E+02 -0.50311727825E+02  0.62499997240E+02  0.99999986678E+01 0.  0.
    3000022    2    3    3    0    0  0.17858063774E+02 -0.21946083161E+02 -0.38023390168E+02  0.47396009456E+02  0.25000921481E+00 0.  0.
    1000022    2    1    0    0    0 -0.26299795642E+02  0.24151614316E+02  0.50311727825E+02  0.62500002760E+02  0.10000033173E+02 0.  0.
    3000022    2    5    5    0    0 -0.52588273574E-01 -0.51559752669E+00 -0.47252840243E-01  0.57735610878E+00  0.25000181877E+00 0.  0.
        -13    1    4    4    0    0  0.70884391900E+01 -0.87325399554E+01 -0.15218089236E+02  0.18923648940E+02  0.10500000000E+00 0.  1.
         13    1    4    4    0    0  0.10769624584E+02 -0.13213543206E+02 -0.22805300932E+02  0.28472360516E+02  0.10500000000E+00 0. -1.
    3000001    1    5    5    0    0 -0.26247207368E+02  0.24667211843E+02  0.50358980665E+02  0.61922646652E+02  0.10000000000E+01 0. -1.
        -13    1    6    6    0    0 -0.15739700830E-01 -0.32175252426E+00 -0.88228747617E-01  0.35011674761E+00  0.10500000000E+00 0.  1.
         13    1    6    6    0    0 -0.36848572745E-01 -0.19384500243E+00  0.40975907374E-01  0.22723936117E+00  0.10500000000E+00 0. -1.
</event>
<event>
11    0  0.3443539E-009  0.9118800E+02  0.7816531E-02  0.1126479E+00
         25   -1    0    0    0    0  0.00000000000E+00  0.00000000000E+00  0.99999998245E-14  0.12500000000E+03  0.12500000000E+03 0.  0.
    3000001    1    3    3    0    0 -0.23380395679E+02 -0.39788357845E+02  0.10587449630E+02  0.47358741662E+02  0.10000000000E+01 0. -1.
    1000022    2    1    0    0    0 -0.29733135546E+02 -0.53377601906E+02  0.85453080931E+01  0.62500000064E+02  0.99999991473E+01 0.  0.
    3000022    2    3    3    0    0 -0.63527398669E+01 -0.13589244061E+02 -0.20421415372E+01  0.15141258402E+02  0.25001195106E+00 0.  0.
    1000022    2    1    0    0    0  0.29733135546E+02  0.53377601906E+02 -0.85453080931E+01  0.62499999936E+02  0.99999983508E+01 0.  0.
    3000022    2    5    5    0    0  0.29106458429E+02  0.47846071399E+02 -0.93742789701E+01  0.56783554654E+02  0.25000453422E+00 0.  0.
        -13    1    4    4    0    0 -0.15036425418E+01 -0.32579488218E+01 -0.48204319973E+00  0.36219555582E+01  0.10500000000E+00 0. -1.
         13    1    4    4    0    0 -0.48490973251E+01 -0.10331295239E+02 -0.15600983375E+01  0.11519302844E+02  0.10500000000E+00 0.  1.
    3000001    1    5    5    0    0  0.62667711670E+00  0.55315305065E+01  0.82897087695E+00  0.57164452825E+01  0.10000000000E+01 0.  1.
        -13    1    6    6    0    0  0.16780568816E+02  0.27508209154E+02 -0.53411217295E+01  0.32662327948E+02  0.10500000000E+00 0. -1.
         13    1    6    6    0    0  0.12325889613E+02  0.20337862246E+02 -0.40331572406E+01  0.24121226706E+02  0.10500000000E+00 0.  1.
</event>
<event>
11    0  0.3443539E-009  0.9118800E+02  0.7816531E-02  0.1126479E+00
         25   -1    0    0    0    0  0.00000000000E+00  0.00000000000E+00  0.99999998245E-14  0.12500000000E+03  0.12500000000E+03 0.  0.
    3000001    1    3    3    0    0  0.24618792692E+01  0.11353281512E+02  0.13532900042E+02  0.17863292926E+02  0.10000000000E+01 0.  1.
    1000022    2    1    0    0    0  0.20482204407E+02  0.30036569440E+02  0.49845098924E+02  0.62500000420E+02  0.99999982339E+01 0.  0.
    3000022    2    3    3    0    0  0.18020325138E+02  0.18683287928E+02  0.36312198882E+02  0.44636707494E+02  0.25000472950E+00 0.  0.
    1000022    2    1    0    0    0 -0.20482204407E+02 -0.30036569440E+02 -0.49845098924E+02  0.62499999580E+02  0.99999929816E+01 0.  0.
    3000022    2    5    5    0    0 -0.13327749038E+02 -0.26496805758E+02 -0.39256818736E+02  0.49202336782E+02  0.25003545217E+00 0.  0.
        -13    1    4    4    0    0  0.49416594028E+01  0.51717675914E+01  0.10038321420E+02  0.12326641862E+02  0.10500000000E+00 0.  1.
         13    1    4    4    0    0  0.13078665735E+02  0.13511520336E+02  0.26273877463E+02  0.32310065632E+02  0.10500000000E+00 0. -1.
    3000001    1    5    5    0    0 -0.71544553684E+01 -0.35397636820E+01 -0.10588280188E+02  0.13297662798E+02  0.10000000000E+01 0.  1.
        -13    1    6    6    0    0 -0.77951018924E+01 -0.15372498042E+02 -0.22758945691E+02  0.28549219666E+02  0.10500000000E+00 0.  1.
         13    1    6    6    0    0 -0.55326471460E+01 -0.11124307716E+02 -0.16497873044E+02  0.20653117115E+02  0.10500000000E+00 0. -1.
</event>
<event>
11    0  0.3443539E-009  0.9118800E+02  0.7816531E-02  0.1126479E+00
         25   -1    0    0    0    0  0.00000000000E+00  0.00000000000E+00  0.99999998245E-14  0.12500000000E+03  0.12500000000E+03 0.  0.
    3000001    1    3    3    0    0  0.21196952763E+02 -0.20258305900E+02 -0.22316246330E+02  0.36860881902E+02  0.10000000000E+01 0.  1.
    1000022    2    1    0    0    0  0.41682851235E+02 -0.29201494225E+02 -0.34872089243E+02  0.62499999828E+02  0.10000000910E+02 0.  0.
    3000022    2    3    3    0    0  0.20485898472E+02 -0.89431883256E+01 -0.12555842913E+02  0.25639117925E+02  0.25004618070E+00 0.  0.
    1000022    2    1    0    0    0 -0.41682851235E+02  0.29201494225E+02  0.34872089243E+02  0.62500000172E+02  0.10000003065E+02 0.  0.
    3000022    2    5    5    0    0 -0.25795620436E+02  0.23307065607E+02  0.21359389722E+02  0.40803423495E+02  0.24999735089E+00 0.  0.
        -13    1    4    4    0    0  0.84176761538E+01 -0.36097865789E+01 -0.51716480828E+01  0.10518783193E+02  0.10500000000E+00 0.  1.
         13    1    4    4    0    0  0.12068222318E+02 -0.53334017466E+01 -0.73841948307E+01  0.15120334732E+02  0.10500000000E+00 0. -1.
    3000001    1    5    5    0    0 -0.15887230799E+02  0.58944286178E+01  0.13512699521E+02  0.21696576678E+02  0.10000000000E+01 0.  1.
        -13    1    6    6    0    0 -0.86385519896E+01  0.77634054506E+01  0.71873159320E+01  0.13658827914E+02  0.10500000000E+00 0. -1.
         13    1    6    6    0    0 -0.17157068446E+02  0.15543660157E+02  0.14172073790E+02  0.27144595581E+02  0.10500000000E+00 0.  1.
</event>
<event>
11    0  0.3443539E-009  0.9118800E+02  0.7816531E-02  0.1126479E+00
         25   -1    0    0    0    0  0.00000000000E+00  0.00000000000E+00  0.99999998245E-14  0.12500000000E+03  0.12500000000E+03 0.  0.
    3000001    1    3    3    0    0  0.35556949728E+02  0.58199521280E+01 -0.16023693001E+01  0.36079580154E+02  0.10000000000E+01 0. -1.
    1000022    2    1    0    0    0  0.59171262194E+02  0.17452984628E+02  0.63658948268E+00  0.62500000648E+02  0.99999946395E+01 0.  0.
    3000022    2    3    3    0    0  0.23614312466E+02  0.11633032500E+02  0.22389587828E+01  0.26420420494E+02  0.24996851786E+00 0.  0.
    1000022    2    1    0    0    0 -0.59171262194E+02 -0.17452984628E+02 -0.63658948268E+00  0.62499999352E+02  0.99999865444E+01 0.  0.
    3000022    2    5    5    0    0 -0.16356135085E+02 -0.90339337196E+00 -0.23730745604E+01  0.16553949898E+02  0.24999969661E+00 0.  0.
        -13    1    4    4    0    0  0.97766611851E+01  0.48127518166E+01  0.86239913129E+00  0.10931625736E+02  0.10500000000E+00 0.  1.
         13    1    4    4    0    0  0.13837651281E+02  0.68202806830E+01  0.13765596515E+01  0.15488794758E+02  0.10500000000E+00 0. -1.
    3000001    1    5    5    0    0 -0.42815127108E+02 -0.16549591256E+02  0.17364850777E+01  0.45946049454E+02  0.10000000000E+01 0.  1.
        -13    1    6    6    0    0 -0.99492902187E+01 -0.48970146054E+00 -0.14605366496E+01  0.10068384959E+02  0.10500000000E+00 0. -1.
         13    1    6    6    0    0 -0.64068448666E+01 -0.41369191142E+00 -0.91253791077E+00  0.64855649393E+01  0.10500000000E+00 0.  1.
</event>
<event>
11    0  0.3443539E-009  0.9118800E+02  0.7816531E-02  0.1126479E+00
         25   -1    0    0    0    0  0.00000000000E+00  0.00000000000E+00  0.99999998245E-14  0.12500000000E+03  0.12500000000E+03 0.  0.
    3000001    1    3    3    0    0 -0.19424152604E+02  0.67182951158E+01 -0.12792805821E+02  0.24229921057E+02  0.10000000000E+01 0.  1.
    1000022    2    1    0    0    0 -0.49819728296E+02  0.53041074563E+01 -0.36001542195E+02  0.62499999350E+02  0.99999997476E+01 0.  0.
    3000022    2    3    3    0    0 -0.30395575692E+02 -0.14141876595E+01 -0.23208736374E+02  0.38270078293E+02  0.25000022302E+00 0.  0.
    1000022    2    1    0    0    0  0.49819728296E+02 -0.53041074563E+01  0.36001542195E+02  0.62500000650E+02  0.10000007875E+02 0.  0.
    3000022    2    5    5    0    0  0.19581571556E+02 -0.36579328923E+01  0.87894377585E+01  0.21774644402E+02  0.25001012836E+00 0.  0.
        -13    1    4    4    0    0 -0.18544084793E+02 -0.83699887764E+00 -0.14087450257E+02  0.23303453127E+02  0.10500000000E+00 0.  1.
         13    1    4    4    0    0 -0.11851490899E+02 -0.57718878184E+00 -0.91212861170E+01  0.14966625166E+02  0.10500000000E+00 0. -1.
    3000001    1    5    5    0    0  0.30238156739E+02 -0.16461745640E+01  0.27212104436E+02  0.40725356248E+02  0.10000000000E+01 0.  1.
        -13    1    6    6    0    0  0.91827341994E+01 -0.16581442121E+01  0.40766856610E+01  0.10183439526E+02  0.10500000000E+00 0.  1.
         13    1    6    6    0    0  0.10398837357E+02 -0.19997886802E+01  0.47127520975E+01  0.11591204876E+02  0.10500000000E+00 0. -1.
</event>
<event>
11    0  0.3443539E-009  0.9118800E+02  0.7816531E-02  0.1126479E+00
         25   -1    0    0    0    0  0.00000000000E+00  0.00000000000E+00  0.99999998245E-14  0.12500000000E+03  0.12500000000E+03 0.  0.
    3000001    1    3    3    0    0  0.12006630728E+02  0.68261570510E+01 -0.10625678856E+02  0.17454531007E+02  0.10000000000E+01 0. -1.
    1000022    2    1    0    0    0  0.30884190167E+02  0.34056691642E+02 -0.41140716494E+02  0.62500000038E+02  0.10000000163E+02 0.  0.
    3000022    2    3    3    0    0  0.18877559438E+02  0.27230534591E+02 -0.30515037638E+02  0.45045469031E+02  0.24998738733E+00 0.  0.
    1000022    2    1    0    0    0 -0.30884190167E+02 -0.34056691642E+02  0.41140716494E+02  0.62499999962E+02  0.99999996893E+01 0.  0.
    3000022    2    5    5    0    0 -0.23857514220E+02 -0.30379797191E+02  0.37033683511E+02  0.53513262647E+02  0.25000505773E+00 0.  0.
        -13    1    4    4    0    0  0.13742927177E+02  0.19815735373E+02 -0.22258109550E+02  0.32817158340E+02  0.10500000000E+00 0. -1.
         13    1    4    4    0    0  0.51346322613E+01  0.74147992180E+01 -0.82569280875E+01  0.12228310691E+02  0.10500000000E+00 0.  1.
    3000001    1    5    5    0    0 -0.70266759463E+01 -0.36768944508E+01  0.41070329828E+01  0.89867373156E+01  0.10000000000E+01 0. -1.
        -13    1    6    6    0    0 -0.11590552618E+02 -0.14836318947E+02  0.18116778478E+02  0.26128259745E+02  0.10500000000E+00 0. -1.
         13    1    6    6    0    0 -0.12266961602E+02 -0.15543478244E+02  0.18916905033E+02  0.27385002902E+02  0.10500000000E+00 0.  1.
</event>
<event>
11    0  0.3443539E-009  0.9118800E+02  0.7816531E-02  0.1126479E+00
         25   -1    0    0    0    0  0.00000000000E+00  0.00000000000E+00  0.99999998245E-14  0.12500000000E+03  0.12500000000E+03 0.  0.
    3000001    1    3    3    0    0  0.15812385778E+02 -0.14621008808E+02  0.34806719957E+02  0.40942803967E+02  0.10000000000E+01 0. -1.
    1000022    2    1    0    0    0  0.27888411166E+02 -0.16204194167E+02  0.52591925595E+02  0.62500004737E+02  0.10000028421E+02 0.  0.
    3000022    2    3    3    0    0  0.12076025388E+02 -0.15831853593E+01  0.17785205638E+02  0.21557200770E+02  0.25000079705E+00 0.  0.
    1000022    2    1    0    0    0 -0.27888411166E+02  0.16204194167E+02 -0.52591925595E+02  0.62499995263E+02  0.99999692027E+01 0.  0.
    3000022    2    5    5    0    0 -0.20962993076E+02  0.68686540865E+01 -0.32913317319E+02  0.39622903052E+02  0.25000335575E+00 0.  0.
        -13    1    4    4    0    0  0.35159802865E+01 -0.45362582750E+00  0.52539064630E+01  0.63389629979E+01  0.10500000000E+00 0.  1.
         13    1    4    4    0    0  0.85600451019E+01 -0.11295595318E+01  0.12531299175E+02  0.15218237773E+02  0.10500000000E+00 0. -1.
    3000001    1    5    5    0    0 -0.69254180899E+01  0.93355400805E+01 -0.19678608276E+02  0.22877092210E+02  0.10000000000E+01 0.  1.
        -13    1    6    6    0    0 -0.11070510344E+02  0.35885521052E+01 -0.17261791148E+02  0.20818606201E+02  0.10500000000E+00 0. -1.
         13    1    6    6    0    0 -0.98924827325E+01  0.32801019813E+01 -0.15651526170E+02  0.18804296852E+02  0.10500000000E+00 0.  1.
</event>
<event>
11    0  0.3443539E-009  0.9118800E+02  0.7816531E-02  0.1126479E+00
         25   -1    0    0    0    0  0.00000000000E+00  0.00000000000E+00  0.99999998245E-14  0.12500000000E+03  0.12500000000E+03 0.  0.
    3000001    1    3    3    0    0 -0.23405956195E+02  0.27719986869E+02  0.15263644052E+02  0.39372773425E+02  0.10000000000E+01 0. -1.
    1000022    2    1    0    0    0 -0.31159751506E+02  0.44766165562E+02  0.28832447043E+02  0.62499997586E+02  0.10000000131E+02 0.  0.
    3000022    2    3    3    0    0 -0.77537953115E+01  0.17046178693E+02  0.13568802992E+02  0.23127224161E+02  0.25006598282E+00 0.  0.
    1000022    2    1    0    0    0  0.31159751506E+02 -0.44766165562E+02 -0.28832447043E+02  0.62500002414E+02  0.10000030311E+02 0.  0.
    3000022    2    5    5    0    0  0.28842684365E+02 -0.38020137111E+02 -0.27783168072E+02  0.55221356499E+02  0.25003628468E+00 0.  0.
        -13    1    4    4    0    0 -0.32442757097E+01  0.71150654858E+01  0.57455465547E+01  0.97042161950E+01  0.10500000000E+00 0.  1.
         13    1    4    4    0    0 -0.45095196018E+01  0.99311132072E+01  0.78232564369E+01  0.13423007966E+02  0.10500000000E+00 0. -1.
    3000001    1    5    5    0    0  0.23170671416E+01 -0.67460284510E+01 -0.10492789707E+01  0.72786459152E+01  0.10000000000E+01 0.  1.
        -13    1    6    6    0    0  0.10944759568E+02 -0.14501797669E+02 -0.10529854716E+02  0.20999494350E+02  0.10500000000E+00 0.  1.
         13    1    6    6    0    0  0.17897924797E+02 -0.23518339442E+02 -0.17253313356E+02  0.34221862149E+02  0.10500000000E+00 0. -1.
</event>
<event>
11    0  0.3443539E-009  0.9118800E+02  0.7816531E-02  0.1126479E+00
         25   -1    0    0    0    0  0.00000000000E+00  0.00000000000E+00  0.99999998245E-14  0.12500000000E+03  0.12500000000E+03 0.  0.
    3000001    1    3    3    0    0 -0.81575799945E+01 -0.23384564470E+02  0.39438629055E+02  0.46580998578E+02  0.10000000000E+01 0. -1.
    1000022    2    1    0    0    0 -0.14044467777E+02 -0.26569892485E+02  0.53879901671E+02  0.62500000186E+02  0.99999978660E+01 0.  0.
    3000022    2    3    3    0    0 -0.58868877827E+01 -0.31853280147E+01  0.14441272617E+02  0.15919001608E+02  0.24999014131E+00 0.  0.
    1000022    2    1    0    0    0  0.14044467777E+02  0.26569892485E+02 -0.53879901671E+02  0.62499999814E+02  0.99999955415E+01 0.  0.
    3000022    2    5    5    0    0  0.46501550881E+00 -0.35463496717E+00 -0.51255431808E+01  0.51648520053E+01  0.24999590863E+00 0.  0.
        -13    1    4    4    0    0 -0.21739998095E+01 -0.11601093458E+01  0.51823544739E+01  0.57393337383E+01  0.10500000000E+00 0. -1.
         13    1    4    4    0    0 -0.37128879731E+01 -0.20252186689E+01  0.92589181429E+01  0.10179667870E+02  0.10500000000E+00 0.  1.
    3000001    1    5    5    0    0  0.13579452268E+02  0.26924527452E+02 -0.48754358491E+02  0.57335147809E+02  0.10000000000E+01 0. -1.
        -13    1    6    6    0    0  0.11447627121E+00 -0.81216483843E-01 -0.11786123143E+01  0.11915758143E+01  0.10500000000E+00 0. -1.
         13    1    6    6    0    0  0.35053923760E+00 -0.27341848333E+00 -0.39469308665E+01  0.39732761909E+01  0.10500000000E+00 0.  1.
</event>
<event>
11    0  0.3443539E-009  0.9118800E+02  0.7816531E-02  0.1126479E+00
         25   -1    0    0    0    0  0.00000000000E+00  0.00000000000E+00  0.99999998245E-14  0.12500000000E+03  0.12500000000E+03 0.  0.
    3000001    1    3    3    0    0 -0.16063472458E+01 -0.15839617523E+02  0.19833723538E+02  0.25452906005E+02  0.10000000000E+01 0.  1.
    1000022    2    1    0    0    0  0.65861257109E+01 -0.33890763480E+02  0.51130117073E+02  0.62500000753E+02  0.10000016056E+02 0.  0.
    3000022    2    3    3    0    0  0.81924729566E+01 -0.18051145956E+02  0.31296393535E+02  0.37047094748E+02  0.24999486644E+00 0.  0.
    1000022    2    1    0    0    0 -0.65861257109E+01  0.33890763480E+02 -0.51130117073E+02  0.62499999247E+02  0.10000006644E+02 0.  0.
    3000022    2    5    5    0    0 -0.28397193781E+01  0.90924555125E+01 -0.22445407984E+02  0.24384330894E+02  0.25000043146E+00 0.  0.
        -13    1    4    4    0    0  0.26884709771E+01 -0.58205906423E+01  0.10176915373E+02  0.12028623492E+02  0.10500000000E+00 0. -1.
         13    1    4    4    0    0  0.55040019795E+01 -0.12230555314E+02  0.21119478163E+02  0.25018471255E+02  0.10500000000E+00 0.  1.
    3000001    1    5    5    0    0 -0.37464063328E+01  0.24798307967E+02 -0.28684709089E+02  0.38115668353E+02  0.10000000000E+01 0. -1.
        -13    1    6    6    0    0 -0.12158198202E+01  0.37378427505E+01 -0.93765535925E+01  0.10167618627E+02  0.10500000000E+00 0.  1.
         13    1    6    6    0    0 -0.16238995578E+01  0.53546127620E+01 -0.13068854391E+02  0.14216712268E+02  0.10500000000E+00 0. -1.
</event>
<event>
11    0  0.3443539E-009  0.9118800E+02  0.7816531E-02  0.1126479E+00
         25   -1    0    0    0    0  0.00000000000E+00  0.00000000000E+00  0.99999998245E-14  0.12500000000E+03  0.12500000000E+03 0.  0.
    3000001    1    3    3    0    0 -0.54489251616E+01 -0.64947297302E+01 -0.45987487227E+01  0.96964317922E+01  0.10000000000E+01 0.  1.
    1000022    2    1    0    0    0 -0.50732268499E+02 -0.27752455523E+02 -0.21500886295E+02  0.62500000296E+02  0.10000003548E+02 0.  0.
    3000022    2    3    3    0    0 -0.45283343337E+02 -0.21257725793E+02 -0.16902137572E+02  0.52803568504E+02  0.25000514374E+00 0.  0.
    1000022    2    1    0    0    0  0.50732268499E+02  0.27752455523E+02  0.21500886295E+02  0.62499999704E+02  0.99999998461E+01 0.  0.
    3000022    2    5    5    0    0  0.76137263588E+01  0.43793940772E+00  0.25833049720E+01  0.80558416151E+01  0.24999911331E+00 0.  0.
        -13    1    4    4    0    0 -0.14580129953E+02 -0.68998794942E+01 -0.54613917692E+01  0.17030160056E+02  0.10500000000E+00 0. -1.
         13    1    4    4    0    0 -0.30703213384E+02 -0.14357846298E+02 -0.11440745803E+02  0.35773408448E+02  0.10500000000E+00 0.  1.
    3000001    1    5    5    0    0  0.43118542140E+02  0.27314516115E+02  0.18917581323E+02  0.54444158089E+02  0.10000000000E+01 0. -1.
        -13    1    6    6    0    0  0.45342488002E+01  0.30519941714E+00  0.14911075787E+01  0.47840344562E+01  0.10500000000E+00 0.  1.
         13    1    6    6    0    0  0.30794775586E+01  0.13273999059E+00  0.10921973934E+01  0.32718071589E+01  0.10500000000E+00 0. -1.
</event>
<event>
11    0  0.3443539E-009  0.9118800E+02  0.7816531E-02  0.1126479E+00
         25   -1    0    0    0    0  0.00000000000E+00  0.00000000000E+00  0.99999998245E-14  0.12500000000E+03  0.12500000000E+03 0.  0.
    3000001    1    3    3    0    0 -0.28427731612E+01 -0.37235367891E+01 -0.86616113832E+01  0.98979592452E+01  0.10000000000E+01 0.  1.
    1000022    2    1    0    0    0 -0.35717015722E+02 -0.11276707112E+02 -0.49024289553E+02  0.62499998114E+02  0.99999731376E+01 0.  0.
    3000022    2    3    3    0    0 -0.32874242561E+02 -0.75531703226E+01 -0.40362678169E+02  0.52602038869E+02  0.24999656758E+00 0.  0.
    1000022    2    1    0    0    0  0.35717015722E+02  0.11276707112E+02  0.49024289553E+02  0.62500001886E+02  0.99999967089E+01 0.  0.
    3000022    2    5    5    0    0  0.21885561793E+02  0.20762956672E+01  0.25254237623E+02  0.33483247117E+02  0.25000182289E+00 0.  0.
        -13    1    4    4    0    0 -0.19234730544E+02 -0.44841435317E+01 -0.23613893015E+02  0.30784888674E+02  0.10500000000E+00 0. -1.
         13    1    4    4    0    0 -0.13639512017E+02 -0.30690267909E+01 -0.16748785154E+02  0.21817150195E+02  0.10500000000E+00 0.  1.
    3000001    1    5    5    0    0  0.13831453930E+02  0.92004114445E+01  0.23770051930E+02  0.29016754769E+02  0.10000000000E+01 0. -1.
        -13    1    6    6    0    0  0.77537159323E+01  0.78952675435E+00  0.89232307128E+01  0.11848144775E+02  0.10500000000E+00 0.  1.
         13    1    6    6    0    0  0.14131845861E+02  0.12867689129E+01  0.16331006910E+02  0.21635102342E+02  0.10500000000E+00 0. -1.
</event>
<event>
11    0  0.3443539E-009  0.9118800E+02  0.7816531E-02  0.1126479E+00
         25   -1    0    0    0    0  0.00000000000E+00  0.00000000000E+00  0.99999998245E-14  0.12500000000E+03  0.12500000000E+03 0.  0.
    3000001    1    3    3    0    0 -0.37543468174E+02  0.16551251767E+02 -0.35082639021E+02  0.53993031942E+02  0.10000000000E+01 0.  1.
    1000022    2    1    0    0    0 -0.40223725299E+02  0.21088362259E+02 -0.41756232195E+02  0.62500000382E+02  0.10000001045E+02 0.  0.
    3000022    2    3    3    0    0 -0.26802571253E+01  0.45371104923E+01 -0.66735931745E+01  0.85069684407E+01  0.25003262612E+00 0.  0.
    1000022    2    1    0    0    0  0.40223725299E+02 -0.21088362259E+02  0.41756232195E+02  0.62499999618E+02  0.99999962671E+01 0.  0.
    3000022    2    5    5    0    0  0.55696269233E+01  0.10544655082E-01  0.27761777222E+01  0.62282033611E+01  0.24999821357E+00 0.  0.
        -13    1    4    4    0    0 -0.18249658891E+01  0.31759523892E+01 -0.46082236054E+01  0.58876076527E+01  0.10500000000E+00 0.  1.
         13    1    4    4    0    0 -0.85529123624E+00  0.13611581031E+01 -0.20653695691E+01  0.26193607879E+01  0.10500000000E+00 0. -1.
    3000001    1    5    5    0    0  0.34654098376E+02 -0.21098906914E+02  0.38980054473E+02  0.56271796257E+02  0.10000000000E+01 0.  1.
        -13    1    6    6    0    0  0.16082077186E+01  0.19444592072E-01  0.75886161704E+00  0.17814617908E+01  0.10500000000E+00 0. -1.
         13    1    6    6    0    0  0.39614192047E+01 -0.88999369907E-02  0.20173161052E+01  0.44467415702E+01  0.10500000000E+00 0.  1.
</event>
<event>
11    0  0.3443539E-009  0.9118800E+02  0.7816531E-02  0.1126479E+00
         25   -1    0    0    0    0  0.00000000000E+00  0.00000000000E+00  0.99999998245E-14  0.12500000000E+03  0.12500000000E+03 0.  0.
    3000001    1    3    3    0    0  0.87738990787E+00 -0.55280608058E+01 -0.69563727899E+01  0.89844527777E+01  0.10000000000E+01 0.  1.
    1000022    2    1    0    0    0  0.68791101003E+01 -0.53358460741E+02 -0.30196067791E+02  0.62499999333E+02  0.99999959086E+01 0.  0.
    3000022    2    3    3    0    0  0.60017201924E+01 -0.47830399935E+02 -0.23239695001E+02  0.53515546555E+02  0.24999228213E+00 0.  0.
    1000022    2    1    0    0    0 -0.68791101003E+01  0.53358460741E+02  0.30196067791E+02  0.62500000667E+02  0.10000004249E+02 0.  0.
    3000022    2    5    5    0    0 -0.74995994950E+00  0.38491122071E+01 -0.43085874085E+00  0.39530049922E+01  0.25000901019E+00 0.  0.
        -13    1    4    4    0    0  0.17499718329E+01 -0.13858789378E+02 -0.67804784138E+01  0.15527857449E+02  0.10500000000E+00 0. -1.
         13    1    4    4    0    0  0.42517483596E+01 -0.33971610557E+02 -0.16459216587E+02  0.37987689106E+02  0.10500000000E+00 0.  1.
    3000001    1    5    5    0    0 -0.61291501508E+01  0.49509348534E+02  0.30626926532E+02  0.58546995675E+02  0.10000000000E+01 0. -1.
        -13    1    6    6    0    0 -0.58650223619E+00  0.29571382315E+01 -0.33194789472E+00  0.30347760705E+01  0.10500000000E+00 0.  1.
         13    1    6    6    0    0 -0.16345771331E+00  0.89197397559E+00 -0.98910846130E-01  0.91822892170E+00  0.10500000000E+00 0. -1.
</event>
<event>
11    0  0.3443539E-009  0.9118800E+02  0.7816531E-02  0.1126479E+00
         25   -1    0    0    0    0  0.00000000000E+00  0.00000000000E+00  0.99999998245E-14  0.12500000000E+03  0.12500000000E+03 0.  0.
    3000001    1    3    3    0    0  0.11665155980E+02 -0.96921461752E+01 -0.32109725865E+02  0.35525315715E+02  0.10000000000E+01 0. -1.
    1000022    2    1    0    0    0  0.21182443726E+02 -0.24644760356E+02 -0.52442252663E+02  0.62499999817E+02  0.99999988803E+01 0.  0.
    3000022    2    3    3    0    0  0.95172877455E+01 -0.14952614181E+02 -0.20332526798E+02  0.26974684103E+02  0.24999912879E+00 0.  0.
    1000022    2    1    0    0    0 -0.21182443726E+02  0.24644760356E+02  0.52442252663E+02  0.62500000183E+02  0.10000001162E+02 0.  0.
    3000022    2    5    5    0    0 -0.15516820182E+02  0.10531698868E+02  0.28387405115E+02  0.34023457462E+02  0.24999787848E+00 0.  0.
        -13    1    4    4    0    0  0.61906886945E+01 -0.96206354269E+01 -0.13110601670E+02  0.17400579119E+02  0.10500000000E+00 0.  1.
         13    1    4    4    0    0  0.33265990510E+01 -0.53319787539E+01 -0.72219251279E+01  0.95741049833E+01  0.10500000000E+00 0. -1.
    3000001    1    5    5    0    0 -0.56656235431E+01  0.14113061488E+02  0.24054847548E+02  0.28476542720E+02  0.10000000000E+01 0. -1.
        -13    1    6    6    0    0 -0.93824483086E+01  0.64385241490E+01  0.17183765697E+02  0.20610137263E+02  0.10500000000E+00 0.  1.
         13    1    6    6    0    0 -0.61343718739E+01  0.40931747185E+01  0.11203639418E+02  0.13413320200E+02  0.10500000000E+00 0. -1.
</event>
<event>
11    0  0.3443539E-009  0.9118800E+02  0.7816531E-02  0.1126479E+00
         25   -1    0    0    0    0  0.00000000000E+00  0.00000000000E+00  0.99999998245E-14  0.12500000000E+03  0.12500000000E+03 0.  0.
    3000001    1    3    3    0    0 -0.58480482757E+01  0.39719576757E+01  0.53085140929E+02  0.53563124478E+02  0.10000000000E+01 0. -1.
    1000022    2    1    0    0    0 -0.50899626225E+01  0.10023269600E+01  0.61476314979E+02  0.62499997825E+02  0.10000002295E+02 0.  0.
    3000022    2    3    3    0    0  0.75808565320E+00 -0.29696307157E+01  0.83911740501E+01  0.89368733469E+01  0.25000566900E+00 0.  0.
    1000022    2    1    0    0    0  0.50899626225E+01 -0.10023269600E+01 -0.61476314979E+02  0.62500002175E+02  0.10000029479E+02 0.  0.
    3000022    2    5    5    0    0  0.75283907456E+01 -0.93005834931E+00 -0.31231297323E+02  0.32140287956E+02  0.25000322602E+00 0.  0.
        -13    1    4    4    0    0  0.22770051326E+00 -0.79663843430E+00  0.21997862454E+01  0.23529906171E+01  0.10500000000E+00 0.  1.
         13    1    4    4    0    0  0.53038513993E+00 -0.21729922814E+01  0.61913878047E+01  0.65838827298E+01  0.10500000000E+00 0. -1.
    3000001    1    5    5    0    0 -0.24384281231E+01 -0.72268610658E-01 -0.30245017656E+02  0.30359714219E+02  0.10000000000E+01 0.  1.
        -13    1    6    6    0    0  0.47531703356E+01 -0.64175559189E+00 -0.19843216288E+02  0.20414914551E+02  0.10500000000E+00 0.  1.
         13    1    6    6    0    0  0.27752204100E+01 -0.28830275742E+00 -0.11388081035E+02  0.11725373404E+02  0.10500000000E+00 0. -1.
</event>
<event>
11    0  0.3443539E-009  0.9118800E+02  0.7816531E-02  0.1126479E+00
         25   -1    0    0    0    0  0.00000000000E+00  0.00000000000E+00  0.99999998245E-14  0.12500000000E+03  0.12500000000E+03 0.  0.
    3000001    1    3    3    0    0 -0.23032499413E+02 -0.53323021287E+01 -0.42000963353E+02  0.48207991015E+02  0.10000000000E+01 0.  1.
    1000022    2    1    0    0    0 -0.26851737566E+02 -0.11398490921E+02 -0.54362748275E+02  0.62499997716E+02  0.99999954473E+01 0.  0.
    3000022    2    3    3    0    0 -0.38192381530E+01 -0.60661887927E+01 -0.12361784922E+02  0.14292006701E+02  0.25000507041E+00 0.  0.
    1000022    2    1    0    0    0  0.26851737566E+02  0.11398490921E+02  0.54362748275E+02  0.62500002284E+02  0.10000023996E+02 0.  0.
    3000022    2    5    5    0    0  0.24472120857E+02  0.11384408842E+02  0.53227528629E+02  0.59680162283E+02  0.25000462504E+00 0.  0.
        -13    1    4    4    0    0 -0.16193050759E+01 -0.26935216981E+01 -0.53935471198E+01  0.62432830786E+01  0.10500000000E+00 0. -1.
         13    1    4    4    0    0 -0.21999330770E+01 -0.33726670946E+01 -0.69682378022E+01  0.80487236220E+01  0.10500000000E+00 0.  1.
    3000001    1    5    5    0    0  0.23796167086E+01  0.14082079640E-01  0.11352196462E+01  0.28198400008E+01  0.10000000000E+01 0. -1.
        -13    1    6    6    0    0  0.17948877945E+02  0.83332600551E+01  0.39093597815E+02  0.43816958564E+02  0.10500000000E+00 0. -1.
         13    1    6    6    0    0  0.65232429122E+01  0.30511487867E+01  0.14133930813E+02  0.15863203720E+02  0.10500000000E+00 0.  1.
</event>
<event>
11    0  0.3443539E-009  0.9118800E+02  0.7816531E-02  0.1126479E+00
         25   -1    0    0    0    0  0.00000000000E+00  0.00000000000E+00  0.99999998245E-14  0.12500000000E+03  0.12500000000E+03 0.  0.
    3000001    1    3    3    0    0  0.21121543448E+02 -0.19436776481E+02  0.68920144445E+01  0.29536549235E+02  0.10000000000E+01 0.  1.
    1000022    2    1    0    0    0  0.46346578486E+02 -0.40495022906E+02  0.42892504614E+01  0.62499999030E+02  0.99999995837E+01 0.  0.
    3000022    2    3    3    0    0  0.25225035038E+02 -0.21058246425E+02 -0.26027639831E+01  0.32963449795E+02  0.25001372340E+00 0.  0.
    1000022    2    1    0    0    0 -0.46346578486E+02  0.40495022906E+02 -0.42892504614E+01  0.62500000970E+02  0.10000011707E+02 0.  0.
    3000022    2    5    5    0    0 -0.19220060631E+02  0.14002944768E+02 -0.60168724374E+01  0.24530765361E+02  0.25000485468E+00 0.  0.
        -13    1    4    4    0    0  0.11711700717E+02 -0.98647769219E+01 -0.12132203906E+01  0.15361011884E+02  0.10500000000E+00 0.  1.
         13    1    4    4    0    0  0.13513334322E+02 -0.11193469503E+02 -0.13895435925E+01  0.17602437911E+02  0.10500000000E+00 0. -1.
    3000001    1    5    5    0    0 -0.27126517856E+02  0.26492078138E+02  0.17276219760E+01  0.37969235609E+02  0.10000000000E+01 0. -1.
        -13    1    6    6    0    0 -0.10103633952E+02  0.73896448768E+01 -0.32326342116E+01  0.12928697513E+02  0.10500000000E+00 0. -1.
         13    1    6    6    0    0 -0.91164266793E+01  0.66132998913E+01 -0.27842382258E+01  0.11602067848E+02  0.10500000000E+00 0.  1.
</event>
<event>
11    0  0.3443539E-009  0.9118800E+02  0.7816531E-02  0.1126479E+00
         25   -1    0    0    0    0  0.00000000000E+00  0.00000000000E+00  0.99999998245E-14  0.12500000000E+03  0.12500000000E+03 0.  0.
    3000001    1    3    3    0    0  0.45650184114E+02 -0.17431854710E+02  0.15822725691E+02  0.51372828583E+02  0.10000000000E+01 0.  1.
    1000022    2    1    0    0    0  0.56747734777E+02 -0.18189214111E+02  0.15971757629E+02  0.62499999825E+02  0.10000001204E+02 0.  0.
    3000022    2    3    3    0    0  0.11097550662E+02 -0.75735940168E+00  0.14903193841E+00  0.11127171242E+02  0.25001074093E+00 0.  0.
    1000022    2    1    0    0    0 -0.56747734777E+02  0.18189214111E+02 -0.15971757629E+02  0.62500000175E+02  0.10000003390E+02 0.  0.
    3000022    2    5    5    0    0 -0.54627572736E+02  0.18811409635E+02 -0.14197998027E+02  0.59495264334E+02  0.24998933670E+00 0.  0.
        -13    1    4    4    0    0  0.41327979974E+01 -0.34180684634E+00  0.61499096656E-01  0.41486935711E+01  0.10500000000E+00 0.  1.
         13    1    4    4    0    0  0.69647526651E+01 -0.41555255533E+00  0.87532841759E-01  0.69784776714E+01  0.10500000000E+00 0. -1.
    3000001    1    5    5    0    0 -0.21201620406E+01 -0.62219552344E+00 -0.17737596023E+01  0.30047358411E+01  0.10000000000E+01 0.  1.
        -13    1    6    6    0    0 -0.34112930771E+02  0.11810571952E+02 -0.88753840388E+01  0.37174791491E+02  0.10500000000E+00 0. -1.
         13    1    6    6    0    0 -0.20514641966E+02  0.70008376832E+01 -0.53226139879E+01  0.22320472842E+02  0.10500000000E+00 0.  1.
</event>
<event>
11    0  0.3443539E-009  0.9118800E+02  0.7816531E-02  0.1126479E+00
         25   -1    0    0    0    0  0.00000000000E+00  0.00000000000E+00  0.99999998245E-14  0.12500000000E+03  0.12500000000E+03 0.  0.
    3000001    1    3    3    0    0  0.17075465409E+00 -0.75483067991E+00 -0.32145597738E+00  0.13047070371E+01  0.10000000000E+01 0.  1.
    1000022    2    1    0    0    0  0.54447909507E+02 -0.19835656003E+02 -0.21171251083E+02  0.62500000147E+02  0.10000002356E+02 0.  0.
    3000022    2    3    3    0    0  0.54277154853E+02 -0.19080825323E+02 -0.20849795105E+02  0.61195293110E+02  0.25001768056E+00 0.  0.
    1000022    2    1    0    0    0 -0.54447909507E+02  0.19835656003E+02  0.21171251083E+02  0.62499999853E+02  0.10000000522E+02 0.  0.
    3000022    2    5    5    0    0 -0.80298396457E+01  0.85524198735E-01  0.52303777190E+01  0.95867088993E+01  0.24999462388E+00 0.  0.
        -13    1    4    4    0    0  0.23117824173E+02 -0.81139626638E+01 -0.89470297163E+01  0.26083146864E+02  0.10500000000E+00 0.  1.
         13    1    4    4    0    0  0.31159330680E+02 -0.10966862660E+02 -0.11902765389E+02  0.35112146245E+02  0.10500000000E+00 0. -1.
    3000001    1    5    5    0    0 -0.46418069862E+02  0.19750131805E+02  0.15940873364E+02  0.52913290954E+02  0.10000000000E+01 0. -1.
        -13    1    6    6    0    0 -0.40588230242E+01  0.10705394788E+00  0.26168774684E+01  0.48316226647E+01  0.10500000000E+00 0.  1.
         13    1    6    6    0    0 -0.39710166215E+01 -0.21529749147E-01  0.26135002507E+01  0.47550862346E+01  0.10500000000E+00 0. -1.
</event>
<event>
11    0  0.3443539E-009  0.9118800E+02  0.7816531E-02  0.1126479E+00
         25   -1    0    0    0    0  0.00000000000E+00  0.00000000000E+00  0.99999998245E-14  0.12500000000E+03  0.12500000000E+03 0.  0.
    3000001    1    3    3    0    0  0.38992768489E+02  0.11241603688E+01 -0.24920258714E+02  0.46300313448E+02  0.10000000000E+01 0. -1.
    1000022    2    1    0    0    0  0.48906841617E+02  0.40620514634E+01 -0.37388109885E+02  0.62500000652E+02  0.99999950843E+01 0.  0.
    3000022    2    3    3    0    0  0.99140731275E+01  0.29378910946E+01 -0.12467851171E+02  0.16199687204E+02  0.25000524755E+00 0.  0.
    1000022    2    1    0    0    0 -0.48906841617E+02 -0.40620514634E+01  0.37388109885E+02  0.62499999348E+02  0.99999869392E+01 0.  0.
    3000022    2    5    5    0    0 -0.24999852745E+02 -0.70232093396E+01  0.19804302977E+02  0.32658705170E+02  0.25000054077E+00 0.  0.
        -13    1    4    4    0    0  0.52873302365E+01  0.15198517506E+01 -0.65545334147E+01  0.85579637565E+01  0.10500000000E+00 0.  1.
         13    1    4    4    0    0  0.46267428911E+01  0.14180393441E+01 -0.59133177564E+01  0.76417234476E+01  0.10500000000E+00 0. -1.
    3000001    1    5    5    0    0 -0.23906988871E+02  0.29611578762E+01  0.17583806908E+02  0.29841294178E+02  0.10000000000E+01 0.  1.
        -13    1    6    6    0    0 -0.14420054732E+02 -0.39981594807E+01  0.11361162251E+02  0.18788568077E+02  0.10500000000E+00 0. -1.
         13    1    6    6    0    0 -0.10579798013E+02 -0.30250498589E+01  0.84431407265E+01  0.13870137093E+02  0.10500000000E+00 0.  1.
</event>
<event>
11    0  0.3443539E-009  0.9118800E+02  0.7816531E-02  0.1126479E+00
         25   -1    0    0    0    0  0.00000000000E+00  0.00000000000E+00  0.99999998245E-14  0.12500000000E+03  0.12500000000E+03 0.  0.
    3000001    1    3    3    0    0 -0.19833876322E+02  0.38544847132E+01 -0.30158291707E+01  0.20453237590E+02  0.10000000000E+01 0. -1.
    1000022    2    1    0    0    0 -0.56478294149E+02  0.10236655571E+02 -0.22619970469E+02  0.62500001060E+02  0.10000012061E+02 0.  0.
    3000022    2    3    3    0    0 -0.36644417828E+02  0.63821708583E+01 -0.19604141298E+02  0.42046763470E+02  0.24999892499E+00 0.  0.
    1000022    2    1    0    0    0  0.56478294149E+02 -0.10236655571E+02  0.22619970469E+02  0.62499998940E+02  0.99999988079E+01 0.  0.
    3000022    2    5    5    0    0  0.55880670518E+02 -0.10453443720E+02  0.21258869088E+02  0.60695352694E+02  0.25000105908E+00 0.  0.
        -13    1    4    4    0    0 -0.22872868183E+02  0.39547698548E+01 -0.12173755575E+02  0.26211059752E+02  0.10500000000E+00 0.  1.
         13    1    4    4    0    0 -0.13771549644E+02  0.24274010035E+01 -0.74303857227E+01  0.15835703718E+02  0.10500000000E+00 0. -1.
    3000001    1    5    5    0    0  0.59762363105E+00  0.21678814841E+00  0.13611013802E+01  0.18046462459E+01  0.10000000000E+01 0.  1.
        -13    1    6    6    0    0  0.35255994803E+02 -0.66503854071E+01  0.13442183394E+02  0.38313393415E+02  0.10500000000E+00 0. -1.
         13    1    6    6    0    0  0.20624675715E+02 -0.38030583128E+01  0.78166856947E+01  0.22381959278E+02  0.10500000000E+00 0.  1.
</event>
<event>
11    0  0.3443539E-009  0.9118800E+02  0.7816531E-02  0.1126479E+00
         25   -1    0    0    0    0  0.00000000000E+00  0.00000000000E+00  0.99999998245E-14  0.12500000000E+03  0.12500000000E+03 0.  0.
    3000001    1    3    3    0    0 -0.90686589636E+00 -0.58967030582E+00 -0.32792806411E+01  0.35949684764E+01  0.10000000000E+01 0.  1.
    1000022    2    1    0    0    0  0.20650930125E+02 -0.15303321020E+02 -0.56085629391E+02  0.62500002693E+02  0.99999981586E+01 0.  0.
    3000022    2    3    3    0    0  0.21557796021E+02 -0.14713650714E+02 -0.52806348750E+02  0.58905034217E+02  0.25000224104E+00 0.  0.
    1000022    2    1    0    0    0 -0.20650930125E+02  0.15303321020E+02  0.56085629391E+02  0.62499997307E+02  0.99999644918E+01 0.  0.
    3000022    2    5    5    0    0 -0.18828749360E+02  0.13764747299E+02  0.54911147962E+02  0.59659758151E+02  0.25000277006E+00 0.  0.
        -13    1    4    4    0    0  0.57851894801E+01 -0.39731416579E+01 -0.14265908549E+02  0.15899101977E+02  0.10500000000E+00 0. -1.
         13    1    4    4    0    0  0.15772606541E+02 -0.10740509057E+02 -0.38540440202E+02  0.43005932240E+02  0.10500000000E+00 0.  1.
    3000001    1    5    5    0    0 -0.18221807654E+01  0.15385737209E+01  0.11744814289E+01  0.28402391560E+01  0.10000000000E+01 0.  1.
        -13    1    6    6    0    0 -0.13619983264E+02  0.99293111741E+01  0.39762020739E+02  0.43187086990E+02  0.10500000000E+00 0. -1.
         13    1    6    6    0    0 -0.52087660958E+01  0.38354361254E+01  0.15149127224E+02  0.16472671160E+02  0.10500000000E+00 0.  1.
</event>
<event>
11    0  0.3443539E-009  0.9118800E+02  0.7816531E-02  0.1126479E+00
         25   -1    0    0    0    0  0.00000000000E+00  0.00000000000E+00  0.99999998245E-14  0.12500000000E+03  0.12500000000E+03 0.  0.
    3000001    1    3    3    0    0 -0.11039826395E+02  0.45624784289E+02  0.25784377306E+02  0.53566153692E+02  0.10000000000E+01 0.  1.
    1000022    2    1    0    0    0 -0.10220566618E+02  0.54394399098E+02  0.27258749600E+02  0.62500000060E+02  0.99999971305E+01 0.  0.
    3000022    2    3    3    0    0  0.81925977643E+00  0.87696148084E+01  0.14743722940E+01  0.89338463687E+01  0.25001361991E+00 0.  0.
    1000022    2    1    0    0    0  0.10220566618E+02 -0.54394399098E+02 -0.27258749600E+02  0.62499999940E+02  0.99999963748E+01 0.  0.
    3000022    2    5    5    0    0  0.25643949776E+01 -0.20903306765E+01 -0.22781388656E+01  0.40246765094E+01  0.25000075282E+00 0.  0.
        -13    1    4    4    0    0  0.47399843101E+00  0.47735446999E+01  0.86457544947E+00  0.48754404131E+01  0.10500000000E+00 0. -1.
         13    1    4    4    0    0  0.34526134542E+00  0.39960701085E+01  0.60979684448E+00  0.40584059556E+01  0.10500000000E+00 0.  1.
    3000001    1    5    5    0    0  0.76561716409E+01 -0.52304068421E+02 -0.24980610734E+02  0.58475323430E+02  0.10000000000E+01 0.  1.
        -13    1    6    6    0    0  0.68426537040E+00 -0.57527940273E+00 -0.65931250897E+00  0.11157434619E+01  0.10500000000E+00 0.  1.
         13    1    6    6    0    0  0.18801296072E+01 -0.15150512738E+01 -0.16188263566E+01  0.29089330475E+01  0.10500000000E+00 0. -1.
</event>
<event>
11    0  0.3443539E-009  0.9118800E+02  0.7816531E-02  0.1126479E+00
         25   -1    0    0    0    0  0.00000000000E+00  0.00000000000E+00  0.99999998245E-14  0.12500000000E+03  0.12500000000E+03 0.  0.
    3000001    1    3    3    0    0  0.53686500657E+01  0.12927624165E+02 -0.28535376064E+01  0.14320912923E+02  0.10000000000E+01 0.  1.
    1000022    2    1    0    0    0  0.25233251052E+02  0.48568460973E+02 -0.28471698777E+02  0.62499998499E+02  0.99999910644E+01 0.  0.
    3000022    2    3    3    0    0  0.19864600986E+02  0.35640836808E+02 -0.25618161170E+02  0.48179085576E+02  0.24996905754E+00 0.  0.
    1000022    2    1    0    0    0 -0.25233251052E+02 -0.48568460973E+02  0.28471698777E+02  0.62500001501E+02  0.10000009822E+02 0.  0.
    3000022    2    5    5    0    0 -0.16561551753E+02 -0.26033870989E+02  0.20531294284E+02  0.37062703334E+02  0.24999674850E+00 0.  0.
        -13    1    4    4    0    0  0.92798518339E+01  0.16761773617E+02 -0.12075828903E+02  0.22647502590E+02  0.10500000000E+00 0.  1.
         13    1    4    4    0    0  0.10584749152E+02  0.18879063191E+02 -0.13542332267E+02  0.25531582987E+02  0.10500000000E+00 0. -1.
    3000001    1    5    5    0    0 -0.86716992990E+01 -0.22534589984E+02  0.79404044931E+01  0.25437298166E+02  0.10000000000E+01 0. -1.
        -13    1    6    6    0    0 -0.54199004100E+01 -0.84879133404E+01  0.66422400820E+01  0.12064425873E+02  0.10500000000E+00 0. -1.
         13    1    6    6    0    0 -0.11141651343E+02 -0.17545957648E+02  0.13889054202E+02  0.24998277462E+02  0.10500000000E+00 0.  1.
</event>
<event>
11    0  0.3443539E-009  0.9118800E+02  0.7816531E-02  0.1126479E+00
         25   -1    0    0    0    0  0.00000000000E+00  0.00000000000E+00  0.99999998245E-14  0.12500000000E+03  0.12500000000E+03 0.  0.
    3000001    1    3    3    0    0 -0.51384438352E+02 -0.10574284449E+02 -0.54321120812E+01  0.52751150111E+02  0.10000000000E+01 0. -1.
    1000022    2    1    0    0    0 -0.59219085385E+02 -0.16367823658E+02 -0.56075438514E+01  0.62500000254E+02  0.99999879285E+01 0.  0.
    3000022    2    3    3    0    0 -0.78346470325E+01 -0.57935392090E+01 -0.17543177024E+00  0.97488501426E+01  0.25002421267E+00 0.  0.
    1000022    2    1    0    0    0  0.59219085385E+02  0.16367823658E+02  0.56075438514E+01  0.62499999746E+02  0.99999847579E+01 0.  0.
    3000022    2    5    5    0    0  0.23776933058E+02  0.53504944614E+01 -0.24870106528E+01  0.24499348215E+02  0.25000871623E+00 0.  0.
        -13    1    4    4    0    0 -0.32501019709E+01 -0.24283859295E+01 -0.11710993328E-01  0.40584951880E+01  0.10500000000E+00 0. -1.
         13    1    4    4    0    0 -0.45845450616E+01 -0.33651532795E+01 -0.16372077691E+00  0.56903549546E+01  0.10500000000E+00 0.  1.
    3000001    1    5    5    0    0  0.35442152327E+02  0.11017329196E+02  0.80945545042E+01  0.38000651531E+02  0.10000000000E+01 0.  1.
        -13    1    6    6    0    0  0.11379140588E+02  0.26274113117E+01 -0.12099855886E+01  0.11741516974E+02  0.10500000000E+00 0. -1.
         13    1    6    6    0    0  0.12397792470E+02  0.27230831496E+01 -0.12770250642E+01  0.12757831242E+02  0.10500000000E+00 0.  1.
</event>
<event>
11    0  0.3443539E-009  0.9118800E+02  0.7816531E-02  0.1126479E+00
         25   -1    0    0    0    0  0.00000000000E+00  0.00000000000E+00  0.99999998245E-14  0.12500000000E+03  0.12500000000E+03 0.  0.
    3000001    1    3    3    0    0  0.31296914431E+01 -0.15852672830E+02  0.28819659686E+02  0.33055634751E+02  0.10000000000E+01 0.  1.
    1000022    2    1    0    0    0  0.11098846228E+02 -0.35612732047E+02  0.49140604894E+02  0.62500000546E+02  0.99999973745E+01 0.  0.
    3000022    2    3    3    0    0  0.79691547851E+01 -0.19760059217E+02  0.20320945208E+02  0.29444365795E+02  0.24998937218E+00 0.  0.
    1000022    2    1    0    0    0 -0.11098846228E+02  0.35612732047E+02 -0.49140604894E+02  0.62499999454E+02  0.99999905504E+01 0.  0.
    3000022    2    5    5    0    0 -0.90735738161E+01  0.20253658436E+02 -0.22107446557E+02  0.31326380476E+02  0.24999725454E+00 0.  0.
        -13    1    4    4    0    0  0.41604405280E+01 -0.10446400209E+02  0.10659646973E+02  0.15494374505E+02  0.10500000000E+00 0. -1.
         13    1    4    4    0    0  0.38087142570E+01 -0.93136590080E+01  0.96612982349E+01  0.13949991290E+02  0.10500000000E+00 0.  1.
    3000001    1    5    5    0    0 -0.20252724121E+01  0.15359073611E+02 -0.27033158337E+02  0.31173618978E+02  0.10000000000E+01 0. -1.
        -13    1    6    6    0    0 -0.48613532878E+01  0.10741874009E+02 -0.11673855669E+02  0.16592484570E+02  0.10500000000E+00 0. -1.
         13    1    6    6    0    0 -0.42122205282E+01  0.95117844269E+01 -0.10433590888E+02  0.14733895906E+02  0.10500000000E+00 0.  1.
</event>
<event>
11    0  0.3443539E-009  0.9118800E+02  0.7816531E-02  0.1126479E+00
         25   -1    0    0    0    0  0.00000000000E+00  0.00000000000E+00  0.99999998245E-14  0.12500000000E+03  0.12500000000E+03 0.  0.
    3000001    1    3    3    0    0  0.69733306382E+01 -0.13867875886E+00  0.18802701591E+02  0.20079545789E+02  0.10000000000E+01 0.  1.
    1000022    2    1    0    0    0  0.34007354443E+02 -0.21153897764E+01  0.51432235918E+02  0.62499998891E+02  0.99999969888E+01 0.  0.
    3000022    2    3    3    0    0  0.27034023805E+02 -0.19767110175E+01  0.32629534327E+02  0.42420453102E+02  0.25000291374E+00 0.  0.
    1000022    2    1    0    0    0 -0.34007354443E+02  0.21153897764E+01 -0.51432235918E+02  0.62500001109E+02  0.10000010847E+02 0.  0.
    3000022    2    5    5    0    0 -0.53105245282E+01  0.39684508265E+01 -0.78780717277E+01  0.10299358385E+02  0.24999255217E+00 0.  0.
        -13    1    4    4    0    0  0.66608576306E+01 -0.46846405542E+00  0.80145601344E+01  0.10432194500E+02  0.10500000000E+00 0. -1.
         13    1    4    4    0    0  0.20373166174E+02 -0.15082469621E+01  0.24614974193E+02  0.31988258602E+02  0.10500000000E+00 0.  1.
    3000001    1    5    5    0    0 -0.28696829915E+02 -0.18530610501E+01 -0.43554164190E+02  0.52200642723E+02  0.10000000000E+01 0.  1.
        -13    1    6    6    0    0 -0.17948751050E+01  0.12765836321E+01 -0.25991793803E+01  0.34085188665E+01  0.10500000000E+00 0. -1.
         13    1    6    6    0    0 -0.35156494231E+01  0.26918671944E+01 -0.52788923473E+01  0.68908395188E+01  0.10500000000E+00 0.  1.
</event>
<event>
11    0  0.3443539E-009  0.9118800E+02  0.7816531E-02  0.1126479E+00
         25   -1    0    0    0    0  0.00000000000E+00  0.00000000000E+00  0.99999998245E-14  0.12500000000E+03  0.12500000000E+03 0.  0.
    3000001    1    3    3    0    0  0.41848084147E+01  0.22570446228E+01 -0.31357426474E+02  0.31731609902E+02  0.10000000000E+01 0. -1.
    1000022    2    1    0    0    0  0.16572717648E+02  0.85464458455E+01 -0.58809465930E+02  0.62500000095E+02  0.10000001106E+02 0.  0.
    3000022    2    3    3    0    0  0.12387909233E+02  0.62894012228E+01 -0.27452039456E+02  0.30768390194E+02  0.25000378478E+00 0.  0.
    1000022    2    1    0    0    0 -0.16572717648E+02 -0.85464458455E+01  0.58809465930E+02  0.62499999905E+02  0.99999999137E+01 0.  0.
    3000022    2    5    5    0    0 -0.95155577863E+01  0.52200472754E+00  0.23747362470E+02  0.25589413345E+02  0.25004430860E+00 0.  0.
        -13    1    4    4    0    0  0.77949076230E+01  0.39646078978E+01 -0.17410230047E+02  0.19483475971E+02  0.10500000000E+00 0. -1.
         13    1    4    4    0    0  0.45930016102E+01  0.23247933250E+01 -0.10041809409E+02  0.11284914222E+02  0.10500000000E+00 0.  1.
    3000001    1    5    5    0    0 -0.70571598616E+01 -0.90684505731E+01  0.35062103460E+02  0.36910586560E+02  0.10000000000E+01 0. -1.
        -13    1    6    6    0    0 -0.50294482310E+01  0.22669326849E+00  0.12420285871E+02  0.13402285829E+02  0.10500000000E+00 0.  1.
         13    1    6    6    0    0 -0.44861095553E+01  0.29531145906E+00  0.11327076599E+02  0.12187127516E+02  0.10500000000E+00 0. -1.
</event>
<event>
11    0  0.3443539E-009  0.9118800E+02  0.7816531E-02  0.1126479E+00
         25   -1    0    0    0    0  0.00000000000E+00  0.00000000000E+00  0.99999998245E-14  0.12500000000E+03  0.12500000000E+03 0.  0.
    3000001    1    3    3    0    0  0.20374065285E+02  0.35539275797E+02  0.21704579484E+01  0.41034784612E+02  0.10000000000E+01 0.  1.
    1000022    2    1    0    0    0  0.25591690978E+02  0.55600438467E+02  0.77399347534E+01  0.62499999290E+02  0.99999958186E+01 0.  0.
    3000022    2    3    3    0    0  0.52176256929E+01  0.20061162670E+02  0.55694768050E+01  0.21465214678E+02  0.25000749047E+00 0.  0.
    1000022    2    1    0    0    0 -0.25591690978E+02 -0.55600438467E+02 -0.77399347534E+01  0.62500000710E+02  0.10000004695E+02 0.  0.
    3000022    2    5    5    0    0 -0.52763599921E+01 -0.20668982990E+02  0.55748721625E-01  0.21333364514E+02  0.25000195270E+00 0.  0.
        -13    1    4    4    0    0  0.36424123398E+01  0.14084459697E+02  0.39507118171E+01  0.15075089435E+02  0.10500000000E+00 0. -1.
         13    1    4    4    0    0  0.15752133531E+01  0.59767029727E+01  0.16187649879E+01  0.63901252427E+01  0.10500000000E+00 0.  1.
    3000001    1    5    5    0    0 -0.20315330986E+02 -0.34931455478E+02 -0.77956834750E+01  0.41166636196E+02  0.10000000000E+01 0.  1.
        -13    1    6    6    0    0 -0.23227587689E+01 -0.92706273167E+01  0.76232616855E-01  0.95580633789E+01  0.10500000000E+00 0.  1.
         13    1    6    6    0    0 -0.29536012232E+01 -0.11398355673E+02 -0.20483895230E-01  0.11775301135E+02  0.10500000000E+00 0. -1.
</event>
<event>
11    0  0.3443539E-009  0.9118800E+02  0.7816531E-02  0.1126479E+00
         25   -1    0    0    0    0  0.00000000000E+00  0.00000000000E+00  0.99999998245E-14  0.12500000000E+03  0.12500000000E+03 0.  0.
    3000001    1    3    3    0    0 -0.16116618052E+02 -0.45937151486E+02  0.25735646425E+02  0.55075318982E+02  0.10000000000E+01 0.  1.
    1000022    2    1    0    0    0 -0.21162502718E+02 -0.51183059001E+02  0.27178897113E+02  0.62500005497E+02  0.10000059444E+02 0.  0.
    3000022    2    3    3    0    0 -0.50458846660E+01 -0.52459075151E+01  0.14432506885E+01  0.74246865152E+01  0.24999916052E+00 0.  0.
    1000022    2    1    0    0    0  0.21162502718E+02  0.51183059001E+02 -0.27178897113E+02  0.62499994503E+02  0.99999907255E+01 0.  0.
    3000022    2    5    5    0    0  0.20293024822E+02  0.40530991692E+02 -0.19738249216E+02  0.49439145721E+02  0.25000699142E+00 0.  0.
        -13    1    4    4    0    0 -0.23587311751E+01 -0.25030772298E+01  0.62331527244E+00  0.34969351300E+01  0.10500000000E+00 0.  1.
         13    1    4    4    0    0 -0.26871534909E+01 -0.27428302853E+01  0.81993541604E+00  0.39277513852E+01  0.10500000000E+00 0. -1.
    3000001    1    5    5    0    0  0.86947789564E+00  0.10652067309E+02 -0.74406478976E+01  0.13060848782E+02  0.10000000000E+01 0. -1.
        -13    1    6    6    0    0  0.73048184009E+01  0.14696083088E+02 -0.71096179226E+01  0.17885550648E+02  0.10500000000E+00 0.  1.
         13    1    6    6    0    0  0.12988206421E+02  0.25834908605E+02 -0.12628631293E+02  0.31553595073E+02  0.10500000000E+00 0. -1.
</event>
<event>
11    0  0.3443539E-009  0.9118800E+02  0.7816531E-02  0.1126479E+00
         25   -1    0    0    0    0  0.00000000000E+00  0.00000000000E+00  0.99999998245E-14  0.12500000000E+03  0.12500000000E+03 0.  0.
    3000001    1    3    3    0    0 -0.12802083019E+02  0.16253415560E+02 -0.36318187801E+02  0.41810018083E+02  0.10000000000E+01 0. -1.
    1000022    2    1    0    0    0 -0.13134327201E+02  0.21404234717E+02 -0.56352446350E+02  0.62499999947E+02  0.99999984452E+01 0.  0.
    3000022    2    3    3    0    0 -0.33224418187E+00  0.51508191567E+01 -0.20034258549E+02  0.20689981863E+02  0.25001943082E+00 0.  0.
    1000022    2    1    0    0    0  0.13134327201E+02 -0.21404234717E+02  0.56352446350E+02  0.62500000053E+02  0.99999991095E+01 0.  0.
    3000022    2    5    5    0    0  0.52608825171E+01 -0.14685057427E+01  0.13796101502E+02  0.14840091243E+02  0.24999498127E+00 0.  0.
        -13    1    4    4    0    0 -0.21524083213E+00  0.35935299073E+01 -0.13789307271E+02  0.14251870258E+02  0.10500000000E+00 0. -1.
         13    1    4    4    0    0 -0.11700334974E+00  0.15572892494E+01 -0.62449512776E+01  0.64381116059E+01  0.10500000000E+00 0.  1.
    3000001    1    5    5    0    0  0.78734446843E+01 -0.19935728974E+02  0.42556344848E+02  0.47659908810E+02  0.10000000000E+01 0. -1.
        -13    1    6    6    0    0  0.31918276766E+01 -0.82983309906E+00  0.83841085224E+01  0.90100326084E+01  0.10500000000E+00 0.  1.
         13    1    6    6    0    0  0.20690548405E+01 -0.63867264360E+00  0.54119929791E+01  0.58300586348E+01  0.10500000000E+00 0. -1.
</event>
<event>
11    0  0.3443539E-009  0.9118800E+02  0.7816531E-02  0.1126479E+00
         25   -1    0    0    0    0  0.00000000000E+00  0.00000000000E+00  0.99999998245E-14  0.12500000000E+03  0.12500000000E+03 0.  0.
    3000001    1    3    3    0    0  0.10395254337E+02 -0.18430096445E+01 -0.19458063411E+02  0.22160194696E+02  0.10000000000E+01 0. -1.
    1000022    2    1    0    0    0  0.16821537339E+02 -0.72723965905E+01 -0.58910085011E+02  0.62499999653E+02  0.99999984990E+01 0.  0.
    3000022    2    3    3    0    0  0.64262830016E+01 -0.54293869460E+01 -0.39452021600E+02  0.40339804957E+02  0.24999948198E+00 0.  0.
    1000022    2    1    0    0    0 -0.16821537339E+02  0.72723965905E+01  0.58910085011E+02  0.62500000347E+02  0.10000002838E+02 0.  0.
    3000022    2    5    5    0    0 -0.16003944894E+02  0.89725010513E+01  0.48100748724E+02  0.51481807957E+02  0.24999082029E+00 0.  0.
        -13    1    4    4    0    0  0.32402547868E+01 -0.27374275408E+01 -0.20216823618E+02  0.20657292728E+02  0.10500000000E+00 0.  1.
         13    1    4    4    0    0  0.31860282148E+01 -0.26919594053E+01 -0.19235197982E+02  0.19682512229E+02  0.10500000000E+00 0. -1.
    3000001    1    5    5    0    0 -0.81759244508E+00 -0.17001044608E+01  0.10809336287E+02  0.11018192390E+02  0.10000000000E+01 0. -1.
        -13    1    6    6    0    0 -0.79707476405E+01  0.44382552494E+01  0.24092475356E+02  0.25762168414E+02  0.10500000000E+00 0. -1.
         13    1    6    6    0    0 -0.80331972534E+01  0.45342458019E+01  0.24008273368E+02  0.25719639543E+02  0.10500000000E+00 0.  1.
</event>
<event>
11    0  0.3443539E-009  0.9118800E+02  0.7816531E-02  0.1126479E+00
         25   -1    0    0    0    0  0.00000000000E+00  0.00000000000E+00  0.99999998245E-14  0.12500000000E+03  0.12500000000E+03 0.  0.
    3000001    1    3    3    0    0 -0.73433932981E+01  0.29211471044E+02  0.34678879691E+02  0.45944098232E+02  0.10000000000E+01 0. -1.
    1000022    2    1    0    0    0 -0.15190527575E+02  0.40155945039E+02  0.44305734351E+02  0.62499999267E+02  0.99999881036E+01 0.  0.
    3000022    2    3    3    0    0 -0.78471342764E+01  0.10944473994E+02  0.96268546600E+01  0.16555901036E+02  0.25000217108E+00 0.  0.
    1000022    2    1    0    0    0  0.15190527575E+02 -0.40155945039E+02 -0.44305734351E+02  0.62500000733E+02  0.99999972647E+01 0.  0.
    3000022    2    5    5    0    0  0.82416557201E+01 -0.96826968993E+01 -0.14689710446E+02  0.19430120954E+02  0.24999810730E+00 0.  0.
        -13    1    4    4    0    0 -0.41853187708E+01  0.58142705274E+01  0.52021834344E+01  0.88541726019E+01  0.10500000000E+00 0. -1.
         13    1    4    4    0    0 -0.36618155056E+01  0.51302034671E+01  0.44246712256E+01  0.77017284336E+01  0.10500000000E+00 0.  1.
    3000001    1    5    5    0    0  0.69488718544E+01 -0.30473248139E+02 -0.29616023905E+02  0.43069879778E+02  0.10000000000E+01 0. -1.
        -13    1    6    6    0    0  0.39511455546E+01 -0.45533867099E+01 -0.70188232122E+01  0.92530960228E+01  0.10500000000E+00 0. -1.
         13    1    6    6    0    0  0.42905101656E+01 -0.51293101895E+01 -0.76708872341E+01  0.10177024932E+02  0.10500000000E+00 0.  1.
</event>
<event>
11    0  0.3443539E-009  0.9118800E+02  0.7816531E-02  0.1126479E+00
         25   -1    0    0    0    0  0.00000000000E+00  0.00000000000E+00  0.99999998245E-14  0.12500000000E+03  0.12500000000E+03 0.  0.
    3000001    1    3    3    0    0  0.87033577276E+01 -0.16039092180E+02  0.35130262317E+02  0.39599700051E+02  0.10000000000E+01 0. -1.
    1000022    2    1    0    0    0  0.19482033868E+02 -0.28028864017E+02  0.51391468395E+02  0.62500001610E+02  0.10000015782E+02 0.  0.
    3000022    2    3    3    0    0  0.10778676141E+02 -0.11989771837E+02  0.16261206078E+02  0.22900301558E+02  0.25000057253E+00 0.  0.
    1000022    2    1    0    0    0 -0.19482033868E+02  0.28028864017E+02 -0.51391468395E+02  0.62499998390E+02  0.99999956620E+01 0.  0.
    3000022    2    5    5    0    0 -0.12691032695E+02  0.12381152499E+02 -0.19768133519E+02  0.26555542888E+02  0.25001433939E+00 0.  0.
        -13    1    4    4    0    0  0.29758359792E+01 -0.33432676270E+01  0.45605355784E+01  0.63908174722E+01  0.10500000000E+00 0.  1.
         13    1    4    4    0    0  0.78028401615E+01 -0.86465042103E+01  0.11700670500E+02  0.16509484086E+02  0.10500000000E+00 0. -1.
    3000001    1    5    5    0    0 -0.67910011736E+01  0.15647711518E+02 -0.31623334876E+02  0.35944455503E+02  0.10000000000E+01 0.  1.
        -13    1    6    6    0    0 -0.55646879809E+01  0.54858873098E+01 -0.87904915531E+01  0.11761992971E+02  0.10500000000E+00 0.  1.
         13    1    6    6    0    0 -0.71263447138E+01  0.68952651893E+01 -0.10977641966E+02  0.14793549917E+02  0.10500000000E+00 0. -1.
</event>
<event>
11    0  0.3443539E-009  0.9118800E+02  0.7816531E-02  0.1126479E+00
         25   -1    0    0    0    0  0.00000000000E+00  0.00000000000E+00  0.99999998245E-14  0.12500000000E+03  0.12500000000E+03 0.  0.
    3000001    1    3    3    0    0  0.38942772850E+02  0.75153035652E+01  0.14239786748E+00  0.39674168197E+02  0.10000000000E+01 0.  1.
    1000022    2    1    0    0    0  0.61274067749E+02  0.56349104909E+01  0.44706157133E+01  0.62499999550E+02  0.99999972091E+01 0.  0.
    3000022    2    3    3    0    0  0.22331294899E+02 -0.18803930742E+01  0.43282178458E+01  0.22825831354E+02  0.24999459338E+00 0.  0.
    1000022    2    1    0    0    0 -0.61274067749E+02 -0.56349104909E+01 -0.44706157133E+01  0.62500000450E+02  0.10000002831E+02 0.  0.
    3000022    2    5    5    0    0 -0.21625558321E+02 -0.60881782521E+01  0.83440344102E+00  0.22483091777E+02  0.24999922837E+00 0.  0.
        -13    1    4    4    0    0  0.70525092621E+01 -0.57650918212E+00  0.14142694808E+01  0.72167466973E+01  0.10500000000E+00 0. -1.
         13    1    4    4    0    0  0.15278785637E+02 -0.13038838921E+01  0.29139483650E+01  0.15609084656E+02  0.10500000000E+00 0.  1.
    3000001    1    5    5    0    0 -0.39648509428E+02  0.45326776121E+00 -0.53050191543E+01  0.40016908673E+02  0.10000000000E+01 0.  1.
        -13    1    6    6    0    0 -0.82744834660E+01 -0.23209546923E+01  0.37981183091E+00  0.86028593700E+01  0.10500000000E+00 0.  1.
         13    1    6    6    0    0 -0.13351074855E+02 -0.37672235598E+01  0.45459161012E+00  0.13880232407E+02  0.10500000000E+00 0. -1.
</event>
<event>
11    0  0.3443539E-009  0.9118800E+02  0.7816531E-02  0.1126479E+00
         25   -1    0    0    0    0  0.00000000000E+00  0.00000000000E+00  0.99999998245E-14  0.12500000000E+03  0.12500000000E+03 0.  0.
    3000001    1    3    3    0    0 -0.13618455093E+02 -0.66354364217E+01  0.75272273669E+01  0.16945515261E+02  0.10000000000E+01 0.  1.
    1000022    2    1    0    0    0 -0.38795335333E+02 -0.34038137161E+02  0.33802029872E+02  0.62499999693E+02  0.99999956555E+01 0.  0.
    3000022    2    3    3    0    0 -0.25176880240E+02 -0.27402700740E+02  0.26274802505E+02  0.45554484432E+02  0.24999743581E+00 0.  0.
    1000022    2    1    0    0    0  0.38795335333E+02  0.34038137161E+02 -0.33802029872E+02  0.62500000307E+02  0.99999994960E+01 0.  0.
    3000022    2    5    5    0    0  0.21549240338E+02  0.20986879607E+02 -0.14081006378E+02  0.33213793929E+02  0.24998362139E+00 0.  0.
        -13    1    4    4    0    0 -0.14938400690E+02 -0.16345392560E+02  0.15604038842E+02  0.27089199440E+02  0.10500000000E+00 0.  1.
         13    1    4    4    0    0 -0.10238479550E+02 -0.11057308180E+02  0.10670763664E+02  0.18465284992E+02  0.10500000000E+00 0. -1.
    3000001    1    5    5    0    0  0.17246094995E+02  0.13051257554E+02 -0.19721023495E+02  0.29286206378E+02  0.10000000000E+01 0.  1.
        -13    1    6    6    0    0  0.66728511706E+01  0.65292573179E+01 -0.44182002170E+01  0.10329068788E+02  0.10500000000E+00 0.  1.
         13    1    6    6    0    0  0.14876389167E+02  0.14457622289E+02 -0.96628061607E+01  0.22884725141E+02  0.10500000000E+00 0. -1.
</event>
<event>
11    0  0.3443539E-009  0.9118800E+02  0.7816531E-02  0.1126479E+00
         25   -1    0    0    0    0  0.00000000000E+00  0.00000000000E+00  0.99999998245E-14  0.12500000000E+03  0.12500000000E+03 0.  0.
    3000001    1    3    3    0    0 -0.10685528212E+01  0.93190560250E+00  0.56507604543E+01  0.59111206125E+01  0.10000000000E+01 0.  1.
    1000022    2    1    0    0    0  0.13073122521E+02 -0.63154839694E+01  0.59962144667E+02  0.62499994040E+02  0.99999295867E+01 0.  0.
    3000022    2    3    3    0    0  0.14141675343E+02 -0.72473895719E+01  0.54311384213E+02  0.56588873428E+02  0.25000723871E+00 0.  0.
    1000022    2    1    0    0    0 -0.13073122521E+02  0.63154839694E+01 -0.59962144667E+02  0.62500005960E+02  0.10000004084E+02 0.  0.
    3000022    2    5    5    0    0 -0.10850479999E+02  0.16676313963E+00 -0.33043191736E+02  0.34780393146E+02  0.25000231559E+00 0.  0.
        -13    1    4    4    0    0  0.10182267079E+02 -0.52504427892E+01  0.39056204308E+02  0.40701889788E+02  0.10500000000E+00 0.  1.
         13    1    4    4    0    0  0.39594082632E+01 -0.19969467827E+01  0.15255179905E+02  0.15886983640E+02  0.10500000000E+00 0. -1.
    3000001    1    5    5    0    0 -0.22226425225E+01  0.61487208298E+01 -0.26918952931E+02  0.27719612814E+02  0.10000000000E+01 0.  1.
        -13    1    6    6    0    0 -0.42501308731E+01  0.15884815291E-01 -0.12821714768E+02  0.13508192306E+02  0.10500000000E+00 0.  1.
         13    1    6    6    0    0 -0.66003491259E+01  0.15087832434E+00 -0.20221476967E+02  0.21272200840E+02  0.10500000000E+00 0. -1.
</event>
<event>
11    0  0.3443539E-009  0.9118800E+02  0.7816531E-02  0.1126479E+00
         25   -1    0    0    0    0  0.00000000000E+00  0.00000000000E+00  0.99999998245E-14  0.12500000000E+03  0.12500000000E+03 0.  0.
    3000001    1    3    3    0    0 -0.29511283414E+02 -0.36815106218E+02  0.17572434549E+02  0.50359292594E+02  0.10000000000E+01 0.  1.
    1000022    2    1    0    0    0 -0.38190253795E+02 -0.41867106020E+02  0.24390574755E+02  0.62500000002E+02  0.99999905955E+01 0.  0.
    3000022    2    3    3    0    0 -0.86789703809E+01 -0.50519998016E+01  0.68181402062E+01  0.12140707407E+02  0.25002322666E+00 0.  0.
    1000022    2    1    0    0    0  0.38190253795E+02  0.41867106020E+02 -0.24390574755E+02  0.62499999998E+02  0.99999905719E+01 0.  0.
    3000022    2    5    5    0    0  0.80939103301E+01  0.13524313885E+02 -0.34062579171E+01  0.16127105877E+02  0.25000097270E+00 0.  0.
        -13    1    4    4    0    0 -0.44090647799E+01 -0.26446633660E+01  0.34970998825E+01  0.62189089993E+01  0.10500000000E+00 0.  1.
         13    1    4    4    0    0 -0.42699056010E+01 -0.24073364356E+01  0.33210403238E+01  0.59217984082E+01  0.10500000000E+00 0. -1.
    3000001    1    5    5    0    0  0.30096343465E+02  0.28342792135E+02 -0.20984316838E+02  0.46372894121E+02  0.10000000000E+01 0.  1.
        -13    1    6    6    0    0  0.45750452346E+01  0.75500146771E+01 -0.18618363176E+01  0.90228166332E+01  0.10500000000E+00 0.  1.
         13    1    6    6    0    0  0.35188650955E+01  0.59742992080E+01 -0.15444215995E+01  0.71042892441E+01  0.10500000000E+00 0. -1.
</event>
<event>
11    0  0.3443539E-009  0.9118800E+02  0.7816531E-02  0.1126479E+00
         25   -1    0    0    0    0  0.00000000000E+00  0.00000000000E+00  0.99999998245E-14  0.12500000000E+03  0.12500000000E+03 0.  0.
    3000001    1    3    3    0    0  0.14881240742E+01  0.87385281354E+01  0.12768987359E+02  0.15576373949E+02  0.10000000000E+01 0.  1.
    1000022    2    1    0    0    0  0.20678384685E+02  0.26555336567E+02  0.51705592932E+02  0.62499998262E+02  0.99999974464E+01 0.  0.
    3000022    2    3    3    0    0  0.19190260610E+02  0.17816808432E+02  0.38936605573E+02  0.46923624313E+02  0.25000018756E+00 0.  0.
    1000022    2    1    0    0    0 -0.20678384685E+02 -0.26555336567E+02 -0.51705592932E+02  0.62500001738E+02  0.10000019173E+02 0.  0.
    3000022    2    5    5    0    0 -0.17779677830E+02 -0.23516016393E+02 -0.37788593722E+02  0.47928699958E+02  0.24998695908E+00 0.  0.
        -13    1    4    4    0    0  0.67997952632E+01  0.63884152730E+01  0.13902504699E+02  0.16743348746E+02  0.10500000000E+00 0. -1.
         13    1    4    4    0    0  0.12390465347E+02  0.11428393159E+02  0.25034100874E+02  0.30180275567E+02  0.10500000000E+00 0.  1.
    3000001    1    5    5    0    0 -0.28987068547E+01 -0.30393201743E+01 -0.13916999210E+02  0.14571301780E+02  0.10000000000E+01 0.  1.
        -13    1    6    6    0    0 -0.59728126692E+01 -0.78261152650E+01 -0.12570855543E+02  0.15967467094E+02  0.10500000000E+00 0.  1.
         13    1    6    6    0    0 -0.11806865161E+02 -0.15689901128E+02 -0.25217738179E+02  0.31961232864E+02  0.10500000000E+00 0. -1.
</event>
<event>
11    0  0.3443539E-009  0.9118800E+02  0.7816531E-02  0.1126479E+00
         25   -1    0    0    0    0  0.00000000000E+00  0.00000000000E+00  0.99999998245E-14  0.12500000000E+03  0.12500000000E+03 0.  0.
    3000001    1    3    3    0    0  0.20456365802E+02 -0.70338243285E+01 -0.49832177735E+02  0.54333999709E+02  0.10000000000E+01 0.  1.
    1000022    2    1    0    0    0  0.20473654304E+02 -0.10422109544E+02 -0.57257829601E+02  0.62500001367E+02  0.10000011620E+02 0.  0.
    3000022    2    3    3    0    0  0.17288502453E-01 -0.33882852153E+01 -0.74256518655E+01  0.81660016586E+01  0.25000373618E+00 0.  0.
    1000022    2    1    0    0    0 -0.20473654304E+02  0.10422109544E+02  0.57257829601E+02  0.62499998633E+02  0.99999945307E+01 0.  0.
    3000022    2    5    5    0    0 -0.97251064480E+01  0.52176196166E+01  0.15316445887E+02  0.18880075843E+02  0.24999864641E+00 0.  0.
        -13    1    4    4    0    0  0.28931978193E-01 -0.23917391021E+01 -0.51349029160E+01  0.56656425892E+01  0.10500000000E+00 0. -1.
         13    1    4    4    0    0 -0.11643475740E-01 -0.99654611319E+00 -0.22907489495E+01  0.25003590694E+01  0.10500000000E+00 0.  1.
    3000001    1    5    5    0    0 -0.10748547857E+02  0.52044899272E+01  0.41941383713E+02  0.43619922790E+02  0.10000000000E+01 0.  1.
        -13    1    6    6    0    0 -0.52720317738E+01  0.28474711279E+01  0.82043287592E+01  0.10159943220E+02  0.10500000000E+00 0. -1.
         13    1    6    6    0    0 -0.44530746742E+01  0.23701484887E+01  0.71121171281E+01  0.87201326226E+01  0.10500000000E+00 0.  1.
</event>
<event>
11    0  0.3443539E-009  0.9118800E+02  0.7816531E-02  0.1126479E+00
         25   -1    0    0    0    0  0.00000000000E+00  0.00000000000E+00  0.99999998245E-14  0.12500000000E+03  0.12500000000E+03 0.  0.
    3000001    1    3    3    0    0 -0.92912764192E+01 -0.36686314406E+02 -0.38824266598E+02  0.54226719974E+02  0.10000000000E+01 0.  1.
    1000022    2    1    0    0    0 -0.70083265169E+01 -0.42899871224E+02 -0.43780525920E+02  0.62500000110E+02  0.99999986197E+01 0.  0.
    3000022    2    3    3    0    0  0.22829499023E+01 -0.62135568177E+01 -0.49562593212E+01  0.82732801366E+01  0.25001835020E+00 0.  0.
    1000022    2    1    0    0    0  0.70083265169E+01  0.42899871224E+02  0.43780525920E+02  0.62499999890E+02  0.99999972423E+01 0.  0.
    3000022    2    5    5    0    0  0.50890963478E+01  0.17043751685E+02  0.11931898715E+02  0.21420109227E+02  0.24999842863E+00 0.  0.
        -13    1    4    4    0    0  0.99713929529E+00 -0.26228499136E+01 -0.21725405082E+01  0.35502937489E+01  0.10500000000E+00 0. -1.
         13    1    4    4    0    0  0.12858106070E+01 -0.35907069041E+01 -0.27837188130E+01  0.47229863876E+01  0.10500000000E+00 0.  1.
    3000001    1    5    5    0    0  0.19192301690E+01  0.25856119539E+02  0.31848627205E+02  0.41079890663E+02  0.10000000000E+01 0. -1.
        -13    1    6    6    0    0  0.31979728801E+01  0.10859236930E+02  0.76418762394E+01  0.13658673241E+02  0.10500000000E+00 0. -1.
         13    1    6    6    0    0  0.18911234677E+01  0.61845147556E+01  0.42900224755E+01  0.77614359865E+01  0.10500000000E+00 0.  1.
</event>
<event>
11    0  0.3443539E-009  0.9118800E+02  0.7816531E-02  0.1126479E+00
         25   -1    0    0    0    0  0.00000000000E+00  0.00000000000E+00  0.99999998245E-14  0.12500000000E+03  0.12500000000E+03 0.  0.
    3000001    1    3    3    0    0 -0.38074202525E+02 -0.23017479290E+02 -0.20244772367E+02  0.48890695014E+02  0.10000000000E+01 0.  1.
    1000022    2    1    0    0    0 -0.47864476768E+02 -0.32365910655E+02 -0.21626146198E+02  0.62500005648E+02  0.10000009894E+02 0.  0.
    3000022    2    3    3    0    0 -0.97902742424E+01 -0.93484313654E+01 -0.13813738311E+01  0.13609310634E+02  0.25000707908E+00 0.  0.
    1000022    2    1    0    0    0  0.47864476768E+02  0.32365910655E+02  0.21626146198E+02  0.62499994352E+02  0.99999392901E+01 0.  0.
    3000022    2    5    5    0    0  0.29466373362E+01 -0.13750993733E+00 -0.49352601157E-01  0.29608316300E+01  0.25001537627E+00 0.  0.
        -13    1    4    4    0    0 -0.49008169666E+01 -0.46373084652E+01 -0.62766532797E+00  0.67769923643E+01  0.10500000000E+00 0. -1.
         13    1    4    4    0    0 -0.48894572758E+01 -0.47111229002E+01 -0.75370850318E+00  0.68323182698E+01  0.10500000000E+00 0.  1.
    3000001    1    5    5    0    0  0.44917839432E+02  0.32503420592E+02  0.21675498799E+02  0.59539162722E+02  0.10000000000E+01 0.  1.
        -13    1    6    6    0    0  0.20117882505E+01 -0.68679377678E-01  0.10036367820E-01  0.20157218435E+01  0.10500000000E+00 0. -1.
         13    1    6    6    0    0  0.93484908573E+00 -0.68830559654E-01 -0.59388968977E-01  0.94510978656E+00  0.10500000000E+00 0.  1.
</event>
<event>
11    0  0.3443539E-009  0.9118800E+02  0.7816531E-02  0.1126479E+00
         25   -1    0    0    0    0  0.00000000000E+00  0.00000000000E+00  0.99999998245E-14  0.12500000000E+03  0.12500000000E+03 0.  0.
    3000001    1    3    3    0    0 -0.20506489751E+01 -0.50510765799E+01 -0.89261842697E+00  0.56138492580E+01  0.10000000000E+01 0. -1.
    1000022    2    1    0    0    0 -0.71042622838E+01 -0.59312660472E+02  0.15420363607E+02  0.62500001740E+02  0.10000018442E+02 0.  0.
    3000022    2    3    3    0    0 -0.50536133087E+01 -0.54261583892E+02  0.16312982034E+02  0.56886152482E+02  0.24993476123E+00 0.  0.
    1000022    2    1    0    0    0  0.71042622838E+01  0.59312660472E+02 -0.15420363607E+02  0.62499998260E+02  0.99999966973E+01 0.  0.
    3000022    2    5    5    0    0  0.92299699618E+01  0.53077368516E+02 -0.14335067940E+02  0.55749045321E+02  0.24997456722E+00 0.  0.
        -13    1    4    4    0    0 -0.22142993850E+01 -0.24464558500E+02  0.73334794770E+01  0.25636081811E+02  0.10500000000E+00 0. -1.
         13    1    4    4    0    0 -0.28393139237E+01 -0.29797025392E+02  0.89795025572E+01  0.31250070671E+02  0.10500000000E+00 0.  1.
    3000001    1    5    5    0    0 -0.21257076780E+01  0.62352919560E+01 -0.10852956677E+01  0.67509529398E+01  0.10000000000E+01 0. -1.
        -13    1    6    6    0    0  0.41437530745E+01  0.23490140110E+02 -0.63800149500E+01  0.24691557013E+02  0.10500000000E+00 0. -1.
         13    1    6    6    0    0  0.50862168873E+01  0.29587228405E+02 -0.79550529895E+01  0.31057488308E+02  0.10500000000E+00 0.  1.
</event>
<event>
11    0  0.3443539E-009  0.9118800E+02  0.7816531E-02  0.1126479E+00
         25   -1    0    0    0    0  0.00000000000E+00  0.00000000000E+00  0.99999998245E-14  0.12500000000E+03  0.12500000000E+03 0.  0.
    3000001    1    3    3    0    0  0.26522470490E+01 -0.57456643654E+02 -0.11553090959E+02  0.58675158501E+02  0.10000000000E+01 0.  1.
    1000022    2    1    0    0    0  0.51604223531E+01 -0.60238349570E+02 -0.12286628371E+02  0.62499999350E+02  0.99999982101E+01 0.  0.
    3000022    2    3    3    0    0  0.25081753042E+01 -0.27817059163E+01 -0.73353741190E+00  0.38248408491E+01  0.24999845018E+00 0.  0.
    1000022    2    1    0    0    0 -0.51604223531E+01  0.60238349570E+02  0.12286628371E+02  0.62500000650E+02  0.10000006338E+02 0.  0.
    3000022    2    5    5    0    0 -0.10816844674E+01  0.25032394881E+00  0.97449820234E-01  0.11422350910E+01  0.25000233867E+00 0.  0.
        -13    1    4    4    0    0  0.12822690371E+01 -0.13712576660E+01 -0.30784810221E+00  0.19053495543E+01  0.10500000000E+00 0. -1.
         13    1    4    4    0    0  0.12259062671E+01 -0.14104482503E+01 -0.42568930969E+00  0.19194912948E+01  0.10500000000E+00 0.  1.
    3000001    1    5    5    0    0 -0.40787378857E+01  0.59988025621E+02  0.12189178550E+02  0.61357765559E+02  0.10000000000E+01 0.  1.
        -13    1    6    6    0    0 -0.40340267090E+00  0.68006241149E-01 -0.18055455084E-01  0.42274053885E+00  0.10500000000E+00 0.  1.
         13    1    6    6    0    0 -0.67828179649E+00  0.18231770766E+00  0.11550527532E+00  0.71949455217E+00  0.10500000000E+00 0.  1.
</event>
<event>
11    0  0.3443539E-009  0.9118800E+02  0.7816531E-02  0.1126479E+00
         25   -1    0    0    0    0  0.00000000000E+00  0.00000000000E+00  0.99999998245E-14  0.12500000000E+03  0.12500000000E+03 0.  0.
    3000001    1    3    3    0    0  0.30973363540E+02  0.36554831100E+02 -0.31212381549E+02  0.57191063005E+02  0.10000000000E+01 0. -1.
    1000022    2    1    0    0    0  0.35734047247E+02  0.38715992096E+02 -0.32099840568E+02  0.62499999771E+02  0.10000001514E+02 0.  0.
    3000022    2    3    3    0    0  0.47606837079E+01  0.21611609954E+01 -0.88745901894E+00  0.53089367659E+01  0.24999971903E+00 0.  0.
    1000022    2    1    0    0    0 -0.35734047247E+02 -0.38715992096E+02  0.32099840568E+02  0.62500000229E+02  0.10000004372E+02 0.  0.
    3000022    2    5    5    0    0 -0.39344919401E+01 -0.73712406333E+00  0.15841973503E+01  0.43122814578E+01  0.25002282853E+00 0.  0.
        -13    1    4    4    0    0  0.28752209764E+01  0.12996780802E+01 -0.59877415164E+00  0.32133493834E+01  0.10500000000E+00 0. -1.
         13    1    4    4    0    0  0.18854627316E+01  0.86148291523E+00 -0.28868486731E+00  0.20955873826E+01  0.10500000000E+00 0.  1.
    3000001    1    5    5    0    0 -0.31799555307E+02 -0.37978868033E+02  0.30515643218E+02  0.58187718771E+02  0.10000000000E+01 0. -1.
        -13    1    6    6    0    0 -0.29060326611E+01 -0.55978796912E+00  0.12003268521E+01  0.31953400366E+01  0.10500000000E+00 0. -1.
         13    1    6    6    0    0 -0.10284592791E+01 -0.17733609421E+00  0.38387049823E+00  0.11169414212E+01  0.10500000000E+00 0. -1.
</event>
<event>
11    0  0.3443539E-009  0.9118800E+02  0.7816531E-02  0.1126479E+00
         25   -1    0    0    0    0  0.00000000000E+00  0.00000000000E+00  0.99999998245E-14  0.12500000000E+03  0.12500000000E+03 0.  0.
    3000001    1    3    3    0    0  0.16931665522E+02 -0.24471605601E+02  0.37054053004E+02  0.47534657062E+02  0.10000000000E+01 0.  1.
    1000022    2    1    0    0    0  0.22117839158E+02 -0.36156070824E+02  0.44830678071E+02  0.62500001238E+02  0.10000009597E+02 0.  0.
    3000022    2    3    3    0    0  0.51861736368E+01 -0.11684465224E+02  0.77766250670E+01  0.14965344176E+02  0.25000860814E+00 0.  0.
    1000022    2    1    0    0    0 -0.22117839158E+02  0.36156070824E+02 -0.44830678071E+02  0.62499998762E+02  0.99999941215E+01 0.  0.
    3000022    2    5    5    0    0 -0.21752361142E+02  0.34380469536E+02 -0.39183690013E+02  0.56485449049E+02  0.24998100967E+00 0.  0.
        -13    1    4    4    0    0  0.34628837733E+01 -0.77757036850E+01  0.51159155423E+01  0.99316035291E+01  0.10500000000E+00 0.  1.
         13    1    4    4    0    0  0.17232898635E+01 -0.39087615387E+01  0.26607095247E+01  0.50337406464E+01  0.10500000000E+00 0. -1.
    3000001    1    5    5    0    0 -0.36547801609E+00  0.17756012886E+01 -0.56469880583E+01  0.60145497127E+01  0.10000000000E+01 0. -1.
        -13    1    6    6    0    0 -0.76316669817E+01  0.12107982184E+02 -0.13713721281E+02  0.19822279129E+02  0.10500000000E+00 0.  1.
         13    1    6    6    0    0 -0.14120694161E+02  0.22272487351E+02 -0.25469968732E+02  0.36663169920E+02  0.10500000000E+00 0. -1.
</event>
<event>
11    0  0.3443539E-009  0.9118800E+02  0.7816531E-02  0.1126479E+00
         25   -1    0    0    0    0  0.00000000000E+00  0.00000000000E+00  0.99999998245E-14  0.12500000000E+03  0.12500000000E+03 0.  0.
    3000001    1    3    3    0    0 -0.43784414532E+02  0.34873103003E+02 -0.33891239170E+01  0.56086490618E+02  0.10000000000E+01 0. -1.
    1000022    2    1    0    0    0 -0.46992669135E+02  0.39957138967E+02 -0.11686817185E+01  0.62500006314E+02  0.10000053272E+02 0.  0.
    3000022    2    3    3    0    0 -0.32082546034E+01  0.50840359641E+01  0.22204421986E+01  0.64135156961E+01  0.25000148400E+00 0.  0.
    1000022    2    1    0    0    0  0.46992669135E+02 -0.39957138967E+02  0.11686817185E+01  0.62499993686E+02  0.99999743469E+01 0.  0.
    3000022    2    5    5    0    0  0.17215904506E+02 -0.20579582262E+02  0.23882760500E+01  0.26938317320E+02  0.25000701945E+00 0.  0.
        -13    1    4    4    0    0 -0.21275345473E+01  0.33522873102E+01  0.15231694262E+01  0.42538574918E+01  0.10500000000E+00 0. -1.
         13    1    4    4    0    0 -0.10807200561E+01  0.17317486540E+01  0.69727277240E+00  0.21596582042E+01  0.10500000000E+00 0.  1.
    3000001    1    5    5    0    0  0.29776764629E+02 -0.19377556705E+02 -0.12195943315E+01  0.35561676366E+02  0.10000000000E+01 0. -1.
        -13    1    6    6    0    0  0.65169580041E+01 -0.78477160797E+01  0.95662217458E+00  0.10246147582E+02  0.10500000000E+00 0.  1.
         13    1    6    6    0    0  0.10698946502E+02 -0.12731866182E+02  0.14316538754E+01  0.16692169738E+02  0.10500000000E+00 0. -1.
</event>
<event>
11    0  0.3443539E-009  0.9118800E+02  0.7816531E-02  0.1126479E+00
         25   -1    0    0    0    0  0.00000000000E+00  0.00000000000E+00  0.99999998245E-14  0.12500000000E+03  0.12500000000E+03 0.  0.
    3000001    1    3    3    0    0 -0.32935013337E+02 -0.22850215674E+02  0.11307879472E+02  0.41661920239E+02  0.10000000000E+01 0. -1.
    1000022    2    1    0    0    0 -0.45764861136E+02 -0.39128753903E+02  0.13445003777E+02  0.62500000725E+02  0.10000003364E+02 0.  0.
    3000022    2    3    3    0    0 -0.12829847799E+02 -0.16278538229E+02  0.21371243056E+01  0.20838080486E+02  0.24999326825E+00 0.  0.
    1000022    2    1    0    0    0  0.45764861136E+02  0.39128753903E+02 -0.13445003777E+02  0.62499999275E+02  0.99999942971E+01 0.  0.
    3000022    2    5    5    0    0  0.45246806519E-01 -0.19416617156E+00  0.50284723919E+00  0.59589823421E+00  0.24998316722E+00 0.  0.
        -13    1    4    4    0    0 -0.55308088457E+01 -0.70271181035E+01  0.85639865997E+00  0.89841348494E+01  0.10500000000E+00 0.  1.
         13    1    4    4    0    0 -0.72990389534E+01 -0.92514201254E+01  0.12807256456E+01  0.11853945637E+02  0.10500000000E+00 0. -1.
    3000001    1    5    5    0    0  0.45719614330E+02  0.39322920075E+02 -0.13947851017E+02  0.61904101040E+02  0.10000000000E+01 0. -1.
        -13    1    6    6    0    0 -0.20968164888E-01 -0.11107570674E+00  0.16176723736E+00  0.22354220105E+00  0.10500000000E+00 0. -1.
         13    1    6    6    0    0  0.66214971408E-01 -0.83090464821E-01  0.34108000183E+00  0.37235603316E+00  0.10500000000E+00 0.  1.
</event>
<event>
11    0  0.3443539E-009  0.9118800E+02  0.7816531E-02  0.1126479E+00
         25   -1    0    0    0    0  0.00000000000E+00  0.00000000000E+00  0.99999998245E-14  0.12500000000E+03  0.12500000000E+03 0.  0.
    3000001    1    3    3    0    0  0.36944654569E+02  0.47970377669E+02  0.79914303791E+01  0.61081319521E+02  0.10000000000E+01 0. -1.
    1000022    2    1    0    0    0  0.37520090526E+02  0.48495472532E+02  0.68324197445E+01  0.62500000811E+02  0.10000004629E+02 0.  0.
    3000022    2    3    3    0    0  0.57543595707E+00  0.52509486327E+00 -0.11590106346E+01  0.14186812899E+01  0.24999958998E+00 0.  0.
    1000022    2    1    0    0    0 -0.37520090526E+02 -0.48495472532E+02 -0.68324197445E+01  0.62499999189E+02  0.99999944914E+01 0.  0.
    3000022    2    5    5    0    0 -0.49010226166E+01 -0.19686332446E+01 -0.32047954836E+00  0.52972393735E+01  0.24999659635E+00 0.  0.
        -13    1    4    4    0    0  0.30287840571E+00  0.20284891186E+00 -0.60905843512E+00  0.71753758583E+00  0.10500000000E+00 0.  1.
         13    1    4    4    0    0  0.27255755135E+00  0.32224595141E+00 -0.54995219949E+00  0.70114370405E+00  0.10500000000E+00 0. -1.
    3000001    1    5    5    0    0 -0.32619067910E+02 -0.46526839288E+02 -0.65119401961E+01  0.57202759815E+02  0.10000000000E+01 0. -1.
        -13    1    6    6    0    0 -0.28857027546E+01 -0.11976628900E+01 -0.13650640918E+00  0.31291110216E+01  0.10500000000E+00 0. -1.
         13    1    6    6    0    0 -0.20153198620E+01 -0.77097035461E+00 -0.18397313918E+00  0.21681283518E+01  0.10500000000E+00 0.  1.
</event>
<event>
11    0  0.3443539E-009  0.9118800E+02  0.7816531E-02  0.1126479E+00
         25   -1    0    0    0    0  0.00000000000E+00  0.00000000000E+00  0.99999998245E-14  0.12500000000E+03  0.12500000000E+03 0.  0.
    3000001    1    3    3    0    0 -0.16417326862E+01  0.21319910102E+01 -0.17634847041E+01  0.33690577588E+01  0.10000000000E+01 0.  1.
    1000022    2    1    0    0    0 -0.53792785049E+02  0.10128839360E+02 -0.28460377360E+02  0.62500000649E+02  0.99999945762E+01 0.  0.
    3000022    2    3    3    0    0 -0.52151052363E+02  0.79968483494E+01 -0.26696892656E+02  0.59130942890E+02  0.24996702158E+00 0.  0.
    1000022    2    1    0    0    0  0.53792785049E+02 -0.10128839360E+02  0.28460377360E+02  0.62499999351E+02  0.99999864648E+01 0.  0.
    3000022    2    5    5    0    0  0.24991708700E+02 -0.25922055397E+01  0.80285260062E+01  0.26378490552E+02  0.25000128191E+00 0.  0.
        -13    1    4    4    0    0 -0.35115083828E+02  0.53320506257E+01 -0.17965772106E+02  0.39803013309E+02  0.10500000000E+00 0.  1.
         13    1    4    4    0    0 -0.17035968535E+02  0.26647977236E+01 -0.87311205501E+01  0.19327929581E+02  0.10500000000E+00 0. -1.
    3000001    1    5    5    0    0  0.28801076349E+02 -0.75366338198E+01  0.20431851354E+02  0.36121508799E+02  0.10000000000E+01 0. -1.
        -13    1    6    6    0    0  0.14033637975E+02 -0.15103000823E+01  0.44707155041E+01  0.14806158288E+02  0.10500000000E+00 0. -1.
         13    1    6    6    0    0  0.10958070726E+02 -0.10819054574E+01  0.35578105021E+01  0.11572332264E+02  0.10500000000E+00 0.  1.
</event>
<event>
11    0  0.3443539E-009  0.9118800E+02  0.7816531E-02  0.1126479E+00
         25   -1    0    0    0    0  0.00000000000E+00  0.00000000000E+00  0.99999998245E-14  0.12500000000E+03  0.12500000000E+03 0.  0.
    3000001    1    3    3    0    0 -0.64284900296E+01 -0.17136547767E+02 -0.11536757761E+01  0.18366211401E+02  0.10000000000E+01 0.  1.
    1000022    2    1    0    0    0 -0.30014127402E+02 -0.53314586568E+02  0.79345554485E+01  0.62499999165E+02  0.99999870420E+01 0.  0.
    3000022    2    3    3    0    0 -0.23585637373E+02 -0.36178038801E+02  0.90882312246E+01  0.44133787764E+02  0.24998769864E+00 0.  0.
    1000022    2    1    0    0    0  0.30014127402E+02  0.53314586568E+02 -0.79345554485E+01  0.62500000835E+02  0.99999974763E+01 0.  0.
    3000022    2    5    5    0    0 -0.50644822233E+00  0.33358429851E+01  0.83017543279E-01  0.33843360472E+01  0.25000068932E+00 0.  0.
        -13    1    4    4    0    0 -0.11197489646E+02 -0.17169225095E+02  0.43824535398E+01  0.20961464376E+02  0.10500000000E+00 0.  1.
         13    1    4    4    0    0 -0.12388147726E+02 -0.19008813706E+02  0.47057776848E+01  0.23172323388E+02  0.10500000000E+00 0. -1.
    3000001    1    5    5    0    0  0.30520575625E+02  0.49978743583E+02 -0.80175729918E+01  0.59115664788E+02  0.10000000000E+01 0.  1.
        -13    1    6    6    0    0 -0.28444472239E+00  0.15262396411E+01 -0.40320338121E-02  0.15560711743E+01  0.10500000000E+00 0. -1.
         13    1    6    6    0    0 -0.22200349994E+00  0.18096033440E+01  0.87049577091E-01  0.18282648729E+01  0.10500000000E+00 0.  1.
</event>
<event>
11    0  0.3443539E-009  0.9118800E+02  0.7816531E-02  0.1126479E+00
         25   -1    0    0    0    0  0.00000000000E+00  0.00000000000E+00  0.99999998245E-14  0.12500000000E+03  0.12500000000E+03 0.  0.
    3000001    1    3    3    0    0 -0.56747799464E+01  0.41232702950E+02  0.29507780983E+01  0.41737824708E+02  0.10000000000E+01 0. -1.
    1000022    2    1    0    0    0 -0.11184566922E+02  0.59746732081E+02  0.10558565806E+02  0.62500000963E+02  0.10000013842E+02 0.  0.
    3000022    2    3    3    0    0 -0.55097869759E+01  0.18514029132E+02  0.76077877075E+01  0.20762176255E+02  0.25000364853E+00 0.  0.
    1000022    2    1    0    0    0  0.11184566922E+02 -0.59746732081E+02 -0.10558565806E+02  0.62499999037E+02  0.10000001805E+02 0.  0.
    3000022    2    5    5    0    0 -0.15239892044E+01 -0.24238323701E+01 -0.65068093427E+00  0.29467588836E+01  0.24999157257E+00 0.  0.
        -13    1    4    4    0    0 -0.15197337403E+01  0.52009289899E+01  0.21659226632E+01  0.58362230066E+01  0.10500000000E+00 0. -1.
         13    1    4    4    0    0 -0.39900532356E+01  0.13313100142E+02  0.54418650444E+01  0.14925953248E+02  0.10500000000E+00 0.  1.
    3000001    1    5    5    0    0  0.12708556127E+02 -0.57322899711E+02 -0.99078848715E+01  0.59553240153E+02  0.10000000000E+01 0.  1.
        -13    1    6    6    0    0 -0.92815387285E+00 -0.15337957303E+01 -0.45975570480E+00  0.18537527511E+01  0.10500000000E+00 0.  1.
         13    1    6    6    0    0 -0.59583533154E+00 -0.89003663979E+00 -0.19092522947E+00  0.10930061325E+01  0.10500000000E+00 0. -1.
</event>
<event>
11    0  0.3443539E-009  0.9118800E+02  0.7816531E-02  0.1126479E+00
         25   -1    0    0    0    0  0.00000000000E+00  0.00000000000E+00  0.99999998245E-14  0.12500000000E+03  0.12500000000E+03 0.  0.
    3000001    1    3    3    0    0  0.25743883622E+02  0.19219181624E+02  0.18985625138E+01  0.32198276753E+02  0.10000000000E+01 0. -1.
    1000022    2    1    0    0    0  0.52813957849E+02  0.31689772448E+02 -0.35628808354E+01  0.62499999253E+02  0.99999982632E+01 0.  0.
    3000022    2    3    3    0    0  0.27070074227E+02  0.12470590824E+02 -0.54614433492E+01  0.30301722500E+02  0.24993768645E+00 0.  0.
    1000022    2    1    0    0    0 -0.52813957849E+02 -0.31689772448E+02  0.35628808354E+01  0.62500000747E+02  0.10000007602E+02 0.  0.
    3000022    2    5    5    0    0 -0.34846712264E+02 -0.26025264284E+02  0.14627327336E+01  0.43517925289E+02  0.24999542445E+00 0.  0.
        -13    1    4    4    0    0  0.17394399401E+02  0.79781830559E+01 -0.34576607948E+01  0.19446927227E+02  0.10500000000E+00 0. -1.
         13    1    4    4    0    0  0.96756748258E+01  0.44924077684E+01 -0.20037825543E+01  0.10854795273E+02  0.10500000000E+00 0.  1.
    3000001    1    5    5    0    0 -0.17967245585E+02 -0.56645081638E+01  0.21001481018E+01  0.18982075458E+02  0.10000000000E+01 0. -1.
        -13    1    6    6    0    0 -0.24689371647E+02 -0.18492574359E+02  0.10312520171E+01  0.30864459892E+02  0.10500000000E+00 0. -1.
         13    1    6    6    0    0 -0.10157340617E+02 -0.75326899256E+01  0.43148071648E+00  0.12653465396E+02  0.10500000000E+00 0.  1.
</event>
<event>
11    0  0.3443539E-009  0.9118800E+02  0.7816531E-02  0.1126479E+00
         25   -1    0    0    0    0  0.00000000000E+00  0.00000000000E+00  0.99999998245E-14  0.12500000000E+03  0.12500000000E+03 0.  0.
    3000001    1    3    3    0    0  0.96846485266E+01  0.13857592979E+02 -0.42756327159E+01  0.17467293304E+02  0.10000000000E+01 0. -1.
    1000022    2    1    0    0    0  0.20593628110E+02  0.56521266918E+02 -0.13693024244E+02  0.62500000002E+02  0.99999977292E+01 0.  0.
    3000022    2    3    3    0    0  0.10908979583E+02  0.42663673939E+02 -0.94173915283E+01  0.45032706698E+02  0.24999964932E+00 0.  0.
    1000022    2    1    0    0    0 -0.20593628110E+02 -0.56521266918E+02  0.13693024244E+02  0.62499999998E+02  0.99999977001E+01 0.  0.
    3000022    2    5    5    0    0 -0.20982238832E+01 -0.11599927303E+02  0.62442303471E+01  0.13342180062E+02  0.24999855177E+00 0.  0.
        -13    1    4    4    0    0  0.43776502845E+01  0.17335167441E+02 -0.37879111341E+01  0.18276519033E+02  0.10500000000E+00 0. -1.
         13    1    4    4    0    0  0.65313292989E+01  0.25328506498E+02 -0.56294803942E+01  0.26756187665E+02  0.10500000000E+00 0.  1.
    3000001    1    5    5    0    0 -0.18495404227E+02 -0.44921339615E+02  0.74487938971E+01  0.49157819936E+02  0.10000000000E+01 0.  1.
        -13    1    6    6    0    0 -0.11590669960E+01 -0.60438720194E+01  0.32813939448E+01  0.69749836207E+01  0.10500000000E+00 0. -1.
         13    1    6    6    0    0 -0.93915688727E+00 -0.55560552836E+01  0.29628364023E+01  0.63671964411E+01  0.10500000000E+00 0.  1.
</event>
<event>
11    0  0.3443539E-009  0.9118800E+02  0.7816531E-02  0.1126479E+00
         25   -1    0    0    0    0  0.00000000000E+00  0.00000000000E+00  0.99999998245E-14  0.12500000000E+03  0.12500000000E+03 0.  0.
    3000001    1    3    3    0    0  0.31039727663E+02 -0.25755374215E+02 -0.37354208018E+02  0.54983096047E+02  0.10000000000E+01 0.  1.
    1000022    2    1    0    0    0  0.32283537687E+02 -0.31367787489E+02 -0.42191055453E+02  0.62499999153E+02  0.99999918202E+01 0.  0.
    3000022    2    3    3    0    0  0.12438100234E+01 -0.56124132740E+01 -0.48368474358E+01  0.75169031059E+01  0.24998610685E+00 0.  0.
    1000022    2    1    0    0    0 -0.32283537687E+02  0.31367787489E+02  0.42191055453E+02  0.62500000847E+02  0.10000002404E+02 0.  0.
    3000022    2    5    5    0    0 -0.74601271795E+01  0.71927222365E+01  0.15953357999E+02  0.19025269602E+02  0.25000249914E+00 0.  0.
        -13    1    4    4    0    0  0.64991644725E+00 -0.31979304060E+01 -0.27030205918E+01  0.42386903154E+01  0.10500000000E+00 0.  1.
         13    1    4    4    0    0  0.59389357610E+00 -0.24144828680E+01 -0.21338268440E+01  0.32782127905E+01  0.10500000000E+00 0. -1.
    3000001    1    5    5    0    0 -0.24823410507E+02  0.24175065252E+02  0.26237697454E+02  0.43474731245E+02  0.10000000000E+01 0. -1.
        -13    1    6    6    0    0 -0.25689840187E+01  0.24489063379E+01  0.55596615495E+01  0.65967933638E+01  0.10500000000E+00 0. -1.
         13    1    6    6    0    0 -0.48911431608E+01  0.47438158986E+01  0.10393696450E+02  0.12428476238E+02  0.10500000000E+00 0.  1.
</event>
<event>
11    0  0.3443539E-009  0.9118800E+02  0.7816531E-02  0.1126479E+00
         25   -1    0    0    0    0  0.00000000000E+00  0.00000000000E+00  0.99999998245E-14  0.12500000000E+03  0.12500000000E+03 0.  0.
    3000001    1    3    3    0    0 -0.42525072249E+02 -0.14390857546E+02  0.38251748597E+02  0.58988768604E+02  0.10000000000E+01 0. -1.
    1000022    2    1    0    0    0 -0.43124264382E+02 -0.14403361664E+02  0.41702411176E+02  0.62500001818E+02  0.10000006184E+02 0.  0.
    3000022    2    3    3    0    0 -0.59919213234E+00 -0.12504117641E-01  0.34506625792E+01  0.35112332138E+01  0.24999776298E+00 0.  0.
    1000022    2    1    0    0    0  0.43124264382E+02  0.14403361664E+02 -0.41702411176E+02  0.62499998182E+02  0.99999834601E+01 0.  0.
    3000022    2    5    5    0    0  0.30617008856E+02  0.14766699380E+02 -0.29958574956E+02  0.45310433201E+02  0.25000318842E+00 0.  0.
        -13    1    4    4    0    0 -0.44628748179E+00 -0.40822086085E-01  0.23416135162E+01  0.23864236460E+01  0.10500000000E+00 0.  1.
         13    1    4    4    0    0 -0.15290465055E+00  0.28317968444E-01  0.11090490630E+01  0.11248095677E+01  0.10500000000E+00 0. -1.
    3000001    1    5    5    0    0  0.12507255526E+02 -0.36333771645E+00 -0.11743836220E+02  0.17189564981E+02  0.10000000000E+01 0. -1.
        -13    1    6    6    0    0  0.11879512133E+02  0.56610797335E+01 -0.11595881667E+02  0.17539844039E+02  0.10500000000E+00 0. -1.
         13    1    6    6    0    0  0.18737496723E+02  0.91056196466E+01 -0.18362693289E+02  0.27770589162E+02  0.10500000000E+00 0.  1.
</event>
<event>
11    0  0.3443539E-009  0.9118800E+02  0.7816531E-02  0.1126479E+00
         25   -1    0    0    0    0  0.00000000000E+00  0.00000000000E+00  0.99999998245E-14  0.12500000000E+03  0.12500000000E+03 0.  0.
    3000001    1    3    3    0    0  0.79930012645E+01  0.17827404797E+02 -0.26674215246E+02  0.33078968999E+02  0.10000000000E+01 0. -1.
    1000022    2    1    0    0    0  0.17627683389E+02  0.39748611236E+02 -0.43767141012E+02  0.62499999135E+02  0.99999971333E+01 0.  0.
    3000022    2    3    3    0    0  0.96346821248E+01  0.21921206439E+02 -0.17092925766E+02  0.29421030137E+02  0.25002335464E+00 0.  0.
    1000022    2    1    0    0    0 -0.17627683389E+02 -0.39748611236E+02  0.43767141012E+02  0.62500000865E+02  0.10000007942E+02 0.  0.
    3000022    2    5    5    0    0 -0.32074947413E+01 -0.15300907663E+02  0.10889746690E+02  0.19053998654E+02  0.24996783569E+00 0.  0.
        -13    1    4    4    0    0  0.32482745238E+01  0.73818303708E+01 -0.56908903957E+01  0.98711683959E+01  0.10500000000E+00 0.  1.
         13    1    4    4    0    0  0.63864076009E+01  0.14539376068E+02 -0.11402035370E+02  0.19549861741E+02  0.10500000000E+00 0. -1.
    3000001    1    5    5    0    0 -0.14420188648E+02 -0.24447703573E+02  0.32877394323E+02  0.43446002210E+02  0.10000000000E+01 0.  1.
        -13    1    6    6    0    0 -0.17655062603E+01 -0.86122759797E+01  0.61883756586E+01  0.10751526784E+02  0.10500000000E+00 0. -1.
         13    1    6    6    0    0 -0.14419884810E+01 -0.66886316835E+01  0.47013710311E+01  0.83024718698E+01  0.10500000000E+00 0.  1.
</event>
<event>
11    0  0.3443539E-009  0.9118800E+02  0.7816531E-02  0.1126479E+00
         25   -1    0    0    0    0  0.00000000000E+00  0.00000000000E+00  0.99999998245E-14  0.12500000000E+03  0.12500000000E+03 0.  0.
    3000001    1    3    3    0    0 -0.20430316854E+02  0.62098605442E+01 -0.22396676796E+02  0.30960803385E+02  0.10000000000E+01 0.  1.
    1000022    2    1    0    0    0 -0.37154551562E+02  0.21595546262E+02 -0.44265355538E+02  0.62500000582E+02  0.10000002584E+02 0.  0.
    3000022    2    3    3    0    0 -0.16724234708E+02  0.15385685718E+02 -0.21868678742E+02  0.31539197197E+02  0.24999664833E+00 0.  0.
    1000022    2    1    0    0    0  0.37154551562E+02 -0.21595546262E+02  0.44265355538E+02  0.62499999418E+02  0.99999953086E+01 0.  0.
    3000022    2    5    5    0    0  0.17325781157E+02 -0.45375458611E+01  0.16758915823E+02  0.24529487975E+02  0.25001119195E+00 0.  0.
        -13    1    4    4    0    0 -0.98723707528E+01  0.91034962820E+01 -0.13008745757E+02  0.18696947345E+02  0.10500000000E+00 0.  1.
         13    1    4    4    0    0 -0.68518639551E+01  0.62821894357E+01 -0.88599329852E+01  0.12842249852E+02  0.10500000000E+00 0. -1.
    3000001    1    5    5    0    0  0.19828770406E+02 -0.17058000401E+02  0.27506439715E+02  0.37970511443E+02  0.10000000000E+01 0.  1.
        -13    1    6    6    0    0  0.12091217865E+02 -0.31847255711E+01  0.11640483746E+02  0.17083673881E+02  0.10500000000E+00 0.  1.
         13    1    6    6    0    0  0.52345632919E+01 -0.13528202900E+01  0.51184320770E+01  0.74458140939E+01  0.10500000000E+00 0. -1.
</event>
<event>
11    0  0.3443539E-009  0.9118800E+02  0.7816531E-02  0.1126479E+00
         25   -1    0    0    0    0  0.00000000000E+00  0.00000000000E+00  0.99999998245E-14  0.12500000000E+03  0.12500000000E+03 0.  0.
    3000001    1    3    3    0    0 -0.13673270741E+02 -0.24479640963E+01  0.30778596176E+02  0.33782729960E+02  0.10000000000E+01 0.  1.
    1000022    2    1    0    0    0 -0.32159677606E+02 -0.31223352638E+00  0.52648907529E+02  0.62500000060E+02  0.10000009500E+02 0.  0.
    3000022    2    3    3    0    0 -0.18486406865E+02  0.21357305699E+01  0.21870311353E+02  0.28717270100E+02  0.24999896902E+00 0.  0.
    1000022    2    1    0    0    0  0.32159677606E+02  0.31223352638E+00 -0.52648907529E+02  0.62499999940E+02  0.10000008751E+02 0.  0.
    3000022    2    5    5    0    0  0.38286236931E+01  0.21731734213E+00 -0.14318866796E+02  0.14825587018E+02  0.24999577455E+00 0.  0.
        -13    1    4    4    0    0 -0.99231701639E+01  0.10871545576E+01  0.11781467337E+02  0.15442318762E+02  0.10500000000E+00 0.  1.
         13    1    4    4    0    0 -0.85632367007E+01  0.10485760124E+01  0.10088844016E+02  0.13274951338E+02  0.10500000000E+00 0. -1.
    3000001    1    5    5    0    0  0.28331053913E+02  0.94916184250E-01 -0.38330040733E+02  0.47674412922E+02  0.10000000000E+01 0.  1.
        -13    1    6    6    0    0  0.98440760358E+00  0.50070237680E-01 -0.38103537370E+01  0.39371799501E+01  0.10500000000E+00 0.  1.
         13    1    6    6    0    0  0.28442160895E+01  0.16724710445E+00 -0.10508513059E+02  0.10888407068E+02  0.10500000000E+00 0. -1.
</event>
<event>
11    0  0.3443539E-009  0.9118800E+02  0.7816531E-02  0.1126479E+00
         25   -1    0    0    0    0  0.00000000000E+00  0.00000000000E+00  0.99999998245E-14  0.12500000000E+03  0.12500000000E+03 0.  0.
    3000001    1    3    3    0    0  0.22836478501E+02  0.15181292716E+02  0.19476760235E+02  0.33649971591E+02  0.10000000000E+01 0. -1.
    1000022    2    1    0    0    0  0.34868499431E+02  0.30172301835E+02  0.40988655136E+02  0.62499997439E+02  0.99999889709E+01 0.  0.
    3000022    2    3    3    0    0  0.12032020930E+02  0.14991009119E+02  0.21511894901E+02  0.28850025847E+02  0.24997419958E+00 0.  0.
    1000022    2    1    0    0    0 -0.34868499431E+02 -0.30172301835E+02 -0.40988655136E+02  0.62500002561E+02  0.10000020986E+02 0.  0.
    3000022    2    5    5    0    0 -0.23880087706E+02 -0.17854676884E+02 -0.20570346295E+02  0.36224987573E+02  0.25000504434E+00 0.  0.
        -13    1    4    4    0    0  0.37229609624E+01  0.47022047995E+01  0.67549438639E+01  0.90339061269E+01  0.10500000000E+00 0.  1.
         13    1    4    4    0    0  0.83090599673E+01  0.10288804319E+02  0.14756951037E+02  0.19816119721E+02  0.10500000000E+00 0. -1.
    3000001    1    5    5    0    0 -0.10988411724E+02 -0.12317624951E+02 -0.20418308842E+02  0.26275014988E+02  0.10000000000E+01 0. -1.
        -13    1    6    6    0    0 -0.67274281266E+01 -0.50760531883E+01 -0.57938391683E+01  0.10227619590E+02  0.10500000000E+00 0. -1.
         13    1    6    6    0    0 -0.17152659580E+02 -0.12778623696E+02 -0.14776507126E+02  0.25997367983E+02  0.10500000000E+00 0.  1.
</event>
<event>
11    0  0.3443539E-009  0.9118800E+02  0.7816531E-02  0.1126479E+00
         25   -1    0    0    0    0  0.00000000000E+00  0.00000000000E+00  0.99999998245E-14  0.12500000000E+03  0.12500000000E+03 0.  0.
    3000001    1    3    3    0    0  0.53360266912E+00 -0.39058422077E+02 -0.14741014378E+02  0.41762932989E+02  0.10000000000E+01 0.  1.
    1000022    2    1    0    0    0 -0.52529477703E+01 -0.58598357121E+02 -0.18571190569E+02  0.62500000683E+02  0.10000002429E+02 0.  0.
    3000022    2    3    3    0    0 -0.57865504394E+01 -0.19539935044E+02 -0.38301761916E+01  0.20737067693E+02  0.24999870864E+00 0.  0.
    1000022    2    1    0    0    0  0.52529477703E+01  0.58598357121E+02  0.18571190569E+02  0.62499999317E+02  0.99999938942E+01 0.  0.
    3000022    2    5    5    0    0  0.55738600254E+01  0.57652380343E+02  0.16953663879E+02  0.60351918933E+02  0.25005044052E+00 0.  0.
        -13    1    4    4    0    0 -0.20155839640E+01 -0.67890940427E+01 -0.13880068419E+01  0.72174763338E+01  0.10500000000E+00 0.  1.
         13    1    4    4    0    0 -0.37709664754E+01 -0.12750841001E+02 -0.24421693497E+01  0.13519591360E+02  0.10500000000E+00 0. -1.
    3000001    1    5    5    0    0 -0.32091225518E+00  0.94597677859E+00  0.16175266909E+01  0.21480803842E+01  0.10000000000E+01 0. -1.
        -13    1    6    6    0    0  0.21528482385E+01  0.21778262582E+02  0.64453863960E+01  0.22814063808E+02  0.10500000000E+00 0.  1.
         13    1    6    6    0    0  0.34210117869E+01  0.35874117761E+02  0.10508277483E+02  0.37537855125E+02  0.10500000000E+00 0. -1.
</event>
<event>
11    0  0.3443539E-009  0.9118800E+02  0.7816531E-02  0.1126479E+00
         25   -1    0    0    0    0  0.00000000000E+00  0.00000000000E+00  0.99999998245E-14  0.12500000000E+03  0.12500000000E+03 0.  0.
    3000001    1    3    3    0    0  0.23613094503E+01 -0.87330770992E+01 -0.45633552857E+01  0.10181681070E+02  0.10000000000E+01 0.  1.
    1000022    2    1    0    0    0 -0.32831220930E+01 -0.47432949360E+02 -0.39313953328E+02  0.62499997735E+02  0.99999607445E+01 0.  0.
    3000022    2    3    3    0    0 -0.56444315433E+01 -0.38699872261E+02 -0.34750598043E+02  0.52318316665E+02  0.24994782168E+00 0.  0.
    1000022    2    1    0    0    0  0.32831220930E+01  0.47432949360E+02  0.39313953328E+02  0.62500002265E+02  0.99999890586E+01 0.  0.
    3000022    2    5    5    0    0 -0.80987145689E+00  0.15857685653E+02  0.18807259917E+02  0.24614987430E+02  0.24998913432E+00 0.  0.
        -13    1    4    4    0    0 -0.36610975140E+01 -0.24998005508E+02 -0.22522457605E+02  0.33846359272E+02  0.10500000000E+00 0.  1.
         13    1    4    4    0    0 -0.19833340293E+01 -0.13701866753E+02 -0.12228140438E+02  0.18471957393E+02  0.10500000000E+00 0. -1.
    3000001    1    5    5    0    0  0.40929935499E+01  0.31575263707E+02  0.20506693412E+02  0.37885014835E+02  0.10000000000E+01 0.  1.
        -13    1    6    6    0    0 -0.62156119034E+00  0.11940746174E+02  0.14194572760E+02  0.18559759653E+02  0.10500000000E+00 0. -1.
         13    1    6    6    0    0 -0.18831026655E+00  0.39169394787E+01  0.46126871566E+01  0.60552277778E+01  0.10500000000E+00 0.  1.
</event>
<event>
11    0  0.3443539E-009  0.9118800E+02  0.7816531E-02  0.1126479E+00
         25   -1    0    0    0    0  0.00000000000E+00  0.00000000000E+00  0.99999998245E-14  0.12500000000E+03  0.12500000000E+03 0.  0.
    3000001    1    3    3    0    0 -0.26902119002E+01 -0.55453355625E+01 -0.35166009614E+02  0.35716049876E+02  0.10000000000E+01 0.  1.
    1000022    2    1    0    0    0 -0.11864566971E+02 -0.13678348372E+02 -0.58977832418E+02  0.62500001924E+02  0.10000018007E+02 0.  0.
    3000022    2    3    3    0    0 -0.91743550710E+01 -0.81330128092E+01 -0.23811822804E+02  0.26783952048E+02  0.24998745079E+00 0.  0.
    1000022    2    1    0    0    0  0.11864566971E+02  0.13678348372E+02  0.58977832418E+02  0.62499998076E+02  0.99999939564E+01 0.  0.
    3000022    2    5    5    0    0  0.15383982868E+01  0.47604665676E+01  0.30476155906E+02  0.30885065851E+02  0.25000516782E+00 0.  0.
        -13    1    4    4    0    0 -0.66293446959E+01 -0.58982650311E+01 -0.17307777824E+02  0.19450139837E+02  0.10500000000E+00 0.  1.
         13    1    4    4    0    0 -0.25450103751E+01 -0.22347477782E+01 -0.65040449798E+01  0.73338122106E+01  0.10500000000E+00 0. -1.
    3000001    1    5    5    0    0  0.10326168684E+02  0.89178818042E+01  0.28501676513E+02  0.31614932225E+02  0.10000000000E+01 0.  1.
        -13    1    6    6    0    0  0.85228835118E+00  0.24822951119E+01  0.15688421278E+02  0.15906783825E+02  0.10500000000E+00 0.  1.
         13    1    6    6    0    0  0.68610993562E+00  0.22781714557E+01  0.14787734628E+02  0.14978282026E+02  0.10500000000E+00 0. -1.
</event>
<event>
11    0  0.3443539E-009  0.9118800E+02  0.7816531E-02  0.1126479E+00
         25   -1    0    0    0    0  0.00000000000E+00  0.00000000000E+00  0.99999998245E-14  0.12500000000E+03  0.12500000000E+03 0.  0.
    3000001    1    3    3    0    0  0.28028675325E+02  0.48278099218E+02  0.45499212217E+01  0.56018597695E+02  0.10000000000E+01 0. -1.
    1000022    2    1    0    0    0  0.33176048078E+02  0.51585420956E+02  0.66741318855E+01  0.62500001397E+02  0.10000015848E+02 0.  0.
    3000022    2    3    3    0    0  0.51473727533E+01  0.33073217375E+01  0.21242106638E+01  0.64814037021E+01  0.24999933769E+00 0.  0.
    1000022    2    1    0    0    0 -0.33176048078E+02 -0.51585420956E+02 -0.66741318855E+01  0.62499998603E+02  0.99999983814E+01 0.  0.
    3000022    2    5    5    0    0 -0.14093168642E+02 -0.30424628996E+02 -0.18446508180E+01  0.33581850472E+02  0.24998510781E+00 0.  0.
        -13    1    4    4    0    0  0.32569709671E+01  0.21550624996E+01  0.13282379930E+01  0.41264264714E+01  0.10500000000E+00 0.  1.
         13    1    4    4    0    0  0.18904017862E+01  0.11522592379E+01  0.79597267079E+00  0.23549772307E+01  0.10500000000E+00 0. -1.
    3000001    1    5    5    0    0 -0.19082879436E+02 -0.21160791960E+02 -0.48294810675E+01  0.28918148131E+02  0.10000000000E+01 0. -1.
        -13    1    6    6    0    0 -0.64486336495E+01 -0.13972581366E+02 -0.78303109660E+00  0.15409155352E+02  0.10500000000E+00 0. -1.
         13    1    6    6    0    0 -0.76445349929E+01 -0.16452047630E+02 -0.10616197214E+01  0.18172695120E+02  0.10500000000E+00 0.  1.
</event>
<event>
11    0  0.3443539E-009  0.9118800E+02  0.7816531E-02  0.1126479E+00
         25   -1    0    0    0    0  0.00000000000E+00  0.00000000000E+00  0.99999998245E-14  0.12500000000E+03  0.12500000000E+03 0.  0.
    3000001    1    3    3    0    0 -0.20795865189E+02 -0.67312325284E+01 -0.13628984440E+02  0.25778415722E+02  0.10000000000E+01 0.  1.
    1000022    2    1    0    0    0 -0.42072482015E+02 -0.20853265504E+02 -0.40016215793E+02  0.62499999537E+02  0.99999995330E+01 0.  0.
    3000022    2    3    3    0    0 -0.21276616826E+02 -0.14122032975E+02 -0.26387231353E+02  0.36721583814E+02  0.25000086059E+00 0.  0.
    1000022    2    1    0    0    0  0.42072482015E+02  0.20853265504E+02  0.40016215793E+02  0.62500000463E+02  0.10000005322E+02 0.  0.
    3000022    2    5    5    0    0  0.18305240719E+02  0.47342071071E+01  0.19712335938E+02  0.27315439366E+02  0.24996986213E+00 0.  0.
        -13    1    4    4    0    0 -0.78704058416E+01 -0.51642540489E+01 -0.97738369344E+01  0.13570251339E+02  0.10500000000E+00 0. -1.
         13    1    4    4    0    0 -0.13406210985E+02 -0.89577789265E+01 -0.16613394419E+02  0.23151332475E+02  0.10500000000E+00 0.  1.
    3000001    1    5    5    0    0  0.23767241296E+02  0.16119058397E+02  0.20303879855E+02  0.35184561097E+02  0.10000000000E+01 0.  1.
        -13    1    6    6    0    0  0.43593428736E+01  0.11451665649E+01  0.47072883706E+01  0.65180415429E+01  0.10500000000E+00 0. -1.
         13    1    6    6    0    0  0.13945897845E+02  0.35890405422E+01  0.15005047567E+02  0.20797397823E+02  0.10500000000E+00 0.  1.
</event>
<event>
11    0  0.3443539E-009  0.9118800E+02  0.7816531E-02  0.1126479E+00
         25   -1    0    0    0    0  0.00000000000E+00  0.00000000000E+00  0.99999998245E-14  0.12500000000E+03  0.12500000000E+03 0.  0.
    3000001    1    3    3    0    0  0.35018228607E+02  0.24648478971E+02 -0.16936209072E+02  0.46061470103E+02  0.10000000000E+01 0. -1.
    1000022    2    1    0    0    0  0.49236619353E+02  0.27976487765E+02 -0.24481041340E+02  0.62500000362E+02  0.10000005361E+02 0.  0.
    3000022    2    3    3    0    0  0.14218390746E+02  0.33280087937E+01 -0.75448322682E+01  0.16438530259E+02  0.25001036097E+00 0.  0.
    1000022    2    1    0    0    0 -0.49236619353E+02 -0.27976487765E+02  0.24481041340E+02  0.62499999638E+02  0.10000000835E+02 0.  0.
    3000022    2    5    5    0    0 -0.10805771392E+02 -0.92402203040E+01  0.25814877381E+01  0.14452437355E+02  0.24999984131E+00 0.  0.
        -13    1    4    4    0    0  0.46540149854E+01  0.10492251656E+01 -0.25042404429E+01  0.53891533777E+01  0.10500000000E+00 0.  1.
         13    1    4    4    0    0  0.95643757604E+01  0.22787836281E+01 -0.50405918253E+01  0.11049376881E+02  0.10500000000E+00 0. -1.
    3000001    1    5    5    0    0 -0.38430847961E+02 -0.18736267461E+02  0.21899553602E+02  0.48047562283E+02  0.10000000000E+01 0. -1.
        -13    1    6    6    0    0 -0.73349787416E+01 -0.62842066134E+01  0.17026837586E+01  0.98083292605E+01  0.10500000000E+00 0.  1.
         13    1    6    6    0    0 -0.34707926504E+01 -0.29560136906E+01  0.87880397948E+00  0.46441080947E+01  0.10500000000E+00 0. -1.
</event>
<event>
11    0  0.3443539E-009  0.9118800E+02  0.7816531E-02  0.1126479E+00
         25   -1    0    0    0    0  0.00000000000E+00  0.00000000000E+00  0.99999998245E-14  0.12500000000E+03  0.12500000000E+03 0.  0.
    3000001    1    3    3    0    0  0.34318289213E+01 -0.31491698779E+02 -0.12094152612E+02  0.33923046283E+02  0.10000000000E+01 0. -1.
    1000022    2    1    0    0    0  0.13476142536E+02 -0.57847935357E+02 -0.16681127084E+02  0.62499999933E+02  0.99999974096E+01 0.  0.
    3000022    2    3    3    0    0  0.10044313614E+02 -0.26356236578E+02 -0.45869744723E+01  0.28576953650E+02  0.25000518001E+00 0.  0.
    1000022    2    1    0    0    0 -0.13476142536E+02  0.57847935357E+02  0.16681127084E+02  0.62500000067E+02  0.99999982417E+01 0.  0.
    3000022    2    5    5    0    0 -0.14726813653E+02  0.46814053523E+02  0.13958833278E+02  0.51022996532E+02  0.25000195688E+00 0.  0.
        -13    1    4    4    0    0  0.32828671142E+01 -0.87280873258E+01 -0.14820061426E+01  0.94426739890E+01  0.10500000000E+00 0. -1.
         13    1    4    4    0    0  0.67614465001E+01 -0.17628149252E+02 -0.31049683297E+01  0.19134279661E+02  0.10500000000E+00 0.  1.
    3000001    1    5    5    0    0  0.12506711177E+01  0.11033881834E+02  0.27222938062E+01  0.11477003535E+02  0.10000000000E+01 0.  1.
        -13    1    6    6    0    0 -0.58034006247E+01  0.18361911944E+02  0.55363277482E+01  0.20037495327E+02  0.10500000000E+00 0.  1.
         13    1    6    6    0    0 -0.89234130286E+01  0.28452141579E+02  0.84225055295E+01  0.30985501205E+02  0.10500000000E+00 0. -1.
</event>
<event>
11    0  0.3443539E-009  0.9118800E+02  0.7816531E-02  0.1126479E+00
         25   -1    0    0    0    0  0.00000000000E+00  0.00000000000E+00  0.99999998245E-14  0.12500000000E+03  0.12500000000E+03 0.  0.
    3000001    1    3    3    0    0  0.29627725200E+02 -0.28809981617E+02 -0.39162838596E+02  0.56943349640E+02  0.10000000000E+01 0.  1.
    1000022    2    1    0    0    0  0.34145934601E+02 -0.29058602958E+02 -0.42378094195E+02  0.62500002074E+02  0.10000006799E+02 0.  0.
    3000022    2    3    3    0    0  0.45182094009E+01 -0.24862134115E+00 -0.32152555991E+01  0.55566524341E+01  0.24997788882E+00 0.  0.
    1000022    2    1    0    0    0 -0.34145934601E+02  0.29058602958E+02  0.42378094195E+02  0.62499997926E+02  0.99999808763E+01 0.  0.
    3000022    2    5    5    0    0 -0.28348100500E+02  0.19613809170E+02  0.28617823859E+02  0.44803556202E+02  0.24998767746E+00 0.  0.
        -13    1    4    4    0    0  0.24723991410E+01 -0.10960371932E+00 -0.18331363814E+01  0.30815879803E+01  0.10500000000E+00 0.  1.
         13    1    4    4    0    0  0.20458102599E+01 -0.13901762183E+00 -0.13821192177E+01  0.24750644538E+01  0.10500000000E+00 0. -1.
    3000001    1    5    5    0    0 -0.57978341007E+01  0.94447937878E+01  0.13760270337E+02  0.17696441724E+02  0.10000000000E+01 0. -1.
        -13    1    6    6    0    0 -0.75037609226E+01  0.51579647222E+01  0.75837983863E+01  0.11850571759E+02  0.10500000000E+00 0.  1.
         13    1    6    6    0    0 -0.20844339577E+02  0.14455844448E+02  0.21034025472E+02  0.32952984443E+02  0.10500000000E+00 0. -1.
</event>
<event>
11    0  0.3443539E-009  0.9118800E+02  0.7816531E-02  0.1126479E+00
         25   -1    0    0    0    0  0.00000000000E+00  0.00000000000E+00  0.99999998245E-14  0.12500000000E+03  0.12500000000E+03 0.  0.
    3000001    1    3    3    0    0 -0.98442901333E+01 -0.13510951574E+02  0.61681201904E+01  0.17846612209E+02  0.10000000000E+01 0. -1.
    1000022    2    1    0    0    0 -0.20261579797E+02 -0.53080390278E+02  0.24045566924E+02  0.62500010787E+02  0.10000130588E+02 0.  0.
    3000022    2    3    3    0    0 -0.10417289663E+02 -0.39569438705E+02  0.17877446733E+02  0.44653398578E+02  0.24999912456E+00 0.  0.
    1000022    2    1    0    0    0  0.20261579797E+02  0.53080390278E+02 -0.24045566924E+02  0.62499989213E+02  0.99999957497E+01 0.  0.
    3000022    2    5    5    0    0  0.18629843763E+01  0.11697853189E+02 -0.85991827901E+01  0.14639635347E+02  0.24999682937E+00 0.  0.
        -13    1    4    4    0    0 -0.45283279648E+01 -0.17177250692E+02  0.76898916042E+01  0.19357405647E+02  0.10500000000E+00 0. -1.
         13    1    4    4    0    0 -0.58889616986E+01 -0.22392188013E+02  0.10187555129E+02  0.25295992931E+02  0.10500000000E+00 0.  1.
    3000001    1    5    5    0    0  0.18398595420E+02  0.41382537089E+02 -0.15446384133E+02  0.47860353866E+02  0.10000000000E+01 0. -1.
        -13    1    6    6    0    0  0.11067124624E+01  0.67654895699E+01 -0.49045877499E+01  0.84298675904E+01  0.10500000000E+00 0.  1.
         13    1    6    6    0    0  0.75627191386E+00  0.49323636192E+01 -0.36945950401E+01  0.62097677565E+01  0.10500000000E+00 0. -1.
</event>
<event>
11    0  0.3443539E-009  0.9118800E+02  0.7816531E-02  0.1126479E+00
         25   -1    0    0    0    0  0.00000000000E+00  0.00000000000E+00  0.99999998245E-14  0.12500000000E+03  0.12500000000E+03 0.  0.
    3000001    1    3    3    0    0 -0.12348044683E+02  0.14140380662E+02 -0.15345644260E+02  0.24267537380E+02  0.10000000000E+01 0.  1.
    1000022    2    1    0    0    0 -0.22637124845E+02  0.32862643328E+02 -0.47051647304E+02  0.62500002895E+02  0.10000005006E+02 0.  0.
    3000022    2    3    3    0    0 -0.10289080162E+02  0.18722262666E+02 -0.31706003044E+02  0.38232465514E+02  0.25000074903E+00 0.  0.
    1000022    2    1    0    0    0  0.22637124845E+02 -0.32862643328E+02  0.47051647304E+02  0.62499997105E+02  0.99999688208E+01 0.  0.
    3000022    2    5    5    0    0 -0.22758466282E+00 -0.18371959360E+01  0.28339767478E+00  0.18894163449E+01  0.24999239302E+00 0.  0.
        -13    1    4    4    0    0 -0.37017652074E+01  0.68441646824E+01 -0.11500376906E+02  0.13885796694E+02  0.10500000000E+00 0. -1.
         13    1    4    4    0    0 -0.65873149544E+01  0.11878097984E+02 -0.20205626138E+02  0.24346668820E+02  0.10500000000E+00 0.  1.
    3000001    1    5    5    0    0  0.22864709508E+02 -0.31025447392E+02  0.46768249629E+02  0.60610580760E+02  0.10000000000E+01 0. -1.
        -13    1    6    6    0    0 -0.17039745625E+00 -0.11515453397E+01  0.23126105546E+00  0.11914691093E+01  0.10500000000E+00 0. -1.
         13    1    6    6    0    0 -0.57187206568E-01 -0.68565059623E+00  0.52136619314E-01  0.69794723567E+00  0.10500000000E+00 0.  1.
</event>
<event>
11    0  0.3443539E-009  0.9118800E+02  0.7816531E-02  0.1126479E+00
         25   -1    0    0    0    0  0.00000000000E+00  0.00000000000E+00  0.99999998245E-14  0.12500000000E+03  0.12500000000E+03 0.  0.
    3000001    1    3    3    0    0 -0.23606544111E+02 -0.19101743204E+02  0.60032237146E+01  0.30970699270E+02  0.10000000000E+01 0.  1.
    1000022    2    1    0    0    0 -0.51423193837E+02 -0.30136243165E+02  0.15928384754E+02  0.62500011240E+02  0.99999973800E+01 0.  0.
    3000022    2    3    3    0    0 -0.27816649725E+02 -0.11034499961E+02  0.99251610394E+01  0.31529311969E+02  0.25000054177E+00 0.  0.
    1000022    2    1    0    0    0  0.51423193837E+02  0.30136243165E+02 -0.15928384754E+02  0.62499988760E+02  0.99998568837E+01 0.  0.
    3000022    2    5    5    0    0  0.46615349219E+02  0.28751420716E+02 -0.12020394261E+02  0.56073053816E+02  0.25002008414E+00 0.  0.
        -13    1    4    4    0    0 -0.11509858814E+02 -0.45951226160E+01  0.41718413903E+01  0.13076975467E+02  0.10500000000E+00 0.  1.
         13    1    4    4    0    0 -0.16306790911E+02 -0.64393773449E+01  0.57533196491E+01  0.18452336502E+02  0.10500000000E+00 0. -1.
    3000001    1    5    5    0    0  0.48078446173E+01  0.13848224488E+01 -0.39079904935E+01  0.64269349441E+01  0.10000000000E+01 0.  1.
        -13    1    6    6    0    0  0.15916097808E+02  0.97525048890E+01 -0.41024502028E+01  0.19112159577E+02  0.10500000000E+00 0. -1.
         13    1    6    6    0    0  0.30699251412E+02  0.18998915827E+02 -0.79179440578E+01  0.36960894239E+02  0.10500000000E+00 0.  1.
</event>
<event>
11    0  0.3443539E-009  0.9118800E+02  0.7816531E-02  0.1126479E+00
         25   -1    0    0    0    0  0.00000000000E+00  0.00000000000E+00  0.99999998245E-14  0.12500000000E+03  0.12500000000E+03 0.  0.
    3000001    1    3    3    0    0  0.46521648074E+01 -0.63667138442E+00  0.20243072181E+01  0.52101638708E+01  0.10000000000E+01 0.  1.
    1000022    2    1    0    0    0  0.60402312833E+02  0.12517933946E+02  0.10545978127E+01  0.62500001724E+02  0.99999986558E+01 0.  0.
    3000022    2    3    3    0    0  0.55750148026E+02  0.13154605330E+02 -0.96970940542E+00  0.57289837854E+02  0.25007730181E+00 0.  0.
    1000022    2    1    0    0    0 -0.60402312833E+02 -0.12517933946E+02 -0.10545978127E+01  0.62499998276E+02  0.99999771011E+01 0.  0.
    3000022    2    5    5    0    0 -0.15934506076E+02 -0.32903141566E+00 -0.34875992432E+01  0.16316942090E+02  0.25001024922E+00 0.  0.
        -13    1    4    4    0    0  0.34076297043E+02  0.80595246749E+01 -0.65189766509E+00  0.35022649153E+02  0.10500000000E+00 0.  1.
         13    1    4    4    0    0  0.21673850983E+02  0.50950806553E+01 -0.31781174033E+00  0.22267188701E+02  0.10500000000E+00 0. -1.
    3000001    1    5    5    0    0 -0.44467806757E+02 -0.12188902530E+02  0.24330014305E+01  0.46183056185E+02  0.10000000000E+01 0.  1.
        -13    1    6    6    0    0 -0.53746597073E+01 -0.86478589018E-01 -0.11268012819E+01  0.54931913897E+01  0.10500000000E+00 0.  1.
         13    1    6    6    0    0 -0.10559846369E+02 -0.24255282664E+00 -0.23607979614E+01  0.10823750701E+02  0.10500000000E+00 0. -1.
</event>
<event>
11    0  0.3443539E-009  0.9118800E+02  0.7816531E-02  0.1126479E+00
         25   -1    0    0    0    0  0.00000000000E+00  0.00000000000E+00  0.99999998245E-14  0.12500000000E+03  0.12500000000E+03 0.  0.
    3000001    1    3    3    0    0 -0.33786817248E+02 -0.10188194230E+02 -0.21940581750E+01  0.35371771410E+02  0.10000000000E+01 0.  1.
    1000022    2    1    0    0    0 -0.56667637948E+02 -0.21720009274E+02 -0.11102684616E+02  0.62500001011E+02  0.10000026362E+02 0.  0.
    3000022    2    3    3    0    0 -0.22880820700E+02 -0.11531815044E+02 -0.89086264410E+01  0.27128229601E+02  0.25000420479E+00 0.  0.
    1000022    2    1    0    0    0  0.56667637948E+02  0.21720009274E+02  0.11102684616E+02  0.62499998989E+02  0.10000013724E+02 0.  0.
    3000022    2    5    5    0    0  0.10587633054E+02  0.20438803556E+01 -0.13248270148E+01  0.10867064291E+02  0.24999816426E+00 0.  0.
        -13    1    4    4    0    0 -0.11054874230E+02 -0.56091989182E+01 -0.43723488882E+01  0.13145410474E+02  0.10500000000E+00 0. -1.
         13    1    4    4    0    0 -0.11825946470E+02 -0.59226161256E+01 -0.45362775528E+01  0.13982819127E+02  0.10500000000E+00 0.  1.
    3000001    1    5    5    0    0  0.46080004894E+02  0.19676128918E+02  0.12427511631E+02  0.51632934698E+02  0.10000000000E+01 0.  1.
        -13    1    6    6    0    0  0.25615492968E+01  0.49020184578E+00 -0.34124862701E+00  0.26323579307E+01  0.10500000000E+00 0.  1.
         13    1    6    6    0    0  0.80260837574E+01  0.15536785098E+01 -0.98357838784E+00  0.82347063601E+01  0.10500000000E+00 0. -1.
</event>
<event>
11    0  0.3443539E-009  0.9118800E+02  0.7816531E-02  0.1126479E+00
         25   -1    0    0    0    0  0.00000000000E+00  0.00000000000E+00  0.99999998245E-14  0.12500000000E+03  0.12500000000E+03 0.  0.
    3000001    1    3    3    0    0 -0.19620667018E+02  0.20778753198E+02  0.49944469083E+01  0.29028807392E+02  0.10000000000E+01 0. -1.
    1000022    2    1    0    0    0 -0.46188434859E+02  0.40865901913E+02  0.16901407961E+01  0.62500000516E+02  0.10000001734E+02 0.  0.
    3000022    2    3    3    0    0 -0.26567767841E+02  0.20087148715E+02 -0.33043061122E+01  0.33471193124E+02  0.24999736358E+00 0.  0.
    1000022    2    1    0    0    0  0.46188434859E+02 -0.40865901913E+02 -0.16901407961E+01  0.62499999484E+02  0.99999952802E+01 0.  0.
    3000022    2    5    5    0    0  0.22563048271E+02 -0.24781010548E+02 -0.42670128613E+01  0.33785492848E+02  0.24999437043E+00 0.  0.
        -13    1    4    4    0    0 -0.78791841061E+01  0.59013457972E+01 -0.97724443891E+00  0.98931014394E+01  0.10500000000E+00 0.  1.
         13    1    4    4    0    0 -0.18688583735E+02  0.14185802918E+02 -0.23270616732E+01  0.23578091685E+02  0.10500000000E+00 0. -1.
    3000001    1    5    5    0    0  0.23625386588E+02 -0.16084891366E+02  0.25768720652E+01  0.28714506635E+02  0.10000000000E+01 0. -1.
        -13    1    6    6    0    0  0.16530426729E+02 -0.18104523752E+02 -0.31124301166E+01  0.24712892068E+02  0.10500000000E+00 0. -1.
         13    1    6    6    0    0  0.60326215424E+01 -0.66764867959E+01 -0.11545827447E+01  0.90726007806E+01  0.10500000000E+00 0.  1.
</event>
<event>
11    0  0.3443539E-009  0.9118800E+02  0.7816531E-02  0.1126479E+00
         25   -1    0    0    0    0  0.00000000000E+00  0.00000000000E+00  0.99999998245E-14  0.12500000000E+03  0.12500000000E+03 0.  0.
    3000001    1    3    3    0    0  0.57504746564E+00 -0.31472584314E+01  0.37350298487E+01  0.50186017168E+01  0.10000000000E+01 0. -1.
    1000022    2    1    0    0    0  0.25622276467E+02 -0.50907914155E+02  0.23624842822E+02  0.62499999376E+02  0.99999974351E+01 0.  0.
    3000022    2    3    3    0    0  0.25047229001E+02 -0.47760655724E+02  0.19889812973E+02  0.57481397659E+02  0.25000194377E+00 0.  0.
    1000022    2    1    0    0    0 -0.25622276467E+02  0.50907914155E+02 -0.23624842822E+02  0.62500000624E+02  0.10000005231E+02 0.  0.
    3000022    2    5    5    0    0 -0.54855456769E+01  0.39656354049E+01 -0.28601696471E+01  0.73525880531E+01  0.25001025933E+00 0.  0.
        -13    1    4    4    0    0  0.12214090627E+02 -0.23149481067E+02  0.96341117032E+01  0.27891031118E+02  0.10500000000E+00 0. -1.
         13    1    4    4    0    0  0.12833138374E+02 -0.24611174656E+02  0.10255701270E+02  0.29590366541E+02  0.10500000000E+00 0.  1.
    3000001    1    5    5    0    0 -0.20136730790E+02  0.46942278750E+02 -0.20764673175E+02  0.55147412571E+02  0.10000000000E+01 0. -1.
        -13    1    6    6    0    0 -0.40297373845E+01  0.29137853140E+01 -0.20633091866E+01  0.53849046458E+01  0.10500000000E+00 0. -1.
         13    1    6    6    0    0 -0.14558082924E+01  0.10518500909E+01 -0.79686046044E+00  0.19676834073E+01  0.10500000000E+00 0.  1.
</event>
<event>
11    0  0.3443539E-009  0.9118800E+02  0.7816531E-02  0.1126479E+00
         25   -1    0    0    0    0  0.00000000000E+00  0.00000000000E+00  0.99999998245E-14  0.12500000000E+03  0.12500000000E+03 0.  0.
    3000001    1    3    3    0    0 -0.31267232043E+02 -0.97608361788E+01  0.45491514343E+01  0.33084868162E+02  0.10000000000E+01 0.  1.
    1000022    2    1    0    0    0 -0.59897629064E+02 -0.95424385198E+01  0.11290085890E+02  0.62500000767E+02  0.99999978008E+01 0.  0.
    3000022    2    3    3    0    0 -0.28630397021E+02  0.21839765895E+00  0.67409344562E+01  0.29415132604E+02  0.24999534463E+00 0.  0.
    1000022    2    1    0    0    0  0.59897629064E+02  0.95424385198E+01 -0.11290085890E+02  0.62499999233E+02  0.99999882177E+01 0.  0.
    3000022    2    5    5    0    0  0.54257588109E+02  0.66530411283E+01 -0.12230224533E+02  0.56015977339E+02  0.25000290277E+00 0.  0.
        -13    1    4    4    0    0 -0.19261589551E+02  0.15929083453E+00  0.45872076389E+01  0.19801204623E+02  0.10500000000E+00 0. -1.
         13    1    4    4    0    0 -0.93688074699E+01  0.59106824422E-01  0.21537268173E+01  0.96139279812E+01  0.10500000000E+00 0.  1.
    3000001    1    5    5    0    0  0.56400409546E+01  0.28893973915E+01  0.94013864217E+00  0.64840218940E+01  0.10000000000E+01 0. -1.
        -13    1    6    6    0    0  0.18861789722E+02  0.22930833351E+01 -0.41972652836E+01  0.19459018566E+02  0.10500000000E+00 0.  1.
         13    1    6    6    0    0  0.35395798387E+02  0.43599577932E+01 -0.80329592490E+01  0.36556958773E+02  0.10500000000E+00 0. -1.
</event>
<event>
11    0  0.3443539E-009  0.9118800E+02  0.7816531E-02  0.1126479E+00
         25   -1    0    0    0    0  0.00000000000E+00  0.00000000000E+00  0.99999998245E-14  0.12500000000E+03  0.12500000000E+03 0.  0.
    3000001    1    3    3    0    0  0.54958211218E+02  0.12071267638E+02 -0.22659473092E+02  0.60667719617E+02  0.10000000000E+01 0.  1.
    1000022    2    1    0    0    0  0.55308885759E+02  0.13434880857E+02 -0.23805048474E+02  0.62500005043E+02  0.10000071498E+02 0.  0.
    3000022    2    3    3    0    0  0.35067454080E+00  0.13636132186E+01 -0.11455753814E+01  0.18322854259E+01  0.25002656604E+00 0.  0.
    1000022    2    1    0    0    0 -0.55308885759E+02 -0.13434880857E+02  0.23805048474E+02  0.62499994957E+02  0.10000008461E+02 0.  0.
    3000022    2    5    5    0    0 -0.17673392217E+02 -0.89572201850E+01  0.95269403869E+01  0.21986488693E+02  0.25001202710E+00 0.  0.
        -13    1    4    4    0    0  0.21128602649E+00  0.98570820274E+00 -0.79791463440E+00  0.12899438785E+01  0.10500000000E+00 0. -1.
         13    1    4    4    0    0  0.13938851431E+00  0.37790501589E+00 -0.34766074701E+00  0.54234154734E+00  0.10500000000E+00 0.  1.
    3000001    1    5    5    0    0 -0.37635493542E+02 -0.44776606718E+01  0.14278108087E+02  0.40513506264E+02  0.10000000000E+01 0. -1.
        -13    1    6    6    0    0 -0.61921955206E+01 -0.30761201606E+01  0.33355655778E+01  0.76774229616E+01  0.10500000000E+00 0.  1.
         13    1    6    6    0    0 -0.11481196697E+02 -0.58811000245E+01  0.61913748092E+01  0.14309065732E+02  0.10500000000E+00 0. -1.
</event>
<event>
11    0  0.3443539E-009  0.9118800E+02  0.7816531E-02  0.1126479E+00
         25   -1    0    0    0    0  0.00000000000E+00  0.00000000000E+00  0.99999998245E-14  0.12500000000E+03  0.12500000000E+03 0.  0.
    3000001    1    3    3    0    0 -0.16804827917E+00  0.92004907470E+01 -0.60626854181E+00  0.92760353467E+01  0.10000000000E+01 0.  1.
    1000022    2    1    0    0    0  0.16686652440E+02  0.56658053276E+02 -0.17823317565E+02  0.62500000358E+02  0.10000001255E+02 0.  0.
    3000022    2    3    3    0    0  0.16854700720E+02  0.47457562529E+02 -0.17217049023E+02  0.53223965012E+02  0.24999393533E+00 0.  0.
    1000022    2    1    0    0    0 -0.16686652440E+02 -0.56658053276E+02  0.17823317565E+02  0.62499999642E+02  0.99999967762E+01 0.  0.
    3000022    2    5    5    0    0 -0.60338083208E+01 -0.34766597776E+02  0.77184609197E+01  0.36121465953E+02  0.24999973331E+00 0.  0.
        -13    1    4    4    0    0  0.89455095964E+01  0.25072669864E+02 -0.91592409952E+01  0.28152506757E+02  0.10500000000E+00 0. -1.
         13    1    4    4    0    0  0.79091911232E+01  0.22384892664E+02 -0.80578080278E+01  0.25071458255E+02  0.10500000000E+00 0.  1.
    3000001    1    5    5    0    0 -0.10652844120E+02 -0.21891455500E+02  0.10104856645E+02  0.26378533688E+02  0.10000000000E+01 0.  1.
        -13    1    6    6    0    0 -0.38370949158E+01 -0.21776167894E+02  0.48558713000E+01  0.22638800688E+02  0.10500000000E+00 0.  1.
         13    1    6    6    0    0 -0.21967134051E+01 -0.12990429883E+02  0.28625896197E+01  0.13482665265E+02  0.10500000000E+00 0. -1.
</event>
<event>
11    0  0.3443539E-009  0.9118800E+02  0.7816531E-02  0.1126479E+00
         25   -1    0    0    0    0  0.00000000000E+00  0.00000000000E+00  0.99999998245E-14  0.12500000000E+03  0.12500000000E+03 0.  0.
    3000001    1    3    3    0    0 -0.13290350639E+02 -0.30908865675E+02 -0.16906728301E+02  0.37667344733E+02  0.10000000000E+01 0. -1.
    1000022    2    1    0    0    0 -0.14165439591E+02 -0.52690099760E+02 -0.28798326142E+02  0.62499995379E+02  0.99999771138E+01 0.  0.
    3000022    2    3    3    0    0 -0.87508895129E+00 -0.21781234085E+02 -0.11891597841E+02  0.24832650646E+02  0.24999985186E+00 0.  0.
    1000022    2    1    0    0    0  0.14165439591E+02  0.52690099760E+02  0.28798326142E+02  0.62500004621E+02  0.10000034873E+02 0.  0.
    3000022    2    5    5    0    0  0.31225282844E+01  0.25734372428E+02  0.17300843514E+02  0.31167126794E+02  0.24999827830E+00 0.  0.
        -13    1    4    4    0    0 -0.46079194043E+00 -0.12297412759E+02 -0.66482342116E+01  0.13987449121E+02  0.10500000000E+00 0.  1.
         13    1    4    4    0    0 -0.41429701086E+00 -0.94838213263E+01 -0.52433636296E+01  0.10845201525E+02  0.10500000000E+00 0. -1.
    3000001    1    5    5    0    0  0.11042911306E+02  0.26955727333E+02  0.11497482628E+02  0.31332877827E+02  0.10000000000E+01 0.  1.
        -13    1    6    6    0    0  0.90826450708E+00  0.77863833725E+01  0.52670216536E+01  0.94448532300E+01  0.10500000000E+00 0. -1.
         13    1    6    6    0    0  0.22142637774E+01  0.17947989055E+02  0.12033821860E+02  0.21722273564E+02  0.10500000000E+00 0.  1.
</event>
<event>
11    0  0.3443539E-009  0.9118800E+02  0.7816531E-02  0.1126479E+00
         25   -1    0    0    0    0  0.00000000000E+00  0.00000000000E+00  0.99999998245E-14  0.12500000000E+03  0.12500000000E+03 0.  0.
    3000001    1    3    3    0    0  0.16291481836E+02 -0.30695912670E+02 -0.45558465346E+02  0.57308159975E+02  0.10000000000E+01 0.  1.
    1000022    2    1    0    0    0  0.15764988844E+02 -0.31491352634E+02 -0.50655796699E+02  0.62500000248E+02  0.10000006391E+02 0.  0.
    3000022    2    3    3    0    0 -0.52649299178E+00 -0.79543996405E+00 -0.50973313529E+01  0.51918402727E+01  0.24999777957E+00 0.  0.
    1000022    2    1    0    0    0 -0.15764988844E+02  0.31491352634E+02  0.50655796699E+02  0.62499999752E+02  0.10000003289E+02 0.  0.
    3000022    2    5    5    0    0 -0.16323894124E+02  0.24424838187E+02  0.42225910383E+02  0.51440570071E+02  0.25000363389E+00 0.  0.
        -13    1    4    4    0    0 -0.37053729196E+00 -0.48481622887E+00 -0.34293579844E+01  0.34848049939E+01  0.10500000000E+00 0.  1.
         13    1    4    4    0    0 -0.15595569982E+00 -0.31062373518E+00 -0.16679733685E+01  0.17070352788E+01  0.10500000000E+00 0. -1.
    3000001    1    5    5    0    0  0.55890527972E+00  0.70665144479E+01  0.84298863161E+01  0.11059429680E+02  0.10000000000E+01 0. -1.
        -13    1    6    6    0    0 -0.85624099222E+01  0.12690498597E+02  0.21992530748E+02  0.26796381323E+02  0.10500000000E+00 0.  1.
         13    1    6    6    0    0 -0.77614842020E+01  0.11734339590E+02  0.20233379635E+02  0.24644188749E+02  0.10500000000E+00 0. -1.
</event>
<event>
11    0  0.3443539E-009  0.9118800E+02  0.7816531E-02  0.1126479E+00
         25   -1    0    0    0    0  0.00000000000E+00  0.00000000000E+00  0.99999998245E-14  0.12500000000E+03  0.12500000000E+03 0.  0.
    3000001    1    3    3    0    0 -0.41119463774E+02 -0.39405224092E+02 -0.20471743268E+02  0.60528293047E+02  0.10000000000E+01 0. -1.
    1000022    2    1    0    0    0 -0.40854700901E+02 -0.41327458030E+02 -0.20716763642E+02  0.62499997370E+02  0.10000000126E+02 0.  0.
    3000022    2    3    3    0    0  0.26476287350E+00 -0.19222339374E+01 -0.24502037456E+00  0.19717043221E+01  0.25000052108E+00 0.  0.
    1000022    2    1    0    0    0  0.40854700901E+02  0.41327458030E+02  0.20716763642E+02  0.62500002630E+02  0.10000033007E+02 0.  0.
    3000022    2    5    5    0    0  0.21142900810E+01 -0.11949362648E+00  0.12151622069E+00  0.21358290802E+01  0.24999678967E+00 0.  0.
        -13    1    4    4    0    0  0.15213943865E+00 -0.74355227778E+00 -0.13423600769E+00  0.77785648055E+00  0.10500000000E+00 0. -1.
         13    1    4    4    0    0  0.11262343485E+00 -0.11786816596E+01 -0.11078436688E+00  0.11938478415E+01  0.10500000000E+00 0.  1.
    3000001    1    5    5    0    0  0.38740410820E+02  0.41446951656E+02  0.20595247422E+02  0.60364173550E+02  0.10000000000E+01 0. -1.
        -13    1    6    6    0    0  0.13997720624E+01 -0.30875247575E-01  0.10628177671E+00  0.14080610512E+01  0.10500000000E+00 0.  1.
         13    1    6    6    0    0  0.71451801853E+00 -0.88618378900E-01  0.15234443980E-01  0.72776802910E+00  0.10500000000E+00 0. -1.
</event>
<event>
11    0  0.3443539E-009  0.9118800E+02  0.7816531E-02  0.1126479E+00
         25   -1    0    0    0    0  0.00000000000E+00  0.00000000000E+00  0.99999998245E-14  0.12500000000E+03  0.12500000000E+03 0.  0.
    3000001    1    3    3    0    0 -0.15449360264E+01 -0.88377398880E+00 -0.71416561132E+00  0.21628491185E+01  0.10000000000E+01 0. -1.
    1000022    2    1    0    0    0 -0.61088937588E+02  0.57351562879E+01  0.64419905578E+01  0.62499997132E+02  0.10000004294E+02 0.  0.
    3000022    2    3    3    0    0 -0.59544001562E+02  0.66189302767E+01  0.71561561691E+01  0.60337148014E+02  0.24999861275E+00 0.  0.
    1000022    2    1    0    0    0  0.61088937588E+02 -0.57351562879E+01 -0.64419905578E+01  0.62500002868E+02  0.10000040139E+02 0.  0.
    3000022    2    5    5    0    0  0.42284040344E+02 -0.20844763135E+01 -0.22866770109E+00  0.42336744064E+02  0.24999947765E+00 0.  0.
        -13    1    4    4    0    0 -0.26921328361E+02  0.29254877095E+01  0.32315853172E+01  0.27272157372E+02  0.10500000000E+00 0.  1.
         13    1    4    4    0    0 -0.32622673201E+02  0.36934425673E+01  0.39245708519E+01  0.33064990642E+02  0.10500000000E+00 0. -1.
    3000001    1    5    5    0    0  0.18804897244E+02 -0.36506799744E+01 -0.62133228567E+01  0.20163258803E+02  0.10000000000E+01 0. -1.
        -13    1    6    6    0    0  0.21726445277E+02 -0.10057417001E+01 -0.99215178491E-01  0.21750191020E+02  0.10500000000E+00 0. -1.
         13    1    6    6    0    0  0.20557595066E+02 -0.10787346134E+01 -0.12945252260E+00  0.20586553044E+02  0.10500000000E+00 0.  1.
</event>
<event>
11    0  0.3443539E-009  0.9118800E+02  0.7816531E-02  0.1126479E+00
         25   -1    0    0    0    0  0.00000000000E+00  0.00000000000E+00  0.99999998245E-14  0.12500000000E+03  0.12500000000E+03 0.  0.
    3000001    1    3    3    0    0 -0.27866946144E+02 -0.11773027954E+02  0.41270279754E+02  0.51180141320E+02  0.10000000000E+01 0. -1.
    1000022    2    1    0    0    0 -0.31715921681E+02 -0.10593433181E+02  0.51847173198E+02  0.62500001402E+02  0.10000014597E+02 0.  0.
    3000022    2    3    3    0    0 -0.38489755378E+01  0.11795947730E+01  0.10576893444E+02  0.11319860082E+02  0.25000164945E+00 0.  0.
    1000022    2    1    0    0    0  0.31715921681E+02  0.10593433181E+02 -0.51847173198E+02  0.62499998598E+02  0.99999970742E+01 0.  0.
    3000022    2    5    5    0    0  0.28625334466E+02  0.77050609745E+01 -0.39341799252E+02  0.49260708555E+02  0.25000191778E+00 0.  0.
        -13    1    4    4    0    0 -0.12236818859E+01  0.34874534659E+00  0.32288116753E+01  0.34720700612E+01  0.10500000000E+00 0.  1.
         13    1    4    4    0    0 -0.26252936518E+01  0.83084942640E+00  0.73480817686E+01  0.78477900205E+01  0.10500000000E+00 0. -1.
    3000001    1    5    5    0    0  0.30905872152E+01  0.28883722062E+01 -0.12505373946E+02  0.13239290044E+02  0.10000000000E+01 0.  1.
        -13    1    6    6    0    0  0.17777767852E+02  0.47964442120E+01 -0.24535983716E+02  0.30677034224E+02  0.10500000000E+00 0. -1.
         13    1    6    6    0    0  0.10847566614E+02  0.29086167626E+01 -0.14805815536E+02  0.18583674331E+02  0.10500000000E+00 0.  1.
</event>
<event>
11    0  0.3443539E-009  0.9118800E+02  0.7816531E-02  0.1126479E+00
         25   -1    0    0    0    0  0.00000000000E+00  0.00000000000E+00  0.99999998245E-14  0.12500000000E+03  0.12500000000E+03 0.  0.
    3000001    1    3    3    0    0  0.10629733649E+02 -0.53404768388E+02  0.19471614032E+02  0.57837740940E+02  0.10000000000E+01 0. -1.
    1000022    2    1    0    0    0  0.12137850305E+02 -0.57652373199E+02  0.18306457422E+02  0.62499999244E+02  0.99999988307E+01 0.  0.
    3000022    2    3    3    0    0  0.15081166556E+01 -0.42476048108E+01 -0.11651566097E+01  0.46622583036E+01  0.25000017700E+00 0.  0.
    1000022    2    1    0    0    0 -0.12137850305E+02  0.57652373199E+02 -0.18306457422E+02  0.62500000756E+02  0.10000008286E+02 0.  0.
    3000022    2    5    5    0    0 -0.98484094651E+01  0.55761254521E+02 -0.17413991792E+02  0.59242031433E+02  0.25000682996E+00 0.  0.
        -13    1    4    4    0    0  0.70925458277E+00 -0.18019281660E+01 -0.50217162606E+00  0.20032944169E+01  0.10500000000E+00 0.  1.
         13    1    4    4    0    0  0.79886207287E+00 -0.24456766448E+01 -0.66298498365E+00  0.26589638867E+01  0.10500000000E+00 0. -1.
    3000001    1    5    5    0    0 -0.22894408397E+01  0.18911186778E+01 -0.89246562979E+00  0.32579693235E+01  0.10000000000E+01 0.  1.
        -13    1    6    6    0    0 -0.50477826934E+01  0.28486720707E+02 -0.88283254183E+01  0.30247706053E+02  0.10500000000E+00 0.  1.
         13    1    6    6    0    0 -0.48006267717E+01  0.27274533814E+02 -0.85856663740E+01  0.28994325380E+02  0.10500000000E+00 0. -1.
</event>
<event>
11    0  0.3443539E-009  0.9118800E+02  0.7816531E-02  0.1126479E+00
         25   -1    0    0    0    0  0.00000000000E+00  0.00000000000E+00  0.99999998245E-14  0.12500000000E+03  0.12500000000E+03 0.  0.
    3000001    1    3    3    0    0 -0.25440618202E+02  0.30559040153E+02 -0.34635910303E+02  0.52742073074E+02  0.10000000000E+01 0.  1.
    1000022    2    1    0    0    0 -0.32342808916E+02  0.36855176859E+02 -0.37441798306E+02  0.62499997093E+02  0.10000001319E+02 0.  0.
    3000022    2    3    3    0    0 -0.69021907134E+01  0.62961367054E+01 -0.28058880025E+01  0.97579240188E+01  0.24999923431E+00 0.  0.
    1000022    2    1    0    0    0  0.32342808916E+02 -0.36855176859E+02  0.37441798306E+02  0.62500002907E+02  0.10000037660E+02 0.  0.
    3000022    2    5    5    0    0  0.27061913935E+02 -0.33462363309E+02  0.28846254793E+02  0.51809708062E+02  0.24997988249E+00 0.  0.
        -13    1    4    4    0    0 -0.35760771463E+01  0.31719623471E+01 -0.14223169362E+01  0.49883547744E+01  0.10500000000E+00 0. -1.
         13    1    4    4    0    0 -0.33261135671E+01  0.31241743582E+01 -0.13835710663E+01  0.47695692444E+01  0.10500000000E+00 0.  1.
    3000001    1    5    5    0    0  0.52808949812E+01 -0.33928135500E+01  0.85955435127E+01  0.10690294845E+02  0.10000000000E+01 0. -1.
        -13    1    6    6    0    0  0.14024048138E+02 -0.17233385794E+02  0.14896607402E+02  0.26750391571E+02  0.10500000000E+00 0. -1.
         13    1    6    6    0    0  0.13037865797E+02 -0.16228977515E+02  0.13949647391E+02  0.25059316492E+02  0.10500000000E+00 0.  1.
</event>
<event>
11    0  0.3443539E-009  0.9118800E+02  0.7816531E-02  0.1126479E+00
         25   -1    0    0    0    0  0.00000000000E+00  0.00000000000E+00  0.99999998245E-14  0.12500000000E+03  0.12500000000E+03 0.  0.
    3000001    1    3    3    0    0 -0.11832632214E+02  0.55264888527E+02 -0.72854106658E+01  0.56993826837E+02  0.10000000000E+01 0.  1.
    1000022    2    1    0    0    0 -0.11085952524E+02  0.60435123273E+02 -0.55630373514E+01  0.62499998389E+02  0.99999972863E+01 0.  0.
    3000022    2    3    3    0    0  0.74667968926E+00  0.51702347462E+01  0.17223733143E+01  0.55061715523E+01  0.24999488133E+00 0.  0.
    1000022    2    1    0    0    0  0.11085952524E+02 -0.60435123273E+02  0.55630373514E+01  0.62500001611E+02  0.10000017420E+02 0.  0.
    3000022    2    5    5    0    0  0.45889649365E+01 -0.22604418584E+02  0.69074534214E+01  0.24078906890E+02  0.25001108213E+00 0.  0.
        -13    1    4    4    0    0  0.28039991288E+00  0.24114759659E+01  0.80357199836E+00  0.25594127064E+01  0.10500000000E+00 0. -1.
         13    1    4    4    0    0  0.46627977638E+00  0.27587587803E+01  0.91880131595E+00  0.29467588459E+01  0.10500000000E+00 0.  1.
    3000001    1    5    5    0    0  0.64969875878E+01 -0.37830704688E+02 -0.13444160700E+01  0.38421094720E+02  0.10000000000E+01 0.  1.
        -13    1    6    6    0    0  0.21989032887E+01 -0.11006770817E+02  0.33007117171E+01  0.11699995826E+02  0.10500000000E+00 0.  1.
         13    1    6    6    0    0  0.23900616479E+01 -0.11597647767E+02  0.36067417043E+01  0.12378911064E+02  0.10500000000E+00 0. -1.
</event>
<event>
11    0  0.3443539E-009  0.9118800E+02  0.7816531E-02  0.1126479E+00
         25   -1    0    0    0    0  0.00000000000E+00  0.00000000000E+00  0.99999998245E-14  0.12500000000E+03  0.12500000000E+03 0.  0.
    3000001    1    3    3    0    0 -0.33536911984E+01 -0.10176792785E+01 -0.60017551527E+00  0.36936603008E+01  0.10000000000E+01 0.  1.
    1000022    2    1    0    0    0 -0.54874037434E+02  0.16895715667E+02 -0.22574871744E+02  0.62499999569E+02  0.99999959851E+01 0.  0.
    3000022    2    3    3    0    0 -0.51520346235E+02  0.17913394945E+02 -0.21974696229E+02  0.58806339268E+02  0.24993823352E+00 0.  0.
    1000022    2    1    0    0    0  0.54874037434E+02 -0.16895715667E+02  0.22574871744E+02  0.62500000431E+02  0.10000001375E+02 0.  0.
    3000022    2    5    5    0    0  0.68423793832E+01  0.10660022459E+01  0.36331522673E+01  0.78241170624E+01  0.24999199137E+00 0.  0.
        -13    1    4    4    0    0 -0.38013167211E+02  0.13239913098E+02 -0.16190355634E+02  0.43387035170E+02  0.10500000000E+00 0.  1.
         13    1    4    4    0    0 -0.13507179024E+02  0.46734818472E+01 -0.57843405943E+01  0.15419304098E+02  0.10500000000E+00 0. -1.
    3000001    1    5    5    0    0  0.48031658050E+02 -0.17961717913E+02  0.18941719476E+02  0.54675883369E+02  0.10000000000E+01 0.  1.
        -13    1    6    6    0    0  0.36218803573E+01  0.51482824886E+00  0.18665000285E+01  0.41082737014E+01  0.10500000000E+00 0.  1.
         13    1    6    6    0    0  0.32204990259E+01  0.55117399706E+00  0.17666522388E+01  0.37158433610E+01  0.10500000000E+00 0. -1.
</event>
<event>
11    0  0.3443539E-009  0.9118800E+02  0.7816531E-02  0.1126479E+00
         25   -1    0    0    0    0  0.00000000000E+00  0.00000000000E+00  0.99999998245E-14  0.12500000000E+03  0.12500000000E+03 0.  0.
    3000001    1    3    3    0    0 -0.60717913877E+00 -0.17324155444E+02  0.35543360731E+01  0.17723665910E+02  0.10000000000E+01 0.  1.
    1000022    2    1    0    0    0  0.10336736805E+02 -0.57081222601E+02  0.21003230883E+02  0.62500000219E+02  0.10000010922E+02 0.  0.
    3000022    2    3    3    0    0  0.10943915944E+02 -0.39757067157E+02  0.17448894810E+02  0.44776334309E+02  0.24999795269E+00 0.  0.
    1000022    2    1    0    0    0 -0.10336736805E+02  0.57081222601E+02 -0.21003230883E+02  0.62499999781E+02  0.10000008181E+02 0.  0.
    3000022    2    5    5    0    0 -0.10929971996E+02  0.56222419373E+02 -0.21130195273E+02  0.61048934333E+02  0.25000581959E+00 0.  0.
        -13    1    4    4    0    0  0.42967249435E+01 -0.15775843911E+02  0.69669724465E+01  0.17773261558E+02  0.10500000000E+00 0.  1.
         13    1    4    4    0    0  0.66471910004E+01 -0.23981223246E+02  0.10481922363E+02  0.27003072751E+02  0.10500000000E+00 0. -1.
    3000001    1    5    5    0    0  0.59323519117E+00  0.85880322827E+00  0.12696439041E+00  0.14510654476E+01  0.10000000000E+01 0. -1.
        -13    1    6    6    0    0 -0.42589644606E+01  0.21617577497E+02 -0.81002597354E+01  0.23475171307E+02  0.10500000000E+00 0.  1.
         13    1    6    6    0    0 -0.66710075358E+01  0.34604841877E+02 -0.13029935538E+02  0.37573763026E+02  0.10500000000E+00 0. -1.
</event>
<event>
11    0  0.3443539E-009  0.9118800E+02  0.7816531E-02  0.1126479E+00
         25   -1    0    0    0    0  0.00000000000E+00  0.00000000000E+00  0.99999998245E-14  0.12500000000E+03  0.12500000000E+03 0.  0.
    3000001    1    3    3    0    0 -0.21658230203E+02 -0.24887166686E+02  0.57425945416E+01  0.33502647556E+02  0.10000000000E+01 0.  1.
    1000022    2    1    0    0    0 -0.38126508227E+02 -0.44448761453E+02  0.19414604334E+02  0.62500001211E+02  0.10000013282E+02 0.  0.
    3000022    2    3    3    0    0 -0.16468278024E+02 -0.19561594767E+02  0.13672009792E+02  0.28997353655E+02  0.24999266870E+00 0.  0.
    1000022    2    1    0    0    0  0.38126508227E+02  0.44448761453E+02 -0.19414604334E+02  0.62499998789E+02  0.99999981472E+01 0.  0.
    3000022    2    5    5    0    0  0.31067277271E+01  0.42868329551E+00 -0.11522286337E+01  0.33504706977E+01  0.24999306787E+00 0.  0.
        -13    1    4    4    0    0 -0.55146256284E+01 -0.65841526780E+01  0.45361808554E+01  0.97133992022E+01  0.10500000000E+00 0.  1.
         13    1    4    4    0    0 -0.10953652396E+02 -0.12977442089E+02  0.91358289368E+01  0.19283954453E+02  0.10500000000E+00 0. -1.
    3000001    1    5    5    0    0  0.35019780500E+02  0.44020078157E+02 -0.18262375700E+02  0.59149528092E+02  0.10000000000E+01 0. -1.
        -13    1    6    6    0    0  0.91444655122E+00  0.93300650834E-01 -0.37050806784E+00  0.99660359964E+00  0.10500000000E+00 0. -1.
         13    1    6    6    0    0  0.21922811759E+01  0.33538264467E+00 -0.78172056582E+00  0.23538670981E+01  0.10500000000E+00 0.  1.
</event>
<event>
11    0  0.3443539E-009  0.9118800E+02  0.7816531E-02  0.1126479E+00
         25   -1    0    0    0    0  0.00000000000E+00  0.00000000000E+00  0.99999998245E-14  0.12500000000E+03  0.12500000000E+03 0.  0.
    3000001    1    3    3    0    0 -0.11175419116E+02  0.15831866190E+02 -0.28847097931E+02  0.34766262935E+02  0.10000000000E+01 0. -1.
    1000022    2    1    0    0    0 -0.13734356934E+02  0.34146968463E+02 -0.49513654617E+02  0.62500000567E+02  0.10000003083E+02 0.  0.
    3000022    2    3    3    0    0 -0.25589378187E+01  0.18315102273E+02 -0.20666556687E+02  0.27733737631E+02  0.25000736904E+00 0.  0.
    1000022    2    1    0    0    0  0.13734356934E+02 -0.34146968463E+02  0.49513654617E+02  0.62499999433E+02  0.99999960005E+01 0.  0.
    3000022    2    5    5    0    0  0.13559719880E+02 -0.31208572437E+02  0.40130292810E+02  0.52615053905E+02  0.24999911356E+00 0.  0.
        -13    1    4    4    0    0 -0.16318085652E+01  0.11371282109E+02 -0.12772652118E+02  0.17179072243E+02  0.10500000000E+00 0.  1.
         13    1    4    4    0    0 -0.92712925352E+00  0.69438201646E+01 -0.78939045683E+01  0.10554665389E+02  0.10500000000E+00 0. -1.
    3000001    1    5    5    0    0  0.17463705385E+00 -0.29383960258E+01  0.93833618069E+01  0.98849455286E+01  0.10000000000E+01 0. -1.
        -13    1    6    6    0    0  0.59081680934E+01 -0.13761198911E+02  0.17680782293E+02  0.23171062409E+02  0.10500000000E+00 0.  1.
         13    1    6    6    0    0  0.76515517870E+01 -0.17447373526E+02  0.22449510518E+02  0.29443991495E+02  0.10500000000E+00 0. -1.
</event>
<event>
11    0  0.3443539E-009  0.9118800E+02  0.7816531E-02  0.1126479E+00
         25   -1    0    0    0    0  0.00000000000E+00  0.00000000000E+00  0.99999998245E-14  0.12500000000E+03  0.12500000000E+03 0.  0.
    3000001    1    3    3    0    0  0.60541039635E+00  0.12943939356E+02 -0.82025541895E+01  0.15368603809E+02  0.10000000000E+01 0.  1.
    1000022    2    1    0    0    0 -0.65825181241E+01  0.42719462631E+02 -0.44022355810E+02  0.62500002923E+02  0.10000026098E+02 0.  0.
    3000022    2    3    3    0    0 -0.71879285204E+01  0.29775523275E+02 -0.35819801620E+02  0.47131399114E+02  0.24998322035E+00 0.  0.
    1000022    2    1    0    0    0  0.65825181241E+01 -0.42719462631E+02  0.44022355810E+02  0.62499997077E+02  0.99999895665E+01 0.  0.
    3000022    2    5    5    0    0  0.21569099749E+01 -0.11162345343E+02  0.59249852952E+01  0.12822564584E+02  0.24999513959E+00 0.  0.
        -13    1    4    4    0    0 -0.53048450735E+01  0.22074649276E+02 -0.26579889846E+02  0.34956159560E+02  0.10500000000E+00 0.  1.
         13    1    4    4    0    0 -0.18830834469E+01  0.77008739987E+01 -0.92399117741E+01  0.12175239554E+02  0.10500000000E+00 0. -1.
    3000001    1    5    5    0    0  0.44256081491E+01 -0.31557117288E+02  0.38097370514E+02  0.49677432493E+02  0.10000000000E+01 0.  1.
        -13    1    6    6    0    0  0.68361125063E+00 -0.36189328165E+01  0.19754299282E+01  0.41805917611E+01  0.10500000000E+00 0.  1.
         13    1    6    6    0    0  0.14732987243E+01 -0.75434125268E+01  0.39495553670E+01  0.86419728232E+01  0.10500000000E+00 0. -1.
</event>
<event>
11    0  0.3443539E-009  0.9118800E+02  0.7816531E-02  0.1126479E+00
         25   -1    0    0    0    0  0.00000000000E+00  0.00000000000E+00  0.99999998245E-14  0.12500000000E+03  0.12500000000E+03 0.  0.
    3000001    1    3    3    0    0  0.18292755540E+01  0.10286079825E+00  0.10938752967E+02  0.11136118977E+02  0.10000000000E+01 0.  1.
    1000022    2    1    0    0    0  0.29456482409E+02 -0.31406610408E+01  0.54117482291E+02  0.62499998786E+02  0.99999925548E+01 0.  0.
    3000022    2    3    3    0    0  0.27627206855E+02 -0.32435218391E+01  0.43178729324E+02  0.51363879809E+02  0.24998102015E+00 0.  0.
    1000022    2    1    0    0    0 -0.29456482409E+02  0.31406610408E+01 -0.54117482291E+02  0.62500001214E+02  0.10000007727E+02 0.  0.
    3000022    2    5    5    0    0 -0.65977678114E+01  0.47997530933E+01 -0.17138588206E+02  0.18983199548E+02  0.24997905165E+00 0.  0.
        -13    1    4    4    0    0  0.15416712356E+02 -0.17439016741E+01  0.24065848367E+02  0.28633761463E+02  0.10500000000E+00 0. -1.
         13    1    4    4    0    0  0.12210494499E+02 -0.14996201650E+01  0.19112880957E+02  0.22730118346E+02  0.10500000000E+00 0.  1.
    3000001    1    5    5    0    0 -0.22858714598E+02 -0.16590920525E+01 -0.36978894085E+02  0.43516801666E+02  0.10000000000E+01 0.  1.
        -13    1    6    6    0    0 -0.19354749385E+01  0.13737429478E+01 -0.49115669458E+01  0.54559827518E+01  0.10500000000E+00 0. -1.
         13    1    6    6    0    0 -0.46622928728E+01  0.34260101455E+01 -0.12227021260E+02  0.13527216796E+02  0.10500000000E+00 0.  1.
</event>
<event>
11    0  0.3443539E-009  0.9118800E+02  0.7816531E-02  0.1126479E+00
         25   -1    0    0    0    0  0.00000000000E+00  0.00000000000E+00  0.99999998245E-14  0.12500000000E+03  0.12500000000E+03 0.  0.
    3000001    1    3    3    0    0 -0.14439523467E+02 -0.74806168425E+01  0.43982289987E+02  0.46903105428E+02  0.10000000000E+01 0. -1.
    1000022    2    1    0    0    0 -0.15354989058E+02 -0.14130258420E+02  0.58058680222E+02  0.62499998532E+02  0.99999787705E+01 0.  0.
    3000022    2    3    3    0    0 -0.91546559058E+00 -0.66496415774E+01  0.14076390235E+02  0.15596893104E+02  0.25000418350E+00 0.  0.
    1000022    2    1    0    0    0  0.15354989058E+02  0.14130258420E+02 -0.58058680222E+02  0.62500001468E+02  0.99999971165E+01 0.  0.
    3000022    2    5    5    0    0  0.13319861868E+02  0.15191747680E+02 -0.54686821138E+02  0.58300247212E+02  0.25000197965E+00 0.  0.
        -13    1    4    4    0    0 -0.48778876819E+00 -0.34866840883E+01  0.72267532513E+01  0.80393962068E+01  0.10500000000E+00 0. -1.
         13    1    4    4    0    0 -0.42767682239E+00 -0.31629574891E+01  0.68496369837E+01  0.75574968972E+01  0.10500000000E+00 0.  1.
    3000001    1    5    5    0    0  0.20351271900E+01 -0.10614892599E+01 -0.33718590839E+01  0.41997542559E+01  0.10000000000E+01 0. -1.
        -13    1    6    6    0    0  0.94668584372E+01  0.10731337687E+02 -0.38732652954E+02  0.41291796366E+02  0.10500000000E+00 0. -1.
         13    1    6    6    0    0  0.38530034304E+01  0.44604099926E+01 -0.15954168184E+02  0.17008450846E+02  0.10500000000E+00 0.  1.
</event>
<event>
11    0  0.3443539E-009  0.9118800E+02  0.7816531E-02  0.1126479E+00
         25   -1    0    0    0    0  0.00000000000E+00  0.00000000000E+00  0.99999998245E-14  0.12500000000E+03  0.12500000000E+03 0.  0.
    3000001    1    3    3    0    0 -0.60956739564E+01 -0.17291031570E+02  0.44144354760E+02  0.47810679465E+02  0.10000000000E+01 0.  1.
    1000022    2    1    0    0    0 -0.12478354128E+02 -0.24527496019E+02  0.55217230966E+02  0.62499999019E+02  0.99999949534E+01 0.  0.
    3000022    2    3    3    0    0 -0.63826801716E+01 -0.72364644486E+01  0.11072876206E+02  0.14689319553E+02  0.24999515590E+00 0.  0.
    1000022    2    1    0    0    0  0.12478354128E+02  0.24527496019E+02 -0.55217230966E+02  0.62500000981E+02  0.10000007221E+02 0.  0.
    3000022    2    5    5    0    0  0.76776974843E+01  0.93741793653E+01 -0.33067380278E+02  0.35218410205E+02  0.25000288904E+00 0.  0.
        -13    1    4    4    0    0 -0.44069778857E+01 -0.50673829779E+01  0.77065952432E+01  0.10222644451E+02  0.10500000000E+00 0.  1.
         13    1    4    4    0    0 -0.19757022859E+01 -0.21690814707E+01  0.33662809626E+01  0.44666751022E+01  0.10500000000E+00 0. -1.
    3000001    1    5    5    0    0  0.48006566437E+01  0.15153316654E+02 -0.22149850688E+02  0.27281590777E+02  0.10000000000E+01 0.  1.
        -13    1    6    6    0    0  0.50508236567E+01  0.62481953796E+01 -0.21971962129E+02  0.23395061656E+02  0.10500000000E+00 0.  1.
         13    1    6    6    0    0  0.26268738276E+01  0.31259839857E+01 -0.11095418150E+02  0.11823348549E+02  0.10500000000E+00 0. -1.
</event>
<event>
11    0  0.3443539E-009  0.9118800E+02  0.7816531E-02  0.1126479E+00
         25   -1    0    0    0    0  0.00000000000E+00  0.00000000000E+00  0.99999998245E-14  0.12500000000E+03  0.12500000000E+03 0.  0.
    3000001    1    3    3    0    0 -0.30528210769E+01  0.69357874338E+01 -0.86451506822E+01  0.11539648789E+02  0.10000000000E+01 0.  1.
    1000022    2    1    0    0    0 -0.33853584532E+02  0.36928436796E+02 -0.36006600225E+02  0.62500000682E+02  0.10000009783E+02 0.  0.
    3000022    2    3    3    0    0 -0.30800763455E+02  0.29992649362E+02 -0.27361449543E+02  0.50960351893E+02  0.24999764009E+00 0.  0.
    1000022    2    1    0    0    0  0.33853584532E+02 -0.36928436796E+02  0.36006600225E+02  0.62499999318E+02  0.10000001257E+02 0.  0.
    3000022    2    5    5    0    0  0.33381038200E+02 -0.32871593342E+02  0.32420359061E+02  0.56973481017E+02  0.24999483866E+00 0.  0.
        -13    1    4    4    0    0 -0.17810982576E+02  0.17390028122E+02 -0.15908726417E+02  0.29542220289E+02  0.10500000000E+00 0.  1.
         13    1    4    4    0    0 -0.12989780879E+02  0.12602621240E+02 -0.11452723126E+02  0.21418131604E+02  0.10500000000E+00 0. -1.
    3000001    1    5    5    0    0  0.47254633218E+00 -0.40568434537E+01  0.35862411642E+01  0.55265183010E+01  0.10000000000E+01 0. -1.
        -13    1    6    6    0    0  0.15335934166E+02 -0.15011438749E+02  0.14873002752E+02  0.26110369701E+02  0.10500000000E+00 0. -1.
         13    1    6    6    0    0  0.18045104034E+02 -0.17860154593E+02  0.17547356309E+02  0.30863111316E+02  0.10500000000E+00 0.  1.
</event>
<event>
11    0  0.3443539E-009  0.9118800E+02  0.7816531E-02  0.1126479E+00
         25   -1    0    0    0    0  0.00000000000E+00  0.00000000000E+00  0.99999998245E-14  0.12500000000E+03  0.12500000000E+03 0.  0.
    3000001    1    3    3    0    0  0.42541030759E+02 -0.42782840890E+01  0.97956864407E+01  0.43874804679E+02  0.10000000000E+01 0.  1.
    1000022    2    1    0    0    0  0.60155493069E+02 -0.10279147466E+02  0.90501776210E+01  0.62500000683E+02  0.10000007565E+02 0.  0.
    3000022    2    3    3    0    0  0.17614462310E+02 -0.60008633772E+01 -0.74550881972E+00  0.18625196004E+02  0.24999802284E+00 0.  0.
    1000022    2    1    0    0    0 -0.60155493069E+02  0.10279147466E+02 -0.90501776210E+01  0.62499999317E+02  0.99999990327E+01 0.  0.
    3000022    2    5    5    0    0 -0.15138028972E+02  0.67968646315E+01 -0.10065012577E+01  0.16626269396E+02  0.24999851639E+00 0.  0.
        -13    1    4    4    0    0  0.84488415224E+01 -0.29496290413E+01 -0.35372952991E+00  0.89565274595E+01  0.10500000000E+00 0.  1.
         13    1    4    4    0    0  0.91656207880E+01 -0.30512343359E+01 -0.39177928981E+00  0.96686685441E+01  0.10500000000E+00 0. -1.
    3000001    1    5    5    0    0 -0.45017464097E+02  0.34822828346E+01 -0.80436763633E+01  0.45873729922E+02  0.10000000000E+01 0.  1.
        -13    1    6    6    0    0 -0.77770349034E+01  0.34930629523E+01 -0.44925934861E+00  0.85379517239E+01  0.10500000000E+00 0. -1.
         13    1    6    6    0    0 -0.73609940688E+01  0.33038016792E+01 -0.55724190909E+00  0.80883176719E+01  0.10500000000E+00 0.  1.
</event>
<event>
11    0  0.3443539E-009  0.9118800E+02  0.7816531E-02  0.1126479E+00
         25   -1    0    0    0    0  0.00000000000E+00  0.00000000000E+00  0.99999998245E-14  0.12500000000E+03  0.12500000000E+03 0.  0.
    3000001    1    3    3    0    0  0.32486823749E+02  0.18575159969E+02  0.27139756582E+01  0.37533930637E+02  0.10000000000E+01 0.  1.
    1000022    2    1    0    0    0  0.50654868586E+02  0.35189565465E+02 -0.14243588518E+01  0.62500000314E+02  0.10000000605E+02 0.  0.
    3000022    2    3    3    0    0  0.18168044837E+02  0.16614405496E+02 -0.41383345100E+01  0.24966069678E+02  0.24999891815E+00 0.  0.
    1000022    2    1    0    0    0 -0.50654868586E+02 -0.35189565465E+02  0.14243588518E+01  0.62499999686E+02  0.99999966771E+01 0.  0.
    3000022    2    5    5    0    0 -0.97974769189E+01 -0.27377896319E+01 -0.12061685606E+01  0.10247115718E+02  0.24998377417E+00 0.  0.
        -13    1    4    4    0    0  0.78746852680E+01  0.72648791959E+01 -0.17540944774E+01  0.10857117953E+02  0.10500000000E+00 0. -1.
         13    1    4    4    0    0  0.10293359569E+02  0.93495262999E+01 -0.23842400327E+01  0.14108951725E+02  0.10500000000E+00 0. -1.
    3000001    1    5    5    0    0 -0.40857391667E+02 -0.32451775833E+02  0.26305274124E+01  0.52252883968E+02  0.10000000000E+01 0.  1.
        -13    1    6    6    0    0 -0.66700876856E+01 -0.18260086462E+01 -0.78422901135E+00  0.69606334088E+01  0.10500000000E+00 0.  1.
         13    1    6    6    0    0 -0.31273892333E+01 -0.91178098567E+00 -0.42193954923E+00  0.32864823088E+01  0.10500000000E+00 0. -1.
</event>
<event>
11    0  0.3443539E-009  0.9118800E+02  0.7816531E-02  0.1126479E+00
         25   -1    0    0    0    0  0.00000000000E+00  0.00000000000E+00  0.99999998245E-14  0.12500000000E+03  0.12500000000E+03 0.  0.
    3000001    1    3    3    0    0  0.43560318640E+02  0.14057431751E+02 -0.25536252390E+02  0.52423400630E+02  0.10000000000E+01 0. -1.
    1000022    2    1    0    0    0  0.50322395955E+02  0.20588339092E+02 -0.29155220577E+02  0.62500001049E+02  0.10000000153E+02 0.  0.
    3000022    2    3    3    0    0  0.67620773152E+01  0.65309073414E+01 -0.36189681866E+01  0.10076600420E+02  0.25000992955E+00 0.  0.
    1000022    2    1    0    0    0 -0.50322395955E+02 -0.20588339092E+02  0.29155220577E+02  0.62499998951E+02  0.99999870338E+01 0.  0.
    3000022    2    5    5    0    0 -0.48403780839E+02 -0.19948067224E+02  0.29682660819E+02  0.60182840078E+02  0.25000228318E+00 0.  0.
        -13    1    4    4    0    0  0.20826117907E+01  0.20676407596E+01 -0.11005378371E+01  0.31360195650E+01  0.10500000000E+00 0.  1.
         13    1    4    4    0    0  0.46794655246E+01  0.44632665818E+01 -0.25184303495E+01  0.69405808547E+01  0.10500000000E+00 0. -1.
    3000001    1    5    5    0    0 -0.19186151162E+01 -0.64027186866E+00 -0.52744024200E+00  0.23171588722E+01  0.10000000000E+01 0.  1.
        -13    1    6    6    0    0 -0.20694209974E+02 -0.85214742512E+01  0.12763619677E+02  0.25764061445E+02  0.10500000000E+00 0. -1.
         13    1    6    6    0    0 -0.27709570865E+02 -0.11426592972E+02  0.16919041142E+02  0.34418778633E+02  0.10500000000E+00 0.  1.
</event>
<event>
11    0  0.3443539E-009  0.9118800E+02  0.7816531E-02  0.1126479E+00
         25   -1    0    0    0    0  0.00000000000E+00  0.00000000000E+00  0.99999998245E-14  0.12500000000E+03  0.12500000000E+03 0.  0.
    3000001    1    3    3    0    0 -0.43198238362E+01  0.12107073310E+02 -0.88834032343E+01  0.15657488787E+02  0.10000000000E+01 0.  1.
    1000022    2    1    0    0    0 -0.16117889943E+01  0.53230394599E+02 -0.31147677988E+02  0.62500006223E+02  0.10000008045E+02 0.  0.
    3000022    2    3    3    0    0  0.27080348419E+01  0.41123321289E+02 -0.22264274753E+02  0.46842517436E+02  0.25000565814E+00 0.  0.
    1000022    2    1    0    0    0  0.16117889943E+01 -0.53230394599E+02  0.31147677988E+02  0.62499993777E+02  0.99999302604E+01 0.  0.
    3000022    2    5    5    0    0 -0.31107170431E+01 -0.10981100636E+02  0.42407922969E+01  0.12178175435E+02  0.25001186694E+00 0.  0.
        -13    1    4    4    0    0  0.10522374473E+01  0.15087422068E+02 -0.81795906381E+01  0.17194599045E+02  0.10500000000E+00 0. -1.
         13    1    4    4    0    0  0.16557973946E+01  0.26035899221E+02 -0.14084684115E+02  0.29647918390E+02  0.10500000000E+00 0.  1.
    3000001    1    5    5    0    0  0.47225060374E+01 -0.42249293963E+02  0.26906885691E+02  0.50321818342E+02  0.10000000000E+01 0. -1.
        -13    1    6    6    0    0 -0.10948302223E+01 -0.38277773546E+01  0.15387438648E+01  0.42695773062E+01  0.10500000000E+00 0.  1.
         13    1    6    6    0    0 -0.20158868208E+01 -0.71533232811E+01  0.27020484320E+01  0.79085981291E+01  0.10500000000E+00 0. -1.
</event>
<event>
11    0  0.3443539E-009  0.9118800E+02  0.7816531E-02  0.1126479E+00
         25   -1    0    0    0    0  0.00000000000E+00  0.00000000000E+00  0.99999998245E-14  0.12500000000E+03  0.12500000000E+03 0.  0.
    3000001    1    3    3    0    0  0.56361586718E+02 -0.16329437952E+02  0.13610662632E+02  0.60245573601E+02  0.10000000000E+01 0. -1.
    1000022    2    1    0    0    0  0.57138138541E+02 -0.18275288677E+02  0.14404750130E+02  0.62499998320E+02  0.99999955708E+01 0.  0.
    3000022    2    3    3    0    0  0.77655182315E+00 -0.19458507250E+01  0.79408749841E+00  0.22544247186E+01  0.24997615561E+00 0.  0.
    1000022    2    1    0    0    0 -0.57138138541E+02  0.18275288677E+02 -0.14404750130E+02  0.62500001680E+02  0.10000016577E+02 0.  0.
    3000022    2    5    5    0    0 -0.47063260569E+02  0.13160441245E+02 -0.15062366813E+02  0.51137902838E+02  0.25000697070E+00 0.  0.
        -13    1    4    4    0    0  0.49594339277E+00 -0.13402239469E+01  0.50162382662E+00  0.15181605778E+01  0.10500000000E+00 0. -1.
         13    1    4    4    0    0  0.28060843038E+00 -0.60562677814E+00  0.29246367179E+00  0.73626414073E+00  0.10500000000E+00 0.  1.
    3000001    1    5    5    0    0 -0.10074877972E+02  0.51148474319E+01  0.65761668264E+00  0.11362098842E+02  0.10000000000E+01 0.  1.
        -13    1    6    6    0    0 -0.19722491346E+02  0.55220042398E+01 -0.63800828046E+01  0.21451938778E+02  0.10500000000E+00 0.  1.
         13    1    6    6    0    0 -0.27340769223E+02  0.76384370053E+01 -0.86822840084E+01  0.29685964061E+02  0.10500000000E+00 0. -1.
</event>
<event>
11    0  0.3443539E-009  0.9118800E+02  0.7816531E-02  0.1126479E+00
         25   -1    0    0    0    0  0.00000000000E+00  0.00000000000E+00  0.99999998245E-14  0.12500000000E+03  0.12500000000E+03 0.  0.
    3000001    1    3    3    0    0 -0.17678696654E+01  0.76524794046E+00  0.77703033414E+01  0.80677494744E+01  0.10000000000E+01 0. -1.
    1000022    2    1    0    0    0 -0.17071514069E+02 -0.18477024178E+02  0.56333055859E+02  0.62500000809E+02  0.99999951764E+01 0.  0.
    3000022    2    3    3    0    0 -0.15303644404E+02 -0.19242272119E+02  0.48562752518E+02  0.54432251334E+02  0.24996972995E+00 0.  0.
    1000022    2    1    0    0    0  0.17071514069E+02  0.18477024178E+02 -0.56333055859E+02  0.62499999191E+02  0.99999850700E+01 0.  0.
    3000022    2    5    5    0    0  0.28167430248E+01  0.25772630691E+01 -0.24811969189E+01  0.45601716789E+01  0.25000279255E+00 0.  0.
        -13    1    4    4    0    0 -0.49279045532E+01 -0.61901811867E+01  0.15516392836E+02  0.17417578995E+02  0.10500000000E+00 0. -1.
         13    1    4    4    0    0 -0.10375739850E+02 -0.13052090932E+02  0.33046359682E+02  0.37014672339E+02  0.10500000000E+00 0.  1.
    3000001    1    5    5    0    0  0.14254771044E+02  0.15899761109E+02 -0.53851858940E+02  0.57939827513E+02  0.10000000000E+01 0.  1.
        -13    1    6    6    0    0  0.99076942991E+00  0.84635216664E+00 -0.88678520868E+00  0.15796673889E+01  0.10500000000E+00 0. -1.
         13    1    6    6    0    0  0.18259735948E+01  0.17309109024E+01 -0.15944117103E+01  0.29805042900E+01  0.10500000000E+00 0.  1.
</event>
<event>
11    0  0.3443539E-009  0.9118800E+02  0.7816531E-02  0.1126479E+00
         25   -1    0    0    0    0  0.00000000000E+00  0.00000000000E+00  0.99999998245E-14  0.12500000000E+03  0.12500000000E+03 0.  0.
    3000001    1    3    3    0    0  0.61137926852E+01 -0.51624815530E+01  0.73489460077E+01  0.10910393403E+02  0.10000000000E+01 0. -1.
    1000022    2    1    0    0    0  0.19260369883E+02 -0.43353710694E+02  0.39442902676E+02  0.62499995052E+02  0.10000036556E+02 0.  0.
    3000022    2    3    3    0    0  0.13146577198E+02 -0.38191229141E+02  0.32093956668E+02  0.51589601649E+02  0.24993687531E+00 0.  0.
    1000022    2    1    0    0    0 -0.19260369883E+02  0.43353710694E+02 -0.39442902676E+02  0.62500004948E+02  0.10000098400E+02 0.  0.
    3000022    2    5    5    0    0 -0.17266159070E+02  0.39919116249E+02 -0.31974258220E+02  0.53982143375E+02  0.25004692747E+00 0.  0.
        -13    1    4    4    0    0  0.55865621128E+01 -0.16093017924E+02  0.13596504046E+02  0.21796120054E+02  0.10500000000E+00 0.  1.
         13    1    4    4    0    0  0.75600150847E+01 -0.22098211216E+02  0.18497452622E+02  0.29793481595E+02  0.10500000000E+00 0. -1.
    3000001    1    5    5    0    0 -0.19942108124E+01  0.34345944446E+01 -0.74686444563E+01  0.85178615730E+01  0.10000000000E+01 0.  1.
        -13    1    6    6    0    0 -0.56664357882E+01  0.13223392323E+02 -0.10602459050E+02  0.17871479009E+02  0.10500000000E+00 0.  1.
         13    1    6    6    0    0 -0.11599723282E+02  0.26695723926E+02 -0.21371799170E+02  0.36110664365E+02  0.10500000000E+00 0. -1.
</event>
<event>
11    0  0.3443539E-009  0.9118800E+02  0.7816531E-02  0.1126479E+00
         25   -1    0    0    0    0  0.00000000000E+00  0.00000000000E+00  0.99999998245E-14  0.12500000000E+03  0.12500000000E+03 0.  0.
    3000001    1    3    3    0    0  0.36478473657E+02 -0.38108932160E+02 -0.13928113839E+01  0.52781717235E+02  0.10000000000E+01 0.  1.
    1000022    2    1    0    0    0  0.41109785620E+02 -0.45960500494E+02  0.19667050834E+01  0.62500000452E+02  0.10000002416E+02 0.  0.
    3000022    2    3    3    0    0  0.46313119626E+01 -0.78515683340E+01  0.33595164674E+01  0.97182832175E+01  0.25000400514E+00 0.  0.
    1000022    2    1    0    0    0 -0.41109785620E+02  0.45960500494E+02 -0.19667050834E+01  0.62499999548E+02  0.99999967608E+01 0.  0.
    3000022    2    5    5    0    0 -0.11433540170E+02  0.82821332758E+01 -0.33328757704E+01  0.14508278152E+02  0.25000320763E+00 0.  0.
        -13    1    4    4    0    0  0.23061285179E+01 -0.38968654318E+01  0.15968559443E+01  0.48025787699E+01  0.10500000000E+00 0.  1.
         13    1    4    4    0    0  0.23251834448E+01 -0.39547029022E+01  0.17626605230E+01  0.49157044476E+01  0.10500000000E+00 0. -1.
    3000001    1    5    5    0    0 -0.29676245450E+02  0.37678367218E+02  0.13661706870E+01  0.47991721396E+02  0.10000000000E+01 0.  1.
        -13    1    6    6    0    0 -0.46712095437E+01  0.34621012923E+01 -0.13632903938E+01  0.59729330866E+01  0.10500000000E+00 0. -1.
         13    1    6    6    0    0 -0.67623306263E+01  0.48200319835E+01 -0.19695853767E+01  0.85353450650E+01  0.10500000000E+00 0.  1.
</event>
<event>
11    0  0.3443539E-009  0.9118800E+02  0.7816531E-02  0.1126479E+00
         25   -1    0    0    0    0  0.00000000000E+00  0.00000000000E+00  0.99999998245E-14  0.12500000000E+03  0.12500000000E+03 0.  0.
    3000001    1    3    3    0    0 -0.23790084920E+02 -0.37463823449E+02  0.44954829267E+01  0.44617435770E+02  0.10000000000E+01 0.  1.
    1000022    2    1    0    0    0 -0.28826794998E+02 -0.54492904510E+02  0.24061000647E+01  0.62499998887E+02  0.99999895792E+01 0.  0.
    3000022    2    3    3    0    0 -0.50367100779E+01 -0.17029081060E+02 -0.20893828620E+01  0.17882563117E+02  0.24998543306E+00 0.  0.
    1000022    2    1    0    0    0  0.28826794998E+02  0.54492904510E+02 -0.24061000647E+01  0.62500001113E+02  0.10000003494E+02 0.  0.
    3000022    2    5    5    0    0  0.81733314947E+01  0.12635656563E+02  0.34697971789E+01  0.15445554684E+02  0.25000506775E+00 0.  0.
        -13    1    4    4    0    0 -0.33322453793E+01 -0.11297528558E+02 -0.14395656314E+01  0.11866818655E+02  0.10500000000E+00 0.  1.
         13    1    4    4    0    0 -0.17044646986E+01 -0.57315525025E+01 -0.64981723052E+00  0.60157444619E+01  0.10500000000E+00 0. -1.
    3000001    1    5    5    0    0  0.20653463503E+02  0.41857247947E+02 -0.58758972436E+01  0.47054446429E+02  0.10000000000E+01 0.  1.
        -13    1    6    6    0    0  0.53461812675E+01  0.81806454413E+01  0.22872758060E+01  0.10037293938E+02  0.10500000000E+00 0.  1.
         13    1    6    6    0    0  0.28271502272E+01  0.44550111216E+01  0.11825213729E+01  0.54082607461E+01  0.10500000000E+00 0. -1.
</event>
<event>
11    0  0.3443539E-009  0.9118800E+02  0.7816531E-02  0.1126479E+00
         25   -1    0    0    0    0  0.00000000000E+00  0.00000000000E+00  0.99999998245E-14  0.12500000000E+03  0.12500000000E+03 0.  0.
    3000001    1    3    3    0    0  0.22546019505E+02  0.34225736010E+02  0.36614820190E+02  0.54966981530E+02  0.10000000000E+01 0.  1.
    1000022    2    1    0    0    0  0.28453519114E+02  0.37878451023E+02  0.39520504638E+02  0.62500000226E+02  0.99999969800E+01 0.  0.
    3000022    2    3    3    0    0  0.59074996083E+01  0.36527150127E+01  0.29056844481E+01  0.75330186964E+01  0.24997996312E+00 0.  0.
    1000022    2    1    0    0    0 -0.28453519114E+02 -0.37878451023E+02 -0.39520504638E+02  0.62499999774E+02  0.99999941545E+01 0.  0.
    3000022    2    5    5    0    0 -0.43980786508E+01 -0.12066055344E+02 -0.13600188406E+02  0.18707228909E+02  0.25000273188E+00 0.  0.
        -13    1    4    4    0    0  0.18103377923E+01  0.11424900099E+01  0.84882025106E+00  0.23052390686E+01  0.10500000000E+00 0. -1.
         13    1    4    4    0    0  0.40971618159E+01  0.25102250028E+01  0.20568641971E+01  0.52277796277E+01  0.10500000000E+00 0.  1.
    3000001    1    5    5    0    0 -0.24055440463E+02 -0.25812395678E+02 -0.25920316232E+02  0.43792770865E+02  0.10000000000E+01 0.  1.
        -13    1    6    6    0    0 -0.27891490398E+01 -0.75678273553E+01 -0.84641854489E+01  0.11692083799E+02  0.10500000000E+00 0. -1.
         13    1    6    6    0    0 -0.16089296110E+01 -0.44982279891E+01 -0.51360029570E+01  0.70151451097E+01  0.10500000000E+00 0.  1.
</event>
<event>
11    0  0.3443539E-009  0.9118800E+02  0.7816531E-02  0.1126479E+00
         25   -1    0    0    0    0  0.00000000000E+00  0.00000000000E+00  0.99999998245E-14  0.12500000000E+03  0.12500000000E+03 0.  0.
    3000001    1    3    3    0    0  0.29302839839E+02  0.20643521453E+02  0.84911265029E+01  0.36849838939E+02  0.10000000000E+01 0.  1.
    1000022    2    1    0    0    0  0.48605203760E+02  0.31217502041E+02  0.21662223938E+02  0.62499997356E+02  0.99999728687E+01 0.  0.
    3000022    2    3    3    0    0  0.19302363922E+02  0.10573980588E+02  0.13171097435E+02  0.25650158417E+02  0.25000147088E+00 0.  0.
    1000022    2    1    0    0    0 -0.48605203760E+02 -0.31217502041E+02 -0.21662223938E+02  0.62500002644E+02  0.10000005914E+02 0.  0.
    3000022    2    5    5    0    0 -0.14325414481E+02 -0.14599798382E+02 -0.89414919789E+01  0.22324524432E+02  0.24999896162E+00 0.  0.
        -13    1    4    4    0    0  0.98945569935E+01  0.53552766504E+01  0.67755422143E+01  0.13133934803E+02  0.10500000000E+00 0. -1.
         13    1    4    4    0    0  0.94078069282E+01  0.52187039377E+01  0.63955552204E+01  0.12516223614E+02  0.10500000000E+00 0.  1.
    3000001    1    5    5    0    0 -0.34279789280E+02 -0.16617703659E+02 -0.12720731959E+02  0.40175478212E+02  0.10000000000E+01 0. -1.
        -13    1    6    6    0    0 -0.10626663768E+02 -0.10785660918E+02 -0.66137760237E+01  0.16522999805E+02  0.10500000000E+00 0. -1.
         13    1    6    6    0    0 -0.36987507128E+01 -0.38141374633E+01 -0.23277159551E+01  0.58015246266E+01  0.10500000000E+00 0.  1.
</event>
<event>
11    0  0.3443539E-009  0.9118800E+02  0.7816531E-02  0.1126479E+00
         25   -1    0    0    0    0  0.00000000000E+00  0.00000000000E+00  0.99999998245E-14  0.12500000000E+03  0.12500000000E+03 0.  0.
    3000001    1    3    3    0    0  0.44897678822E+02 -0.26804531185E+02 -0.98271591516E+01  0.53215200015E+02  0.10000000000E+01 0. -1.
    1000022    2    1    0    0    0  0.54004490739E+02 -0.27538980006E+02 -0.11461670377E+02  0.62500002691E+02  0.10000000439E+02 0.  0.
    3000022    2    3    3    0    0  0.91068119178E+01 -0.73444882095E+00 -0.16345112256E+01  0.92848026765E+01  0.24999083800E+00 0.  0.
    1000022    2    1    0    0    0 -0.54004490739E+02  0.27538980006E+02  0.11461670377E+02  0.62499997309E+02  0.99999667982E+01 0.  0.
    3000022    2    5    5    0    0 -0.18473018524E+02  0.11646267502E+02 -0.24825061979E+00  0.21840606287E+02  0.24998897055E+00 0.  0.
        -13    1    4    4    0    0  0.58564884165E+01 -0.42659116798E+00 -0.10862229521E+01  0.59725490286E+01  0.10500000000E+00 0. -1.
         13    1    4    4    0    0  0.32503235013E+01 -0.30785765297E+00 -0.54828827352E+00  0.33122536480E+01  0.10500000000E+00 0.  1.
    3000001    1    5    5    0    0 -0.35531472215E+02  0.15892712504E+02  0.11709920997E+02  0.40659391022E+02  0.10000000000E+01 0. -1.
        -13    1    6    6    0    0 -0.86423305655E+01  0.54239774093E+01 -0.18002782295E+00  0.10205530048E+02  0.10500000000E+00 0.  1.
         13    1    6    6    0    0 -0.98306879585E+01  0.62222900925E+01 -0.68222796839E-01  0.11635076239E+02  0.10500000000E+00 0. -1.
</event>
<event>
11    0  0.3443539E-009  0.9118800E+02  0.7816531E-02  0.1126479E+00
         25   -1    0    0    0    0  0.00000000000E+00  0.00000000000E+00  0.99999998245E-14  0.12500000000E+03  0.12500000000E+03 0.  0.
    3000001    1    3    3    0    0  0.45320706794E+02 -0.30399220488E+02  0.23445529254E+02  0.59403467176E+02  0.10000000000E+01 0. -1.
    1000022    2    1    0    0    0  0.48373478971E+02 -0.30589886241E+02  0.23032922797E+02  0.62499999911E+02  0.99999924127E+01 0.  0.
    3000022    2    3    3    0    0  0.30527721770E+01 -0.19066575377E+00 -0.41260645681E+00  0.30965327346E+01  0.24999898724E+00 0.  0.
    1000022    2    1    0    0    0 -0.48373478971E+02  0.30589886241E+02 -0.23032922797E+02  0.62500000089E+02  0.99999935297E+01 0.  0.
    3000022    2    5    5    0    0 -0.54362274078E+01  0.19251812628E+01  0.41944422224E+00  0.57876874747E+01  0.25000305051E+00 0.  0.
        -13    1    4    4    0    0  0.84331341367E+00 -0.88302527106E-01 -0.99034555152E-01  0.86012074332E+00  0.10500000000E+00 0. -1.
         13    1    4    4    0    0  0.22094587634E+01 -0.10236322667E+00 -0.31357190165E+00  0.22364119913E+01  0.10500000000E+00 0.  1.
    3000001    1    5    5    0    0 -0.42937251563E+02  0.28664704979E+02 -0.23452367019E+02  0.56712312615E+02  0.10000000000E+01 0. -1.
        -13    1    6    6    0    0 -0.15970510257E+01  0.52171137240E+00  0.13546339289E+00  0.16888250547E+01  0.10500000000E+00 0.  1.
         13    1    6    6    0    0 -0.38391763821E+01  0.14034698903E+01  0.28398082935E+00  0.40988624199E+01  0.10500000000E+00 0. -1.
</event>
<event>
11    0  0.3443539E-009  0.9118800E+02  0.7816531E-02  0.1126479E+00
         25   -1    0    0    0    0  0.00000000000E+00  0.00000000000E+00  0.99999998245E-14  0.12500000000E+03  0.12500000000E+03 0.  0.
    3000001    1    3    3    0    0 -0.33782421996E+01  0.10100492151E+02  0.24523871879E+02  0.26755424758E+02  0.10000000000E+01 0. -1.
    1000022    2    1    0    0    0 -0.15829658042E+02  0.15396113095E+02  0.57607564087E+02  0.62499998444E+02  0.99999996673E+01 0.  0.
    3000022    2    3    3    0    0 -0.12451415842E+02  0.52956209437E+01  0.33083692208E+02  0.35744573686E+02  0.25000045991E+00 0.  0.
    1000022    2    1    0    0    0  0.15829658042E+02 -0.15396113095E+02 -0.57607564087E+02  0.62500001556E+02  0.10000019116E+02 0.  0.
    3000022    2    5    5    0    0  0.27537082601E+01 -0.78934950499E+01 -0.28541340304E+02  0.29741565921E+02  0.24992764975E+00 0.  0.
        -13    1    4    4    0    0 -0.80993399782E+01  0.33971957416E+01  0.21568333573E+02  0.23288286435E+02  0.10500000000E+00 0. -1.
         13    1    4    4    0    0 -0.43520758639E+01  0.18984252022E+01  0.11515358635E+02  0.12456287251E+02  0.10500000000E+00 0.  1.
    3000001    1    5    5    0    0  0.13075949782E+02 -0.75026180450E+01 -0.29066223783E+02  0.32758435635E+02  0.10000000000E+01 0. -1.
        -13    1    6    6    0    0  0.16833077657E+01 -0.49285304933E+01 -0.17599529377E+02  0.18354247387E+02  0.10500000000E+00 0.  1.
         13    1    6    6    0    0  0.10704004943E+01 -0.29649645566E+01 -0.10941810927E+02  0.11387318535E+02  0.10500000000E+00 0. -1.
</event>
<event>
11    0  0.3443539E-009  0.9118800E+02  0.7816531E-02  0.1126479E+00
         25   -1    0    0    0    0  0.00000000000E+00  0.00000000000E+00  0.99999998245E-14  0.12500000000E+03  0.12500000000E+03 0.  0.
    3000001    1    3    3    0    0 -0.30571008151E+01 -0.55960251959E+00  0.35054664094E+01  0.47903355959E+01  0.10000000000E+01 0.  1.
    1000022    2    1    0    0    0 -0.53939068101E+02  0.14382718143E+02  0.26267172874E+02  0.62499999653E+02  0.99999968474E+01 0.  0.
    3000022    2    3    3    0    0 -0.50881967286E+02  0.14942320663E+02  0.22761706465E+02  0.57709664057E+02  0.25000530143E+00 0.  0.
    1000022    2    1    0    0    0  0.53939068101E+02 -0.14382718143E+02 -0.26267172874E+02  0.62500000347E+02  0.10000001191E+02 0.  0.
    3000022    2    5    5    0    0  0.29210341924E+02 -0.11828391791E+02 -0.11387024948E+02  0.33509428022E+02  0.25000299058E+00 0.  0.
        -13    1    4    4    0    0 -0.28226511864E+02  0.82210719930E+01  0.12605533276E+02  0.31988005422E+02  0.10500000000E+00 0.  1.
         13    1    4    4    0    0 -0.22655455422E+02  0.67212486698E+01  0.10156173189E+02  0.25721658634E+02  0.10500000000E+00 0. -1.
    3000001    1    5    5    0    0  0.24728726177E+02 -0.25543263519E+01 -0.14880147927E+02  0.28990572326E+02  0.10000000000E+01 0. -1.
        -13    1    6    6    0    0  0.13227039750E+02 -0.53160399074E+01 -0.50918921698E+01  0.15137808683E+02  0.10500000000E+00 0.  1.
         13    1    6    6    0    0  0.15983302174E+02 -0.65123518839E+01 -0.62951327779E+01  0.18371619339E+02  0.10500000000E+00 0. -1.
</event>
<event>
11    0  0.3443539E-009  0.9118800E+02  0.7816531E-02  0.1126479E+00
         25   -1    0    0    0    0  0.00000000000E+00  0.00000000000E+00  0.99999998245E-14  0.12500000000E+03  0.12500000000E+03 0.  0.
    3000001    1    3    3    0    0  0.11222918682E+02  0.69350356669E+01  0.74719665616E+01  0.15194699988E+02  0.10000000000E+01 0.  1.
    1000022    2    1    0    0    0  0.53194178624E+02  0.27416266640E+02  0.14999290269E+02  0.62499991267E+02  0.99998941889E+01 0.  0.
    3000022    2    3    3    0    0  0.41971259942E+02  0.20481230973E+02  0.75273237070E+01  0.47305291278E+02  0.24999480895E+00 0.  0.
    1000022    2    1    0    0    0 -0.53194178624E+02 -0.27416266640E+02 -0.14999290269E+02  0.62500008733E+02  0.10000003353E+02 0.  0.
    3000022    2    5    5    0    0 -0.17146555495E+02 -0.59856900325E+01 -0.68405317884E+00  0.18175898365E+02  0.25000420320E+00 0.  0.
        -13    1    4    4    0    0  0.17976248277E+02  0.88372521074E+01  0.32581689739E+01  0.20294561266E+02  0.10500000000E+00 0.  1.
         13    1    4    4    0    0  0.23995011666E+02  0.11643978866E+02  0.42691547331E+01  0.27010730012E+02  0.10500000000E+00 0. -1.
    3000001    1    5    5    0    0 -0.36047623129E+02 -0.21430576608E+02 -0.14315237090E+02  0.44324110368E+02  0.10000000000E+01 0. -1.
        -13    1    6    6    0    0 -0.10507770985E+02 -0.36305945940E+01 -0.36811860142E+00  0.11123893405E+02  0.10500000000E+00 0.  1.
         13    1    6    6    0    0 -0.66387845103E+01 -0.23550954385E+01 -0.31593457742E+00  0.70520049600E+01  0.10500000000E+00 0. -1.
</event>
<event>
11    0  0.3443539E-009  0.9118800E+02  0.7816531E-02  0.1126479E+00
         25   -1    0    0    0    0  0.00000000000E+00  0.00000000000E+00  0.99999998245E-14  0.12500000000E+03  0.12500000000E+03 0.  0.
    3000001    1    3    3    0    0 -0.14498633284E+02  0.99468650034E+01  0.33215489390E+01  0.17921584133E+02  0.10000000000E+01 0.  1.
    1000022    2    1    0    0    0 -0.47041074697E+02  0.30282479382E+02  0.26006903924E+02  0.62500004181E+02  0.10000010235E+02 0.  0.
    3000022    2    3    3    0    0 -0.32542441413E+02  0.20335614379E+02  0.22685354985E+02  0.44578420048E+02  0.24999567955E+00 0.  0.
    1000022    2    1    0    0    0  0.47041074697E+02 -0.30282479382E+02 -0.26006903924E+02  0.62499995819E+02  0.99999579695E+01 0.  0.
    3000022    2    5    5    0    0  0.29118850035E+02 -0.22511220410E+02 -0.20720112092E+02  0.42237992691E+02  0.25001951434E+00 0.  0.
        -13    1    4    4    0    0 -0.20161830891E+02  0.12638719122E+02  0.14008306712E+02  0.27613046334E+02  0.10500000000E+00 0. -1.
         13    1    4    4    0    0 -0.12380610523E+02  0.76968952571E+01  0.86770482727E+01  0.16965373714E+02  0.10500000000E+00 0.  1.
    3000001    1    5    5    0    0  0.17922224662E+02 -0.77712589725E+01 -0.52867918317E+01  0.20262003128E+02  0.10000000000E+01 0. -1.
        -13    1    6    6    0    0  0.89953885483E+01 -0.70127411774E+01 -0.64051592978E+01  0.13081767640E+02  0.10500000000E+00 0.  1.
         13    1    6    6    0    0  0.20123461487E+02 -0.15498479232E+02 -0.14314952795E+02  0.29156225051E+02  0.10500000000E+00 0. -1.
</event>
<event>
11    0  0.3443539E-009  0.9118800E+02  0.7816531E-02  0.1126479E+00
         25   -1    0    0    0    0  0.00000000000E+00  0.00000000000E+00  0.99999998245E-14  0.12500000000E+03  0.12500000000E+03 0.  0.
    3000001    1    3    3    0    0 -0.16648323152E+02 -0.90839865345E+01 -0.13029742995E+02  0.23031710263E+02  0.10000000000E+01 0.  1.
    1000022    2    1    0    0    0 -0.41946239526E+02 -0.14623949200E+02 -0.42812417041E+02  0.62500000469E+02  0.10000005258E+02 0.  0.
    3000022    2    3    3    0    0 -0.25297916375E+02 -0.55399626654E+01 -0.29782674046E+02  0.39468290206E+02  0.24999848132E+00 0.  0.
    1000022    2    1    0    0    0  0.41946239526E+02  0.14623949200E+02  0.42812417041E+02  0.62499999531E+02  0.99999993901E+01 0.  0.
    3000022    2    5    5    0    0  0.14941639522E+02  0.11915087965E+01  0.10599375687E+02  0.18359780797E+02  0.25000225955E+00 0.  0.
        -13    1    4    4    0    0 -0.69207985386E+01 -0.15452160504E+01 -0.81194132195E+01  0.10780586305E+02  0.10500000000E+00 0.  1.
         13    1    4    4    0    0 -0.18377117836E+02 -0.39947466150E+01 -0.21663260827E+02  0.28687703901E+02  0.10500000000E+00 0. -1.
    3000001    1    5    5    0    0  0.27004600004E+02  0.13432440403E+02  0.32213041354E+02  0.44140218733E+02  0.10000000000E+01 0. -1.
        -13    1    6    6    0    0  0.10652030787E+02  0.82997247291E+00  0.75089417158E+01  0.13059473377E+02  0.10500000000E+00 0. -1.
         13    1    6    6    0    0  0.42896087349E+01  0.36153632362E+00  0.30904339716E+01  0.53003074198E+01  0.10500000000E+00 0.  1.
</event>
<event>
11    0  0.3443539E-009  0.9118800E+02  0.7816531E-02  0.1126479E+00
         25   -1    0    0    0    0  0.00000000000E+00  0.00000000000E+00  0.99999998245E-14  0.12500000000E+03  0.12500000000E+03 0.  0.
    3000001    1    3    3    0    0  0.23666959303E+02  0.23374647351E+02 -0.22492740184E+02  0.40167430369E+02  0.10000000000E+01 0. -1.
    1000022    2    1    0    0    0  0.36759317260E+02  0.30294817049E+02 -0.39207483706E+02  0.62500001606E+02  0.10000003844E+02 0.  0.
    3000022    2    3    3    0    0  0.13092357956E+02  0.69201696981E+01 -0.16714743521E+02  0.22332571238E+02  0.25000320062E+00 0.  0.
    1000022    2    1    0    0    0 -0.36759317260E+02 -0.30294817049E+02  0.39207483706E+02  0.62499998394E+02  0.99999837631E+01 0.  0.
    3000022    2    5    5    0    0 -0.29904813913E+02 -0.19329555264E+02  0.30420313709E+02  0.46833615956E+02  0.24999094663E+00 0.  0.
        -13    1    4    4    0    0  0.33340855229E+01  0.17512122886E+01 -0.42110698801E+01  0.56503986840E+01  0.10500000000E+00 0. -1.
         13    1    4    4    0    0  0.97582724333E+01  0.51689574094E+01 -0.12503673641E+02  0.16682172554E+02  0.10500000000E+00 0.  1.
    3000001    1    5    5    0    0 -0.68545033463E+01 -0.10965261784E+02  0.87871699967E+01  0.15666382437E+02  0.10000000000E+01 0.  1.
        -13    1    6    6    0    0 -0.22836291367E+02 -0.14766006213E+02  0.23252087200E+02  0.35779906750E+02  0.10500000000E+00 0.  1.
         13    1    6    6    0    0 -0.70685225465E+01 -0.45635490509E+01  0.71682265093E+01  0.11053709206E+02  0.10500000000E+00 0. -1.
</event>
<event>
11    0  0.3443539E-009  0.9118800E+02  0.7816531E-02  0.1126479E+00
         25   -1    0    0    0    0  0.00000000000E+00  0.00000000000E+00  0.99999998245E-14  0.12500000000E+03  0.12500000000E+03 0.  0.
    3000001    1    3    3    0    0  0.47330036029E+01 -0.10304488062E+02  0.50728896199E+02  0.51990428993E+02  0.10000000000E+01 0.  1.
    1000022    2    1    0    0    0  0.19298521171E+01 -0.14541580196E+02  0.59925515758E+02  0.62499991993E+02  0.99999838234E+01 0.  0.
    3000022    2    3    3    0    0 -0.28031514859E+01 -0.42370921346E+01  0.91966195589E+01  0.10509563000E+02  0.24999025321E+00 0.  0.
    1000022    2    1    0    0    0 -0.19298521171E+01  0.14541580196E+02 -0.59925515758E+02  0.62500008007E+02  0.10000083911E+02 0.  0.
    3000022    2    5    5    0    0 -0.10433725089E+01  0.11474589701E+02 -0.56677013711E+02  0.57836850027E+02  0.25000579560E+00 0.  0.
        -13    1    4    4    0    0 -0.20557323850E+01 -0.31352234075E+01  0.68409017651E+01  0.78015782642E+01  0.10500000000E+00 0. -1.
         13    1    4    4    0    0 -0.74741910090E+00 -0.11018687271E+01  0.23557177938E+01  0.27079847356E+01  0.10500000000E+00 0.  1.
    3000001    1    5    5    0    0 -0.88647960821E+00  0.30669904954E+01 -0.32485020470E+01  0.46631579798E+01  0.10000000000E+01 0.  1.
        -13    1    6    6    0    0 -0.56126699469E+00  0.54659155782E+01 -0.27136358702E+02  0.27687257761E+02  0.10500000000E+00 0. -1.
         13    1    6    6    0    0 -0.48210551416E+00  0.60086741228E+01 -0.29540655009E+02  0.30149592266E+02  0.10500000000E+00 0.  1.
</event>
<event>
11    0  0.3443539E-009  0.9118800E+02  0.7816531E-02  0.1126479E+00
         25   -1    0    0    0    0  0.00000000000E+00  0.00000000000E+00  0.99999998245E-14  0.12500000000E+03  0.12500000000E+03 0.  0.
    3000001    1    3    3    0    0 -0.26227995618E+02 -0.50220233466E+01  0.26248960505E+00  0.26724471434E+02  0.10000000000E+01 0. -1.
    1000022    2    1    0    0    0 -0.57797035273E+02 -0.20309414159E+02  0.72993448134E+01  0.62499999587E+02  0.99999961935E+01 0.  0.
    3000022    2    3    3    0    0 -0.31569039655E+02 -0.15287390812E+02  0.70368552083E+01  0.35775528154E+02  0.25000167360E+00 0.  0.
    1000022    2    1    0    0    0  0.57797035273E+02  0.20309414159E+02 -0.72993448134E+01  0.62500000413E+02  0.10000001354E+02 0.  0.
    3000022    2    5    5    0    0  0.55858798817E+01  0.46388461783E+01  0.10581415060E+01  0.73418729455E+01  0.24997396132E+00 0.  0.
        -13    1    4    4    0    0 -0.22770337941E+02 -0.11002273002E+02  0.50400403280E+01  0.25786650280E+02  0.10500000000E+00 0.  1.
         13    1    4    4    0    0 -0.87987017141E+01 -0.42851178106E+01  0.19968148804E+01  0.99888778735E+01  0.10500000000E+00 0. -1.
    3000001    1    5    5    0    0  0.52211155391E+02  0.15670567981E+02 -0.83574863194E+01  0.55158127467E+02  0.10000000000E+01 0. -1.
        -13    1    6    6    0    0  0.30891269552E+01  0.25552664236E+01  0.51739366697E+00  0.40436138598E+01  0.10500000000E+00 0. -1.
         13    1    6    6    0    0  0.24967529265E+01  0.20835797548E+01  0.54074783908E+00  0.32982590856E+01  0.10500000000E+00 0.  1.
</event>
<event>
11    0  0.3443539E-009  0.9118800E+02  0.7816531E-02  0.1126479E+00
         25   -1    0    0    0    0  0.00000000000E+00  0.00000000000E+00  0.99999998245E-14  0.12500000000E+03  0.12500000000E+03 0.  0.
    3000001    1    3    3    0    0  0.31778765912E+02 -0.20780520770E+02 -0.11525623762E+02  0.39693324495E+02  0.10000000000E+01 0. -1.
    1000022    2    1    0    0    0  0.53408013603E+02 -0.26293114583E+02 -0.16202044142E+02  0.62500000248E+02  0.10000000254E+02 0.  0.
    3000022    2    3    3    0    0  0.21629247691E+02 -0.55125938133E+01 -0.46764203804E+01  0.22806675753E+02  0.25001019384E+00 0.  0.
    1000022    2    1    0    0    0 -0.53408013603E+02  0.26293114583E+02  0.16202044142E+02  0.62499999752E+02  0.99999971563E+01 0.  0.
    3000022    2    5    5    0    0 -0.46536088681E+02  0.22637381341E+02  0.17322142405E+02  0.54572682565E+02  0.24996225095E+00 0.  0.
        -13    1    4    4    0    0  0.11651007667E+02 -0.29075086700E+01 -0.24850488337E+01  0.12263200195E+02  0.10500000000E+00 0. -1.
         13    1    4    4    0    0  0.99782400236E+01 -0.26050851434E+01 -0.21913715468E+01  0.10543475557E+02  0.10500000000E+00 0.  1.
    3000001    1    5    5    0    0 -0.68719249215E+01  0.36557332423E+01 -0.11200982623E+01  0.79273171870E+01  0.10000000000E+01 0. -1.
        -13    1    6    6    0    0 -0.26767782940E+02  0.13031472214E+02  0.10033234998E+02  0.31416720088E+02  0.10500000000E+00 0.  1.
         13    1    6    6    0    0 -0.19768305742E+02  0.96059091275E+01  0.72889074070E+01  0.23155962477E+02  0.10500000000E+00 0. -1.
</event>
<event>
11    0  0.3443539E-009  0.9118800E+02  0.7816531E-02  0.1126479E+00
         25   -1    0    0    0    0  0.00000000000E+00  0.00000000000E+00  0.99999998245E-14  0.12500000000E+03  0.12500000000E+03 0.  0.
    3000001    1    3    3    0    0  0.15757026924E+01  0.90916604702E+01 -0.59806786687E+01  0.11041270145E+02  0.10000000000E+01 0. -1.
    1000022    2    1    0    0    0  0.26316813276E+02  0.40630884947E+02 -0.38246653850E+02  0.62500000121E+02  0.10000000591E+02 0.  0.
    3000022    2    3    3    0    0  0.24741110584E+02  0.31539224477E+02 -0.32265975181E+02  0.51458729976E+02  0.25000563527E+00 0.  0.
    1000022    2    1    0    0    0 -0.26316813276E+02 -0.40630884947E+02  0.38246653850E+02  0.62499999879E+02  0.99999990749E+01 0.  0.
    3000022    2    5    5    0    0 -0.17517189376E+02 -0.26565400222E+02  0.18971292984E+02  0.37047872702E+02  0.25000322632E+00 0.  0.
        -13    1    4    4    0    0  0.18549775401E+02  0.23670296034E+02 -0.24178223060E+02  0.38587233343E+02  0.10500000000E+00 0. -1.
         13    1    4    4    0    0  0.61913351832E+01  0.78689284428E+01 -0.80877521216E+01  0.12871496633E+02  0.10500000000E+00 0.  1.
    3000001    1    5    5    0    0 -0.87996239004E+01 -0.14065484725E+02  0.19275360866E+02  0.25452127177E+02  0.10000000000E+01 0.  1.
        -13    1    6    6    0    0 -0.88910845709E+01 -0.13374190263E+02  0.95384050796E+01  0.18679200906E+02  0.10500000000E+00 0. -1.
         13    1    6    6    0    0 -0.86261048051E+01 -0.13191209959E+02  0.94328879047E+01  0.18368671795E+02  0.10500000000E+00 0.  1.
</event>
<event>
11    0  0.3443539E-009  0.9118800E+02  0.7816531E-02  0.1126479E+00
         25   -1    0    0    0    0  0.00000000000E+00  0.00000000000E+00  0.99999998245E-14  0.12500000000E+03  0.12500000000E+03 0.  0.
    3000001    1    3    3    0    0  0.31736146355E+02  0.11407790178E+02 -0.19396218191E+02  0.38917013533E+02  0.10000000000E+01 0. -1.
    1000022    2    1    0    0    0  0.47908047656E+02  0.13588819684E+02 -0.36419952219E+02  0.62500001074E+02  0.10000008201E+02 0.  0.
    3000022    2    3    3    0    0  0.16171901301E+02  0.21810295053E+01 -0.17023734027E+02  0.23582987540E+02  0.24999942930E+00 0.  0.
    1000022    2    1    0    0    0 -0.47908047656E+02 -0.13588819684E+02  0.36419952219E+02  0.62499998926E+02  0.99999947786E+01 0.  0.
    3000022    2    5    5    0    0 -0.33390613829E+02 -0.82940992987E+01  0.19435886610E+02  0.39516343136E+02  0.25002298618E+00 0.  0.
        -13    1    4    4    0    0  0.91041189423E+01  0.12838597702E+01 -0.95398219079E+01  0.13249622812E+02  0.10500000000E+00 0.  1.
         13    1    4    4    0    0  0.70677823584E+01  0.89716973507E+00 -0.74839121194E+01  0.10333364728E+02  0.10500000000E+00 0. -1.
    3000001    1    5    5    0    0 -0.14517433827E+02 -0.52947203850E+01  0.16984065609E+02  0.22983655790E+02  0.10000000000E+01 0. -1.
        -13    1    6    6    0    0 -0.19033669703E+02 -0.46929393937E+01  0.11009778401E+02  0.22484005603E+02  0.10500000000E+00 0.  1.
         13    1    6    6    0    0 -0.14356944126E+02 -0.36011599050E+01  0.84261082091E+01  0.17032337533E+02  0.10500000000E+00 0. -1.
</event>
<event>
11    0  0.3443539E-009  0.9118800E+02  0.7816531E-02  0.1126479E+00
         25   -1    0    0    0    0  0.00000000000E+00  0.00000000000E+00  0.99999998245E-14  0.12500000000E+03  0.12500000000E+03 0.  0.
    3000001    1    3    3    0    0  0.12060065935E+02 -0.47434967041E+02 -0.13246305698E+02  0.50714750352E+02  0.10000000000E+01 0.  1.
    1000022    2    1    0    0    0  0.15615353768E+02 -0.58547413116E+02 -0.11602202202E+02  0.62500000080E+02  0.10000002913E+02 0.  0.
    3000022    2    3    3    0    0  0.35552878330E+01 -0.11112446075E+02  0.16441034963E+01  0.11785249729E+02  0.25001106214E+00 0.  0.
    1000022    2    1    0    0    0 -0.15615353768E+02  0.58547413116E+02  0.11602202202E+02  0.62499999920E+02  0.10000001907E+02 0.  0.
    3000022    2    5    5    0    0 -0.69059597101E+01  0.14092934233E+02  0.61688132437E+01  0.16864750899E+02  0.24998245898E+00 0.  0.
        -13    1    4    4    0    0  0.14381974089E+01 -0.43130707098E+01  0.61288986111E+00  0.45888614836E+01  0.10500000000E+00 0. -1.
         13    1    4    4    0    0  0.21170904241E+01 -0.67993753648E+01  0.10312136352E+01  0.71963882453E+01  0.10500000000E+00 0.  1.
    3000001    1    5    5    0    0 -0.87093940575E+01  0.44454478883E+02  0.54333889578E+01  0.45635249021E+02  0.10000000000E+01 0.  1.
        -13    1    6    6    0    0 -0.47274491340E+01  0.95527741019E+01  0.42207884358E+01  0.11464307584E+02  0.10500000000E+00 0. -1.
         13    1    6    6    0    0 -0.21785105761E+01  0.45401601312E+01  0.19480248080E+01  0.54004433151E+01  0.10500000000E+00 0.  1.
</event>
<event>
11    0  0.3443539E-009  0.9118800E+02  0.7816531E-02  0.1126479E+00
         25   -1    0    0    0    0  0.00000000000E+00  0.00000000000E+00  0.99999998245E-14  0.12500000000E+03  0.12500000000E+03 0.  0.
    3000001    1    3    3    0    0 -0.15705163141E+02  0.33269376155E+01  0.91975452730E+01  0.18528774980E+02  0.10000000000E+01 0. -1.
    1000022    2    1    0    0    0 -0.45125836525E+02  0.23590160095E+02  0.34834078857E+02  0.62499999233E+02  0.10000003943E+02 0.  0.
    3000022    2    3    3    0    0 -0.29420673384E+02  0.20263222480E+02  0.25636533584E+02  0.43971224253E+02  0.25000100298E+00 0.  0.
    1000022    2    1    0    0    0  0.45125836525E+02 -0.23590160095E+02 -0.34834078857E+02  0.62500000767E+02  0.10000013535E+02 0.  0.
    3000022    2    5    5    0    0  0.10484487076E+02 -0.73467653415E+01 -0.41987820162E+01  0.13475594832E+02  0.24991084496E+00 0.  0.
        -13    1    4    4    0    0 -0.69165616195E+01  0.47552150402E+01  0.60082060399E+01  0.10322812579E+02  0.10500000000E+00 0. -1.
         13    1    4    4    0    0 -0.22504111764E+02  0.15508007439E+02  0.19628327544E+02  0.33648411674E+02  0.10500000000E+00 0.  1.
    3000001    1    5    5    0    0  0.34641349449E+02 -0.16243394754E+02 -0.30635296841E+02  0.49024405935E+02  0.10000000000E+01 0. -1.
        -13    1    6    6    0    0  0.72300639268E+01 -0.50066723841E+01 -0.28789294372E+01  0.92541802690E+01  0.10500000000E+00 0. -1.
         13    1    6    6    0    0  0.32544231496E+01 -0.23400929574E+01 -0.13198525790E+01  0.42214145634E+01  0.10500000000E+00 0.  1.
</event>
<event>
11    0  0.3443539E-009  0.9118800E+02  0.7816531E-02  0.1126479E+00
         25   -1    0    0    0    0  0.00000000000E+00  0.00000000000E+00  0.99999998245E-14  0.12500000000E+03  0.12500000000E+03 0.  0.
    3000001    1    3    3    0    0  0.11966444678E+02 -0.64420543473E+01 -0.21132272944E+02  0.25144956198E+02  0.10000000000E+01 0. -1.
    1000022    2    1    0    0    0  0.31190499500E+02 -0.26218326433E+02 -0.46324962127E+02  0.62500000163E+02  0.10000000211E+02 0.  0.
    3000022    2    3    3    0    0  0.19224054822E+02 -0.19776272086E+02 -0.25192689183E+02  0.37355043964E+02  0.24999973256E+00 0.  0.
    1000022    2    1    0    0    0 -0.31190499500E+02  0.26218326433E+02  0.46324962127E+02  0.62499999837E+02  0.99999981785E+01 0.  0.
    3000022    2    5    5    0    0 -0.30979477374E+02  0.23017920252E+02  0.42659482933E+02  0.57527790290E+02  0.25000084692E+00 0.  0.
        -13    1    4    4    0    0  0.85940796433E+01 -0.89149946530E+01 -0.11253917799E+02  0.16733111648E+02  0.10500000000E+00 0.  1.
         13    1    4    4    0    0  0.10629975179E+02 -0.10861277433E+02 -0.13938771384E+02  0.20621932317E+02  0.10500000000E+00 0. -1.
    3000001    1    5    5    0    0 -0.21102212600E+00  0.32004061811E+01  0.36654791945E+01  0.49722095477E+01  0.10000000000E+01 0.  1.
        -13    1    6    6    0    0 -0.10388956894E+02  0.77860774289E+01  0.14341819103E+02  0.19345599687E+02  0.10500000000E+00 0. -1.
         13    1    6    6    0    0 -0.20590520480E+02  0.15231842823E+02  0.28317663829E+02  0.38182190602E+02  0.10500000000E+00 0.  1.
</event>
<event>
11    0  0.3443539E-009  0.9118800E+02  0.7816531E-02  0.1126479E+00
         25   -1    0    0    0    0  0.00000000000E+00  0.00000000000E+00  0.99999998245E-14  0.12500000000E+03  0.12500000000E+03 0.  0.
    3000001    1    3    3    0    0 -0.48491592273E+01  0.13408107318E+02  0.45825029950E+02  0.48002344286E+02  0.10000000000E+01 0. -1.
    1000022    2    1    0    0    0 -0.40184019141E+01  0.12549301121E+02  0.60271199551E+02  0.62500000128E+02  0.10000000409E+02 0.  0.
    3000022    2    3    3    0    0  0.83075731318E+00 -0.85880619761E+00  0.14446169601E+02  0.14497655842E+02  0.25000595293E+00 0.  0.
    1000022    2    1    0    0    0  0.40184019141E+01 -0.12549301121E+02 -0.60271199551E+02  0.62499999872E+02  0.99999988034E+01 0.  0.
    3000022    2    5    5    0    0  0.50551348217E+01 -0.12738896347E+02 -0.58994011853E+02  0.60565582675E+02  0.25000430925E+00 0.  0.
        -13    1    4    4    0    0  0.53175267571E+00 -0.54594618664E+00  0.98287708103E+01  0.98588325267E+01  0.10500000000E+00 0.  1.
         13    1    4    4    0    0  0.29900463747E+00 -0.31286001097E+00  0.46173987909E+01  0.46388233156E+01  0.10500000000E+00 0. -1.
    3000001    1    5    5    0    0 -0.10367329076E+01  0.18959522620E+00 -0.12771876984E+01  0.19344171961E+01  0.10000000000E+01 0. -1.
        -13    1    6    6    0    0  0.27908418550E+01 -0.71895940640E+01 -0.33335879530E+02  0.34216530363E+02  0.10500000000E+00 0. -1.
         13    1    6    6    0    0  0.22642929667E+01 -0.55493022828E+01 -0.25658132322E+02  0.26349052312E+02  0.10500000000E+00 0.  1.
</event>
<event>
11    0  0.3443539E-009  0.9118800E+02  0.7816531E-02  0.1126479E+00
         25   -1    0    0    0    0  0.00000000000E+00  0.00000000000E+00  0.99999998245E-14  0.12500000000E+03  0.12500000000E+03 0.  0.
    3000001    1    3    3    0    0 -0.84353306273E+00 -0.66406458656E+01 -0.35812663430E+00  0.67777562826E+01  0.10000000000E+01 0.  1.
    1000022    2    1    0    0    0 -0.30776369352E+02 -0.51506868609E+02 -0.14356478409E+02  0.62500004844E+02  0.99999854422E+01 0.  0.
    3000022    2    3    3    0    0 -0.29932836289E+02 -0.44866222743E+02 -0.13998351774E+02  0.55722248561E+02  0.25000158510E+00 0.  0.
    1000022    2    1    0    0    0  0.30776369352E+02  0.51506868609E+02  0.14356478409E+02  0.62499995156E+02  0.99999248927E+01 0.  0.
    3000022    2    5    5    0    0  0.10752780003E+02  0.25875705534E+02  0.95582823752E+01  0.29607392095E+02  0.24998004043E+00 0.  0.
        -13    1    4    4    0    0 -0.13405738972E+02 -0.20097298720E+02 -0.63388179066E+01  0.24976126414E+02  0.10500000000E+00 0. -1.
         13    1    4    4    0    0 -0.16527097317E+02 -0.24768924023E+02 -0.76595338677E+01  0.30746122147E+02  0.10500000000E+00 0.  1.
    3000001    1    5    5    0    0  0.20023589349E+02  0.25631163075E+02  0.47981960334E+01  0.32892603061E+02  0.10000000000E+01 0.  1.
        -13    1    6    6    0    0  0.32143751426E+01  0.76332868818E+01  0.28480032460E+01  0.87590766446E+01  0.10500000000E+00 0.  1.
         13    1    6    6    0    0  0.75384048605E+01  0.18242418652E+02  0.67102791292E+01  0.20848315450E+02  0.10500000000E+00 0. -1.
</event>
<event>
11    0  0.3443539E-009  0.9118800E+02  0.7816531E-02  0.1126479E+00
         25   -1    0    0    0    0  0.00000000000E+00  0.00000000000E+00  0.99999998245E-14  0.12500000000E+03  0.12500000000E+03 0.  0.
    3000001    1    3    3    0    0  0.35527699911E+02  0.37699628849E+02  0.13978805533E+02  0.53664573794E+02  0.10000000000E+01 0. -1.
    1000022    2    1    0    0    0  0.37832138076E+02  0.45699761826E+02  0.16926636087E+02  0.62500000759E+02  0.10000009165E+02 0.  0.
    3000022    2    3    3    0    0  0.23044381651E+01  0.80001329775E+01  0.29478305536E+01  0.88354269658E+01  0.25000356034E+00 0.  0.
    1000022    2    1    0    0    0 -0.37832138076E+02 -0.45699761826E+02 -0.16926636087E+02  0.62499999241E+02  0.99999996736E+01 0.  0.
    3000022    2    5    5    0    0 -0.64230883873E+01 -0.13984438188E+02 -0.25910795952E+01  0.15607586893E+02  0.24999859615E+00 0.  0.
        -13    1    4    4    0    0  0.13457863626E+01  0.46328300861E+01  0.16401426814E+01  0.50966016674E+01  0.10500000000E+00 0.  1.
         13    1    4    4    0    0  0.95865180249E+00  0.33673028914E+01  0.13076878721E+01  0.37388252984E+01  0.10500000000E+00 0. -1.
    3000001    1    5    5    0    0 -0.31409049689E+02 -0.31715323639E+02 -0.14335556492E+02  0.46892412348E+02  0.10000000000E+01 0. -1.
        -13    1    6    6    0    0 -0.44972446448E+01 -0.97977927983E+01 -0.18612721097E+01  0.10940626672E+02  0.10500000000E+00 0. -1.
         13    1    6    6    0    0 -0.19258437426E+01 -0.41866453893E+01 -0.72980748549E+00  0.46669602208E+01  0.10500000000E+00 0.  1.
</event>
<event>
11    0  0.3443539E-009  0.9118800E+02  0.7816531E-02  0.1126479E+00
         25   -1    0    0    0    0  0.00000000000E+00  0.00000000000E+00  0.99999998245E-14  0.12500000000E+03  0.12500000000E+03 0.  0.
    3000001    1    3    3    0    0 -0.27987327716E+02 -0.45959731947E+01 -0.92974858223E+01  0.29863970348E+02  0.10000000000E+01 0. -1.
    1000022    2    1    0    0    0 -0.60587385343E+02 -0.59261934711E+01 -0.10014937368E+02  0.62500000743E+02  0.10000004534E+02 0.  0.
    3000022    2    3    3    0    0 -0.32600057627E+02 -0.13302202764E+01 -0.71745154585E+00  0.32636030396E+02  0.25000005138E+00 0.  0.
    1000022    2    1    0    0    0  0.60587385343E+02  0.59261934711E+01  0.10014937368E+02  0.62499999257E+02  0.99999952418E+01 0.  0.
    3000022    2    5    5    0    0  0.27687049254E+02 -0.20273951723E+01  0.30612598983E+01  0.27930571760E+02  0.24999822142E+00 0.  0.
        -13    1    4    4    0    0 -0.21008631198E+02 -0.89686494697E+00 -0.42080260956E+00  0.21032238383E+02  0.10500000000E+00 0. -1.
         13    1    4    4    0    0 -0.11591426428E+02 -0.43335532939E+00 -0.29664893630E+00  0.11603792013E+02  0.10500000000E+00 0.  1.
    3000001    1    5    5    0    0  0.32900336089E+02  0.79535886433E+01  0.69536774699E+01  0.34569427497E+02  0.10000000000E+01 0.  1.
        -13    1    6    6    0    0  0.17717051754E+02 -0.13478856253E+01  0.19302508817E+01  0.17873097437E+02  0.10500000000E+00 0. -1.
         13    1    6    6    0    0  0.99699974995E+01 -0.67950954695E+00  0.11310090165E+01  0.10057474323E+02  0.10500000000E+00 0.  1.
</event>
<event>
11    0  0.3443539E-009  0.9118800E+02  0.7816531E-02  0.1126479E+00
         25   -1    0    0    0    0  0.00000000000E+00  0.00000000000E+00  0.99999998245E-14  0.12500000000E+03  0.12500000000E+03 0.  0.
    3000001    1    3    3    0    0 -0.20012814723E+02  0.30577863999E+02  0.44969191200E+02  0.57954695039E+02  0.10000000000E+01 0.  1.
    1000022    2    1    0    0    0 -0.21297080346E+02  0.30342099733E+02  0.49315735336E+02  0.62500002133E+02  0.99999933720E+01 0.  0.
    3000022    2    3    3    0    0 -0.12842656230E+01 -0.23576426589E+00  0.43465441354E+01  0.45453070937E+01  0.24989533000E+00 0.  0.
    1000022    2    1    0    0    0  0.21297080346E+02 -0.30342099733E+02 -0.49315735336E+02  0.62499997867E+02  0.99999667096E+01 0.  0.
    3000022    2    5    5    0    0  0.12197031408E+02 -0.13744077193E+02 -0.16996637714E+02  0.25032287582E+02  0.24998988788E+00 0.  0.
        -13    1    4    4    0    0 -0.29818377365E+00 -0.44177025677E-01  0.10082025331E+01  0.10575266049E+01  0.10500000000E+00 0. -1.
         13    1    4    4    0    0 -0.98608184932E+00 -0.19158724021E+00  0.33383416023E+01  0.34877804888E+01  0.10500000000E+00 0.  1.
    3000001    1    5    5    0    0  0.91000489371E+01 -0.16598022540E+02 -0.32319097622E+02  0.37467710285E+02  0.10000000000E+01 0.  1.
        -13    1    6    6    0    0  0.90025021863E+01 -0.10181236368E+02 -0.12542122500E+02  0.18493741682E+02  0.10500000000E+00 0. -1.
         13    1    6    6    0    0  0.31945292222E+01 -0.35628408253E+01 -0.44545152143E+01  0.65385459004E+01  0.10500000000E+00 0. -1.
</event>
<event>
11    0  0.3443539E-009  0.9118800E+02  0.7816531E-02  0.1126479E+00
         25   -1    0    0    0    0  0.00000000000E+00  0.00000000000E+00  0.99999998245E-14  0.12500000000E+03  0.12500000000E+03 0.  0.
    3000001    1    3    3    0    0  0.16009602173E+02  0.51787229107E+02 -0.57096905869E+01  0.54514447873E+02  0.10000000000E+01 0. -1.
    1000022    2    1    0    0    0  0.19790720929E+02  0.58347503100E+02 -0.31853079274E+01  0.62500001211E+02  0.10000010597E+02 0.  0.
    3000022    2    3    3    0    0  0.37811187559E+01  0.65602739932E+01  0.25243826595E+01  0.79855533384E+01  0.25000079263E+00 0.  0.
    1000022    2    1    0    0    0 -0.19790720929E+02 -0.58347503100E+02  0.31853079274E+01  0.62499998789E+02  0.99999954584E+01 0.  0.
    3000022    2    5    5    0    0 -0.78534374474E+01 -0.27583585357E+02  0.62177578127E+01  0.29347123738E+02  0.24999724503E+00 0.  0.
        -13    1    4    4    0    0  0.22713142297E+01  0.39065287700E+01  0.14419266657E+01  0.47444718221E+01  0.10500000000E+00 0.  1.
         13    1    4    4    0    0  0.15098045262E+01  0.26537452231E+01  0.10824559938E+01  0.32410815163E+01  0.10500000000E+00 0. -1.
    3000001    1    5    5    0    0 -0.11937283482E+02 -0.30763917743E+02 -0.30324498853E+01  0.33152875051E+02  0.10000000000E+01 0. -1.
        -13    1    6    6    0    0 -0.42216025697E+01 -0.14663840587E+02  0.33596373826E+01  0.15625246794E+02  0.10500000000E+00 0.  1.
         13    1    6    6    0    0 -0.36318348777E+01 -0.12919744769E+02  0.28581204301E+01  0.13721876944E+02  0.10500000000E+00 0. -1.
</event>
<event>
11    0  0.3443539E-009  0.9118800E+02  0.7816531E-02  0.1126479E+00
         25   -1    0    0    0    0  0.00000000000E+00  0.00000000000E+00  0.99999998245E-14  0.12500000000E+03  0.12500000000E+03 0.  0.
    3000001    1    3    3    0    0  0.19405682544E+01 -0.35252485685E+02 -0.33946198218E+02  0.48988242728E+02  0.10000000000E+01 0. -1.
    1000022    2    1    0    0    0  0.42478057850E+01 -0.47516969899E+02 -0.39119602879E+02  0.62499998117E+02  0.10000007642E+02 0.  0.
    3000022    2    3    3    0    0  0.23072375306E+01 -0.12264484214E+02 -0.51734046614E+01  0.13511755389E+02  0.24999969835E+00 0.  0.
    1000022    2    1    0    0    0 -0.42478057850E+01  0.47516969899E+02  0.39119602879E+02  0.62500001883E+02  0.10000031177E+02 0.  0.
    3000022    2    5    5    0    0  0.55469969807E+00  0.13487955817E+02  0.16612863171E+02  0.21407530667E+02  0.25000530108E+00 0.  0.
        -13    1    4    4    0    0  0.88925836621E+00 -0.46975458669E+01 -0.19161931795E+01  0.51517510532E+01  0.10500000000E+00 0.  1.
         13    1    4    4    0    0  0.14179791644E+01 -0.75669383472E+01 -0.32572114818E+01  0.83600043360E+01  0.10500000000E+00 0. -1.
    3000001    1    5    5    0    0 -0.48025054831E+01  0.34029014082E+02  0.22506739709E+02  0.41092471216E+02  0.10000000000E+01 0. -1.
        -13    1    6    6    0    0  0.39743086153E+00  0.98307531007E+01  0.12163470798E+02  0.15644893885E+02  0.10500000000E+00 0. -1.
         13    1    6    6    0    0  0.15726883655E+00  0.36572027161E+01  0.44493923722E+01  0.57626367815E+01  0.10500000000E+00 0.  1.
</event>
<event>
11    0  0.3443539E-009  0.9118800E+02  0.7816531E-02  0.1126479E+00
         25   -1    0    0    0    0  0.00000000000E+00  0.00000000000E+00  0.99999998245E-14  0.12500000000E+03  0.12500000000E+03 0.  0.
    3000001    1    3    3    0    0  0.12239229066E+02  0.65432023370E+01  0.25372788722E+02  0.28937702613E+02  0.10000000000E+01 0. -1.
    1000022    2    1    0    0    0  0.34984030145E+02  0.10268483999E+02  0.49768723431E+02  0.62500000443E+02  0.10000004727E+02 0.  0.
    3000022    2    3    3    0    0  0.22744801080E+02  0.37252816621E+01  0.24395934709E+02  0.33562297830E+02  0.25001142290E+00 0.  0.
    1000022    2    1    0    0    0 -0.34984030145E+02 -0.10268483999E+02 -0.49768723431E+02  0.62499999557E+02  0.99999991932E+01 0.  0.
    3000022    2    5    5    0    0 -0.11898998264E+02  0.66454785581E+00 -0.12176742244E+02  0.17040050898E+02  0.24999881724E+00 0.  0.
        -13    1    4    4    0    0  0.59852264517E+01  0.96647786221E+00  0.64618733842E+01  0.88613682786E+01  0.10500000000E+00 0.  1.
         13    1    4    4    0    0  0.16759574628E+02  0.27588037999E+01  0.17934061324E+02  0.24700929552E+02  0.10500000000E+00 0. -1.
    3000001    1    5    5    0    0 -0.23085031882E+02 -0.10933031855E+02 -0.37591981187E+02  0.45459948659E+02  0.10000000000E+01 0.  1.
        -13    1    6    6    0    0 -0.81090827028E+01  0.46563327725E+00 -0.82283974202E+01  0.11562507762E+02  0.10500000000E+00 0. -1.
         13    1    6    6    0    0 -0.37899155609E+01  0.19891457857E+00 -0.39483448238E+01  0.54775431368E+01  0.10500000000E+00 0.  1.
</event>
<event>
11    0  0.3443539E-009  0.9118800E+02  0.7816531E-02  0.1126479E+00
         25   -1    0    0    0    0  0.00000000000E+00  0.00000000000E+00  0.99999998245E-14  0.12500000000E+03  0.12500000000E+03 0.  0.
    3000001    1    3    3    0    0  0.35666575745E+01 -0.32371342140E+01  0.29416712897E+01  0.57317985092E+01  0.10000000000E+01 0. -1.
    1000022    2    1    0    0    0  0.15440416094E+02 -0.32550535364E+02  0.50082995445E+02  0.62499998858E+02  0.99999811448E+01 0.  0.
    3000022    2    3    3    0    0  0.11873758520E+02 -0.29313401150E+02  0.47141324155E+02  0.56768200349E+02  0.24999879730E+00 0.  0.
    1000022    2    1    0    0    0 -0.15440416094E+02  0.32550535364E+02 -0.50082995445E+02  0.62500001142E+02  0.99999954152E+01 0.  0.
    3000022    2    5    5    0    0 -0.26584268619E+01  0.12064943998E+02 -0.10972748573E+02  0.16525550490E+02  0.25000137367E+00 0.  0.
        -13    1    4    4    0    0  0.65223549986E+01 -0.16007398270E+02  0.25662618256E+02  0.30941217087E+02  0.10500000000E+00 0. -1.
         13    1    4    4    0    0  0.53514035213E+01 -0.13306002881E+02  0.21478705899E+02  0.25826983262E+02  0.10500000000E+00 0.  1.
    3000001    1    5    5    0    0 -0.12781989233E+02  0.20485591366E+02 -0.39110246872E+02  0.45974450652E+02  0.10000000000E+01 0. -1.
        -13    1    6    6    0    0 -0.11391585001E+01  0.49130968770E+01 -0.45222598674E+01  0.67748108696E+01  0.10500000000E+00 0.  1.
         13    1    6    6    0    0 -0.15192683618E+01  0.71518471210E+01 -0.64504887054E+01  0.97507396200E+01  0.10500000000E+00 0. -1.
</event>
<event>
11    0  0.3443539E-009  0.9118800E+02  0.7816531E-02  0.1126479E+00
         25   -1    0    0    0    0  0.00000000000E+00  0.00000000000E+00  0.99999998245E-14  0.12500000000E+03  0.12500000000E+03 0.  0.
    3000001    1    3    3    0    0  0.19275055552E+02 -0.48736311372E+01  0.46631793684E+02  0.50703098812E+02  0.10000000000E+01 0.  1.
    1000022    2    1    0    0    0  0.21230536889E+02 -0.10047226766E+02  0.57048816668E+02  0.62499999641E+02  0.10000000481E+02 0.  0.
    3000022    2    3    3    0    0  0.19554813372E+01 -0.51735956287E+01  0.10417022985E+02  0.11796900829E+02  0.25000464276E+00 0.  0.
    1000022    2    1    0    0    0 -0.21230536889E+02  0.10047226766E+02 -0.57048816668E+02  0.62500000359E+02  0.10000004965E+02 0.  0.
    3000022    2    5    5    0    0 -0.10353430642E+00  0.44378116371E+00  0.31758666747E+00  0.60912350887E+00  0.25001816702E+00 0.  0.
        -13    1    4    4    0    0  0.14065513678E+01 -0.36553445978E+01  0.72937785085E+01  0.82795024494E+01  0.10500000000E+00 0. -1.
         13    1    4    4    0    0  0.54892996943E+00 -0.15182510309E+01  0.31232444764E+01  0.35173983800E+01  0.10500000000E+00 0.  1.
    3000001    1    5    5    0    0 -0.21127002582E+02  0.96034456021E+01 -0.57366403336E+02  0.61890876850E+02  0.10000000000E+01 0.  1.
        -13    1    6    6    0    0 -0.92812301138E-01  0.13960121285E+00  0.12137867939E+00  0.23207844726E+00  0.10500000000E+00 0. -1.
         13    1    6    6    0    0 -0.10722005280E-01  0.30417995086E+00  0.19620798808E+00  0.37704506161E+00  0.10500000000E+00 0.  1.
</event>
<event>
11    0  0.3443539E-009  0.9118800E+02  0.7816531E-02  0.1126479E+00
         25   -1    0    0    0    0  0.00000000000E+00  0.00000000000E+00  0.99999998245E-14  0.12500000000E+03  0.12500000000E+03 0.  0.
    3000001    1    3    3    0    0  0.24735910538E+02  0.15474832855E+02 -0.22576133909E+02  0.36905521867E+02  0.10000000000E+01 0. -1.
    1000022    2    1    0    0    0  0.45744162443E+02  0.27395882571E+02 -0.31035261935E+02  0.62500002477E+02  0.10000002345E+02 0.  0.
    3000022    2    3    3    0    0  0.21008251905E+02  0.11921049716E+02 -0.84591280256E+01  0.25594480610E+02  0.25003263183E+00 0.  0.
    1000022    2    1    0    0    0 -0.45744162443E+02 -0.27395882571E+02  0.31035261935E+02  0.62499997523E+02  0.99999713773E+01 0.  0.
    3000022    2    5    5    0    0 -0.21775790727E+02 -0.11416520228E+02  0.19778553048E+02  0.31555913136E+02  0.24999448879E+00 0.  0.
        -13    1    4    4    0    0  0.10607631266E+02  0.60126095402E+01 -0.43417083578E+01  0.12943522358E+02  0.10500000000E+00 0. -1.
         13    1    4    4    0    0  0.10400620638E+02  0.59084401758E+01 -0.41174196678E+01  0.12650958252E+02  0.10500000000E+00 0.  1.
    3000001    1    5    5    0    0 -0.23968371716E+02 -0.15979362343E+02  0.11256708886E+02  0.30944084387E+02  0.10000000000E+01 0. -1.
        -13    1    6    6    0    0 -0.13819246338E+02 -0.71822743192E+01  0.12553409525E+02  0.20003893357E+02  0.10500000000E+00 0. -1.
         13    1    6    6    0    0 -0.79565443895E+01 -0.42342459087E+01  0.72251435237E+01  0.11552019779E+02  0.10500000000E+00 0.  1.
</event>
<event>
11    0  0.3443539E-009  0.9118800E+02  0.7816531E-02  0.1126479E+00
         25   -1    0    0    0    0  0.00000000000E+00  0.00000000000E+00  0.99999998245E-14  0.12500000000E+03  0.12500000000E+03 0.  0.
    3000001    1    3    3    0    0 -0.12211984125E+01  0.13483852369E+01  0.37331362659E+01  0.42715073088E+01  0.10000000000E+01 0. -1.
    1000022    2    1    0    0    0 -0.45522963564E+02  0.22718038813E+02  0.34896998507E+02  0.62499999434E+02  0.99999962694E+01 0.  0.
    3000022    2    3    3    0    0 -0.44301765151E+02  0.21369653576E+02  0.31163862241E+02  0.58228492126E+02  0.24999194801E+00 0.  0.
    1000022    2    1    0    0    0  0.45522963564E+02 -0.22718038813E+02 -0.34896998507E+02  0.62500000566E+02  0.10000003339E+02 0.  0.
    3000022    2    5    5    0    0  0.22016979350E+02 -0.16484690792E+02 -0.18049942197E+02  0.32899169028E+02  0.24999843702E+00 0.  0.
        -13    1    4    4    0    0 -0.27938301740E+02  0.13432894746E+02  0.19693872015E+02  0.36726706704E+02  0.10500000000E+00 0.  1.
         13    1    4    4    0    0 -0.16363463412E+02  0.79367588301E+01  0.11469990226E+02  0.21501785422E+02  0.10500000000E+00 0. -1.
    3000001    1    5    5    0    0  0.23505984214E+02 -0.62333480211E+01 -0.16847056310E+02  0.29600831538E+02  0.10000000000E+01 0. -1.
        -13    1    6    6    0    0  0.11604189316E+02 -0.87671780652E+01 -0.95158018336E+01  0.17380510075E+02  0.10500000000E+00 0. -1.
         13    1    6    6    0    0  0.10412790034E+02 -0.77175127265E+01 -0.85341403631E+01  0.15518658953E+02  0.10500000000E+00 0.  1.
</event>
<event>
11    0  0.3443539E-009  0.9118800E+02  0.7816531E-02  0.1126479E+00
         25   -1    0    0    0    0  0.00000000000E+00  0.00000000000E+00  0.99999998245E-14  0.12500000000E+03  0.12500000000E+03 0.  0.
    3000001    1    3    3    0    0  0.90780501274E+01 -0.17600461633E+02 -0.15455533390E+02  0.25140818527E+02  0.10000000000E+01 0. -1.
    1000022    2    1    0    0    0  0.12053390807E+02 -0.41658242526E+02 -0.43881163345E+02  0.62499999612E+02  0.10000002738E+02 0.  0.
    3000022    2    3    3    0    0  0.29753406800E+01 -0.24057780892E+02 -0.28425629954E+02  0.37359181085E+02  0.24999888306E+00 0.  0.
    1000022    2    1    0    0    0 -0.12053390807E+02  0.41658242526E+02  0.43881163345E+02  0.62500000388E+02  0.10000007584E+02 0.  0.
    3000022    2    5    5    0    0 -0.22488866438E+00  0.15916052776E+02  0.18945691742E+02  0.24746172236E+02  0.24998773660E+00 0.  0.
        -13    1    4    4    0    0  0.17801304165E+01 -0.14391822255E+02 -0.16907059696E+02  0.22274494488E+02  0.10500000000E+00 0. -1.
         13    1    4    4    0    0  0.11952102635E+01 -0.96659586375E+01 -0.11518570258E+02  0.15084686597E+02  0.10500000000E+00 0.  1.
    3000001    1    5    5    0    0 -0.11828502143E+02  0.25742189750E+02  0.24935471603E+02  0.37753828152E+02  0.10000000000E+01 0.  1.
        -13    1    6    6    0    0 -0.38500909073E-01  0.74400317356E+01  0.88402006521E+01  0.11554900567E+02  0.10500000000E+00 0. -1.
         13    1    6    6    0    0 -0.18638775530E+00  0.84760210406E+01  0.10105491090E+02  0.13191271669E+02  0.10500000000E+00 0.  1.
</event>
<event>
11    0  0.3443539E-009  0.9118800E+02  0.7816531E-02  0.1126479E+00
         25   -1    0    0    0    0  0.00000000000E+00  0.00000000000E+00  0.99999998245E-14  0.12500000000E+03  0.12500000000E+03 0.  0.
    3000001    1    3    3    0    0  0.11566339632E+02  0.16154208963E+02 -0.31400912434E+02  0.37171978443E+02  0.10000000000E+01 0. -1.
    1000022    2    1    0    0    0  0.26697597560E+02  0.25035118005E+02 -0.49666196680E+02  0.62499998925E+02  0.99999961966E+01 0.  0.
    3000022    2    3    3    0    0  0.15131257928E+02  0.88809090417E+01 -0.18265284246E+02  0.25328020482E+02  0.25000203367E+00 0.  0.
    1000022    2    1    0    0    0 -0.26697597560E+02 -0.25035118005E+02  0.49666196680E+02  0.62500001075E+02  0.10000009635E+02 0.  0.
    3000022    2    5    5    0    0 -0.15287756538E+02 -0.83510242649E+01  0.19211147577E+02  0.25934259295E+02  0.25001540369E+00 0.  0.
        -13    1    4    4    0    0  0.10551541437E+02  0.61688797805E+01 -0.12784017251E+02  0.17687063819E+02  0.10500000000E+00 0. -1.
         13    1    4    4    0    0  0.45797164910E+01  0.27120292612E+01 -0.54812669947E+01  0.76409566626E+01  0.10500000000E+00 0.  1.
    3000001    1    5    5    0    0 -0.11409841022E+02 -0.16684093740E+02  0.30455049103E+02  0.36565741780E+02  0.10000000000E+01 0.  1.
        -13    1    6    6    0    0 -0.70073714620E+01 -0.37637823831E+01  0.88262444936E+01  0.11882042312E+02  0.10500000000E+00 0.  1.
         13    1    6    6    0    0 -0.82803850757E+01 -0.45872418818E+01  0.10384903084E+02  0.14052216983E+02  0.10500000000E+00 0. -1.
</event>
<event>
11    0  0.3443539E-009  0.9118800E+02  0.7816531E-02  0.1126479E+00
         25   -1    0    0    0    0  0.00000000000E+00  0.00000000000E+00  0.99999998245E-14  0.12500000000E+03  0.12500000000E+03 0.  0.
    3000001    1    3    3    0    0 -0.22117999287E+02  0.34051467688E+01  0.97652114088E+01  0.24436862950E+02  0.10000000000E+01 0.  1.
    1000022    2    1    0    0    0 -0.51051957622E+02  0.31794497396E+01  0.34494040089E+02  0.62499999293E+02  0.99999916111E+01 0.  0.
    3000022    2    3    3    0    0 -0.28933958335E+02 -0.22569702917E+00  0.24728828680E+02  0.38063136343E+02  0.24999251315E+00 0.  0.
    1000022    2    1    0    0    0  0.51051957622E+02 -0.31794497396E+01 -0.34494040089E+02  0.62500000707E+02  0.10000000449E+02 0.  0.
    3000022    2    5    5    0    0  0.24254819016E+01 -0.21438936800E+00 -0.49337695643E+01  0.55075861456E+01  0.24999556320E+00 0.  0.
        -13    1    4    4    0    0 -0.18575322153E+02 -0.18881943340E+00  0.15925089826E+02  0.24468301062E+02  0.10500000000E+00 0.  1.
         13    1    4    4    0    0 -0.10358636182E+02 -0.36877595768E-01  0.88037388539E+01  0.13594835281E+02  0.10500000000E+00 0. -1.
    3000001    1    5    5    0    0  0.48626475721E+02 -0.29650603716E+01 -0.29560270525E+02  0.56992414561E+02  0.10000000000E+01 0.  1.
        -13    1    6    6    0    0  0.13339823465E+01 -0.75795214677E-01 -0.25867078828E+01  0.29133033632E+01  0.10500000000E+00 0. -1.
         13    1    6    6    0    0  0.10914995550E+01 -0.13859415332E+00 -0.23470616815E+01  0.25942827823E+01  0.10500000000E+00 0.  1.
</event>
<event>
11    0  0.3443539E-009  0.9118800E+02  0.7816531E-02  0.1126479E+00
         25   -1    0    0    0    0  0.00000000000E+00  0.00000000000E+00  0.99999998245E-14  0.12500000000E+03  0.12500000000E+03 0.  0.
    3000001    1    3    3    0    0  0.14198169091E+02 -0.47530438305E+02  0.23818435747E+02  0.55036791808E+02  0.10000000000E+01 0.  1.
    1000022    2    1    0    0    0  0.13022719745E+02 -0.53023482644E+02  0.28725755219E+02  0.62500001727E+02  0.10000013086E+02 0.  0.
    3000022    2    3    3    0    0 -0.11754493461E+01 -0.54930443388E+01  0.49073194722E+01  0.74632099197E+01  0.25000125930E+00 0.  0.
    1000022    2    1    0    0    0 -0.13022719745E+02  0.53023482644E+02 -0.28725755219E+02  0.62499998273E+02  0.99999914940E+01 0.  0.
    3000022    2    5    5    0    0 -0.13647194866E+02  0.37584305999E+02 -0.21725823555E+02  0.45507141304E+02  0.25003072669E+00 0.  0.
        -13    1    4    4    0    0 -0.67154738341E+00 -0.32308858142E+01  0.28006527989E+01  0.43294664951E+01  0.10500000000E+00 0.  1.
         13    1    4    4    0    0 -0.50390196268E+00 -0.22621585246E+01  0.21066666733E+01  0.31337434245E+01  0.10500000000E+00 0. -1.
    3000001    1    5    5    0    0  0.62447512108E+00  0.15439176645E+02 -0.69999316648E+01  0.16992856969E+02  0.10000000000E+01 0. -1.
        -13    1    6    6    0    0 -0.38974021008E+01  0.10855420605E+02 -0.62573120830E+01  0.13122304643E+02  0.10500000000E+00 0. -1.
         13    1    6    6    0    0 -0.97497927651E+01  0.26728885394E+02 -0.15468511472E+02  0.32384836661E+02  0.10500000000E+00 0.  1.
</event>
<event>
11    0  0.3443539E-009  0.9118800E+02  0.7816531E-02  0.1126479E+00
         25   -1    0    0    0    0  0.00000000000E+00  0.00000000000E+00  0.99999998245E-14  0.12500000000E+03  0.12500000000E+03 0.  0.
    3000001    1    3    3    0    0 -0.81949093886E+01 -0.24153533066E+02 -0.41400282052E+02  0.48636745918E+02  0.10000000000E+01 0. -1.
    1000022    2    1    0    0    0 -0.14540428832E+02 -0.27577227405E+02 -0.53238355562E+02  0.62499998866E+02  0.99999906672E+01 0.  0.
    3000022    2    3    3    0    0 -0.63455194436E+01 -0.34236943395E+01 -0.11838073510E+02  0.13863252948E+02  0.24999591065E+00 0.  0.
    1000022    2    1    0    0    0  0.14540428832E+02  0.27577227405E+02  0.53238355562E+02  0.62500001134E+02  0.10000004839E+02 0.  0.
    3000022    2    5    5    0    0  0.57780290396E+01  0.90861431327E+01  0.27957655625E+02  0.29960584467E+02  0.24999390498E+00 0.  0.
        -13    1    4    4    0    0 -0.37083303472E+01 -0.19305514960E+01 -0.68248789198E+01  0.80042951166E+01  0.10500000000E+00 0. -1.
         13    1    4    4    0    0 -0.26371890963E+01 -0.14931428434E+01 -0.50131945898E+01  0.58589578319E+01  0.10500000000E+00 0.  1.
    3000001    1    5    5    0    0  0.87623997925E+01  0.18491084273E+02  0.25280699937E+02  0.32539416667E+02  0.10000000000E+01 0.  1.
        -13    1    6    6    0    0  0.22720272842E+01  0.35053413178E+01  0.10708104766E+02  0.11494522974E+02  0.10500000000E+00 0. -1.
         13    1    6    6    0    0  0.35060017555E+01  0.55808018149E+01  0.17249550859E+02  0.18466061493E+02  0.10500000000E+00 0.  1.
</event>
<event>
11    0  0.3443539E-009  0.9118800E+02  0.7816531E-02  0.1126479E+00
         25   -1    0    0    0    0  0.00000000000E+00  0.00000000000E+00  0.99999998245E-14  0.12500000000E+03  0.12500000000E+03 0.  0.
    3000001    1    3    3    0    0 -0.81334413646E+00 -0.82633782935E+00 -0.10652810496E+01  0.18652577857E+01  0.10000000000E+01 0.  1.
    1000022    2    1    0    0    0  0.45776248027E+01 -0.57981522922E+02 -0.20577623309E+02  0.62499998104E+02  0.99999766413E+01 0.  0.
    3000022    2    3    3    0    0  0.53909689391E+01 -0.57155185093E+02 -0.19512342259E+02  0.60634740319E+02  0.25000800050E+00 0.  0.
    1000022    2    1    0    0    0 -0.45776248027E+01  0.57981522922E+02  0.20577623309E+02  0.62500001896E+02  0.10000000337E+02 0.  0.
    3000022    2    5    5    0    0  0.15388377360E+01  0.57760485390E+01 -0.16194644924E+00  0.59849382111E+01  0.25000087027E+00 0.  0.
        -13    1    4    4    0    0  0.26573299533E+01 -0.27911845803E+02 -0.95964030214E+01  0.29635021757E+02  0.10500000000E+00 0. -1.
         13    1    4    4    0    0  0.27336389858E+01 -0.29243339290E+02 -0.99159392378E+01  0.30999718561E+02  0.10500000000E+00 0.  1.
    3000001    1    5    5    0    0 -0.61164625387E+01  0.52205474383E+02  0.20739569758E+02  0.56515063685E+02  0.10000000000E+01 0.  1.
        -13    1    6    6    0    0  0.73021436825E+00  0.26135552273E+01 -0.15252069248E-01  0.27157211888E+01  0.10500000000E+00 0.  1.
         13    1    6    6    0    0  0.80862336775E+00  0.31624933118E+01 -0.14669437999E+00  0.32692170223E+01  0.10500000000E+00 0. -1.
</event>
<event>
11    0  0.3443539E-009  0.9118800E+02  0.7816531E-02  0.1126479E+00
         25   -1    0    0    0    0  0.00000000000E+00  0.00000000000E+00  0.99999998245E-14  0.12500000000E+03  0.12500000000E+03 0.  0.
    3000001    1    3    3    0    0 -0.81730555180E+01 -0.54497862029E+01 -0.12732993694E+01  0.99559177097E+01  0.10000000000E+01 0.  1.
    1000022    2    1    0    0    0 -0.53851173916E+02 -0.18631588291E+02 -0.23646671028E+02  0.62500000846E+02  0.10000002034E+02 0.  0.
    3000022    2    3    3    0    0 -0.45678118398E+02 -0.13181802088E+02 -0.22373371659E+02  0.52544083136E+02  0.25001320156E+00 0.  0.
    1000022    2    1    0    0    0  0.53851173916E+02  0.18631588291E+02  0.23646671028E+02  0.62499999154E+02  0.99999914594E+01 0.  0.
    3000022    2    5    5    0    0  0.44505339676E+02  0.13622707649E+02  0.15385851551E+02  0.49021325578E+02  0.25002030121E+00 0.  0.
        -13    1    4    4    0    0 -0.29021993588E+02 -0.83598067237E+01 -0.14150120801E+02  0.33352652428E+02  0.10500000000E+00 0. -1.
         13    1    4    4    0    0 -0.16656124809E+02 -0.48219953643E+01 -0.82232508577E+01  0.19191430708E+02  0.10500000000E+00 0.  1.
    3000001    1    5    5    0    0  0.93458342398E+01  0.50088806417E+01  0.82608194773E+01  0.13478673576E+02  0.10000000000E+01 0. -1.
        -13    1    6    6    0    0  0.31952912166E+02  0.97431697559E+01  0.11062767056E+02  0.35189683044E+02  0.10500000000E+00 0. -1.
         13    1    6    6    0    0  0.12552427510E+02  0.38795378934E+01  0.43230844944E+01  0.13831642535E+02  0.10500000000E+00 0.  1.
</event>
<event>
11    0  0.3443539E-009  0.9118800E+02  0.7816531E-02  0.1126479E+00
         25   -1    0    0    0    0  0.00000000000E+00  0.00000000000E+00  0.99999998245E-14  0.12500000000E+03  0.12500000000E+03 0.  0.
    3000001    1    3    3    0    0 -0.30270142558E+02  0.14792326726E+02  0.43094029210E+02  0.54710052220E+02  0.10000000000E+01 0.  1.
    1000022    2    1    0    0    0 -0.32216200545E+02  0.19761778760E+02  0.48763085612E+02  0.62500000439E+02  0.10000002958E+02 0.  0.
    3000022    2    3    3    0    0 -0.19460579878E+01  0.49694520341E+01  0.56690564021E+01  0.77899482188E+01  0.24999509942E+00 0.  0.
    1000022    2    1    0    0    0  0.32216200545E+02 -0.19761778760E+02 -0.48763085612E+02  0.62499999561E+02  0.99999974690E+01 0.  0.
    3000022    2    5    5    0    0  0.73901670222E+01 -0.26267425395E+00 -0.74856260751E+01  0.10525239505E+02  0.25000505359E+00 0.  0.
        -13    1    4    4    0    0 -0.93168566060E+00  0.22086711416E+01  0.25112043734E+01  0.34732461455E+01  0.10500000000E+00 0.  1.
         13    1    4    4    0    0 -0.10143723272E+01  0.27607808925E+01  0.31578520286E+01  0.43167020733E+01  0.10500000000E+00 0. -1.
    3000001    1    5    5    0    0  0.24826033523E+02 -0.19499104506E+02 -0.41277459537E+02  0.51974760056E+02  0.10000000000E+01 0.  1.
        -13    1    6    6    0    0  0.41496656086E+01 -0.14019942062E+00 -0.41090740780E+01  0.58425076225E+01  0.10500000000E+00 0. -1.
         13    1    6    6    0    0  0.32405014136E+01 -0.12247483333E+00 -0.33765519970E+01  0.46827318827E+01  0.10500000000E+00 0.  1.
</event>
<event>
11    0  0.3443539E-009  0.9118800E+02  0.7816531E-02  0.1126479E+00
         25   -1    0    0    0    0  0.00000000000E+00  0.00000000000E+00  0.99999998245E-14  0.12500000000E+03  0.12500000000E+03 0.  0.
    3000001    1    3    3    0    0  0.42808217031E+01  0.73424331035E+01 -0.19256387393E+02  0.21072380353E+02  0.10000000000E+01 0.  1.
    1000022    2    1    0    0    0  0.23977282995E+01  0.30306689627E+02 -0.53684309305E+02  0.62499997208E+02  0.10000002418E+02 0.  0.
    3000022    2    3    3    0    0 -0.18830934036E+01  0.22964256523E+02 -0.34427921912E+02  0.41427616855E+02  0.25002533494E+00 0.  0.
    1000022    2    1    0    0    0 -0.23977282995E+01 -0.30306689627E+02  0.53684309305E+02  0.62500002792E+02  0.10000037318E+02 0.  0.
    3000022    2    5    5    0    0 -0.32064051935E+01 -0.22697661054E+01  0.64413494015E+01  0.75489309256E+01  0.25000713881E+00 0.  0.
        -13    1    4    4    0    0 -0.91816229055E+00  0.11971249004E+02 -0.17896449179E+02  0.21551049694E+02  0.10500000000E+00 0.  1.
         13    1    4    4    0    0 -0.96493111304E+00  0.10993007520E+02 -0.16531472733E+02  0.19876567161E+02  0.10500000000E+00 0. -1.
    3000001    1    5    5    0    0  0.80867689406E+00 -0.28036923521E+02  0.47242959903E+02  0.54951071866E+02  0.10000000000E+01 0. -1.
        -13    1    6    6    0    0 -0.24387322789E+01 -0.17180711007E+01  0.49213672717E+01  0.57558721544E+01  0.10500000000E+00 0. -1.
         13    1    6    6    0    0 -0.76767291460E+00 -0.55169500475E+00  0.15199821298E+01  0.17930587712E+01  0.10500000000E+00 0.  1.
</event>
<event>
11    0  0.3443539E-009  0.9118800E+02  0.7816531E-02  0.1126479E+00
         25   -1    0    0    0    0  0.00000000000E+00  0.00000000000E+00  0.99999998245E-14  0.12500000000E+03  0.12500000000E+03 0.  0.
    3000001    1    3    3    0    0 -0.56375500767E+01 -0.38377481572E+01 -0.10396666538E+02  0.12474011259E+02  0.10000000000E+01 0. -1.
    1000022    2    1    0    0    0 -0.33623721986E+02 -0.33243964449E+02 -0.39629965452E+02  0.62500000905E+02  0.10000004942E+02 0.  0.
    3000022    2    3    3    0    0 -0.27986171909E+02 -0.29406216292E+02 -0.29233298915E+02  0.50025989646E+02  0.24999975362E+00 0.  0.
    1000022    2    1    0    0    0  0.33623721986E+02  0.33243964449E+02  0.39629965452E+02  0.62499999095E+02  0.99999936339E+01 0.  0.
    3000022    2    5    5    0    0  0.33381576689E+02  0.30025275052E+02  0.37556203186E+02  0.58535268875E+02  0.25000075298E+00 0.  0.
        -13    1    4    4    0    0 -0.15500837961E+02 -0.16193829849E+02 -0.16163048105E+02  0.27636411701E+02  0.10500000000E+00 0. -1.
         13    1    4    4    0    0 -0.12485333949E+02 -0.13212386442E+02 -0.13070250809E+02  0.22389577945E+02  0.10500000000E+00 0.  1.
    3000001    1    5    5    0    0  0.24214529725E+00  0.32186893974E+01  0.20737622665E+01  0.39647302203E+01  0.10000000000E+01 0. -1.
        -13    1    6    6    0    0  0.91011192104E+01  0.81517535247E+01  0.10185763041E+02  0.15907301787E+02  0.10500000000E+00 0. -1.
         13    1    6    6    0    0  0.24280457479E+02  0.21873521527E+02  0.27370440145E+02  0.42627967088E+02  0.10500000000E+00 0.  1.
</event>
<event>
11    0  0.3443539E-009  0.9118800E+02  0.7816531E-02  0.1126479E+00
         25   -1    0    0    0    0  0.00000000000E+00  0.00000000000E+00  0.99999998245E-14  0.12500000000E+03  0.12500000000E+03 0.  0.
    3000001    1    3    3    0    0 -0.17010363208E+02 -0.63396070431E+01 -0.31426703246E+02  0.36306759024E+02  0.10000000000E+01 0.  1.
    1000022    2    1    0    0    0 -0.29608229016E+02 -0.18651145485E+02 -0.50810800062E+02  0.62500000894E+02  0.10000012773E+02 0.  0.
    3000022    2    3    3    0    0 -0.12597865808E+02 -0.12311538442E+02 -0.19384096816E+02  0.26193241870E+02  0.25001711272E+00 0.  0.
    1000022    2    1    0    0    0  0.29608229016E+02  0.18651145485E+02  0.50810800062E+02  0.62499999106E+02  0.10000001597E+02 0.  0.
    3000022    2    5    5    0    0  0.49665179873E+01  0.63244357421E+01  0.17488256856E+02  0.19250102213E+02  0.25003797756E+00 0.  0.
        -13    1    4    4    0    0 -0.46060571726E+01 -0.44396887204E+01 -0.70976649891E+01  0.95558606054E+01  0.10500000000E+00 0. -1.
         13    1    4    4    0    0 -0.79918086357E+01 -0.78718497217E+01 -0.12286431827E+02  0.16637381265E+02  0.10500000000E+00 0.  1.
    3000001    1    5    5    0    0  0.24641711029E+02  0.12326709743E+02  0.33322543206E+02  0.43249896893E+02  0.10000000000E+01 0. -1.
        -13    1    6    6    0    0  0.32070852372E+01  0.40099428028E+01  0.11077120456E+02  0.12209777214E+02  0.10500000000E+00 0.  1.
         13    1    6    6    0    0  0.17594327501E+01  0.23144929392E+01  0.64111363995E+01  0.70403249996E+01  0.10500000000E+00 0. -1.
</event>
<event>
11    0  0.3443539E-009  0.9118800E+02  0.7816531E-02  0.1126479E+00
         25   -1    0    0    0    0  0.00000000000E+00  0.00000000000E+00  0.99999998245E-14  0.12500000000E+03  0.12500000000E+03 0.  0.
    3000001    1    3    3    0    0 -0.11313024004E+02  0.14121218082E+02 -0.26177980046E+01  0.18309729070E+02  0.10000000000E+01 0. -1.
    1000022    2    1    0    0    0 -0.25282561443E+02  0.55617013249E+02 -0.85901119284E+01  0.62499999839E+02  0.99999940577E+01 0.  0.
    3000022    2    3    3    0    0 -0.13969537439E+02  0.41495795167E+02 -0.59723139238E+01  0.44190270769E+02  0.25000851619E+00 0.  0.
    1000022    2    1    0    0    0  0.25282561443E+02 -0.55617013249E+02  0.85901119284E+01  0.62500000161E+02  0.99999960643E+01 0.  0.
    3000022    2    5    5    0    0  0.11272833420E+02 -0.28633527735E+02 -0.41023082639E+00  0.30776394763E+02  0.25000274428E+00 0.  0.
        -13    1    4    4    0    0 -0.91210754161E+01  0.27099266553E+02 -0.38436715473E+01  0.28850461009E+02  0.10500000000E+00 0. -1.
         13    1    4    4    0    0 -0.48484620225E+01  0.14396528614E+02 -0.21286423766E+01  0.15339809760E+02  0.10500000000E+00 0.  1.
    3000001    1    5    5    0    0  0.14009728023E+02 -0.26983485514E+02  0.90003427548E+01  0.31723605398E+02  0.10000000000E+01 0.  1.
        -13    1    6    6    0    0  0.46903290778E+01 -0.12087839164E+02 -0.16092152986E+00  0.12967342181E+02  0.10500000000E+00 0.  1.
         13    1    6    6    0    0  0.65825043420E+01 -0.16545688571E+02 -0.24930929652E+00  0.17809052581E+02  0.10500000000E+00 0. -1.
</event>
<event>
11    0  0.3443539E-009  0.9118800E+02  0.7816531E-02  0.1126479E+00
         25   -1    0    0    0    0  0.00000000000E+00  0.00000000000E+00  0.99999998245E-14  0.12500000000E+03  0.12500000000E+03 0.  0.
    3000001    1    3    3    0    0 -0.89581458056E+01 -0.14427130281E+02 -0.18154554621E+01  0.17108078295E+02  0.10000000000E+01 0. -1.
    1000022    2    1    0    0    0 -0.27297478637E+02 -0.54706375472E+02  0.82649922042E+01  0.62500001044E+02  0.10000008863E+02 0.  0.
    3000022    2    3    3    0    0 -0.18339332831E+02 -0.40279245191E+02  0.10080447666E+02  0.45391922749E+02  0.25000779957E+00 0.  0.
    1000022    2    1    0    0    0  0.27297478637E+02  0.54706375472E+02 -0.82649922042E+01  0.62499998956E+02  0.99999958073E+01 0.  0.
    3000022    2    5    5    0    0  0.19618145912E+02  0.28679079111E+02 -0.58609814920E+01  0.35238825568E+02  0.24999140564E+00 0.  0.
        -13    1    4    4    0    0 -0.12582572199E+02 -0.27749071923E+02  0.69264132166E+01  0.31246093208E+02  0.10500000000E+00 0.  1.
         13    1    4    4    0    0 -0.57567606318E+01 -0.12530173267E+02  0.31540344498E+01  0.14145829541E+02  0.10500000000E+00 0. -1.
    3000001    1    5    5    0    0  0.76793327244E+01  0.26027296361E+02 -0.24040107122E+01  0.27261173387E+02  0.10000000000E+01 0. -1.
        -13    1    6    6    0    0  0.10705914452E+02  0.15561838412E+02 -0.32310497112E+01  0.19163458097E+02  0.10500000000E+00 0.  1.
         13    1    6    6    0    0  0.89122314599E+01  0.13117240699E+02 -0.26299317808E+01  0.16075367471E+02  0.10500000000E+00 0. -1.
</event>
<event>
11    0  0.3443539E-009  0.9118800E+02  0.7816531E-02  0.1126479E+00
         25   -1    0    0    0    0  0.00000000000E+00  0.00000000000E+00  0.99999998245E-14  0.12500000000E+03  0.12500000000E+03 0.  0.
    3000001    1    3    3    0    0  0.27416261658E+02  0.35889114793E+02 -0.18490836420E+02  0.48811791561E+02  0.10000000000E+01 0.  1.
    1000022    2    1    0    0    0  0.37103505214E+02  0.45550588878E+02 -0.18834100155E+02  0.62500001724E+02  0.10000032028E+02 0.  0.
    3000022    2    3    3    0    0  0.96872435562E+01  0.96614740850E+01 -0.34326373481E+00  0.13688210163E+02  0.24999650979E+00 0.  0.
    1000022    2    1    0    0    0 -0.37103505214E+02 -0.45550588878E+02  0.18834100155E+02  0.62499998276E+02  0.10000010480E+02 0.  0.
    3000022    2    5    5    0    0 -0.16916983412E+02 -0.28537135450E+02  0.10376392710E+02  0.34760386252E+02  0.24999858847E+00 0.  0.
        -13    1    4    4    0    0  0.39337835091E+01  0.39545714563E+01 -0.19978781742E+00  0.55824930158E+01  0.10500000000E+00 0.  1.
         13    1    4    4    0    0  0.57534600471E+01  0.57069026287E+01 -0.14347591739E+00  0.81057171469E+01  0.10500000000E+00 0. -1.
    3000001    1    5    5    0    0 -0.20186521802E+02 -0.17013453428E+02  0.84577074454E+01  0.27739612024E+02  0.10000000000E+01 0.  1.
        -13    1    6    6    0    0 -0.62152534356E+01 -0.10600661182E+02  0.38370188853E+01  0.12873893416E+02  0.10500000000E+00 0.  1.
         13    1    6    6    0    0 -0.10701729976E+02 -0.17936474268E+02  0.65393738245E+01  0.21886492836E+02  0.10500000000E+00 0. -1.
</event>
<event>
11    0  0.3443539E-009  0.9118800E+02  0.7816531E-02  0.1126479E+00
         25   -1    0    0    0    0  0.00000000000E+00  0.00000000000E+00  0.99999998245E-14  0.12500000000E+03  0.12500000000E+03 0.  0.
    3000001    1    3    3    0    0  0.38140524102E+02  0.74459939998E+01 -0.96714513902E+01  0.40058449513E+02  0.10000000000E+01 0. -1.
    1000022    2    1    0    0    0  0.56460763070E+02  0.18087003033E+02 -0.17067290774E+02  0.62499999864E+02  0.10000006172E+02 0.  0.
    3000022    2    3    3    0    0  0.18320238968E+02  0.10641009033E+02 -0.73958393834E+01  0.22441550350E+02  0.25002569590E+00 0.  0.
    1000022    2    1    0    0    0 -0.56460763070E+02 -0.18087003033E+02  0.17067290774E+02  0.62500000136E+02  0.10000007878E+02 0.  0.
    3000022    2    5    5    0    0 -0.60796905802E+01  0.10114935042E+01  0.26677918390E+01  0.67205182031E+01  0.24998992335E+00 0.  0.
        -13    1    4    4    0    0  0.13786811776E+02  0.80060800269E+01 -0.55914184199E+01  0.16895220664E+02  0.10500000000E+00 0. -1.
         13    1    4    4    0    0  0.45334271922E+01  0.26349290064E+01 -0.18044209635E+01  0.55463296863E+01  0.10500000000E+00 0.  1.
    3000001    1    5    5    0    0 -0.50381072490E+02 -0.19098496537E+02  0.14399498935E+02  0.55779481933E+02  0.10000000000E+01 0. -1.
        -13    1    6    6    0    0 -0.31639440701E+01  0.46498618566E+00  0.14167272635E+01  0.34992706912E+01  0.10500000000E+00 0. -1.
         13    1    6    6    0    0 -0.29157465101E+01  0.54650731850E+00  0.12510645755E+01  0.32212475118E+01  0.10500000000E+00 0.  1.
</event>
<event>
11    0  0.3443539E-009  0.9118800E+02  0.7816531E-02  0.1126479E+00
         25   -1    0    0    0    0  0.00000000000E+00  0.00000000000E+00  0.99999998245E-14  0.12500000000E+03  0.12500000000E+03 0.  0.
    3000001    1    3    3    0    0 -0.27445907266E+01  0.18316227876E+02  0.17439211043E+02  0.25458654003E+02  0.10000000000E+01 0.  1.
    1000022    2    1    0    0    0 -0.84109122276E+01  0.51460548390E+02  0.32974513705E+02  0.62499999915E+02  0.99999975095E+01 0.  0.
    3000022    2    3    3    0    0 -0.56663215009E+01  0.33144320514E+02  0.15535302662E+02  0.37041345912E+02  0.24999289045E+00 0.  0.
    1000022    2    1    0    0    0  0.84109122276E+01 -0.51460548390E+02 -0.32974513705E+02  0.62500000085E+02  0.99999985713E+01 0.  0.
    3000022    2    5    5    0    0  0.86779244339E+01 -0.25496245318E+02 -0.19315144379E+02  0.33143660056E+02  0.25000338747E+00 0.  0.
        -13    1    4    4    0    0 -0.29268203014E+01  0.16772357534E+02  0.79036998063E+01  0.18771194687E+02  0.10500000000E+00 0.  1.
         13    1    4    4    0    0 -0.27395011995E+01  0.16371962980E+02  0.76316028554E+01  0.18270151225E+02  0.10500000000E+00 0. -1.
    3000001    1    5    5    0    0 -0.26701220634E+00 -0.25964303072E+02 -0.13659369325E+02  0.29356340029E+02  0.10000000000E+01 0.  1.
        -13    1    6    6    0    0  0.51830351813E+01 -0.15091071248E+02 -0.11499768932E+02  0.19668756839E+02  0.10500000000E+00 0.  1.
         13    1    6    6    0    0  0.34948892526E+01 -0.10405174070E+02 -0.78153754473E+01  0.13474903216E+02  0.10500000000E+00 0. -1.
</event>
<event>
11    0  0.3443539E-009  0.9118800E+02  0.7816531E-02  0.1126479E+00
         25   -1    0    0    0    0  0.00000000000E+00  0.00000000000E+00  0.99999998245E-14  0.12500000000E+03  0.12500000000E+03 0.  0.
    3000001    1    3    3    0    0 -0.13387781019E+02  0.18497422045E+02  0.43899855097E+02  0.49493278134E+02  0.10000000000E+01 0. -1.
    1000022    2    1    0    0    0 -0.13668140915E+02  0.19697944058E+02  0.56845604295E+02  0.62499998320E+02  0.99999993073E+01 0.  0.
    3000022    2    3    3    0    0 -0.28035989604E+00  0.12005220129E+01  0.12945749197E+02  0.13006720185E+02  0.24998584171E+00 0.  0.
    1000022    2    1    0    0    0  0.13668140915E+02 -0.19697944058E+02 -0.56845604295E+02  0.62500001680E+02  0.10000020312E+02 0.  0.
    3000022    2    5    5    0    0 -0.10560962976E+01 -0.27043849862E+00 -0.60081377253E+01  0.61113579571E+01  0.25000156567E+00 0.  0.
        -13    1    4    4    0    0 -0.15489668748E+00  0.58064713293E+00  0.56410718110E+01  0.56739633637E+01  0.10500000000E+00 0.  1.
         13    1    4    4    0    0 -0.12546320856E+00  0.61987488001E+00  0.73046773865E+01  0.73327568216E+01  0.10500000000E+00 0. -1.
    3000001    1    5    5    0    0  0.14724237213E+02 -0.19427505559E+02 -0.50837466569E+02  0.56388643723E+02  0.10000000000E+01 0. -1.
        -13    1    6    6    0    0 -0.50675083820E+00 -0.62032167647E-01 -0.27200253780E+01  0.27695139391E+01  0.10500000000E+00 0.  1.
         13    1    6    6    0    0 -0.54934545943E+00 -0.20840633097E+00 -0.32881123473E+01  0.33418440180E+01  0.10500000000E+00 0. -1.
</event>
<event>
11    0  0.3443539E-009  0.9118800E+02  0.7816531E-02  0.1126479E+00
         25   -1    0    0    0    0  0.00000000000E+00  0.00000000000E+00  0.99999998245E-14  0.12500000000E+03  0.12500000000E+03 0.  0.
    3000001    1    3    3    0    0 -0.20693071570E+02  0.21280990221E+01 -0.30052460051E+01  0.21041946678E+02  0.10000000000E+01 0. -1.
    1000022    2    1    0    0    0 -0.56865736342E+02  0.12530240911E+02 -0.20384576862E+02  0.62499996302E+02  0.99999828490E+01 0.  0.
    3000022    2    3    3    0    0 -0.36172664771E+02  0.10402141889E+02 -0.17379330857E+02  0.41458049624E+02  0.25001011310E+00 0.  0.
    1000022    2    1    0    0    0  0.56865736342E+02 -0.12530240911E+02  0.20384576862E+02  0.62500003698E+02  0.10000029071E+02 0.  0.
    3000022    2    5    5    0    0  0.18075268352E+02 -0.65830451769E+01  0.10909281785E+02  0.22116210404E+02  0.25004758399E+00 0.  0.
        -13    1    4    4    0    0 -0.20548109131E+02  0.58756123925E+01 -0.98050036109E+01  0.23513756200E+02  0.10500000000E+00 0. -1.
         13    1    4    4    0    0 -0.15624555641E+02  0.45265294962E+01 -0.75743272460E+01  0.17944293424E+02  0.10500000000E+00 0.  1.
    3000001    1    5    5    0    0  0.38790467990E+02 -0.59471957340E+01  0.94752950769E+01  0.40383793293E+02  0.10000000000E+01 0.  1.
        -13    1    6    6    0    0  0.13065983988E+02 -0.47669325568E+01  0.78435675354E+01  0.15967972954E+02  0.10500000000E+00 0.  1.
         13    1    6    6    0    0  0.50092843644E+01 -0.18161126201E+01  0.30657142497E+01  0.61482374509E+01  0.10500000000E+00 0. -1.
</event>
<event>
11    0  0.3443539E-009  0.9118800E+02  0.7816531E-02  0.1126479E+00
         25   -1    0    0    0    0  0.00000000000E+00  0.00000000000E+00  0.99999998245E-14  0.12500000000E+03  0.12500000000E+03 0.  0.
    3000001    1    3    3    0    0  0.12053215317E+02  0.27253789424E+02 -0.24781609546E+02  0.38770829358E+02  0.10000000000E+01 0.  1.
    1000022    2    1    0    0    0  0.18503799674E+02  0.38044210931E+02 -0.44905423866E+02  0.62500002178E+02  0.10000029599E+02 0.  0.
    3000022    2    3    3    0    0  0.64505843570E+01  0.10790421507E+02 -0.20123814321E+02  0.23729172820E+02  0.25001016991E+00 0.  0.
    1000022    2    1    0    0    0 -0.18503799674E+02 -0.38044210931E+02  0.44905423866E+02  0.62499997822E+02  0.10000002368E+02 0.  0.
    3000022    2    5    5    0    0 -0.66468206042E+01 -0.12962491559E+02  0.90415838701E+01  0.17146986692E+02  0.25000429566E+00 0.  0.
        -13    1    4    4    0    0  0.48495490940E+01  0.80590740375E+01 -0.15059738582E+02  0.17755944129E+02  0.10500000000E+00 0.  1.
         13    1    4    4    0    0  0.16010352630E+01  0.27313474691E+01 -0.50640757385E+01  0.59732286911E+01  0.10500000000E+00 0. -1.
    3000001    1    5    5    0    0 -0.11856979070E+02 -0.25081719371E+02  0.35863839996E+02  0.45353011130E+02  0.10000000000E+01 0.  1.
        -13    1    6    6    0    0 -0.37593405259E+01 -0.72892052017E+01  0.50160499041E+01  0.96144128943E+01  0.10500000000E+00 0. -1.
         13    1    6    6    0    0 -0.28874800782E+01 -0.56732863578E+01  0.40255339660E+01  0.75325737973E+01  0.10500000000E+00 0.  1.
</event>
<event>
11    0  0.3443539E-009  0.9118800E+02  0.7816531E-02  0.1126479E+00
         25   -1    0    0    0    0  0.00000000000E+00  0.00000000000E+00  0.99999998245E-14  0.12500000000E+03  0.12500000000E+03 0.  0.
    3000001    1    3    3    0    0 -0.44051781154E+02  0.17454564443E+02 -0.12272211643E+02  0.48957414366E+02  0.10000000000E+01 0. -1.
    1000022    2    1    0    0    0 -0.56959553574E+02  0.17160472969E+02 -0.16351677322E+02  0.62499999585E+02  0.10000001050E+02 0.  0.
    3000022    2    3    3    0    0 -0.12907772420E+02 -0.29409147354E+00 -0.40794656794E+01  0.13542585220E+02  0.24999112962E+00 0.  0.
    1000022    2    1    0    0    0  0.56959553574E+02 -0.17160472969E+02  0.16351677322E+02  0.62500000415E+02  0.10000006232E+02 0.  0.
    3000022    2    5    5    0    0  0.30063138493E+02 -0.10878810806E+02  0.13533840821E+02  0.34718412514E+02  0.24999897002E+00 0.  0.
        -13    1    4    4    0    0 -0.53331893339E+01 -0.11373084628E+00 -0.17524984479E+01  0.56158809627E+01  0.10500000000E+00 0.  1.
         13    1    4    4    0    0 -0.75745830861E+01 -0.18036062726E+00 -0.23269672316E+01  0.79267042572E+01  0.10500000000E+00 0. -1.
    3000001    1    5    5    0    0  0.26896415081E+02 -0.62816621637E+01  0.28178365018E+01  0.27781587901E+02  0.10000000000E+01 0.  1.
        -13    1    6    6    0    0  0.17368443230E+02 -0.63540819621E+01  0.78284250359E+01  0.20083138235E+02  0.10500000000E+00 0. -1.
         13    1    6    6    0    0  0.12694695264E+02 -0.45247288434E+01  0.57054157848E+01  0.14635274279E+02  0.10500000000E+00 0.  1.
</event>
<event>
11    0  0.3443539E-009  0.9118800E+02  0.7816531E-02  0.1126479E+00
         25   -1    0    0    0    0  0.00000000000E+00  0.00000000000E+00  0.99999998245E-14  0.12500000000E+03  0.12500000000E+03 0.  0.
    3000001    1    3    3    0    0  0.46182286653E+02 -0.78507001003E+01  0.34526224976E+02  0.58202210471E+02  0.10000000000E+01 0.  1.
    1000022    2    1    0    0    0  0.50043681879E+02 -0.62737939301E+01  0.35531950699E+02  0.62499998369E+02  0.99999844694E+01 0.  0.
    3000022    2    3    3    0    0  0.38613952252E+01  0.15769061702E+01  0.10057257228E+01  0.42977878979E+01  0.24998086038E+00 0.  0.
    1000022    2    1    0    0    0 -0.50043681879E+02  0.62737939301E+01 -0.35531950699E+02  0.62500001631E+02  0.10000004856E+02 0.  0.
    3000022    2    5    5    0    0 -0.88837601750E+01 -0.24718414041E+01 -0.49199982167E+01  0.10454666327E+02  0.24994157908E+00 0.  0.
        -13    1    4    4    0    0  0.22588486897E+01  0.85308251147E+00  0.57216064350E+00  0.24836545606E+01  0.10500000000E+00 0. -1.
         13    1    4    4    0    0  0.16025465356E+01  0.72382365876E+00  0.43356507928E+00  0.18141333373E+01  0.10500000000E+00 0.  1.
    3000001    1    5    5    0    0 -0.41159921704E+02  0.87456353342E+01 -0.30611952483E+02  0.52045335303E+02  0.10000000000E+01 0.  1.
        -13    1    6    6    0    0 -0.23835553230E+01 -0.69818424075E+00 -0.13390826914E+01  0.28236438632E+01  0.10500000000E+00 0. -1.
         13    1    6    6    0    0 -0.65002048520E+01 -0.17736571634E+01 -0.35809155252E+01  0.76310224643E+01  0.10500000000E+00 0.  1.
</event>
<event>
11    0  0.3443539E-009  0.9118800E+02  0.7816531E-02  0.1126479E+00
         25   -1    0    0    0    0  0.00000000000E+00  0.00000000000E+00  0.99999998245E-14  0.12500000000E+03  0.12500000000E+03 0.  0.
    3000001    1    3    3    0    0 -0.10648657189E+01  0.46569192915E+01  0.75606244302E+01  0.89991042922E+01  0.10000000000E+01 0. -1.
    1000022    2    1    0    0    0 -0.13007595527E+02  0.10567498938E+02  0.59374910460E+02  0.62500005997E+02  0.10000059117E+02 0.  0.
    3000022    2    3    3    0    0 -0.11942729808E+02  0.59105796465E+01  0.51814286030E+02  0.53500901705E+02  0.24999892953E+00 0.  0.
    1000022    2    1    0    0    0  0.13007595527E+02 -0.10567498938E+02 -0.59374910460E+02  0.62499994003E+02  0.99999841533E+01 0.  0.
    3000022    2    5    5    0    0  0.85227322463E+01 -0.74415943145E+01 -0.22263672302E+02  0.24974945356E+02  0.25000055481E+00 0.  0.
        -13    1    4    4    0    0 -0.44115366078E+01  0.21789198234E+01  0.18896497180E+02  0.19526852729E+02  0.10500000000E+00 0.  1.
         13    1    4    4    0    0 -0.75311932001E+01  0.37316598231E+01  0.32917788850E+02  0.33974048976E+02  0.10500000000E+00 0. -1.
    3000001    1    5    5    0    0  0.44848632805E+01 -0.31259046235E+01 -0.37111238157E+02  0.37525048647E+02  0.10000000000E+01 0.  1.
        -13    1    6    6    0    0  0.28171681786E+01 -0.24128538411E+01 -0.73857121168E+01  0.82654744980E+01  0.10500000000E+00 0. -1.
         13    1    6    6    0    0  0.57055640677E+01 -0.50287404734E+01 -0.14877960186E+02  0.16709470858E+02  0.10500000000E+00 0.  1.
</event>
<event>
11    0  0.3443539E-009  0.9118800E+02  0.7816531E-02  0.1126479E+00
         25   -1    0    0    0    0  0.00000000000E+00  0.00000000000E+00  0.99999998245E-14  0.12500000000E+03  0.12500000000E+03 0.  0.
    3000001    1    3    3    0    0 -0.53057912702E+01  0.13543537733E+01  0.31063333282E+02  0.31558142685E+02  0.10000000000E+01 0. -1.
    1000022    2    1    0    0    0 -0.10050785154E+02 -0.70466645974E+01  0.60461360890E+02  0.62500001222E+02  0.10000011397E+02 0.  0.
    3000022    2    3    3    0    0 -0.47449938838E+01 -0.84010183707E+01  0.29398027608E+02  0.30941858537E+02  0.25001173139E+00 0.  0.
    1000022    2    1    0    0    0  0.10050785154E+02  0.70466645974E+01 -0.60461360890E+02  0.62499998778E+02  0.99999961177E+01 0.  0.
    3000022    2    5    5    0    0  0.22561260313E+01  0.50050798636E+01 -0.10193495900E+02  0.11580621034E+02  0.24999154742E+00 0.  0.
        -13    1    4    4    0    0 -0.17911999038E+01 -0.32510257699E+01  0.11159726288E+02  0.11761295909E+02  0.10500000000E+00 0. -1.
         13    1    4    4    0    0 -0.29537939800E+01 -0.51499926008E+01  0.18238301320E+02  0.19180562628E+02  0.10500000000E+00 0.  1.
    3000001    1    5    5    0    0  0.77946591227E+01  0.20415847338E+01 -0.50267864990E+02  0.50919377743E+02  0.10000000000E+01 0.  1.
        -13    1    6    6    0    0  0.57021708556E+00  0.12540162788E+01 -0.25068757294E+01  0.28623688223E+01  0.10500000000E+00 0.  1.
         13    1    6    6    0    0  0.16859089457E+01  0.37510635848E+01 -0.76866201703E+01  0.87182522121E+01  0.10500000000E+00 0. -1.
</event>
<event>
11    0  0.3443539E-009  0.9118800E+02  0.7816531E-02  0.1126479E+00
         25   -1    0    0    0    0  0.00000000000E+00  0.00000000000E+00  0.99999998245E-14  0.12500000000E+03  0.12500000000E+03 0.  0.
    3000001    1    3    3    0    0 -0.50628947886E+02 -0.19246587900E+02  0.10811863778E+02  0.55241450996E+02  0.10000000000E+01 0. -1.
    1000022    2    1    0    0    0 -0.56789257670E+02 -0.22468701424E+02  0.87400008408E+01  0.62500000923E+02  0.10000008513E+02 0.  0.
    3000022    2    3    3    0    0 -0.61603097846E+01 -0.32221135244E+01 -0.20718629372E+01  0.72585499270E+01  0.24999761122E+00 0.  0.
    1000022    2    1    0    0    0  0.56789257670E+02  0.22468701424E+02 -0.87400008408E+01  0.62499999077E+02  0.99999969753E+01 0.  0.
    3000022    2    5    5    0    0  0.94051023132E+01  0.72094879895E+01 -0.38839294684E+01  0.12473174246E+02  0.25000210499E+00 0.  0.
        -13    1    4    4    0    0 -0.31312089206E+01 -0.15641922686E+01 -0.10624333999E+01  0.36593655853E+01  0.10500000000E+00 0. -1.
         13    1    4    4    0    0 -0.30291008640E+01 -0.16579212558E+01 -0.10094295373E+01  0.35991843417E+01  0.10500000000E+00 0.  1.
    3000001    1    5    5    0    0  0.47384155357E+02  0.15259213435E+02 -0.48560713725E+01  0.50026824831E+02  0.10000000000E+01 0. -1.
        -13    1    6    6    0    0  0.37939016113E+01  0.29772316337E+01 -0.15464045308E+01  0.50655690312E+01  0.10500000000E+00 0.  1.
         13    1    6    6    0    0  0.56112007019E+01  0.42322563558E+01 -0.23375249376E+01  0.74076052143E+01  0.10500000000E+00 0. -1.
</event>
<event>
11    0  0.3443539E-009  0.9118800E+02  0.7816531E-02  0.1126479E+00
         25   -1    0    0    0    0  0.00000000000E+00  0.00000000000E+00  0.99999998245E-14  0.12500000000E+03  0.12500000000E+03 0.  0.
    3000001    1    3    3    0    0 -0.55966665299E+02  0.66250993184E+01  0.18506901421E+02  0.59326764330E+02  0.10000000000E+01 0. -1.
    1000022    2    1    0    0    0 -0.58248766248E+02  0.88080523949E+01  0.18323464039E+02  0.62499998845E+02  0.99999982410E+01 0.  0.
    3000022    2    3    3    0    0 -0.22821009495E+01  0.21829530766E+01 -0.18343738204E+00  0.31732345153E+01  0.24999827530E+00 0.  0.
    1000022    2    1    0    0    0  0.58248766248E+02 -0.88080523949E+01 -0.18323464039E+02  0.62500001155E+02  0.10000012675E+02 0.  0.
    3000022    2    5    5    0    0  0.57199242437E+02 -0.80251477200E+01 -0.16560849703E+02  0.60087274635E+02  0.24999786381E+00 0.  0.
        -13    1    4    4    0    0 -0.16209680342E+01  0.15029252023E+01 -0.15877449502E+00  0.22186833645E+01  0.10500000000E+00 0.  1.
         13    1    4    4    0    0 -0.66113291526E+00  0.68002787434E+00 -0.24662887019E-01  0.95455115081E+00  0.10500000000E+00 0.  1.
    3000001    1    5    5    0    0  0.10495238115E+01 -0.78290467494E+00 -0.17626143356E+01  0.24127265193E+01  0.10000000000E+01 0.  1.
        -13    1    6    6    0    0  0.40293325625E+02 -0.56972506647E+01 -0.11677298381E+02  0.42336521793E+02  0.10500000000E+00 0. -1.
         13    1    6    6    0    0  0.16905916812E+02 -0.23278970553E+01 -0.48835513220E+01  0.17750752843E+02  0.10500000000E+00 0.  1.
</event>
<event>
11    0  0.3443539E-009  0.9118800E+02  0.7816531E-02  0.1126479E+00
         25   -1    0    0    0    0  0.00000000000E+00  0.00000000000E+00  0.99999998245E-14  0.12500000000E+03  0.12500000000E+03 0.  0.
    3000001    1    3    3    0    0  0.67503379958E+01 -0.75878537764E+01 -0.27829588640E+02  0.29641669856E+02  0.10000000000E+01 0. -1.
    1000022    2    1    0    0    0  0.17412887339E+02 -0.24636991532E+02 -0.53815052329E+02  0.62500000344E+02  0.10000009428E+02 0.  0.
    3000022    2    3    3    0    0  0.10662549344E+02 -0.17049137755E+02 -0.25985463689E+02  0.32858330487E+02  0.25000517964E+00 0.  0.
    1000022    2    1    0    0    0 -0.17412887339E+02  0.24636991532E+02  0.53815052329E+02  0.62499999656E+02  0.10000005130E+02 0.  0.
    3000022    2    5    5    0    0  0.18356225533E+00 -0.40480372637E+00 -0.76750148240E-01  0.51570388419E+00  0.24999750489E+00 0.  0.
        -13    1    4    4    0    0  0.79895032362E+01 -0.12819873975E+02 -0.19534808267E+02  0.24694150921E+02  0.10500000000E+00 0.  1.
         13    1    4    4    0    0  0.26730461075E+01 -0.42292637805E+01 -0.64506554218E+01  0.81641795662E+01  0.10500000000E+00 0. -1.
    3000001    1    5    5    0    0 -0.17596449595E+02  0.25041795258E+02  0.53891802477E+02  0.61984295772E+02  0.10000000000E+01 0. -1.
        -13    1    6    6    0    0  0.24312735615E-01 -0.18253633607E+00 -0.68206507403E-01  0.22268307244E+00  0.10500000000E+00 0.  1.
         13    1    6    6    0    0  0.15924951972E+00 -0.22226739030E+00 -0.85436408375E-02  0.29302081175E+00  0.10500000000E+00 0.  1.
</event>
<event>
11    0  0.3443539E-009  0.9118800E+02  0.7816531E-02  0.1126479E+00
         25   -1    0    0    0    0  0.00000000000E+00  0.00000000000E+00  0.99999998245E-14  0.12500000000E+03  0.12500000000E+03 0.  0.
    3000001    1    3    3    0    0  0.19242852007E+02 -0.32280122508E+02 -0.80857223601E+01  0.38453511785E+02  0.10000000000E+01 0.  1.
    1000022    2    1    0    0    0  0.36566278306E+02 -0.48949009571E+02 -0.85528767214E+01  0.62500000599E+02  0.10000006376E+02 0.  0.
    3000022    2    3    3    0    0  0.17323426299E+02 -0.16668887063E+02 -0.46715436131E+00  0.24046488814E+02  0.24999288200E+00 0.  0.
    1000022    2    1    0    0    0 -0.36566278306E+02  0.48949009571E+02  0.85528767214E+01  0.62499999401E+02  0.99999988897E+01 0.  0.
    3000022    2    5    5    0    0 -0.30726479468E+02  0.37331124074E+02  0.33752596619E+01  0.48468383945E+02  0.24999870030E+00 0.  0.
        -13    1    4    4    0    0  0.92147157932E+01 -0.87901055542E+01 -0.20859971436E+00  0.12737012273E+02  0.10500000000E+00 0.  1.
         13    1    4    4    0    0  0.81087105054E+01 -0.78787815088E+01 -0.25855464695E+00  0.11309476541E+02  0.10500000000E+00 0. -1.
    3000001    1    5    5    0    0 -0.58397988383E+01  0.11617885497E+02  0.51776170595E+01  0.14031615456E+02  0.10000000000E+01 0. -1.
        -13    1    6    6    0    0 -0.12348085424E+02  0.14961374440E+02  0.14119256190E+01  0.19450514074E+02  0.10500000000E+00 0. -1.
         13    1    6    6    0    0 -0.18378394044E+02  0.22369749634E+02  0.19633340430E+01  0.29017869872E+02  0.10500000000E+00 0.  1.
</event>
<event>
11    0  0.3443539E-009  0.9118800E+02  0.7816531E-02  0.1126479E+00
         25   -1    0    0    0    0  0.00000000000E+00  0.00000000000E+00  0.99999998245E-14  0.12500000000E+03  0.12500000000E+03 0.  0.
    3000001    1    3    3    0    0 -0.21233364339E+01 -0.33152208093E+02 -0.49119018880E+02  0.59306453905E+02  0.10000000000E+01 0.  1.
    1000022    2    1    0    0    0 -0.23723779070E+01 -0.32701967522E+02 -0.52260913457E+02  0.62500000518E+02  0.10000006633E+02 0.  0.
    3000022    2    3    3    0    0 -0.24904147314E+00  0.45024057151E+00 -0.31418945769E+01  0.31935466127E+01  0.25000041489E+00 0.  0.
    1000022    2    1    0    0    0  0.23723779070E+01  0.32701967522E+02  0.52260913457E+02  0.62499999482E+02  0.10000000157E+02 0.  0.
    3000022    2    5    5    0    0  0.30316570546E+01  0.24348755527E+01  0.75221153561E+01  0.84713815024E+01  0.25004334634E+00 0.  0.
        -13    1    4    4    0    0 -0.47474131035E-01  0.22099358511E+00 -0.13654868642E+01  0.13880458689E+01  0.10500000000E+00 0. -1.
         13    1    4    4    0    0 -0.20156734211E+00  0.22924698641E+00 -0.17764077127E+01  0.18055007438E+01  0.10500000000E+00 0.  1.
    3000001    1    5    5    0    0 -0.65927914760E+00  0.30267091969E+02  0.44738798101E+02  0.54028617980E+02  0.10000000000E+01 0.  1.
        -13    1    6    6    0    0  0.10348636530E+01  0.87117089147E+00  0.27226180487E+01  0.30419657365E+01  0.10500000000E+00 0. -1.
         13    1    6    6    0    0  0.19967934016E+01  0.15637046613E+01  0.47994973073E+01  0.54294157659E+01  0.10500000000E+00 0.  1.
</event>
<event>
11    0  0.3443539E-009  0.9118800E+02  0.7816531E-02  0.1126479E+00
         25   -1    0    0    0    0  0.00000000000E+00  0.00000000000E+00  0.99999998245E-14  0.12500000000E+03  0.12500000000E+03 0.  0.
    3000001    1    3    3    0    0  0.12707836974E+01 -0.46001492290E+01 -0.11578359185E+02  0.12563226717E+02  0.10000000000E+01 0. -1.
    1000022    2    1    0    0    0 -0.52017398152E+01 -0.76193964901E+01 -0.61001118414E+02  0.62499997178E+02  0.99999949735E+01 0.  0.
    3000022    2    3    3    0    0 -0.64725235126E+01 -0.30192472611E+01 -0.49422759229E+02  0.49936770461E+02  0.24999910195E+00 0.  0.
    1000022    2    1    0    0    0  0.52017398152E+01  0.76193964901E+01  0.61001118414E+02  0.62500002822E+02  0.10000030253E+02 0.  0.
    3000022    2    5    5    0    0  0.74335767984E+01  0.82141228598E+01  0.50499453506E+02  0.51700939825E+02  0.24999207860E+00 0.  0.
        -13    1    4    4    0    0 -0.33019848649E+01 -0.15784478368E+01 -0.24917044278E+02  0.25184612806E+02  0.10500000000E+00 0.  1.
         13    1    4    4    0    0 -0.31705386477E+01 -0.14407994243E+01 -0.24505714951E+02  0.24752157654E+02  0.10500000000E+00 0. -1.
    3000001    1    5    5    0    0 -0.22318369832E+01 -0.59472636966E+00  0.10501664908E+02  0.10799062997E+02  0.10000000000E+01 0.  1.
        -13    1    6    6    0    0  0.23375701825E+01  0.26041037765E+01  0.16178936198E+02  0.16553386129E+02  0.10500000000E+00 0.  1.
         13    1    6    6    0    0  0.50960066159E+01  0.56100190833E+01  0.34320517308E+02  0.35147553696E+02  0.10500000000E+00 0. -1.
</event>
<event>
11    0  0.3443539E-009  0.9118800E+02  0.7816531E-02  0.1126479E+00
         25   -1    0    0    0    0  0.00000000000E+00  0.00000000000E+00  0.99999998245E-14  0.12500000000E+03  0.12500000000E+03 0.  0.
    3000001    1    3    3    0    0 -0.68881501295E+01 -0.12789696634E+01 -0.99529363329E+01  0.12212424708E+02  0.10000000000E+01 0.  1.
    1000022    2    1    0    0    0 -0.47426224168E+02  0.37629989451E+01 -0.39279045155E+02  0.62499998246E+02  0.99999746296E+01 0.  0.
    3000022    2    3    3    0    0 -0.40538074039E+02  0.50419686085E+01 -0.29326108822E+02  0.50287573538E+02  0.24999898153E+00 0.  0.
    1000022    2    1    0    0    0  0.47426224168E+02 -0.37629989451E+01  0.39279045155E+02  0.62500001754E+02  0.99999965504E+01 0.  0.
    3000022    2    5    5    0    0 -0.97342068046E-02 -0.25991537469E+00 -0.40779996136E+00  0.54447402010E+00  0.25000078660E+00 0.  0.
        -13    1    4    4    0    0 -0.23660658707E+02  0.28778011810E+01 -0.17109385866E+02  0.29340255960E+02  0.10500000000E+00 0. -1.
         13    1    4    4    0    0 -0.16877415332E+02  0.21641674274E+01 -0.12216722956E+02  0.20947317578E+02  0.10500000000E+00 0.  1.
    3000001    1    5    5    0    0  0.47435958375E+02 -0.35030835704E+01  0.39686845116E+02  0.61955527734E+02  0.10000000000E+01 0.  1.
        -13    1    6    6    0    0 -0.30420908133E-01 -0.40389089313E-01 -0.13243869969E+00  0.17641348974E+00  0.10500000000E+00 0. -1.
         13    1    6    6    0    0  0.20686701328E-01 -0.21952628537E+00 -0.27536126167E+00  0.36806053036E+00  0.10500000000E+00 0. -1.
</event>
<event>
11    0  0.3443539E-009  0.9118800E+02  0.7816531E-02  0.1126479E+00
         25   -1    0    0    0    0  0.00000000000E+00  0.00000000000E+00  0.99999998245E-14  0.12500000000E+03  0.12500000000E+03 0.  0.
    3000001    1    3    3    0    0 -0.74398518607E+01 -0.35737836079E+02 -0.48414810197E+02  0.60642709122E+02  0.10000000000E+01 0. -1.
    1000022    2    1    0    0    0 -0.88377562160E+01 -0.35602897498E+02 -0.49604211224E+02  0.62499998511E+02  0.99999898798E+01 0.  0.
    3000022    2    3    3    0    0 -0.13979043553E+01  0.13493858113E+00 -0.11894010272E+01  0.18572893890E+01  0.25000812709E+00 0.  0.
    1000022    2    1    0    0    0  0.88377562160E+01  0.35602897498E+02  0.49604211224E+02  0.62500001489E+02  0.10000008489E+02 0.  0.
    3000022    2    5    5    0    0  0.90113362617E+00  0.99116305925E+01  0.72286079401E+01  0.12303159686E+02  0.25000537416E+00 0.  0.
        -13    1    4    4    0    0 -0.73708548851E+00  0.73618277514E-01 -0.53852529898E+00  0.92181840175E+00  0.10500000000E+00 0. -1.
         13    1    4    4    0    0 -0.66081886681E+00  0.61320303613E-01 -0.65087572824E+00  0.93547098725E+00  0.10500000000E+00 0.  1.
    3000001    1    5    5    0    0  0.79366225899E+01  0.25691266905E+02  0.42375603284E+02  0.50196841803E+02  0.10000000000E+01 0. -1.
        -13    1    6    6    0    0  0.35309052050E+00  0.43048788823E+01  0.30711054745E+01  0.53008837888E+01  0.10500000000E+00 0. -1.
         13    1    6    6    0    0  0.54804310567E+00  0.56067517102E+01  0.41575024656E+01  0.70022758970E+01  0.10500000000E+00 0.  1.
</event>
<event>
11    0  0.3443539E-009  0.9118800E+02  0.7816531E-02  0.1126479E+00
         25   -1    0    0    0    0  0.00000000000E+00  0.00000000000E+00  0.99999998245E-14  0.12500000000E+03  0.12500000000E+03 0.  0.
    3000001    1    3    3    0    0  0.25617651472E+01 -0.72287210557E+01  0.29930492197E+01  0.82930930540E+01  0.10000000000E+01 0.  1.
    1000022    2    1    0    0    0 -0.50712549761E+01 -0.57489799118E+02  0.21804950398E+02  0.62500003103E+02  0.99999948196E+01 0.  0.
    3000022    2    3    3    0    0 -0.76330201233E+01 -0.50261078062E+02  0.18811901179E+02  0.54206910049E+02  0.25001393201E+00 0.  0.
    1000022    2    1    0    0    0  0.50712549761E+01  0.57489799118E+02 -0.21804950398E+02  0.62499996897E+02  0.99999560266E+01 0.  0.
    3000022    2    5    5    0    0  0.22257644310E+01  0.46418824622E+02 -0.13694484236E+02  0.48448557323E+02  0.25000311445E+00 0.  0.
        -13    1    4    4    0    0 -0.33170593892E+01 -0.21636363659E+02  0.80381982337E+01  0.23318635707E+02  0.10500000000E+00 0. -1.
         13    1    4    4    0    0 -0.43159607340E+01 -0.28624714403E+02  0.10773702945E+02  0.30888274342E+02  0.10500000000E+00 0.  1.
    3000001    1    5    5    0    0  0.28454905451E+01  0.11070974496E+02 -0.81104661621E+01  0.14051439574E+02  0.10000000000E+01 0.  1.
        -13    1    6    6    0    0  0.15251361417E+01  0.31599270765E+02 -0.93741880845E+01  0.32995853988E+02  0.10500000000E+00 0. -1.
         13    1    6    6    0    0  0.70062828928E+00  0.14819553857E+02 -0.43202961519E+01  0.15452703335E+02  0.10500000000E+00 0.  1.
</event>
<event>
11    0  0.3443539E-009  0.9118800E+02  0.7816531E-02  0.1126479E+00
         25   -1    0    0    0    0  0.00000000000E+00  0.00000000000E+00  0.99999998245E-14  0.12500000000E+03  0.12500000000E+03 0.  0.
    3000001    1    3    3    0    0 -0.40151965782E+00  0.87942614423E+01  0.60361640554E+01  0.10720798891E+02  0.10000000000E+01 0. -1.
    1000022    2    1    0    0    0 -0.53934885991E+01  0.36034608410E+02  0.49786214021E+02  0.62499999937E+02  0.10000008150E+02 0.  0.
    3000022    2    3    3    0    0 -0.49919689413E+01  0.27240346968E+02  0.43750049965E+02  0.51779201046E+02  0.25006425608E+00 0.  0.
    1000022    2    1    0    0    0  0.53934885991E+01 -0.36034608410E+02 -0.49786214021E+02  0.62500000063E+02  0.10000008943E+02 0.  0.
    3000022    2    5    5    0    0 -0.25662454746E+01 -0.90018712488E+01 -0.96279393972E+01  0.13430526195E+02  0.25003005562E+00 0.  0.
        -13    1    4    4    0    0 -0.35275073098E+01  0.19065876253E+02  0.30689606574E+02  0.36301706871E+02  0.10500000000E+00 0.  1.
         13    1    4    4    0    0 -0.14644616315E+01  0.81744707146E+01  0.13060443392E+02  0.15477494174E+02  0.10500000000E+00 0. -1.
    3000001    1    5    5    0    0  0.79597340738E+01 -0.27032737161E+02 -0.40158274624E+02  0.49069473868E+02  0.10000000000E+01 0. -1.
        -13    1    6    6    0    0 -0.68269285773E+00 -0.23997266836E+01 -0.26174503983E+01  0.36175722911E+01  0.10500000000E+00 0. -1.
         13    1    6    6    0    0 -0.18835526169E+01 -0.66021445653E+01 -0.70104889989E+01  0.98129539042E+01  0.10500000000E+00 0.  1.
</event>
<event>
11    0  0.3443539E-009  0.9118800E+02  0.7816531E-02  0.1126479E+00
         25   -1    0    0    0    0  0.00000000000E+00  0.00000000000E+00  0.99999998245E-14  0.12500000000E+03  0.12500000000E+03 0.  0.
    3000001    1    3    3    0    0  0.26300873951E+02 -0.53292671497E+02  0.80751114715E+01  0.59983766396E+02  0.10000000000E+01 0.  1.
    1000022    2    1    0    0    0  0.25898453968E+02 -0.55147800178E+02  0.97077441082E+01  0.62500000314E+02  0.99999980591E+01 0.  0.
    3000022    2    3    3    0    0 -0.40241998218E+00 -0.18551286807E+01  0.16326326367E+01  0.25162339173E+01  0.24999907267E+00 0.  0.
    1000022    2    1    0    0    0 -0.25898453968E+02  0.55147800178E+02 -0.97077441082E+01  0.62499999686E+02  0.99999941362E+01 0.  0.
    3000022    2    5    5    0    0 -0.11130151365E+02  0.34928844808E+02 -0.66071370046E+01  0.37250788165E+02  0.24998101533E+00 0.  0.
        -13    1    4    4    0    0 -0.83882656428E-01 -0.64905221483E+00  0.56709506712E+00  0.87231123618E+00  0.10500000000E+00 0. -1.
         13    1    4    4    0    0 -0.31853732575E+00 -0.12060764659E+01  0.10655375695E+01  0.16439226812E+01  0.10500000000E+00 0.  1.
    3000001    1    5    5    0    0 -0.14768302603E+02  0.20218955370E+02 -0.31006071036E+01  0.25249211521E+02  0.10000000000E+01 0. -1.
        -13    1    6    6    0    0 -0.53376076514E+01  0.16616134391E+02 -0.30907794590E+01  0.17724274885E+02  0.10500000000E+00 0.  1.
         13    1    6    6    0    0 -0.57925437139E+01  0.18312710416E+02 -0.35163575455E+01  0.19526513280E+02  0.10500000000E+00 0. -1.
</event>
<event>
11    0  0.3443539E-009  0.9118800E+02  0.7816531E-02  0.1126479E+00
         25   -1    0    0    0    0  0.00000000000E+00  0.00000000000E+00  0.99999998245E-14  0.12500000000E+03  0.12500000000E+03 0.  0.
    3000001    1    3    3    0    0  0.17270662484E+02  0.19267879508E+01 -0.92230269181E+01  0.19699048707E+02  0.10000000000E+01 0. -1.
    1000022    2    1    0    0    0  0.59457722852E+02  0.12820639802E+01 -0.16412967105E+02  0.62500000504E+02  0.10000003949E+02 0.  0.
    3000022    2    3    3    0    0  0.42187060368E+02 -0.64472397052E+00 -0.71899401871E+01  0.42800951796E+02  0.25000658390E+00 0.  0.
    1000022    2    1    0    0    0 -0.59457722852E+02 -0.12820639802E+01  0.16412967105E+02  0.62499999496E+02  0.99999976546E+01 0.  0.
    3000022    2    5    5    0    0 -0.43420226382E+02  0.22089466824E+01  0.87068578417E+01  0.44340358298E+02  0.24999206585E+00 0.  0.
        -13    1    4    4    0    0  0.19427714159E+02 -0.24314740564E+00 -0.33516909079E+01  0.19716491956E+02  0.10500000000E+00 0.  1.
         13    1    4    4    0    0  0.22759346209E+02 -0.40157656488E+00 -0.38382492792E+01  0.23084459840E+02  0.10500000000E+00 0. -1.
    3000001    1    5    5    0    0 -0.16037496470E+02 -0.34910106627E+01  0.77061092636E+01  0.18159641198E+02  0.10000000000E+01 0.  1.
        -13    1    6    6    0    0 -0.32969188724E+02  0.16766715469E+01  0.65907672882E+01  0.33663450076E+02  0.10500000000E+00 0.  1.
         13    1    6    6    0    0 -0.10451037659E+02  0.53227513546E+00  0.21160905535E+01  0.10676908222E+02  0.10500000000E+00 0. -1.
</event>
<event>
11    0  0.3443539E-009  0.9118800E+02  0.7816531E-02  0.1126479E+00
         25   -1    0    0    0    0  0.00000000000E+00  0.00000000000E+00  0.99999998245E-14  0.12500000000E+03  0.12500000000E+03 0.  0.
    3000001    1    3    3    0    0  0.48487802107E+01  0.43660760888E+02 -0.16881798969E+02  0.47071943314E+02  0.10000000000E+01 0.  1.
    1000022    2    1    0    0    0  0.72391230213E+01  0.54928044317E+02 -0.27143232876E+02  0.62500000056E+02  0.99999980731E+01 0.  0.
    3000022    2    3    3    0    0  0.23903428106E+01  0.11267283428E+02 -0.10261433907E+02  0.15428056743E+02  0.24998882312E+00 0.  0.
    1000022    2    1    0    0    0 -0.72391230213E+01 -0.54928044317E+02  0.27143232876E+02  0.62499999944E+02  0.99999973717E+01 0.  0.
    3000022    2    5    5    0    0 -0.70823446923E+01 -0.17877829083E+02  0.95805785503E+01  0.21485492081E+02  0.25001103579E+00 0.  0.
        -13    1    4    4    0    0  0.98598001875E+00  0.43970286094E+01 -0.40603731126E+01  0.60666030035E+01  0.10500000000E+00 0. -1.
         13    1    4    4    0    0  0.14043627919E+01  0.68702548190E+01 -0.62010607947E+01  0.93614537391E+01  0.10500000000E+00 0.  1.
    3000001    1    5    5    0    0 -0.15677832900E+00 -0.37050215233E+02  0.17562654326E+02  0.41014507863E+02  0.10000000000E+01 0.  1.
        -13    1    6    6    0    0 -0.40707616909E+01 -0.10435527929E+02  0.56103935411E+01  0.12528323295E+02  0.10500000000E+00 0.  1.
         13    1    6    6    0    0 -0.30115830014E+01 -0.74423011541E+01  0.39701850092E+01  0.89571687854E+01  0.10500000000E+00 0. -1.
</event>
<event>
11    0  0.3443539E-009  0.9118800E+02  0.7816531E-02  0.1126479E+00
         25   -1    0    0    0    0  0.00000000000E+00  0.00000000000E+00  0.99999998245E-14  0.12500000000E+03  0.12500000000E+03 0.  0.
    3000001    1    3    3    0    0 -0.20581859841E+00  0.26610781895E+00 -0.70392774708E-01  0.10574165733E+01  0.10000000000E+01 0. -1.
    1000022    2    1    0    0    0 -0.57405154993E+02  0.17936122701E+02  0.13754760153E+02  0.62499998427E+02  0.10000002955E+02 0.  0.
    3000022    2    3    3    0    0 -0.57199336395E+02  0.17670014882E+02  0.13825152928E+02  0.61442581853E+02  0.25000273188E+00 0.  0.
    1000022    2    1    0    0    0  0.57405154993E+02 -0.17936122701E+02 -0.13754760153E+02  0.62500001573E+02  0.10000022621E+02 0.  0.
    3000022    2    5    5    0    0  0.14977901108E+02 -0.11118734471E+01 -0.78742374855E+00  0.15041819469E+02  0.25002522390E+00 0.  0.
        -13    1    4    4    0    0 -0.18382889658E+02  0.56988635006E+01  0.43959738567E+01  0.19741917043E+02  0.10500000000E+00 0. -1.
         13    1    4    4    0    0 -0.38816446737E+02  0.11971151382E+02  0.94291790712E+01  0.41700664811E+02  0.10500000000E+00 0.  1.
    3000001    1    5    5    0    0  0.42427253885E+02 -0.16824249254E+02 -0.12967336405E+02  0.47458182104E+02  0.10000000000E+01 0. -1.
        -13    1    6    6    0    0  0.93853747636E+01 -0.64795891703E+00 -0.52846807977E+00  0.94231318426E+01  0.10500000000E+00 0. -1.
         13    1    6    6    0    0  0.55925263445E+01 -0.46391453009E+00 -0.25895566878E+00  0.56186876265E+01  0.10500000000E+00 0.  1.
</event>
<event>
11    0  0.3443539E-009  0.9118800E+02  0.7816531E-02  0.1126479E+00
         25   -1    0    0    0    0  0.00000000000E+00  0.00000000000E+00  0.99999998245E-14  0.12500000000E+03  0.12500000000E+03 0.  0.
    3000001    1    3    3    0    0 -0.50872361271E+02  0.51415210550E+01 -0.29570489360E+02  0.59074920407E+02  0.10000000000E+01 0.  1.
    1000022    2    1    0    0    0 -0.53350531598E+02  0.31517035666E+01 -0.30822676738E+02  0.62500000348E+02  0.10000009251E+02 0.  0.
    3000022    2    3    3    0    0 -0.24781703274E+01 -0.19898174885E+01 -0.12521873778E+01  0.34250799415E+01  0.24999513550E+00 0.  0.
    1000022    2    1    0    0    0  0.53350531598E+02 -0.31517035666E+01  0.30822676738E+02  0.62499999652E+02  0.10000004899E+02 0.  0.
    3000022    2    5    5    0    0  0.95301020983E+01  0.31734137009E+01  0.66150730356E+01  0.12029758647E+02  0.25000265837E+00 0.  0.
        -13    1    4    4    0    0 -0.11438362748E+01 -0.98565031623E+00 -0.54900022048E+00  0.16100603130E+01  0.10500000000E+00 0.  1.
         13    1    4    4    0    0 -0.13343340526E+01 -0.10041671722E+01 -0.70318715730E+00  0.18150196285E+01  0.10500000000E+00 0. -1.
    3000001    1    5    5    0    0  0.43820429500E+02 -0.63251172675E+01  0.24207603703E+02  0.50470241004E+02  0.10000000000E+01 0. -1.
        -13    1    6    6    0    0  0.57374852894E+01  0.18891299873E+01  0.39063582721E+01  0.71943178624E+01  0.10500000000E+00 0. -1.
         13    1    6    6    0    0  0.37926168089E+01  0.12842837136E+01  0.27087147635E+01  0.48354407850E+01  0.10500000000E+00 0.  1.
</event>
<event>
11    0  0.3443539E-009  0.9118800E+02  0.7816531E-02  0.1126479E+00
         25   -1    0    0    0    0  0.00000000000E+00  0.00000000000E+00  0.99999998245E-14  0.12500000000E+03  0.12500000000E+03 0.  0.
    3000001    1    3    3    0    0  0.98950720841E+01 -0.26842941763E+02  0.85041614211E+01  0.29862631088E+02  0.10000000000E+01 0. -1.
    1000022    2    1    0    0    0  0.22926801790E+02 -0.50844611305E+02  0.26371146099E+02  0.62499998692E+02  0.99999875436E+01 0.  0.
    3000022    2    3    3    0    0  0.13031729706E+02 -0.24001669542E+02  0.17866984678E+02  0.32637367604E+02  0.25000539583E+00 0.  0.
    1000022    2    1    0    0    0 -0.22926801790E+02  0.50844611305E+02 -0.26371146099E+02  0.62500001308E+02  0.10000003892E+02 0.  0.
    3000022    2    5    5    0    0 -0.31029035465E+01  0.77480849145E+01 -0.28693661916E+00  0.83549783355E+01  0.25000020418E+00 0.  0.
        -13    1    4    4    0    0  0.50146959179E+01 -0.91681349345E+01  0.68984801160E+01  0.12522057588E+02  0.10500000000E+00 0. -1.
         13    1    4    4    0    0  0.80170337883E+01 -0.14833534608E+02  0.10968504562E+02  0.20115310016E+02  0.10500000000E+00 0.  1.
    3000001    1    5    5    0    0 -0.19823898244E+02  0.43096526390E+02 -0.26084209480E+02  0.54145022972E+02  0.10000000000E+01 0. -1.
        -13    1    6    6    0    0 -0.18825732428E+01  0.48628553672E+01 -0.18057221677E+00  0.52187235663E+01  0.10500000000E+00 0. -1.
         13    1    6    6    0    0 -0.12203303037E+01  0.28852295474E+01 -0.10636440239E+00  0.31362547692E+01  0.10500000000E+00 0.  1.
</event>
<event>
11    0  0.3443539E-009  0.9118800E+02  0.7816531E-02  0.1126479E+00
         25   -1    0    0    0    0  0.00000000000E+00  0.00000000000E+00  0.99999998245E-14  0.12500000000E+03  0.12500000000E+03 0.  0.
    3000001    1    3    3    0    0  0.26521207048E+02 -0.75630139093E+00 -0.45160468421E+02  0.52387157998E+02  0.10000000000E+01 0.  1.
    1000022    2    1    0    0    0  0.32647844905E+02  0.30182776419E+01 -0.52261444384E+02  0.62499996194E+02  0.99999589164E+01 0.  0.
    3000022    2    3    3    0    0  0.61266378563E+01  0.37745790329E+01 -0.71009759631E+01  0.10112838196E+02  0.24999691863E+00 0.  0.
    1000022    2    1    0    0    0 -0.32647844905E+02 -0.30182776419E+01  0.52261444384E+02  0.62500003806E+02  0.10000006489E+02 0.  0.
    3000022    2    5    5    0    0 -0.20455795838E+02 -0.42692127129E+01  0.40025295765E+02  0.45152547738E+02  0.25001121408E+00 0.  0.
        -13    1    4    4    0    0  0.23568033240E+01  0.15105410140E+01 -0.28143965054E+01  0.39709077996E+01  0.10500000000E+00 0. -1.
         13    1    4    4    0    0  0.37698345323E+01  0.22640380189E+01 -0.42865794577E+01  0.61419303968E+01  0.10500000000E+00 0.  1.
    3000001    1    5    5    0    0 -0.12192049067E+02  0.12509350710E+01  0.12236148619E+02  0.17347456068E+02  0.10000000000E+01 0. -1.
        -13    1    6    6    0    0 -0.96309675650E+01 -0.19781246099E+01  0.18961466484E+02  0.21359231012E+02  0.10500000000E+00 0. -1.
         13    1    6    6    0    0 -0.10824828273E+02 -0.22910881030E+01  0.21063829282E+02  0.23793316726E+02  0.10500000000E+00 0.  1.
</event>
<event>
11    0  0.3443539E-009  0.9118800E+02  0.7816531E-02  0.1126479E+00
         25   -1    0    0    0    0  0.00000000000E+00  0.00000000000E+00  0.99999998245E-14  0.12500000000E+03  0.12500000000E+03 0.  0.
    3000001    1    3    3    0    0 -0.17018845015E+02 -0.56030755764E+01 -0.80410389900E+01  0.19664532783E+02  0.10000000000E+01 0. -1.
    1000022    2    1    0    0    0 -0.50968693666E+02 -0.65290579659E+01 -0.34144013524E+02  0.62500002022E+02  0.10000013069E+02 0.  0.
    3000022    2    3    3    0    0 -0.33949848651E+02 -0.92598238951E+00 -0.26102974534E+02  0.42835469239E+02  0.24995721667E+00 0.  0.
    1000022    2    1    0    0    0  0.50968693666E+02  0.65290579659E+01  0.34144013524E+02  0.62499997978E+02  0.99999877906E+01 0.  0.
    3000022    2    5    5    0    0  0.47974569137E+02  0.58209709455E+01  0.28814051297E+02  0.56265042785E+02  0.25000161178E+00 0.  0.
        -13    1    4    4    0    0 -0.16434780569E+02 -0.45079715671E+00 -0.12721546789E+02  0.20788314221E+02  0.10500000000E+00 0.  1.
         13    1    4    4    0    0 -0.17515068082E+02 -0.47518523280E+00 -0.13381427744E+02  0.22047155018E+02  0.10500000000E+00 0. -1.
    3000001    1    5    5    0    0  0.29941245290E+01  0.70808702037E+00  0.53299622266E+01  0.62349551932E+01  0.10000000000E+01 0. -1.
        -13    1    6    6    0    0  0.14015524283E+02  0.17358098984E+01  0.83902480203E+01  0.16427271343E+02  0.10500000000E+00 0.  1.
         13    1    6    6    0    0  0.33959044854E+02  0.40851610471E+01  0.20423803277E+02  0.39837771442E+02  0.10500000000E+00 0. -1.
</event>
<event>
11    0  0.3443539E-009  0.9118800E+02  0.7816531E-02  0.1126479E+00
         25   -1    0    0    0    0  0.00000000000E+00  0.00000000000E+00  0.99999998245E-14  0.12500000000E+03  0.12500000000E+03 0.  0.
    3000001    1    3    3    0    0 -0.27185873143E+02 -0.12439560407E+02  0.26387406388E+02  0.39888714915E+02  0.10000000000E+01 0. -1.
    1000022    2    1    0    0    0 -0.38393564554E+02 -0.15248925593E+02  0.45821983052E+02  0.62499998658E+02  0.10000008528E+02 0.  0.
    3000022    2    3    3    0    0 -0.11207691411E+02 -0.28093651866E+01  0.19434576663E+02  0.22611283743E+02  0.25000583078E+00 0.  0.
    1000022    2    1    0    0    0  0.38393564554E+02  0.15248925593E+02 -0.45821983052E+02  0.62500001342E+02  0.10000025301E+02 0.  0.
    3000022    2    5    5    0    0  0.26461884106E+02  0.71381882725E+01 -0.34904373193E+02  0.44379756773E+02  0.25000197276E+00 0.  0.
        -13    1    4    4    0    0 -0.76006279177E+01 -0.18525132564E+01  0.13145889556E+02  0.15297934087E+02  0.10500000000E+00 0.  1.
         13    1    4    4    0    0 -0.36070634935E+01 -0.95685193027E+00  0.62886871077E+01  0.73133496567E+01  0.10500000000E+00 0. -1.
    3000001    1    5    5    0    0  0.11931680449E+02  0.81107373208E+01 -0.10917609858E+02  0.18120244569E+02  0.10000000000E+01 0.  1.
        -13    1    6    6    0    0  0.71693158171E+01  0.19561410720E+01 -0.94169645891E+01  0.11996492164E+02  0.10500000000E+00 0.  1.
         13    1    6    6    0    0  0.19292568289E+02  0.51820472005E+01 -0.25487408604E+02  0.32383264609E+02  0.10500000000E+00 0. -1.
</event>
<event>
11    0  0.3443539E-009  0.9118800E+02  0.7816531E-02  0.1126479E+00
         25   -1    0    0    0    0  0.00000000000E+00  0.00000000000E+00  0.99999998245E-14  0.12500000000E+03  0.12500000000E+03 0.  0.
    3000001    1    3    3    0    0 -0.62941728663E+01 -0.17347300940E+02 -0.14744646223E+02  0.23642124571E+02  0.10000000000E+01 0.  1.
    1000022    2    1    0    0    0 -0.27961384910E+02 -0.40531259844E+02 -0.37170255824E+02  0.62500000129E+02  0.10000001374E+02 0.  0.
    3000022    2    3    3    0    0 -0.21667212043E+02 -0.23183958904E+02 -0.22425609601E+02  0.38857875558E+02  0.24999744955E+00 0.  0.
    1000022    2    1    0    0    0  0.27961384910E+02  0.40531259844E+02  0.37170255824E+02  0.62499999871E+02  0.99999997632E+01 0.  0.
    3000022    2    5    5    0    0  0.27722176119E+02  0.40167650023E+02  0.34959576662E+02  0.60034936930E+02  0.24998931435E+00 0.  0.
        -13    1    4    4    0    0 -0.15407471497E+02 -0.16428691895E+02 -0.15895067824E+02  0.27567304937E+02  0.10500000000E+00 0.  1.
         13    1    4    4    0    0 -0.62597405457E+01 -0.67552670084E+01 -0.65305417766E+01  0.11290570621E+02  0.10500000000E+00 0. -1.
    3000001    1    5    5    0    0  0.23920879070E+00  0.36360982097E+00  0.22106791615E+01  0.24650629408E+01  0.10000000000E+01 0.  1.
        -13    1    6    6    0    0  0.17558355609E+02  0.25399625859E+02  0.22184617932E+02  0.38021114440E+02  0.10500000000E+00 0. -1.
         13    1    6    6    0    0  0.10163820509E+02  0.14768024164E+02  0.12774958731E+02  0.22013822490E+02  0.10500000000E+00 0.  1.
</event>
<event>
11    0  0.3443539E-009  0.9118800E+02  0.7816531E-02  0.1126479E+00
         25   -1    0    0    0    0  0.00000000000E+00  0.00000000000E+00  0.99999998245E-14  0.12500000000E+03  0.12500000000E+03 0.  0.
    3000001    1    3    3    0    0  0.30280021017E+02  0.92161276557E+01  0.15099205485E+02  0.35082797609E+02  0.10000000000E+01 0. -1.
    1000022    2    1    0    0    0  0.48404604415E+02  0.20627147282E+02  0.32214362021E+02  0.62499999885E+02  0.99999965801E+01 0.  0.
    3000022    2    3    3    0    0  0.18124583398E+02  0.11411019626E+02  0.17115156536E+02  0.27417202276E+02  0.25001028679E+00 0.  0.
    1000022    2    1    0    0    0 -0.48404604415E+02 -0.20627147282E+02 -0.32214362021E+02  0.62500000115E+02  0.99999980184E+01 0.  0.
    3000022    2    5    5    0    0 -0.34863665330E+02 -0.98911366446E+01 -0.21286382167E+02  0.42029540926E+02  0.25000066545E+00 0.  0.
        -13    1    4    4    0    0  0.13322634371E+02  0.83521430903E+01  0.12544086893E+02  0.20115069519E+02  0.10500000000E+00 0.  1.
         13    1    4    4    0    0  0.48019490271E+01  0.30588765358E+01  0.45710696432E+01  0.73021327571E+01  0.10500000000E+00 0. -1.
    3000001    1    5    5    0    0 -0.13540939085E+02 -0.10736010637E+02 -0.10927979855E+02  0.20470459189E+02  0.10000000000E+01 0. -1.
        -13    1    6    6    0    0 -0.10546075289E+02 -0.29536170720E+01 -0.64004592788E+01  0.12685442909E+02  0.10500000000E+00 0.  1.
         13    1    6    6    0    0 -0.24317590041E+02 -0.69375195726E+01 -0.14885922888E+02  0.29344098017E+02  0.10500000000E+00 0. -1.
</event>
<event>
11    0  0.3443539E-009  0.9118800E+02  0.7816531E-02  0.1126479E+00
         25   -1    0    0    0    0  0.00000000000E+00  0.00000000000E+00  0.99999998245E-14  0.12500000000E+03  0.12500000000E+03 0.  0.
    3000001    1    3    3    0    0  0.27274309772E+02  0.11851978709E+01 -0.28284529960E+02  0.39323114101E+02  0.10000000000E+01 0. -1.
    1000022    2    1    0    0    0  0.42848195385E+02 -0.56520949345E+01 -0.44026539720E+02  0.62499996100E+02  0.99999643937E+01 0.  0.
    3000022    2    3    3    0    0  0.15573885612E+02 -0.68372928054E+01 -0.15742009760E+02  0.23176881998E+02  0.25000383830E+00 0.  0.
    1000022    2    1    0    0    0 -0.42848195385E+02  0.56520949345E+01  0.44026539720E+02  0.62500003900E+02  0.10000013149E+02 0.  0.
    3000022    2    5    5    0    0 -0.16340959518E+02 -0.40236163787E+00  0.10975576514E+02  0.19690470307E+02  0.24997646458E+00 0.  0.
        -13    1    4    4    0    0  0.72134881397E+01 -0.30938366000E+01 -0.72722142713E+01  0.10700577623E+02  0.10500000000E+00 0.  1.
         13    1    4    4    0    0  0.83603974727E+01 -0.37434562055E+01 -0.84697954884E+01  0.12476304376E+02  0.10500000000E+00 0. -1.
    3000001    1    5    5    0    0 -0.26507235867E+02  0.60544565724E+01  0.33050963206E+02  0.42809533594E+02  0.10000000000E+01 0. -1.
        -13    1    6    6    0    0 -0.11581647351E+02 -0.31005004037E+00  0.77361362997E+01  0.13931601352E+02  0.10500000000E+00 0. -1.
         13    1    6    6    0    0 -0.47593121672E+01 -0.92311597498E-01  0.32394402144E+01  0.57588689548E+01  0.10500000000E+00 0.  1.
</event>
<event>
11    0  0.3443539E-009  0.9118800E+02  0.7816531E-02  0.1126479E+00
         25   -1    0    0    0    0  0.00000000000E+00  0.00000000000E+00  0.99999998245E-14  0.12500000000E+03  0.12500000000E+03 0.  0.
    3000001    1    3    3    0    0  0.25972768171E+01 -0.38054413171E+01  0.60248987071E+01  0.76502702510E+01  0.10000000000E+01 0.  1.
    1000022    2    1    0    0    0  0.31367598527E+01 -0.16068468290E+02  0.59482892871E+02  0.62499996869E+02  0.10000006442E+02 0.  0.
    3000022    2    3    3    0    0  0.53948303561E+00 -0.12263026973E+02  0.53457994164E+02  0.54849726618E+02  0.24999523974E+00 0.  0.
    1000022    2    1    0    0    0 -0.31367598527E+01  0.16068468290E+02 -0.59482892871E+02  0.62500003131E+02  0.10000045574E+02 0.  0.
    3000022    2    5    5    0    0 -0.63805069759E+01  0.13421623680E+02 -0.47185779211E+02  0.49471316085E+02  0.25000777355E+00 0.  0.
        -13    1    4    4    0    0  0.31738633158E+00 -0.68495706357E+01  0.29573965685E+02  0.30358653186E+02  0.10500000000E+00 0.  1.
         13    1    4    4    0    0  0.22209670403E+00 -0.54134563372E+01  0.23884028479E+02  0.24491073432E+02  0.10500000000E+00 0. -1.
    3000001    1    5    5    0    0  0.32437471232E+01  0.26468446101E+01 -0.12297113659E+02  0.13028687046E+02  0.10000000000E+01 0.  1.
        -13    1    6    6    0    0 -0.35215093421E+01  0.75413483483E+01 -0.26534644499E+02  0.27809554952E+02  0.10500000000E+00 0.  1.
         13    1    6    6    0    0 -0.28589976338E+01  0.58802753317E+01 -0.20651134713E+02  0.21661761133E+02  0.10500000000E+00 0. -1.
</event>
<event>
11    0  0.3443539E-009  0.9118800E+02  0.7816531E-02  0.1126479E+00
         25   -1    0    0    0    0  0.00000000000E+00  0.00000000000E+00  0.99999998245E-14  0.12500000000E+03  0.12500000000E+03 0.  0.
    3000001    1    3    3    0    0 -0.19003172002E+02 -0.46440508361E+02 -0.53420417586E+01  0.50471564005E+02  0.10000000000E+01 0. -1.
    1000022    2    1    0    0    0 -0.24982880521E+02 -0.55382519770E+02 -0.10718311687E+02  0.62499999771E+02  0.99999975378E+01 0.  0.
    3000022    2    3    3    0    0 -0.59797085183E+01 -0.89420114087E+01 -0.53762699287E+01  0.12028435765E+02  0.25001324110E+00 0.  0.
    1000022    2    1    0    0    0  0.24982880521E+02  0.55382519770E+02  0.10718311687E+02  0.62500000229E+02  0.10000000406E+02 0.  0.
    3000022    2    5    5    0    0  0.10972975090E+02  0.16392538102E+02  0.68244166863E+01  0.20874785048E+02  0.24999988894E+00 0.  0.
        -13    1    4    4    0    0 -0.28195971352E+01 -0.41001849698E+01 -0.25075061992E+01  0.55731729859E+01  0.10500000000E+00 0.  1.
         13    1    4    4    0    0 -0.31601113831E+01 -0.48418264389E+01 -0.28687637295E+01  0.64552627796E+01  0.10500000000E+00 0. -1.
    3000001    1    5    5    0    0  0.14009905431E+02  0.38989981668E+02  0.38938950009E+01  0.41625215182E+02  0.10000000000E+01 0.  1.
        -13    1    6    6    0    0  0.65946047254E+01  0.97604559760E+01  0.41151270876E+01  0.12478004980E+02  0.10500000000E+00 0. -1.
         13    1    6    6    0    0  0.43783703643E+01  0.66320821256E+01  0.27092895987E+01  0.83967800672E+01  0.10500000000E+00 0.  1.
</event>
<event>
11    0  0.3443539E-009  0.9118800E+02  0.7816531E-02  0.1126479E+00
         25   -1    0    0    0    0  0.00000000000E+00  0.00000000000E+00  0.99999998245E-14  0.12500000000E+03  0.12500000000E+03 0.  0.
    3000001    1    3    3    0    0 -0.92947086097E+01 -0.41969067457E+02  0.67086982350E+01  0.43517822365E+02  0.10000000000E+01 0. -1.
    1000022    2    1    0    0    0 -0.17517861633E+02 -0.57508479065E+02  0.13861833114E+02  0.62500008256E+02  0.99999987082E+01 0.  0.
    3000022    2    3    3    0    0 -0.82231530236E+01 -0.15539411607E+02  0.71531348788E+01  0.18982185891E+02  0.24996769498E+00 0.  0.
    1000022    2    1    0    0    0  0.17517861633E+02  0.57508479065E+02 -0.13861833114E+02  0.62499991744E+02  0.99998955114E+01 0.  0.
    3000022    2    5    5    0    0  0.13781029446E+02  0.53702826460E+02 -0.13488861449E+02  0.57060688994E+02  0.25000589189E+00 0.  0.
        -13    1    4    4    0    0 -0.26396862245E+01 -0.48924497660E+01  0.22856040108E+01  0.60115737350E+01  0.10500000000E+00 0. -1.
         13    1    4    4    0    0 -0.55834667990E+01 -0.10646961841E+02  0.48675308680E+01  0.12970612156E+02  0.10500000000E+00 0.  1.
    3000001    1    5    5    0    0  0.37368321873E+01  0.38056526048E+01 -0.37297166483E+00  0.54393027501E+01  0.10000000000E+01 0.  1.
        -13    1    6    6    0    0  0.31559980579E+01  0.12291951350E+02 -0.30854672564E+01  0.13060762800E+02  0.10500000000E+00 0. -1.
         13    1    6    6    0    0  0.10625031388E+02  0.41410875110E+02 -0.10403394193E+02  0.43999926194E+02  0.10500000000E+00 0.  1.
</event>
<event>
11    0  0.3443539E-009  0.9118800E+02  0.7816531E-02  0.1126479E+00
         25   -1    0    0    0    0  0.00000000000E+00  0.00000000000E+00  0.99999998245E-14  0.12500000000E+03  0.12500000000E+03 0.  0.
    3000001    1    3    3    0    0 -0.31468756580E+00  0.61701826631E+01 -0.23629458882E+01  0.66898202988E+01  0.10000000000E+01 0. -1.
    1000022    2    1    0    0    0  0.12921484681E+02  0.60326099869E+02  0.21660568562E+00  0.62500000266E+02  0.10000001172E+02 0.  0.
    3000022    2    3    3    0    0  0.13236172247E+02  0.54155917206E+02  0.25795515738E+01  0.55810179967E+02  0.24995495027E+00 0.  0.
    1000022    2    1    0    0    0 -0.12921484681E+02 -0.60326099869E+02 -0.21660568562E+00  0.62499999734E+02  0.99999978437E+01 0.  0.
    3000022    2    5    5    0    0 -0.48726911048E+01 -0.22085073137E+02  0.46986943616E+01  0.23100515243E+02  0.25000343269E+00 0.  0.
        -13    1    4    4    0    0  0.43761811583E+01  0.18129144927E+02  0.87044558185E+00  0.18670446107E+02  0.10500000000E+00 0.  1.
         13    1    4    4    0    0  0.88599910887E+01  0.36026772279E+02  0.17091059919E+01  0.37139733860E+02  0.10500000000E+00 0. -1.
    3000001    1    5    5    0    0 -0.80487935764E+01 -0.38241026733E+02 -0.49153000473E+01  0.39399484491E+02  0.10000000000E+01 0. -1.
        -13    1    6    6    0    0 -0.20447823236E+01 -0.94414226106E+01  0.20617418585E+01  0.98784310573E+01  0.10500000000E+00 0.  1.
         13    1    6    6    0    0 -0.28279087813E+01 -0.12643650526E+02  0.26369525032E+01  0.13222084186E+02  0.10500000000E+00 0. -1.
</event>
<event>
11    0  0.3443539E-009  0.9118800E+02  0.7816531E-02  0.1126479E+00
         25   -1    0    0    0    0  0.00000000000E+00  0.00000000000E+00  0.99999998245E-14  0.12500000000E+03  0.12500000000E+03 0.  0.
    3000001    1    3    3    0    0 -0.22279907891E+02 -0.94692191641E+01 -0.42536392790E+01  0.24599875087E+02  0.10000000000E+01 0.  1.
    1000022    2    1    0    0    0 -0.54752701589E+02 -0.28428130037E+02  0.48286590366E+00  0.62500002388E+02  0.10000011516E+02 0.  0.
    3000022    2    3    3    0    0 -0.32472793699E+02 -0.18958910873E+02  0.47365051826E+01  0.37900127301E+02  0.25007200025E+00 0.  0.
    1000022    2    1    0    0    0  0.54752701589E+02  0.28428130037E+02 -0.48286590366E+00  0.62499997612E+02  0.99999816637E+01 0.  0.
    3000022    2    5    5    0    0  0.12403721664E+02  0.11260786244E+02  0.81237368558E+00  0.16774387291E+02  0.25000006914E+00 0.  0.
        -13    1    4    4    0    0 -0.10043412366E+02 -0.59129549531E+01  0.14916176999E+01  0.11750281554E+02  0.10500000000E+00 0.  1.
         13    1    4    4    0    0 -0.22429381333E+02 -0.13045955920E+02  0.32448874827E+01  0.26149845747E+02  0.10500000000E+00 0. -1.
    3000001    1    5    5    0    0  0.42348979926E+02  0.17167343793E+02 -0.12952395892E+01  0.45725610321E+02  0.10000000000E+01 0.  1.
        -13    1    6    6    0    0  0.71727478423E+01  0.64351562576E+01  0.43520954671E+00  0.96467600788E+01  0.10500000000E+00 0.  1.
         13    1    6    6    0    0  0.52309738214E+01  0.48256299860E+01  0.37716413887E+00  0.71276272117E+01  0.10500000000E+00 0. -1.
</event>
<event>
11    0  0.3443539E-009  0.9118800E+02  0.7816531E-02  0.1126479E+00
         25   -1    0    0    0    0  0.00000000000E+00  0.00000000000E+00  0.99999998245E-14  0.12500000000E+03  0.12500000000E+03 0.  0.
    3000001    1    3    3    0    0 -0.25977418410E+02  0.76498965166E+01  0.20938586772E+02  0.34245753021E+02  0.10000000000E+01 0. -1.
    1000022    2    1    0    0    0 -0.40755236237E+02  0.13661984519E+02  0.44256195312E+02  0.62499999550E+02  0.10000000930E+02 0.  0.
    3000022    2    3    3    0    0 -0.14777817827E+02  0.60120880019E+01  0.23317608540E+02  0.28254246530E+02  0.24995410482E+00 0.  0.
    1000022    2    1    0    0    0  0.40755236237E+02 -0.13661984519E+02 -0.44256195312E+02  0.62500000450E+02  0.10000006550E+02 0.  0.
    3000022    2    5    5    0    0  0.28382874927E+02 -0.65678415130E+01 -0.24223745752E+02  0.37889002406E+02  0.25002748175E+00 0.  0.
        -13    1    4    4    0    0 -0.94932594981E+01  0.38456155369E+01  0.15067877871E+02  0.18219843668E+02  0.10500000000E+00 0. -1.
         13    1    4    4    0    0 -0.52845583289E+01  0.21664724650E+01  0.82497306692E+01  0.10034402862E+02  0.10500000000E+00 0.  1.
    3000001    1    5    5    0    0  0.12372361309E+02 -0.70941430056E+01 -0.20032449560E+02  0.24610998044E+02  0.10000000000E+01 0.  1.
        -13    1    6    6    0    0  0.80823854153E+01 -0.18394253583E+01 -0.69293530961E+01  0.10804415717E+02  0.10500000000E+00 0.  1.
         13    1    6    6    0    0  0.20300489512E+02 -0.47284161547E+01 -0.17294392656E+02  0.27084586689E+02  0.10500000000E+00 0.  1.
</event>
<event>
11    0  0.3443539E-009  0.9118800E+02  0.7816531E-02  0.1126479E+00
         25   -1    0    0    0    0  0.00000000000E+00  0.00000000000E+00  0.99999998245E-14  0.12500000000E+03  0.12500000000E+03 0.  0.
    3000001    1    3    3    0    0 -0.34924728605E+02  0.38633527367E+02  0.27975302709E+02  0.59126167359E+02  0.10000000000E+01 0. -1.
    1000022    2    1    0    0    0 -0.38192732541E+02  0.39082586831E+02  0.28637677326E+02  0.62499999695E+02  0.99999993414E+01 0.  0.
    3000022    2    3    3    0    0 -0.32680039356E+01  0.44905946485E+00  0.66237461719E+00  0.33738323355E+01  0.25000073640E+00 0.  0.
    1000022    2    1    0    0    0  0.38192732541E+02 -0.39082586831E+02 -0.28637677326E+02  0.62500000305E+02  0.10000003157E+02 0.  0.
    3000022    2    5    5    0    0  0.38159258579E+02 -0.37541336486E+02 -0.26666131006E+02  0.59804899560E+02  0.25001625597E+00 0.  0.
        -13    1    4    4    0    0 -0.17908822198E+01  0.31313340916E+00  0.35923283688E+00  0.18561748001E+01  0.10500000000E+00 0.  1.
         13    1    4    4    0    0 -0.14771217158E+01  0.13592605569E+00  0.30314178032E+00  0.15176575354E+01  0.10500000000E+00 0. -1.
    3000001    1    5    5    0    0  0.33473962084E-01 -0.15412503451E+01 -0.19715463204E+01  0.26951007450E+01  0.10000000000E+01 0.  1.
        -13    1    6    6    0    0  0.26281776672E+02 -0.25923799976E+02 -0.18383245199E+02  0.41239906878E+02  0.10500000000E+00 0.  1.
         13    1    6    6    0    0  0.11877481907E+02 -0.11617536510E+02 -0.82828858072E+01  0.18564992683E+02  0.10500000000E+00 0. -1.
</event>
<event>
11    0  0.3443539E-009  0.9118800E+02  0.7816531E-02  0.1126479E+00
         25   -1    0    0    0    0  0.00000000000E+00  0.00000000000E+00  0.99999998245E-14  0.12500000000E+03  0.12500000000E+03 0.  0.
    3000001    1    3    3    0    0 -0.17547968310E+02 -0.58065613753E+02  0.26295307491E+01  0.60724468908E+02  0.10000000000E+01 0. -1.
    1000022    2    1    0    0    0 -0.18230101209E+02 -0.58798934530E+02  0.40741651969E+01  0.62500002901E+02  0.10000012427E+02 0.  0.
    3000022    2    3    3    0    0 -0.68213289908E+00 -0.73332077766E+00  0.14446344478E+01  0.17755339920E+01  0.24997522716E+00 0.  0.
    1000022    2    1    0    0    0  0.18230101209E+02  0.58798934530E+02 -0.40741651969E+01  0.62499997099E+02  0.99999761706E+01 0.  0.
    3000022    2    5    5    0    0  0.17684993724E+02  0.58300119860E+02 -0.47057846438E+01  0.61105399892E+02  0.25001631090E+00 0.  0.
        -13    1    4    4    0    0 -0.23759694062E+00 -0.20415237552E+00  0.40370731184E+00  0.52166569013E+00  0.10500000000E+00 0. -1.
         13    1    4    4    0    0 -0.44453595846E+00 -0.52916840214E+00  0.10409271360E+01  0.12538683019E+01  0.10500000000E+00 0.  1.
    3000001    1    5    5    0    0  0.54510748420E+00  0.49881467023E+00  0.63161944693E+00  0.13945972072E+01  0.10000000000E+01 0.  1.
        -13    1    6    6    0    0  0.97336160677E+01  0.32312429547E+02 -0.25937253683E+01  0.33846341328E+02  0.10500000000E+00 0.  1.
         13    1    6    6    0    0  0.79513776567E+01  0.25987690313E+02 -0.21120592755E+01  0.27259058565E+02  0.10500000000E+00 0. -1.
</event>
<event>
11    0  0.3443539E-009  0.9118800E+02  0.7816531E-02  0.1126479E+00
         25   -1    0    0    0    0  0.00000000000E+00  0.00000000000E+00  0.99999998245E-14  0.12500000000E+03  0.12500000000E+03 0.  0.
    3000001    1    3    3    0    0 -0.54819443830E+01  0.52237364229E+01 -0.15923125724E+02  0.17660268097E+02  0.10000000000E+01 0. -1.
    1000022    2    1    0    0    0 -0.41753136729E+01  0.16457256908E+02 -0.59312523127E+02  0.62500000204E+02  0.10000003831E+02 0.  0.
    3000022    2    3    3    0    0  0.13066307100E+01  0.11233520485E+02 -0.43389397403E+02  0.44839732107E+02  0.25000430499E+00 0.  0.
    1000022    2    1    0    0    0  0.41753136729E+01 -0.16457256908E+02  0.59312523127E+02  0.62499999796E+02  0.10000001283E+02 0.  0.
    3000022    2    5    5    0    0  0.13433973700E+01 -0.22041298256E+01  0.26165400658E+02  0.26293603821E+02  0.25001100016E+00 0.  0.
        -13    1    4    4    0    0  0.85688928183E+00  0.73875376435E+01 -0.28748576877E+02  0.29695145548E+02  0.10500000000E+00 0.  1.
         13    1    4    4    0    0  0.44974142819E+00  0.38459828418E+01 -0.14640820526E+02  0.15144586559E+02  0.10500000000E+00 0. -1.
    3000001    1    5    5    0    0  0.28319163029E+01 -0.14253127083E+02  0.33147122468E+02  0.36206395975E+02  0.10000000000E+01 0.  1.
        -13    1    6    6    0    0  0.55900131909E+00 -0.81380607207E+00  0.97271460572E+01  0.97776867518E+01  0.10500000000E+00 0.  1.
         13    1    6    6    0    0  0.78439605094E+00 -0.13903237535E+01  0.16438254601E+02  0.16515917069E+02  0.10500000000E+00 0. -1.
</event>
<event>
11    0  0.3443539E-009  0.9118800E+02  0.7816531E-02  0.1126479E+00
         25   -1    0    0    0    0  0.00000000000E+00  0.00000000000E+00  0.99999998245E-14  0.12500000000E+03  0.12500000000E+03 0.  0.
    3000001    1    3    3    0    0 -0.23329903649E+02  0.20757651608E+02 -0.40017185244E+02  0.50769475272E+02  0.10000000000E+01 0. -1.
    1000022    2    1    0    0    0 -0.29631393878E+02  0.28750584817E+02 -0.45843585124E+02  0.62499999397E+02  0.99999998597E+01 0.  0.
    3000022    2    3    3    0    0 -0.63014902281E+01  0.79929332088E+01 -0.58263998798E+01  0.11730524125E+02  0.25000061321E+00 0.  0.
    1000022    2    1    0    0    0  0.29631393878E+02 -0.28750584817E+02  0.45843585124E+02  0.62500000603E+02  0.10000007399E+02 0.  0.
    3000022    2    5    5    0    0  0.27398656021E+02 -0.23777756135E+02  0.43037167530E+02  0.56287905696E+02  0.25000006087E+00 0.  0.
        -13    1    4    4    0    0 -0.34785278110E+01  0.44841215812E+01 -0.33049718765E+01  0.65682087506E+01  0.10500000000E+00 0. -1.
         13    1    4    4    0    0 -0.28229624172E+01  0.35088116276E+01 -0.25214280033E+01  0.51623153741E+01  0.10500000000E+00 0.  1.
    3000001    1    5    5    0    0  0.22327378564E+01 -0.49728286812E+01  0.28064175939E+01  0.62120949075E+01  0.10000000000E+01 0.  1.
        -13    1    6    6    0    0  0.10456829191E+02 -0.90226287782E+01  0.16312962202E+02  0.21374678188E+02  0.10500000000E+00 0.  1.
         13    1    6    6    0    0  0.16941826830E+02 -0.14755127357E+02  0.26724205327E+02  0.34913227508E+02  0.10500000000E+00 0. -1.
</event>
