<event>
 4    1  0.2338029E-002  0.5714851E+03  0.7818608E-02  0.9966398E-01
          2   -1    0    0  502    0  0.00000000000E+00  0.00000000000E+00  0.23911398141E+04  0.23911398141E+04  0.00000000000E+00 0. -1.
         -2   -1    0    0    0  501 -0.00000000000E+00 -0.00000000000E+00 -0.16719794943E+03  0.16719794943E+03  0.00000000000E+00 0.  1.
    9000007    1    1    2  502    0 -0.52355683165E+01 -0.40812715428E+03  0.16593157161E+04  0.17549711767E+04  0.40000000000E+03 0. -1.
   -9000007    1    1    2    0  501  0.52355683165E+01  0.40812715428E+03  0.56462614861E+03  0.80336658689E+03  0.40000000000E+03 0.  1.
<mgrwt>
<rscale>  2 0.57148507E+03</rscale>
<asrwt>0</asrwt>
<pdfrwt beam="1">  1        2 0.36786764E+00 0.57148507E+03</pdfrwt>
<pdfrwt beam="2">  1       -2 0.25722763E-01 0.57148507E+03</pdfrwt>
<totfact> 0.58300941E+01</totfact>
</mgrwt>
</event>
<event>
 4    1  0.2338029E-002  0.4127219E+03  0.7818608E-02  0.1039461E+00
          1   -1    0    0  502    0  0.00000000000E+00  0.00000000000E+00  0.38456261975E+04  0.38456261975E+04  0.00000000000E+00 0. -1.
         -1   -1    0    0    0  501 -0.00000000000E+00 -0.00000000000E+00 -0.48432877606E+02  0.48432877606E+02  0.00000000000E+00 0.  1.
    9000007    1    1    2  502    0 -0.10004796963E+03  0.18159931372E+02  0.24677472000E+04  0.25020223065E+04  0.40000000000E+03 0. -1.
   -9000007    1    1    2    0  501  0.10004796963E+03 -0.18159931372E+02  0.13294461200E+04  0.13920367686E+04  0.40000000000E+03 0. -1.
<mgrwt>
<rscale>  2 0.41272192E+03</rscale>
<asrwt>0</asrwt>
<pdfrwt beam="1">  1        1 0.59163456E+00 0.41272192E+03</pdfrwt>
<pdfrwt beam="2">  1       -1 0.74512150E-02 0.41272192E+03</pdfrwt>
<totfact> 0.15332132E+01</totfact>
</mgrwt>
</event>
<event>
 4    1  0.2338029E-002  0.4332356E+03  0.7818608E-02  0.1032843E+00
         -2   -1    0    0    0  501 -0.00000000000E+00  0.00000000000E+00  0.88282592566E+02  0.88282592566E+02  0.00000000000E+00 0.  1.
          2   -1    0    0  502    0  0.00000000000E+00 -0.00000000000E+00 -0.21638819871E+04  0.21638819871E+04  0.00000000000E+00 0. -1.
    9000007    1    1    2  502    0  0.16497236684E+03 -0.21845803793E+02 -0.88890184187E+03  0.98885772760E+03  0.40000000000E+03 0.  1.
   -9000007    1    1    2    0  501 -0.16497236684E+03  0.21845803793E+02 -0.11866975527E+04  0.12633068520E+04  0.40000000000E+03 0.  1.
<mgrwt>
<rscale>  2 0.43323564E+03</rscale>
<asrwt>0</asrwt>
<pdfrwt beam="1">  1        2 0.33290492E+00 0.43323564E+03</pdfrwt>
<pdfrwt beam="2">  1       -2 0.13581937E-01 0.43323564E+03</pdfrwt>
<totfact> 0.23900233E+02</totfact>
</mgrwt>
</event>
<event>
 4    1  0.2338029E-002  0.4026259E+03  0.7818608E-02  0.1042874E+00
         -1   -1    0    0    0  501 -0.00000000000E+00  0.00000000000E+00  0.56131923608E+03  0.56131923608E+03  0.00000000000E+00 0.  1.
          1   -1    0    0  502    0  0.00000000000E+00 -0.00000000000E+00 -0.29452809617E+03  0.29452809617E+03  0.00000000000E+00 0. -1.
    9000007    1    1    2  502    0  0.45615009946E+02 -0.51826309995E+01  0.19308577418E+03  0.44653074361E+03  0.40000000000E+03 0.  1.
   -9000007    1    1    2    0  501 -0.45615009946E+02  0.51826309995E+01  0.73705365734E+02  0.40931658864E+03  0.40000000000E+03 0. -1.
<mgrwt>
<rscale>  2 0.40262587E+03</rscale>
<asrwt>0</asrwt>
<pdfrwt beam="1">  1        1 0.45312015E-01 0.40262587E+03</pdfrwt>
<pdfrwt beam="2">  1       -1 0.86356805E-01 0.40262587E+03</pdfrwt>
<totfact> 0.12376850E+02</totfact>
</mgrwt>
</event>
<event>
 4    1  0.2338029E-002  0.4627549E+03  0.7818608E-02  0.1023985E+00
          2   -1    0    0  502    0  0.00000000000E+00  0.00000000000E+00  0.43817062906E+03  0.43817062906E+03  0.00000000000E+00 0.  1.
         -2   -1    0    0    0  501 -0.00000000000E+00 -0.00000000000E+00 -0.10905912111E+04  0.10905912111E+04  0.00000000000E+00 0. -1.
    9000007    1    1    2  502    0  0.23249577401E+03 -0.93697576637E+01 -0.89405708778E+03  0.10067175143E+04  0.40000000000E+03 0. -1.
   -9000007    1    1    2    0  501 -0.23249577401E+03  0.93697576637E+01  0.24163650574E+03  0.52204432590E+03  0.40000000000E+03 0.  1.
<mgrwt>
<rscale>  2 0.46275488E+03</rscale>
<asrwt>0</asrwt>
<pdfrwt beam="1">  1        2 0.67410868E-01 0.46275488E+03</pdfrwt>
<pdfrwt beam="2">  1       -2 0.16778326E+00 0.46275488E+03</pdfrwt>
<totfact> 0.16618342E+01</totfact>
</mgrwt>
</event>
<event>
 4    1  0.2338029E-002  0.6945340E+03  0.7818608E-02  0.9726626E-01
         -2   -1    0    0    0  501 -0.00000000000E+00  0.00000000000E+00  0.21670368416E+04  0.21670368416E+04  0.00000000000E+00 0.  1.
          2   -1    0    0  502    0  0.00000000000E+00 -0.00000000000E+00 -0.40420265857E+03  0.40420265857E+03  0.00000000000E+00 0. -1.
    9000007    1    1    2  502    0 -0.26636808689E+03 -0.50142342695E+03  0.17431581925E+04  0.18764268957E+04  0.40000000000E+03 0.  1.
   -9000007    1    1    2    0  501  0.26636808689E+03  0.50142342695E+03  0.19675990579E+02  0.69481260453E+03  0.40000000000E+03 0. -1.
<mgrwt>
<rscale>  2 0.69453395E+03</rscale>
<asrwt>0</asrwt>
<pdfrwt beam="1">  1        2 0.62185026E-01 0.69453395E+03</pdfrwt>
<pdfrwt beam="2">  1       -2 0.33339028E+00 0.69453395E+03</pdfrwt>
<totfact> 0.16458055E+00</totfact>
</mgrwt>
</event>
<event>
 4    1  0.2338029E-002  0.4282918E+03  0.7818608E-02  0.1034401E+00
          2   -1    0    0  502    0  0.00000000000E+00  0.00000000000E+00  0.25824661145E+04  0.25824661145E+04  0.00000000000E+00 0.  1.
         -2   -1    0    0    0  501 -0.00000000000E+00 -0.00000000000E+00 -0.71428369635E+02  0.71428369635E+02  0.00000000000E+00 0. -1.
    9000007    1    1    2  502    0  0.56278155823E+02 -0.14236082215E+03  0.13545550649E+04  0.14206524059E+04  0.40000000000E+03 0. -1.
   -9000007    1    1    2    0  501 -0.56278155823E+02  0.14236082215E+03  0.11564826800E+04  0.12332420783E+04  0.40000000000E+03 0. -1.
<mgrwt>
<rscale>  2 0.42829176E+03</rscale>
<asrwt>0</asrwt>
<pdfrwt beam="1">  1        2 0.39730241E+00 0.42829176E+03</pdfrwt>
<pdfrwt beam="2">  1       -2 0.10988982E-01 0.42829176E+03</pdfrwt>
<totfact> 0.19928335E+02</totfact>
</mgrwt>
</event>
<event>
 4    1  0.2338029E-002  0.4494393E+03  0.7818608E-02  0.1027889E+00
         -1   -1    0    0    0  501 -0.00000000000E+00  0.00000000000E+00  0.74407174257E+03  0.74407174257E+03  0.00000000000E+00 0. -1.
          1   -1    0    0  502    0  0.00000000000E+00 -0.00000000000E+00 -0.36285133887E+03  0.36285133887E+03  0.00000000000E+00 0.  1.
    9000007    1    1    2  502    0  0.14072122117E+03 -0.14897386595E+03 -0.87133229575E+02  0.45780768289E+03  0.40000000000E+03 0. -1.
   -9000007    1    1    2    0  501 -0.14072122117E+03  0.14897386595E+03  0.46835363328E+03  0.64911539854E+03  0.40000000000E+03 0. -1.
<mgrwt>
<rscale>  2 0.44943929E+03</rscale>
<asrwt>0</asrwt>
<pdfrwt beam="1">  1        1 0.55823283E-01 0.44943929E+03</pdfrwt>
<pdfrwt beam="2">  1       -1 0.11447258E+00 0.44943929E+03</pdfrwt>
<totfact> 0.49895928E+01</totfact>
</mgrwt>
</event>
<event>
 4    1  0.2338029E-002  0.4916648E+03  0.7818608E-02  0.1015978E+00
         -2   -1    0    0    0  501 -0.00000000000E+00  0.00000000000E+00  0.35356304166E+03  0.35356304166E+03  0.00000000000E+00 0.  1.
          2   -1    0    0  502    0  0.00000000000E+00 -0.00000000000E+00 -0.91135238228E+03  0.91135238228E+03  0.00000000000E+00 0. -1.
    9000007    1    1    2  502    0  0.27531997138E+03 -0.77027259141E+02  0.37198928825E+02  0.49307002099E+03  0.40000000000E+03 0.  1.
   -9000007    1    1    2    0  501 -0.27531997138E+03  0.77027259141E+02 -0.59498826945E+03  0.77184540296E+03  0.40000000000E+03 0. -1.
<mgrwt>
<rscale>  2 0.49166481E+03</rscale>
<asrwt>0</asrwt>
<pdfrwt beam="1">  1        2 0.14020806E+00 0.49166481E+03</pdfrwt>
<pdfrwt beam="2">  1       -2 0.54394315E-01 0.49166481E+03</pdfrwt>
<totfact> 0.94974843E+01</totfact>
</mgrwt>
</event>
<event>
 4    1  0.2338029E-002  0.5519633E+03  0.7818608E-02  0.1001041E+00
          2   -1    0    0  502    0  0.00000000000E+00  0.00000000000E+00  0.37325870451E+04  0.37325870451E+04  0.00000000000E+00 0.  1.
         -2   -1    0    0    0  501 -0.00000000000E+00 -0.00000000000E+00 -0.12714862415E+03  0.12714862415E+03  0.00000000000E+00 0. -1.
    9000007    1    1    2  502    0 -0.29946447475E+03  0.23448767508E+03  0.64793291738E+03  0.85116420673E+03  0.40000000000E+03 0. -1.
   -9000007    1    1    2    0  501  0.29946447475E+03 -0.23448767508E+03  0.29575055036E+04  0.30085714625E+04  0.40000000000E+03 0.  1.
<mgrwt>
<rscale>  2 0.55196326E+03</rscale>
<asrwt>0</asrwt>
<pdfrwt beam="1">  1        2 0.57424408E+00 0.55196326E+03</pdfrwt>
<pdfrwt beam="2">  1       -2 0.19561330E-01 0.55196326E+03</pdfrwt>
<totfact> 0.13928032E+01</totfact>
</mgrwt>
</event>
<event>
 4    1  0.2338029E-002  0.4555547E+03  0.7818608E-02  0.1026078E+00
         -1   -1    0    0    0  501 -0.00000000000E+00  0.00000000000E+00  0.71660882818E+02  0.71660882818E+02  0.00000000000E+00 0.  1.
          1   -1    0    0  502    0  0.00000000000E+00 -0.00000000000E+00 -0.29890824790E+04  0.29890824790E+04  0.00000000000E+00 0. -1.
    9000007    1    1    2  502    0  0.52628019897E+02 -0.21156648721E+03 -0.11886532028E+04  0.12729597494E+04  0.40000000000E+03 0.  1.
   -9000007    1    1    2    0  501 -0.52628019897E+02  0.21156648721E+03 -0.17287683934E+04  0.17877836125E+04  0.40000000000E+03 0. -1.
<mgrwt>
<rscale>  2 0.45555470E+03</rscale>
<asrwt>0</asrwt>
<pdfrwt beam="1">  1        1 0.45985910E+00 0.45555470E+03</pdfrwt>
<pdfrwt beam="2">  1       -1 0.11024745E-01 0.45555470E+03</pdfrwt>
<totfact> 0.36612766E+01</totfact>
</mgrwt>
</event>
<event>
 4    1  0.2338029E-002  0.4016488E+03  0.7818608E-02  0.1043210E+00
          2   -1    0    0  502    0  0.00000000000E+00  0.00000000000E+00  0.13379183479E+04  0.13379183479E+04  0.00000000000E+00 0. -1.
         -2   -1    0    0    0  501 -0.00000000000E+00 -0.00000000000E+00 -0.14748928047E+03  0.14748928047E+03  0.00000000000E+00 0.  1.
    9000007    1    1    2  502    0  0.32401450974E+02  0.16490149699E+02  0.27795615711E+03  0.48844795458E+03  0.40000000000E+03 0.  1.
   -9000007    1    1    2    0  501 -0.32401450974E+02 -0.16490149699E+02  0.91247291028E+03  0.99695967373E+03  0.40000000000E+03 0. -1.
<mgrwt>
<rscale>  2 0.40164883E+03</rscale>
<asrwt>0</asrwt>
<pdfrwt beam="1">  1        2 0.20583358E+00 0.40164883E+03</pdfrwt>
<pdfrwt beam="2">  1       -2 0.22690659E-01 0.40164883E+03</pdfrwt>
<totfact> 0.27923337E+02</totfact>
</mgrwt>
</event>
<event>
 4    1  0.2338029E-002  0.5031424E+03  0.7818608E-02  0.1012962E+00
         -1   -1    0    0    0  501 -0.00000000000E+00  0.00000000000E+00  0.10622657256E+04  0.10622657256E+04  0.00000000000E+00 0.  1.
          1   -1    0    0  502    0  0.00000000000E+00 -0.00000000000E+00 -0.24762158620E+03  0.24762158620E+03  0.00000000000E+00 0. -1.
    9000007    1    1    2  502    0  0.25369716252E+03  0.16967624965E+03  0.53430329529E+03  0.73391572495E+03  0.40000000000E+03 0. -1.
   -9000007    1    1    2    0  501 -0.25369716252E+03 -0.16967624965E+03  0.28034084409E+03  0.57597158683E+03  0.40000000000E+03 0. -1.
<mgrwt>
<rscale>  2 0.50314241E+03</rscale>
<asrwt>0</asrwt>
<pdfrwt beam="1">  1        1 0.38095629E-01 0.50314241E+03</pdfrwt>
<pdfrwt beam="2">  1       -1 0.16342549E+00 0.50314241E+03</pdfrwt>
<totfact> 0.32551510E+01</totfact>
</mgrwt>
</event>
<event>
 4    1  0.2338029E-002  0.4362669E+03  0.7818608E-02  0.1031898E+00
          2   -1    0    0  502    0  0.00000000000E+00  0.00000000000E+00  0.12432276779E+04  0.12432276779E+04  0.00000000000E+00 0.  1.
         -2   -1    0    0    0  501 -0.00000000000E+00 -0.00000000000E+00 -0.16561088121E+03  0.16561088121E+03  0.00000000000E+00 0. -1.
    9000007    1    1    2  502    0  0.17361557381E+03 -0.13654965167E+02  0.34513900414E+03  0.55628208467E+03  0.40000000000E+03 0. -1.
   -9000007    1    1    2    0  501 -0.17361557381E+03  0.13654965167E+02  0.73247779254E+03  0.85255647444E+03  0.40000000000E+03 0.  1.
<mgrwt>
<rscale>  2 0.43626692E+03</rscale>
<asrwt>0</asrwt>
<pdfrwt beam="1">  1        2 0.19126579E+00 0.43626692E+03</pdfrwt>
<pdfrwt beam="2">  1       -2 0.25478598E-01 0.43626692E+03</pdfrwt>
<totfact> 0.25618417E+02</totfact>
</mgrwt>
</event>
<event>
 4    1  0.2338029E-002  0.4557638E+03  0.7818608E-02  0.1026017E+00
         -2   -1    0    0    0  501 -0.00000000000E+00  0.00000000000E+00  0.13510696356E+03  0.13510696356E+03  0.00000000000E+00 0. -1.
          2   -1    0    0  502    0  0.00000000000E+00 -0.00000000000E+00 -0.18050032793E+04  0.18050032793E+04  0.00000000000E+00 0.  1.
    9000007    1    1    2  502    0 -0.20974112405E+03 -0.61068015815E+02 -0.12084217579E+04  0.12915122092E+04  0.40000000000E+03 0.  1.
   -9000007    1    1    2    0  501  0.20974112405E+03  0.61068015815E+02 -0.46147455788E+03  0.64859803364E+03  0.40000000000E+03 0.  1.
<mgrwt>
<rscale>  2 0.45576380E+03</rscale>
<asrwt>0</asrwt>
<pdfrwt beam="1">  1        2 0.27769279E+00 0.45576380E+03</pdfrwt>
<pdfrwt beam="2">  1       -2 0.20785688E-01 0.45576380E+03</pdfrwt>
<totfact> 0.18018426E+02</totfact>
</mgrwt>
</event>
<event>
 4    1  0.2338029E-002  0.4256980E+03  0.7818608E-02  0.1035228E+00
          2   -1    0    0  502    0  0.00000000000E+00  0.00000000000E+00  0.29876011479E+04  0.29876011479E+04  0.00000000000E+00 0. -1.
         -2   -1    0    0    0  501 -0.00000000000E+00 -0.00000000000E+00 -0.14885900463E+03  0.14885900463E+03  0.00000000000E+00 0.  1.
    9000007    1    1    2  502    0 -0.13299484207E+03  0.59423421775E+02  0.21222013331E+03  0.47566391082E+03  0.40000000000E+03 0.  1.
   -9000007    1    1    2    0  501  0.13299484207E+03 -0.59423421775E+02  0.26265220099E+04  0.26607962417E+04  0.40000000000E+03 0. -1.
<mgrwt>
<rscale>  2 0.42569798E+03</rscale>
<asrwt>0</asrwt>
<pdfrwt beam="1">  1        2 0.45963090E+00 0.42569798E+03</pdfrwt>
<pdfrwt beam="2">  1       -2 0.22901388E-01 0.42569798E+03</pdfrwt>
<totfact> 0.33606472E+01</totfact>
</mgrwt>
</event>
<event>
 4    1  0.2338029E-002  0.4315593E+03  0.7818608E-02  0.1033369E+00
         -1   -1    0    0    0  501 -0.00000000000E+00  0.00000000000E+00  0.17136690430E+03  0.17136690430E+03  0.00000000000E+00 0. -1.
          1   -1    0    0  502    0  0.00000000000E+00 -0.00000000000E+00 -0.10930366138E+04  0.10930366138E+04  0.00000000000E+00 0.  1.
    9000007    1    1    2  502    0  0.96417817504E+02  0.13018067819E+03 -0.50854777214E+03  0.66698143981E+03  0.40000000000E+03 0. -1.
   -9000007    1    1    2    0  501 -0.96417817504E+02 -0.13018067819E+03 -0.41312193741E+03  0.59742207833E+03  0.40000000000E+03 0. -1.
<mgrwt>
<rscale>  2 0.43155927E+03</rscale>
<asrwt>0</asrwt>
<pdfrwt beam="1">  1        1 0.16815948E+00 0.43155927E+03</pdfrwt>
<pdfrwt beam="2">  1       -1 0.26364139E-01 0.43155927E+03</pdfrwt>
<totfact> 0.17140690E+02</totfact>
</mgrwt>
</event>
<event>
 4    1  0.2338029E-002  0.4998375E+03  0.7818608E-02  0.1013821E+00
          1   -1    0    0  502    0  0.00000000000E+00  0.00000000000E+00  0.14802237477E+03  0.14802237477E+03  0.00000000000E+00 0.  1.
         -1   -1    0    0    0  501 -0.00000000000E+00 -0.00000000000E+00 -0.17580145681E+04  0.17580145681E+04  0.00000000000E+00 0. -1.
    9000007    1    1    2  502    0 -0.19857471131E+03  0.22451193753E+03 -0.61458526837E+03  0.79218216224E+03  0.40000000000E+03 0. -1.
   -9000007    1    1    2    0  501  0.19857471131E+03 -0.22451193753E+03 -0.99540692492E+03  0.11138547806E+04  0.40000000000E+03 0. -1.
<mgrwt>
<rscale>  2 0.49983750E+03</rscale>
<asrwt>0</asrwt>
<pdfrwt beam="1">  1        1 0.22772672E-01 0.49983750E+03</pdfrwt>
<pdfrwt beam="2">  1       -1 0.27046379E+00 0.49983750E+03</pdfrwt>
<totfact> 0.12162663E+01</totfact>
</mgrwt>
</event>
<event>
 4    1  0.2338029E-002  0.4487880E+03  0.7818608E-02  0.1028084E+00
         -1   -1    0    0    0  501 -0.00000000000E+00  0.00000000000E+00  0.44063774688E+03  0.44063774688E+03  0.00000000000E+00 0. -1.
          1   -1    0    0  502    0  0.00000000000E+00 -0.00000000000E+00 -0.85554990778E+03  0.85554990778E+03  0.00000000000E+00 0.  1.
    9000007    1    1    2  502    0 -0.36470042609E+02 -0.20020139271E+03 -0.64974705525E+03  0.78967201891E+03  0.40000000000E+03 0.  1.
   -9000007    1    1    2    0  501  0.36470042609E+02  0.20020139271E+03  0.23483489435E+03  0.50651563574E+03  0.40000000000E+03 0.  1.
<mgrwt>
<rscale>  2 0.44878799E+03</rscale>
<asrwt>0</asrwt>
<pdfrwt beam="1">  1        1 0.13162306E+00 0.44878799E+03</pdfrwt>
<pdfrwt beam="2">  1       -1 0.67790423E-01 0.44878799E+03</pdfrwt>
<totfact> 0.46404621E+01</totfact>
</mgrwt>
</event>
<event>
 4    1  0.2338029E-002  0.5546320E+03  0.7818608E-02  0.1000427E+00
          2   -1    0    0  502    0  0.00000000000E+00  0.00000000000E+00  0.14822157109E+04  0.14822157109E+04  0.00000000000E+00 0.  1.
         -2   -1    0    0    0  501 -0.00000000000E+00 -0.00000000000E+00 -0.24041679408E+03  0.24041679408E+03  0.00000000000E+00 0. -1.
    9000007    1    1    2  502    0  0.19236697563E+01 -0.38420433848E+03  0.30238030518E+03  0.63170445873E+03  0.40000000000E+03 0. -1.
   -9000007    1    1    2    0  501 -0.19236697563E+01  0.38420433848E+03  0.93941861166E+03  0.10909280463E+04  0.40000000000E+03 0.  1.
<mgrwt>
<rscale>  2 0.55463202E+03</rscale>
<asrwt>0</asrwt>
<pdfrwt beam="1">  1        2 0.22803318E+00 0.55463202E+03</pdfrwt>
<pdfrwt beam="2">  1       -2 0.36987200E-01 0.55463202E+03</pdfrwt>
<totfact> 0.93061164E+01</totfact>
</mgrwt>
</event>
<event>
 4    1  0.2338029E-002  0.4176264E+03  0.7818608E-02  0.1037842E+00
         -1   -1    0    0    0  501 -0.00000000000E+00  0.00000000000E+00  0.33885892108E+03  0.33885892108E+03  0.00000000000E+00 0.  1.
          1   -1    0    0  502    0  0.00000000000E+00 -0.00000000000E+00 -0.52808546681E+03  0.52808546681E+03  0.00000000000E+00 0. -1.
    9000007    1    1    2  502    0 -0.45838643948E+02 -0.11095336848E+03 -0.25609776894E+02  0.41841091277E+03  0.40000000000E+03 0. -1.
   -9000007    1    1    2    0  501  0.45838643948E+02  0.11095336848E+03 -0.16361676883E+03  0.44853347512E+03  0.40000000000E+03 0.  1.
<mgrwt>
<rscale>  2 0.41762643E+03</rscale>
<asrwt>0</asrwt>
<pdfrwt beam="1">  1        1 0.81243917E-01 0.41762643E+03</pdfrwt>
<pdfrwt beam="2">  1       -1 0.52132142E-01 0.41762643E+03</pdfrwt>
<totfact> 0.15834040E+02</totfact>
</mgrwt>
</event>
<event>
 4    1  0.2338029E-002  0.4150103E+03  0.7818608E-02  0.1038703E+00
          2   -1    0    0  502    0  0.00000000000E+00  0.00000000000E+00  0.28809468247E+03  0.28809468247E+03  0.00000000000E+00 0.  1.
         -2   -1    0    0    0  501 -0.00000000000E+00 -0.00000000000E+00 -0.79302771034E+03  0.79302771034E+03  0.00000000000E+00 0. -1.
    9000007    1    1    2  502    0  0.86869314397E+01 -0.11026358955E+03 -0.52064923543E+03  0.66581465012E+03  0.40000000000E+03 0. -1.
   -9000007    1    1    2    0  501 -0.86869314397E+01  0.11026358955E+03  0.15716207559E+02  0.41530774269E+03  0.40000000000E+03 0.  1.
<mgrwt>
<rscale>  2 0.41501027E+03</rscale>
<asrwt>0</asrwt>
<pdfrwt beam="1">  1        2 0.44322260E-01 0.41501027E+03</pdfrwt>
<pdfrwt beam="2">  1       -2 0.12200426E+00 0.41501027E+03</pdfrwt>
<totfact> 0.60528579E+01</totfact>
</mgrwt>
</event>
<event>
 4    1  0.2338029E-002  0.4806375E+03  0.7818608E-02  0.1018960E+00
         -2   -1    0    0    0  501 -0.00000000000E+00  0.00000000000E+00  0.12793707967E+03  0.12793707967E+03  0.00000000000E+00 0. -1.
          2   -1    0    0  502    0  0.00000000000E+00 -0.00000000000E+00 -0.22641468683E+04  0.22641468683E+04  0.00000000000E+00 0.  1.
    9000007    1    1    2  502    0  0.80466971166E+01 -0.26636007838E+03 -0.52989491061E+03  0.71540272363E+03  0.40000000000E+03 0. -1.
   -9000007    1    1    2    0  501 -0.80466971166E+01  0.26636007838E+03 -0.16063148780E+04  0.16766812244E+04  0.40000000000E+03 0.  1.
<mgrwt>
<rscale>  2 0.48063754E+03</rscale>
<asrwt>0</asrwt>
<pdfrwt beam="1">  1        2 0.34833028E+00 0.48063754E+03</pdfrwt>
<pdfrwt beam="2">  1       -2 0.19682628E-01 0.48063754E+03</pdfrwt>
<totfact> 0.11162381E+02</totfact>
</mgrwt>
</event>
<event>
 4    1  0.2338029E-002  0.5131551E+03  0.7818608E-02  0.1010401E+00
          1   -1    0    0  502    0  0.00000000000E+00  0.00000000000E+00  0.65431557607E+03  0.65431557607E+03  0.00000000000E+00 0.  1.
         -1   -1    0    0    0  501 -0.00000000000E+00 -0.00000000000E+00 -0.45474234936E+03  0.45474234936E+03  0.00000000000E+00 0. -1.
    9000007    1    1    2  502    0  0.24423401113E+03 -0.20899258660E+03  0.28783426298E+03  0.58836784105E+03  0.40000000000E+03 0.  1.
   -9000007    1    1    2    0  501 -0.24423401113E+03  0.20899258660E+03 -0.88261036272E+02  0.52069008438E+03  0.40000000000E+03 0. -1.
<mgrwt>
<rscale>  2 0.51315510E+03</rscale>
<asrwt>0</asrwt>
<pdfrwt beam="1">  1        1 0.10066394E+00 0.51315510E+03</pdfrwt>
<pdfrwt beam="2">  1       -1 0.69960361E-01 0.51315510E+03</pdfrwt>
<totfact> 0.65105559E+01</totfact>
</mgrwt>
</event>
<event>
 4    1  0.2338029E-002  0.5869114E+03  0.7818608E-02  0.9932939E-01
          1   -1    0    0  502    0  0.00000000000E+00  0.00000000000E+00  0.12117697064E+04  0.12117697064E+04  0.00000000000E+00 0.  1.
         -1   -1    0    0    0  501 -0.00000000000E+00 -0.00000000000E+00 -0.44338985452E+03  0.44338985452E+03  0.00000000000E+00 0. -1.
    9000007    1    1    2  502    0 -0.40914250602E+03 -0.13064234084E+03  0.87996483793E+03  0.10577349041E+04  0.40000000000E+03 0.  1.
   -9000007    1    1    2    0  501  0.40914250602E+03  0.13064234084E+03 -0.11158498603E+03  0.59742465680E+03  0.40000000000E+03 0. -1.
<mgrwt>
<rscale>  2 0.58691142E+03</rscale>
<asrwt>0</asrwt>
<pdfrwt beam="1">  1        1 0.18642611E+00 0.58691142E+03</pdfrwt>
<pdfrwt beam="2">  1       -1 0.68213824E-01 0.58691142E+03</pdfrwt>
<totfact> 0.24017932E+01</totfact>
</mgrwt>
</event>
<event>
 4    1  0.2338029E-002  0.5064187E+03  0.7818608E-02  0.1012117E+00
         -2   -1    0    0    0  501 -0.00000000000E+00  0.00000000000E+00  0.40092866314E+03  0.40092866314E+03  0.00000000000E+00 0. -1.
          2   -1    0    0  502    0  0.00000000000E+00 -0.00000000000E+00 -0.64090730051E+03  0.64090730051E+03  0.00000000000E+00 0.  1.
    9000007    1    1    2  502    0  0.21784092805E+03  0.22137123238E+03 -0.14292683926E+03  0.52620145747E+03  0.40000000000E+03 0.  1.
   -9000007    1    1    2    0  501 -0.21784092805E+03 -0.22137123238E+03 -0.97051798107E+02  0.51563450619E+03  0.40000000000E+03 0. -1.
<mgrwt>
<rscale>  2 0.50641869E+03</rscale>
<asrwt>0</asrwt>
<pdfrwt beam="1">  1        2 0.98601122E-01 0.50641869E+03</pdfrwt>
<pdfrwt beam="2">  1       -2 0.61681334E-01 0.50641869E+03</pdfrwt>
<totfact> 0.11489878E+02</totfact>
</mgrwt>
</event>
<event>
 4    1  0.2338029E-002  0.4426661E+03  0.7818608E-02  0.1029932E+00
         -2   -1    0    0    0  501 -0.00000000000E+00  0.00000000000E+00  0.31093739196E+03  0.31093739196E+03  0.00000000000E+00 0. -1.
          2   -1    0    0  502    0  0.00000000000E+00 -0.00000000000E+00 -0.86339742517E+03  0.86339742517E+03  0.00000000000E+00 0.  1.
    9000007    1    1    2  502    0 -0.99201414421E+02  0.16159304838E+03  0.28922514430E+02  0.44360990267E+03  0.40000000000E+03 0. -1.
   -9000007    1    1    2    0  501  0.99201414421E+02 -0.16159304838E+03 -0.58138254764E+03  0.73072491445E+03  0.40000000000E+03 0.  1.
<mgrwt>
<rscale>  2 0.44266605E+03</rscale>
<asrwt>0</asrwt>
<pdfrwt beam="1">  1        2 0.13283037E+00 0.44266605E+03</pdfrwt>
<pdfrwt beam="2">  1       -2 0.47836523E-01 0.44266605E+03</pdfrwt>
<totfact> 0.13337125E+02</totfact>
</mgrwt>
</event>
<event>
 4    1  0.2338029E-002  0.4216356E+03  0.7818608E-02  0.1036535E+00
         -1   -1    0    0    0  501 -0.00000000000E+00  0.00000000000E+00  0.23820869629E+03  0.23820869629E+03  0.00000000000E+00 0. -1.
          1   -1    0    0  502    0  0.00000000000E+00 -0.00000000000E+00 -0.75597479821E+03  0.75597479821E+03  0.00000000000E+00 0.  1.
    9000007    1    1    2  502    0  0.37583544762E+02  0.12792207655E+03 -0.20266587468E+03  0.46781410546E+03  0.40000000000E+03 0. -1.
   -9000007    1    1    2    0  501 -0.37583544762E+02 -0.12792207655E+03 -0.31510022725E+03  0.52636938904E+03  0.40000000000E+03 0.  1.
<mgrwt>
<rscale>  2 0.42163560E+03</rscale>
<asrwt>0</asrwt>
<pdfrwt beam="1">  1        1 0.11630381E+00 0.42163560E+03</pdfrwt>
<pdfrwt beam="2">  1       -1 0.36647492E-01 0.42163560E+03</pdfrwt>
<totfact> 0.17977525E+02</totfact>
</mgrwt>
</event>
<event>
 4    1  0.2338029E-002  0.4881970E+03  0.7818608E-02  0.1016906E+00
          2   -1    0    0  502    0  0.00000000000E+00  0.00000000000E+00  0.54446032337E+03  0.54446032337E+03  0.00000000000E+00 0.  1.
         -2   -1    0    0    0  501 -0.00000000000E+00 -0.00000000000E+00 -0.44422244214E+03  0.44422244214E+03  0.00000000000E+00 0. -1.
    9000007    1    1    2  502    0  0.25570964409E+03  0.11379321960E+03  0.10979965032E+03  0.50039212835E+03  0.40000000000E+03 0.  1.
   -9000007    1    1    2    0  501 -0.25570964409E+03 -0.11379321960E+03 -0.95617690842E+01  0.48829063716E+03  0.40000000000E+03 0. -1.
<mgrwt>
<rscale>  2 0.48819701E+03</rscale>
<asrwt>0</asrwt>
<pdfrwt beam="1">  1        2 0.83763127E-01 0.48819701E+03</pdfrwt>
<pdfrwt beam="2">  1       -2 0.68341914E-01 0.48819701E+03</pdfrwt>
<totfact> 0.11221494E+02</totfact>
</mgrwt>
</event>
<event>
 4    1  0.2338029E-002  0.4690299E+03  0.7818608E-02  0.1022194E+00
          2   -1    0    0  502    0  0.00000000000E+00  0.00000000000E+00  0.23158873512E+04  0.23158873512E+04  0.00000000000E+00 0. -1.
         -2   -1    0    0    0  501 -0.00000000000E+00 -0.00000000000E+00 -0.19239799530E+03  0.19239799530E+03  0.00000000000E+00 0.  1.
    9000007    1    1    2  502    0  0.10252110141E+03 -0.22243752014E+03  0.19541069440E+04  0.20096076670E+04  0.40000000000E+03 0. -1.
   -9000007    1    1    2    0  501 -0.10252110141E+03  0.22243752014E+03  0.16938241191E+03  0.49867767953E+03  0.40000000000E+03 0.  1.
<mgrwt>
<rscale>  2 0.46902988E+03</rscale>
<asrwt>0</asrwt>
<pdfrwt beam="1">  1        2 0.35629034E+00 0.46902988E+03</pdfrwt>
<pdfrwt beam="2">  1       -2 0.29599693E-01 0.46902988E+03</pdfrwt>
<totfact> 0.50647527E+01</totfact>
</mgrwt>
</event>
<event>
 4    1  0.2338029E-002  0.4208890E+03  0.7818608E-02  0.1036777E+00
         -2   -1    0    0    0  501 -0.00000000000E+00  0.00000000000E+00  0.10620459694E+03  0.10620459694E+03  0.00000000000E+00 0. -1.
          2   -1    0    0  502    0  0.00000000000E+00 -0.00000000000E+00 -0.17470750341E+04  0.17470750341E+04  0.00000000000E+00 0.  1.
    9000007    1    1    2  502    0 -0.57705136352E+01  0.13082131451E+03 -0.10175958416E+04  0.11012033473E+04  0.40000000000E+03 0.  1.
   -9000007    1    1    2    0  501  0.57705136352E+01 -0.13082131451E+03 -0.62327459556E+03  0.75207628379E+03  0.40000000000E+03 0. -1.
<mgrwt>
<rscale>  2 0.42088896E+03</rscale>
<asrwt>0</asrwt>
<pdfrwt beam="1">  1        2 0.26878076E+00 0.42088896E+03</pdfrwt>
<pdfrwt beam="2">  1       -2 0.16339170E-01 0.42088896E+03</pdfrwt>
<totfact> 0.29387094E+02</totfact>
</mgrwt>
</event>
<event>
 4    1  0.2338029E-002  0.4209155E+03  0.7818608E-02  0.1036769E+00
          1   -1    0    0  502    0  0.00000000000E+00  0.00000000000E+00  0.12294657589E+04  0.12294657589E+04  0.00000000000E+00 0. -1.
         -1   -1    0    0    0  501 -0.00000000000E+00 -0.00000000000E+00 -0.26561234065E+03  0.26561234065E+03  0.00000000000E+00 0.  1.
    9000007    1    1    2  502    0  0.12921372439E+03 -0.21764327766E+02  0.98753518676E+03  0.10734969109E+04  0.40000000000E+03 0. -1.
   -9000007    1    1    2    0  501 -0.12921372439E+03  0.21764327766E+02 -0.23681768477E+02  0.42158118873E+03  0.40000000000E+03 0.  1.
<mgrwt>
<rscale>  2 0.42091552E+03</rscale>
<asrwt>0</asrwt>
<pdfrwt beam="1">  1        1 0.18914857E+00 0.42091552E+03</pdfrwt>
<pdfrwt beam="2">  1       -1 0.40863438E-01 0.42091552E+03</pdfrwt>
<totfact> 0.63671912E+01</totfact>
</mgrwt>
</event>
<event>
 4    1  0.2338029E-002  0.4511170E+03  0.7818608E-02  0.1027389E+00
          1   -1    0    0  502    0  0.00000000000E+00  0.00000000000E+00  0.72643652262E+03  0.72643652262E+03  0.00000000000E+00 0.  1.
         -1   -1    0    0    0  501 -0.00000000000E+00 -0.00000000000E+00 -0.28015496172E+03  0.28015496172E+03  0.00000000000E+00 0. -1.
    9000007    1    1    2  502    0 -0.14627541444E+03 -0.14869458754E+03  0.21994237491E+03  0.50187769976E+03  0.40000000000E+03 0. -1.
   -9000007    1    1    2    0  501  0.14627541444E+03  0.14869458754E+03  0.22633918599E+03  0.50471378458E+03  0.40000000000E+03 0. -1.
<mgrwt>
<rscale>  2 0.45111703E+03</rscale>
<asrwt>0</asrwt>
<pdfrwt beam="1">  1        1 0.11175946E+00 0.45111703E+03</pdfrwt>
<pdfrwt beam="2">  1       -1 0.43100764E-01 0.45111703E+03</pdfrwt>
<totfact> 0.14224016E+02</totfact>
</mgrwt>
</event>
<event>
 4    1  0.2338029E-002  0.5344626E+03  0.7818608E-02  0.1005156E+00
         -1   -1    0    0    0  501 -0.00000000000E+00  0.00000000000E+00  0.49786236263E+03  0.49786236263E+03  0.00000000000E+00 0.  1.
          1   -1    0    0  502    0  0.00000000000E+00 -0.00000000000E+00 -0.90145393588E+03  0.90145393588E+03  0.00000000000E+00 0. -1.
    9000007    1    1    2  502    0 -0.27373385894E+03  0.22521101257E+03  0.22004901324E+03  0.57798944103E+03  0.40000000000E+03 0.  1.
   -9000007    1    1    2    0  501  0.27373385894E+03 -0.22521101257E+03 -0.62364058649E+03  0.82132685749E+03  0.40000000000E+03 0. -1.
<mgrwt>
<rscale>  2 0.53446256E+03</rscale>
<asrwt>0</asrwt>
<pdfrwt beam="1">  1        1 0.13868522E+00 0.53446256E+03</pdfrwt>
<pdfrwt beam="2">  1       -1 0.76594210E-01 0.53446256E+03</pdfrwt>
<totfact> 0.32726738E+01</totfact>
</mgrwt>
</event>
<event>
 4    1  0.2338029E-002  0.4984939E+03  0.7818608E-02  0.1014173E+00
         -2   -1    0    0    0  501 -0.00000000000E+00  0.00000000000E+00  0.14155279696E+04  0.14155279696E+04  0.00000000000E+00 0.  1.
          2   -1    0    0  502    0  0.00000000000E+00 -0.00000000000E+00 -0.18070394470E+03  0.18070394470E+03  0.00000000000E+00 0. -1.
    9000007    1    1    2  502    0  0.10218682947E+03  0.27938145637E+03  0.75219831743E+03  0.90238487079E+03  0.40000000000E+03 0. -1.
   -9000007    1    1    2    0  501 -0.10218682947E+03 -0.27938145637E+03  0.48262570751E+03  0.69384704354E+03  0.40000000000E+03 0. -1.
<mgrwt>
<rscale>  2 0.49849388E+03</rscale>
<asrwt>0</asrwt>
<pdfrwt beam="1">  1        2 0.27800608E-01 0.49849388E+03</pdfrwt>
<pdfrwt beam="2">  1       -2 0.21777353E+00 0.49849388E+03</pdfrwt>
<totfact> 0.20704067E+01</totfact>
</mgrwt>
</event>
<event>
 4    1  0.2338029E-002  0.4311502E+03  0.7818608E-02  0.1033497E+00
         -1   -1    0    0    0  501 -0.00000000000E+00  0.00000000000E+00  0.68311532962E+03  0.68311532962E+03  0.00000000000E+00 0. -1.
          1   -1    0    0  502    0  0.00000000000E+00 -0.00000000000E+00 -0.27372864349E+03  0.27372864349E+03  0.00000000000E+00 0.  1.
    9000007    1    1    2  502    0  0.15588844177E+03  0.39865951052E+02  0.24134994404E+03  0.49410555129E+03  0.40000000000E+03 0. -1.
   -9000007    1    1    2    0  501 -0.15588844177E+03 -0.39865951052E+02  0.16803674209E+03  0.46273842181E+03  0.40000000000E+03 0.  1.
<mgrwt>
<rscale>  2 0.43115021E+03</rscale>
<asrwt>0</asrwt>
<pdfrwt beam="1">  1        1 0.42112099E-01 0.43115021E+03</pdfrwt>
<pdfrwt beam="2">  1       -1 0.10509467E+00 0.43115021E+03</pdfrwt>
<totfact> 0.87654233E+01</totfact>
</mgrwt>
</event>
<event>
 4    1  0.2338029E-002  0.5033424E+03  0.7818608E-02  0.1012910E+00
         -2   -1    0    0    0  501 -0.00000000000E+00  0.00000000000E+00  0.28084634784E+03  0.28084634784E+03  0.00000000000E+00 0. -1.
          2   -1    0    0  502    0  0.00000000000E+00 -0.00000000000E+00 -0.92495647142E+03  0.92495647142E+03  0.00000000000E+00 0.  1.
    9000007    1    1    2  502    0 -0.30601778261E+02 -0.30400179032E+03 -0.41681402746E+03  0.65351931176E+03  0.40000000000E+03 0.  1.
   -9000007    1    1    2    0  501  0.30601778261E+02  0.30400179032E+03 -0.22729609612E+03  0.55228350751E+03  0.40000000000E+03 0.  1.
<mgrwt>
<rscale>  2 0.50334239E+03</rscale>
<asrwt>0</asrwt>
<pdfrwt beam="1">  1        2 0.14230100E+00 0.50334239E+03</pdfrwt>
<pdfrwt beam="2">  1       -2 0.43207130E-01 0.50334239E+03</pdfrwt>
<totfact> 0.14765479E+02</totfact>
</mgrwt>
</event>
<event>
 4    1  0.2338029E-002  0.4022494E+03  0.7818608E-02  0.1043004E+00
         -1   -1    0    0    0  501 -0.00000000000E+00  0.00000000000E+00  0.25439927070E+03  0.25439927070E+03  0.00000000000E+00 0.  1.
          1   -1    0    0  502    0  0.00000000000E+00 -0.00000000000E+00 -0.63901378540E+03  0.63901378540E+03  0.00000000000E+00 0. -1.
    9000007    1    1    2  502    0  0.23890693794E+02  0.35126208827E+02 -0.16176344496E+03  0.43355741018E+03  0.40000000000E+03 0.  1.
   -9000007    1    1    2    0  501 -0.23890693794E+02 -0.35126208827E+02 -0.22285106974E+03  0.45985564592E+03  0.40000000000E+03 0. -1.
<mgrwt>
<rscale>  2 0.40224944E+03</rscale>
<asrwt>0</asrwt>
<pdfrwt beam="1">  1        1 0.98309813E-01 0.40224944E+03</pdfrwt>
<pdfrwt beam="2">  1       -1 0.39138349E-01 0.40224944E+03</pdfrwt>
<totfact> 0.20554952E+02</totfact>
</mgrwt>
</event>
<event>
 4    1  0.2338029E-002  0.4754243E+03  0.7818608E-02  0.1020400E+00
          1   -1    0    0  502    0  0.00000000000E+00  0.00000000000E+00  0.18800313862E+03  0.18800313862E+03  0.00000000000E+00 0.  1.
         -1   -1    0    0    0  501 -0.00000000000E+00 -0.00000000000E+00 -0.12115060693E+04  0.12115060693E+04  0.00000000000E+00 0. -1.
    9000007    1    1    2  502    0  0.36843164235E+02  0.25430462520E+03 -0.57288936819E+03  0.74446658040E+03  0.40000000000E+03 0. -1.
   -9000007    1    1    2    0  501 -0.36843164235E+02 -0.25430462520E+03 -0.45061356247E+03  0.65504262749E+03  0.40000000000E+03 0. -1.
<mgrwt>
<rscale>  2 0.47542430E+03</rscale>
<asrwt>0</asrwt>
<pdfrwt beam="1">  1        1 0.28923561E-01 0.47542430E+03</pdfrwt>
<pdfrwt beam="2">  1       -1 0.18638554E+00 0.47542430E+03</pdfrwt>
<totfact> 0.31864561E+01</totfact>
</mgrwt>
</event>
<event>
 4    1  0.2338029E-002  0.4331543E+03  0.7818608E-02  0.1032868E+00
         -2   -1    0    0    0  501 -0.00000000000E+00  0.00000000000E+00  0.40296251665E+03  0.40296251665E+03  0.00000000000E+00 0.  1.
          2   -1    0    0  502    0  0.00000000000E+00 -0.00000000000E+00 -0.75177554872E+03  0.75177554872E+03  0.00000000000E+00 0. -1.
    9000007    1    1    2  502    0 -0.11844692991E+03  0.11658899854E+03 -0.53062741481E+03  0.68497308205E+03  0.40000000000E+03 0. -1.
   -9000007    1    1    2    0  501  0.11844692991E+03 -0.11658899854E+03  0.18181438274E+03  0.46976498332E+03  0.40000000000E+03 0.  1.
<mgrwt>
<rscale>  2 0.43315433E+03</rscale>
<asrwt>0</asrwt>
<pdfrwt beam="1">  1        2 0.11565778E+00 0.43315433E+03</pdfrwt>
<pdfrwt beam="2">  1       -2 0.61994234E-01 0.43315433E+03</pdfrwt>
<totfact> 0.93913096E+01</totfact>
</mgrwt>
</event>
<event>
 4    1  0.2338029E-002  0.5539573E+03  0.7818608E-02  0.1000582E+00
          2   -1    0    0  502    0  0.00000000000E+00  0.00000000000E+00  0.13817874532E+04  0.13817874532E+04  0.00000000000E+00 0. -1.
         -2   -1    0    0    0  501 -0.00000000000E+00 -0.00000000000E+00 -0.22667165935E+03  0.22667165935E+03  0.00000000000E+00 0.  1.
    9000007    1    1    2  502    0 -0.37592195108E+03  0.74507259732E+02  0.46310621458E+03  0.72203601783E+03  0.40000000000E+03 0. -1.
   -9000007    1    1    2    0  501  0.37592195108E+03 -0.74507259732E+02  0.69200957928E+03  0.88642309473E+03  0.40000000000E+03 0.  1.
<mgrwt>
<rscale>  2 0.55395726E+03</rscale>
<asrwt>0</asrwt>
<pdfrwt beam="1">  1        2 0.21258268E+00 0.55395726E+03</pdfrwt>
<pdfrwt beam="2">  1       -2 0.34872564E-01 0.55395726E+03</pdfrwt>
<totfact> 0.11840410E+02</totfact>
</mgrwt>
</event>
<event>
 4    1  0.2338029E-002  0.4254802E+03  0.7818608E-02  0.1035297E+00
         -2   -1    0    0    0  501 -0.00000000000E+00  0.00000000000E+00  0.97380447981E+02  0.97380447981E+02  0.00000000000E+00 0.  1.
          2   -1    0    0  502    0  0.00000000000E+00 -0.00000000000E+00 -0.18628455200E+04  0.18628455200E+04  0.00000000000E+00 0. -1.
    9000007    1    1    2  502    0  0.12730336462E+03 -0.69478462080E+02 -0.92707610460E+03  0.10200507375E+04  0.40000000000E+03 0. -1.
   -9000007    1    1    2    0  501 -0.12730336462E+03  0.69478462080E+02 -0.83838896742E+03  0.94017523049E+03  0.40000000000E+03 0.  1.
<mgrwt>
<rscale>  2 0.42548020E+03</rscale>
<asrwt>0</asrwt>
<pdfrwt beam="1">  1        2 0.28659160E+00 0.42548020E+03</pdfrwt>
<pdfrwt beam="2">  1       -2 0.14981609E-01 0.42548020E+03</pdfrwt>
<totfact> 0.29468264E+02</totfact>
</mgrwt>
</event>
<event>
 4    1  0.2338029E-002  0.5034317E+03  0.7818608E-02  0.1012887E+00
          2   -1    0    0  502    0  0.00000000000E+00  0.00000000000E+00  0.49260848088E+03  0.49260848088E+03  0.00000000000E+00 0.  1.
         -2   -1    0    0    0  501 -0.00000000000E+00 -0.00000000000E+00 -0.54792426484E+03  0.54792426484E+03  0.00000000000E+00 0. -1.
    9000007    1    1    2  502    0 -0.58534940923E+02  0.30002864358E+03 -0.15616970943E+03  0.52709819239E+03  0.40000000000E+03 0. -1.
   -9000007    1    1    2    0  501  0.58534940923E+02 -0.30002864358E+03  0.10085392547E+03  0.51343455334E+03  0.40000000000E+03 0.  1.
<mgrwt>
<rscale>  2 0.50343175E+03</rscale>
<asrwt>0</asrwt>
<pdfrwt beam="1">  1        2 0.75785920E-01 0.50343175E+03</pdfrwt>
<pdfrwt beam="2">  1       -2 0.84296040E-01 0.50343175E+03</pdfrwt>
<totfact> 0.79143251E+01</totfact>
</mgrwt>
</event>
<event>
 4    1  0.2338029E-002  0.4351617E+03  0.7818608E-02  0.1032242E+00
         -2   -1    0    0    0  501 -0.00000000000E+00  0.00000000000E+00  0.79552698779E+03  0.79552698779E+03  0.00000000000E+00 0. -1.
          2   -1    0    0  502    0  0.00000000000E+00 -0.00000000000E+00 -0.24029625915E+03  0.24029625915E+03  0.00000000000E+00 0.  1.
    9000007    1    1    2  502    0  0.16117411404E+03  0.58211861674E+02  0.22740868980E+03  0.49099941759E+03  0.40000000000E+03 0. -1.
   -9000007    1    1    2    0  501 -0.16117411404E+03 -0.58211861674E+02  0.32782203883E+03  0.54482382934E+03  0.40000000000E+03 0. -1.
<mgrwt>
<rscale>  2 0.43516171E+03</rscale>
<asrwt>0</asrwt>
<pdfrwt beam="1">  1        2 0.36968656E-01 0.43516171E+03</pdfrwt>
<pdfrwt beam="2">  1       -2 0.12238877E+00 0.43516171E+03</pdfrwt>
<totfact> 0.73180019E+01</totfact>
</mgrwt>
</event>
<event>
 4    1  0.2338029E-002  0.6235133E+03  0.7818608E-02  0.9857790E-01
         -1   -1    0    0    0  501 -0.00000000000E+00  0.00000000000E+00  0.95419233371E+02  0.95419233371E+02  0.00000000000E+00 0.  1.
          1   -1    0    0  502    0  0.00000000000E+00 -0.00000000000E+00 -0.42573053669E+04  0.42573053669E+04  0.00000000000E+00 0. -1.
    9000007    1    1    2  502    0 -0.45969164054E+03  0.13210752669E+03 -0.16297441042E+04  0.17449454570E+04  0.40000000000E+03 0. -1.
   -9000007    1    1    2    0  501  0.45969164054E+03 -0.13210752669E+03 -0.25321420294E+04  0.26077791432E+04  0.40000000000E+03 0.  1.
<mgrwt>
<rscale>  2 0.62351327E+03</rscale>
<asrwt>0</asrwt>
<pdfrwt beam="1">  1        1 0.65497009E+00 0.62351327E+03</pdfrwt>
<pdfrwt beam="2">  1       -1 0.14679881E-01 0.62351327E+03</pdfrwt>
<totfact> 0.21769246E+00</totfact>
</mgrwt>
</event>
<event>
 4    1  0.2338029E-002  0.4382664E+03  0.7818608E-02  0.1031280E+00
         -2   -1    0    0    0  501 -0.00000000000E+00  0.00000000000E+00  0.11655051157E+04  0.11655051157E+04  0.00000000000E+00 0.  1.
          2   -1    0    0  502    0  0.00000000000E+00 -0.00000000000E+00 -0.18343801507E+03  0.18343801507E+03  0.00000000000E+00 0. -1.
    9000007    1    1    2  502    0 -0.90025269466E+02  0.15483179269E+03  0.27605411925E+03  0.51796072237E+03  0.40000000000E+03 0. -1.
   -9000007    1    1    2    0  501  0.90025269466E+02 -0.15483179269E+03  0.70601298136E+03  0.83098240837E+03  0.40000000000E+03 0.  1.
<mgrwt>
<rscale>  2 0.43826640E+03</rscale>
<asrwt>0</asrwt>
<pdfrwt beam="1">  1        2 0.28221234E-01 0.43826640E+03</pdfrwt>
<pdfrwt beam="2">  1       -2 0.17930847E+00 0.43826640E+03</pdfrwt>
<totfact> 0.36356236E+01</totfact>
</mgrwt>
</event>
<event>
 4    1  0.2338029E-002  0.4563444E+03  0.7818608E-02  0.1025847E+00
         -2   -1    0    0    0  501 -0.00000000000E+00  0.00000000000E+00  0.73639533658E+03  0.73639533658E+03  0.00000000000E+00 0. -1.
          2   -1    0    0  502    0  0.00000000000E+00 -0.00000000000E+00 -0.38758477973E+03  0.38758477973E+03  0.00000000000E+00 0.  1.
    9000007    1    1    2  502    0 -0.20592000346E+03 -0.76466560582E+02 -0.11780883239E+03  0.47130574334E+03  0.40000000000E+03 0.  1.
   -9000007    1    1    2    0  501  0.20592000346E+03  0.76466560582E+02  0.46661938924E+03  0.65267437297E+03  0.40000000000E+03 0.  1.
<mgrwt>
<rscale>  2 0.45634437E+03</rscale>
<asrwt>0</asrwt>
<pdfrwt beam="1">  1        2 0.59628428E-01 0.45634437E+03</pdfrwt>
<pdfrwt beam="2">  1       -2 0.11329159E+00 0.45634437E+03</pdfrwt>
<totfact> 0.52120040E+01</totfact>
</mgrwt>
</event>
<event>
 4    1  0.2338029E-002  0.4462364E+03  0.7818608E-02  0.1028850E+00
          1   -1    0    0  502    0  0.00000000000E+00  0.00000000000E+00  0.43402456944E+03  0.43402456944E+03  0.00000000000E+00 0. -1.
         -1   -1    0    0    0  501 -0.00000000000E+00 -0.00000000000E+00 -0.50394611442E+03  0.50394611442E+03  0.00000000000E+00 0.  1.
    9000007    1    1    2  502    0  0.12767492257E+03 -0.15108299132E+03  0.10542282655E+03  0.45852036866E+03  0.40000000000E+03 0. -1.
   -9000007    1    1    2    0  501 -0.12767492257E+03  0.15108299132E+03 -0.17534437153E+03  0.47945031520E+03  0.40000000000E+03 0.  1.
<mgrwt>
<rscale>  2 0.44623644E+03</rscale>
<asrwt>0</asrwt>
<pdfrwt beam="1">  1        1 0.66773011E-01 0.44623644E+03</pdfrwt>
<pdfrwt beam="2">  1       -1 0.77530171E-01 0.44623644E+03</pdfrwt>
<totfact> 0.93662338E+01</totfact>
</mgrwt>
</event>
<event>
 4    1  0.2338029E-002  0.4022925E+03  0.7818608E-02  0.1042989E+00
          2   -1    0    0  502    0  0.00000000000E+00  0.00000000000E+00  0.77393961795E+03  0.77393961795E+03  0.00000000000E+00 0.  1.
         -2   -1    0    0    0  501 -0.00000000000E+00 -0.00000000000E+00 -0.44573428669E+03  0.44573428669E+03  0.00000000000E+00 0. -1.
    9000007    1    1    2  502    0  0.42191960551E+02  0.76868247629E+01 -0.28022617384E+03  0.49027130990E+03  0.40000000000E+03 0. -1.
   -9000007    1    1    2    0  501 -0.42191960551E+02 -0.76868247629E+01  0.60843150510E+03  0.72940259473E+03  0.40000000000E+03 0.  1.
<mgrwt>
<rscale>  2 0.40229249E+03</rscale>
<asrwt>0</asrwt>
<pdfrwt beam="1">  1        2 0.11906763E+00 0.40229249E+03</pdfrwt>
<pdfrwt beam="2">  1       -2 0.68574506E-01 0.40229249E+03</pdfrwt>
<totfact> 0.73262440E+01</totfact>
</mgrwt>
</event>
<event>
 4    1  0.2338029E-002  0.4057738E+03  0.7818608E-02  0.1041799E+00
         -1   -1    0    0    0  501 -0.00000000000E+00  0.00000000000E+00  0.19192757547E+03  0.19192757547E+03  0.00000000000E+00 0. -1.
          1   -1    0    0  502    0  0.00000000000E+00 -0.00000000000E+00 -0.87635897404E+03  0.87635897404E+03  0.00000000000E+00 0.  1.
    9000007    1    1    2  502    0  0.65510643692E+02  0.18993493120E+02 -0.41976173514E+03  0.58382558312E+03  0.40000000000E+03 0.  1.
   -9000007    1    1    2    0  501 -0.65510643692E+02 -0.18993493120E+02 -0.26466966343E+03  0.48446096639E+03  0.40000000000E+03 0. -1.
<mgrwt>
<rscale>  2 0.40577383E+03</rscale>
<asrwt>0</asrwt>
<pdfrwt beam="1">  1        1 0.13482446E+00 0.40577383E+03</pdfrwt>
<pdfrwt beam="2">  1       -1 0.29527320E-01 0.40577383E+03</pdfrwt>
<totfact> 0.20787261E+02</totfact>
</mgrwt>
</event>
<event>
 4    1  0.2338029E-002  0.4196412E+03  0.7818608E-02  0.1037183E+00
          2   -1    0    0  502    0  0.00000000000E+00  0.00000000000E+00  0.12339236618E+04  0.12339236618E+04  0.00000000000E+00 0.  1.
         -2   -1    0    0    0  501 -0.00000000000E+00 -0.00000000000E+00 -0.14296372998E+03  0.14296372998E+03  0.00000000000E+00 0. -1.
    9000007    1    1    2  502    0  0.91320446251E+02  0.88086982047E+02  0.51673269148E+03  0.66566614362E+03  0.40000000000E+03 0. -1.
   -9000007    1    1    2    0  501 -0.91320446251E+02 -0.88086982047E+02  0.57422724038E+03  0.71122124821E+03  0.40000000000E+03 0.  1.
<mgrwt>
<rscale>  2 0.41964120E+03</rscale>
<asrwt>0</asrwt>
<pdfrwt beam="1">  1        2 0.18983440E+00 0.41964120E+03</pdfrwt>
<pdfrwt beam="2">  1       -2 0.21994421E-01 0.41964120E+03</pdfrwt>
<totfact> 0.33716124E+02</totfact>
</mgrwt>
</event>
<event>
 4    1  0.2338029E-002  0.4015884E+03  0.7818608E-02  0.1043231E+00
          2   -1    0    0  502    0  0.00000000000E+00  0.00000000000E+00  0.12941433294E+04  0.12941433294E+04  0.00000000000E+00 0. -1.
         -2   -1    0    0    0  501 -0.00000000000E+00 -0.00000000000E+00 -0.12468423449E+03  0.12468423449E+03  0.00000000000E+00 0.  1.
    9000007    1    1    2  502    0  0.30180793819E+02 -0.19036192716E+02  0.56835061114E+03  0.69591355364E+03  0.40000000000E+03 0.  1.
   -9000007    1    1    2    0  501 -0.30180793819E+02  0.19036192716E+02  0.60110848373E+03  0.72291401022E+03  0.40000000000E+03 0. -1.
<mgrwt>
<rscale>  2 0.40158842E+03</rscale>
<asrwt>0</asrwt>
<pdfrwt beam="1">  1        2 0.19909896E+00 0.40158842E+03</pdfrwt>
<pdfrwt beam="2">  1       -2 0.19182191E-01 0.40158842E+03</pdfrwt>
<totfact> 0.39586062E+02</totfact>
</mgrwt>
</event>
<event>
 4    1  0.2338029E-002  0.4346452E+03  0.7818608E-02  0.1032403E+00
         -2   -1    0    0    0  501 -0.00000000000E+00  0.00000000000E+00  0.11163649562E+03  0.11163649562E+03  0.00000000000E+00 0.  1.
          2   -1    0    0  502    0  0.00000000000E+00 -0.00000000000E+00 -0.17013725057E+04  0.17013725057E+04  0.00000000000E+00 0. -1.
    9000007    1    1    2  502    0 -0.16246730716E+03 -0.50207830449E+02 -0.72847623938E+03  0.84828891509E+03  0.40000000000E+03 0. -1.
   -9000007    1    1    2    0  501  0.16246730716E+03  0.50207830449E+02 -0.86125977067E+03  0.96472008620E+03  0.40000000000E+03 0.  1.
<mgrwt>
<rscale>  2 0.43464520E+03</rscale>
<asrwt>0</asrwt>
<pdfrwt beam="1">  1        2 0.26174961E+00 0.43464520E+03</pdfrwt>
<pdfrwt beam="2">  1       -2 0.17174846E-01 0.43464520E+03</pdfrwt>
<totfact> 0.28522325E+02</totfact>
</mgrwt>
</event>
<event>
 4    1  0.2338029E-002  0.4330991E+03  0.7818608E-02  0.1032885E+00
         -2   -1    0    0    0  501 -0.00000000000E+00  0.00000000000E+00  0.25750549221E+03  0.25750549221E+03  0.00000000000E+00 0. -1.
          2   -1    0    0  502    0  0.00000000000E+00 -0.00000000000E+00 -0.30022224187E+04  0.30022224187E+04  0.00000000000E+00 0.  1.
    9000007    1    1    2  502    0 -0.82927846400E+02 -0.14386740918E+03 -0.27907798835E+04  0.28241861159E+04  0.40000000000E+03 0.  1.
   -9000007    1    1    2    0  501  0.82927846400E+02  0.14386740918E+03  0.46062957069E+02  0.43554179495E+03  0.40000000000E+03 0. -1.
<mgrwt>
<rscale>  2 0.43309913E+03</rscale>
<asrwt>0</asrwt>
<pdfrwt beam="1">  1        2 0.46188037E+00 0.43309913E+03</pdfrwt>
<pdfrwt beam="2">  1       -2 0.39616230E-01 0.43309913E+03</pdfrwt>
<totfact> 0.11973592E+01</totfact>
</mgrwt>
</event>
<event>
 4    1  0.2338029E-002  0.4102363E+03  0.7818608E-02  0.1040292E+00
          2   -1    0    0  502    0  0.00000000000E+00  0.00000000000E+00  0.10421041002E+04  0.10421041002E+04  0.00000000000E+00 0. -1.
         -2   -1    0    0    0  501 -0.00000000000E+00 -0.00000000000E+00 -0.18373226284E+03  0.18373226284E+03  0.00000000000E+00 0.  1.
    9000007    1    1    2  502    0  0.39782899671E+02 -0.81921476047E+02  0.21595120856E+03  0.46360406795E+03  0.40000000000E+03 0. -1.
   -9000007    1    1    2    0  501 -0.39782899671E+02  0.81921476047E+02  0.64242062876E+03  0.76223229504E+03  0.40000000000E+03 0. -1.
<mgrwt>
<rscale>  2 0.41023628E+03</rscale>
<asrwt>0</asrwt>
<pdfrwt beam="1">  1        2 0.16032370E+00 0.41023628E+03</pdfrwt>
<pdfrwt beam="2">  1       -2 0.28266503E-01 0.41023628E+03</pdfrwt>
<totfact> 0.28001651E+02</totfact>
</mgrwt>
</event>
<event>
 4    1  0.2338029E-002  0.4274107E+03  0.7818608E-02  0.1034681E+00
          2   -1    0    0  502    0  0.00000000000E+00  0.00000000000E+00  0.20373085161E+04  0.20373085161E+04  0.00000000000E+00 0. -1.
         -2   -1    0    0    0  501 -0.00000000000E+00 -0.00000000000E+00 -0.89698323185E+02  0.89698323185E+02  0.00000000000E+00 0.  1.
    9000007    1    1    2  502    0  0.57797776052E+02 -0.13906586859E+03  0.95401812116E+03  0.10453853233E+04  0.40000000000E+03 0.  1.
   -9000007    1    1    2    0  501 -0.57797776052E+02  0.13906586859E+03  0.99359207172E+03  0.10816215159E+04  0.40000000000E+03 0. -1.
<mgrwt>
<rscale>  2 0.42741069E+03</rscale>
<asrwt>0</asrwt>
<pdfrwt beam="1">  1        2 0.31343205E+00 0.42741069E+03</pdfrwt>
<pdfrwt beam="2">  1       -2 0.13799744E-01 0.42741069E+03</pdfrwt>
<totfact> 0.27252179E+02</totfact>
</mgrwt>
</event>
<event>
 4    1  0.2338029E-002  0.4005371E+03  0.7818608E-02  0.1043594E+00
         -2   -1    0    0    0  501 -0.00000000000E+00  0.00000000000E+00  0.19367648994E+03  0.19367648994E+03  0.00000000000E+00 0.  1.
          2   -1    0    0  502    0  0.00000000000E+00 -0.00000000000E+00 -0.85758513030E+03  0.85758513030E+03  0.00000000000E+00 0. -1.
    9000007    1    1    2  502    0 -0.20725215060E+02 -0.66558230162E+00 -0.42902078396E+03  0.58693169160E+03  0.40000000000E+03 0. -1.
   -9000007    1    1    2    0  501  0.20725215060E+02  0.66558230162E+00 -0.23488785640E+03  0.46432992863E+03  0.40000000000E+03 0. -1.
<mgrwt>
<rscale>  2 0.40053711E+03</rscale>
<asrwt>0</asrwt>
<pdfrwt beam="1">  1        2 0.13193618E+00 0.40053711E+03</pdfrwt>
<pdfrwt beam="2">  1       -2 0.29796383E-01 0.40053711E+03</pdfrwt>
<totfact> 0.33429415E+02</totfact>
</mgrwt>
</event>
<event>
 4    1  0.2338029E-002  0.4687260E+03  0.7818608E-02  0.1022280E+00
         -2   -1    0    0    0  501 -0.00000000000E+00  0.00000000000E+00  0.38034942658E+03  0.38034942658E+03  0.00000000000E+00 0. -1.
          2   -1    0    0  502    0  0.00000000000E+00 -0.00000000000E+00 -0.63394498167E+03  0.63394498167E+03  0.00000000000E+00 0.  1.
    9000007    1    1    2  502    0  0.20956071790E+03 -0.12565172125E+03  0.24346508329E+02  0.46935786135E+03  0.40000000000E+03 0.  1.
   -9000007    1    1    2    0  501 -0.20956071790E+03  0.12565172125E+03 -0.27794206342E+03  0.54493654691E+03  0.40000000000E+03 0.  1.
<mgrwt>
<rscale>  2 0.46872599E+03</rscale>
<asrwt>0</asrwt>
<pdfrwt beam="1">  1        2 0.97529997E-01 0.46872599E+03</pdfrwt>
<pdfrwt beam="2">  1       -2 0.58515296E-01 0.46872599E+03</pdfrwt>
<totfact> 0.13044985E+02</totfact>
</mgrwt>
</event>
<event>
 4    1  0.2338029E-002  0.6007992E+03  0.7818608E-02  0.9903749E-01
          2   -1    0    0  502    0  0.00000000000E+00  0.00000000000E+00  0.11345082917E+03  0.11345082917E+03  0.00000000000E+00 0.  1.
         -2   -1    0    0    0  501 -0.00000000000E+00 -0.00000000000E+00 -0.32656880225E+04  0.32656880225E+04  0.00000000000E+00 0. -1.
    9000007    1    1    2  502    0  0.32080513717E+03  0.31311928890E+03 -0.13050656940E+04  0.14367171228E+04  0.40000000000E+03 0. -1.
   -9000007    1    1    2    0  501 -0.32080513717E+03 -0.31311928890E+03 -0.18471714993E+04  0.19424217289E+04  0.40000000000E+03 0. -1.
<mgrwt>
<rscale>  2 0.60079916E+03</rscale>
<asrwt>0</asrwt>
<pdfrwt beam="1">  1        2 0.17453971E-01 0.60079916E+03</pdfrwt>
<pdfrwt beam="2">  1       -2 0.50241361E+00 0.60079916E+03</pdfrwt>
<totfact> 0.57606138E-01</totfact>
</mgrwt>
</event>
<event>
 4    1  0.2338029E-002  0.4833218E+03  0.7818608E-02  0.1018226E+00
          2   -1    0    0  502    0  0.00000000000E+00  0.00000000000E+00  0.93463093288E+03  0.93463093288E+03  0.00000000000E+00 0. -1.
         -2   -1    0    0    0  501 -0.00000000000E+00 -0.00000000000E+00 -0.38395848392E+03  0.38395848392E+03  0.00000000000E+00 0.  1.
    9000007    1    1    2  502    0 -0.71773968938E+02 -0.26162664656E+03  0.66484986203E+03  0.82196432030E+03  0.40000000000E+03 0. -1.
   -9000007    1    1    2    0  501  0.71773968938E+02  0.26162664656E+03 -0.11417741308E+03  0.49662509649E+03  0.40000000000E+03 0.  1.
<mgrwt>
<rscale>  2 0.48332184E+03</rscale>
<asrwt>0</asrwt>
<pdfrwt beam="1">  1        2 0.14378937E+00 0.48332184E+03</pdfrwt>
<pdfrwt beam="2">  1       -2 0.59070536E-01 0.48332184E+03</pdfrwt>
<totfact> 0.77355486E+01</totfact>
</mgrwt>
</event>
<event>
 4    1  0.2338029E-002  0.5198712E+03  0.7818608E-02  0.1008719E+00
         -2   -1    0    0    0  501 -0.00000000000E+00  0.00000000000E+00  0.72934533194E+03  0.72934533194E+03  0.00000000000E+00 0.  1.
          2   -1    0    0  502    0  0.00000000000E+00 -0.00000000000E+00 -0.37620797426E+03  0.37620797426E+03  0.00000000000E+00 0. -1.
    9000007    1    1    2  502    0 -0.48595420148E+02 -0.32848829429E+03  0.10883744316E+03  0.53114184864E+03  0.40000000000E+03 0. -1.
   -9000007    1    1    2    0  501  0.48595420148E+02  0.32848829429E+03  0.24429991452E+03  0.57441145756E+03  0.40000000000E+03 0.  1.
<mgrwt>
<rscale>  2 0.51987121E+03</rscale>
<asrwt>0</asrwt>
<pdfrwt beam="1">  1        2 0.57878150E-01 0.51987121E+03</pdfrwt>
<pdfrwt beam="2">  1       -2 0.11220697E+00 0.51987121E+03</pdfrwt>
<totfact> 0.54819921E+01</totfact>
</mgrwt>
</event>
<event>
 4    1  0.2338029E-002  0.4870284E+03  0.7818608E-02  0.1017221E+00
          1   -1    0    0  502    0  0.00000000000E+00  0.00000000000E+00  0.13907886589E+04  0.13907886589E+04  0.00000000000E+00 0. -1.
         -1   -1    0    0    0  501 -0.00000000000E+00 -0.00000000000E+00 -0.18990763375E+03  0.18990763375E+03  0.00000000000E+00 0.  1.
    9000007    1    1    2  502    0  0.11776881753E+03  0.25164886725E+03  0.34809685812E+03  0.59863851313E+03  0.40000000000E+03 0. -1.
   -9000007    1    1    2    0  501 -0.11776881753E+03 -0.25164886725E+03  0.85278416709E+03  0.98205777957E+03  0.40000000000E+03 0. -1.
<mgrwt>
<rscale>  2 0.48702838E+03</rscale>
<asrwt>0</asrwt>
<pdfrwt beam="1">  1        1 0.21396748E+00 0.48702838E+03</pdfrwt>
<pdfrwt beam="2">  1       -1 0.29216560E-01 0.48702838E+03</pdfrwt>
<totfact> 0.87865941E+01</totfact>
</mgrwt>
</event>
<event>
 4    1  0.2338029E-002  0.6448108E+03  0.7818608E-02  0.9816565E-01
         -2   -1    0    0    0  501 -0.00000000000E+00  0.00000000000E+00  0.28058155160E+03  0.28058155160E+03  0.00000000000E+00 0. -1.
          2   -1    0    0  502    0  0.00000000000E+00 -0.00000000000E+00 -0.14929763291E+04  0.14929763291E+04  0.00000000000E+00 0.  1.
    9000007    1    1    2  502    0  0.13288070369E+03 -0.48797924430E+03 -0.52965927511E+03  0.83445789108E+03  0.40000000000E+03 0.  1.
   -9000007    1    1    2    0  501 -0.13288070369E+03  0.48797924430E+03 -0.68273550243E+03  0.93909998965E+03  0.40000000000E+03 0. -1.
<mgrwt>
<rscale>  2 0.64481084E+03</rscale>
<asrwt>0</asrwt>
<pdfrwt beam="1">  1        2 0.22968867E+00 0.64481084E+03</pdfrwt>
<pdfrwt beam="2">  1       -2 0.43166393E-01 0.64481084E+03</pdfrwt>
<totfact> 0.67261135E+01</totfact>
</mgrwt>
</event>
<event>
 4    1  0.2338029E-002  0.4101854E+03  0.7818608E-02  0.1040309E+00
         -2   -1    0    0    0  501 -0.00000000000E+00  0.00000000000E+00  0.82263855037E+02  0.82263855037E+02  0.00000000000E+00 0. -1.
          2   -1    0    0  502    0  0.00000000000E+00 -0.00000000000E+00 -0.20561160734E+04  0.20561160734E+04  0.00000000000E+00 0.  1.
    9000007    1    1    2  502    0 -0.39241563576E+02  0.81927829112E+02 -0.90928343899E+03  0.99752114860E+03  0.40000000000E+03 0. -1.
   -9000007    1    1    2    0  501  0.39241563576E+02 -0.81927829112E+02 -0.10645687793E+04  0.11408587798E+04  0.40000000000E+03 0.  1.
<mgrwt>
<rscale>  2 0.41018541E+03</rscale>
<asrwt>0</asrwt>
<pdfrwt beam="1">  1        2 0.31632551E+00 0.41018541E+03</pdfrwt>
<pdfrwt beam="2">  1       -2 0.12655979E-01 0.41018541E+03</pdfrwt>
<totfact> 0.30794230E+02</totfact>
</mgrwt>
</event>
<event>
 4    1  0.2338029E-002  0.4691948E+03  0.7818608E-02  0.1022148E+00
          1   -1    0    0  502    0  0.00000000000E+00  0.00000000000E+00  0.80597972322E+03  0.80597972322E+03  0.00000000000E+00 0.  1.
         -1   -1    0    0    0  501 -0.00000000000E+00 -0.00000000000E+00 -0.27924081797E+03  0.27924081797E+03  0.00000000000E+00 0. -1.
    9000007    1    1    2  502    0  0.15881307293E+03 -0.18687481227E+03  0.18315374062E+03  0.50367557048E+03  0.40000000000E+03 0. -1.
   -9000007    1    1    2    0  501 -0.15881307293E+03  0.18687481227E+03  0.34358516464E+03  0.58154497071E+03  0.40000000000E+03 0.  1.
<mgrwt>
<rscale>  2 0.46919483E+03</rscale>
<asrwt>0</asrwt>
<pdfrwt beam="1">  1        1 0.12399688E+00 0.46919483E+03</pdfrwt>
<pdfrwt beam="2">  1       -1 0.42960126E-01 0.46919483E+03</pdfrwt>
<totfact> 0.12165463E+02</totfact>
</mgrwt>
</event>
<event>
 4    1  0.2338029E-002  0.1032004E+04  0.7818608E-02  0.9274124E-01
         -2   -1    0    0    0  501 -0.00000000000E+00  0.00000000000E+00  0.10869510913E+04  0.10869510913E+04  0.00000000000E+00 0.  1.
          2   -1    0    0  502    0  0.00000000000E+00 -0.00000000000E+00 -0.11718078207E+04  0.11718078207E+04  0.00000000000E+00 0. -1.
    9000007    1    1    2  502    0 -0.69005147605E+03 -0.65487423070E+03 -0.49955133304E+03  0.11465525858E+04  0.40000000000E+03 0. -1.
   -9000007    1    1    2    0  501  0.69005147605E+03  0.65487423070E+03  0.41469460365E+03  0.11122063262E+04  0.40000000000E+03 0.  1.
<mgrwt>
<rscale>  2 0.10320035E+04</rscale>
<asrwt>0</asrwt>
<pdfrwt beam="1">  1        2 0.18027813E+00 0.10320035E+04</pdfrwt>
<pdfrwt beam="2">  1       -2 0.16722325E+00 0.10320035E+04</pdfrwt>
<totfact> 0.43406103E+00</totfact>
</mgrwt>
</event>
<event>
 4    1  0.2338029E-002  0.4850440E+03  0.7818608E-02  0.1017758E+00
          2   -1    0    0  502    0  0.00000000000E+00  0.00000000000E+00  0.21592888467E+03  0.21592888467E+03  0.00000000000E+00 0.  1.
         -2   -1    0    0    0  501 -0.00000000000E+00 -0.00000000000E+00 -0.12350813437E+04  0.12350813437E+04  0.00000000000E+00 0. -1.
    9000007    1    1    2  502    0 -0.27397744832E+03 -0.14282926892E+02 -0.26054438788E+03  0.55059152031E+03  0.40000000000E+03 0.  1.
   -9000007    1    1    2    0  501  0.27397744832E+03  0.14282926892E+02 -0.75860807115E+03  0.90041870804E+03  0.40000000000E+03 0. -1.
<mgrwt>
<rscale>  2 0.48504396E+03</rscale>
<asrwt>0</asrwt>
<pdfrwt beam="1">  1        2 0.33219829E-01 0.48504396E+03</pdfrwt>
<pdfrwt beam="2">  1       -2 0.19001251E+00 0.48504396E+03</pdfrwt>
<totfact> 0.25559574E+01</totfact>
</mgrwt>
</event>
<event>
 4    1  0.2338029E-002  0.4580162E+03  0.7818608E-02  0.1025358E+00
         -2   -1    0    0    0  501 -0.00000000000E+00  0.00000000000E+00  0.64268083100E+02  0.64268083100E+02  0.00000000000E+00 0. -1.
          2   -1    0    0  502    0  0.00000000000E+00 -0.00000000000E+00 -0.32647701508E+04  0.32647701508E+04  0.00000000000E+00 0.  1.
    9000007    1    1    2  502    0  0.20395520829E+03 -0.90449739926E+02 -0.16236989396E+04  0.16870616850E+04  0.40000000000E+03 0.  1.
   -9000007    1    1    2    0  501 -0.20395520829E+03  0.90449739926E+02 -0.15768031280E+04  0.16419765489E+04  0.40000000000E+03 0.  1.
<mgrwt>
<rscale>  2 0.45801625E+03</rscale>
<asrwt>0</asrwt>
<pdfrwt beam="1">  1        2 0.50227225E+00 0.45801625E+03</pdfrwt>
<pdfrwt beam="2">  1       -2 0.98873989E-02 0.45801625E+03</pdfrwt>
<totfact> 0.92162895E+01</totfact>
</mgrwt>
</event>
<event>
 4    1  0.2338029E-002  0.4459514E+03  0.7818608E-02  0.1028936E+00
         -2   -1    0    0    0  501 -0.00000000000E+00  0.00000000000E+00  0.34058918765E+03  0.34058918765E+03  0.00000000000E+00 0.  1.
          2   -1    0    0  502    0  0.00000000000E+00 -0.00000000000E+00 -0.85578747952E+03  0.85578747952E+03  0.00000000000E+00 0. -1.
    9000007    1    1    2  502    0  0.18782954924E+03 -0.59939163388E+02  0.79566598113E+02  0.45299391432E+03  0.40000000000E+03 0.  1.
   -9000007    1    1    2    0  501 -0.18782954924E+03  0.59939163388E+02 -0.59476488998E+03  0.74338275285E+03  0.40000000000E+03 0. -1.
<mgrwt>
<rscale>  2 0.44595139E+03</rscale>
<asrwt>0</asrwt>
<pdfrwt beam="1">  1        2 0.13165961E+00 0.44595139E+03</pdfrwt>
<pdfrwt beam="2">  1       -2 0.52398338E-01 0.44595139E+03</pdfrwt>
<totfact> 0.11224653E+02</totfact>
</mgrwt>
</event>
<event>
 4    1  0.2338029E-002  0.4180379E+03  0.7818608E-02  0.1037707E+00
          1   -1    0    0  502    0  0.00000000000E+00  0.00000000000E+00  0.10112627551E+04  0.10112627551E+04  0.00000000000E+00 0.  1.
         -1   -1    0    0    0  501 -0.00000000000E+00 -0.00000000000E+00 -0.20500085892E+03  0.20500085892E+03  0.00000000000E+00 0. -1.
    9000007    1    1    2  502    0  0.12046217315E+03 -0.15639137974E+02  0.64411602847E+03  0.76788096469E+03  0.40000000000E+03 0.  1.
   -9000007    1    1    2    0  501 -0.12046217315E+03  0.15639137974E+02  0.16214586768E+03  0.44838264931E+03  0.40000000000E+03 0. -1.
<mgrwt>
<rscale>  2 0.41803794E+03</rscale>
<asrwt>0</asrwt>
<pdfrwt beam="1">  1        1 0.15557888E+00 0.41803794E+03</pdfrwt>
<pdfrwt beam="2">  1       -1 0.31538594E-01 0.41803794E+03</pdfrwt>
<totfact> 0.14529345E+02</totfact>
</mgrwt>
</event>
<event>
 4    1  0.2338029E-002  0.4301112E+03  0.7818608E-02  0.1033825E+00
         -1   -1    0    0    0  501 -0.00000000000E+00  0.00000000000E+00  0.39007778053E+03  0.39007778053E+03  0.00000000000E+00 0. -1.
          1   -1    0    0  502    0  0.00000000000E+00 -0.00000000000E+00 -0.52328810592E+03  0.52328810592E+03  0.00000000000E+00 0.  1.
    9000007    1    1    2  502    0 -0.14734797762E+03  0.57307779463E+02 -0.20640199982E+03  0.47707168605E+03  0.40000000000E+03 0.  1.
   -9000007    1    1    2    0  501  0.14734797762E+03 -0.57307779463E+02  0.73191674443E+02  0.43629420040E+03  0.40000000000E+03 0.  1.
<mgrwt>
<rscale>  2 0.43011116E+03</rscale>
<asrwt>0</asrwt>
<pdfrwt beam="1">  1        1 0.80505862E-01 0.43011116E+03</pdfrwt>
<pdfrwt beam="2">  1       -1 0.60011967E-01 0.43011116E+03</pdfrwt>
<totfact> 0.12223775E+02</totfact>
</mgrwt>
</event>
<event>
 4    1  0.2338029E-002  0.5062827E+03  0.7818608E-02  0.1012152E+00
         -1   -1    0    0    0  501 -0.00000000000E+00  0.00000000000E+00  0.24672337928E+04  0.24672337928E+04  0.00000000000E+00 0.  1.
          1   -1    0    0  502    0  0.00000000000E+00 -0.00000000000E+00 -0.20554561138E+03  0.20554561138E+03  0.00000000000E+00 0. -1.
    9000007    1    1    2  502    0 -0.30586074917E+03 -0.52643625595E+02  0.20706618104E+04  0.21316572150E+04  0.40000000000E+03 0.  1.
   -9000007    1    1    2    0  501  0.30586074917E+03  0.52643625595E+02  0.19102637100E+03  0.54112218917E+03  0.40000000000E+03 0. -1.
<mgrwt>
<rscale>  2 0.50628268E+03</rscale>
<asrwt>0</asrwt>
<pdfrwt beam="1">  1        1 0.31622404E-01 0.50628268E+03</pdfrwt>
<pdfrwt beam="2">  1       -1 0.37957441E+00 0.50628268E+03</pdfrwt>
<totfact> 0.15783685E+00</totfact>
</mgrwt>
</event>
<event>
 4    1  0.2338029E-002  0.4204129E+03  0.7818608E-02  0.1036932E+00
         -1   -1    0    0    0  501 -0.00000000000E+00  0.00000000000E+00  0.22538693483E+03  0.22538693483E+03  0.00000000000E+00 0. -1.
          1   -1    0    0  502    0  0.00000000000E+00 -0.00000000000E+00 -0.80279504302E+03  0.80279504302E+03  0.00000000000E+00 0.  1.
    9000007    1    1    2  502    0  0.10636609553E+03 -0.73710810981E+02 -0.21044961294E+03  0.47014473252E+03  0.40000000000E+03 0. -1.
   -9000007    1    1    2    0  501 -0.10636609553E+03  0.73710810981E+02 -0.36695849525E+03  0.55803724533E+03  0.40000000000E+03 0.  1.
<mgrwt>
<rscale>  2 0.42041293E+03</rscale>
<asrwt>0</asrwt>
<pdfrwt beam="1">  1        1 0.12350693E+00 0.42041293E+03</pdfrwt>
<pdfrwt beam="2">  1       -1 0.34674913E-01 0.42041293E+03</pdfrwt>
<totfact> 0.18061796E+02</totfact>
</mgrwt>
</event>
<event>
 4    1  0.2338029E-002  0.4107774E+03  0.7818608E-02  0.1040110E+00
         -2   -1    0    0    0  501 -0.00000000000E+00  0.00000000000E+00  0.70241503695E+03  0.70241503695E+03  0.00000000000E+00 0. -1.
          2   -1    0    0  502    0  0.00000000000E+00 -0.00000000000E+00 -0.62514613651E+03  0.62514613651E+03  0.00000000000E+00 0.  1.
    9000007    1    1    2  502    0  0.93395116939E+02  0.39280364007E+01  0.55949241448E+03  0.69409641924E+03  0.40000000000E+03 0. -1.
   -9000007    1    1    2    0  501 -0.93395116939E+02 -0.39280364007E+01 -0.48222351405E+03  0.63346475422E+03  0.40000000000E+03 0.  1.
<mgrwt>
<rscale>  2 0.41077741E+03</rscale>
<asrwt>0</asrwt>
<pdfrwt beam="1">  1        2 0.96176329E-01 0.41077741E+03</pdfrwt>
<pdfrwt beam="2">  1       -2 0.10806385E+00 0.41077741E+03</pdfrwt>
<totfact> 0.33977779E+01</totfact>
</mgrwt>
</event>
<event>
 4    1  0.2338029E-002  0.4318056E+03  0.7818608E-02  0.1033291E+00
          1   -1    0    0  502    0  0.00000000000E+00  0.00000000000E+00  0.59312723347E+03  0.59312723347E+03  0.00000000000E+00 0. -1.
         -1   -1    0    0    0  501 -0.00000000000E+00 -0.00000000000E+00 -0.44570631834E+03  0.44570631834E+03  0.00000000000E+00 0.  1.
    9000007    1    1    2  502    0 -0.84605098834E+02  0.13891746702E+03  0.35567781444E+03  0.55943077595E+03  0.40000000000E+03 0. -1.
   -9000007    1    1    2    0  501  0.84605098834E+02 -0.13891746702E+03 -0.20825689931E+03  0.47940277586E+03  0.40000000000E+03 0.  1.
<mgrwt>
<rscale>  2 0.43180561E+03</rscale>
<asrwt>0</asrwt>
<pdfrwt beam="1">  1        1 0.91250344E-01 0.43180561E+03</pdfrwt>
<pdfrwt beam="2">  1       -1 0.68570203E-01 0.43180561E+03</pdfrwt>
<totfact> 0.78866370E+01</totfact>
</mgrwt>
</event>
<event>
 4    1  0.2338029E-002  0.4059827E+03  0.7818608E-02  0.1041728E+00
         -1   -1    0    0    0  501 -0.00000000000E+00  0.00000000000E+00  0.10164508451E+04  0.10164508451E+04  0.00000000000E+00 0. -1.
          1   -1    0    0  502    0  0.00000000000E+00 -0.00000000000E+00 -0.39566878951E+03  0.39566878951E+03  0.00000000000E+00 0.  1.
    9000007    1    1    2  502    0 -0.18717948824E+02 -0.66869864172E+02  0.85280698331E+03  0.94451135045E+03  0.40000000000E+03 0. -1.
   -9000007    1    1    2    0  501  0.18717948824E+02  0.66869864172E+02 -0.23202492772E+03  0.46760828417E+03  0.40000000000E+03 0.  1.
<mgrwt>
<rscale>  2 0.40598268E+03</rscale>
<asrwt>0</asrwt>
<pdfrwt beam="1">  1        1 0.60872122E-01 0.40598268E+03</pdfrwt>
<pdfrwt beam="2">  1       -1 0.15637705E+00 0.40598268E+03</pdfrwt>
<totfact> 0.20418228E+01</totfact>
</mgrwt>
</event>
<event>
 4    1  0.2338029E-002  0.5507160E+03  0.7818608E-02  0.1001328E+00
         -2   -1    0    0    0  501 -0.00000000000E+00  0.00000000000E+00  0.20428429722E+03  0.20428429722E+03  0.00000000000E+00 0.  1.
          2   -1    0    0  502    0  0.00000000000E+00 -0.00000000000E+00 -0.14846408791E+04  0.14846408791E+04  0.00000000000E+00 0. -1.
    9000007    1    1    2  502    0 -0.81029300909E+02 -0.36975992763E+03 -0.63892603238E+03  0.84351326400E+03  0.40000000000E+03 0. -1.
   -9000007    1    1    2    0  501  0.81029300909E+02  0.36975992763E+03 -0.64143054952E+03  0.84541191235E+03  0.40000000000E+03 0. -1.
<mgrwt>
<rscale>  2 0.55071604E+03</rscale>
<asrwt>0</asrwt>
<pdfrwt beam="1">  1        2 0.22840629E+00 0.55071604E+03</pdfrwt>
<pdfrwt beam="2">  1       -2 0.31428353E-01 0.55071604E+03</pdfrwt>
<totfact> 0.12620620E+02</totfact>
</mgrwt>
</event>
<event>
 4    1  0.2338029E-002  0.4424099E+03  0.7818608E-02  0.1030010E+00
         -2   -1    0    0    0  501 -0.00000000000E+00  0.00000000000E+00  0.71574760424E+03  0.71574760424E+03  0.00000000000E+00 0. -1.
          2   -1    0    0  502    0  0.00000000000E+00 -0.00000000000E+00 -0.28362463055E+03  0.28362463055E+03  0.00000000000E+00 0.  1.
    9000007    1    1    2  502    0 -0.15962751218E+03  0.10122052333E+03  0.31066884495E+03  0.54059381074E+03  0.40000000000E+03 0. -1.
   -9000007    1    1    2    0  501  0.15962751218E+03 -0.10122052333E+03  0.12145412874E+03  0.45877842405E+03  0.40000000000E+03 0.  1.
<mgrwt>
<rscale>  2 0.44240992E+03</rscale>
<asrwt>0</asrwt>
<pdfrwt beam="1">  1        2 0.43634559E-01 0.44240992E+03</pdfrwt>
<pdfrwt beam="2">  1       -2 0.11011502E+00 0.44240992E+03</pdfrwt>
<totfact> 0.78812307E+01</totfact>
</mgrwt>
</event>
<event>
 4    1  0.2338029E-002  0.4812258E+03  0.7818608E-02  0.1018799E+00
          2   -1    0    0  502    0  0.00000000000E+00  0.00000000000E+00  0.33587220887E+04  0.33587220887E+04  0.00000000000E+00 0. -1.
         -2   -1    0    0    0  501 -0.00000000000E+00 -0.00000000000E+00 -0.10659795362E+03  0.10659795362E+03  0.00000000000E+00 0.  1.
    9000007    1    1    2  502    0  0.20121306291E+03 -0.17632804763E+03  0.59634184068E+03  0.76629098130E+03  0.40000000000E+03 0.  1.
   -9000007    1    1    2    0  501 -0.20121306291E+03  0.17632804763E+03  0.26557822944E+04  0.26990290610E+04  0.40000000000E+03 0. -1.
<mgrwt>
<rscale>  2 0.48122581E+03</rscale>
<asrwt>0</asrwt>
<pdfrwt beam="1">  1        2 0.51672639E+00 0.48122581E+03</pdfrwt>
<pdfrwt beam="2">  1       -2 0.16399688E-01 0.48122581E+03</pdfrwt>
<totfact> 0.34582863E+01</totfact>
</mgrwt>
</event>
<event>
 4    1  0.2338029E-002  0.6343402E+03  0.7818608E-02  0.9836616E-01
          2   -1    0    0  502    0  0.00000000000E+00  0.00000000000E+00  0.53020424448E+03  0.53020424448E+03  0.00000000000E+00 0. -1.
         -2   -1    0    0    0  501 -0.00000000000E+00 -0.00000000000E+00 -0.78979299578E+03  0.78979299578E+03  0.00000000000E+00 0.  1.
    9000007    1    1    2  502    0 -0.40451549327E+03 -0.28063266748E+03  0.67576180890E+00  0.63434055129E+03  0.40000000000E+03 0. -1.
   -9000007    1    1    2    0  501  0.40451549327E+03  0.28063266748E+03 -0.26026451312E+03  0.68565668898E+03  0.40000000000E+03 0.  1.
<mgrwt>
<rscale>  2 0.63434019E+03</rscale>
<asrwt>0</asrwt>
<pdfrwt beam="1">  1        2 0.81569884E-01 0.63434019E+03</pdfrwt>
<pdfrwt beam="2">  1       -2 0.12150661E+00 0.63434019E+03</pdfrwt>
<totfact> 0.30258148E+01</totfact>
</mgrwt>
</event>
<event>
 4    1  0.2338029E-002  0.4232947E+03  0.7818608E-02  0.1035999E+00
          2   -1    0    0  502    0  0.00000000000E+00  0.00000000000E+00  0.27354654982E+04  0.27354654982E+04  0.00000000000E+00 0.  1.
         -2   -1    0    0    0  501 -0.00000000000E+00 -0.00000000000E+00 -0.66939589309E+02  0.66939589309E+02  0.00000000000E+00 0. -1.
    9000007    1    1    2  502    0  0.11697416714E+03  0.74131567057E+02  0.11289209964E+04  0.12056703783E+04  0.40000000000E+03 0. -1.
   -9000007    1    1    2    0  501 -0.11697416714E+03 -0.74131567057E+02  0.15396049125E+04  0.15967347092E+04  0.40000000000E+03 0. -1.
<mgrwt>
<rscale>  2 0.42329475E+03</rscale>
<asrwt>0</asrwt>
<pdfrwt beam="1">  1        2 0.42084076E+00 0.42329475E+03</pdfrwt>
<pdfrwt beam="2">  1       -2 0.10298400E-01 0.42329475E+03</pdfrwt>
<totfact> 0.18135393E+02</totfact>
</mgrwt>
</event>
<event>
 4    1  0.2338029E-002  0.4051119E+03  0.7818608E-02  0.1042024E+00
          2   -1    0    0  502    0  0.00000000000E+00  0.00000000000E+00  0.26165569952E+03  0.26165569952E+03  0.00000000000E+00 0. -1.
         -2   -1    0    0    0  501 -0.00000000000E+00 -0.00000000000E+00 -0.10427333493E+04  0.10427333493E+04  0.00000000000E+00 0.  1.
    9000007    1    1    2  502    0 -0.54903412769E+00 -0.64150725247E+02  0.21163337957E+02  0.40566427482E+03  0.40000000000E+03 0. -1.
   -9000007    1    1    2    0  501  0.54903412769E+00  0.64150725247E+02 -0.80224098769E+03  0.89872477395E+03  0.40000000000E+03 0.  1.
<mgrwt>
<rscale>  2 0.40511186E+03</rscale>
<asrwt>0</asrwt>
<pdfrwt beam="1">  1        2 0.40254723E-01 0.40511186E+03</pdfrwt>
<pdfrwt beam="2">  1       -2 0.16042051E+00 0.40511186E+03</pdfrwt>
<totfact> 0.33384086E+01</totfact>
</mgrwt>
</event>
<event>
 4    1  0.2338029E-002  0.5237120E+03  0.7818608E-02  0.1007769E+00
          1   -1    0    0  502    0  0.00000000000E+00  0.00000000000E+00  0.67382776058E+03  0.67382776058E+03  0.00000000000E+00 0. -1.
         -1   -1    0    0    0  501 -0.00000000000E+00 -0.00000000000E+00 -0.42457487418E+03  0.42457487418E+03  0.00000000000E+00 0.  1.
    9000007    1    1    2  502    0 -0.23803870211E+03  0.24002464701E+03  0.13012944940E+02  0.52387364088E+03  0.40000000000E+03 0.  1.
   -9000007    1    1    2    0  501  0.23803870211E+03 -0.24002464701E+03  0.23623994146E+03  0.57452899389E+03  0.40000000000E+03 0.  1.
<mgrwt>
<rscale>  2 0.52371200E+03</rscale>
<asrwt>0</asrwt>
<pdfrwt beam="1">  1        1 0.10366581E+00 0.52371200E+03</pdfrwt>
<pdfrwt beam="2">  1       -1 0.65319211E-01 0.52371200E+03</pdfrwt>
<totfact> 0.71510738E+01</totfact>
</mgrwt>
</event>
<event>
 4    1  0.2338029E-002  0.4374933E+03  0.7818608E-02  0.1031519E+00
          1   -1    0    0  502    0  0.00000000000E+00  0.00000000000E+00  0.13508955319E+04  0.13508955319E+04  0.00000000000E+00 0.  1.
         -1   -1    0    0    0  501 -0.00000000000E+00 -0.00000000000E+00 -0.14583773459E+03  0.14583773459E+03  0.00000000000E+00 0. -1.
    9000007    1    1    2  502    0 -0.12750278520E+03 -0.12305852327E+03  0.47623108864E+03  0.64668107300E+03  0.40000000000E+03 0. -1.
   -9000007    1    1    2    0  501  0.12750278520E+03  0.12305852327E+03  0.72882670869E+03  0.85005219351E+03  0.40000000000E+03 0.  1.
<mgrwt>
<rscale>  2 0.43749327E+03</rscale>
<asrwt>0</asrwt>
<pdfrwt beam="1">  1        1 0.20783007E+00 0.43749327E+03</pdfrwt>
<pdfrwt beam="2">  1       -1 0.22436575E-01 0.43749327E+03</pdfrwt>
<totfact> 0.14742634E+02</totfact>
</mgrwt>
</event>
<event>
 4    1  0.2338029E-002  0.5535929E+03  0.7818608E-02  0.1000666E+00
         -1   -1    0    0    0  501 -0.00000000000E+00  0.00000000000E+00  0.77253513772E+03  0.77253513772E+03  0.00000000000E+00 0.  1.
          1   -1    0    0  502    0  0.00000000000E+00 -0.00000000000E+00 -0.63401894360E+03  0.63401894360E+03  0.00000000000E+00 0. -1.
    9000007    1    1    2  502    0 -0.98346568444E+02 -0.36985546137E+03  0.49952805831E+03  0.74564964351E+03  0.40000000000E+03 0.  1.
   -9000007    1    1    2    0  501  0.98346568444E+02  0.36985546137E+03 -0.36101186420E+03  0.66090443781E+03  0.40000000000E+03 0. -1.
<mgrwt>
<rscale>  2 0.55359291E+03</rscale>
<asrwt>0</asrwt>
<pdfrwt beam="1">  1        1 0.97541376E-01 0.55359291E+03</pdfrwt>
<pdfrwt beam="2">  1       -1 0.11885156E+00 0.55359291E+03</pdfrwt>
<totfact> 0.21081490E+01</totfact>
</mgrwt>
</event>
<event>
 4    1  0.2338029E-002  0.4484378E+03  0.7818608E-02  0.1028189E+00
         -1   -1    0    0    0  501 -0.00000000000E+00  0.00000000000E+00  0.35142017662E+03  0.35142017662E+03  0.00000000000E+00 0.  1.
          1   -1    0    0  502    0  0.00000000000E+00 -0.00000000000E+00 -0.57503848725E+03  0.57503848725E+03  0.00000000000E+00 0. -1.
    9000007    1    1    2  502    0 -0.10603905023E+03 -0.17277793345E+03 -0.14412761380E+03  0.47103000278E+03  0.40000000000E+03 0. -1.
   -9000007    1    1    2    0  501  0.10603905023E+03  0.17277793345E+03 -0.79490696835E+02  0.45542866109E+03  0.40000000000E+03 0.  1.
<mgrwt>
<rscale>  2 0.44843784E+03</rscale>
<asrwt>0</asrwt>
<pdfrwt beam="1">  1        1 0.88467459E-01 0.44843784E+03</pdfrwt>
<pdfrwt beam="2">  1       -1 0.54064643E-01 0.44843784E+03</pdfrwt>
<totfact> 0.13093429E+02</totfact>
</mgrwt>
</event>
<event>
 4    1  0.2338029E-002  0.4428036E+03  0.7818608E-02  0.1029890E+00
          2   -1    0    0  502    0  0.00000000000E+00  0.00000000000E+00  0.74079870770E+03  0.74079870770E+03  0.00000000000E+00 0.  1.
         -2   -1    0    0    0  501 -0.00000000000E+00 -0.00000000000E+00 -0.31108966702E+03  0.31108966702E+03  0.00000000000E+00 0. -1.
    9000007    1    1    2  502    0  0.12493541366E+03 -0.14306013445E+03  0.11713232190E+02  0.44295853018E+03  0.40000000000E+03 0. -1.
   -9000007    1    1    2    0  501 -0.12493541366E+03  0.14306013445E+03  0.41799580849E+03  0.60892984454E+03  0.40000000000E+03 0.  1.
<mgrwt>
<rscale>  2 0.44280364E+03</rscale>
<asrwt>0</asrwt>
<pdfrwt beam="1">  1        2 0.11396903E+00 0.44280364E+03</pdfrwt>
<pdfrwt beam="2">  1       -2 0.47859949E-01 0.44280364E+03</pdfrwt>
<totfact> 0.16265719E+02</totfact>
</mgrwt>
</event>
<event>
 4    1  0.2338029E-002  0.5033337E+03  0.7818608E-02  0.1012912E+00
          2   -1    0    0  502    0  0.00000000000E+00  0.00000000000E+00  0.17955562193E+04  0.17955562193E+04  0.00000000000E+00 0. -1.
         -2   -1    0    0    0  501 -0.00000000000E+00 -0.00000000000E+00 -0.14848286476E+03  0.14848286476E+03  0.00000000000E+00 0.  1.
    9000007    1    1    2  502    0  0.90415070445E+02 -0.29183890269E+03  0.10403484125E+04  0.11557117502E+04  0.40000000000E+03 0.  1.
   -9000007    1    1    2    0  501 -0.90415070445E+02  0.29183890269E+03  0.60672494207E+03  0.78832733393E+03  0.40000000000E+03 0. -1.
<mgrwt>
<rscale>  2 0.50333372E+03</rscale>
<asrwt>0</asrwt>
<pdfrwt beam="1">  1        2 0.27623940E+00 0.50333372E+03</pdfrwt>
<pdfrwt beam="2">  1       -2 0.22843519E-01 0.50333372E+03</pdfrwt>
<totfact> 0.15343354E+02</totfact>
</mgrwt>
</event>
<event>
 4    1  0.2338029E-002  0.4228375E+03  0.7818608E-02  0.1036147E+00
          2   -1    0    0  502    0  0.00000000000E+00  0.00000000000E+00  0.10043585189E+04  0.10043585189E+04  0.00000000000E+00 0. -1.
         -2   -1    0    0    0  501 -0.00000000000E+00 -0.00000000000E+00 -0.18037785339E+03  0.18037785339E+03  0.00000000000E+00 0.  1.
    9000007    1    1    2  502    0  0.26006158265E+02  0.13459285181E+03  0.47977895397E+03  0.63951497300E+03  0.40000000000E+03 0.  1.
   -9000007    1    1    2    0  501 -0.26006158265E+02 -0.13459285181E+03  0.34420171158E+03  0.54522139932E+03  0.40000000000E+03 0.  1.
<mgrwt>
<rscale>  2 0.42283751E+03</rscale>
<asrwt>0</asrwt>
<pdfrwt beam="1">  1        2 0.15451669E+00 0.42283751E+03</pdfrwt>
<pdfrwt beam="2">  1       -2 0.27750440E-01 0.42283751E+03</pdfrwt>
<totfact> 0.30520183E+02</totfact>
</mgrwt>
</event>
<event>
 4    1  0.2338029E-002  0.4284596E+03  0.7818608E-02  0.1034348E+00
         -2   -1    0    0    0  501 -0.00000000000E+00  0.00000000000E+00  0.11733416620E+03  0.11733416620E+03  0.00000000000E+00 0.  1.
          2   -1    0    0  502    0  0.00000000000E+00 -0.00000000000E+00 -0.16542596235E+04  0.16542596235E+04  0.00000000000E+00 0. -1.
    9000007    1    1    2  502    0  0.77240408611E+02  0.13270853080E+03 -0.56220939589E+03  0.70686423003E+03  0.40000000000E+03 0.  1.
   -9000007    1    1    2    0  501 -0.77240408611E+02 -0.13270853080E+03 -0.97471606141E+03  0.10647295597E+04  0.40000000000E+03 0. -1.
<mgrwt>
<rscale>  2 0.42845961E+03</rscale>
<asrwt>0</asrwt>
<pdfrwt beam="1">  1        2 0.25450146E+00 0.42845961E+03</pdfrwt>
<pdfrwt beam="2">  1       -2 0.18051411E-01 0.42845961E+03</pdfrwt>
<totfact> 0.27795820E+02</totfact>
</mgrwt>
</event>
<event>
 4    1  0.2338029E-002  0.6848400E+03  0.7818608E-02  0.9743515E-01
          2   -1    0    0  502    0  0.00000000000E+00  0.00000000000E+00  0.15254427346E+04  0.15254427346E+04  0.00000000000E+00 0. -1.
         -2   -1    0    0    0  501 -0.00000000000E+00 -0.00000000000E+00 -0.40589600543E+03  0.40589600543E+03  0.00000000000E+00 0.  1.
    9000007    1    1    2  502    0 -0.17343780968E+03 -0.52813364452E+03  0.84210542068E+02  0.68999799687E+03  0.40000000000E+03 0.  1.
   -9000007    1    1    2    0  501  0.17343780968E+03  0.52813364452E+03  0.10353361872E+04  0.12413407432E+04  0.40000000000E+03 0. -1.
<mgrwt>
<rscale>  2 0.68484000E+03</rscale>
<asrwt>0</asrwt>
<pdfrwt beam="1">  1        2 0.23468350E+00 0.68484000E+03</pdfrwt>
<pdfrwt beam="2">  1       -2 0.62445540E-01 0.68484000E+03</pdfrwt>
<totfact> 0.30146263E+01</totfact>
</mgrwt>
</event>
<event>
 4    1  0.2338029E-002  0.5649266E+03  0.7818608E-02  0.9980969E-01
         -1   -1    0    0    0  501 -0.00000000000E+00  0.00000000000E+00  0.57819673613E+03  0.57819673613E+03  0.00000000000E+00 0. -1.
          1   -1    0    0  502    0  0.00000000000E+00 -0.00000000000E+00 -0.56747310186E+03  0.56747310186E+03  0.00000000000E+00 0.  1.
    9000007    1    1    2  502    0 -0.13877709216E+03 -0.37400936466E+03 -0.89347184736E+02  0.57194842913E+03  0.40000000000E+03 0.  1.
   -9000007    1    1    2    0  501  0.13877709216E+03  0.37400936466E+03  0.10007081901E+03  0.57372140886E+03  0.40000000000E+03 0. -1.
<mgrwt>
<rscale>  2 0.56492662E+03</rscale>
<asrwt>0</asrwt>
<pdfrwt beam="1">  1        1 0.87303555E-01 0.56492662E+03</pdfrwt>
<pdfrwt beam="2">  1       -1 0.88953344E-01 0.56492662E+03</pdfrwt>
<totfact> 0.47886423E+01</totfact>
</mgrwt>
</event>
<event>
 4    1  0.2338029E-002  0.4178035E+03  0.7818608E-02  0.1037784E+00
          1   -1    0    0  502    0  0.00000000000E+00  0.00000000000E+00  0.12545963164E+04  0.12545963164E+04  0.00000000000E+00 0.  1.
         -1   -1    0    0    0  501 -0.00000000000E+00 -0.00000000000E+00 -0.13934052685E+03  0.13934052685E+03  0.00000000000E+00 0. -1.
    9000007    1    1    2  502    0  0.11937661684E+03  0.17577326141E+02  0.53093730128E+03  0.67561391114E+03  0.40000000000E+03 0.  1.
   -9000007    1    1    2    0  501 -0.11937661684E+03 -0.17577326141E+02  0.58431848826E+03  0.71832293209E+03  0.40000000000E+03 0. -1.
<mgrwt>
<rscale>  2 0.41780347E+03</rscale>
<asrwt>0</asrwt>
<pdfrwt beam="1">  1        1 0.19301481E+00 0.41780347E+03</pdfrwt>
<pdfrwt beam="2">  1       -1 0.21437005E-01 0.41780347E+03</pdfrwt>
<totfact> 0.18601579E+02</totfact>
</mgrwt>
</event>
<event>
 4    1  0.2338029E-002  0.5754371E+03  0.7818608E-02  0.9957719E-01
         -1   -1    0    0    0  501 -0.00000000000E+00  0.00000000000E+00  0.22622304104E+03  0.22622304104E+03  0.00000000000E+00 0. -1.
          1   -1    0    0  502    0  0.00000000000E+00 -0.00000000000E+00 -0.17615896506E+04  0.17615896506E+04  0.00000000000E+00 0.  1.
    9000007    1    1    2  502    0 -0.40589152648E+03  0.79874508968E+02 -0.35898387773E+03  0.67823100263E+03  0.40000000000E+03 0. -1.
   -9000007    1    1    2    0  501  0.40589152648E+03 -0.79874508968E+02 -0.11763827319E+04  0.13095816890E+04  0.40000000000E+03 0.  1.
<mgrwt>
<rscale>  2 0.57543711E+03</rscale>
<asrwt>0</asrwt>
<pdfrwt beam="1">  1        1 0.27101380E+00 0.57543711E+03</pdfrwt>
<pdfrwt beam="2">  1       -1 0.34803544E-01 0.57543711E+03</pdfrwt>
<totfact> 0.35918074E+01</totfact>
</mgrwt>
</event>
<event>
 4    1  0.2338029E-002  0.4406180E+03  0.7818608E-02  0.1030557E+00
         -2   -1    0    0    0  501 -0.00000000000E+00  0.00000000000E+00  0.21848281757E+03  0.21848281757E+03  0.00000000000E+00 0.  1.
          2   -1    0    0  502    0  0.00000000000E+00 -0.00000000000E+00 -0.10061676918E+04  0.10061676918E+04  0.00000000000E+00 0. -1.
    9000007    1    1    2  502    0 -0.15849442298E+03  0.94993507102E+02 -0.18453365048E+03  0.47769960924E+03  0.40000000000E+03 0.  1.
   -9000007    1    1    2    0  501  0.15849442298E+03 -0.94993507102E+02 -0.60315122376E+03  0.74695090015E+03  0.40000000000E+03 0. -1.
<mgrwt>
<rscale>  2 0.44061803E+03</rscale>
<asrwt>0</asrwt>
<pdfrwt beam="1">  1        2 0.15479503E+00 0.44061803E+03</pdfrwt>
<pdfrwt beam="2">  1       -2 0.33612742E-01 0.44061803E+03</pdfrwt>
<totfact> 0.21341429E+02</totfact>
</mgrwt>
</event>
<event>
 4    1  0.2338029E-002  0.5573980E+03  0.7818608E-02  0.9997959E-01
         -1   -1    0    0    0  501 -0.00000000000E+00  0.00000000000E+00  0.77467838322E+03  0.77467838322E+03  0.00000000000E+00 0.  1.
          1   -1    0    0  502    0  0.00000000000E+00 -0.00000000000E+00 -0.69483567987E+03  0.69483567987E+03  0.00000000000E+00 0. -1.
    9000007    1    1    2  502    0  0.20320174605E+02 -0.38765920423E+03  0.51768220532E+03  0.76071508058E+03  0.40000000000E+03 0.  1.
   -9000007    1    1    2    0  501 -0.20320174605E+02  0.38765920423E+03 -0.43783950197E+03  0.70879898251E+03  0.40000000000E+03 0. -1.
<mgrwt>
<rscale>  2 0.55739803E+03</rscale>
<asrwt>0</asrwt>
<pdfrwt beam="1">  1        1 0.10689780E+00 0.55739803E+03</pdfrwt>
<pdfrwt beam="2">  1       -1 0.11918129E+00 0.55739803E+03</pdfrwt>
<totfact> 0.18288527E+01</totfact>
</mgrwt>
</event>
<event>
 4    1  0.2338029E-002  0.5212155E+03  0.7818608E-02  0.1008385E+00
          1   -1    0    0  502    0  0.00000000000E+00  0.00000000000E+00  0.10663993657E+04  0.10663993657E+04  0.00000000000E+00 0.  1.
         -1   -1    0    0    0  501 -0.00000000000E+00 -0.00000000000E+00 -0.36016774187E+03  0.36016774187E+03  0.00000000000E+00 0. -1.
    9000007    1    1    2  502    0 -0.13313132599E+03  0.30649898007E+03  0.73900801957E+03  0.90432208186E+03  0.40000000000E+03 0.  1.
   -9000007    1    1    2    0  501  0.13313132599E+03 -0.30649898007E+03 -0.32776395754E+02  0.52224502569E+03  0.40000000000E+03 0. -1.
<mgrwt>
<rscale>  2 0.52121548E+03</rscale>
<asrwt>0</asrwt>
<pdfrwt beam="1">  1        1 0.16406144E+00 0.52121548E+03</pdfrwt>
<pdfrwt beam="2">  1       -1 0.55410422E-01 0.52121548E+03</pdfrwt>
<totfact> 0.46676860E+01</totfact>
</mgrwt>
</event>
<event>
 4    1  0.2338029E-002  0.4517503E+03  0.7818608E-02  0.1027201E+00
          2   -1    0    0  502    0  0.00000000000E+00  0.00000000000E+00  0.64702935467E+03  0.64702935467E+03  0.00000000000E+00 0. -1.
         -2   -1    0    0    0  501 -0.00000000000E+00 -0.00000000000E+00 -0.45106289020E+03  0.45106289020E+03  0.00000000000E+00 0.  1.
    9000007    1    1    2  502    0  0.12863436965E+03  0.16592640614E+03  0.39908108869E+03  0.60278029883E+03  0.40000000000E+03 0. -1.
   -9000007    1    1    2    0  501 -0.12863436965E+03 -0.16592640614E+03 -0.20311462422E+03  0.49531194603E+03  0.40000000000E+03 0.  1.
<mgrwt>
<rscale>  2 0.45175034E+03</rscale>
<asrwt>0</asrwt>
<pdfrwt beam="1">  1        2 0.99542978E-01 0.45175034E+03</pdfrwt>
<pdfrwt beam="2">  1       -2 0.69394291E-01 0.45175034E+03</pdfrwt>
<totfact> 0.88738841E+01</totfact>
</mgrwt>
</event>
<event>
 4    1  0.2338029E-002  0.4463204E+03  0.7818608E-02  0.1028825E+00
          3   -1    0    0  502    0  0.00000000000E+00  0.00000000000E+00  0.12828682684E+03  0.12828682684E+03  0.00000000000E+00 0.  1.
         -3   -1    0    0    0  501 -0.00000000000E+00 -0.00000000000E+00 -0.15583925013E+04  0.15583925013E+04  0.00000000000E+00 0. -1.
    9000007    1    1    2  502    0  0.19376618858E+03  0.40701090393E+02 -0.76563908156E+03  0.88623084905E+03  0.40000000000E+03 0. -1.
   -9000007    1    1    2    0  501 -0.19376618858E+03 -0.40701090393E+02 -0.66446659295E+03  0.80044847913E+03  0.40000000000E+03 0.  1.
<mgrwt>
<rscale>  2 0.44632042E+03</rscale>
<asrwt>0</asrwt>
<pdfrwt beam="1">  1        3 0.19736435E-01 0.44632042E+03</pdfrwt>
<pdfrwt beam="2">  1       -3 0.23975269E+00 0.44632042E+03</pdfrwt>
<totfact> 0.52888787E+00</totfact>
</mgrwt>
</event>
<event>
 4    1  0.2338029E-002  0.9118136E+03  0.7818608E-02  0.9410933E-01
          1   -1    0    0  502    0  0.00000000000E+00  0.00000000000E+00  0.71783257085E+03  0.71783257085E+03  0.00000000000E+00 0. -1.
         -1   -1    0    0    0  501 -0.00000000000E+00 -0.00000000000E+00 -0.16404982581E+04  0.16404982581E+04  0.00000000000E+00 0.  1.
    9000007    1    1    2  502    0 -0.11680090157E+03 -0.81102500458E+03 -0.11006821766E+04  0.14293023692E+04  0.40000000000E+03 0.  1.
   -9000007    1    1    2    0  501  0.11680090157E+03  0.81102500458E+03  0.17801648929E+03  0.92902845981E+03  0.40000000000E+03 0. -1.
<mgrwt>
<rscale>  2 0.91181358E+03</rscale>
<asrwt>0</asrwt>
<pdfrwt beam="1">  1        1 0.11043578E+00 0.91181358E+03</pdfrwt>
<pdfrwt beam="2">  1       -1 0.25238434E+00 0.91181358E+03</pdfrwt>
<totfact> 0.17993931E+00</totfact>
</mgrwt>
</event>
<event>
 4    1  0.2338029E-002  0.4173520E+03  0.7818608E-02  0.1037932E+00
          2   -1    0    0  502    0  0.00000000000E+00  0.00000000000E+00  0.85568188303E+03  0.85568188303E+03  0.00000000000E+00 0. -1.
         -2   -1    0    0    0  501 -0.00000000000E+00 -0.00000000000E+00 -0.20433319460E+03  0.20433319460E+03  0.00000000000E+00 0.  1.
    9000007    1    1    2  502    0  0.46105930547E+02 -0.10980410961E+03  0.29307373324E+03  0.50997540376E+03  0.40000000000E+03 0.  1.
   -9000007    1    1    2    0  501 -0.46105930547E+02  0.10980410961E+03  0.35827495519E+03  0.55003967387E+03  0.40000000000E+03 0. -1.
<mgrwt>
<rscale>  2 0.41735201E+03</rscale>
<asrwt>0</asrwt>
<pdfrwt beam="1">  1        2 0.13164337E+00 0.41735201E+03</pdfrwt>
<pdfrwt beam="2">  1       -2 0.31435876E-01 0.41735201E+03</pdfrwt>
<totfact> 0.30338384E+02</totfact>
</mgrwt>
</event>
<event>
 4    1  0.2338029E-002  0.4973219E+03  0.7818608E-02  0.1014480E+00
          1   -1    0    0  502    0  0.00000000000E+00  0.00000000000E+00  0.95391906332E+03  0.95391906332E+03  0.00000000000E+00 0. -1.
         -1   -1    0    0    0  501 -0.00000000000E+00 -0.00000000000E+00 -0.26289270998E+03  0.26289270998E+03  0.00000000000E+00 0.  1.
    9000007    1    1    2  502    0 -0.27946329050E+02 -0.29419057274E+03  0.41686620738E+03  0.64892721106E+03  0.40000000000E+03 0.  1.
   -9000007    1    1    2    0  501  0.27946329050E+02  0.29419057274E+03  0.27416014596E+03  0.56788456224E+03  0.40000000000E+03 0. -1.
<mgrwt>
<rscale>  2 0.49732192E+03</rscale>
<asrwt>0</asrwt>
<pdfrwt beam="1">  1        1 0.14675678E+00 0.49732192E+03</pdfrwt>
<pdfrwt beam="2">  1       -1 0.40445033E-01 0.49732192E+03</pdfrwt>
<totfact> 0.10255074E+02</totfact>
</mgrwt>
</event>
<event>
 4    1  0.2338029E-002  0.4799235E+03  0.7818608E-02  0.1019156E+00
         -2   -1    0    0    0  501 -0.00000000000E+00  0.00000000000E+00  0.26891367003E+03  0.26891367003E+03  0.00000000000E+00 0.  1.
          2   -1    0    0  502    0  0.00000000000E+00 -0.00000000000E+00 -0.10373138190E+04  0.10373138190E+04  0.00000000000E+00 0. -1.
    9000007    1    1    2  502    0 -0.31526388842E+02  0.26331090579E+03 -0.65687215581E+03  0.81351556555E+03  0.40000000000E+03 0.  1.
   -9000007    1    1    2    0  501  0.31526388842E+02 -0.26331090579E+03 -0.11152799318E+03  0.49271192351E+03  0.40000000000E+03 0. -1.
<mgrwt>
<rscale>  2 0.47992348E+03</rscale>
<asrwt>0</asrwt>
<pdfrwt beam="1">  1        2 0.15958674E+00 0.47992348E+03</pdfrwt>
<pdfrwt beam="2">  1       -2 0.41371334E-01 0.47992348E+03</pdfrwt>
<totfact> 0.13671142E+02</totfact>
</mgrwt>
</event>
<event>
 4    1  0.2338029E-002  0.4063792E+03  0.7818608E-02  0.1041593E+00
         -1   -1    0    0    0  501 -0.00000000000E+00  0.00000000000E+00  0.11656944222E+03  0.11656944222E+03  0.00000000000E+00 0.  1.
          1   -1    0    0  502    0  0.00000000000E+00 -0.00000000000E+00 -0.14528333220E+04  0.14528333220E+04  0.00000000000E+00 0. -1.
    9000007    1    1    2  502    0 -0.68700082499E+02 -0.20599128257E+02 -0.54438186077E+03  0.67933470083E+03  0.40000000000E+03 0.  1.
   -9000007    1    1    2    0  501  0.68700082499E+02  0.20599128257E+02 -0.79188201897E+03  0.89006806335E+03  0.40000000000E+03 0. -1.
<mgrwt>
<rscale>  2 0.40637916E+03</rscale>
<asrwt>0</asrwt>
<pdfrwt beam="1">  1        1 0.22351282E+00 0.40637916E+03</pdfrwt>
<pdfrwt beam="2">  1       -1 0.17933761E-01 0.40637916E+03</pdfrwt>
<totfact> 0.18248885E+02</totfact>
</mgrwt>
</event>
<event>
 4    1  0.2338029E-002  0.5566549E+03  0.7818608E-02  0.9999652E-01
          2   -1    0    0  502    0  0.00000000000E+00  0.00000000000E+00  0.39853429329E+04  0.39853429329E+04  0.00000000000E+00 0. -1.
         -2   -1    0    0    0  501 -0.00000000000E+00 -0.00000000000E+00 -0.89157231532E+02  0.89157231532E+02  0.00000000000E+00 0.  1.
    9000007    1    1    2  502    0  0.15788326839E+03  0.35346500504E+03  0.26767714453E+04  0.27340391377E+04  0.40000000000E+03 0. -1.
   -9000007    1    1    2    0  501 -0.15788326839E+03 -0.35346500504E+03  0.12194142561E+04  0.13404610267E+04  0.40000000000E+03 0.  1.
<mgrwt>
<rscale>  2 0.55665486E+03</rscale>
<asrwt>0</asrwt>
<pdfrwt beam="1">  1        2 0.61312954E+00 0.55665486E+03</pdfrwt>
<pdfrwt beam="2">  1       -2 0.13716500E-01 0.55665486E+03</pdfrwt>
<totfact> 0.16452612E+01</totfact>
</mgrwt>
</event>
<event>
 4    1  0.2338029E-002  0.4122574E+03  0.7818608E-02  0.1039616E+00
          2   -1    0    0  502    0  0.00000000000E+00  0.00000000000E+00  0.13209968385E+04  0.13209968385E+04  0.00000000000E+00 0. -1.
         -2   -1    0    0    0  501 -0.00000000000E+00 -0.00000000000E+00 -0.25614913753E+03  0.25614913753E+03  0.00000000000E+00 0.  1.
    9000007    1    1    2  502    0  0.86973500741E+02  0.48905434372E+02 -0.23911071716E+02  0.41295020365E+03  0.40000000000E+03 0.  1.
   -9000007    1    1    2    0  501 -0.86973500741E+02 -0.48905434372E+02  0.10887587727E+04  0.11641957724E+04  0.40000000000E+03 0. -1.
<mgrwt>
<rscale>  2 0.41225736E+03</rscale>
<asrwt>0</asrwt>
<pdfrwt beam="1">  1        2 0.20323028E+00 0.41225736E+03</pdfrwt>
<pdfrwt beam="2">  1       -2 0.39407561E-01 0.41225736E+03</pdfrwt>
<totfact> 0.10330896E+02</totfact>
</mgrwt>
</event>
<event>
 4    1  0.2338029E-002  0.4060071E+03  0.7818608E-02  0.1041719E+00
          2   -1    0    0  502    0  0.00000000000E+00  0.00000000000E+00  0.13157753492E+04  0.13157753492E+04  0.00000000000E+00 0. -1.
         -2   -1    0    0    0  501 -0.00000000000E+00 -0.00000000000E+00 -0.14222720325E+03  0.14222720325E+03  0.00000000000E+00 0.  1.
    9000007    1    1    2  502    0 -0.24106820191E+02  0.65273720245E+02  0.83840947389E+03  0.93154293688E+03  0.40000000000E+03 0. -1.
   -9000007    1    1    2    0  501  0.24106820191E+02 -0.65273720245E+02  0.33513867208E+03  0.52645961560E+03  0.40000000000E+03 0.  1.
<mgrwt>
<rscale>  2 0.40600714E+03</rscale>
<asrwt>0</asrwt>
<pdfrwt beam="1">  1        2 0.20242697E+00 0.40600714E+03</pdfrwt>
<pdfrwt beam="2">  1       -2 0.21881109E-01 0.40600714E+03</pdfrwt>
<totfact> 0.30611219E+02</totfact>
</mgrwt>
</event>
<event>
 4    1  0.2338029E-002  0.4957620E+03  0.7818608E-02  0.1014891E+00
          2   -1    0    0  502    0  0.00000000000E+00  0.00000000000E+00  0.38152643939E+04  0.38152643939E+04  0.00000000000E+00 0. -1.
         -2   -1    0    0    0  501 -0.00000000000E+00 -0.00000000000E+00 -0.82488642967E+02  0.82488642967E+02  0.00000000000E+00 0.  1.
    9000007    1    1    2  502    0 -0.28822760046E+03  0.52008210073E+02  0.27784993032E+04  0.28223816860E+04  0.40000000000E+03 0. -1.
   -9000007    1    1    2    0  501  0.28822760046E+03 -0.52008210073E+02  0.95427644779E+03  0.10753713509E+04  0.40000000000E+03 0.  1.
<mgrwt>
<rscale>  2 0.49576204E+03</rscale>
<asrwt>0</asrwt>
<pdfrwt beam="1">  1        2 0.58696362E+00 0.49576204E+03</pdfrwt>
<pdfrwt beam="2">  1       -2 0.12690563E-01 0.49576204E+03</pdfrwt>
<totfact> 0.25583346E+01</totfact>
</mgrwt>
</event>
<event>
 4    1  0.2338029E-002  0.4022513E+03  0.7818608E-02  0.1043003E+00
          2   -1    0    0  502    0  0.00000000000E+00  0.00000000000E+00  0.97730051562E+03  0.97730051562E+03  0.00000000000E+00 0.  1.
         -2   -1    0    0    0  501 -0.00000000000E+00 -0.00000000000E+00 -0.23632060469E+03  0.23632060469E+03  0.00000000000E+00 0. -1.
    9000007    1    1    2  502    0  0.18116643275E+02  0.38443888725E+02  0.38454326007E+02  0.40408523919E+03  0.40000000000E+03 0. -1.
   -9000007    1    1    2    0  501 -0.18116643275E+02 -0.38443888725E+02  0.70252558493E+03  0.80953588112E+03  0.40000000000E+03 0.  1.
<mgrwt>
<rscale>  2 0.40225135E+03</rscale>
<asrwt>0</asrwt>
<pdfrwt beam="1">  1        2 0.15035392E+00 0.40225135E+03</pdfrwt>
<pdfrwt beam="2">  1       -2 0.36357016E-01 0.40225135E+03</pdfrwt>
<totfact> 0.19264100E+02</totfact>
</mgrwt>
</event>
<event>
 4    1  0.2338029E-002  0.4527387E+03  0.7818608E-02  0.1026908E+00
          1   -1    0    0  502    0  0.00000000000E+00  0.00000000000E+00  0.19042781912E+04  0.19042781912E+04  0.00000000000E+00 0.  1.
         -1   -1    0    0    0  501 -0.00000000000E+00 -0.00000000000E+00 -0.15437241384E+03  0.15437241384E+03  0.00000000000E+00 0. -1.
    9000007    1    1    2  502    0  0.20087891611E+03  0.67970242998E+02  0.30859991576E+03  0.54791075996E+03  0.40000000000E+03 0. -1.
   -9000007    1    1    2    0  501 -0.20087891611E+03 -0.67970242998E+02  0.14413058616E+04  0.15107398451E+04  0.40000000000E+03 0.  1.
<mgrwt>
<rscale>  2 0.45273866E+03</rscale>
<asrwt>0</asrwt>
<pdfrwt beam="1">  1        1 0.29296586E+00 0.45273866E+03</pdfrwt>
<pdfrwt beam="2">  1       -1 0.23749604E-01 0.45273866E+03</pdfrwt>
<totfact> 0.57012744E+01</totfact>
</mgrwt>
</event>
<event>
 4    1  0.2338029E-002  0.4730003E+03  0.7818608E-02  0.1021077E+00
         -2   -1    0    0    0  501 -0.00000000000E+00  0.00000000000E+00  0.47734062828E+03  0.47734062828E+03  0.00000000000E+00 0.  1.
          2   -1    0    0  502    0  0.00000000000E+00 -0.00000000000E+00 -0.61410348463E+03  0.61410348463E+03  0.00000000000E+00 0. -1.
    9000007    1    1    2  502    0 -0.16664078851E+03 -0.18963157821E+03  0.19716408113E+03  0.51244800979E+03  0.40000000000E+03 0.  1.
   -9000007    1    1    2    0  501  0.16664078851E+03  0.18963157821E+03 -0.33392693748E+03  0.57899610312E+03  0.40000000000E+03 0. -1.
<mgrwt>
<rscale>  2 0.47300030E+03</rscale>
<asrwt>0</asrwt>
<pdfrwt beam="1">  1        2 0.94477458E-01 0.47300030E+03</pdfrwt>
<pdfrwt beam="2">  1       -2 0.73437021E-01 0.47300030E+03</pdfrwt>
<totfact> 0.83369228E+01</totfact>
</mgrwt>
</event>
<event>
 4    1  0.2338029E-002  0.4305383E+03  0.7818608E-02  0.1033690E+00
          1   -1    0    0  502    0  0.00000000000E+00  0.00000000000E+00  0.11036098696E+04  0.11036098696E+04  0.00000000000E+00 0.  1.
         -1   -1    0    0    0  501 -0.00000000000E+00 -0.00000000000E+00 -0.20815849648E+03  0.20815849648E+03  0.00000000000E+00 0. -1.
    9000007    1    1    2  502    0  0.15814196805E+03 -0.18823527090E+02  0.15950137011E+03  0.45913385227E+03  0.40000000000E+03 0. -1.
   -9000007    1    1    2    0  501 -0.15814196805E+03  0.18823527090E+02  0.73595000302E+03  0.85263451383E+03  0.40000000000E+03 0.  1.
<mgrwt>
<rscale>  2 0.43053828E+03</rscale>
<asrwt>0</asrwt>
<pdfrwt beam="1">  1        1 0.16978613E+00 0.43053828E+03</pdfrwt>
<pdfrwt beam="2">  1       -1 0.32024385E-01 0.43053828E+03</pdfrwt>
<totfact> 0.12056110E+02</totfact>
</mgrwt>
</event>
<event>
 4    1  0.2338029E-002  0.4413492E+03  0.7818608E-02  0.1030334E+00
         -2   -1    0    0    0  501 -0.00000000000E+00  0.00000000000E+00  0.98903857471E+02  0.98903857471E+02  0.00000000000E+00 0.  1.
          2   -1    0    0  502    0  0.00000000000E+00 -0.00000000000E+00 -0.19695043615E+04  0.19695043615E+04  0.00000000000E+00 0. -1.
    9000007    1    1    2  502    0  0.18587867751E+03 -0.15435533052E+02 -0.93163978553E+03  0.10308937037E+04  0.40000000000E+03 0. -1.
   -9000007    1    1    2    0  501 -0.18587867751E+03  0.15435533052E+02 -0.93896071854E+03  0.10375145153E+04  0.40000000000E+03 0. -1.
<mgrwt>
<rscale>  2 0.44134923E+03</rscale>
<asrwt>0</asrwt>
<pdfrwt beam="1">  1        2 0.30300065E+00 0.44134923E+03</pdfrwt>
<pdfrwt beam="2">  1       -2 0.15215979E-01 0.44134923E+03</pdfrwt>
<totfact> 0.25122734E+02</totfact>
</mgrwt>
</event>
<event>
 4    1  0.2338029E-002  0.4694025E+03  0.7818608E-02  0.1022089E+00
         -3   -1    0    0    0  501 -0.00000000000E+00  0.00000000000E+00  0.46240319442E+03  0.46240319442E+03  0.00000000000E+00 0.  1.
          3   -1    0    0  502    0  0.00000000000E+00 -0.00000000000E+00 -0.47712032721E+03  0.47712032721E+03  0.00000000000E+00 0. -1.
    9000007    1    1    2  502    0 -0.23408668514E+03  0.74445799587E+02 -0.24189481235E+02  0.47002540808E+03  0.40000000000E+03 0. -1.
   -9000007    1    1    2    0  501  0.23408668514E+03 -0.74445799587E+02  0.94723484454E+01  0.46949811355E+03  0.40000000000E+03 0.  1.
<mgrwt>
<rscale>  2 0.46940255E+03</rscale>
<asrwt>0</asrwt>
<pdfrwt beam="1">  1        3 0.73403127E-01 0.46940255E+03</pdfrwt>
<pdfrwt beam="2">  1       -3 0.71138953E-01 0.46940255E+03</pdfrwt>
<totfact> 0.86444493E+00</totfact>
</mgrwt>
</event>
<event>
 4    1  0.2338029E-002  0.4869913E+03  0.7818608E-02  0.1017231E+00
         -2   -1    0    0    0  501 -0.00000000000E+00  0.00000000000E+00  0.19836472896E+03  0.19836472896E+03  0.00000000000E+00 0.  1.
          2   -1    0    0  502    0  0.00000000000E+00 -0.00000000000E+00 -0.13864679019E+04  0.13864679019E+04  0.00000000000E+00 0. -1.
    9000007    1    1    2  502    0  0.27393159804E+03  0.46065744886E+02 -0.88808019612E+03  0.10128410576E+04  0.40000000000E+03 0. -1.
   -9000007    1    1    2    0  501 -0.27393159804E+03 -0.46065744886E+02 -0.30002297686E+03  0.57199157327E+03  0.40000000000E+03 0.  1.
<mgrwt>
<rscale>  2 0.48699135E+03</rscale>
<asrwt>0</asrwt>
<pdfrwt beam="1">  1        2 0.21330275E+00 0.48699135E+03</pdfrwt>
<pdfrwt beam="2">  1       -2 0.30517651E-01 0.48699135E+03</pdfrwt>
<totfact> 0.15222585E+02</totfact>
</mgrwt>
</event>
<event>
 4    1  0.2338029E-002  0.4322785E+03  0.7818608E-02  0.1033143E+00
         -2   -1    0    0    0  501 -0.00000000000E+00  0.00000000000E+00  0.17798890335E+03  0.17798890335E+03  0.00000000000E+00 0.  1.
          2   -1    0    0  502    0  0.00000000000E+00 -0.00000000000E+00 -0.14065957903E+04  0.14065957903E+04  0.00000000000E+00 0. -1.
    9000007    1    1    2  502    0  0.40198729388E+02  0.15889848179E+03 -0.10133007107E+04  0.11016546626E+04  0.40000000000E+03 0. -1.
   -9000007    1    1    2    0  501 -0.40198729388E+02 -0.15889848179E+03 -0.21530617629E+03  0.48293003107E+03  0.40000000000E+03 0.  1.
<mgrwt>
<rscale>  2 0.43227846E+03</rscale>
<asrwt>0</asrwt>
<pdfrwt beam="1">  1        2 0.21639934E+00 0.43227846E+03</pdfrwt>
<pdfrwt beam="2">  1       -2 0.27382909E-01 0.43227846E+03</pdfrwt>
<totfact> 0.18213403E+02</totfact>
</mgrwt>
</event>
<event>
 4    1  0.2338029E-002  0.4040160E+03  0.7818608E-02  0.1042398E+00
          1   -1    0    0  502    0  0.00000000000E+00  0.00000000000E+00  0.74955730813E+03  0.74955730813E+03  0.00000000000E+00 0. -1.
         -1   -1    0    0    0  501 -0.00000000000E+00 -0.00000000000E+00 -0.30409236015E+03  0.30409236015E+03  0.00000000000E+00 0.  1.
    9000007    1    1    2  502    0  0.49202991237E+02  0.28425593930E+02  0.50342596390E+03  0.64549721135E+03  0.40000000000E+03 0. -1.
   -9000007    1    1    2    0  501 -0.49202991237E+02 -0.28425593930E+02 -0.57961015918E+02  0.40815245694E+03  0.40000000000E+03 0.  1.
<mgrwt>
<rscale>  2 0.40401603E+03</rscale>
<asrwt>0</asrwt>
<pdfrwt beam="1">  1        1 0.11531651E+00 0.40401603E+03</pdfrwt>
<pdfrwt beam="2">  1       -1 0.46783440E-01 0.40401603E+03</pdfrwt>
<totfact> 0.11733097E+02</totfact>
</mgrwt>
</event>
<event>
 4    1  0.2338029E-002  0.1024574E+04  0.7818608E-02  0.9281996E-01
          2   -1    0    0  502    0  0.00000000000E+00  0.00000000000E+00  0.19221212410E+04  0.19221212410E+04  0.00000000000E+00 0.  1.
         -2   -1    0    0    0  501 -0.00000000000E+00 -0.00000000000E+00 -0.54855643307E+03  0.54855643307E+03  0.00000000000E+00 0. -1.
    9000007    1    1    2  502    0  0.93657776754E+03 -0.11213493155E+03  0.60483497148E+03  0.11897804420E+04  0.40000000000E+03 0. -1.
   -9000007    1    1    2    0  501 -0.93657776754E+03  0.11213493155E+03  0.76872983642E+03  0.12808972320E+04  0.40000000000E+03 0.  1.
<mgrwt>
<rscale>  2 0.10245741E+04</rscale>
<asrwt>0</asrwt>
<pdfrwt beam="1">  1        2 0.29571096E+00 0.10245741E+04</pdfrwt>
<pdfrwt beam="2">  1       -2 0.84393298E-01 0.10245741E+04</pdfrwt>
<totfact> 0.90231288E+00</totfact>
</mgrwt>
</event>
<event>
 4    1  0.2338029E-002  0.4213266E+03  0.7818608E-02  0.1036635E+00
         -1   -1    0    0    0  501 -0.00000000000E+00  0.00000000000E+00  0.85287350601E+03  0.85287350601E+03  0.00000000000E+00 0.  1.
          1   -1    0    0  502    0  0.00000000000E+00 -0.00000000000E+00 -0.20815610742E+03  0.20815610742E+03  0.00000000000E+00 0. -1.
    9000007    1    1    2  502    0 -0.13216352742E+03 -0.69948017920E+01  0.32718680638E+03  0.53344852751E+03  0.40000000000E+03 0.  1.
   -9000007    1    1    2    0  501  0.13216352742E+03  0.69948017920E+01  0.31753059221E+03  0.52758108592E+03  0.40000000000E+03 0. -1.
<mgrwt>
<rscale>  2 0.42132663E+03</rscale>
<asrwt>0</asrwt>
<pdfrwt beam="1">  1        1 0.32024017E-01 0.42132663E+03</pdfrwt>
<pdfrwt beam="2">  1       -1 0.13121131E+00 0.42132663E+03</pdfrwt>
<totfact> 0.73220878E+01</totfact>
</mgrwt>
</event>
<event>
 4    1  0.2338029E-002  0.5717251E+03  0.7818608E-02  0.9965868E-01
          2   -1    0    0  502    0  0.00000000000E+00  0.00000000000E+00  0.54318566324E+03  0.54318566324E+03  0.00000000000E+00 0.  1.
         -2   -1    0    0    0  501 -0.00000000000E+00 -0.00000000000E+00 -0.95798031659E+03  0.95798031659E+03  0.00000000000E+00 0. -1.
    9000007    1    1    2  502    0 -0.11392740713E+03 -0.39228838924E+03  0.25029882979E+03  0.62411468387E+03  0.40000000000E+03 0.  1.
   -9000007    1    1    2    0  501  0.11392740713E+03  0.39228838924E+03 -0.66509348314E+03  0.87705129596E+03  0.40000000000E+03 0. -1.
<mgrwt>
<rscale>  2 0.57172514E+03</rscale>
<asrwt>0</asrwt>
<pdfrwt beam="1">  1        2 0.83567025E-01 0.57172514E+03</pdfrwt>
<pdfrwt beam="2">  1       -2 0.14738159E+00 0.57172514E+03</pdfrwt>
<totfact> 0.18113462E+01</totfact>
</mgrwt>
</event>
<event>
 4    1  0.2338029E-002  0.4092094E+03  0.7818608E-02  0.1040637E+00
          1   -1    0    0  502    0  0.00000000000E+00  0.00000000000E+00  0.13438407238E+04  0.13438407238E+04  0.00000000000E+00 0.  1.
         -1   -1    0    0    0  501 -0.00000000000E+00 -0.00000000000E+00 -0.13690962540E+03  0.13690962540E+03  0.00000000000E+00 0. -1.
    9000007    1    1    2  502    0  0.76495770967E+02 -0.40009470222E+02  0.82540193450E+03  0.92127124896E+03  0.40000000000E+03 0.  1.
   -9000007    1    1    2    0  501 -0.76495770967E+02  0.40009470222E+02  0.38152916388E+03  0.55947910022E+03  0.40000000000E+03 0. -1.
<mgrwt>
<rscale>  2 0.40920943E+03</rscale>
<asrwt>0</asrwt>
<pdfrwt beam="1">  1        1 0.20674472E+00 0.40920943E+03</pdfrwt>
<pdfrwt beam="2">  1       -1 0.21063020E-01 0.40920943E+03</pdfrwt>
<totfact> 0.16622317E+02</totfact>
</mgrwt>
</event>
<event>
 4    1  0.2338029E-002  0.6391061E+03  0.7818608E-02  0.9827438E-01
         -2   -1    0    0    0  501 -0.00000000000E+00  0.00000000000E+00  0.11616385051E+04  0.11616385051E+04  0.00000000000E+00 0. -1.
          2   -1    0    0  502    0  0.00000000000E+00 -0.00000000000E+00 -0.36176201057E+03  0.36176201057E+03  0.00000000000E+00 0.  1.
    9000007    1    1    2  502    0 -0.47149846741E+03  0.16169647389E+03  0.27240832209E+03  0.69473941041E+03  0.40000000000E+03 0.  1.
   -9000007    1    1    2    0  501  0.47149846741E+03 -0.16169647389E+03  0.52746817245E+03  0.82866110527E+03  0.40000000000E+03 0.  1.
<mgrwt>
<rscale>  2 0.63910606E+03</rscale>
<asrwt>0</asrwt>
<pdfrwt beam="1">  1        2 0.55655694E-01 0.63910606E+03</pdfrwt>
<pdfrwt beam="2">  1       -2 0.17871361E+00 0.63910606E+03</pdfrwt>
<totfact> 0.16909440E+01</totfact>
</mgrwt>
</event>
<event>
 4    1  0.2338029E-002  0.4883125E+03  0.7818608E-02  0.1016875E+00
         -1   -1    0    0    0  501 -0.00000000000E+00  0.00000000000E+00  0.10992925411E+03  0.10992925411E+03  0.00000000000E+00 0.  1.
          1   -1    0    0  502    0  0.00000000000E+00 -0.00000000000E+00 -0.21729436352E+04  0.21729436352E+04  0.00000000000E+00 0. -1.
    9000007    1    1    2  502    0  0.23256421967E+03 -0.15608639525E+03 -0.98358807301E+03  0.10981323128E+04  0.40000000000E+03 0.  1.
   -9000007    1    1    2    0  501 -0.23256421967E+03  0.15608639525E+03 -0.10794263081E+04  0.11847405765E+04  0.40000000000E+03 0. -1.
<mgrwt>
<rscale>  2 0.48831248E+03</rscale>
<asrwt>0</asrwt>
<pdfrwt beam="1">  1        1 0.33429901E+00 0.48831248E+03</pdfrwt>
<pdfrwt beam="2">  1       -1 0.16912194E-01 0.48831248E+03</pdfrwt>
<totfact> 0.65956831E+01</totfact>
</mgrwt>
</event>
<event>
 4    1  0.2338029E-002  0.4005301E+03  0.7818608E-02  0.1043596E+00
          1   -1    0    0  502    0  0.00000000000E+00  0.00000000000E+00  0.17665579382E+03  0.17665579382E+03  0.00000000000E+00 0. -1.
         -1   -1    0    0    0  501 -0.00000000000E+00 -0.00000000000E+00 -0.92672665150E+03  0.92672665150E+03  0.00000000000E+00 0.  1.
    9000007    1    1    2  502    0  0.74375614798E+01  0.19211169462E+02 -0.29685961646E+03  0.49854790967E+03  0.40000000000E+03 0. -1.
   -9000007    1    1    2    0  501 -0.74375614798E+01 -0.19211169462E+02 -0.45321124122E+03  0.60483453566E+03  0.40000000000E+03 0.  1.
<mgrwt>
<rscale>  2 0.40053013E+03</rscale>
<asrwt>0</asrwt>
<pdfrwt beam="1">  1        1 0.27177815E-01 0.40053013E+03</pdfrwt>
<pdfrwt beam="2">  1       -1 0.14257333E+00 0.40053013E+03</pdfrwt>
<totfact> 0.73344394E+01</totfact>
</mgrwt>
</event>
<event>
 4    1  0.2338029E-002  0.8908071E+03  0.7818608E-02  0.9437146E-01
         -1   -1    0    0    0  501 -0.00000000000E+00  0.00000000000E+00  0.46312091277E+03  0.46312091277E+03  0.00000000000E+00 0.  1.
          1   -1    0    0  502    0  0.00000000000E+00 -0.00000000000E+00 -0.28025633209E+04  0.28025633209E+04  0.00000000000E+00 0. -1.
    9000007    1    1    2  502    0  0.79377354120E+03 -0.58829456023E+02 -0.15182896880E+03  0.90365334911E+03  0.40000000000E+03 0.  1.
   -9000007    1    1    2    0  501 -0.79377354120E+03  0.58829456023E+02 -0.21876134393E+04  0.23620308845E+04  0.40000000000E+03 0. -1.
<mgrwt>
<rscale>  2 0.89080713E+03</rscale>
<asrwt>0</asrwt>
<pdfrwt beam="1">  1        1 0.43116359E+00 0.89080713E+03</pdfrwt>
<pdfrwt beam="2">  1       -1 0.71249371E-01 0.89080713E+03</pdfrwt>
<totfact> 0.17214298E+00</totfact>
</mgrwt>
</event>
<event>
 4    1  0.2338029E-002  0.4380203E+03  0.7818608E-02  0.1031356E+00
          1   -1    0    0  502    0  0.00000000000E+00  0.00000000000E+00  0.38892254959E+03  0.38892254959E+03  0.00000000000E+00 0.  1.
         -1   -1    0    0    0  501 -0.00000000000E+00 -0.00000000000E+00 -0.59682330619E+03  0.59682330619E+03  0.00000000000E+00 0. -1.
    9000007    1    1    2  502    0 -0.15878788060E+03 -0.81536618118E+02 -0.30920694945E+03  0.53616298708E+03  0.40000000000E+03 0. -1.
   -9000007    1    1    2    0  501  0.15878788060E+03  0.81536618118E+02  0.10130619286E+03  0.44958286870E+03  0.40000000000E+03 0.  1.
<mgrwt>
<rscale>  2 0.43802033E+03</rscale>
<asrwt>0</asrwt>
<pdfrwt beam="1">  1        1 0.59834239E-01 0.43802033E+03</pdfrwt>
<pdfrwt beam="2">  1       -1 0.91818970E-01 0.43802033E+03</pdfrwt>
<totfact> 0.75448250E+01</totfact>
</mgrwt>
</event>
<event>
 4    1  0.2338029E-002  0.4199462E+03  0.7818608E-02  0.1037084E+00
         -2   -1    0    0    0  501 -0.00000000000E+00  0.00000000000E+00  0.31220115319E+03  0.31220115319E+03  0.00000000000E+00 0.  1.
          2   -1    0    0  502    0  0.00000000000E+00 -0.00000000000E+00 -0.57565193135E+03  0.57565193135E+03  0.00000000000E+00 0. -1.
    9000007    1    1    2  502    0  0.11945691592E+03 -0.45660241965E+02 -0.70986523062E+02  0.42590362632E+03  0.40000000000E+03 0.  1.
   -9000007    1    1    2    0  501 -0.11945691592E+03  0.45660241965E+02 -0.19246425511E+03  0.46194945822E+03  0.40000000000E+03 0. -1.
<mgrwt>
<rscale>  2 0.41994620E+03</rscale>
<asrwt>0</asrwt>
<pdfrwt beam="1">  1        2 0.88561835E-01 0.41994620E+03</pdfrwt>
<pdfrwt beam="2">  1       -2 0.48030947E-01 0.41994620E+03</pdfrwt>
<totfact> 0.21985219E+02</totfact>
</mgrwt>
</event>
<event>
 4    1  0.2338029E-002  0.5481166E+03  0.7818608E-02  0.1001931E+00
         -4   -1    0    0    0  501 -0.00000000000E+00  0.00000000000E+00  0.31868907419E+03  0.31868907419E+03  0.00000000000E+00 0. -1.
          4   -1    0    0  502    0  0.00000000000E+00 -0.00000000000E+00 -0.10188313767E+04  0.10188313767E+04  0.00000000000E+00 0.  1.
    9000007    1    1    2  502    0 -0.37438809022E+03 -0.16288548474E+02 -0.53286819994E+03  0.76444769436E+03  0.40000000000E+03 0.  1.
   -9000007    1    1    2    0  501  0.37438809022E+03  0.16288548474E+02 -0.16727410260E+03  0.57307275656E+03  0.40000000000E+03 0.  1.
<mgrwt>
<rscale>  2 0.54811656E+03</rscale>
<asrwt>0</asrwt>
<pdfrwt beam="1">  1        4 0.15674329E+00 0.54811656E+03</pdfrwt>
<pdfrwt beam="2">  1       -4 0.49029089E-01 0.54811656E+03</pdfrwt>
<totfact> 0.20906381E+00</totfact>
</mgrwt>
</event>
<event>
 4    1  0.2338029E-002  0.7659678E+03  0.7818608E-02  0.9610627E-01
          2   -1    0    0  502    0  0.00000000000E+00  0.00000000000E+00  0.18121146814E+04  0.18121146814E+04  0.00000000000E+00 0.  1.
         -2   -1    0    0    0  501 -0.00000000000E+00 -0.00000000000E+00 -0.35330550580E+03  0.35330550580E+03  0.00000000000E+00 0. -1.
    9000007    1    1    2  502    0  0.64139154917E+03  0.12378846996E+03  0.41635297372E+03  0.87181219501E+03  0.40000000000E+03 0. -1.
   -9000007    1    1    2    0  501 -0.64139154917E+03 -0.12378846996E+03  0.10424562019E+04  0.12936079922E+04  0.40000000000E+03 0.  1.
<mgrwt>
<rscale>  2 0.76596782E+03</rscale>
<asrwt>0</asrwt>
<pdfrwt beam="1">  1        2 0.27878687E+00 0.76596782E+03</pdfrwt>
<pdfrwt beam="2">  1       -2 0.54354694E-01 0.76596782E+03</pdfrwt>
<totfact> 0.27803449E+01</totfact>
</mgrwt>
</event>
<event>
 4    1  0.2338029E-002  0.4422541E+03  0.7818608E-02  0.1030057E+00
          1   -1    0    0  502    0  0.00000000000E+00  0.00000000000E+00  0.16352513700E+04  0.16352513700E+04  0.00000000000E+00 0.  1.
         -1   -1    0    0    0  501 -0.00000000000E+00 -0.00000000000E+00 -0.20514792094E+03  0.20514792094E+03  0.00000000000E+00 0. -1.
    9000007    1    1    2  502    0  0.18580117133E+03 -0.32658497046E+02  0.12085029887E+03  0.45846858937E+03  0.40000000000E+03 0. -1.
   -9000007    1    1    2    0  501 -0.18580117133E+03  0.32658497046E+02  0.13092531502E+04  0.13819307016E+04  0.40000000000E+03 0.  1.
<mgrwt>
<rscale>  2 0.44225406E+03</rscale>
<asrwt>0</asrwt>
<pdfrwt beam="1">  1        1 0.25157712E+00 0.44225406E+03</pdfrwt>
<pdfrwt beam="2">  1       -1 0.31561220E-01 0.44225406E+03</pdfrwt>
<totfact> 0.52974537E+01</totfact>
</mgrwt>
</event>
<event>
 4    1  0.2338029E-002  0.4302614E+03  0.7818608E-02  0.1033777E+00
         -2   -1    0    0    0  501 -0.00000000000E+00  0.00000000000E+00  0.27383580659E+03  0.27383580659E+03  0.00000000000E+00 0.  1.
          2   -1    0    0  502    0  0.00000000000E+00 -0.00000000000E+00 -0.67954228423E+03  0.67954228423E+03  0.00000000000E+00 0. -1.
    9000007    1    1    2  502    0 -0.11655250043E+03 -0.10742618228E+03 -0.23705875804E+03  0.49124507607E+03  0.40000000000E+03 0. -1.
   -9000007    1    1    2    0  501  0.11655250043E+03  0.10742618228E+03 -0.16864771961E+03  0.46213301475E+03  0.40000000000E+03 0.  1.
<mgrwt>
<rscale>  2 0.43026140E+03</rscale>
<asrwt>0</asrwt>
<pdfrwt beam="1">  1        2 0.10454497E+00 0.43026140E+03</pdfrwt>
<pdfrwt beam="2">  1       -2 0.42128586E-01 0.43026140E+03</pdfrwt>
<totfact> 0.23329302E+02</totfact>
</mgrwt>
</event>
<event>
 4    1  0.2338029E-002  0.4216917E+03  0.7818608E-02  0.1036517E+00
         -2   -1    0    0    0  501 -0.00000000000E+00  0.00000000000E+00  0.85487048474E+03  0.85487048474E+03  0.00000000000E+00 0.  1.
          2   -1    0    0  502    0  0.00000000000E+00 -0.00000000000E+00 -0.23572052846E+03  0.23572052846E+03  0.00000000000E+00 0. -1.
    9000007    1    1    2  502    0 -0.69079583662E+02 -0.11424480128E+03  0.12262089367E+03  0.43915799784E+03  0.40000000000E+03 0. -1.
   -9000007    1    1    2    0  501  0.69079583662E+02  0.11424480128E+03  0.49652906261E+03  0.65143301537E+03  0.40000000000E+03 0.  1.
<mgrwt>
<rscale>  2 0.42169167E+03</rscale>
<asrwt>0</asrwt>
<pdfrwt beam="1">  1        2 0.36264697E-01 0.42169167E+03</pdfrwt>
<pdfrwt beam="2">  1       -2 0.13151853E+00 0.42169167E+03</pdfrwt>
<totfact> 0.62551069E+01</totfact>
</mgrwt>
</event>
<event>
 4    1  0.2338029E-002  0.6121257E+03  0.7818608E-02  0.9880564E-01
          1   -1    0    0  502    0  0.00000000000E+00  0.00000000000E+00  0.86749336230E+03  0.86749336230E+03  0.00000000000E+00 0.  1.
         -1   -1    0    0    0  501 -0.00000000000E+00 -0.00000000000E+00 -0.45006248512E+03  0.45006248512E+03  0.00000000000E+00 0. -1.
    9000007    1    1    2  502    0  0.13525534084E+03 -0.44317481268E+03  0.34093947044E+03  0.70066942585E+03  0.40000000000E+03 0. -1.
   -9000007    1    1    2    0  501 -0.13525534084E+03  0.44317481268E+03  0.76491406744E+02  0.61688642157E+03  0.40000000000E+03 0.  1.
<mgrwt>
<rscale>  2 0.61212574E+03</rscale>
<asrwt>0</asrwt>
<pdfrwt beam="1">  1        1 0.13346052E+00 0.61212574E+03</pdfrwt>
<pdfrwt beam="2">  1       -1 0.69240383E-01 0.61212574E+03</pdfrwt>
<totfact> 0.42479058E+01</totfact>
</mgrwt>
</event>
<event>
 4    1  0.2338029E-002  0.5220633E+03  0.7818608E-02  0.1008175E+00
         -1   -1    0    0    0  501 -0.00000000000E+00  0.00000000000E+00  0.28710469019E+03  0.28710469019E+03  0.00000000000E+00 0.  1.
          1   -1    0    0  502    0  0.00000000000E+00 -0.00000000000E+00 -0.95157217441E+03  0.95157217441E+03  0.00000000000E+00 0. -1.
    9000007    1    1    2  502    0  0.32506511705E+03 -0.82962453562E+02 -0.36246033560E+03  0.63555298277E+03  0.40000000000E+03 0.  1.
   -9000007    1    1    2    0  501 -0.32506511705E+03  0.82962453562E+02 -0.30200714861E+03  0.60312388183E+03  0.40000000000E+03 0. -1.
<mgrwt>
<rscale>  2 0.52206331E+03</rscale>
<asrwt>0</asrwt>
<pdfrwt beam="1">  1        1 0.14639572E+00 0.52206331E+03</pdfrwt>
<pdfrwt beam="2">  1       -1 0.44169952E-01 0.52206331E+03</pdfrwt>
<totfact> 0.87446793E+01</totfact>
</mgrwt>
</event>
<event>
 4    1  0.2338029E-002  0.4929694E+03  0.7818608E-02  0.1015630E+00
          2   -1    0    0  502    0  0.00000000000E+00  0.00000000000E+00  0.17752944124E+04  0.17752944124E+04  0.00000000000E+00 0. -1.
         -2   -1    0    0    0  501 -0.00000000000E+00 -0.00000000000E+00 -0.14797867848E+03  0.14797867848E+03  0.00000000000E+00 0.  1.
    9000007    1    1    2  502    0 -0.22513462843E+03  0.17981445270E+03  0.10769056192E+04  0.11843751732E+04  0.40000000000E+03 0. -1.
   -9000007    1    1    2    0  501  0.22513462843E+03 -0.17981445270E+03  0.55041011473E+03  0.73889791765E+03  0.40000000000E+03 0. -1.
<mgrwt>
<rscale>  2 0.49296941E+03</rscale>
<asrwt>0</asrwt>
<pdfrwt beam="1">  1        2 0.27312220E+00 0.49296941E+03</pdfrwt>
<pdfrwt beam="2">  1       -2 0.22765952E-01 0.49296941E+03</pdfrwt>
<totfact> 0.15850190E+02</totfact>
</mgrwt>
</event>
<event>
 4    1  0.2338029E-002  0.4381647E+03  0.7818608E-02  0.1031311E+00
         -1   -1    0    0    0  501 -0.00000000000E+00  0.00000000000E+00  0.31073161156E+03  0.31073161156E+03  0.00000000000E+00 0. -1.
          1   -1    0    0  502    0  0.00000000000E+00 -0.00000000000E+00 -0.61796484584E+03  0.61796484584E+03  0.00000000000E+00 0.  1.
    9000007    1    1    2  502    0 -0.16950061719E+03 -0.57077640018E+02 -0.14753887627E+03  0.46233757821E+03  0.40000000000E+03 0.  1.
   -9000007    1    1    2    0  501  0.16950061719E+03  0.57077640018E+02 -0.15969435801E+03  0.46635887919E+03  0.40000000000E+03 0.  1.
<mgrwt>
<rscale>  2 0.43816471E+03</rscale>
<asrwt>0</asrwt>
<pdfrwt beam="1">  1        1 0.95071513E-01 0.43816471E+03</pdfrwt>
<pdfrwt beam="2">  1       -1 0.47804864E-01 0.43816471E+03</pdfrwt>
<totfact> 0.14922067E+02</totfact>
</mgrwt>
</event>
<event>
 4    1  0.2338029E-002  0.4064386E+03  0.7818608E-02  0.1041573E+00
          1   -1    0    0  502    0  0.00000000000E+00  0.00000000000E+00  0.11145289983E+04  0.11145289983E+04  0.00000000000E+00 0.  1.
         -1   -1    0    0    0  501 -0.00000000000E+00 -0.00000000000E+00 -0.14962497731E+03  0.14962497731E+03  0.00000000000E+00 0. -1.
    9000007    1    1    2  502    0 -0.19056233002E+02 -0.69492350968E+02  0.54376331117E+03  0.67887470525E+03  0.40000000000E+03 0.  1.
   -9000007    1    1    2    0  501  0.19056233002E+02  0.69492350968E+02  0.42114070985E+03  0.58527927040E+03  0.40000000000E+03 0. -1.
<mgrwt>
<rscale>  2 0.40643859E+03</rscale>
<asrwt>0</asrwt>
<pdfrwt beam="1">  1        1 0.17146599E+00 0.40643859E+03</pdfrwt>
<pdfrwt beam="2">  1       -1 0.23019228E-01 0.40643859E+03</pdfrwt>
<totfact> 0.20833159E+02</totfact>
</mgrwt>
</event>
<event>
 4    1  0.2338029E-002  0.4107849E+03  0.7818608E-02  0.1040108E+00
         -3   -1    0    0    0  501 -0.00000000000E+00  0.00000000000E+00  0.25384746603E+03  0.25384746603E+03  0.00000000000E+00 0. -1.
          3   -1    0    0  502    0  0.00000000000E+00 -0.00000000000E+00 -0.73236215876E+03  0.73236215876E+03  0.00000000000E+00 0.  1.
    9000007    1    1    2  502    0 -0.78854650277E+02 -0.50261198819E+02 -0.89427076159E+02  0.42040628674E+03  0.40000000000E+03 0. -1.
   -9000007    1    1    2    0  501  0.78854650277E+02  0.50261198819E+02 -0.38908761657E+03  0.56580333805E+03  0.40000000000E+03 0. -1.
<mgrwt>
<rscale>  2 0.41078491E+03</rscale>
<asrwt>0</asrwt>
<pdfrwt beam="1">  1        3 0.11267110E+00 0.41078491E+03</pdfrwt>
<pdfrwt beam="2">  1       -3 0.39053457E-01 0.41078491E+03</pdfrwt>
<totfact> 0.11187790E+01</totfact>
</mgrwt>
</event>
<event>
 4    1  0.2338029E-002  0.4280721E+03  0.7818608E-02  0.1034471E+00
          1   -1    0    0  502    0  0.00000000000E+00  0.00000000000E+00  0.75857790081E+03  0.75857790081E+03  0.00000000000E+00 0.  1.
         -1   -1    0    0    0  501 -0.00000000000E+00 -0.00000000000E+00 -0.29804474818E+03  0.29804474818E+03  0.00000000000E+00 0. -1.
    9000007    1    1    2  502    0 -0.10090649690E+03  0.11429623058E+03  0.28334415128E+00  0.42807222489E+03  0.40000000000E+03 0. -1.
   -9000007    1    1    2    0  501  0.10090649690E+03 -0.11429623058E+03  0.46024980848E+03  0.62855042411E+03  0.40000000000E+03 0.  1.
<mgrwt>
<rscale>  2 0.42807213E+03</rscale>
<asrwt>0</asrwt>
<pdfrwt beam="1">  1        1 0.11670429E+00 0.42807213E+03</pdfrwt>
<pdfrwt beam="2">  1       -1 0.45853039E-01 0.42807213E+03</pdfrwt>
<totfact> 0.11919674E+02</totfact>
</mgrwt>
</event>
<event>
 4    1  0.2338029E-002  0.4824760E+03  0.7818608E-02  0.1018457E+00
         -1   -1    0    0    0  501 -0.00000000000E+00  0.00000000000E+00  0.83648554836E+03  0.83648554836E+03  0.00000000000E+00 0.  1.
          1   -1    0    0  502    0  0.00000000000E+00 -0.00000000000E+00 -0.36622249030E+03  0.36622249030E+03  0.00000000000E+00 0. -1.
    9000007    1    1    2  502    0 -0.21199718584E+03  0.16685412673E+03  0.52980405890E+03  0.71657201120E+03  0.40000000000E+03 0.  1.
   -9000007    1    1    2    0  501  0.21199718584E+03 -0.16685412673E+03 -0.59541000840E+02  0.48613602746E+03  0.40000000000E+03 0. -1.
<mgrwt>
<rscale>  2 0.48247602E+03</rscale>
<asrwt>0</asrwt>
<pdfrwt beam="1">  1        1 0.56341922E-01 0.48247602E+03</pdfrwt>
<pdfrwt beam="2">  1       -1 0.12869008E+00 0.48247602E+03</pdfrwt>
<totfact> 0.36943379E+01</totfact>
</mgrwt>
</event>
<event>
 4    1  0.2338029E-002  0.4054864E+03  0.7818608E-02  0.1041896E+00
          2   -1    0    0  502    0  0.00000000000E+00  0.00000000000E+00  0.18105272955E+04  0.18105272955E+04  0.00000000000E+00 0. -1.
         -2   -1    0    0    0  501 -0.00000000000E+00 -0.00000000000E+00 -0.10580632525E+03  0.10580632525E+03  0.00000000000E+00 0.  1.
    9000007    1    1    2  502    0  0.55729350176E+02  0.36241883321E+02  0.49166912923E+03  0.63730508174E+03  0.40000000000E+03 0.  1.
   -9000007    1    1    2    0  501 -0.55729350176E+02 -0.36241883321E+02  0.12130518410E+04  0.12790285390E+04  0.40000000000E+03 0. -1.
<mgrwt>
<rscale>  2 0.40548642E+03</rscale>
<asrwt>0</asrwt>
<pdfrwt beam="1">  1        2 0.27854264E+00 0.40548642E+03</pdfrwt>
<pdfrwt beam="2">  1       -2 0.16277898E-01 0.40548642E+03</pdfrwt>
<totfact> 0.27409515E+02</totfact>
</mgrwt>
</event>
<event>
 4    1  0.2338029E-002  0.5522674E+03  0.7818608E-02  0.1000970E+00
         -1   -1    0    0    0  501 -0.00000000000E+00  0.00000000000E+00  0.30598339039E+03  0.30598339039E+03  0.00000000000E+00 0. -1.
          1   -1    0    0  502    0  0.00000000000E+00 -0.00000000000E+00 -0.10482177082E+04  0.10482177082E+04  0.00000000000E+00 0.  1.
    9000007    1    1    2  502    0  0.28038192322E+03  0.25765346743E+03 -0.22113087179E+03  0.59489343130E+03  0.40000000000E+03 0. -1.
   -9000007    1    1    2    0  501 -0.28038192322E+03 -0.25765346743E+03 -0.52110344603E+03  0.75930766729E+03  0.40000000000E+03 0. -1.
<mgrwt>
<rscale>  2 0.55226745E+03</rscale>
<asrwt>0</asrwt>
<pdfrwt beam="1">  1        1 0.16126426E+00 0.55226745E+03</pdfrwt>
<pdfrwt beam="2">  1       -1 0.47074368E-01 0.55226745E+03</pdfrwt>
<totfact> 0.65275221E+01</totfact>
</mgrwt>
</event>
<event>
 4    1  0.2338029E-002  0.5249282E+03  0.7818608E-02  0.1007470E+00
          1   -1    0    0  502    0  0.00000000000E+00  0.00000000000E+00  0.20636194808E+04  0.20636194808E+04  0.00000000000E+00 0.  1.
         -1   -1    0    0    0  501 -0.00000000000E+00 -0.00000000000E+00 -0.13667530708E+03  0.13667530708E+03  0.00000000000E+00 0. -1.
    9000007    1    1    2  502    0  0.11175351475E+03  0.32103081886E+03  0.11304351661E+04  0.12463680434E+04  0.40000000000E+03 0. -1.
   -9000007    1    1    2    0  501 -0.11175351475E+03 -0.32103081886E+03  0.79650900759E+03  0.95392674451E+03  0.40000000000E+03 0. -1.
<mgrwt>
<rscale>  2 0.52492822E+03</rscale>
<asrwt>0</asrwt>
<pdfrwt beam="1">  1        1 0.31747990E+00 0.52492822E+03</pdfrwt>
<pdfrwt beam="2">  1       -1 0.21026972E-01 0.52492822E+03</pdfrwt>
<totfact> 0.54125660E+01</totfact>
</mgrwt>
</event>
<event>
 4    1  0.2338029E-002  0.4728513E+03  0.7818608E-02  0.1021119E+00
          2   -1    0    0  502    0  0.00000000000E+00  0.00000000000E+00  0.88163203632E+03  0.88163203632E+03  0.00000000000E+00 0.  1.
         -2   -1    0    0    0  501 -0.00000000000E+00 -0.00000000000E+00 -0.30992509957E+03  0.30992509957E+03  0.00000000000E+00 0. -1.
    9000007    1    1    2  502    0 -0.16661720536E+03  0.18928049571E+03  0.31885470312E+02  0.47392518650E+03  0.40000000000E+03 0. -1.
   -9000007    1    1    2    0  501  0.16661720536E+03 -0.18928049571E+03  0.53982146644E+03  0.71763194940E+03  0.40000000000E+03 0.  1.
<mgrwt>
<rscale>  2 0.47285135E+03</rscale>
<asrwt>0</asrwt>
<pdfrwt beam="1">  1        2 0.13563570E+00 0.47285135E+03</pdfrwt>
<pdfrwt beam="2">  1       -2 0.47680785E-01 0.47285135E+03</pdfrwt>
<totfact> 0.13010606E+02</totfact>
</mgrwt>
</event>
<event>
 4    1  0.2338029E-002  0.7108764E+03  0.7818608E-02  0.9698811E-01
          2   -1    0    0  502    0  0.00000000000E+00  0.00000000000E+00  0.15803118244E+04  0.15803118244E+04  0.00000000000E+00 0.  1.
         -2   -1    0    0    0  501 -0.00000000000E+00 -0.00000000000E+00 -0.36706534336E+03  0.36706534336E+03  0.00000000000E+00 0. -1.
    9000007    1    1    2  502    0 -0.58564379233E+03 -0.48647941521E+02  0.95611065462E+03  0.11914247175E+04  0.40000000000E+03 0.  1.
   -9000007    1    1    2    0  501  0.58564379233E+03  0.48647941521E+02  0.25713582637E+03  0.75595245017E+03  0.40000000000E+03 0. -1.
<mgrwt>
<rscale>  2 0.71087641E+03</rscale>
<asrwt>0</asrwt>
<pdfrwt beam="1">  1        2 0.24312489E+00 0.71087641E+03</pdfrwt>
<pdfrwt beam="2">  1       -2 0.56471592E-01 0.71087641E+03</pdfrwt>
<totfact> 0.34630996E+01</totfact>
</mgrwt>
</event>
<event>
 4    1  0.2338029E-002  0.7024499E+03  0.7818608E-02  0.9713052E-01
          1   -1    0    0  502    0  0.00000000000E+00  0.00000000000E+00  0.37998820587E+03  0.37998820587E+03  0.00000000000E+00 0.  1.
         -1   -1    0    0    0  501 -0.00000000000E+00 -0.00000000000E+00 -0.14372175335E+04  0.14372175335E+04  0.00000000000E+00 0. -1.
    9000007    1    1    2  502    0 -0.52167509830E+03  0.24756998210E+03 -0.81083708377E+03  0.10727966166E+04  0.40000000000E+03 0. -1.
   -9000007    1    1    2    0  501  0.52167509830E+03 -0.24756998210E+03 -0.24639224389E+03  0.74440912278E+03  0.40000000000E+03 0.  1.
<mgrwt>
<rscale>  2 0.70244986E+03</rscale>
<asrwt>0</asrwt>
<pdfrwt beam="1">  1        1 0.58459725E-01 0.70244986E+03</pdfrwt>
<pdfrwt beam="2">  1       -1 0.22111039E+00 0.70244986E+03</pdfrwt>
<totfact> 0.72376491E+00</totfact>
</mgrwt>
</event>
<event>
 4    1  0.2338029E-002  0.4704416E+03  0.7818608E-02  0.1021796E+00
          2   -1    0    0  502    0  0.00000000000E+00  0.00000000000E+00  0.41325111714E+04  0.41325111714E+04  0.00000000000E+00 0. -1.
         -2   -1    0    0    0  501 -0.00000000000E+00 -0.00000000000E+00 -0.53598764248E+02  0.53598764248E+02  0.00000000000E+00 0.  1.
    9000007    1    1    2  502    0 -0.11856300354E+03 -0.21738939115E+03  0.20994797083E+04  0.21515413960E+04  0.40000000000E+03 0. -1.
   -9000007    1    1    2    0  501  0.11856300354E+03  0.21738939115E+03  0.19794326989E+04  0.20345685397E+04  0.40000000000E+03 0.  1.
<mgrwt>
<rscale>  2 0.47044164E+03</rscale>
<asrwt>0</asrwt>
<pdfrwt beam="1">  1        2 0.63577070E+00 0.47044164E+03</pdfrwt>
<pdfrwt beam="2">  1       -2 0.82459670E-02 0.47044164E+03</pdfrwt>
<totfact> 0.29435972E+01</totfact>
</mgrwt>
</event>
<event>
 4    1  0.2338029E-002  0.4527612E+03  0.7818608E-02  0.1026902E+00
          2   -1    0    0  502    0  0.00000000000E+00  0.00000000000E+00  0.68000506513E+03  0.68000506513E+03  0.00000000000E+00 0. -1.
         -2   -1    0    0    0  501 -0.00000000000E+00 -0.00000000000E+00 -0.31711805990E+03  0.31711805990E+03  0.00000000000E+00 0.  1.
    9000007    1    1    2  502    0 -0.12135989971E+03 -0.17396683225E+03  0.70650895053E+02  0.45824036591E+03  0.40000000000E+03 0.  1.
   -9000007    1    1    2    0  501  0.12135989971E+03  0.17396683225E+03  0.29223611018E+03  0.53888275912E+03  0.40000000000E+03 0. -1.
<mgrwt>
<rscale>  2 0.45276118E+03</rscale>
<asrwt>0</asrwt>
<pdfrwt beam="1">  1        2 0.10461616E+00 0.45276118E+03</pdfrwt>
<pdfrwt beam="2">  1       -2 0.48787394E-01 0.45276118E+03</pdfrwt>
<totfact> 0.17401297E+02</totfact>
</mgrwt>
</event>
<event>
 4    1  0.2338029E-002  0.4091072E+03  0.7818608E-02  0.1040671E+00
         -2   -1    0    0    0  501 -0.00000000000E+00  0.00000000000E+00  0.96596162608E+02  0.96596162608E+02  0.00000000000E+00 0. -1.
          2   -1    0    0  502    0  0.00000000000E+00 -0.00000000000E+00 -0.17435216796E+04  0.17435216796E+04  0.00000000000E+00 0.  1.
    9000007    1    1    2  502    0 -0.84756830516E+02 -0.13600698420E+02 -0.75085730065E+03  0.85507624529E+03  0.40000000000E+03 0.  1.
   -9000007    1    1    2    0  501  0.84756830516E+02  0.13600698420E+02 -0.89606821629E+03  0.98504159687E+03  0.40000000000E+03 0. -1.
<mgrwt>
<rscale>  2 0.40910720E+03</rscale>
<asrwt>0</asrwt>
<pdfrwt beam="1">  1        2 0.26823409E+00 0.40910720E+03</pdfrwt>
<pdfrwt beam="2">  1       -2 0.14860949E-01 0.40910720E+03</pdfrwt>
<totfact> 0.34666228E+02</totfact>
</mgrwt>
</event>
<event>
 4    1  0.2338029E-002  0.4148570E+03  0.7818608E-02  0.1038753E+00
         -1   -1    0    0    0  501 -0.00000000000E+00  0.00000000000E+00  0.71097483868E+03  0.71097483868E+03  0.00000000000E+00 0.  1.
          1   -1    0    0  502    0  0.00000000000E+00 -0.00000000000E+00 -0.24323302370E+03  0.24323302370E+03  0.00000000000E+00 0. -1.
    9000007    1    1    2  502    0 -0.18340929182E+01  0.11001339383E+03  0.20089246795E+03  0.46093827612E+03  0.40000000000E+03 0.  1.
   -9000007    1    1    2    0  501  0.18340929182E+01 -0.11001339383E+03  0.26684934703E+03  0.49326958626E+03  0.40000000000E+03 0. -1.
<mgrwt>
<rscale>  2 0.41485698E+03</rscale>
<asrwt>0</asrwt>
<pdfrwt beam="1">  1        1 0.37420465E-01 0.41485698E+03</pdfrwt>
<pdfrwt beam="2">  1       -1 0.10938074E+00 0.41485698E+03</pdfrwt>
<totfact> 0.93086287E+01</totfact>
</mgrwt>
</event>
<event>
 4    1  0.2338029E-002  0.4307303E+03  0.7818608E-02  0.1033630E+00
         -2   -1    0    0    0  501 -0.00000000000E+00  0.00000000000E+00  0.35457972007E+03  0.35457972007E+03  0.00000000000E+00 0. -1.
          2   -1    0    0  502    0  0.00000000000E+00 -0.00000000000E+00 -0.52445041561E+03  0.52445041561E+03  0.00000000000E+00 0.  1.
    9000007    1    1    2  502    0  0.63269563718E+02 -0.14671587026E+03 -0.10609222087E+03  0.44360358836E+03  0.40000000000E+03 0.  1.
   -9000007    1    1    2    0  501 -0.63269563718E+02  0.14671587026E+03 -0.63778474662E+02  0.43542654732E+03  0.40000000000E+03 0.  1.
<mgrwt>
<rscale>  2 0.43073029E+03</rscale>
<asrwt>0</asrwt>
<pdfrwt beam="1">  1        2 0.80684679E-01 0.43073029E+03</pdfrwt>
<pdfrwt beam="2">  1       -2 0.54550726E-01 0.43073029E+03</pdfrwt>
<totfact> 0.18913370E+02</totfact>
</mgrwt>
</event>
<event>
 4    1  0.2338029E-002  0.4119590E+03  0.7818608E-02  0.1039716E+00
          2   -1    0    0  502    0  0.00000000000E+00  0.00000000000E+00  0.35060707211E+03  0.35060707211E+03  0.00000000000E+00 0. -1.
         -2   -1    0    0    0  501 -0.00000000000E+00 -0.00000000000E+00 -0.52555904824E+03  0.52555904824E+03  0.00000000000E+00 0.  1.
    9000007    1    1    2  502    0  0.62891782881E+02  0.75860577891E+02  0.35645609427E+02  0.41349826252E+03  0.40000000000E+03 0. -1.
   -9000007    1    1    2    0  501 -0.62891782881E+02 -0.75860577891E+02 -0.21059758555E+03  0.46266785783E+03  0.40000000000E+03 0.  1.
<mgrwt>
<rscale>  2 0.41195898E+03</rscale>
<asrwt>0</asrwt>
<pdfrwt beam="1">  1        2 0.53939550E-01 0.41195898E+03</pdfrwt>
<pdfrwt beam="2">  1       -2 0.80855237E-01 0.41195898E+03</pdfrwt>
<totfact> 0.12800598E+02</totfact>
</mgrwt>
</event>
<event>
 4    1  0.2338029E-002  0.5098199E+03  0.7818608E-02  0.1011247E+00
         -3   -1    0    0    0  501 -0.00000000000E+00  0.00000000000E+00  0.43399707647E+03  0.43399707647E+03  0.00000000000E+00 0. -1.
          3   -1    0    0  502    0  0.00000000000E+00 -0.00000000000E+00 -0.79331213076E+03  0.79331213076E+03  0.00000000000E+00 0.  1.
    9000007    1    1    2  502    0 -0.13033597653E+03 -0.28797371693E+03 -0.48344877883E+03  0.70259451333E+03  0.40000000000E+03 0.  1.
   -9000007    1    1    2    0  501  0.13033597653E+03  0.28797371693E+03  0.12413372453E+03  0.52471469389E+03  0.40000000000E+03 0. -1.
<mgrwt>
<rscale>  2 0.50981990E+03</rscale>
<asrwt>0</asrwt>
<pdfrwt beam="1">  1        3 0.12204802E+00 0.50981990E+03</pdfrwt>
<pdfrwt beam="2">  1       -3 0.66768782E-01 0.50981990E+03</pdfrwt>
<totfact> 0.30750783E+00</totfact>
</mgrwt>
</event>
<event>
 4    1  0.2338029E-002  0.4455941E+03  0.7818608E-02  0.1029044E+00
          2   -1    0    0  502    0  0.00000000000E+00  0.00000000000E+00  0.31894798170E+04  0.31894798170E+04  0.00000000000E+00 0.  1.
         -2   -1    0    0    0  501 -0.00000000000E+00 -0.00000000000E+00 -0.86173478627E+02  0.86173478627E+02  0.00000000000E+00 0. -1.
    9000007    1    1    2  502    0 -0.73284253201E+02 -0.18216337925E+03  0.24145677059E+04  0.24553393421E+04  0.40000000000E+03 0.  1.
   -9000007    1    1    2    0  501  0.73284253201E+02  0.18216337925E+03  0.68873863256E+03  0.82031395361E+03  0.40000000000E+03 0. -1.
<mgrwt>
<rscale>  2 0.44559407E+03</rscale>
<asrwt>0</asrwt>
<pdfrwt beam="1">  1        2 0.49068911E+00 0.44559407E+03</pdfrwt>
<pdfrwt beam="2">  1       -2 0.13257461E-01 0.44559407E+03</pdfrwt>
<totfact> 0.63889038E+01</totfact>
</mgrwt>
</event>
<event>
 4    1  0.2338029E-002  0.5576405E+03  0.7818608E-02  0.9997408E-01
         -1   -1    0    0    0  501 -0.00000000000E+00  0.00000000000E+00  0.26364430130E+04  0.26364430130E+04  0.00000000000E+00 0. -1.
          1   -1    0    0  502    0  0.00000000000E+00 -0.00000000000E+00 -0.12426849022E+03  0.12426849022E+03  0.00000000000E+00 0.  1.
    9000007    1    1    2  502    0 -0.28648307392E+03  0.26246971682E+03  0.15673947045E+04  0.16636372993E+04  0.40000000000E+03 0. -1.
   -9000007    1    1    2    0  501  0.28648307392E+03 -0.26246971682E+03  0.94477981828E+03  0.10970742039E+04  0.40000000000E+03 0.  1.
<mgrwt>
<rscale>  2 0.55764048E+03</rscale>
<asrwt>0</asrwt>
<pdfrwt beam="1">  1        1 0.19118231E-01 0.55764048E+03</pdfrwt>
<pdfrwt beam="2">  1       -1 0.40560658E+00 0.55764048E+03</pdfrwt>
<totfact> 0.20083244E+00</totfact>
</mgrwt>
</event>
<event>
 4    1  0.2338029E-002  0.7203546E+03  0.7818608E-02  0.9683043E-01
         -1   -1    0    0    0  501 -0.00000000000E+00  0.00000000000E+00  0.13137125799E+04  0.13137125799E+04  0.00000000000E+00 0. -1.
          1   -1    0    0  502    0  0.00000000000E+00 -0.00000000000E+00 -0.40950372555E+03  0.40950372555E+03  0.00000000000E+00 0.  1.
    9000007    1    1    2  502    0  0.55558849777E+03  0.22412545569E+03  0.28992891799E+03  0.77651115654E+03  0.40000000000E+03 0.  1.
   -9000007    1    1    2    0  501 -0.55558849777E+03 -0.22412545569E+03  0.61427993634E+03  0.94670514889E+03  0.40000000000E+03 0. -1.
<mgrwt>
<rscale>  2 0.72035463E+03</rscale>
<asrwt>0</asrwt>
<pdfrwt beam="1">  1        1 0.63000574E-01 0.72035463E+03</pdfrwt>
<pdfrwt beam="2">  1       -1 0.20210963E+00 0.72035463E+03</pdfrwt>
<totfact> 0.87701861E+00</totfact>
</mgrwt>
</event>
<event>
 4    1  0.2338029E-002  0.5587466E+03  0.7818608E-02  0.9994895E-01
          2   -1    0    0  502    0  0.00000000000E+00  0.00000000000E+00  0.85251461044E+03  0.85251461044E+03  0.00000000000E+00 0. -1.
         -2   -1    0    0    0  501 -0.00000000000E+00 -0.00000000000E+00 -0.36996796033E+03  0.36996796033E+03  0.00000000000E+00 0.  1.
    9000007    1    1    2  502    0 -0.79396220347E+02  0.38196077600E+03  0.30289221506E+03  0.63556391350E+03  0.40000000000E+03 0. -1.
   -9000007    1    1    2    0  501  0.79396220347E+02 -0.38196077600E+03  0.17965443505E+03  0.58691865726E+03  0.40000000000E+03 0.  1.
<mgrwt>
<rscale>  2 0.55874663E+03</rscale>
<asrwt>0</asrwt>
<pdfrwt beam="1">  1        2 0.13115609E+00 0.55874663E+03</pdfrwt>
<pdfrwt beam="2">  1       -2 0.56918148E-01 0.55874663E+03</pdfrwt>
<totfact> 0.94082348E+01</totfact>
</mgrwt>
</event>
<event>
 4    1  0.2338029E-002  0.4256027E+03  0.7818608E-02  0.1035258E+00
         -2   -1    0    0    0  501 -0.00000000000E+00  0.00000000000E+00  0.73053437413E+02  0.73053437413E+02  0.00000000000E+00 0. -1.
          2   -1    0    0  502    0  0.00000000000E+00 -0.00000000000E+00 -0.24798561333E+04  0.24798561333E+04  0.00000000000E+00 0.  1.
    9000007    1    1    2  502    0 -0.43618723615E+02  0.13869052095E+03 -0.11885993266E+04  0.12624999061E+04  0.40000000000E+03 0. -1.
   -9000007    1    1    2    0  501  0.43618723615E+02 -0.13869052095E+03 -0.12182033693E+04  0.12904096646E+04  0.40000000000E+03 0. -1.
<mgrwt>
<rscale>  2 0.42560269E+03</rscale>
<asrwt>0</asrwt>
<pdfrwt beam="1">  1        2 0.38151632E+00 0.42560269E+03</pdfrwt>
<pdfrwt beam="2">  1       -2 0.11238991E-01 0.42560269E+03</pdfrwt>
<totfact> 0.21935868E+02</totfact>
</mgrwt>
</event>
<event>
 4    1  0.2338029E-002  0.4140276E+03  0.7818608E-02  0.1039028E+00
          2   -1    0    0  502    0  0.00000000000E+00  0.00000000000E+00  0.54102420350E+03  0.54102420350E+03  0.00000000000E+00 0.  1.
         -2   -1    0    0    0  501 -0.00000000000E+00 -0.00000000000E+00 -0.31791979419E+03  0.31791979419E+03  0.00000000000E+00 0. -1.
    9000007    1    1    2  502    0  0.74743444372E+02 -0.76369410742E+02  0.13656507949E+03  0.43596890980E+03  0.40000000000E+03 0.  1.
   -9000007    1    1    2    0  501 -0.74743444372E+02  0.76369410742E+02  0.86539329820E+02  0.42297508789E+03  0.40000000000E+03 0. -1.
<mgrwt>
<rscale>  2 0.41402762E+03</rscale>
<asrwt>0</asrwt>
<pdfrwt beam="1">  1        2 0.83234493E-01 0.41402762E+03</pdfrwt>
<pdfrwt beam="2">  1       -2 0.48910738E-01 0.41402762E+03</pdfrwt>
<totfact> 0.22798334E+02</totfact>
</mgrwt>
</event>
<event>
 4    1  0.2338029E-002  0.6241471E+03  0.7818608E-02  0.9856537E-01
         -2   -1    0    0    0  501 -0.00000000000E+00  0.00000000000E+00  0.19131933584E+03  0.19131933584E+03  0.00000000000E+00 0. -1.
          2   -1    0    0  502    0  0.00000000000E+00 -0.00000000000E+00 -0.21009252001E+04  0.21009252001E+04  0.00000000000E+00 0.  1.
    9000007    1    1    2  502    0 -0.89907359707E+02 -0.47061268541E+03 -0.11560115080E+04  0.13137435973E+04  0.40000000000E+03 0.  1.
   -9000007    1    1    2    0  501  0.89907359707E+02  0.47061268541E+03 -0.75359435627E+03  0.97850093858E+03  0.40000000000E+03 0. -1.
<mgrwt>
<rscale>  2 0.62414712E+03</rscale>
<asrwt>0</asrwt>
<pdfrwt beam="1">  1        2 0.32321928E+00 0.62414712E+03</pdfrwt>
<pdfrwt beam="2">  1       -2 0.29433742E-01 0.62414712E+03</pdfrwt>
<totfact> 0.65285635E+01</totfact>
</mgrwt>
</event>
<event>
 4    1  0.2338029E-002  0.6555250E+03  0.7818608E-02  0.9796467E-01
          1   -1    0    0  502    0  0.00000000000E+00  0.00000000000E+00  0.59385181118E+03  0.59385181118E+03  0.00000000000E+00 0.  1.
         -1   -1    0    0    0  501 -0.00000000000E+00 -0.00000000000E+00 -0.73135922173E+03  0.73135922173E+03  0.00000000000E+00 0. -1.
    9000007    1    1    2  502    0  0.49691579659E+03 -0.15095582206E+03 -0.13698977174E+03  0.66968587164E+03  0.40000000000E+03 0.  1.
   -9000007    1    1    2    0  501 -0.49691579659E+03  0.15095582206E+03 -0.51763881798E+00  0.65552516127E+03  0.40000000000E+03 0. -1.
<mgrwt>
<rscale>  2 0.65552496E+03</rscale>
<asrwt>0</asrwt>
<pdfrwt beam="1">  1        1 0.91361818E-01 0.65552496E+03</pdfrwt>
<pdfrwt beam="2">  1       -1 0.11251680E+00 0.65552496E+03</pdfrwt>
<totfact> 0.26042697E+01</totfact>
</mgrwt>
</event>
<event>
 4    1  0.2338029E-002  0.4370606E+03  0.7818608E-02  0.1031653E+00
          3   -1    0    0  502    0  0.00000000000E+00  0.00000000000E+00  0.35516264189E+03  0.35516264189E+03  0.00000000000E+00 0.  1.
         -3   -1    0    0    0  501 -0.00000000000E+00 -0.00000000000E+00 -0.53800489917E+03  0.53800489917E+03  0.00000000000E+00 0. -1.
    9000007    1    1    2  502    0 -0.21164190174E+02  0.17485431494E+03 -0.83688556316E+02  0.44500081894E+03  0.40000000000E+03 0.  1.
   -9000007    1    1    2    0  501  0.21164190174E+02 -0.17485431494E+03 -0.99153700959E+02  0.44816672212E+03  0.40000000000E+03 0. -1.
<mgrwt>
<rscale>  2 0.43706058E+03</rscale>
<asrwt>0</asrwt>
<pdfrwt beam="1">  1        3 0.54640407E-01 0.43706058E+03</pdfrwt>
<pdfrwt beam="2">  1       -3 0.82769984E-01 0.43706058E+03</pdfrwt>
<totfact> 0.11582046E+01</totfact>
</mgrwt>
</event>
<event>
 4    1  0.2338029E-002  0.4046356E+03  0.7818608E-02  0.1042186E+00
          2   -1    0    0  502    0  0.00000000000E+00  0.00000000000E+00  0.10972057474E+04  0.10972057474E+04  0.00000000000E+00 0.  1.
         -2   -1    0    0    0  501 -0.00000000000E+00 -0.00000000000E+00 -0.23779204568E+03  0.23779204568E+03  0.00000000000E+00 0. -1.
    9000007    1    1    2  502    0  0.39494657012E+02  0.46584637906E+02  0.83707704138E+03  0.92974616408E+03  0.40000000000E+03 0.  1.
   -9000007    1    1    2    0  501 -0.39494657012E+02 -0.46584637906E+02  0.22336660365E+02  0.40525162901E+03  0.40000000000E+03 0. -1.
<mgrwt>
<rscale>  2 0.40463558E+03</rscale>
<asrwt>0</asrwt>
<pdfrwt beam="1">  1        2 0.16880088E+00 0.40463558E+03</pdfrwt>
<pdfrwt beam="2">  1       -2 0.36583392E-01 0.40463558E+03</pdfrwt>
<totfact> 0.16063916E+02</totfact>
</mgrwt>
</event>
<event>
 4    1  0.2338029E-002  0.1420520E+04  0.7818608E-02  0.8939098E-01
          2   -1    0    0  502    0  0.00000000000E+00  0.00000000000E+00  0.11029856435E+04  0.11029856435E+04  0.00000000000E+00 0. -1.
         -2   -1    0    0    0  501 -0.00000000000E+00 -0.00000000000E+00 -0.18330078479E+04  0.18330078479E+04  0.00000000000E+00 0.  1.
    9000007    1    1    2  502    0  0.10202426905E+04  0.90386979623E+03 -0.30049011245E+03  0.14519538780E+04  0.40000000000E+03 0.  1.
   -9000007    1    1    2    0  501 -0.10202426905E+04 -0.90386979623E+03 -0.42953209193E+03  0.14840396134E+04  0.40000000000E+03 0. -1.
<mgrwt>
<rscale>  2 0.14205195E+04</rscale>
<asrwt>0</asrwt>
<pdfrwt beam="1">  1        2 0.16969010E+00 0.14205195E+04</pdfrwt>
<pdfrwt beam="2">  1       -2 0.28200120E+00 0.14205195E+04</pdfrwt>
<totfact> 0.84648999E-01</totfact>
</mgrwt>
</event>
<event>
 4    1  0.2338029E-002  0.5791366E+03  0.7818608E-02  0.9949662E-01
          2   -1    0    0  502    0  0.00000000000E+00  0.00000000000E+00  0.11836471133E+04  0.11836471133E+04  0.00000000000E+00 0.  1.
         -2   -1    0    0    0  501 -0.00000000000E+00 -0.00000000000E+00 -0.28419433423E+03  0.28419433423E+03  0.00000000000E+00 0. -1.
    9000007    1    1    2  502    0 -0.39689914707E+03  0.13367993356E+03  0.48947197866E+03  0.75827572523E+03  0.40000000000E+03 0.  1.
   -9000007    1    1    2    0  501  0.39689914707E+03 -0.13367993356E+03  0.40998080046E+03  0.70956572235E+03  0.40000000000E+03 0. -1.
<mgrwt>
<rscale>  2 0.57913665E+03</rscale>
<asrwt>0</asrwt>
<pdfrwt beam="1">  1        2 0.18209955E+00 0.57913665E+03</pdfrwt>
<pdfrwt beam="2">  1       -2 0.43722206E-01 0.57913665E+03</pdfrwt>
<totfact> 0.99085487E+01</totfact>
</mgrwt>
</event>
<event>
 4    1  0.2338029E-002  0.4080753E+03  0.7818608E-02  0.1041019E+00
         -2   -1    0    0    0  501 -0.00000000000E+00  0.00000000000E+00  0.67700733495E+02  0.67700733495E+02  0.00000000000E+00 0. -1.
          2   -1    0    0  502    0  0.00000000000E+00 -0.00000000000E+00 -0.25095689829E+04  0.25095689829E+04  0.00000000000E+00 0.  1.
    9000007    1    1    2  502    0  0.77045797712E+02  0.24277391151E+02 -0.14025358398E+04  0.14606958029E+04  0.40000000000E+03 0.  1.
   -9000007    1    1    2    0  501 -0.77045797712E+02 -0.24277391151E+02 -0.10393324097E+04  0.11165739136E+04  0.40000000000E+03 0.  1.
<mgrwt>
<rscale>  2 0.40807530E+03</rscale>
<asrwt>0</asrwt>
<pdfrwt beam="1">  1        2 0.38608756E+00 0.40807530E+03</pdfrwt>
<pdfrwt beam="2">  1       -2 0.10415497E-01 0.40807530E+03</pdfrwt>
<totfact> 0.23963053E+02</totfact>
</mgrwt>
</event>
<event>
 4    1  0.2338029E-002  0.4120568E+03  0.7818608E-02  0.1039683E+00
         -2   -1    0    0    0  501 -0.00000000000E+00  0.00000000000E+00  0.85220541784E+02  0.85220541784E+02  0.00000000000E+00 0.  1.
          2   -1    0    0  502    0  0.00000000000E+00 -0.00000000000E+00 -0.19923754858E+04  0.19923754858E+04  0.00000000000E+00 0. -1.
    9000007    1    1    2  502    0 -0.98929319666E+02 -0.19577634131E+01 -0.95531534129E+03  0.10403933124E+04  0.40000000000E+03 0.  1.
   -9000007    1    1    2    0  501  0.98929319666E+02  0.19577634131E+01 -0.95183960275E+03  0.10372027152E+04  0.40000000000E+03 0.  1.
<mgrwt>
<rscale>  2 0.41205684E+03</rscale>
<asrwt>0</asrwt>
<pdfrwt beam="1">  1        2 0.30651932E+00 0.41205684E+03</pdfrwt>
<pdfrwt beam="2">  1       -2 0.13110852E-01 0.41205684E+03</pdfrwt>
<totfact> 0.31420373E+02</totfact>
</mgrwt>
</event>
<event>
 4    1  0.2338029E-002  0.5357731E+03  0.7818608E-02  0.1004842E+00
          2   -1    0    0  502    0  0.00000000000E+00  0.00000000000E+00  0.20123968815E+04  0.20123968815E+04  0.00000000000E+00 0.  1.
         -2   -1    0    0    0  501 -0.00000000000E+00 -0.00000000000E+00 -0.16531829082E+03  0.16531829082E+03  0.00000000000E+00 0. -1.
    9000007    1    1    2  502    0  0.22453189833E+03  0.27683614484E+03  0.52027087190E+03  0.74681631249E+03  0.40000000000E+03 0. -1.
   -9000007    1    1    2    0  501 -0.22453189833E+03 -0.27683614484E+03  0.13268077187E+04  0.14308988598E+04  0.40000000000E+03 0.  1.
<mgrwt>
<rscale>  2 0.53577311E+03</rscale>
<asrwt>0</asrwt>
<pdfrwt beam="1">  1        2 0.30959950E+00 0.53577311E+03</pdfrwt>
<pdfrwt beam="2">  1       -2 0.25433585E-01 0.53577311E+03</pdfrwt>
<totfact> 0.96376276E+01</totfact>
</mgrwt>
</event>
<event>
 4    1  0.2338029E-002  0.4173939E+03  0.7818608E-02  0.1037918E+00
         -1   -1    0    0    0  501 -0.00000000000E+00  0.00000000000E+00  0.17965108486E+03  0.17965108486E+03  0.00000000000E+00 0. -1.
          1   -1    0    0  502    0  0.00000000000E+00 -0.00000000000E+00 -0.96999740313E+03  0.96999740313E+03  0.00000000000E+00 0.  1.
    9000007    1    1    2  502    0 -0.74056314213E+02 -0.93452128054E+02 -0.38609664411E+03  0.56858443217E+03  0.40000000000E+03 0. -1.
   -9000007    1    1    2    0  501  0.74056314213E+02  0.93452128054E+02 -0.40424967415E+03  0.58106405582E+03  0.40000000000E+03 0. -1.
<mgrwt>
<rscale>  2 0.41739386E+03</rscale>
<asrwt>0</asrwt>
<pdfrwt beam="1">  1        1 0.14923037E+00 0.41739386E+03</pdfrwt>
<pdfrwt beam="2">  1       -1 0.27638628E-01 0.41739386E+03</pdfrwt>
<totfact> 0.19608983E+02</totfact>
</mgrwt>
</event>
<event>
 4    1  0.2338029E-002  0.4079423E+03  0.7818608E-02  0.1041064E+00
          4   -1    0    0  502    0  0.00000000000E+00  0.00000000000E+00  0.51240984295E+03  0.51240984295E+03  0.00000000000E+00 0.  1.
         -4   -1    0    0    0  501 -0.00000000000E+00 -0.00000000000E+00 -0.32761257224E+03  0.32761257224E+03  0.00000000000E+00 0. -1.
    9000007    1    1    2  502    0 -0.78828443043E+02 -0.14248539338E+02  0.53296745259E+02  0.41140914837E+03  0.40000000000E+03 0. -1.
   -9000007    1    1    2    0  501  0.78828443043E+02  0.14248539338E+02  0.13150052545E+03  0.42861326683E+03  0.40000000000E+03 0.  1.
<mgrwt>
<rscale>  2 0.40794233E+03</rscale>
<asrwt>0</asrwt>
<pdfrwt beam="1">  1        4 0.78832283E-01 0.40794233E+03</pdfrwt>
<pdfrwt beam="2">  1       -4 0.50401934E-01 0.40794233E+03</pdfrwt>
<totfact> 0.10471624E+01</totfact>
</mgrwt>
</event>
<event>
 4    1  0.2338029E-002  0.4003714E+03  0.7818608E-02  0.1043651E+00
          1   -1    0    0  502    0  0.00000000000E+00  0.00000000000E+00  0.10341800949E+04  0.10341800949E+04  0.00000000000E+00 0.  1.
         -1   -1    0    0    0  501 -0.00000000000E+00 -0.00000000000E+00 -0.16296653860E+03  0.16296653860E+03  0.00000000000E+00 0. -1.
    9000007    1    1    2  502    0  0.14200802434E+02 -0.97786437232E+01  0.30325811165E+03  0.50225766987E+03  0.40000000000E+03 0. -1.
   -9000007    1    1    2    0  501 -0.14200802434E+02  0.97786437232E+01  0.56795544464E+03  0.69488896362E+03  0.40000000000E+03 0.  1.
<mgrwt>
<rscale>  2 0.40037143E+03</rscale>
<asrwt>0</asrwt>
<pdfrwt beam="1">  1        1 0.15910463E+00 0.40037143E+03</pdfrwt>
<pdfrwt beam="2">  1       -1 0.25071776E-01 0.40037143E+03</pdfrwt>
<totfact> 0.20712377E+02</totfact>
</mgrwt>
</event>
<event>
 4    1  0.2338029E-002  0.5460203E+03  0.7818608E-02  0.1002419E+00
         -2   -1    0    0    0  501 -0.00000000000E+00  0.00000000000E+00  0.21446676483E+03  0.21446676483E+03  0.00000000000E+00 0.  1.
          2   -1    0    0  502    0  0.00000000000E+00 -0.00000000000E+00 -0.14977845461E+04  0.14977845461E+04  0.00000000000E+00 0. -1.
    9000007    1    1    2  502    0 -0.31101715165E+03  0.20348600246E+03 -0.87117573311E+03  0.10281465750E+04  0.40000000000E+03 0. -1.
   -9000007    1    1    2    0  501  0.31101715165E+03 -0.20348600246E+03 -0.41214204821E+03  0.68410473592E+03  0.40000000000E+03 0.  1.
<mgrwt>
<rscale>  2 0.54602035E+03</rscale>
<asrwt>0</asrwt>
<pdfrwt beam="1">  1        2 0.23042839E+00 0.54602035E+03</pdfrwt>
<pdfrwt beam="2">  1       -2 0.32994888E-01 0.54602035E+03</pdfrwt>
<totfact> 0.11339869E+02</totfact>
</mgrwt>
</event>
<event>
 4    1  0.2338029E-002  0.4282115E+03  0.7818608E-02  0.1034426E+00
          2   -1    0    0  502    0  0.00000000000E+00  0.00000000000E+00  0.12143161670E+04  0.12143161670E+04  0.00000000000E+00 0.  1.
         -2   -1    0    0    0  501 -0.00000000000E+00 -0.00000000000E+00 -0.15628287539E+03  0.15628287539E+03  0.00000000000E+00 0. -1.
    9000007    1    1    2  502    0  0.92569207292E+02  0.12163881365E+03  0.65498097459E+03  0.78253762606E+03  0.40000000000E+03 0. -1.
   -9000007    1    1    2    0  501 -0.92569207292E+02 -0.12163881365E+03  0.40305231705E+03  0.58806141635E+03  0.40000000000E+03 0. -1.
<mgrwt>
<rscale>  2 0.42821147E+03</rscale>
<asrwt>0</asrwt>
<pdfrwt beam="1">  1        2 0.18681787E+00 0.42821147E+03</pdfrwt>
<pdfrwt beam="2">  1       -2 0.24043520E-01 0.42821147E+03</pdfrwt>
<totfact> 0.29544616E+02</totfact>
</mgrwt>
</event>
<event>
 4    1  0.2338029E-002  0.4576177E+03  0.7818608E-02  0.1025474E+00
          1   -1    0    0  502    0  0.00000000000E+00  0.00000000000E+00  0.22424173599E+03  0.22424173599E+03  0.00000000000E+00 0.  1.
         -1   -1    0    0    0  501 -0.00000000000E+00 -0.00000000000E+00 -0.14261620914E+04  0.14261620914E+04  0.00000000000E+00 0. -1.
    9000007    1    1    2  502    0 -0.22192635699E+03 -0.12754986801E+02 -0.10857846368E+04  0.11782793706E+04  0.40000000000E+03 0. -1.
   -9000007    1    1    2    0  501  0.22192635699E+03  0.12754986801E+02 -0.11613571865E+03  0.47212445686E+03  0.40000000000E+03 0.  1.
<mgrwt>
<rscale>  2 0.45761774E+03</rscale>
<asrwt>0</asrwt>
<pdfrwt beam="1">  1        1 0.34498727E-01 0.45761774E+03</pdfrwt>
<pdfrwt beam="2">  1       -1 0.21940956E+00 0.45761774E+03</pdfrwt>
<totfact> 0.15255683E+01</totfact>
</mgrwt>
</event>
<event>
 4    1  0.2338029E-002  0.5086989E+03  0.7818608E-02  0.1011533E+00
          1   -1    0    0  502    0  0.00000000000E+00  0.00000000000E+00  0.54301551988E+03  0.54301551988E+03  0.00000000000E+00 0.  1.
         -1   -1    0    0    0  501 -0.00000000000E+00 -0.00000000000E+00 -0.48810085476E+03  0.48810085476E+03  0.00000000000E+00 0. -1.
    9000007    1    1    2  502    0 -0.26746370526E+03 -0.16503853559E+03 -0.51849837281E+02  0.51133448689E+03  0.40000000000E+03 0. -1.
   -9000007    1    1    2    0  501  0.26746370526E+03  0.16503853559E+03  0.10676450240E+03  0.51978188775E+03  0.40000000000E+03 0.  1.
<mgrwt>
<rscale>  2 0.50869888E+03</rscale>
<asrwt>0</asrwt>
<pdfrwt beam="1">  1        1 0.83540850E-01 0.50869888E+03</pdfrwt>
<pdfrwt beam="2">  1       -1 0.75092439E-01 0.50869888E+03</pdfrwt>
<totfact> 0.73432951E+01</totfact>
</mgrwt>
</event>
<event>
 4    1  0.2338029E-002  0.4222266E+03  0.7818608E-02  0.1036344E+00
          2   -1    0    0  502    0  0.00000000000E+00  0.00000000000E+00  0.70922137140E+03  0.70922137140E+03  0.00000000000E+00 0. -1.
         -2   -1    0    0    0  501 -0.00000000000E+00 -0.00000000000E+00 -0.28210312345E+03  0.28210312345E+03  0.00000000000E+00 0.  1.
    9000007    1    1    2  502    0 -0.10696955067E+03  0.82660898161E+02  0.49952134201E+02  0.42517117090E+03  0.40000000000E+03 0.  1.
   -9000007    1    1    2    0  501  0.10696955067E+03 -0.82660898161E+02  0.37716611375E+03  0.56615332394E+03  0.40000000000E+03 0. -1.
<mgrwt>
<rscale>  2 0.42222661E+03</rscale>
<asrwt>0</asrwt>
<pdfrwt beam="1">  1        2 0.10911098E+00 0.42222661E+03</pdfrwt>
<pdfrwt beam="2">  1       -2 0.43400481E-01 0.42222661E+03</pdfrwt>
<totfact> 0.20889901E+02</totfact>
</mgrwt>
</event>
<event>
 4    1  0.2338029E-002  0.4265385E+03  0.7818608E-02  0.1034959E+00
          2   -1    0    0  502    0  0.00000000000E+00  0.00000000000E+00  0.32701588951E+03  0.32701588951E+03  0.00000000000E+00 0.  1.
         -2   -1    0    0    0  501 -0.00000000000E+00 -0.00000000000E+00 -0.74567740868E+03  0.74567740868E+03  0.00000000000E+00 0. -1.
    9000007    1    1    2  502    0 -0.12062622265E+03  0.85932720703E+02  0.60926536648E+02  0.43086791589E+03  0.40000000000E+03 0.  1.
   -9000007    1    1    2    0  501  0.12062622265E+03 -0.85932720703E+02 -0.47958805582E+03  0.64182538230E+03  0.40000000000E+03 0. -1.
<mgrwt>
<rscale>  2 0.42653853E+03</rscale>
<asrwt>0</asrwt>
<pdfrwt beam="1">  1        2 0.50310138E-01 0.42653853E+03</pdfrwt>
<pdfrwt beam="2">  1       -2 0.11471960E+00 0.42653853E+03</pdfrwt>
<totfact> 0.61161227E+01</totfact>
</mgrwt>
</event>
<event>
 4    1  0.2338029E-002  0.6246493E+03  0.7818608E-02  0.9855546E-01
         -4   -1    0    0    0  501 -0.00000000000E+00  0.00000000000E+00  0.12422231145E+04  0.12422231145E+04  0.00000000000E+00 0.  1.
          4   -1    0    0  502    0  0.00000000000E+00 -0.00000000000E+00 -0.34590703197E+03  0.34590703197E+03  0.00000000000E+00 0. -1.
    9000007    1    1    2  502    0 -0.15647251740E+02  0.47952259750E+03  0.20738194927E+03  0.65817477229E+03  0.40000000000E+03 0. -1.
   -9000007    1    1    2    0  501  0.15647251740E+02 -0.47952259750E+03  0.68893413328E+03  0.92995537420E+03  0.40000000000E+03 0.  1.
<mgrwt>
<rscale>  2 0.62464931E+03</rscale>
<asrwt>0</asrwt>
<pdfrwt beam="1">  1        4 0.53216467E-01 0.62464931E+03</pdfrwt>
<pdfrwt beam="2">  1       -4 0.19111125E+00 0.62464931E+03</pdfrwt>
<totfact> 0.10097206E+00</totfact>
</mgrwt>
</event>
<event>
 4    1  0.2338029E-002  0.5872447E+03  0.7818608E-02  0.9932228E-01
         -2   -1    0    0    0  501 -0.00000000000E+00  0.00000000000E+00  0.26987558821E+03  0.26987558821E+03  0.00000000000E+00 0. -1.
          2   -1    0    0  502    0  0.00000000000E+00 -0.00000000000E+00 -0.13676481383E+04  0.13676481383E+04  0.00000000000E+00 0.  1.
    9000007    1    1    2  502    0 -0.42828576255E+03  0.37783787530E+02 -0.33906872344E+03  0.67810316930E+03  0.40000000000E+03 0.  1.
   -9000007    1    1    2    0  501  0.42828576255E+03 -0.37783787530E+02 -0.75870382666E+03  0.95942055721E+03  0.40000000000E+03 0. -1.
<mgrwt>
<rscale>  2 0.58724468E+03</rscale>
<asrwt>0</asrwt>
<pdfrwt beam="1">  1        2 0.21040741E+00 0.58724468E+03</pdfrwt>
<pdfrwt beam="2">  1       -2 0.41519321E-01 0.58724468E+03</pdfrwt>
<totfact> 0.85873812E+01</totfact>
</mgrwt>
</event>
<event>
 4    1  0.2338029E-002  0.5519374E+03  0.7818608E-02  0.1001046E+00
          1   -1    0    0  502    0  0.00000000000E+00  0.00000000000E+00  0.16290429284E+04  0.16290429284E+04  0.00000000000E+00 0.  1.
         -1   -1    0    0    0  501 -0.00000000000E+00 -0.00000000000E+00 -0.22476584880E+03  0.22476584880E+03  0.00000000000E+00 0. -1.
    9000007    1    1    2  502    0 -0.18085781104E+03  0.33455248045E+03  0.10820703856E+04  0.12147062317E+04  0.40000000000E+03 0.  1.
   -9000007    1    1    2    0  501  0.18085781104E+03 -0.33455248045E+03  0.32220669403E+03  0.63910254550E+03  0.40000000000E+03 0. -1.
<mgrwt>
<rscale>  2 0.55193741E+03</rscale>
<asrwt>0</asrwt>
<pdfrwt beam="1">  1        1 0.25062198E+00 0.55193741E+03</pdfrwt>
<pdfrwt beam="2">  1       -1 0.34579362E-01 0.55193741E+03</pdfrwt>
<totfact> 0.44716138E+01</totfact>
</mgrwt>
</event>
<event>
 4    1  0.2338029E-002  0.4364635E+03  0.7818608E-02  0.1031837E+00
         -1   -1    0    0    0  501 -0.00000000000E+00  0.00000000000E+00  0.89282255829E+02  0.89282255829E+02  0.00000000000E+00 0.  1.
          1   -1    0    0  502    0  0.00000000000E+00 -0.00000000000E+00 -0.23003734405E+04  0.23003734405E+04  0.00000000000E+00 0. -1.
    9000007    1    1    2  502    0  0.16454477164E+03 -0.58526628368E+02 -0.78391534035E+03  0.89723107890E+03  0.40000000000E+03 0.  1.
   -9000007    1    1    2    0  501 -0.16454477164E+03  0.58526628368E+02 -0.14271758443E+04  0.14924246174E+04  0.40000000000E+03 0. -1.
<mgrwt>
<rscale>  2 0.43646346E+03</rscale>
<asrwt>0</asrwt>
<pdfrwt beam="1">  1        1 0.35390365E+00 0.43646346E+03</pdfrwt>
<pdfrwt beam="2">  1       -1 0.13735730E-01 0.43646346E+03</pdfrwt>
<totfact> 0.76661910E+01</totfact>
</mgrwt>
</event>
<event>
 4    1  0.2338029E-002  0.4142375E+03  0.7818608E-02  0.1038958E+00
          2   -1    0    0  502    0  0.00000000000E+00  0.00000000000E+00  0.42441510564E+03  0.42441510564E+03  0.00000000000E+00 0.  1.
         -2   -1    0    0    0  501 -0.00000000000E+00 -0.00000000000E+00 -0.40453233570E+03  0.40453233570E+03  0.00000000000E+00 0. -1.
    9000007    1    1    2  502    0 -0.78423593959E+02 -0.73773125847E+02  0.94782406098E-01  0.41423754438E+03  0.40000000000E+03 0. -1.
   -9000007    1    1    2    0  501  0.78423593959E+02  0.73773125847E+02  0.19787987532E+02  0.41470989696E+03  0.40000000000E+03 0. -1.
<mgrwt>
<rscale>  2 0.41423753E+03</rscale>
<asrwt>0</asrwt>
<pdfrwt beam="1">  1        2 0.65294632E-01 0.41423753E+03</pdfrwt>
<pdfrwt beam="2">  1       -2 0.62235744E-01 0.41423753E+03</pdfrwt>
<totfact> 0.18287095E+02</totfact>
</mgrwt>
</event>
<event>
 4    1  0.2338029E-002  0.4197796E+03  0.7818608E-02  0.1037138E+00
          1   -1    0    0  502    0  0.00000000000E+00  0.00000000000E+00  0.51512868411E+03  0.51512868411E+03  0.00000000000E+00 0.  1.
         -1   -1    0    0    0  501 -0.00000000000E+00 -0.00000000000E+00 -0.50044801492E+03  0.50044801492E+03  0.00000000000E+00 0. -1.
    9000007    1    1    2  502    0  0.12723891093E+03 -0.50177079273E+01  0.29299267614E+03  0.51191759700E+03  0.40000000000E+03 0. -1.
   -9000007    1    1    2    0  501 -0.12723891093E+03  0.50177079273E+01 -0.27831200695E+03  0.50365910203E+03  0.40000000000E+03 0. -1.
<mgrwt>
<rscale>  2 0.41977961E+03</rscale>
<asrwt>0</asrwt>
<pdfrwt beam="1">  1        1 0.79250567E-01 0.41977961E+03</pdfrwt>
<pdfrwt beam="2">  1       -1 0.76992002E-01 0.41977961E+03</pdfrwt>
<totfact> 0.75777418E+01</totfact>
</mgrwt>
</event>
<event>
 4    1  0.2338029E-002  0.5639093E+03  0.7818608E-02  0.9983248E-01
         -1   -1    0    0    0  501 -0.00000000000E+00  0.00000000000E+00  0.17507063926E+03  0.17507063926E+03  0.00000000000E+00 0.  1.
          1   -1    0    0  502    0  0.00000000000E+00 -0.00000000000E+00 -0.18165925342E+04  0.18165925342E+04  0.00000000000E+00 0. -1.
    9000007    1    1    2  502    0  0.33184646005E+03 -0.21879584661E+03 -0.83169213005E+03  0.10048410296E+04  0.40000000000E+03 0.  1.
   -9000007    1    1    2    0  501 -0.33184646005E+03  0.21879584661E+03 -0.80982976489E+03  0.98682214388E+03  0.40000000000E+03 0. -1.
<mgrwt>
<rscale>  2 0.56390930E+03</rscale>
<asrwt>0</asrwt>
<pdfrwt beam="1">  1        1 0.27947577E+00 0.56390930E+03</pdfrwt>
<pdfrwt beam="2">  1       -1 0.26933945E-01 0.56390930E+03</pdfrwt>
<totfact> 0.51663111E+01</totfact>
</mgrwt>
</event>
<event>
 4    1  0.2338029E-002  0.4075778E+03  0.7818608E-02  0.1041187E+00
         -2   -1    0    0    0  501 -0.00000000000E+00  0.00000000000E+00  0.12421439661E+03  0.12421439661E+03  0.00000000000E+00 0.  1.
          2   -1    0    0  502    0  0.00000000000E+00 -0.00000000000E+00 -0.13771157473E+04  0.13771157473E+04  0.00000000000E+00 0. -1.
    9000007    1    1    2  502    0 -0.23494749020E+02 -0.74616929794E+02 -0.75399075988E+03  0.85710078488E+03  0.40000000000E+03 0. -1.
   -9000007    1    1    2    0  501  0.23494749020E+02  0.74616929794E+02 -0.49891059084E+03  0.64422935907E+03  0.40000000000E+03 0.  1.
<mgrwt>
<rscale>  2 0.40757783E+03</rscale>
<asrwt>0</asrwt>
<pdfrwt beam="1">  1        2 0.21186397E+00 0.40757783E+03</pdfrwt>
<pdfrwt beam="2">  1       -2 0.19109906E-01 0.40757783E+03</pdfrwt>
<totfact> 0.35781419E+02</totfact>
</mgrwt>
</event>
<event>
 4    1  0.2338029E-002  0.5560970E+03  0.7818608E-02  0.1000092E+00
         -2   -1    0    0    0  501 -0.00000000000E+00  0.00000000000E+00  0.10613654580E+03  0.10613654580E+03  0.00000000000E+00 0.  1.
          2   -1    0    0  502    0  0.00000000000E+00 -0.00000000000E+00 -0.29172282947E+04  0.29172282947E+04  0.00000000000E+00 0. -1.
    9000007    1    1    2  502    0  0.25159605242E+03  0.29316081215E+03 -0.14585529465E+04  0.15609678194E+04  0.40000000000E+03 0. -1.
   -9000007    1    1    2    0  501 -0.25159605242E+03 -0.29316081215E+03 -0.13525388024E+04  0.14623970211E+04  0.40000000000E+03 0.  1.
<mgrwt>
<rscale>  2 0.55609697E+03</rscale>
<asrwt>0</asrwt>
<pdfrwt beam="1">  1        2 0.44880432E+00 0.55609697E+03</pdfrwt>
<pdfrwt beam="2">  1       -2 0.16328701E-01 0.55609697E+03</pdfrwt>
<totfact> 0.64530564E+01</totfact>
</mgrwt>
</event>
<event>
 4    1  0.2338029E-002  0.4861973E+03  0.7818608E-02  0.1017446E+00
          1   -1    0    0  502    0  0.00000000000E+00  0.00000000000E+00  0.48048240790E+03  0.48048240790E+03  0.00000000000E+00 0.  1.
         -1   -1    0    0    0  501 -0.00000000000E+00 -0.00000000000E+00 -0.66909945020E+03  0.66909945020E+03  0.00000000000E+00 0. -1.
    9000007    1    1    2  502    0 -0.25839013800E+03 -0.98093540941E+02 -0.39003997303E+03  0.62331291239E+03  0.40000000000E+03 0. -1.
   -9000007    1    1    2    0  501  0.25839013800E+03  0.98093540941E+02  0.20142293073E+03  0.52626894571E+03  0.40000000000E+03 0.  1.
<mgrwt>
<rscale>  2 0.48619729E+03</rscale>
<asrwt>0</asrwt>
<pdfrwt beam="1">  1        1 0.73920371E-01 0.48619729E+03</pdfrwt>
<pdfrwt beam="2">  1       -1 0.10293838E+00 0.48619729E+03</pdfrwt>
<totfact> 0.43893878E+01</totfact>
</mgrwt>
</event>
<event>
 4    1  0.2338029E-002  0.4369711E+03  0.7818608E-02  0.1031680E+00
         -2   -1    0    0    0  501 -0.00000000000E+00  0.00000000000E+00  0.37156606295E+03  0.37156606295E+03  0.00000000000E+00 0.  1.
          2   -1    0    0  502    0  0.00000000000E+00 -0.00000000000E+00 -0.56972205365E+03  0.56972205365E+03  0.00000000000E+00 0. -1.
    9000007    1    1    2  502    0  0.13413082924E+02  0.17539629667E+03  0.48257075446E+02  0.43962770273E+03  0.40000000000E+03 0.  1.
   -9000007    1    1    2    0  501 -0.13413082924E+02 -0.17539629667E+03 -0.24641306615E+03  0.50166041387E+03  0.40000000000E+03 0. -1.
<mgrwt>
<rscale>  2 0.43697113E+03</rscale>
<asrwt>0</asrwt>
<pdfrwt beam="1">  1        2 0.87649546E-01 0.43697113E+03</pdfrwt>
<pdfrwt beam="2">  1       -2 0.57164010E-01 0.43697113E+03</pdfrwt>
<totfact> 0.15589433E+02</totfact>
</mgrwt>
</event>
<event>
 4    1  0.2338029E-002  0.4346654E+03  0.7818608E-02  0.1032396E+00
          2   -1    0    0  502    0  0.00000000000E+00  0.00000000000E+00  0.13136114686E+04  0.13136114686E+04  0.00000000000E+00 0.  1.
         -2   -1    0    0    0  501 -0.00000000000E+00 -0.00000000000E+00 -0.17837310737E+03  0.17837310737E+03  0.00000000000E+00 0. -1.
    9000007    1    1    2  502    0  0.12127465894E+03 -0.11927486221E+03  0.23932492818E+03  0.49619598639E+03  0.40000000000E+03 0. -1.
   -9000007    1    1    2    0  501 -0.12127465894E+03  0.11927486221E+03  0.89591343309E+03  0.99578858963E+03  0.40000000000E+03 0.  1.
<mgrwt>
<rscale>  2 0.43466543E+03</rscale>
<asrwt>0</asrwt>
<pdfrwt beam="1">  1        2 0.20209407E+00 0.43466543E+03</pdfrwt>
<pdfrwt beam="2">  1       -2 0.27442017E-01 0.43466543E+03</pdfrwt>
<totfact> 0.20440884E+02</totfact>
</mgrwt>
</event>
<event>
 4    1  0.2338029E-002  0.4162315E+03  0.7818608E-02  0.1038300E+00
          2   -1    0    0  502    0  0.00000000000E+00  0.00000000000E+00  0.67653759270E+03  0.67653759270E+03  0.00000000000E+00 0. -1.
         -2   -1    0    0    0  501 -0.00000000000E+00 -0.00000000000E+00 -0.31262223416E+03  0.31262223416E+03  0.00000000000E+00 0.  1.
    9000007    1    1    2  502    0  0.11362860489E+03 -0.18362295438E+02  0.39229095721E+03  0.57196226173E+03  0.40000000000E+03 0. -1.
   -9000007    1    1    2    0  501 -0.11362860489E+03  0.18362295438E+02 -0.28375598662E+02  0.41719756512E+03  0.40000000000E+03 0.  1.
<mgrwt>
<rscale>  2 0.41623147E+03</rscale>
<asrwt>0</asrwt>
<pdfrwt beam="1">  1        2 0.10408271E+00 0.41623147E+03</pdfrwt>
<pdfrwt beam="2">  1       -2 0.48095729E-01 0.41623147E+03</pdfrwt>
<totfact> 0.18073675E+02</totfact>
</mgrwt>
</event>
<event>
 4    1  0.2338029E-002  0.4371035E+03  0.7818608E-02  0.1031639E+00
          2   -1    0    0  502    0  0.00000000000E+00  0.00000000000E+00  0.19769878459E+04  0.19769878459E+04  0.00000000000E+00 0.  1.
         -2   -1    0    0    0  501 -0.00000000000E+00 -0.00000000000E+00 -0.10521641701E+03  0.10521641701E+03  0.00000000000E+00 0. -1.
    9000007    1    1    2  502    0 -0.86652724231E+02 -0.15346269393E+03  0.12330941535E+04  0.13082739333E+04  0.40000000000E+03 0. -1.
   -9000007    1    1    2    0  501  0.86652724231E+02  0.15346269393E+03  0.63867727535E+03  0.77393032961E+03  0.40000000000E+03 0. -1.
<mgrwt>
<rscale>  2 0.43710353E+03</rscale>
<asrwt>0</asrwt>
<pdfrwt beam="1">  1        2 0.30415195E+00 0.43710353E+03</pdfrwt>
<pdfrwt beam="2">  1       -2 0.16187142E-01 0.43710353E+03</pdfrwt>
<totfact> 0.22443403E+02</totfact>
</mgrwt>
</event>
<event>
 4    1  0.2338029E-002  0.5576844E+03  0.7818608E-02  0.9997308E-01
         -2   -1    0    0    0  501 -0.00000000000E+00  0.00000000000E+00  0.62004497258E+03  0.62004497258E+03  0.00000000000E+00 0.  1.
          2   -1    0    0  502    0  0.00000000000E+00 -0.00000000000E+00 -0.55913865421E+03  0.55913865421E+03  0.00000000000E+00 0. -1.
    9000007    1    1    2  502    0  0.38368624124E+03 -0.61617712292E+02 -0.15868879519E+03  0.57982239341E+03  0.40000000000E+03 0. -1.
   -9000007    1    1    2    0  501 -0.38368624124E+03  0.61617712292E+02  0.21959511356E+03  0.59936123338E+03  0.40000000000E+03 0. -1.
<mgrwt>
<rscale>  2 0.55768439E+03</rscale>
<asrwt>0</asrwt>
<pdfrwt beam="1">  1        2 0.86021331E-01 0.55768439E+03</pdfrwt>
<pdfrwt beam="2">  1       -2 0.95391535E-01 0.55768439E+03</pdfrwt>
<totfact> 0.51206464E+01</totfact>
</mgrwt>
</event>
<event>
 4    1  0.2338029E-002  0.4721986E+03  0.7818608E-02  0.1021301E+00
         -1   -1    0    0    0  501 -0.00000000000E+00  0.00000000000E+00  0.18023260073E+03  0.18023260073E+03  0.00000000000E+00 0.  1.
          1   -1    0    0  502    0  0.00000000000E+00 -0.00000000000E+00 -0.12647694927E+04  0.12647694927E+04  0.00000000000E+00 0. -1.
    9000007    1    1    2  502    0  0.24944747198E+03  0.27340880279E+02 -0.43546628186E+03  0.64234137937E+03  0.40000000000E+03 0. -1.
   -9000007    1    1    2    0  501 -0.24944747198E+03 -0.27340880279E+02 -0.64907061015E+03  0.80266071411E+03  0.40000000000E+03 0. -1.
<mgrwt>
<rscale>  2 0.47219865E+03</rscale>
<asrwt>0</asrwt>
<pdfrwt beam="1">  1        1 0.19457992E+00 0.47219865E+03</pdfrwt>
<pdfrwt beam="2">  1       -1 0.27728093E-01 0.47219865E+03</pdfrwt>
<totfact> 0.11781411E+02</totfact>
</mgrwt>
</event>
<event>
 4    1  0.2338029E-002  0.4892165E+03  0.7818608E-02  0.1016633E+00
          2   -1    0    0  502    0  0.00000000000E+00  0.00000000000E+00  0.11568175024E+04  0.11568175024E+04  0.00000000000E+00 0.  1.
         -2   -1    0    0    0  501 -0.00000000000E+00 -0.00000000000E+00 -0.22560051316E+03  0.22560051316E+03  0.00000000000E+00 0. -1.
    9000007    1    1    2  502    0  0.18411419041E+03 -0.21315417471E+03  0.66467335077E+03  0.82530200565E+03  0.40000000000E+03 0.  1.
   -9000007    1    1    2    0  501 -0.18411419041E+03  0.21315417471E+03  0.26654363851E+03  0.55711600995E+03  0.40000000000E+03 0. -1.
<mgrwt>
<rscale>  2 0.48921645E+03</rscale>
<asrwt>0</asrwt>
<pdfrwt beam="1">  1        2 0.17797192E+00 0.48921645E+03</pdfrwt>
<pdfrwt beam="2">  1       -2 0.34707772E-01 0.48921645E+03</pdfrwt>
<totfact> 0.16200658E+02</totfact>
</mgrwt>
</event>
<event>
 4    1  0.2338029E-002  0.4906905E+03  0.7818608E-02  0.1016238E+00
         -1   -1    0    0    0  501 -0.00000000000E+00  0.00000000000E+00  0.77391321222E+03  0.77391321222E+03  0.00000000000E+00 0.  1.
          1   -1    0    0  502    0  0.00000000000E+00 -0.00000000000E+00 -0.31238875431E+03  0.31238875431E+03  0.00000000000E+00 0. -1.
    9000007    1    1    2  502    0 -0.20860050206E+03 -0.19303621286E+03  0.19609936360E+03  0.52842417558E+03  0.40000000000E+03 0. -1.
   -9000007    1    1    2    0  501  0.20860050206E+03  0.19303621286E+03  0.26542509431E+03  0.55787779094E+03  0.40000000000E+03 0.  1.
<mgrwt>
<rscale>  2 0.49069048E+03</rscale>
<asrwt>0</asrwt>
<pdfrwt beam="1">  1        1 0.48059809E-01 0.49069048E+03</pdfrwt>
<pdfrwt beam="2">  1       -1 0.11906357E+00 0.49069048E+03</pdfrwt>
<totfact> 0.54832969E+01</totfact>
</mgrwt>
</event>
<event>
 4    1  0.2338029E-002  0.4326141E+03  0.7818608E-02  0.1033037E+00
          2   -1    0    0  502    0  0.00000000000E+00  0.00000000000E+00  0.10141826794E+04  0.10141826794E+04  0.00000000000E+00 0. -1.
         -2   -1    0    0    0  501 -0.00000000000E+00 -0.00000000000E+00 -0.20121092813E+03  0.20121092813E+03  0.00000000000E+00 0.  1.
    9000007    1    1    2  502    0 -0.16348478836E+03  0.20680025651E+02  0.58141858005E+03  0.72470856536E+03  0.40000000000E+03 0. -1.
   -9000007    1    1    2    0  501  0.16348478836E+03 -0.20680025651E+02  0.23155317118E+03  0.49068504213E+03  0.40000000000E+03 0.  1.
<mgrwt>
<rscale>  2 0.43261408E+03</rscale>
<asrwt>0</asrwt>
<pdfrwt beam="1">  1        2 0.15602810E+00 0.43261408E+03</pdfrwt>
<pdfrwt beam="2">  1       -2 0.30955528E-01 0.43261408E+03</pdfrwt>
<totfact> 0.24611222E+02</totfact>
</mgrwt>
</event>
<event>
 4    1  0.2338029E-002  0.4176683E+03  0.7818608E-02  0.1037828E+00
          1   -1    0    0  502    0  0.00000000000E+00  0.00000000000E+00  0.51087522008E+03  0.51087522008E+03  0.00000000000E+00 0. -1.
         -1   -1    0    0    0  501 -0.00000000000E+00 -0.00000000000E+00 -0.36424894023E+03  0.36424894023E+03  0.00000000000E+00 0.  1.
    9000007    1    1    2  502    0  0.53963814543E+02  0.10739972453E+03  0.18274411327E+03  0.45589714305E+03  0.40000000000E+03 0. -1.
   -9000007    1    1    2    0  501 -0.53963814543E+02 -0.10739972453E+03 -0.36117833407E+02  0.41922701726E+03  0.40000000000E+03 0.  1.
<mgrwt>
<rscale>  2 0.41766828E+03</rscale>
<asrwt>0</asrwt>
<pdfrwt beam="1">  1        1 0.78596187E-01 0.41766828E+03</pdfrwt>
<pdfrwt beam="2">  1       -1 0.56038299E-01 0.41766828E+03</pdfrwt>
<totfact> 0.14438038E+02</totfact>
</mgrwt>
</event>
<event>
 4    1  0.2338029E-002  0.4240402E+03  0.7818608E-02  0.1035759E+00
          2   -1    0    0  502    0  0.00000000000E+00  0.00000000000E+00  0.29814631831E+04  0.29814631831E+04  0.00000000000E+00 0.  1.
         -2   -1    0    0    0  501 -0.00000000000E+00 -0.00000000000E+00 -0.70796741681E+02  0.70796741681E+02  0.00000000000E+00 0. -1.
    9000007    1    1    2  502    0 -0.93634822427E+02  0.10508370514E+03  0.20427128982E+04  0.20862612611E+04  0.40000000000E+03 0.  1.
   -9000007    1    1    2    0  501  0.93634822427E+02 -0.10508370514E+03  0.86795354317E+03  0.96599866365E+03  0.40000000000E+03 0. -1.
<mgrwt>
<rscale>  2 0.42404017E+03</rscale>
<asrwt>0</asrwt>
<pdfrwt beam="1">  1        2 0.45868654E+00 0.42404017E+03</pdfrwt>
<pdfrwt beam="2">  1       -2 0.10891809E-01 0.42404017E+03</pdfrwt>
<totfact> 0.11878351E+02</totfact>
</mgrwt>
</event>
<event>
 4    1  0.2338029E-002  0.5054179E+03  0.7818608E-02  0.1012374E+00
          2   -1    0    0  502    0  0.00000000000E+00  0.00000000000E+00  0.12760098394E+04  0.12760098394E+04  0.00000000000E+00 0.  1.
         -2   -1    0    0    0  501 -0.00000000000E+00 -0.00000000000E+00 -0.20288552910E+03  0.20288552910E+03  0.00000000000E+00 0. -1.
    9000007    1    1    2  502    0 -0.95462537500E+02 -0.29382681442E+03  0.45136564045E+03  0.67762691381E+03  0.40000000000E+03 0.  1.
   -9000007    1    1    2    0  501  0.95462537500E+02  0.29382681442E+03  0.62175866980E+03  0.80126845465E+03  0.40000000000E+03 0. -1.
<mgrwt>
<rscale>  2 0.50541794E+03</rscale>
<asrwt>0</asrwt>
<pdfrwt beam="1">  1        2 0.19630920E+00 0.50541794E+03</pdfrwt>
<pdfrwt beam="2">  1       -2 0.31213159E-01 0.50541794E+03</pdfrwt>
<totfact> 0.16820248E+02</totfact>
</mgrwt>
</event>
<event>
 4    1  0.2338029E-002  0.4361629E+03  0.7818608E-02  0.1031931E+00
         -1   -1    0    0    0  501 -0.00000000000E+00  0.00000000000E+00  0.35488559278E+03  0.35488559278E+03  0.00000000000E+00 0.  1.
          1   -1    0    0  502    0  0.00000000000E+00 -0.00000000000E+00 -0.62517232878E+03  0.62517232878E+03  0.00000000000E+00 0. -1.
    9000007    1    1    2  502    0 -0.18993480260E+02 -0.17285069701E+03  0.49870170022E+02  0.43900472618E+03  0.40000000000E+03 0.  1.
   -9000007    1    1    2    0  501  0.18993480260E+02  0.17285069701E+03 -0.32015690603E+03  0.54105319538E+03  0.40000000000E+03 0. -1.
<mgrwt>
<rscale>  2 0.43616295E+03</rscale>
<asrwt>0</asrwt>
<pdfrwt beam="1">  1        1 0.96180359E-01 0.43616295E+03</pdfrwt>
<pdfrwt beam="2">  1       -1 0.54597783E-01 0.43616295E+03</pdfrwt>
<totfact> 0.11431042E+02</totfact>
</mgrwt>
</event>
<event>
 4    1  0.2338029E-002  0.4149236E+03  0.7818608E-02  0.1038731E+00
          1   -1    0    0  502    0  0.00000000000E+00  0.00000000000E+00  0.15145986471E+03  0.15145986471E+03  0.00000000000E+00 0.  1.
         -1   -1    0    0    0  501 -0.00000000000E+00 -0.00000000000E+00 -0.11696499017E+04  0.11696499017E+04  0.00000000000E+00 0. -1.
    9000007    1    1    2  502    0 -0.10981395172E+03 -0.10123330868E+02 -0.61999504909E+03  0.74602643835E+03  0.40000000000E+03 0.  1.
   -9000007    1    1    2    0  501  0.10981395172E+03  0.10123330868E+02 -0.39819498792E+03  0.57508332807E+03  0.40000000000E+03 0.  1.
<mgrwt>
<rscale>  2 0.41492359E+03</rscale>
<asrwt>0</asrwt>
<pdfrwt beam="1">  1        1 0.23301518E-01 0.41492359E+03</pdfrwt>
<pdfrwt beam="2">  1       -1 0.17994614E+00 0.41492359E+03</pdfrwt>
<totfact> 0.47135680E+01</totfact>
</mgrwt>
</event>
<event>
 4    1  0.2338029E-002  0.8440645E+03  0.7818608E-02  0.9498338E-01
          1   -1    0    0  502    0  0.00000000000E+00  0.00000000000E+00  0.13343193336E+04  0.13343193336E+04  0.00000000000E+00 0.  1.
         -1   -1    0    0    0  501 -0.00000000000E+00 -0.00000000000E+00 -0.61390796473E+03  0.61390796473E+03  0.00000000000E+00 0. -1.
    9000007    1    1    2  502    0 -0.40458004670E+03 -0.62350606215E+03  0.71178179411E+03  0.11041187192E+04  0.40000000000E+03 0.  1.
   -9000007    1    1    2    0  501  0.40458004670E+03  0.62350606215E+03  0.86295747440E+01  0.84410857908E+03  0.40000000000E+03 0. -1.
<mgrwt>
<rscale>  2 0.84406447E+03</rscale>
<asrwt>0</asrwt>
<pdfrwt beam="1">  1        1 0.20527990E+00 0.84406447E+03</pdfrwt>
<pdfrwt beam="2">  1       -1 0.94447380E-01 0.84406447E+03</pdfrwt>
<totfact> 0.94897457E+00</totfact>
</mgrwt>
</event>
<event>
 4    1  0.2338029E-002  0.4657330E+03  0.7818608E-02  0.1023131E+00
          2   -1    0    0  502    0  0.00000000000E+00  0.00000000000E+00  0.12710805508E+04  0.12710805508E+04  0.00000000000E+00 0.  1.
         -2   -1    0    0    0  501 -0.00000000000E+00 -0.00000000000E+00 -0.17683831606E+03  0.17683831606E+03  0.00000000000E+00 0. -1.
    9000007    1    1    2  502    0  0.16926944194E+03 -0.16809244732E+03  0.68257338940E+03  0.82632538793E+03  0.40000000000E+03 0.  1.
   -9000007    1    1    2    0  501 -0.16926944194E+03  0.16809244732E+03  0.41166884535E+03  0.62159347893E+03  0.40000000000E+03 0.  1.
<mgrwt>
<rscale>  2 0.46573299E+03</rscale>
<asrwt>0</asrwt>
<pdfrwt beam="1">  1        2 0.19555085E+00 0.46573299E+03</pdfrwt>
<pdfrwt beam="2">  1       -2 0.27205896E-01 0.46573299E+03</pdfrwt>
<totfact> 0.21874361E+02</totfact>
</mgrwt>
</event>
<event>
 4    1  0.2338029E-002  0.5307952E+03  0.7818608E-02  0.1006039E+00
         -1   -1    0    0    0  501 -0.00000000000E+00  0.00000000000E+00  0.13564940826E+03  0.13564940826E+03  0.00000000000E+00 0. -1.
          1   -1    0    0  502    0  0.00000000000E+00 -0.00000000000E+00 -0.21150334729E+04  0.21150334729E+04  0.00000000000E+00 0.  1.
    9000007    1    1    2  502    0  0.22131635303E+02 -0.34821509489E+03 -0.83878148383E+03  0.99262175032E+03  0.40000000000E+03 0. -1.
   -9000007    1    1    2    0  501 -0.22131635303E+02  0.34821509489E+03 -0.11406025808E+04  0.12580611308E+04  0.40000000000E+03 0.  1.
<mgrwt>
<rscale>  2 0.53079522E+03</rscale>
<asrwt>0</asrwt>
<pdfrwt beam="1">  1        1 0.32538976E+00 0.53079522E+03</pdfrwt>
<pdfrwt beam="2">  1       -1 0.20869140E-01 0.53079522E+03</pdfrwt>
<totfact> 0.50619474E+01</totfact>
</mgrwt>
</event>
<event>
 4    1  0.2338029E-002  0.4665252E+03  0.7818608E-02  0.1022906E+00
          2   -1    0    0  502    0  0.00000000000E+00  0.00000000000E+00  0.18169884778E+04  0.18169884778E+04  0.00000000000E+00 0.  1.
         -2   -1    0    0    0  501 -0.00000000000E+00 -0.00000000000E+00 -0.13123748335E+03  0.13123748335E+03  0.00000000000E+00 0. -1.
    9000007    1    1    2  502    0 -0.96287324941E+02 -0.21994203860E+03  0.11306506788E+04  0.12231176177E+04  0.40000000000E+03 0.  1.
   -9000007    1    1    2    0  501  0.96287324941E+02  0.21994203860E+03  0.55510031571E+03  0.72510834348E+03  0.40000000000E+03 0. -1.
<mgrwt>
<rscale>  2 0.46652519E+03</rscale>
<asrwt>0</asrwt>
<pdfrwt beam="1">  1        2 0.27953667E+00 0.46652519E+03</pdfrwt>
<pdfrwt beam="2">  1       -2 0.20190383E-01 0.46652519E+03</pdfrwt>
<totfact> 0.18646651E+02</totfact>
</mgrwt>
</event>
<event>
 4    1  0.2338029E-002  0.4194124E+03  0.7818608E-02  0.1037258E+00
          1   -1    0    0  502    0  0.00000000000E+00  0.00000000000E+00  0.41948826625E+03  0.41948826625E+03  0.00000000000E+00 0. -1.
         -1   -1    0    0    0  501 -0.00000000000E+00 -0.00000000000E+00 -0.44711952625E+03  0.44711952625E+03  0.00000000000E+00 0.  1.
    9000007    1    1    2  502    0  0.49326274377E+02 -0.11607614845E+03 -0.12182721096E+03  0.43674777952E+03  0.40000000000E+03 0.  1.
   -9000007    1    1    2    0  501 -0.49326274377E+02  0.11607614845E+03  0.94195950961E+02  0.42986001298E+03  0.40000000000E+03 0. -1.
<mgrwt>
<rscale>  2 0.41941239E+03</rscale>
<asrwt>0</asrwt>
<pdfrwt beam="1">  1        1 0.64536657E-01 0.41941239E+03</pdfrwt>
<pdfrwt beam="2">  1       -1 0.68787619E-01 0.41941239E+03</pdfrwt>
<totfact> 0.12551774E+02</totfact>
</mgrwt>
</event>
<event>
 4    1  0.2338029E-002  0.6346566E+03  0.7818608E-02  0.9836004E-01
         -2   -1    0    0    0  501 -0.00000000000E+00  0.00000000000E+00  0.71538133565E+03  0.71538133565E+03  0.00000000000E+00 0. -1.
          2   -1    0    0  502    0  0.00000000000E+00 -0.00000000000E+00 -0.63249607078E+03  0.63249607078E+03  0.00000000000E+00 0.  1.
    9000007    1    1    2  502    0 -0.28584980332E+03 -0.40134639239E+03  0.26477074692E+03  0.68767185864E+03  0.40000000000E+03 0. -1.
   -9000007    1    1    2    0  501  0.28584980332E+03  0.40134639239E+03 -0.18188548206E+03  0.66020554778E+03  0.40000000000E+03 0.  1.
<mgrwt>
<rscale>  2 0.63465663E+03</rscale>
<asrwt>0</asrwt>
<pdfrwt beam="1">  1        2 0.97307088E-01 0.63465663E+03</pdfrwt>
<pdfrwt beam="2">  1       -2 0.11005867E+00 0.63465663E+03</pdfrwt>
<totfact> 0.31228139E+01</totfact>
</mgrwt>
</event>
<event>
 4    1  0.2338029E-002  0.4326797E+03  0.7818608E-02  0.1033017E+00
         -1   -1    0    0    0  501 -0.00000000000E+00  0.00000000000E+00  0.27925030556E+03  0.27925030556E+03  0.00000000000E+00 0.  1.
          1   -1    0    0  502    0  0.00000000000E+00 -0.00000000000E+00 -0.67085479826E+03  0.67085479826E+03  0.00000000000E+00 0. -1.
    9000007    1    1    2  502    0 -0.13416434810E+03  0.95977512477E+02 -0.20805632139E+03  0.48010330979E+03  0.40000000000E+03 0.  1.
   -9000007    1    1    2    0  501  0.13416434810E+03 -0.95977512477E+02 -0.18354817130E+03  0.47000179403E+03  0.40000000000E+03 0.  1.
<mgrwt>
<rscale>  2 0.43267974E+03</rscale>
<asrwt>0</asrwt>
<pdfrwt beam="1">  1        1 0.10320843E+00 0.43267974E+03</pdfrwt>
<pdfrwt beam="2">  1       -1 0.42961586E-01 0.43267974E+03</pdfrwt>
<totfact> 0.16137325E+02</totfact>
</mgrwt>
</event>
<event>
 4    1  0.2338029E-002  0.4125814E+03  0.7818608E-02  0.1039508E+00
          3   -1    0    0  502    0  0.00000000000E+00  0.00000000000E+00  0.20121067902E+03  0.20121067902E+03  0.00000000000E+00 0. -1.
         -3   -1    0    0    0  501 -0.00000000000E+00 -0.00000000000E+00 -0.85980816226E+03  0.85980816226E+03  0.00000000000E+00 0.  1.
    9000007    1    1    2  502    0  0.96262971875E+02  0.30933336185E+02 -0.39653801977E+03  0.57224630376E+03  0.40000000000E+03 0. -1.
   -9000007    1    1    2    0  501 -0.96262971875E+02 -0.30933336185E+02 -0.26205946348E+03  0.48877253753E+03  0.40000000000E+03 0. -1.
<mgrwt>
<rscale>  2 0.41258142E+03</rscale>
<asrwt>0</asrwt>
<pdfrwt beam="1">  1        3 0.30955490E-01 0.41258142E+03</pdfrwt>
<pdfrwt beam="2">  1       -3 0.13227818E+00 0.41258142E+03</pdfrwt>
<totfact> 0.11837607E+01</totfact>
</mgrwt>
</event>
<event>
 4    1  0.2338029E-002  0.4931990E+03  0.7818608E-02  0.1015569E+00
          1   -1    0    0  502    0  0.00000000000E+00  0.00000000000E+00  0.75672204227E+03  0.75672204227E+03  0.00000000000E+00 0. -1.
         -1   -1    0    0    0  501 -0.00000000000E+00 -0.00000000000E+00 -0.33804205865E+03  0.33804205865E+03  0.00000000000E+00 0.  1.
    9000007    1    1    2  502    0 -0.28852253429E+03  0.11642338054E-01  0.33062525113E+03  0.59376620787E+03  0.40000000000E+03 0. -1.
   -9000007    1    1    2    0  501  0.28852253429E+03 -0.11642338054E-01  0.88054732496E+02  0.50099789305E+03  0.40000000000E+03 0. -1.
<mgrwt>
<rscale>  2 0.49319900E+03</rscale>
<asrwt>0</asrwt>
<pdfrwt beam="1">  1        1 0.11641878E+00 0.49319900E+03</pdfrwt>
<pdfrwt beam="2">  1       -1 0.52006471E-01 0.49319900E+03</pdfrwt>
<totfact> 0.93840511E+01</totfact>
</mgrwt>
</event>
<event>
 4    1  0.2338029E-002  0.5281539E+03  0.7818608E-02  0.1006681E+00
         -1   -1    0    0    0  501 -0.00000000000E+00  0.00000000000E+00  0.19389010071E+03  0.19389010071E+03  0.00000000000E+00 0. -1.
          1   -1    0    0  502    0  0.00000000000E+00 -0.00000000000E+00 -0.14571875856E+04  0.14571875856E+04  0.00000000000E+00 0.  1.
    9000007    1    1    2  502    0 -0.27992706497E+03  0.20146307699E+03 -0.72467614793E+03  0.89671737603E+03  0.40000000000E+03 0. -1.
   -9000007    1    1    2    0  501  0.27992706497E+03 -0.20146307699E+03 -0.53862133693E+03  0.75436031026E+03  0.40000000000E+03 0. -1.
<mgrwt>
<rscale>  2 0.52815389E+03</rscale>
<asrwt>0</asrwt>
<pdfrwt beam="1">  1        1 0.22418271E+00 0.52815389E+03</pdfrwt>
<pdfrwt beam="2">  1       -1 0.29829246E-01 0.52815389E+03</pdfrwt>
<totfact> 0.75910901E+01</totfact>
</mgrwt>
</event>
<event>
 4    1  0.2338029E-002  0.4763303E+03  0.7818608E-02  0.1020149E+00
         -1   -1    0    0    0  501 -0.00000000000E+00  0.00000000000E+00  0.43474237188E+03  0.43474237188E+03  0.00000000000E+00 0. -1.
          1   -1    0    0  502    0  0.00000000000E+00 -0.00000000000E+00 -0.75468128172E+03  0.75468128172E+03  0.00000000000E+00 0.  1.
    9000007    1    1    2  502    0 -0.36056876351E+02 -0.25610639193E+03 -0.49026441713E+03  0.68355671383E+03  0.40000000000E+03 0.  1.
   -9000007    1    1    2    0  501  0.36056876351E+02  0.25610639193E+03  0.17032550729E+03  0.50586693977E+03  0.40000000000E+03 0. -1.
<mgrwt>
<rscale>  2 0.47633033E+03</rscale>
<asrwt>0</asrwt>
<pdfrwt beam="1">  1        1 0.11610481E+00 0.47633033E+03</pdfrwt>
<pdfrwt beam="2">  1       -1 0.66883442E-01 0.47633033E+03</pdfrwt>
<totfact> 0.57858249E+01</totfact>
</mgrwt>
</event>
<event>
 4    1  0.2338029E-002  0.4245613E+03  0.7818608E-02  0.1035592E+00
         -4   -1    0    0    0  501 -0.00000000000E+00  0.00000000000E+00  0.55146833543E+03  0.55146833543E+03  0.00000000000E+00 0.  1.
          4   -1    0    0  502    0  0.00000000000E+00 -0.00000000000E+00 -0.35190057073E+03  0.35190057073E+03  0.00000000000E+00 0. -1.
    9000007    1    1    2  502    0 -0.73267762635E+02  0.12200049856E+03 -0.20707931828E+02  0.42506600091E+03  0.40000000000E+03 0. -1.
   -9000007    1    1    2    0  501  0.73267762635E+02 -0.12200049856E+03  0.22027569653E+03  0.47830290525E+03  0.40000000000E+03 0.  1.
<mgrwt>
<rscale>  2 0.42456129E+03</rscale>
<asrwt>0</asrwt>
<pdfrwt beam="1">  1        4 0.54138549E-01 0.42456129E+03</pdfrwt>
<pdfrwt beam="2">  1       -4 0.84841282E-01 0.42456129E+03</pdfrwt>
<totfact> 0.76446621E+00</totfact>
</mgrwt>
</event>
<event>
 4    1  0.2338029E-002  0.4283153E+03  0.7818608E-02  0.1034393E+00
         -2   -1    0    0    0  501 -0.00000000000E+00  0.00000000000E+00  0.14464943102E+04  0.14464943102E+04  0.00000000000E+00 0. -1.
          2   -1    0    0  502    0  0.00000000000E+00 -0.00000000000E+00 -0.26953297613E+03  0.26953297613E+03  0.00000000000E+00 0.  1.
    9000007    1    1    2  502    0 -0.15232943448E+03 -0.15802133731E+02  0.12128045084E+04  0.12862148886E+04  0.40000000000E+03 0. -1.
   -9000007    1    1    2    0  501  0.15232943448E+03  0.15802133731E+02 -0.35843174400E+02  0.42981239767E+03  0.40000000000E+03 0.  1.
<mgrwt>
<rscale>  2 0.42831526E+03</rscale>
<asrwt>0</asrwt>
<pdfrwt beam="1">  1        2 0.41466612E-01 0.42831526E+03</pdfrwt>
<pdfrwt beam="2">  1       -2 0.22253758E+00 0.42831526E+03</pdfrwt>
<totfact> 0.12531452E+01</totfact>
</mgrwt>
</event>
<event>
 4    1  0.2338029E-002  0.4299022E+03  0.7818608E-02  0.1033891E+00
         -2   -1    0    0    0  501 -0.00000000000E+00  0.00000000000E+00  0.78524535847E+02  0.78524535847E+02  0.00000000000E+00 0.  1.
          2   -1    0    0  502    0  0.00000000000E+00 -0.00000000000E+00 -0.26165654663E+04  0.26165654663E+04  0.00000000000E+00 0. -1.
    9000007    1    1    2  502    0  0.15738838966E+03  0.66939368058E+01 -0.84183066219E+03  0.94524852700E+03  0.40000000000E+03 0.  1.
   -9000007    1    1    2    0  501 -0.15738838966E+03 -0.66939368058E+01 -0.16962102683E+04  0.17498414752E+04  0.40000000000E+03 0. -1.
<mgrwt>
<rscale>  2 0.42990221E+03</rscale>
<asrwt>0</asrwt>
<pdfrwt beam="1">  1        2 0.40254855E+00 0.42990221E+03</pdfrwt>
<pdfrwt beam="2">  1       -2 0.12080697E-01 0.42990221E+03</pdfrwt>
<totfact> 0.16331076E+02</totfact>
</mgrwt>
</event>
<event>
 4    1  0.2338029E-002  0.4912459E+03  0.7818608E-02  0.1016089E+00
          2   -1    0    0  502    0  0.00000000000E+00  0.00000000000E+00  0.62130997059E+03  0.62130997059E+03  0.00000000000E+00 0. -1.
         -2   -1    0    0    0  501 -0.00000000000E+00 -0.00000000000E+00 -0.39112732762E+03  0.39112732762E+03  0.00000000000E+00 0.  1.
    9000007    1    1    2  502    0  0.25287425490E+02  0.28404759410E+03  0.15729170802E+03  0.51581311636E+03  0.40000000000E+03 0.  1.
   -9000007    1    1    2    0  501 -0.25287425490E+02 -0.28404759410E+03  0.72890934955E+02  0.49662418185E+03  0.40000000000E+03 0. -1.
<mgrwt>
<rscale>  2 0.49124585E+03</rscale>
<asrwt>0</asrwt>
<pdfrwt beam="1">  1        2 0.95586149E-01 0.49124585E+03</pdfrwt>
<pdfrwt beam="2">  1       -2 0.60173435E-01 0.49124585E+03</pdfrwt>
<totfact> 0.12582955E+02</totfact>
</mgrwt>
</event>
<event>
 4    1  0.2338029E-002  0.4070421E+03  0.7818608E-02  0.1041368E+00
         -2   -1    0    0    0  501 -0.00000000000E+00  0.00000000000E+00  0.20341347426E+03  0.20341347426E+03  0.00000000000E+00 0.  1.
          2   -1    0    0  502    0  0.00000000000E+00 -0.00000000000E+00 -0.11324412027E+04  0.11324412027E+04  0.00000000000E+00 0. -1.
    9000007    1    1    2  502    0  0.12845694078E+02  0.74285049756E+02 -0.11061049051E+03  0.42180322555E+03  0.40000000000E+03 0.  1.
   -9000007    1    1    2    0  501 -0.12845694078E+02 -0.74285049756E+02 -0.81841723794E+03  0.91405145141E+03  0.40000000000E+03 0. -1.
<mgrwt>
<rscale>  2 0.40704211E+03</rscale>
<asrwt>0</asrwt>
<pdfrwt beam="1">  1        2 0.17422172E+00 0.40704211E+03</pdfrwt>
<pdfrwt beam="2">  1       -2 0.31294381E-01 0.40704211E+03</pdfrwt>
<totfact> 0.20505203E+02</totfact>
</mgrwt>
</event>
<event>
 4    1  0.2338029E-002  0.4495529E+03  0.7818608E-02  0.1027855E+00
          2   -1    0    0  502    0  0.00000000000E+00  0.00000000000E+00  0.30018609060E+03  0.30018609060E+03  0.00000000000E+00 0.  1.
         -2   -1    0    0    0  501 -0.00000000000E+00 -0.00000000000E+00 -0.67605254355E+03  0.67605254355E+03  0.00000000000E+00 0. -1.
    9000007    1    1    2  502    0 -0.13860537343E+03 -0.15128239798E+03 -0.15645943375E+03  0.47600143686E+03  0.40000000000E+03 0.  1.
   -9000007    1    1    2    0  501  0.13860537343E+03  0.15128239798E+03 -0.21940701921E+03  0.50023719730E+03  0.40000000000E+03 0.  1.
<mgrwt>
<rscale>  2 0.44955290E+03</rscale>
<asrwt>0</asrwt>
<pdfrwt beam="1">  1        2 0.46182476E-01 0.44955290E+03</pdfrwt>
<pdfrwt beam="2">  1       -2 0.10400808E+00 0.44955290E+03</pdfrwt>
<totfact> 0.84822988E+01</totfact>
</mgrwt>
</event>
<event>
 4    1  0.2338029E-002  0.4083740E+03  0.7818608E-02  0.1040918E+00
          2   -1    0    0  502    0  0.00000000000E+00  0.00000000000E+00  0.66607844487E+03  0.66607844487E+03  0.00000000000E+00 0.  1.
         -2   -1    0    0    0  501 -0.00000000000E+00 -0.00000000000E+00 -0.27237120579E+03  0.27237120579E+03  0.00000000000E+00 0. -1.
    9000007    1    1    2  502    0 -0.48108136059E+02  0.66745113189E+02  0.63508976786E+02  0.41328282449E+03  0.40000000000E+03 0. -1.
   -9000007    1    1    2    0  501  0.48108136059E+02 -0.66745113189E+02  0.33019826229E+03  0.52516682617E+03  0.40000000000E+03 0.  1.
<mgrwt>
<rscale>  2 0.40837397E+03</rscale>
<asrwt>0</asrwt>
<pdfrwt beam="1">  1        2 0.10247361E+00 0.40837397E+03</pdfrwt>
<pdfrwt beam="2">  1       -2 0.41903263E-01 0.40837397E+03</pdfrwt>
<totfact> 0.24197604E+02</totfact>
</mgrwt>
</event>
<event>
 4    1  0.2338029E-002  0.4330009E+03  0.7818608E-02  0.1032916E+00
          2   -1    0    0  502    0  0.00000000000E+00  0.00000000000E+00  0.88474975701E+03  0.88474975701E+03  0.00000000000E+00 0.  1.
         -2   -1    0    0    0  501 -0.00000000000E+00 -0.00000000000E+00 -0.25400922218E+03  0.25400922218E+03  0.00000000000E+00 0. -1.
    9000007    1    1    2  502    0  0.10331862940E+03  0.12967275005E+03  0.83577497442E+02  0.44099315116E+03  0.40000000000E+03 0. -1.
   -9000007    1    1    2    0  501 -0.10331862940E+03 -0.12967275005E+03  0.54716303739E+03  0.69776582803E+03  0.40000000000E+03 0. -1.
<mgrwt>
<rscale>  2 0.43300088E+03</rscale>
<asrwt>0</asrwt>
<pdfrwt beam="1">  1        2 0.13611535E+00 0.43300088E+03</pdfrwt>
<pdfrwt beam="2">  1       -2 0.39078342E-01 0.43300088E+03</pdfrwt>
<totfact> 0.19208168E+02</totfact>
</mgrwt>
</event>
<event>
 4    1  0.2338029E-002  0.4716855E+03  0.7818608E-02  0.1021446E+00
          3   -1    0    0  502    0  0.00000000000E+00  0.00000000000E+00  0.11241498612E+03  0.11241498612E+03  0.00000000000E+00 0.  1.
         -3   -1    0    0    0  501 -0.00000000000E+00 -0.00000000000E+00 -0.25375407048E+04  0.25375407048E+04  0.00000000000E+00 0. -1.
    9000007    1    1    2  502    0 -0.24992506924E+03  0.49689085632E+01 -0.59102533111E+03  0.75617337450E+03  0.40000000000E+03 0.  1.
   -9000007    1    1    2    0  501  0.24992506924E+03 -0.49689085632E+01 -0.18341003876E+04  0.18937823165E+04  0.40000000000E+03 0. -1.
<mgrwt>
<rscale>  2 0.47168552E+03</rscale>
<asrwt>0</asrwt>
<pdfrwt beam="1">  1        3 0.17294613E-01 0.47168552E+03</pdfrwt>
<pdfrwt beam="2">  1       -3 0.39039089E+00 0.47168552E+03</pdfrwt>
<totfact> 0.10007235E+00</totfact>
</mgrwt>
</event>
<event>
 4    1  0.2338029E-002  0.4321493E+03  0.7818608E-02  0.1033183E+00
          2   -1    0    0  502    0  0.00000000000E+00  0.00000000000E+00  0.16125051263E+04  0.16125051263E+04  0.00000000000E+00 0.  1.
         -2   -1    0    0    0  501 -0.00000000000E+00 -0.00000000000E+00 -0.14427757400E+03  0.14427757400E+03  0.00000000000E+00 0. -1.
    9000007    1    1    2  502    0 -0.15409610584E+03  0.54839593149E+02  0.11242554689E+04  0.12044514727E+04  0.40000000000E+03 0.  1.
   -9000007    1    1    2    0  501  0.15409610584E+03 -0.54839593149E+02  0.34397208348E+03  0.55233122764E+03  0.40000000000E+03 0. -1.
<mgrwt>
<rscale>  2 0.43214927E+03</rscale>
<asrwt>0</asrwt>
<pdfrwt beam="1">  1        2 0.24807770E+00 0.43214927E+03</pdfrwt>
<pdfrwt beam="2">  1       -2 0.22196551E-01 0.43214927E+03</pdfrwt>
<totfact> 0.20448647E+02</totfact>
</mgrwt>
</event>
<event>
 4    1  0.2338029E-002  0.5217432E+03  0.7818608E-02  0.1008254E+00
         -3   -1    0    0    0  501 -0.00000000000E+00  0.00000000000E+00  0.11895386516E+03  0.11895386516E+03  0.00000000000E+00 0. -1.
          3   -1    0    0  502    0  0.00000000000E+00 -0.00000000000E+00 -0.25108276292E+04  0.25108276292E+04  0.00000000000E+00 0.  1.
    9000007    1    1    2  502    0 -0.89216386210E+02  0.32288756041E+03 -0.15872819522E+04  0.16708321089E+04  0.40000000000E+03 0.  1.
   -9000007    1    1    2    0  501  0.89216386210E+02 -0.32288756041E+03 -0.80459181176E+03  0.95894938542E+03  0.40000000000E+03 0.  1.
<mgrwt>
<rscale>  2 0.52174317E+03</rscale>
<asrwt>0</asrwt>
<pdfrwt beam="1">  1        3 0.38628117E+00 0.52174317E+03</pdfrwt>
<pdfrwt beam="2">  1       -3 0.18300595E-01 0.52174317E+03</pdfrwt>
<totfact> 0.98675089E-01</totfact>
</mgrwt>
</event>
<event>
 4    1  0.2338029E-002  0.5189038E+03  0.7818608E-02  0.1008959E+00
         -2   -1    0    0    0  501 -0.00000000000E+00  0.00000000000E+00  0.17156994741E+03  0.17156994741E+03  0.00000000000E+00 0.  1.
          2   -1    0    0  502    0  0.00000000000E+00 -0.00000000000E+00 -0.15859742435E+04  0.15859742435E+04  0.00000000000E+00 0. -1.
    9000007    1    1    2  502    0 -0.10600358679E+03  0.31308839479E+03 -0.79704923523E+03  0.95107759239E+03  0.40000000000E+03 0. -1.
   -9000007    1    1    2    0  501  0.10600358679E+03 -0.31308839479E+03 -0.61735506090E+03  0.80646659856E+03  0.40000000000E+03 0. -1.
<mgrwt>
<rscale>  2 0.51890375E+03</rscale>
<asrwt>0</asrwt>
<pdfrwt beam="1">  1        2 0.24399605E+00 0.51890375E+03</pdfrwt>
<pdfrwt beam="2">  1       -2 0.26395376E-01 0.51890375E+03</pdfrwt>
<totfact> 0.15351963E+02</totfact>
</mgrwt>
</event>
<event>
 4    1  0.2338029E-002  0.4020169E+03  0.7818608E-02  0.1043084E+00
          1   -1    0    0  502    0  0.00000000000E+00  0.00000000000E+00  0.13385537105E+04  0.13385537105E+04  0.00000000000E+00 0. -1.
         -1   -1    0    0    0  501 -0.00000000000E+00 -0.00000000000E+00 -0.12966681323E+03  0.12966681323E+03  0.00000000000E+00 0.  1.
    9000007    1    1    2  502    0  0.24319740080E+02  0.32033471998E+02  0.79705568248E+03  0.89270115608E+03  0.40000000000E+03 0. -1.
   -9000007    1    1    2    0  501 -0.24319740080E+02 -0.32033471998E+02  0.41183121483E+03  0.57551936770E+03  0.40000000000E+03 0.  1.
<mgrwt>
<rscale>  2 0.40201691E+03</rscale>
<asrwt>0</asrwt>
<pdfrwt beam="1">  1        1 0.20593133E+00 0.40201691E+03</pdfrwt>
<pdfrwt beam="2">  1       -1 0.19948741E-01 0.40201691E+03</pdfrwt>
<totfact> 0.18353741E+02</totfact>
</mgrwt>
</event>
<event>
 4    1  0.2338029E-002  0.5021913E+03  0.7818608E-02  0.1013209E+00
          2   -1    0    0  502    0  0.00000000000E+00  0.00000000000E+00  0.10699971320E+04  0.10699971320E+04  0.00000000000E+00 0.  1.
         -2   -1    0    0    0  501 -0.00000000000E+00 -0.00000000000E+00 -0.33824045280E+03  0.33824045280E+03  0.00000000000E+00 0. -1.
    9000007    1    1    2  502    0 -0.80936146888E+01  0.30353015524E+03 -0.21812245700E+02  0.50266473499E+03  0.40000000000E+03 0.  1.
   -9000007    1    1    2    0  501  0.80936146888E+01 -0.30353015524E+03  0.75356892489E+03  0.90557284980E+03  0.40000000000E+03 0.  1.
<mgrwt>
<rscale>  2 0.50219126E+03</rscale>
<asrwt>0</asrwt>
<pdfrwt beam="1">  1        2 0.16461494E+00 0.50219126E+03</pdfrwt>
<pdfrwt beam="2">  1       -2 0.52036993E-01 0.50219126E+03</pdfrwt>
<totfact> 0.82434681E+01</totfact>
</mgrwt>
</event>
<event>
 4    1  0.2338029E-002  0.5113187E+03  0.7818608E-02  0.1010866E+00
          2   -1    0    0  502    0  0.00000000000E+00  0.00000000000E+00  0.21097634574E+04  0.21097634574E+04  0.00000000000E+00 0. -1.
         -2   -1    0    0    0  501 -0.00000000000E+00 -0.00000000000E+00 -0.12778377089E+03  0.12778377089E+03  0.00000000000E+00 0.  1.
    9000007    1    1    2  502    0 -0.31163320199E+03 -0.65814874746E+02  0.11854711260E+04  0.12910416883E+04  0.40000000000E+03 0. -1.
   -9000007    1    1    2    0  501  0.31163320199E+03  0.65814874746E+02  0.79650856054E+03  0.94650554005E+03  0.40000000000E+03 0.  1.
<mgrwt>
<rscale>  2 0.51131874E+03</rscale>
<asrwt>0</asrwt>
<pdfrwt beam="1">  1        2 0.32457897E+00 0.51131874E+03</pdfrwt>
<pdfrwt beam="2">  1       -2 0.19659043E-01 0.51131874E+03</pdfrwt>
<totfact> 0.13502276E+02</totfact>
</mgrwt>
</event>
<event>
 4    1  0.2338029E-002  0.5087859E+03  0.7818608E-02  0.1011511E+00
         -1   -1    0    0    0  501 -0.00000000000E+00  0.00000000000E+00  0.27251886264E+03  0.27251886264E+03  0.00000000000E+00 0. -1.
          1   -1    0    0  502    0  0.00000000000E+00 -0.00000000000E+00 -0.11818679432E+04  0.11818679432E+04  0.00000000000E+00 0.  1.
    9000007    1    1    2  502    0 -0.99945026915E+02 -0.29811751979E+03 -0.13250210276E+03  0.52575647523E+03  0.40000000000E+03 0. -1.
   -9000007    1    1    2    0  501  0.99945026915E+02  0.29811751979E+03 -0.77684697775E+03  0.92863033057E+03  0.40000000000E+03 0.  1.
<mgrwt>
<rscale>  2 0.50878587E+03</rscale>
<asrwt>0</asrwt>
<pdfrwt beam="1">  1        1 0.18182583E+00 0.50878587E+03</pdfrwt>
<pdfrwt beam="2">  1       -1 0.41925980E-01 0.50878587E+03</pdfrwt>
<totfact> 0.64802715E+01</totfact>
</mgrwt>
</event>
<event>
 4    1  0.2338029E-002  0.5321537E+03  0.7818608E-02  0.1005711E+00
          2   -1    0    0  502    0  0.00000000000E+00  0.00000000000E+00  0.46815724318E+03  0.46815724318E+03  0.00000000000E+00 0. -1.
         -2   -1    0    0    0  501 -0.00000000000E+00 -0.00000000000E+00 -0.89336873594E+03  0.89336873594E+03  0.00000000000E+00 0.  1.
    9000007    1    1    2  502    0 -0.11745141394E+03 -0.33074572331E+03 -0.59944553805E+03  0.80157502532E+03  0.40000000000E+03 0.  1.
   -9000007    1    1    2    0  501  0.11745141394E+03  0.33074572331E+03  0.17423404529E+03  0.55995095380E+03  0.40000000000E+03 0. -1.
<mgrwt>
<rscale>  2 0.53215371E+03</rscale>
<asrwt>0</asrwt>
<pdfrwt beam="1">  1        2 0.72024191E-01 0.53215371E+03</pdfrwt>
<pdfrwt beam="2">  1       -2 0.13744134E+00 0.53215371E+03</pdfrwt>
<totfact> 0.25881526E+01</totfact>
</mgrwt>
</event>
<event>
 4    1  0.2338029E-002  0.4178274E+03  0.7818608E-02  0.1037776E+00
          2   -1    0    0  502    0  0.00000000000E+00  0.00000000000E+00  0.73743594580E+03  0.73743594580E+03  0.00000000000E+00 0.  1.
         -2   -1    0    0    0  501 -0.00000000000E+00 -0.00000000000E+00 -0.24504114495E+03  0.24504114495E+03  0.00000000000E+00 0. -1.
    9000007    1    1    2  502    0  0.79044189799E+02 -0.91278358403E+02  0.15577572603E+03  0.44592129291E+03  0.40000000000E+03 0. -1.
   -9000007    1    1    2    0  501 -0.79044189799E+02  0.91278358403E+02  0.33661907482E+03  0.53655579783E+03  0.40000000000E+03 0.  1.
<mgrwt>
<rscale>  2 0.41782738E+03</rscale>
<asrwt>0</asrwt>
<pdfrwt beam="1">  1        2 0.11345168E+00 0.41782738E+03</pdfrwt>
<pdfrwt beam="2">  1       -2 0.37698638E-01 0.41782738E+03</pdfrwt>
<totfact> 0.26140219E+02</totfact>
</mgrwt>
</event>
<event>
 4    1  0.2338029E-002  0.4387995E+03  0.7818608E-02  0.1031116E+00
         -1   -1    0    0    0  501 -0.00000000000E+00  0.00000000000E+00  0.65811356514E+03  0.65811356514E+03  0.00000000000E+00 0.  1.
          1   -1    0    0  502    0  0.00000000000E+00 -0.00000000000E+00 -0.42186148280E+03  0.42186148280E+03  0.00000000000E+00 0. -1.
    9000007    1    1    2  502    0  0.17430383206E+03 -0.46510032238E+02 -0.18081249318E+03  0.47459263233E+03  0.40000000000E+03 0.  1.
   -9000007    1    1    2    0  501 -0.17430383206E+03  0.46510032238E+02  0.41706457553E+03  0.60538241561E+03  0.40000000000E+03 0.  1.
<mgrwt>
<rscale>  2 0.43879951E+03</rscale>
<asrwt>0</asrwt>
<pdfrwt beam="1">  1        1 0.64901767E-01 0.43879951E+03</pdfrwt>
<pdfrwt beam="2">  1       -1 0.10124824E+00 0.43879951E+03</pdfrwt>
<totfact> 0.54551760E+01</totfact>
</mgrwt>
</event>
<event>
 4    1  0.2338029E-002  0.4582071E+03  0.7818608E-02  0.1025302E+00
         -1   -1    0    0    0  501 -0.00000000000E+00  0.00000000000E+00  0.31880184811E+03  0.31880184811E+03  0.00000000000E+00 0.  1.
          1   -1    0    0  502    0  0.00000000000E+00 -0.00000000000E+00 -0.69038084716E+03  0.69038084716E+03  0.00000000000E+00 0. -1.
    9000007    1    1    2  502    0  0.15108433967E+03  0.16470361928E+03 -0.29410083507E+03  0.54447135929E+03  0.40000000000E+03 0.  1.
   -9000007    1    1    2    0  501 -0.15108433967E+03 -0.16470361928E+03 -0.77478163977E+02  0.46471133598E+03  0.40000000000E+03 0.  1.
<mgrwt>
<rscale>  2 0.45820711E+03</rscale>
<asrwt>0</asrwt>
<pdfrwt beam="1">  1        1 0.10621244E+00 0.45820711E+03</pdfrwt>
<pdfrwt beam="2">  1       -1 0.49046438E-01 0.45820711E+03</pdfrwt>
<totfact> 0.12082151E+02</totfact>
</mgrwt>
</event>
<event>
 4    1  0.2338029E-002  0.5201251E+03  0.7818608E-02  0.1008655E+00
          2   -1    0    0  502    0  0.00000000000E+00  0.00000000000E+00  0.86433622284E+03  0.86433622284E+03  0.00000000000E+00 0. -1.
         -2   -1    0    0    0  501 -0.00000000000E+00 -0.00000000000E+00 -0.12435092461E+04  0.12435092461E+04  0.00000000000E+00 0.  1.
    9000007    1    1    2  502    0  0.32367234412E+03 -0.75936689315E+02 -0.11012751004E+04  0.12179232381E+04  0.40000000000E+03 0.  1.
   -9000007    1    1    2    0  501 -0.32367234412E+03  0.75936689315E+02  0.72210207715E+03  0.88992223084E+03  0.40000000000E+03 0. -1.
<mgrwt>
<rscale>  2 0.52012515E+03</rscale>
<asrwt>0</asrwt>
<pdfrwt beam="1">  1        2 0.13297480E+00 0.52012515E+03</pdfrwt>
<pdfrwt beam="2">  1       -2 0.19130911E+00 0.52012515E+03</pdfrwt>
<totfact> 0.49944284E+00</totfact>
</mgrwt>
</event>
<event>
 4    1  0.2338029E-002  0.5221655E+03  0.7818608E-02  0.1008150E+00
         -2   -1    0    0    0  501 -0.00000000000E+00  0.00000000000E+00  0.19206249698E+03  0.19206249698E+03  0.00000000000E+00 0.  1.
          2   -1    0    0  502    0  0.00000000000E+00 -0.00000000000E+00 -0.14492064974E+04  0.14492064974E+04  0.00000000000E+00 0. -1.
    9000007    1    1    2  502    0 -0.29388892140E+03 -0.16212976768E+03 -0.51132728383E+03  0.73082990557E+03  0.40000000000E+03 0.  1.
   -9000007    1    1    2    0  501  0.29388892140E+03  0.16212976768E+03 -0.74581671661E+03  0.91043908883E+03  0.40000000000E+03 0. -1.
<mgrwt>
<rscale>  2 0.52216545E+03</rscale>
<asrwt>0</asrwt>
<pdfrwt beam="1">  1        2 0.22295485E+00 0.52216545E+03</pdfrwt>
<pdfrwt beam="2">  1       -2 0.29548075E-01 0.52216545E+03</pdfrwt>
<totfact> 0.14848675E+02</totfact>
</mgrwt>
</event>
<event>
 4    1  0.2338029E-002  0.4182956E+03  0.7818608E-02  0.1037622E+00
          1   -1    0    0  502    0  0.00000000000E+00  0.00000000000E+00  0.21044103175E+04  0.21044103175E+04  0.00000000000E+00 0.  1.
         -1   -1    0    0    0  501 -0.00000000000E+00 -0.00000000000E+00 -0.95872243799E+02  0.95872243799E+02  0.00000000000E+00 0. -1.
    9000007    1    1    2  502    0  0.54389964385E+02  0.10960350086E+03  0.60343074878E+03  0.73423420255E+03  0.40000000000E+03 0.  1.
   -9000007    1    1    2    0  501 -0.54389964385E+02 -0.10960350086E+03  0.14051073249E+04  0.14660483587E+04  0.40000000000E+03 0. -1.
<mgrwt>
<rscale>  2 0.41829558E+03</rscale>
<asrwt>0</asrwt>
<pdfrwt beam="1">  1        1 0.32375540E+00 0.41829558E+03</pdfrwt>
<pdfrwt beam="2">  1       -1 0.14749578E-01 0.41829558E+03</pdfrwt>
<totfact> 0.92516773E+01</totfact>
</mgrwt>
</event>
<event>
 4    1  0.2338029E-002  0.4969446E+03  0.7818608E-02  0.1014580E+00
          2   -1    0    0  502    0  0.00000000000E+00  0.00000000000E+00  0.19623948242E+04  0.19623948242E+04  0.00000000000E+00 0. -1.
         -2   -1    0    0    0  501 -0.00000000000E+00 -0.00000000000E+00 -0.26912858930E+03  0.26912858930E+03  0.00000000000E+00 0.  1.
    9000007    1    1    2  502    0  0.16601910046E+03 -0.24370395894E+03  0.16607608575E+04  0.17335168264E+04  0.40000000000E+03 0. -1.
   -9000007    1    1    2    0  501 -0.16601910046E+03  0.24370395894E+03  0.32505377403E+02  0.49800658718E+03  0.40000000000E+03 0.  1.
<mgrwt>
<rscale>  2 0.49694463E+03</rscale>
<asrwt>0</asrwt>
<pdfrwt beam="1">  1        2 0.30190689E+00 0.49694463E+03</pdfrwt>
<pdfrwt beam="2">  1       -2 0.41404400E-01 0.49694463E+03</pdfrwt>
<totfact> 0.41482447E+01</totfact>
</mgrwt>
</event>
<event>
 4    1  0.2338029E-002  0.4256574E+03  0.7818608E-02  0.1035241E+00
         -2   -1    0    0    0  501 -0.00000000000E+00  0.00000000000E+00  0.55519274071E+02  0.55519274071E+02  0.00000000000E+00 0.  1.
          2   -1    0    0  502    0  0.00000000000E+00 -0.00000000000E+00 -0.32818402966E+04  0.32818402966E+04  0.00000000000E+00 0. -1.
    9000007    1    1    2  502    0  0.58687069258E+02  0.13319189821E+03 -0.14882398115E+04  0.15479153692E+04  0.40000000000E+03 0.  1.
   -9000007    1    1    2    0  501 -0.58687069258E+02 -0.13319189821E+03 -0.17380812111E+04  0.17894442015E+04  0.40000000000E+03 0.  1.
<mgrwt>
<rscale>  2 0.42565744E+03</rscale>
<asrwt>0</asrwt>
<pdfrwt beam="1">  1        2 0.50489856E+00 0.42565744E+03</pdfrwt>
<pdfrwt beam="2">  1       -2 0.85414259E-02 0.42565744E+03</pdfrwt>
<totfact> 0.11447491E+02</totfact>
</mgrwt>
</event>
<event>
 4    1  0.2338029E-002  0.4246112E+03  0.7818608E-02  0.1035576E+00
          2   -1    0    0  502    0  0.00000000000E+00  0.00000000000E+00  0.26939021867E+04  0.26939021867E+04  0.00000000000E+00 0.  1.
         -2   -1    0    0    0  501 -0.00000000000E+00 -0.00000000000E+00 -0.70809677266E+02  0.70809677266E+02  0.00000000000E+00 0. -1.
    9000007    1    1    2  502    0  0.47602829478E+02  0.13427087075E+03  0.16352451393E+04  0.16894736937E+04  0.40000000000E+03 0.  1.
   -9000007    1    1    2    0  501 -0.47602829478E+02 -0.13427087075E+03  0.98784737009E+03  0.10752381702E+04  0.40000000000E+03 0.  1.
<mgrwt>
<rscale>  2 0.42461123E+03</rscale>
<asrwt>0</asrwt>
<pdfrwt beam="1">  1        2 0.41444641E+00 0.42461123E+03</pdfrwt>
<pdfrwt beam="2">  1       -2 0.10893799E-01 0.42461123E+03</pdfrwt>
<totfact> 0.17487296E+02</totfact>
</mgrwt>
</event>
<event>
 4    1  0.2338029E-002  0.4187793E+03  0.7818608E-02  0.1037464E+00
          1   -1    0    0  502    0  0.00000000000E+00  0.00000000000E+00  0.17709426281E+03  0.17709426281E+03  0.00000000000E+00 0. -1.
         -1   -1    0    0    0  501 -0.00000000000E+00 -0.00000000000E+00 -0.10059423683E+04  0.10059423683E+04  0.00000000000E+00 0.  1.
    9000007    1    1    2  502    0  0.10856938869E+02 -0.12352413512E+03 -0.34065717831E+03  0.53983645506E+03  0.40000000000E+03 0.  1.
   -9000007    1    1    2    0  501 -0.10856938869E+02  0.12352413512E+03 -0.48819092716E+03  0.64320017602E+03  0.40000000000E+03 0.  1.
<mgrwt>
<rscale>  2 0.41877928E+03</rscale>
<asrwt>0</asrwt>
<pdfrwt beam="1">  1        1 0.27245271E-01 0.41877928E+03</pdfrwt>
<pdfrwt beam="2">  1       -1 0.15476037E+00 0.41877928E+03</pdfrwt>
<totfact> 0.58742455E+01</totfact>
</mgrwt>
</event>
<event>
 4    1  0.2338029E-002  0.4740334E+03  0.7818608E-02  0.1020788E+00
          1   -1    0    0  502    0  0.00000000000E+00  0.00000000000E+00  0.19847577226E+03  0.19847577226E+03  0.00000000000E+00 0. -1.
         -1   -1    0    0    0  501 -0.00000000000E+00 -0.00000000000E+00 -0.13726727561E+04  0.13726727561E+04  0.00000000000E+00 0.  1.
    9000007    1    1    2  502    0 -0.24940662247E+03  0.50039830590E+02 -0.25827199661E+03  0.53982596474E+03  0.40000000000E+03 0. -1.
   -9000007    1    1    2    0  501  0.24940662247E+03 -0.50039830590E+02 -0.91592498718E+03  0.10313225636E+04  0.40000000000E+03 0.  1.
<mgrwt>
<rscale>  2 0.47403338E+03</rscale>
<asrwt>0</asrwt>
<pdfrwt beam="1">  1        1 0.30534734E-01 0.47403338E+03</pdfrwt>
<pdfrwt beam="2">  1       -1 0.21118042E+00 0.47403338E+03</pdfrwt>
<totfact> 0.20166509E+01</totfact>
</mgrwt>
</event>
<event>
 4    1  0.2338029E-002  0.4696296E+03  0.7818608E-02  0.1022025E+00
         -1   -1    0    0    0  501 -0.00000000000E+00  0.00000000000E+00  0.12634897984E+03  0.12634897984E+03  0.00000000000E+00 0.  1.
          1   -1    0    0  502    0  0.00000000000E+00 -0.00000000000E+00 -0.17495445746E+04  0.17495445746E+04  0.00000000000E+00 0. -1.
    9000007    1    1    2  502    0  0.79495109970E+02  0.23287872533E+03 -0.76693613334E+03  0.89930139878E+03  0.40000000000E+03 0.  1.
   -9000007    1    1    2    0  501 -0.79495109970E+02 -0.23287872533E+03 -0.85625946139E+03  0.97659215563E+03  0.40000000000E+03 0.  1.
<mgrwt>
<rscale>  2 0.46962961E+03</rscale>
<asrwt>0</asrwt>
<pdfrwt beam="1">  1        1 0.26916068E+00 0.46962961E+03</pdfrwt>
<pdfrwt beam="2">  1       -1 0.19438306E-01 0.46962961E+03</pdfrwt>
<totfact> 0.10036899E+02</totfact>
</mgrwt>
</event>
<event>
 4    1  0.2338029E-002  0.5078611E+03  0.7818608E-02  0.1011747E+00
         -2   -1    0    0    0  501 -0.00000000000E+00  0.00000000000E+00  0.12730092763E+03  0.12730092763E+03  0.00000000000E+00 0.  1.
          2   -1    0    0  502    0  0.00000000000E+00 -0.00000000000E+00 -0.20750705525E+04  0.20750705525E+04  0.00000000000E+00 0. -1.
    9000007    1    1    2  502    0 -0.24164078103E+03  0.19882809396E+03 -0.11430710317E+04  0.12508134400E+04  0.40000000000E+03 0. -1.
   -9000007    1    1    2    0  501  0.24164078103E+03 -0.19882809396E+03 -0.80469859314E+03  0.95155804017E+03  0.40000000000E+03 0. -1.
<mgrwt>
<rscale>  2 0.50786108E+03</rscale>
<asrwt>0</asrwt>
<pdfrwt beam="1">  1        2 0.31924160E+00 0.50786108E+03</pdfrwt>
<pdfrwt beam="2">  1       -2 0.19584760E-01 0.50786108E+03</pdfrwt>
<totfact> 0.14198422E+02</totfact>
</mgrwt>
</event>
<event>
 4    1  0.2338029E-002  0.4444649E+03  0.7818608E-02  0.1029386E+00
         -1   -1    0    0    0  501 -0.00000000000E+00  0.00000000000E+00  0.40615972642E+03  0.40615972642E+03  0.00000000000E+00 0. -1.
          1   -1    0    0  502    0  0.00000000000E+00 -0.00000000000E+00 -0.64432598481E+03  0.64432598481E+03  0.00000000000E+00 0.  1.
    9000007    1    1    2  502    0  0.10283177469E+03 -0.16423975496E+03 -0.37913374784E+03  0.58420156602E+03  0.40000000000E+03 0.  1.
   -9000007    1    1    2    0  501 -0.10283177469E+03  0.16423975496E+03  0.14096748944E+03  0.46628414521E+03  0.40000000000E+03 0. -1.
<mgrwt>
<rscale>  2 0.44446493E+03</rscale>
<asrwt>0</asrwt>
<pdfrwt beam="1">  1        1 0.99127075E-01 0.44446493E+03</pdfrwt>
<pdfrwt beam="2">  1       -1 0.62486112E-01 0.44446493E+03</pdfrwt>
<totfact> 0.84172057E+01</totfact>
</mgrwt>
</event>
<event>
 4    1  0.2338029E-002  0.4220796E+03  0.7818608E-02  0.1036392E+00
          1   -1    0    0  502    0  0.00000000000E+00  0.00000000000E+00  0.19738753550E+04  0.19738753550E+04  0.00000000000E+00 0. -1.
         -1   -1    0    0    0  501 -0.00000000000E+00 -0.00000000000E+00 -0.10359702459E+03  0.10359702459E+03  0.00000000000E+00 0.  1.
    9000007    1    1    2  502    0  0.10189548696E+03 -0.88139314248E+02  0.56236153932E+03  0.70313706337E+03  0.40000000000E+03 0.  1.
   -9000007    1    1    2    0  501 -0.10189548696E+03  0.88139314248E+02  0.13079167911E+04  0.13743353163E+04  0.40000000000E+03 0. -1.
<mgrwt>
<rscale>  2 0.42207965E+03</rscale>
<asrwt>0</asrwt>
<pdfrwt beam="1">  1        1 0.30367310E+00 0.42207965E+03</pdfrwt>
<pdfrwt beam="2">  1       -1 0.15938005E-01 0.42207965E+03</pdfrwt>
<totfact> 0.99463768E+01</totfact>
</mgrwt>
</event>
<event>
 4    1  0.2338029E-002  0.5117251E+03  0.7818608E-02  0.1010763E+00
         -2   -1    0    0    0  501 -0.00000000000E+00  0.00000000000E+00  0.10666765904E+03  0.10666765904E+03  0.00000000000E+00 0. -1.
          2   -1    0    0  502    0  0.00000000000E+00 -0.00000000000E+00 -0.24910210807E+04  0.24910210807E+04  0.00000000000E+00 0.  1.
    9000007    1    1    2  502    0  0.87724466353E+02  0.30686645833E+03 -0.13484964036E+04  0.14423263001E+04  0.40000000000E+03 0. -1.
   -9000007    1    1    2    0  501 -0.87724466353E+02 -0.30686645833E+03 -0.10358570180E+04  0.11553624397E+04  0.40000000000E+03 0.  1.
<mgrwt>
<rscale>  2 0.51172513E+03</rscale>
<asrwt>0</asrwt>
<pdfrwt beam="1">  1        2 0.38323403E+00 0.51172513E+03</pdfrwt>
<pdfrwt beam="2">  1       -2 0.16410408E-01 0.51172513E+03</pdfrwt>
<totfact> 0.11363136E+02</totfact>
</mgrwt>
</event>
<event>
 4    1  0.2338029E-002  0.6340737E+03  0.7818608E-02  0.9837131E-01
          1   -1    0    0  502    0  0.00000000000E+00  0.00000000000E+00  0.96774490088E+03  0.96774490088E+03  0.00000000000E+00 0.  1.
         -1   -1    0    0    0  501 -0.00000000000E+00 -0.00000000000E+00 -0.50142258472E+03  0.50142258472E+03  0.00000000000E+00 0. -1.
    9000007    1    1    2  502    0  0.31582545863E+03  0.37723165147E+03 -0.71011258674E+02  0.63803764626E+03  0.40000000000E+03 0. -1.
   -9000007    1    1    2    0  501 -0.31582545863E+03 -0.37723165147E+03  0.53733357483E+03  0.83112983933E+03  0.40000000000E+03 0.  1.
<mgrwt>
<rscale>  2 0.63407369E+03</rscale>
<asrwt>0</asrwt>
<pdfrwt beam="1">  1        1 0.14888383E+00 0.63407369E+03</pdfrwt>
<pdfrwt beam="2">  1       -1 0.77141936E-01 0.63407369E+03</pdfrwt>
<totfact> 0.28164651E+01</totfact>
</mgrwt>
</event>
<event>
 4    1  0.2338029E-002  0.4541711E+03  0.7818608E-02  0.1026485E+00
          1   -1    0    0  502    0  0.00000000000E+00  0.00000000000E+00  0.16978087185E+04  0.16978087185E+04  0.00000000000E+00 0.  1.
         -1   -1    0    0    0  501 -0.00000000000E+00 -0.00000000000E+00 -0.12389204145E+03  0.12389204145E+03  0.00000000000E+00 0. -1.
    9000007    1    1    2  502    0  0.18114054533E+03  0.11601498950E+03  0.91371501774E+03  0.10203658700E+04  0.40000000000E+03 0.  1.
   -9000007    1    1    2    0  501 -0.18114054533E+03 -0.11601498950E+03  0.66020165935E+03  0.80133489002E+03  0.40000000000E+03 0.  1.
<mgrwt>
<rscale>  2 0.45417109E+03</rscale>
<asrwt>0</asrwt>
<pdfrwt beam="1">  1        1 0.26120132E+00 0.45417109E+03</pdfrwt>
<pdfrwt beam="2">  1       -1 0.19060315E-01 0.45417109E+03</pdfrwt>
<totfact> 0.11245603E+02</totfact>
</mgrwt>
</event>
<event>
 4    1  0.2338029E-002  0.4915483E+03  0.7818608E-02  0.1016009E+00
         -1   -1    0    0    0  501 -0.00000000000E+00  0.00000000000E+00  0.42086776013E+03  0.42086776013E+03  0.00000000000E+00 0.  1.
          1   -1    0    0  502    0  0.00000000000E+00 -0.00000000000E+00 -0.75654847983E+03  0.75654847983E+03  0.00000000000E+00 0. -1.
    9000007    1    1    2  502    0 -0.19375723599E+03 -0.20994720918E+03 -0.45694371889E+03  0.67113132796E+03  0.40000000000E+03 0.  1.
   -9000007    1    1    2    0  501  0.19375723599E+03  0.20994720918E+03  0.12126299918E+03  0.50628491199E+03  0.40000000000E+03 0.  1.
<mgrwt>
<rscale>  2 0.49154827E+03</rscale>
<asrwt>0</asrwt>
<pdfrwt beam="1">  1        1 0.11639207E+00 0.49154827E+03</pdfrwt>
<pdfrwt beam="2">  1       -1 0.64748887E-01 0.49154827E+03</pdfrwt>
<totfact> 0.61369776E+01</totfact>
</mgrwt>
</event>
<event>
 4    1  0.2338029E-002  0.5073559E+03  0.7818608E-02  0.1011877E+00
         -2   -1    0    0    0  501 -0.00000000000E+00  0.00000000000E+00  0.35057364861E+03  0.35057364861E+03  0.00000000000E+00 0.  1.
          2   -1    0    0  502    0  0.00000000000E+00 -0.00000000000E+00 -0.77218777543E+03  0.77218777543E+03  0.00000000000E+00 0. -1.
    9000007    1    1    2  502    0 -0.23070144207E+02 -0.31125193449E+03 -0.33523296123E+03  0.60810454412E+03  0.40000000000E+03 0. -1.
   -9000007    1    1    2    0  501  0.23070144207E+02  0.31125193449E+03 -0.86381165582E+02  0.51465687992E+03  0.40000000000E+03 0. -1.
<mgrwt>
<rscale>  2 0.50735589E+03</rscale>
<asrwt>0</asrwt>
<pdfrwt beam="1">  1        2 0.11879812E+00 0.50735589E+03</pdfrwt>
<pdfrwt beam="2">  1       -2 0.53934408E-01 0.50735589E+03</pdfrwt>
<totfact> 0.12037544E+02</totfact>
</mgrwt>
</event>
<event>
 4    1  0.2338029E-002  0.5055845E+03  0.7818608E-02  0.1012331E+00
          4   -1    0    0  502    0  0.00000000000E+00  0.00000000000E+00  0.11139471508E+04  0.11139471508E+04  0.00000000000E+00 0.  1.
         -4   -1    0    0    0  501 -0.00000000000E+00 -0.00000000000E+00 -0.29327600072E+03  0.29327600072E+03  0.00000000000E+00 0. -1.
    9000007    1    1    2  502    0 -0.30487026546E+03 -0.51670595678E+02  0.73852965333E+03  0.89500937317E+03  0.40000000000E+03 0.  1.
   -9000007    1    1    2    0  501  0.30487026546E+03  0.51670595678E+02  0.82141496727E+02  0.51221377832E+03  0.40000000000E+03 0. -1.
<mgrwt>
<rscale>  2 0.50558454E+03</rscale>
<asrwt>0</asrwt>
<pdfrwt beam="1">  1        4 0.17137648E+00 0.50558454E+03</pdfrwt>
<pdfrwt beam="2">  1       -4 0.45119385E-01 0.50558454E+03</pdfrwt>
<totfact> 0.19431411E+00</totfact>
</mgrwt>
</event>
<event>
 4    1  0.2338029E-002  0.6004262E+03  0.7818608E-02  0.9904522E-01
          1   -1    0    0  502    0  0.00000000000E+00  0.00000000000E+00  0.68625206651E+03  0.68625206651E+03  0.00000000000E+00 0.  1.
         -1   -1    0    0    0  501 -0.00000000000E+00 -0.00000000000E+00 -0.58642107355E+03  0.58642107355E+03  0.00000000000E+00 0. -1.
    9000007    1    1    2  502    0 -0.46094423453E+02 -0.44540646771E+03 -0.15546366382E+03  0.62022622334E+03  0.40000000000E+03 0. -1.
   -9000007    1    1    2    0  501  0.46094423453E+02  0.44540646771E+03  0.25529465678E+03  0.65244691672E+03  0.40000000000E+03 0.  1.
<mgrwt>
<rscale>  2 0.60042620E+03</rscale>
<asrwt>0</asrwt>
<pdfrwt beam="1">  1        1 0.10557724E+00 0.60042620E+03</pdfrwt>
<pdfrwt beam="2">  1       -1 0.90218626E-01 0.60042620E+03</pdfrwt>
<totfact> 0.35122188E+01</totfact>
</mgrwt>
</event>
<event>
 4    1  0.2338029E-002  0.9828350E+03  0.7818608E-02  0.9327574E-01
          1   -1    0    0  502    0  0.00000000000E+00  0.00000000000E+00  0.13744975390E+04  0.13744975390E+04  0.00000000000E+00 0. -1.
         -1   -1    0    0    0  501 -0.00000000000E+00 -0.00000000000E+00 -0.85905212600E+03  0.85905212600E+03  0.00000000000E+00 0.  1.
    9000007    1    1    2  502    0 -0.42642709863E+03 -0.79001552807E+03  0.73404559140E+03  0.12266978174E+04  0.40000000000E+03 0. -1.
   -9000007    1    1    2    0  501  0.42642709863E+03  0.79001552807E+03 -0.21860017837E+03  0.10068518476E+04  0.40000000000E+03 0.  1.
<mgrwt>
<rscale>  2 0.98283498E+03</rscale>
<asrwt>0</asrwt>
<pdfrwt beam="1">  1        1 0.21146116E+00 0.98283498E+03</pdfrwt>
<pdfrwt beam="2">  1       -1 0.13216187E+00 0.98283498E+03</pdfrwt>
<totfact> 0.39201117E+00</totfact>
</mgrwt>
</event>
<event>
 4    1  0.2338029E-002  0.4204532E+03  0.7818608E-02  0.1036919E+00
         -2   -1    0    0    0  501 -0.00000000000E+00  0.00000000000E+00  0.13859282177E+03  0.13859282177E+03  0.00000000000E+00 0. -1.
          2   -1    0    0  502    0  0.00000000000E+00 -0.00000000000E+00 -0.13643365755E+04  0.13643365755E+04  0.00000000000E+00 0.  1.
    9000007    1    1    2  502    0 -0.17659950963E+02  0.12833157594E+03 -0.42116276012E+03  0.59511254210E+03  0.40000000000E+03 0. -1.
   -9000007    1    1    2    0  501  0.17659950963E+02 -0.12833157594E+03 -0.80458099363E+03  0.90781685519E+03  0.40000000000E+03 0. -1.
<mgrwt>
<rscale>  2 0.42045317E+03</rscale>
<asrwt>0</asrwt>
<pdfrwt beam="1">  1        2 0.20989794E+00 0.42045317E+03</pdfrwt>
<pdfrwt beam="2">  1       -2 0.21321972E-01 0.42045317E+03</pdfrwt>
<totfact> 0.30039635E+02</totfact>
</mgrwt>
</event>
<event>
 4    1  0.2338029E-002  0.4185460E+03  0.7818608E-02  0.1037541E+00
          2   -1    0    0  502    0  0.00000000000E+00  0.00000000000E+00  0.36231537216E+04  0.36231537216E+04  0.00000000000E+00 0. -1.
         -2   -1    0    0    0  501 -0.00000000000E+00 -0.00000000000E+00 -0.63395089911E+02  0.63395089911E+02  0.00000000000E+00 0.  1.
    9000007    1    1    2  502    0 -0.72117238013E+02  0.99899084035E+02  0.88192419067E+03  0.97620233615E+03  0.40000000000E+03 0.  1.
   -9000007    1    1    2    0  501  0.72117238013E+02 -0.99899084035E+02  0.26778344410E+04  0.27103464753E+04  0.40000000000E+03 0. -1.
<mgrwt>
<rscale>  2 0.41854596E+03</rscale>
<asrwt>0</asrwt>
<pdfrwt beam="1">  1        2 0.55740810E+00 0.41854596E+03</pdfrwt>
<pdfrwt beam="2">  1       -2 0.97530936E-02 0.41854596E+03</pdfrwt>
<totfact> 0.55045621E+01</totfact>
</mgrwt>
</event>
<event>
 4    1  0.2338029E-002  0.4462916E+03  0.7818608E-02  0.1028834E+00
          2   -1    0    0  502    0  0.00000000000E+00  0.00000000000E+00  0.28001711166E+04  0.28001711166E+04  0.00000000000E+00 0. -1.
         -2   -1    0    0    0  501 -0.00000000000E+00 -0.00000000000E+00 -0.71778504753E+02  0.71778504753E+02  0.00000000000E+00 0.  1.
    9000007    1    1    2  502    0 -0.15279106674E+03  0.12582171804E+03  0.12277062461E+04  0.13063073305E+04  0.40000000000E+03 0.  1.
   -9000007    1    1    2    0  501  0.15279106674E+03 -0.12582171804E+03  0.15006863657E+04  0.15656422909E+04  0.40000000000E+03 0. -1.
<mgrwt>
<rscale>  2 0.44629163E+03</rscale>
<asrwt>0</asrwt>
<pdfrwt beam="1">  1        2 0.43079547E+00 0.44629163E+03</pdfrwt>
<pdfrwt beam="2">  1       -2 0.11042849E-01 0.44629163E+03</pdfrwt>
<totfact> 0.14792654E+02</totfact>
</mgrwt>
</event>
<event>
 4    1  0.2338029E-002  0.4179034E+03  0.7818608E-02  0.1037751E+00
         -2   -1    0    0    0  501 -0.00000000000E+00  0.00000000000E+00  0.60892366759E+02  0.60892366759E+02  0.00000000000E+00 0.  1.
          2   -1    0    0  502    0  0.00000000000E+00 -0.00000000000E+00 -0.28702694180E+04  0.28702694180E+04  0.00000000000E+00 0. -1.
    9000007    1    1    2  502    0 -0.10617709846E+02  0.12054243053E+03 -0.13640647364E+04  0.14266449518E+04  0.40000000000E+03 0.  1.
   -9000007    1    1    2    0  501  0.10617709846E+02 -0.12054243053E+03 -0.14453123149E+04  0.15045168330E+04  0.40000000000E+03 0.  1.
<mgrwt>
<rscale>  2 0.41790335E+03</rscale>
<asrwt>0</asrwt>
<pdfrwt beam="1">  1        2 0.44157997E+00 0.41790335E+03</pdfrwt>
<pdfrwt beam="2">  1       -2 0.93680552E-02 0.41790335E+03</pdfrwt>
<totfact> 0.17652838E+02</totfact>
</mgrwt>
</event>
<event>
 4    1  0.2338029E-002  0.4162092E+03  0.7818608E-02  0.1038307E+00
         -2   -1    0    0    0  501 -0.00000000000E+00  0.00000000000E+00  0.16666717316E+03  0.16666717316E+03  0.00000000000E+00 0.  1.
          2   -1    0    0  502    0  0.00000000000E+00 -0.00000000000E+00 -0.15469665520E+04  0.15469665520E+04  0.00000000000E+00 0. -1.
    9000007    1    1    2  502    0  0.11501668731E+03 -0.11207282674E+01 -0.19935064795E+03  0.46148756779E+03  0.40000000000E+03 0.  1.
   -9000007    1    1    2    0  501 -0.11501668731E+03  0.11207282674E+01 -0.11809487309E+04  0.12521461574E+04  0.40000000000E+03 0. -1.
<mgrwt>
<rscale>  2 0.41620920E+03</rscale>
<asrwt>0</asrwt>
<pdfrwt beam="1">  1        2 0.23799486E+00 0.41620920E+03</pdfrwt>
<pdfrwt beam="2">  1       -2 0.25641103E-01 0.41620920E+03</pdfrwt>
<totfact> 0.17214906E+02</totfact>
</mgrwt>
</event>
<event>
 4    1  0.2338029E-002  0.4061387E+03  0.7818608E-02  0.1041675E+00
         -1   -1    0    0    0  501 -0.00000000000E+00  0.00000000000E+00  0.87725841011E+02  0.87725841011E+02  0.00000000000E+00 0.  1.
          1   -1    0    0  502    0  0.00000000000E+00 -0.00000000000E+00 -0.21286310138E+04  0.21286310138E+04  0.00000000000E+00 0. -1.
    9000007    1    1    2  502    0  0.59927005219E+02 -0.36842360023E+02 -0.64192473599E+03  0.75961567396E+03  0.40000000000E+03 0. -1.
   -9000007    1    1    2    0  501 -0.59927005219E+02  0.36842360023E+02 -0.13989804368E+04  0.14567411809E+04  0.40000000000E+03 0. -1.
<mgrwt>
<rscale>  2 0.40613865E+03</rscale>
<asrwt>0</asrwt>
<pdfrwt beam="1">  1        1 0.32748168E+00 0.40613865E+03</pdfrwt>
<pdfrwt beam="2">  1       -1 0.13496284E-01 0.40613865E+03</pdfrwt>
<totfact> 0.10303222E+02</totfact>
</mgrwt>
</event>
<event>
 4    1  0.2338029E-002  0.7085750E+03  0.7818608E-02  0.9702679E-01
          2   -1    0    0  502    0  0.00000000000E+00  0.00000000000E+00  0.46263968878E+03  0.46263968878E+03  0.00000000000E+00 0.  1.
         -2   -1    0    0    0  501 -0.00000000000E+00 -0.00000000000E+00 -0.10907902012E+04  0.10907902012E+04  0.00000000000E+00 0. -1.
    9000007    1    1    2  502    0  0.58466981329E+03 -0.15483981008E+02 -0.25870792434E+03  0.75432641101E+03  0.40000000000E+03 0.  1.
   -9000007    1    1    2    0  501 -0.58466981329E+03  0.15483981008E+02 -0.36944258809E+03  0.79910347899E+03  0.40000000000E+03 0. -1.
<mgrwt>
<rscale>  2 0.70857501E+03</rscale>
<asrwt>0</asrwt>
<pdfrwt beam="1">  1        2 0.71175338E-01 0.70857501E+03</pdfrwt>
<pdfrwt beam="2">  1       -2 0.16781387E+00 0.70857501E+03</pdfrwt>
<totfact> 0.15167288E+01</totfact>
</mgrwt>
</event>
<event>
 4    1  0.2338029E-002  0.4194858E+03  0.7818608E-02  0.1037234E+00
          3   -1    0    0  502    0  0.00000000000E+00  0.00000000000E+00  0.50236010832E+03  0.50236010832E+03  0.00000000000E+00 0. -1.
         -3   -1    0    0    0  501 -0.00000000000E+00 -0.00000000000E+00 -0.46346894340E+03  0.46346894340E+03  0.00000000000E+00 0.  1.
    9000007    1    1    2  502    0 -0.81229041629E+02  0.96799640441E+02 -0.21920128196E+03  0.47330490131E+03  0.40000000000E+03 0.  1.
   -9000007    1    1    2    0  501  0.81229041629E+02 -0.96799640441E+02  0.25809244689E+03  0.49252415041E+03  0.40000000000E+03 0. -1.
<mgrwt>
<rscale>  2 0.41948579E+03</rscale>
<asrwt>0</asrwt>
<pdfrwt beam="1">  1        3 0.77286171E-01 0.41948579E+03</pdfrwt>
<pdfrwt beam="2">  1       -3 0.71302914E-01 0.41948579E+03</pdfrwt>
<totfact> 0.76674855E+00</totfact>
</mgrwt>
</event>
<event>
 4    1  0.2338029E-002  0.5286944E+03  0.7818608E-02  0.1006549E+00
         -2   -1    0    0    0  501 -0.00000000000E+00  0.00000000000E+00  0.14144327286E+03  0.14144327286E+03  0.00000000000E+00 0. -1.
          2   -1    0    0  502    0  0.00000000000E+00 -0.00000000000E+00 -0.19989496674E+04  0.19989496674E+04  0.00000000000E+00 0.  1.
    9000007    1    1    2  502    0 -0.34516948455E+03  0.19385867008E+02 -0.10429654627E+04  0.11693137908E+04  0.40000000000E+03 0.  1.
   -9000007    1    1    2    0  501  0.34516948455E+03 -0.19385867008E+02 -0.81454093183E+03  0.97107914947E+03  0.40000000000E+03 0. -1.
<mgrwt>
<rscale>  2 0.52869442E+03</rscale>
<asrwt>0</asrwt>
<pdfrwt beam="1">  1        2 0.30753070E+00 0.52869442E+03</pdfrwt>
<pdfrwt beam="2">  1       -2 0.21760505E-01 0.52869442E+03</pdfrwt>
<totfact> 0.12946135E+02</totfact>
</mgrwt>
</event>
<event>
 4    1  0.2338029E-002  0.4621199E+03  0.7818608E-02  0.1024168E+00
          2   -1    0    0  502    0  0.00000000000E+00  0.00000000000E+00  0.44512940078E+03  0.44512940078E+03  0.00000000000E+00 0. -1.
         -2   -1    0    0    0  501 -0.00000000000E+00 -0.00000000000E+00 -0.63358832035E+03  0.63358832035E+03  0.00000000000E+00 0.  1.
    9000007    1    1    2  502    0 -0.17805513768E+03 -0.14782145147E+03  0.17153314311E+03  0.49292842559E+03  0.40000000000E+03 0. -1.
   -9000007    1    1    2    0  501  0.17805513768E+03  0.14782145147E+03 -0.35999206268E+03  0.58578929553E+03  0.40000000000E+03 0.  1.
<mgrwt>
<rscale>  2 0.46211991E+03</rscale>
<asrwt>0</asrwt>
<pdfrwt beam="1">  1        2 0.68481447E-01 0.46211991E+03</pdfrwt>
<pdfrwt beam="2">  1       -2 0.97475126E-01 0.46211991E+03</pdfrwt>
<totfact> 0.63836946E+01</totfact>
</mgrwt>
</event>
<event>
 4    1  0.2338029E-002  0.4355171E+03  0.7818608E-02  0.1032131E+00
          1   -1    0    0  502    0  0.00000000000E+00  0.00000000000E+00  0.20146454012E+04  0.20146454012E+04  0.00000000000E+00 0. -1.
         -1   -1    0    0    0  501 -0.00000000000E+00 -0.00000000000E+00 -0.16192734874E+03  0.16192734874E+03  0.00000000000E+00 0.  1.
    9000007    1    1    2  502    0 -0.69789508933E+02  0.15749453917E+03  0.22226387184E+03  0.48895432726E+03  0.40000000000E+03 0.  1.
   -9000007    1    1    2    0  501  0.69789508933E+02 -0.15749453917E+03  0.16304541807E+04  0.16876184227E+04  0.40000000000E+03 0. -1.
<mgrwt>
<rscale>  2 0.43551706E+03</rscale>
<asrwt>0</asrwt>
<pdfrwt beam="1">  1        1 0.30994543E+00 0.43551706E+03</pdfrwt>
<pdfrwt beam="2">  1       -1 0.24911901E-01 0.43551706E+03</pdfrwt>
<totfact> 0.44650314E+01</totfact>
</mgrwt>
</event>
<event>
 4    1  0.2338029E-002  0.4341639E+03  0.7818608E-02  0.1032553E+00
          2   -1    0    0  502    0  0.00000000000E+00  0.00000000000E+00  0.18518126431E+04  0.18518126431E+04  0.00000000000E+00 0.  1.
         -2   -1    0    0    0  501 -0.00000000000E+00 -0.00000000000E+00 -0.10634949409E+03  0.10634949409E+03  0.00000000000E+00 0. -1.
    9000007    1    1    2  502    0  0.15905120567E+03  0.56577084926E+02  0.10754305521E+04  0.11597625296E+04  0.40000000000E+03 0. -1.
   -9000007    1    1    2    0  501 -0.15905120567E+03 -0.56577084926E+02  0.67003259691E+03  0.79839960764E+03  0.40000000000E+03 0. -1.
<mgrwt>
<rscale>  2 0.43416385E+03</rscale>
<asrwt>0</asrwt>
<pdfrwt beam="1">  1        2 0.28489423E+00 0.43416385E+03</pdfrwt>
<pdfrwt beam="2">  1       -2 0.16361462E-01 0.43416385E+03</pdfrwt>
<totfact> 0.25726012E+02</totfact>
</mgrwt>
</event>
<event>
 4    1  0.2338029E-002  0.4531590E+03  0.7818608E-02  0.1026784E+00
          2   -1    0    0  502    0  0.00000000000E+00  0.00000000000E+00  0.24819239444E+04  0.24819239444E+04  0.00000000000E+00 0. -1.
         -2   -1    0    0    0  501 -0.00000000000E+00 -0.00000000000E+00 -0.82816555399E+02  0.82816555399E+02  0.00000000000E+00 0.  1.
    9000007    1    1    2  502    0 -0.16749525468E+03 -0.13152335994E+03  0.12386792417E+04  0.13189690361E+04  0.40000000000E+03 0. -1.
   -9000007    1    1    2    0  501  0.16749525468E+03  0.13152335994E+03  0.11604281474E+04  0.12457714637E+04  0.40000000000E+03 0.  1.
<mgrwt>
<rscale>  2 0.45315897E+03</rscale>
<asrwt>0</asrwt>
<pdfrwt beam="1">  1        2 0.38183440E+00 0.45315897E+03</pdfrwt>
<pdfrwt beam="2">  1       -2 0.12741010E-01 0.45315897E+03</pdfrwt>
<totfact> 0.17730847E+02</totfact>
</mgrwt>
</event>
<event>
 4    1  0.2338029E-002  0.4017323E+03  0.7818608E-02  0.1043181E+00
         -2   -1    0    0    0  501 -0.00000000000E+00  0.00000000000E+00  0.63442490050E+02  0.63442490050E+02  0.00000000000E+00 0.  1.
          2   -1    0    0  502    0  0.00000000000E+00 -0.00000000000E+00 -0.33874486523E+04  0.33874486523E+04  0.00000000000E+00 0. -1.
    9000007    1    1    2  502    0 -0.37253187859E+02 -0.10213477848E+01 -0.80094956436E+03  0.89605192249E+03  0.40000000000E+03 0.  1.
   -9000007    1    1    2    0  501  0.37253187859E+02  0.10213477848E+01 -0.25230565979E+04  0.25548392198E+04  0.40000000000E+03 0. -1.
<mgrwt>
<rscale>  2 0.40173230E+03</rscale>
<asrwt>0</asrwt>
<pdfrwt beam="1">  1        2 0.52114593E+00 0.40173230E+03</pdfrwt>
<pdfrwt beam="2">  1       -2 0.97603833E-02 0.40173230E+03</pdfrwt>
<totfact> 0.79547099E+01</totfact>
</mgrwt>
</event>
<event>
 4    1  0.2338029E-002  0.4590571E+03  0.7818608E-02  0.1025055E+00
         -2   -1    0    0    0  501 -0.00000000000E+00  0.00000000000E+00  0.28118389944E+03  0.28118389944E+03  0.00000000000E+00 0.  1.
          2   -1    0    0  502    0  0.00000000000E+00 -0.00000000000E+00 -0.14408260563E+04  0.14408260563E+04  0.00000000000E+00 0. -1.
    9000007    1    1    2  502    0  0.22239473097E+03 -0.35693791486E+02 -0.11762474542E+04  0.12626525796E+04  0.40000000000E+03 0. -1.
   -9000007    1    1    2    0  501 -0.22239473097E+03  0.35693791486E+02  0.16605297406E+02  0.45935737614E+03  0.40000000000E+03 0.  1.
<mgrwt>
<rscale>  2 0.45905715E+03</rscale>
<asrwt>0</asrwt>
<pdfrwt beam="1">  1        2 0.22166554E+00 0.45905715E+03</pdfrwt>
<pdfrwt beam="2">  1       -2 0.43259062E-01 0.45905715E+03</pdfrwt>
<totfact> 0.73374915E+01</totfact>
</mgrwt>
</event>
<event>
 4    1  0.2338029E-002  0.5206004E+03  0.7818608E-02  0.1008538E+00
          1   -1    0    0  502    0  0.00000000000E+00  0.00000000000E+00  0.67478712664E+03  0.67478712664E+03  0.00000000000E+00 0.  1.
         -1   -1    0    0    0  501 -0.00000000000E+00 -0.00000000000E+00 -0.40870614534E+03  0.40870614534E+03  0.00000000000E+00 0. -1.
    9000007    1    1    2  502    0  0.15879771733E+03 -0.29293019814E+03  0.61832140291E+02  0.52425950596E+03  0.40000000000E+03 0. -1.
   -9000007    1    1    2    0  501 -0.15879771733E+03  0.29293019814E+03  0.20424884101E+03  0.55923376603E+03  0.40000000000E+03 0. -1.
<mgrwt>
<rscale>  2 0.52060044E+03</rscale>
<asrwt>0</asrwt>
<pdfrwt beam="1">  1        1 0.10381340E+00 0.52060044E+03</pdfrwt>
<pdfrwt beam="2">  1       -1 0.62877868E-01 0.52060044E+03</pdfrwt>
<totfact> 0.77001751E+01</totfact>
</mgrwt>
</event>
<event>
 4    1  0.2338029E-002  0.4022229E+03  0.7818608E-02  0.1043013E+00
         -1   -1    0    0    0  501 -0.00000000000E+00  0.00000000000E+00  0.11542534424E+03  0.11542534424E+03  0.00000000000E+00 0.  1.
          1   -1    0    0  502    0  0.00000000000E+00 -0.00000000000E+00 -0.14860626198E+04  0.14860626198E+04  0.00000000000E+00 0. -1.
    9000007    1    1    2  502    0  0.40184893638E+02 -0.12976953381E+02 -0.49444799577E+03  0.63738688998E+03  0.40000000000E+03 0.  1.
   -9000007    1    1    2    0  501 -0.40184893638E+02  0.12976953381E+02 -0.87618927980E+03  0.96410107407E+03  0.40000000000E+03 0. -1.
<mgrwt>
<rscale>  2 0.40222286E+03</rscale>
<asrwt>0</asrwt>
<pdfrwt beam="1">  1        1 0.22862503E+00 0.40222286E+03</pdfrwt>
<pdfrwt beam="2">  1       -1 0.17757744E-01 0.40222286E+03</pdfrwt>
<totfact> 0.17621429E+02</totfact>
</mgrwt>
</event>
<event>
 4    1  0.2338029E-002  0.4300103E+03  0.7818608E-02  0.1033857E+00
         -2   -1    0    0    0  501 -0.00000000000E+00  0.00000000000E+00  0.84459787624E+03  0.84459787624E+03  0.00000000000E+00 0. -1.
          2   -1    0    0  502    0  0.00000000000E+00 -0.00000000000E+00 -0.22126196455E+03  0.22126196455E+03  0.00000000000E+00 0.  1.
    9000007    1    1    2  502    0 -0.15779515380E+03  0.30895773262E+01  0.25697106112E+03  0.50094209476E+03  0.40000000000E+03 0.  1.
   -9000007    1    1    2    0  501  0.15779515380E+03 -0.30895773262E+01  0.36636485057E+03  0.56491774603E+03  0.40000000000E+03 0. -1.
<mgrwt>
<rscale>  2 0.43001030E+03</rscale>
<asrwt>0</asrwt>
<pdfrwt beam="1">  1        2 0.34040303E-01 0.43001030E+03</pdfrwt>
<pdfrwt beam="2">  1       -2 0.12993813E+00 0.43001030E+03</pdfrwt>
<totfact> 0.69103777E+01</totfact>
</mgrwt>
</event>
<event>
 4    1  0.2338029E-002  0.5909942E+03  0.7818608E-02  0.9924268E-01
         -3   -1    0    0    0  501 -0.00000000000E+00  0.00000000000E+00  0.13850597643E+04  0.13850597643E+04  0.00000000000E+00 0.  1.
          3   -1    0    0  502    0  0.00000000000E+00 -0.00000000000E+00 -0.33520171847E+03  0.33520171847E+03  0.00000000000E+00 0. -1.
    9000007    1    1    2  502    0 -0.42889868572E+03  0.72938958329E+02  0.96847516501E+02  0.59887696208E+03  0.40000000000E+03 0. -1.
   -9000007    1    1    2    0  501  0.42889868572E+03 -0.72938958329E+02  0.95301052937E+03  0.11213845207E+04  0.40000000000E+03 0.  1.
<mgrwt>
<rscale>  2 0.59099423E+03</rscale>
<asrwt>0</asrwt>
<pdfrwt beam="1">  1        3 0.51569496E-01 0.59099423E+03</pdfrwt>
<pdfrwt beam="2">  1       -3 0.21308611E+00 0.59099423E+03</pdfrwt>
<totfact> 0.11949157E+00</totfact>
</mgrwt>
</event>
<event>
 4    1  0.2338029E-002  0.4351141E+03  0.7818608E-02  0.1032257E+00
          2   -1    0    0  502    0  0.00000000000E+00  0.00000000000E+00  0.22152894875E+04  0.22152894875E+04  0.00000000000E+00 0.  1.
         -2   -1    0    0    0  501 -0.00000000000E+00 -0.00000000000E+00 -0.10471527299E+03  0.10471527299E+03  0.00000000000E+00 0. -1.
    9000007    1    1    2  502    0  0.17124186351E+03 -0.69876306097E+00  0.15526805683E+04  0.16124953369E+04  0.40000000000E+03 0.  1.
   -9000007    1    1    2    0  501 -0.17124186351E+03  0.69876306097E+00  0.55789364613E+03  0.70750942360E+03  0.40000000000E+03 0. -1.
<mgrwt>
<rscale>  2 0.43511408E+03</rscale>
<asrwt>0</asrwt>
<pdfrwt beam="1">  1        2 0.34081373E+00 0.43511408E+03</pdfrwt>
<pdfrwt beam="2">  1       -2 0.16110044E-01 0.43511408E+03</pdfrwt>
<totfact> 0.16844956E+02</totfact>
</mgrwt>
</event>
<event>
 4    1  0.2338029E-002  0.8491604E+03  0.7818608E-02  0.9491464E-01
          1   -1    0    0  502    0  0.00000000000E+00  0.00000000000E+00  0.13215880104E+04  0.13215880104E+04  0.00000000000E+00 0.  1.
         -1   -1    0    0    0  501 -0.00000000000E+00 -0.00000000000E+00 -0.56874218337E+03  0.56874218337E+03  0.00000000000E+00 0. -1.
    9000007    1    1    2  502    0 -0.61082973979E+03  0.43354410401E+03  0.18581308424E+03  0.86925253144E+03  0.40000000000E+03 0. -1.
   -9000007    1    1    2    0  501  0.61082973979E+03 -0.43354410401E+03  0.56703274281E+03  0.10210776624E+04  0.40000000000E+03 0.  1.
<mgrwt>
<rscale>  2 0.84916044E+03</rscale>
<asrwt>0</asrwt>
<pdfrwt beam="1">  1        1 0.20332123E+00 0.84916044E+03</pdfrwt>
<pdfrwt beam="2">  1       -1 0.87498798E-01 0.84916044E+03</pdfrwt>
<totfact> 0.11464778E+01</totfact>
</mgrwt>
</event>
<event>
 4    1  0.2338029E-002  0.4337499E+03  0.7818608E-02  0.1032682E+00
         -1   -1    0    0    0  501 -0.00000000000E+00  0.00000000000E+00  0.20919518825E+03  0.20919518825E+03  0.00000000000E+00 0.  1.
          1   -1    0    0  502    0  0.00000000000E+00 -0.00000000000E+00 -0.91385304719E+03  0.91385304719E+03  0.00000000000E+00 0. -1.
    9000007    1    1    2  502    0 -0.12662964772E+03  0.11001792068E+03 -0.42307603375E+03  0.60591446664E+03  0.40000000000E+03 0. -1.
   -9000007    1    1    2    0  501  0.12662964772E+03 -0.11001792068E+03 -0.28158182518E+03  0.51713376879E+03  0.40000000000E+03 0.  1.
<mgrwt>
<rscale>  2 0.43374994E+03</rscale>
<asrwt>0</asrwt>
<pdfrwt beam="1">  1        1 0.14059278E+00 0.43374994E+03</pdfrwt>
<pdfrwt beam="2">  1       -1 0.32183875E-01 0.43374994E+03</pdfrwt>
<totfact> 0.16659940E+02</totfact>
</mgrwt>
</event>
<event>
 4    1  0.2338029E-002  0.4392213E+03  0.7818608E-02  0.1030986E+00
         -1   -1    0    0    0  501 -0.00000000000E+00  0.00000000000E+00  0.10963270110E+04  0.10963270110E+04  0.00000000000E+00 0. -1.
          1   -1    0    0  502    0  0.00000000000E+00 -0.00000000000E+00 -0.17840119289E+03  0.17840119289E+03  0.00000000000E+00 0.  1.
    9000007    1    1    2  502    0 -0.10042184734E+03 -0.15109876004E+03  0.53344095578E+03  0.69099539507E+03  0.40000000000E+03 0.  1.
   -9000007    1    1    2    0  501  0.10042184734E+03  0.15109876004E+03  0.38448486229E+03  0.58373280878E+03  0.40000000000E+03 0. -1.
<mgrwt>
<rscale>  2 0.43922134E+03</rscale>
<asrwt>0</asrwt>
<pdfrwt beam="1">  1        1 0.27446338E-01 0.43922134E+03</pdfrwt>
<pdfrwt beam="2">  1       -1 0.16866569E+00 0.43922134E+03</pdfrwt>
<totfact> 0.45778090E+01</totfact>
</mgrwt>
</event>
<event>
 4    1  0.2338029E-002  0.4020439E+03  0.7818608E-02  0.1043074E+00
         -2   -1    0    0    0  501 -0.00000000000E+00  0.00000000000E+00  0.76399531447E+02  0.76399531447E+02  0.00000000000E+00 0. -1.
          2   -1    0    0  502    0  0.00000000000E+00 -0.00000000000E+00 -0.29803464969E+04  0.29803464969E+04  0.00000000000E+00 0.  1.
    9000007    1    1    2  502    0  0.21837831293E+02 -0.34093566800E+02 -0.62875951187E+03  0.74630944382E+03  0.40000000000E+03 0. -1.
   -9000007    1    1    2    0  501 -0.21837831293E+02  0.34093566800E+02 -0.22751874536E+04  0.23104365846E+04  0.40000000000E+03 0.  1.
<mgrwt>
<rscale>  2 0.40204386E+03</rscale>
<asrwt>0</asrwt>
<pdfrwt beam="1">  1        2 0.45851490E+00 0.40204386E+03</pdfrwt>
<pdfrwt beam="2">  1       -2 0.11753773E-01 0.40204386E+03</pdfrwt>
<totfact> 0.10563685E+02</totfact>
</mgrwt>
</event>
<event>
 4    1  0.2338029E-002  0.4614213E+03  0.7818608E-02  0.1024370E+00
         -2   -1    0    0    0  501 -0.00000000000E+00  0.00000000000E+00  0.47785030639E+03  0.47785030639E+03  0.00000000000E+00 0.  1.
          2   -1    0    0  502    0  0.00000000000E+00 -0.00000000000E+00 -0.46713243587E+03  0.46713243587E+03  0.00000000000E+00 0. -1.
    9000007    1    1    2  502    0  0.22952775237E+03  0.15054595786E+02  0.10690239413E+03  0.47364306374E+03  0.40000000000E+03 0. -1.
   -9000007    1    1    2    0  501 -0.22952775237E+03 -0.15054595786E+02 -0.96184523608E+02  0.47133967852E+03  0.40000000000E+03 0.  1.
<mgrwt>
<rscale>  2 0.46142132E+03</rscale>
<asrwt>0</asrwt>
<pdfrwt beam="1">  1        2 0.71866528E-01 0.46142132E+03</pdfrwt>
<pdfrwt beam="2">  1       -2 0.73515432E-01 0.46142132E+03</pdfrwt>
<totfact> 0.11439700E+02</totfact>
</mgrwt>
</event>
<event>
 4    1  0.2338029E-002  0.4455584E+03  0.7818608E-02  0.1029055E+00
         -2   -1    0    0    0  501 -0.00000000000E+00  0.00000000000E+00  0.70249629328E+02  0.70249629328E+02  0.00000000000E+00 0. -1.
          2   -1    0    0  502    0  0.00000000000E+00 -0.00000000000E+00 -0.28260028212E+04  0.28260028212E+04  0.00000000000E+00 0.  1.
    9000007    1    1    2  502    0  0.19338508976E+03  0.33533874710E+02 -0.13838137003E+04  0.14537753165E+04  0.40000000000E+03 0. -1.
   -9000007    1    1    2    0  501 -0.19338508976E+03 -0.33533874710E+02 -0.13719394915E+04  0.14424771340E+04  0.40000000000E+03 0.  1.
<mgrwt>
<rscale>  2 0.44555843E+03</rscale>
<asrwt>0</asrwt>
<pdfrwt beam="1">  1        2 0.43476960E+00 0.44555843E+03</pdfrwt>
<pdfrwt beam="2">  1       -2 0.10807637E-01 0.44555843E+03</pdfrwt>
<totfact> 0.14799312E+02</totfact>
</mgrwt>
</event>
<event>
 4    1  0.2338029E-002  0.4407002E+03  0.7818608E-02  0.1030532E+00
         -2   -1    0    0    0  501 -0.00000000000E+00  0.00000000000E+00  0.17166884004E+03  0.17166884004E+03  0.00000000000E+00 0.  1.
          2   -1    0    0  502    0  0.00000000000E+00 -0.00000000000E+00 -0.14524708193E+04  0.14524708193E+04  0.00000000000E+00 0. -1.
    9000007    1    1    2  502    0  0.18456883915E+03  0.12289068076E+02 -0.10222373705E+04  0.11131872795E+04  0.40000000000E+03 0. -1.
   -9000007    1    1    2    0  501 -0.18456883915E+03 -0.12289068076E+02 -0.25856460877E+03  0.51095237987E+03  0.40000000000E+03 0.  1.
<mgrwt>
<rscale>  2 0.44070021E+03</rscale>
<asrwt>0</asrwt>
<pdfrwt beam="1">  1        2 0.22345705E+00 0.44070021E+03</pdfrwt>
<pdfrwt beam="2">  1       -2 0.26410591E-01 0.44070021E+03</pdfrwt>
<totfact> 0.18322480E+02</totfact>
</mgrwt>
</event>
<event>
 4    1  0.2338029E-002  0.4053297E+03  0.7818608E-02  0.1041950E+00
          2   -1    0    0  502    0  0.00000000000E+00  0.00000000000E+00  0.12961727327E+04  0.12961727327E+04  0.00000000000E+00 0. -1.
         -2   -1    0    0    0  501 -0.00000000000E+00 -0.00000000000E+00 -0.19236786837E+03  0.19236786837E+03  0.00000000000E+00 0.  1.
    9000007    1    1    2  502    0  0.65191957118E+02  0.64951896572E+01  0.98658242198E+03  0.10666007004E+04  0.40000000000E+03 0. -1.
   -9000007    1    1    2    0  501 -0.65191957118E+02 -0.64951896572E+01  0.11722244232E+03  0.42193990063E+03  0.40000000000E+03 0.  1.
<mgrwt>
<rscale>  2 0.40532972E+03</rscale>
<asrwt>0</asrwt>
<pdfrwt beam="1">  1        2 0.19941118E+00 0.40532972E+03</pdfrwt>
<pdfrwt beam="2">  1       -2 0.29595058E-01 0.40532972E+03</pdfrwt>
<totfact> 0.18285391E+02</totfact>
</mgrwt>
</event>
<event>
 4    1  0.2338029E-002  0.9466503E+03  0.7818608E-02  0.9369074E-01
          2   -1    0    0  502    0  0.00000000000E+00  0.00000000000E+00  0.12311739656E+04  0.12311739656E+04  0.00000000000E+00 0.  1.
         -2   -1    0    0    0  501 -0.00000000000E+00 -0.00000000000E+00 -0.10856501270E+04  0.10856501270E+04  0.00000000000E+00 0. -1.
    9000007    1    1    2  502    0 -0.38219473571E+03 -0.76816275887E+03 -0.59223585451E+03  0.11166423543E+04  0.40000000000E+03 0. -1.
   -9000007    1    1    2    0  501  0.38219473571E+03  0.76816275887E+03  0.73775969305E+03  0.12001817382E+04  0.40000000000E+03 0.  1.
<mgrwt>
<rscale>  2 0.94665033E+03</rscale>
<asrwt>0</asrwt>
<pdfrwt beam="1">  1        2 0.18941138E+00 0.94665033E+03</pdfrwt>
<pdfrwt beam="2">  1       -2 0.16702310E+00 0.94665033E+03</pdfrwt>
<totfact> 0.40514797E+00</totfact>
</mgrwt>
</event>
<event>
 4    1  0.2338029E-002  0.4277396E+03  0.7818608E-02  0.1034576E+00
         -3   -1    0    0    0  501 -0.00000000000E+00  0.00000000000E+00  0.21584675602E+03  0.21584675602E+03  0.00000000000E+00 0.  1.
          3   -1    0    0  502    0  0.00000000000E+00 -0.00000000000E+00 -0.86502931704E+03  0.86502931704E+03  0.00000000000E+00 0. -1.
    9000007    1    1    2  502    0 -0.13768777229E+03 -0.63271228302E+02 -0.24797449535E+03  0.49442140054E+03  0.40000000000E+03 0.  1.
   -9000007    1    1    2    0  501  0.13768777229E+03  0.63271228302E+02 -0.40120806567E+03  0.58645467253E+03  0.40000000000E+03 0.  1.
<mgrwt>
<rscale>  2 0.42773961E+03</rscale>
<asrwt>0</asrwt>
<pdfrwt beam="1">  1        3 0.13308143E+00 0.42773961E+03</pdfrwt>
<pdfrwt beam="2">  1       -3 0.33207194E-01 0.42773961E+03</pdfrwt>
<totfact> 0.10238566E+01</totfact>
</mgrwt>
</event>
<event>
 4    1  0.2338029E-002  0.5438677E+03  0.7818608E-02  0.1002923E+00
          2   -1    0    0  502    0  0.00000000000E+00  0.00000000000E+00  0.20849287394E+04  0.20849287394E+04  0.00000000000E+00 0. -1.
         -2   -1    0    0    0  501 -0.00000000000E+00 -0.00000000000E+00 -0.14812668425E+03  0.14812668425E+03  0.00000000000E+00 0.  1.
    9000007    1    1    2  502    0  0.98182932517E+02  0.35517910347E+03  0.73896005464E+03  0.91752604657E+03  0.40000000000E+03 0.  1.
   -9000007    1    1    2    0  501 -0.98182932517E+02 -0.35517910347E+03  0.11978420006E+04  0.13155293771E+04  0.40000000000E+03 0. -1.
<mgrwt>
<rscale>  2 0.54386771E+03</rscale>
<asrwt>0</asrwt>
<pdfrwt beam="1">  1        2 0.32075825E+00 0.54386771E+03</pdfrwt>
<pdfrwt beam="2">  1       -2 0.22788722E-01 0.54386771E+03</pdfrwt>
<totfact> 0.10698545E+02</totfact>
</mgrwt>
</event>
<event>
 4    1  0.2338029E-002  0.4203469E+03  0.7818608E-02  0.1036953E+00
          2   -1    0    0  502    0  0.00000000000E+00  0.00000000000E+00  0.18900996227E+04  0.18900996227E+04  0.00000000000E+00 0.  1.
         -2   -1    0    0    0  501 -0.00000000000E+00 -0.00000000000E+00 -0.10100209933E+03  0.10100209933E+03  0.00000000000E+00 0. -1.
    9000007    1    1    2  502    0  0.10922617311E+03  0.69000929646E+02  0.11661875755E+04  0.12396309719E+04  0.40000000000E+03 0.  1.
   -9000007    1    1    2    0  501 -0.10922617311E+03 -0.69000929646E+02  0.62290994786E+03  0.75147075015E+03  0.40000000000E+03 0. -1.
<mgrwt>
<rscale>  2 0.42034686E+03</rscale>
<asrwt>0</asrwt>
<pdfrwt beam="1">  1        2 0.29078453E+00 0.42034686E+03</pdfrwt>
<pdfrwt beam="2">  1       -2 0.15538786E-01 0.42034686E+03</pdfrwt>
<totfact> 0.26822731E+02</totfact>
</mgrwt>
</event>
<event>
 4    1  0.2338029E-002  0.5119475E+03  0.7818608E-02  0.1010707E+00
          1   -1    0    0  502    0  0.00000000000E+00  0.00000000000E+00  0.19644549977E+03  0.19644549977E+03  0.00000000000E+00 0. -1.
         -1   -1    0    0    0  501 -0.00000000000E+00 -0.00000000000E+00 -0.14828468311E+04  0.14828468311E+04  0.00000000000E+00 0.  1.
    9000007    1    1    2  502    0  0.31369639832E+03  0.60702570564E+02 -0.37732372979E+03  0.63597439371E+03  0.40000000000E+03 0.  1.
   -9000007    1    1    2    0  501 -0.31369639832E+03 -0.60702570564E+02 -0.90907760152E+03  0.10433179372E+04  0.40000000000E+03 0.  1.
<mgrwt>
<rscale>  2 0.51194749E+03</rscale>
<asrwt>0</asrwt>
<pdfrwt beam="1">  1        1 0.30222385E-01 0.51194749E+03</pdfrwt>
<pdfrwt beam="2">  1       -1 0.22813028E+00 0.51194749E+03</pdfrwt>
<totfact> 0.15712238E+01</totfact>
</mgrwt>
</event>
<event>
 4    1  0.2338029E-002  0.4876271E+03  0.7818608E-02  0.1017060E+00
         -1   -1    0    0    0  501 -0.00000000000E+00  0.00000000000E+00  0.68036733926E+03  0.68036733926E+03  0.00000000000E+00 0.  1.
          1   -1    0    0  502    0  0.00000000000E+00 -0.00000000000E+00 -0.42740664824E+03  0.42740664824E+03  0.00000000000E+00 0. -1.
    9000007    1    1    2  502    0 -0.27763838109E+03  0.26402659393E+02 -0.11001436875E+03  0.49988331880E+03  0.40000000000E+03 0. -1.
   -9000007    1    1    2    0  501  0.27763838109E+03 -0.26402659393E+02  0.36297505977E+03  0.60789066870E+03  0.40000000000E+03 0.  1.
<mgrwt>
<rscale>  2 0.48762708E+03</rscale>
<asrwt>0</asrwt>
<pdfrwt beam="1">  1        1 0.65754869E-01 0.48762708E+03</pdfrwt>
<pdfrwt beam="2">  1       -1 0.10467190E+00 0.48762708E+03</pdfrwt>
<totfact> 0.49377415E+01</totfact>
</mgrwt>
</event>
<event>
 4    1  0.2338029E-002  0.4016525E+03  0.7818608E-02  0.1043209E+00
          2   -1    0    0  502    0  0.00000000000E+00  0.00000000000E+00  0.31231810934E+04  0.31231810934E+04  0.00000000000E+00 0.  1.
         -2   -1    0    0    0  501 -0.00000000000E+00 -0.00000000000E+00 -0.59248265536E+02  0.59248265536E+02  0.00000000000E+00 0. -1.
    9000007    1    1    2  502    0 -0.35864479372E+02  0.61997547664E+01  0.21016513631E+04  0.21396876291E+04  0.40000000000E+03 0.  1.
   -9000007    1    1    2    0  501  0.35864479372E+02 -0.61997547664E+01  0.96228146475E+03  0.10427417299E+04  0.40000000000E+03 0. -1.
<mgrwt>
<rscale>  2 0.40165246E+03</rscale>
<asrwt>0</asrwt>
<pdfrwt beam="1">  1        2 0.48048927E+00 0.40165246E+03</pdfrwt>
<pdfrwt beam="2">  1       -2 0.91151202E-02 0.40165246E+03</pdfrwt>
<totfact> 0.13045802E+02</totfact>
</mgrwt>
</event>
<event>
 4    1  0.2338029E-002  0.5953735E+03  0.7818608E-02  0.9915051E-01
         -2   -1    0    0    0  501 -0.00000000000E+00  0.00000000000E+00  0.28293335311E+04  0.28293335311E+04  0.00000000000E+00 0.  1.
          2   -1    0    0  502    0  0.00000000000E+00 -0.00000000000E+00 -0.23349973690E+03  0.23349973690E+03  0.00000000000E+00 0. -1.
    9000007    1    1    2  502    0 -0.43139593191E+03  0.91472139163E+02  0.23404643039E+04  0.24150036771E+04  0.40000000000E+03 0.  1.
   -9000007    1    1    2    0  501  0.43139593191E+03 -0.91472139163E+02  0.25536949028E+03  0.64782959093E+03  0.40000000000E+03 0. -1.
<mgrwt>
<rscale>  2 0.59537350E+03</rscale>
<asrwt>0</asrwt>
<pdfrwt beam="1">  1        2 0.35923038E-01 0.59537350E+03</pdfrwt>
<pdfrwt beam="2">  1       -2 0.43528206E+00 0.59537350E+03</pdfrwt>
<totfact> 0.69226861E-01</totfact>
</mgrwt>
</event>
<event>
 4    1  0.2338029E-002  0.4798077E+03  0.7818608E-02  0.1019188E+00
         -1   -1    0    0    0  501 -0.00000000000E+00  0.00000000000E+00  0.34779615637E+03  0.34779615637E+03  0.00000000000E+00 0.  1.
          1   -1    0    0  502    0  0.00000000000E+00 -0.00000000000E+00 -0.77101747949E+03  0.77101747949E+03  0.00000000000E+00 0. -1.
    9000007    1    1    2  502    0 -0.23337818920E+03 -0.12549918186E+03 -0.11889946237E+01  0.47980916784E+03  0.40000000000E+03 0.  1.
   -9000007    1    1    2    0  501  0.23337818920E+03  0.12549918186E+03 -0.42203232850E+03  0.63900446801E+03  0.40000000000E+03 0. -1.
<mgrwt>
<rscale>  2 0.47980769E+03</rscale>
<asrwt>0</asrwt>
<pdfrwt beam="1">  1        1 0.11861807E+00 0.47980769E+03</pdfrwt>
<pdfrwt beam="2">  1       -1 0.53507102E-01 0.47980769E+03</pdfrwt>
<totfact> 0.86513206E+01</totfact>
</mgrwt>
</event>
<event>
 4    1  0.2338029E-002  0.4361613E+03  0.7818608E-02  0.1031931E+00
         -1   -1    0    0    0  501 -0.00000000000E+00  0.00000000000E+00  0.32839478486E+03  0.32839478486E+03  0.00000000000E+00 0. -1.
          1   -1    0    0  502    0  0.00000000000E+00 -0.00000000000E+00 -0.97871535741E+03  0.97871535741E+03  0.00000000000E+00 0.  1.
    9000007    1    1    2  502    0 -0.17209471156E+03  0.24901894627E+02 -0.74267361844E+03  0.86127858306E+03  0.40000000000E+03 0.  1.
   -9000007    1    1    2    0  501  0.17209471156E+03 -0.24901894627E+02  0.92353045896E+02  0.44583155921E+03  0.40000000000E+03 0. -1.
<mgrwt>
<rscale>  2 0.43616132E+03</rscale>
<asrwt>0</asrwt>
<pdfrwt beam="1">  1        1 0.15057159E+00 0.43616132E+03</pdfrwt>
<pdfrwt beam="2">  1       -1 0.50522275E-01 0.43616132E+03</pdfrwt>
<totfact> 0.65673108E+01</totfact>
</mgrwt>
</event>
<event>
 4    1  0.2338029E-002  0.6970682E+03  0.7818608E-02  0.9722259E-01
          2   -1    0    0  502    0  0.00000000000E+00  0.00000000000E+00  0.85498364823E+03  0.85498364823E+03  0.00000000000E+00 0. -1.
         -2   -1    0    0    0  501 -0.00000000000E+00 -0.00000000000E+00 -0.61719721801E+03  0.61719721801E+03  0.00000000000E+00 0.  1.
    9000007    1    1    2  502    0  0.21519628984E+03 -0.52876703584E+03 -0.88251528253E+02  0.70263244559E+03  0.40000000000E+03 0.  1.
   -9000007    1    1    2    0  501 -0.21519628984E+03  0.52876703584E+03  0.32603795847E+03  0.76954842065E+03  0.40000000000E+03 0.  1.
<mgrwt>
<rscale>  2 0.69706816E+03</rscale>
<asrwt>0</asrwt>
<pdfrwt beam="1">  1        2 0.13153595E+00 0.69706816E+03</pdfrwt>
<pdfrwt beam="2">  1       -2 0.94953418E-01 0.69706816E+03</pdfrwt>
<totfact> 0.29958773E+01</totfact>
</mgrwt>
</event>
<event>
 4    1  0.2338029E-002  0.7030413E+03  0.7818608E-02  0.9712045E-01
         -2   -1    0    0    0  501 -0.00000000000E+00  0.00000000000E+00  0.10748933015E+04  0.10748933015E+04  0.00000000000E+00 0. -1.
          2   -1    0    0  502    0  0.00000000000E+00 -0.00000000000E+00 -0.48237251571E+03  0.48237251571E+03  0.00000000000E+00 0.  1.
    9000007    1    1    2  502    0 -0.57485385390E+03 -0.61726037392E+02  0.12793377687E+03  0.71458666955E+03  0.40000000000E+03 0.  1.
   -9000007    1    1    2    0  501  0.57485385390E+03  0.61726037392E+02  0.46458700894E+03  0.84267914767E+03  0.40000000000E+03 0. -1.
<mgrwt>
<rscale>  2 0.70304129E+03</rscale>
<asrwt>0</asrwt>
<pdfrwt beam="1">  1        2 0.74211156E-01 0.70304129E+03</pdfrwt>
<pdfrwt beam="2">  1       -2 0.16536820E+00 0.70304129E+03</pdfrwt>
<totfact> 0.15059964E+01</totfact>
</mgrwt>
</event>
<event>
 4    1  0.2338029E-002  0.4635960E+03  0.7818608E-02  0.1023743E+00
          4   -1    0    0  502    0  0.00000000000E+00  0.00000000000E+00  0.59571016439E+03  0.59571016439E+03  0.00000000000E+00 0.  1.
         -4   -1    0    0    0  501 -0.00000000000E+00 -0.00000000000E+00 -0.37756114103E+03  0.37756114103E+03  0.00000000000E+00 0. -1.
    9000007    1    1    2  502    0  0.22885224739E+03  0.50476348231E+02  0.21166367246E+03  0.50962998647E+03  0.40000000000E+03 0.  1.
   -9000007    1    1    2    0  501 -0.22885224739E+03 -0.50476348231E+02  0.64853508959E+01  0.46364131896E+03  0.40000000000E+03 0.  1.
<mgrwt>
<rscale>  2 0.46359596E+03</rscale>
<asrwt>0</asrwt>
<pdfrwt beam="1">  1        4 0.91647718E-01 0.46359596E+03</pdfrwt>
<pdfrwt beam="2">  1       -4 0.58086329E-01 0.46359596E+03</pdfrwt>
<totfact> 0.55320365E+00</totfact>
</mgrwt>
</event>
<event>
 4    1  0.2338029E-002  0.4706527E+03  0.7818608E-02  0.1021736E+00
         -1   -1    0    0    0  501 -0.00000000000E+00  0.00000000000E+00  0.22057134663E+03  0.22057134663E+03  0.00000000000E+00 0.  1.
          1   -1    0    0  502    0  0.00000000000E+00 -0.00000000000E+00 -0.17708463909E+04  0.17708463909E+04  0.00000000000E+00 0. -1.
    9000007    1    1    2  502    0  0.12222764483E+03 -0.21581092599E+03 -0.12002082988E+03  0.48571488812E+03  0.40000000000E+03 0.  1.
   -9000007    1    1    2    0  501 -0.12222764483E+03  0.21581092599E+03 -0.14302542144E+04  0.15057028494E+04  0.40000000000E+03 0. -1.
<mgrwt>
<rscale>  2 0.47065269E+03</rscale>
<asrwt>0</asrwt>
<pdfrwt beam="1">  1        1 0.27243790E+00 0.47065269E+03</pdfrwt>
<pdfrwt beam="2">  1       -1 0.33934054E-01 0.47065269E+03</pdfrwt>
<totfact> 0.37727521E+01</totfact>
</mgrwt>
</event>
<event>
 4    1  0.2338029E-002  0.4401775E+03  0.7818608E-02  0.1030692E+00
          2   -1    0    0  502    0  0.00000000000E+00  0.00000000000E+00  0.37003470243E+03  0.37003470243E+03  0.00000000000E+00 0.  1.
         -2   -1    0    0    0  501 -0.00000000000E+00 -0.00000000000E+00 -0.58845007085E+03  0.58845007085E+03  0.00000000000E+00 0. -1.
    9000007    1    1    2  502    0  0.11662697887E+03  0.14196624862E+03 -0.26828214298E+03  0.51549158693E+03  0.40000000000E+03 0. -1.
   -9000007    1    1    2    0  501 -0.11662697887E+03 -0.14196624862E+03  0.49866774558E+02  0.44299318635E+03  0.40000000000E+03 0.  1.
<mgrwt>
<rscale>  2 0.44017754E+03</rscale>
<asrwt>0</asrwt>
<pdfrwt beam="1">  1        2 0.56928416E-01 0.44017754E+03</pdfrwt>
<pdfrwt beam="2">  1       -2 0.90530780E-01 0.44017754E+03</pdfrwt>
<totfact> 0.93207950E+01</totfact>
</mgrwt>
</event>
<event>
 4    1  0.2338029E-002  0.4067849E+03  0.7818608E-02  0.1041455E+00
         -1   -1    0    0    0  501 -0.00000000000E+00  0.00000000000E+00  0.14064491854E+03  0.14064491854E+03  0.00000000000E+00 0. -1.
          1   -1    0    0  502    0  0.00000000000E+00 -0.00000000000E+00 -0.12109585033E+04  0.12109585033E+04  0.00000000000E+00 0.  1.
    9000007    1    1    2  502    0  0.68513070254E+02  0.27927291078E+02 -0.42121881570E+03  0.58557601136E+03  0.40000000000E+03 0. -1.
   -9000007    1    1    2    0  501 -0.68513070254E+02 -0.27927291078E+02 -0.64909476901E+03  0.76602741044E+03  0.40000000000E+03 0. -1.
<mgrwt>
<rscale>  2 0.40678492E+03</rscale>
<asrwt>0</asrwt>
<pdfrwt beam="1">  1        1 0.18630130E+00 0.40678492E+03</pdfrwt>
<pdfrwt beam="2">  1       -1 0.21637680E-01 0.40678492E+03</pdfrwt>
<totfact> 0.19688298E+02</totfact>
</mgrwt>
</event>
<event>
 4    1  0.2338029E-002  0.5933960E+03  0.7818608E-02  0.9919203E-01
         -2   -1    0    0    0  501 -0.00000000000E+00  0.00000000000E+00  0.28475854941E+03  0.28475854941E+03  0.00000000000E+00 0. -1.
          2   -1    0    0  502    0  0.00000000000E+00 -0.00000000000E+00 -0.12371635745E+04  0.12371635745E+04  0.00000000000E+00 0.  1.
    9000007    1    1    2  502    0 -0.26778565573E+03 -0.34700095292E+03 -0.49311831347E+03  0.77154681635E+03  0.40000000000E+03 0.  1.
   -9000007    1    1    2    0  501  0.26778565573E+03  0.34700095292E+03 -0.45928671167E+03  0.75037530760E+03  0.40000000000E+03 0.  1.
<mgrwt>
<rscale>  2 0.59339600E+03</rscale>
<asrwt>0</asrwt>
<pdfrwt beam="1">  1        2 0.19033286E+00 0.59339600E+03</pdfrwt>
<pdfrwt beam="2">  1       -2 0.43809007E-01 0.59339600E+03</pdfrwt>
<totfact> 0.91694426E+01</totfact>
</mgrwt>
</event>
<event>
 4    1  0.2338029E-002  0.4150126E+03  0.7818608E-02  0.1038702E+00
         -2   -1    0    0    0  501 -0.00000000000E+00  0.00000000000E+00  0.16604598636E+03  0.16604598636E+03  0.00000000000E+00 0. -1.
          2   -1    0    0  502    0  0.00000000000E+00 -0.00000000000E+00 -0.10397889307E+04  0.10397889307E+04  0.00000000000E+00 0.  1.
    9000007    1    1    2  502    0 -0.67868166153E+02  0.87346461226E+02 -0.40723079250E+03  0.58143994585E+03  0.40000000000E+03 0.  1.
   -9000007    1    1    2    0  501  0.67868166153E+02 -0.87346461226E+02 -0.46651215187E+03  0.62439497124E+03  0.40000000000E+03 0.  1.
<mgrwt>
<rscale>  2 0.41501264E+03</rscale>
<asrwt>0</asrwt>
<pdfrwt beam="1">  1        2 0.15996753E+00 0.41501264E+03</pdfrwt>
<pdfrwt beam="2">  1       -2 0.25545537E-01 0.41501264E+03</pdfrwt>
<totfact> 0.33711759E+02</totfact>
</mgrwt>
</event>
<event>
 4    1  0.2338029E-002  0.4001574E+03  0.7818608E-02  0.1043725E+00
          1   -1    0    0  502    0  0.00000000000E+00  0.00000000000E+00  0.59044733466E+03  0.59044733466E+03  0.00000000000E+00 0. -1.
         -1   -1    0    0    0  501 -0.00000000000E+00 -0.00000000000E+00 -0.31299009252E+03  0.31299009252E+03  0.00000000000E+00 0.  1.
    9000007    1    1    2  502    0  0.53209208260E+01 -0.98819271691E+01  0.30379892645E+03  0.50241392536E+03  0.40000000000E+03 0. -1.
   -9000007    1    1    2    0  501 -0.53209208260E+01  0.98819271691E+01 -0.26341684313E+02  0.40102350182E+03  0.40000000000E+03 0.  1.
<mgrwt>
<rscale>  2 0.40015742E+03</rscale>
<asrwt>0</asrwt>
<pdfrwt beam="1">  1        1 0.90838052E-01 0.40015742E+03</pdfrwt>
<pdfrwt beam="2">  1       -1 0.48152322E-01 0.40015742E+03</pdfrwt>
<totfact> 0.15766136E+02</totfact>
</mgrwt>
</event>
<event>
 4    1  0.2338029E-002  0.4112101E+03  0.7818608E-02  0.1039966E+00
          2   -1    0    0  502    0  0.00000000000E+00  0.00000000000E+00  0.11347581897E+04  0.11347581897E+04  0.00000000000E+00 0. -1.
         -2   -1    0    0    0  501 -0.00000000000E+00 -0.00000000000E+00 -0.19165977754E+03  0.19165977754E+03  0.00000000000E+00 0.  1.
    9000007    1    1    2  502    0 -0.53897874658E+00 -0.95359454229E+02  0.78439336328E+03  0.88564477324E+03  0.40000000000E+03 0. -1.
   -9000007    1    1    2    0  501  0.53897874658E+00  0.95359454229E+02  0.15870504887E+03  0.44077319400E+03  0.40000000000E+03 0.  1.
<mgrwt>
<rscale>  2 0.41121006E+03</rscale>
<asrwt>0</asrwt>
<pdfrwt beam="1">  1        2 0.17457818E+00 0.41121006E+03</pdfrwt>
<pdfrwt beam="2">  1       -2 0.29486120E-01 0.41121006E+03</pdfrwt>
<totfact> 0.22797183E+02</totfact>
</mgrwt>
</event>
<event>
 4    1  0.2338029E-002  0.4268619E+03  0.7818608E-02  0.1034856E+00
          2   -1    0    0  502    0  0.00000000000E+00  0.00000000000E+00  0.35143860760E+03  0.35143860760E+03  0.00000000000E+00 0.  1.
         -2   -1    0    0    0  501 -0.00000000000E+00 -0.00000000000E+00 -0.54027156764E+03  0.54027156764E+03  0.00000000000E+00 0. -1.
    9000007    1    1    2  502    0 -0.61778752687E+01  0.14890568052E+03 -0.48569323043E+01  0.42688951454E+03  0.40000000000E+03 0.  1.
   -9000007    1    1    2    0  501  0.61778752687E+01 -0.14890568052E+03 -0.18397602774E+03  0.46482066070E+03  0.40000000000E+03 0. -1.
<mgrwt>
<rscale>  2 0.42686188E+03</rscale>
<asrwt>0</asrwt>
<pdfrwt beam="1">  1        2 0.54067478E-01 0.42686188E+03</pdfrwt>
<pdfrwt beam="2">  1       -2 0.83118702E-01 0.42686188E+03</pdfrwt>
<totfact> 0.11988501E+02</totfact>
</mgrwt>
</event>
<event>
 4    1  0.2338029E-002  0.4210599E+03  0.7818608E-02  0.1036722E+00
         -1   -1    0    0    0  501 -0.00000000000E+00  0.00000000000E+00  0.14140025493E+03  0.14140025493E+03  0.00000000000E+00 0. -1.
          1   -1    0    0  502    0  0.00000000000E+00 -0.00000000000E+00 -0.15360398179E+04  0.15360398179E+04  0.00000000000E+00 0.  1.
    9000007    1    1    2  502    0  0.12364919759E+03  0.44747313418E+02 -0.10568241818E+04  0.11376153995E+04  0.40000000000E+03 0.  1.
   -9000007    1    1    2    0  501 -0.12364919759E+03 -0.44747313418E+02 -0.33781538125E+03  0.53982467333E+03  0.40000000000E+03 0. -1.
<mgrwt>
<rscale>  2 0.42105991E+03</rscale>
<asrwt>0</asrwt>
<pdfrwt beam="1">  1        1 0.23631380E+00 0.42105991E+03</pdfrwt>
<pdfrwt beam="2">  1       -1 0.21753887E-01 0.42105991E+03</pdfrwt>
<totfact> 0.11647786E+02</totfact>
</mgrwt>
</event>
<event>
 4    1  0.2338029E-002  0.6003057E+03  0.7818608E-02  0.9904772E-01
         -2   -1    0    0    0  501 -0.00000000000E+00  0.00000000000E+00  0.55815355657E+03  0.55815355657E+03  0.00000000000E+00 0. -1.
          2   -1    0    0  502    0  0.00000000000E+00 -0.00000000000E+00 -0.64871671878E+03  0.64871671878E+03  0.00000000000E+00 0.  1.
    9000007    1    1    2  502    0  0.28263943130E+02  0.44673042512E+03 -0.37323147382E+01  0.60031729392E+03  0.40000000000E+03 0.  1.
   -9000007    1    1    2    0  501 -0.28263943130E+02 -0.44673042512E+03 -0.86830847468E+02  0.60655298143E+03  0.40000000000E+03 0. -1.
<mgrwt>
<rscale>  2 0.60030569E+03</rscale>
<asrwt>0</asrwt>
<pdfrwt beam="1">  1        2 0.99802571E-01 0.60030569E+03</pdfrwt>
<pdfrwt beam="2">  1       -2 0.85869778E-01 0.60030569E+03</pdfrwt>
<totfact> 0.54369400E+01</totfact>
</mgrwt>
</event>
<event>
 4    1  0.2338029E-002  0.8565770E+03  0.7818608E-02  0.9481552E-01
         -1   -1    0    0    0  501 -0.00000000000E+00  0.00000000000E+00  0.89809418890E+03  0.89809418890E+03  0.00000000000E+00 0. -1.
          1   -1    0    0  502    0  0.00000000000E+00 -0.00000000000E+00 -0.92662043180E+03  0.92662043180E+03  0.00000000000E+00 0.  1.
    9000007    1    1    2  502    0  0.75517637596E+03 -0.58590813438E+02  0.29957163488E+03  0.90745104918E+03  0.40000000000E+03 0. -1.
   -9000007    1    1    2    0  501 -0.75517637596E+03  0.58590813438E+02 -0.32809787778E+03  0.91726357152E+03  0.40000000000E+03 0.  1.
<mgrwt>
<rscale>  2 0.85657705E+03</rscale>
<asrwt>0</asrwt>
<pdfrwt beam="1">  1        1 0.14255699E+00 0.85657705E+03</pdfrwt>
<pdfrwt beam="2">  1       -1 0.13816834E+00 0.85657705E+03</pdfrwt>
<totfact> 0.76507349E+00</totfact>
</mgrwt>
</event>
<event>
 4    1  0.2338029E-002  0.4498496E+03  0.7818608E-02  0.1027767E+00
         -1   -1    0    0    0  501 -0.00000000000E+00  0.00000000000E+00  0.18176485732E+03  0.18176485732E+03  0.00000000000E+00 0. -1.
          1   -1    0    0  502    0  0.00000000000E+00 -0.00000000000E+00 -0.11393283791E+04  0.11393283791E+04  0.00000000000E+00 0.  1.
    9000007    1    1    2  502    0  0.15342579013E+03 -0.13720489079E+03 -0.37900385402E+03  0.58822493699E+03  0.40000000000E+03 0. -1.
   -9000007    1    1    2    0  501 -0.15342579013E+03  0.13720489079E+03 -0.57855966771E+03  0.73286829938E+03  0.40000000000E+03 0. -1.
<mgrwt>
<rscale>  2 0.44984959E+03</rscale>
<asrwt>0</asrwt>
<pdfrwt beam="1">  1        1 0.17528129E+00 0.44984959E+03</pdfrwt>
<pdfrwt beam="2">  1       -1 0.27963824E-01 0.44984959E+03</pdfrwt>
<totfact> 0.14310541E+02</totfact>
</mgrwt>
</event>
<event>
 4    1  0.2338029E-002  0.6688356E+03  0.7818608E-02  0.9772064E-01
          2   -1    0    0  502    0  0.00000000000E+00  0.00000000000E+00  0.61745006630E+03  0.61745006630E+03  0.00000000000E+00 0. -1.
         -2   -1    0    0    0  501 -0.00000000000E+00 -0.00000000000E+00 -0.10204861062E+04  0.10204861062E+04  0.00000000000E+00 0.  1.
    9000007    1    1    2  502    0  0.12105444213E+03 -0.52219434441E+03 -0.64258122586E+03  0.92749757042E+03  0.40000000000E+03 0.  1.
   -9000007    1    1    2    0  501 -0.12105444213E+03  0.52219434441E+03  0.23954518591E+03  0.71043860213E+03  0.40000000000E+03 0.  1.
<mgrwt>
<rscale>  2 0.66883564E+03</rscale>
<asrwt>0</asrwt>
<pdfrwt beam="1">  1        2 0.94992318E-01 0.66883564E+03</pdfrwt>
<pdfrwt beam="2">  1       -2 0.15699786E+00 0.66883564E+03</pdfrwt>
<totfact> 0.13006413E+01</totfact>
</mgrwt>
</event>
<event>
 4    1  0.2338029E-002  0.6018889E+03  0.7818608E-02  0.9901495E-01
         -2   -1    0    0    0  501 -0.00000000000E+00  0.00000000000E+00  0.34256036121E+03  0.34256036121E+03  0.00000000000E+00 0.  1.
          2   -1    0    0  502    0  0.00000000000E+00 -0.00000000000E+00 -0.12071092268E+04  0.12071092268E+04  0.00000000000E+00 0. -1.
    9000007    1    1    2  502    0 -0.76463907875E+02 -0.44319689367E+03 -0.70502237523E+03  0.92699879468E+03  0.40000000000E+03 0.  1.
   -9000007    1    1    2    0  501  0.76463907875E+02  0.44319689367E+03 -0.15952649039E+03  0.62267079336E+03  0.40000000000E+03 0. -1.
<mgrwt>
<rscale>  2 0.60188887E+03</rscale>
<asrwt>0</asrwt>
<pdfrwt beam="1">  1        2 0.18570911E+00 0.60188887E+03</pdfrwt>
<pdfrwt beam="2">  1       -2 0.52701595E-01 0.60188887E+03</pdfrwt>
<totfact> 0.65754711E+01</totfact>
</mgrwt>
</event>
<event>
 4    1  0.2338029E-002  0.4869190E+03  0.7818608E-02  0.1017251E+00
         -2   -1    0    0    0  501 -0.00000000000E+00  0.00000000000E+00  0.41281411359E+03  0.41281411359E+03  0.00000000000E+00 0.  1.
          2   -1    0    0  502    0  0.00000000000E+00 -0.00000000000E+00 -0.57483401857E+03  0.57483401857E+03  0.00000000000E+00 0. -1.
    9000007    1    1    2  502    0 -0.23026541921E+03  0.15513844610E+03 -0.66337230641E+02  0.49141706209E+03  0.40000000000E+03 0.  1.
   -9000007    1    1    2    0  501  0.23026541921E+03 -0.15513844610E+03 -0.95682674333E+02  0.49623107008E+03  0.40000000000E+03 0. -1.
<mgrwt>
<rscale>  2 0.48691899E+03</rscale>
<asrwt>0</asrwt>
<pdfrwt beam="1">  1        2 0.88436002E-01 0.48691899E+03</pdfrwt>
<pdfrwt beam="2">  1       -2 0.63509864E-01 0.48691899E+03</pdfrwt>
<totfact> 0.12320761E+02</totfact>
</mgrwt>
</event>
<event>
 4    1  0.2338029E-002  0.4573804E+03  0.7818608E-02  0.1025544E+00
         -1   -1    0    0    0  501 -0.00000000000E+00  0.00000000000E+00  0.32485829281E+03  0.32485829281E+03  0.00000000000E+00 0.  1.
          1   -1    0    0  502    0  0.00000000000E+00 -0.00000000000E+00 -0.11888029557E+04  0.11888029557E+04  0.00000000000E+00 0. -1.
    9000007    1    1    2  502    0  0.43441363851E+02 -0.21750783941E+03 -0.94433575764E+03  0.10492696677E+04  0.40000000000E+03 0. -1.
   -9000007    1    1    2    0  501 -0.43441363851E+02  0.21750783941E+03  0.80391094717E+02  0.46439158090E+03  0.40000000000E+03 0.  1.
<mgrwt>
<rscale>  2 0.45738038E+03</rscale>
<asrwt>0</asrwt>
<pdfrwt beam="1">  1        1 0.18289277E+00 0.45738038E+03</pdfrwt>
<pdfrwt beam="2">  1       -1 0.49978197E-01 0.45738038E+03</pdfrwt>
<totfact> 0.46688312E+01</totfact>
</mgrwt>
</event>
<event>
 4    1  0.2338029E-002  0.4093978E+03  0.7818608E-02  0.1040573E+00
         -2   -1    0    0    0  501 -0.00000000000E+00  0.00000000000E+00  0.61427841982E+02  0.61427841982E+02  0.00000000000E+00 0. -1.
          2   -1    0    0  502    0  0.00000000000E+00 -0.00000000000E+00 -0.31437381811E+04  0.31437381811E+04  0.00000000000E+00 0.  1.
    9000007    1    1    2  502    0 -0.18791641661E+01  0.87195480198E+02 -0.95873032458E+03  0.10424828144E+04  0.40000000000E+03 0. -1.
   -9000007    1    1    2    0  501  0.18791641661E+01 -0.87195480198E+02 -0.21235800146E+04  0.21626832087E+04  0.40000000000E+03 0.  1.
<mgrwt>
<rscale>  2 0.40939783E+03</rscale>
<asrwt>0</asrwt>
<pdfrwt beam="1">  1        2 0.48365213E+00 0.40939783E+03</pdfrwt>
<pdfrwt beam="2">  1       -2 0.94504352E-02 0.40939783E+03</pdfrwt>
<totfact> 0.11936287E+02</totfact>
</mgrwt>
</event>
<event>
 4    1  0.2338029E-002  0.5391729E+03  0.7818608E-02  0.1004031E+00
         -1   -1    0    0    0  501 -0.00000000000E+00  0.00000000000E+00  0.13137552648E+04  0.13137552648E+04  0.00000000000E+00 0.  1.
          1   -1    0    0  502    0  0.00000000000E+00 -0.00000000000E+00 -0.23788227531E+03  0.23788227531E+03  0.00000000000E+00 0. -1.
    9000007    1    1    2  502    0 -0.21398819438E+03 -0.29140434681E+03  0.74289515580E+03  0.91793281518E+03  0.40000000000E+03 0.  1.
   -9000007    1    1    2    0  501  0.21398819438E+03  0.29140434681E+03  0.33297783371E+03  0.63370472494E+03  0.40000000000E+03 0. -1.
<mgrwt>
<rscale>  2 0.53917292E+03</rscale>
<asrwt>0</asrwt>
<pdfrwt beam="1">  1        1 0.36597274E-01 0.53917292E+03</pdfrwt>
<pdfrwt beam="2">  1       -1 0.20211619E+00 0.53917292E+03</pdfrwt>
<totfact> 0.18200519E+01</totfact>
</mgrwt>
</event>
<event>
 4    1  0.2338029E-002  0.4451784E+03  0.7818608E-02  0.1029170E+00
          2   -1    0    0  502    0  0.00000000000E+00  0.00000000000E+00  0.13421240721E+04  0.13421240721E+04  0.00000000000E+00 0. -1.
         -2   -1    0    0    0  501 -0.00000000000E+00 -0.00000000000E+00 -0.15542757196E+03  0.15542757196E+03  0.00000000000E+00 0.  1.
    9000007    1    1    2  502    0 -0.18542446557E+03 -0.61657169277E+02  0.76069204433E+03  0.88138313194E+03  0.40000000000E+03 0.  1.
   -9000007    1    1    2    0  501  0.18542446557E+03  0.61657169277E+02  0.42600445578E+03  0.61616851210E+03  0.40000000000E+03 0.  1.
<mgrwt>
<rscale>  2 0.44517843E+03</rscale>
<asrwt>0</asrwt>
<pdfrwt beam="1">  1        2 0.20648062E+00 0.44517843E+03</pdfrwt>
<pdfrwt beam="2">  1       -2 0.23911935E-01 0.44517843E+03</pdfrwt>
<totfact> 0.25191457E+02</totfact>
</mgrwt>
</event>
<event>
 4    1  0.2338029E-002  0.4256013E+03  0.7818608E-02  0.1035259E+00
         -2   -1    0    0    0  501 -0.00000000000E+00  0.00000000000E+00  0.13505105194E+03  0.13505105194E+03  0.00000000000E+00 0. -1.
          2   -1    0    0  502    0  0.00000000000E+00 -0.00000000000E+00 -0.14180003742E+04  0.14180003742E+04  0.00000000000E+00 0.  1.
    9000007    1    1    2  502    0  0.10686780075E+03 -0.98568290891E+02 -0.82213983337E+03  0.92577013368E+03  0.40000000000E+03 0. -1.
   -9000007    1    1    2    0  501 -0.10686780075E+03  0.98568290891E+02 -0.46080948887E+03  0.62728129243E+03  0.40000000000E+03 0.  1.
<mgrwt>
<rscale>  2 0.42560126E+03</rscale>
<asrwt>0</asrwt>
<pdfrwt beam="1">  1        2 0.21815390E+00 0.42560126E+03</pdfrwt>
<pdfrwt beam="2">  1       -2 0.20777085E-01 0.42560126E+03</pdfrwt>
<totfact> 0.29328636E+02</totfact>
</mgrwt>
</event>
<event>
 4    1  0.2338029E-002  0.5330779E+03  0.7818608E-02  0.1005488E+00
          2   -1    0    0  502    0  0.00000000000E+00  0.00000000000E+00  0.12246699227E+04  0.12246699227E+04  0.00000000000E+00 0.  1.
         -2   -1    0    0    0  501 -0.00000000000E+00 -0.00000000000E+00 -0.25394297646E+03  0.25394297646E+03  0.00000000000E+00 0. -1.
    9000007    1    1    2  502    0 -0.17477508572E+02  0.35194677706E+03  0.26823774248E+03  0.59676082619E+03  0.40000000000E+03 0. -1.
   -9000007    1    1    2    0  501  0.17477508572E+02 -0.35194677706E+03  0.70248920373E+03  0.88185207293E+03  0.40000000000E+03 0.  1.
<mgrwt>
<rscale>  2 0.53307785E+03</rscale>
<asrwt>0</asrwt>
<pdfrwt beam="1">  1        2 0.18841075E+00 0.53307785E+03</pdfrwt>
<pdfrwt beam="2">  1       -2 0.39068151E-01 0.53307785E+03</pdfrwt>
<totfact> 0.11738352E+02</totfact>
</mgrwt>
</event>
<event>
 4    1  0.2338029E-002  0.4119266E+03  0.7818608E-02  0.1039726E+00
         -1   -1    0    0    0  501 -0.00000000000E+00  0.00000000000E+00  0.18921605460E+03  0.18921605460E+03  0.00000000000E+00 0. -1.
          1   -1    0    0  502    0  0.00000000000E+00 -0.00000000000E+00 -0.94395392925E+03  0.94395392925E+03  0.00000000000E+00 0.  1.
    9000007    1    1    2  502    0 -0.86773246972E+02 -0.46410075452E+02 -0.50404122277E+03  0.65095395056E+03  0.40000000000E+03 0.  1.
   -9000007    1    1    2    0  501  0.86773246972E+02  0.46410075452E+02 -0.25069665188E+03  0.48221603328E+03  0.40000000000E+03 0. -1.
<mgrwt>
<rscale>  2 0.41192656E+03</rscale>
<asrwt>0</asrwt>
<pdfrwt beam="1">  1        1 0.14522368E+00 0.41192656E+03</pdfrwt>
<pdfrwt beam="2">  1       -1 0.29110162E-01 0.41192656E+03</pdfrwt>
<totfact> 0.18809998E+02</totfact>
</mgrwt>
</event>
<event>
 4    1  0.2338029E-002  0.4468565E+03  0.7818608E-02  0.1028664E+00
         -1   -1    0    0    0  501 -0.00000000000E+00  0.00000000000E+00  0.45041750046E+03  0.45041750046E+03  0.00000000000E+00 0.  1.
          1   -1    0    0  502    0  0.00000000000E+00 -0.00000000000E+00 -0.57232112282E+03  0.57232112282E+03  0.00000000000E+00 0. -1.
    9000007    1    1    2  502    0  0.16551782311E+03  0.11083603355E+03  0.18182388274E+03  0.48243206821E+03  0.40000000000E+03 0.  1.
   -9000007    1    1    2    0  501 -0.16551782311E+03 -0.11083603355E+03 -0.30372750510E+03  0.54030655507E+03  0.40000000000E+03 0. -1.
<mgrwt>
<rscale>  2 0.44685655E+03</rscale>
<asrwt>0</asrwt>
<pdfrwt beam="1">  1        1 0.88049403E-01 0.44685655E+03</pdfrwt>
<pdfrwt beam="2">  1       -1 0.69295001E-01 0.44685655E+03</pdfrwt>
<totfact> 0.81027020E+01</totfact>
</mgrwt>
</event>
<event>
 4    1  0.2338029E-002  0.4157794E+03  0.7818608E-02  0.1038449E+00
         -1   -1    0    0    0  501 -0.00000000000E+00  0.00000000000E+00  0.39292899675E+03  0.39292899675E+03  0.00000000000E+00 0. -1.
          1   -1    0    0  502    0  0.00000000000E+00 -0.00000000000E+00 -0.50223177209E+03  0.50223177209E+03  0.00000000000E+00 0.  1.
    9000007    1    1    2  502    0 -0.28054606928E+01 -0.11342254706E+03  0.10295324272E+03  0.42833621722E+03  0.40000000000E+03 0. -1.
   -9000007    1    1    2    0  501  0.28054606928E+01  0.11342254706E+03 -0.21225601806E+03  0.46682455162E+03  0.40000000000E+03 0.  1.
<mgrwt>
<rscale>  2 0.41577944E+03</rscale>
<asrwt>0</asrwt>
<pdfrwt beam="1">  1        1 0.77266427E-01 0.41577944E+03</pdfrwt>
<pdfrwt beam="2">  1       -1 0.60450615E-01 0.41577944E+03</pdfrwt>
<totfact> 0.12763314E+02</totfact>
</mgrwt>
</event>
<event>
 4    1  0.2338029E-002  0.4766157E+03  0.7818608E-02  0.1020069E+00
         -2   -1    0    0    0  501 -0.00000000000E+00  0.00000000000E+00  0.35759009415E+03  0.35759009415E+03  0.00000000000E+00 0. -1.
          2   -1    0    0  502    0  0.00000000000E+00 -0.00000000000E+00 -0.11762624459E+04  0.11762624459E+04  0.00000000000E+00 0.  1.
    9000007    1    1    2  502    0  0.24677727861E+03 -0.79142301940E+02  0.11078110750E+03  0.48932094067E+03  0.40000000000E+03 0. -1.
   -9000007    1    1    2    0  501 -0.24677727861E+03  0.79142301940E+02 -0.92945345925E+03  0.10445315994E+04  0.40000000000E+03 0.  1.
<mgrwt>
<rscale>  2 0.47661570E+03</rscale>
<asrwt>0</asrwt>
<pdfrwt beam="1">  1        2 0.18096345E+00 0.47661570E+03</pdfrwt>
<pdfrwt beam="2">  1       -2 0.55013862E-01 0.47661570E+03</pdfrwt>
<totfact> 0.63748475E+01</totfact>
</mgrwt>
</event>
<event>
 4    1  0.2338029E-002  0.4220267E+03  0.7818608E-02  0.1036409E+00
          2   -1    0    0  502    0  0.00000000000E+00  0.00000000000E+00  0.56314594380E+03  0.56314594380E+03  0.00000000000E+00 0.  1.
         -2   -1    0    0    0  501 -0.00000000000E+00 -0.00000000000E+00 -0.40402492188E+03  0.40402492188E+03  0.00000000000E+00 0. -1.
    9000007    1    1    2  502    0  0.13376050716E+03 -0.14650682563E+02  0.30493426814E+03  0.52066440598E+03  0.40000000000E+03 0.  1.
   -9000007    1    1    2    0  501 -0.13376050716E+03  0.14650682563E+02 -0.14581324622E+03  0.44650645969E+03  0.40000000000E+03 0. -1.
<mgrwt>
<rscale>  2 0.42202668E+03</rscale>
<asrwt>0</asrwt>
<pdfrwt beam="1">  1        2 0.86637837E-01 0.42202668E+03</pdfrwt>
<pdfrwt beam="2">  1       -2 0.62157681E-01 0.42202668E+03</pdfrwt>
<totfact> 0.13279975E+02</totfact>
</mgrwt>
</event>
<event>
 4    1  0.2338029E-002  0.4560981E+03  0.7818608E-02  0.1025919E+00
          2   -1    0    0  502    0  0.00000000000E+00  0.00000000000E+00  0.17648944728E+04  0.17648944728E+04  0.00000000000E+00 0. -1.
         -2   -1    0    0    0  501 -0.00000000000E+00 -0.00000000000E+00 -0.13978595859E+03  0.13978595859E+03  0.00000000000E+00 0.  1.
    9000007    1    1    2  502    0 -0.17358670183E+03  0.13376505363E+03  0.43545504578E+03  0.63059220541E+03  0.40000000000E+03 0.  1.
   -9000007    1    1    2    0  501  0.17358670183E+03 -0.13376505363E+03  0.11896534684E+04  0.12740882259E+04  0.40000000000E+03 0. -1.
<mgrwt>
<rscale>  2 0.45609805E+03</rscale>
<asrwt>0</asrwt>
<pdfrwt beam="1">  1        2 0.27152221E+00 0.45609805E+03</pdfrwt>
<pdfrwt beam="2">  1       -2 0.21505533E-01 0.45609805E+03</pdfrwt>
<totfact> 0.17838737E+02</totfact>
</mgrwt>
</event>
<event>
 4    1  0.2338029E-002  0.5392750E+03  0.7818608E-02  0.1004007E+00
          2   -1    0    0  502    0  0.00000000000E+00  0.00000000000E+00  0.43054656808E+03  0.43054656808E+03  0.00000000000E+00 0.  1.
         -2   -1    0    0    0  501 -0.00000000000E+00 -0.00000000000E+00 -0.16378342469E+04  0.16378342469E+04  0.00000000000E+00 0. -1.
    9000007    1    1    2  502    0 -0.11988248229E+03 -0.34124138630E+03  0.18910800514E+03  0.57147119865E+03  0.40000000000E+03 0.  1.
   -9000007    1    1    2    0  501  0.11988248229E+03  0.34124138630E+03 -0.13963956839E+04  0.14969096163E+04  0.40000000000E+03 0.  1.
<mgrwt>
<rscale>  2 0.53927497E+03</rscale>
<asrwt>0</asrwt>
<pdfrwt beam="1">  1        2 0.66237932E-01 0.53927497E+03</pdfrwt>
<pdfrwt beam="2">  1       -2 0.25197450E+00 0.53927497E+03</pdfrwt>
<totfact> 0.48564849E+00</totfact>
</mgrwt>
</event>
<event>
 4    1  0.2338029E-002  0.7198359E+03  0.7818608E-02  0.9683899E-01
         -2   -1    0    0    0  501 -0.00000000000E+00  0.00000000000E+00  0.21124413885E+03  0.21124413885E+03  0.00000000000E+00 0. -1.
          2   -1    0    0  502    0  0.00000000000E+00 -0.00000000000E+00 -0.24529154063E+04  0.24529154063E+04  0.00000000000E+00 0.  1.
    9000007    1    1    2  502    0 -0.42554199753E+03  0.42080606969E+03 -0.11217841564E+04  0.13328778764E+04  0.40000000000E+03 0.  1.
   -9000007    1    1    2    0  501  0.42554199753E+03 -0.42080606969E+03 -0.11198871110E+04  0.13312816687E+04  0.40000000000E+03 0. -1.
<mgrwt>
<rscale>  2 0.71983591E+03</rscale>
<asrwt>0</asrwt>
<pdfrwt beam="1">  1        2 0.37737160E+00 0.71983591E+03</pdfrwt>
<pdfrwt beam="2">  1       -2 0.32499099E-01 0.71983591E+03</pdfrwt>
<totfact> 0.34201093E+01</totfact>
</mgrwt>
</event>
<event>
 4    1  0.2338029E-002  0.4171222E+03  0.7818608E-02  0.1038007E+00
         -1   -1    0    0    0  501 -0.00000000000E+00  0.00000000000E+00  0.48293034445E+03  0.48293034445E+03  0.00000000000E+00 0. -1.
          1   -1    0    0  502    0  0.00000000000E+00 -0.00000000000E+00 -0.50802208558E+03  0.50802208558E+03  0.00000000000E+00 0.  1.
    9000007    1    1    2  502    0 -0.59954268830E+02 -0.10196285192E+03  0.25465090563E+03  0.48871057003E+03  0.40000000000E+03 0. -1.
   -9000007    1    1    2    0  501  0.59954268830E+02  0.10196285192E+03 -0.27974264676E+03  0.50224186000E+03  0.40000000000E+03 0.  1.
<mgrwt>
<rscale>  2 0.41712221E+03</rscale>
<asrwt>0</asrwt>
<pdfrwt beam="1">  1        1 0.78157244E-01 0.41712221E+03</pdfrwt>
<pdfrwt beam="2">  1       -1 0.74296976E-01 0.41712221E+03</pdfrwt>
<totfact> 0.83148170E+01</totfact>
</mgrwt>
</event>
<event>
 4    1  0.2338029E-002  0.4367239E+03  0.7818608E-02  0.1031757E+00
          3   -1    0    0  502    0  0.00000000000E+00  0.00000000000E+00  0.24160641253E+03  0.24160641253E+03  0.00000000000E+00 0. -1.
         -3   -1    0    0    0  501 -0.00000000000E+00 -0.00000000000E+00 -0.78945950980E+03  0.78945950980E+03  0.00000000000E+00 0.  1.
    9000007    1    1    2  502    0  0.17034002092E+03 -0.41376407769E+02 -0.27005624925E+03  0.51347649177E+03  0.40000000000E+03 0.  1.
   -9000007    1    1    2    0  501 -0.17034002092E+03  0.41376407769E+02 -0.27779684802E+03  0.51758943055E+03  0.40000000000E+03 0. -1.
<mgrwt>
<rscale>  2 0.43672386E+03</rscale>
<asrwt>0</asrwt>
<pdfrwt beam="1">  1        3 0.37170217E-01 0.43672386E+03</pdfrwt>
<pdfrwt beam="2">  1       -3 0.12145531E+00 0.43672386E+03</pdfrwt>
<totfact> 0.10277829E+01</totfact>
</mgrwt>
</event>
<event>
 4    1  0.2338029E-002  0.4253512E+03  0.7818608E-02  0.1035339E+00
          2   -1    0    0  502    0  0.00000000000E+00  0.00000000000E+00  0.22050263485E+03  0.22050263485E+03  0.00000000000E+00 0.  1.
         -2   -1    0    0    0  501 -0.00000000000E+00 -0.00000000000E+00 -0.83510769437E+03  0.83510769437E+03  0.00000000000E+00 0. -1.
    9000007    1    1    2  502    0 -0.13989748232E+03 -0.36773589209E+02 -0.23750935479E+03  0.48716967890E+03  0.40000000000E+03 0. -1.
   -9000007    1    1    2    0  501  0.13989748232E+03  0.36773589209E+02 -0.37709570472E+03  0.56844065032E+03  0.40000000000E+03 0. -1.
<mgrwt>
<rscale>  2 0.42535115E+03</rscale>
<asrwt>0</asrwt>
<pdfrwt beam="1">  1        2 0.33923482E-01 0.42535115E+03</pdfrwt>
<pdfrwt beam="2">  1       -2 0.12847811E+00 0.42535115E+03</pdfrwt>
<totfact> 0.71382436E+01</totfact>
</mgrwt>
</event>
<event>
 4    1  0.2338029E-002  0.4099833E+03  0.7818608E-02  0.1040377E+00
          2   -1    0    0  502    0  0.00000000000E+00  0.00000000000E+00  0.64116736148E+03  0.64116736148E+03  0.00000000000E+00 0.  1.
         -2   -1    0    0    0  501 -0.00000000000E+00 -0.00000000000E+00 -0.58446709825E+03  0.58446709825E+03  0.00000000000E+00 0. -1.
    9000007    1    1    2  502    0  0.33299228989E+02 -0.83531100104E+02  0.48343053018E+03  0.63387014510E+03  0.40000000000E+03 0.  1.
   -9000007    1    1    2    0  501 -0.33299228989E+02  0.83531100104E+02 -0.42673026695E+03  0.59176431463E+03  0.40000000000E+03 0. -1.
<mgrwt>
<rscale>  2 0.40998327E+03</rscale>
<asrwt>0</asrwt>
<pdfrwt beam="1">  1        2 0.98641133E-01 0.40998327E+03</pdfrwt>
<pdfrwt beam="2">  1       -2 0.89918015E-01 0.40998327E+03</pdfrwt>
<totfact> 0.50672608E+01</totfact>
</mgrwt>
</event>
<event>
 4    1  0.2338029E-002  0.5587767E+03  0.7818608E-02  0.9994826E-01
         -2   -1    0    0    0  501 -0.00000000000E+00  0.00000000000E+00  0.74632728578E+03  0.74632728578E+03  0.00000000000E+00 0.  1.
          2   -1    0    0  502    0  0.00000000000E+00 -0.00000000000E+00 -0.78668185187E+03  0.78668185187E+03  0.00000000000E+00 0. -1.
    9000007    1    1    2  502    0  0.11751295990E+03  0.37205127828E+03  0.50430464878E+03  0.75269823183E+03  0.40000000000E+03 0.  1.
   -9000007    1    1    2    0  501 -0.11751295990E+03 -0.37205127828E+03 -0.54465921486E+03  0.78031090583E+03  0.40000000000E+03 0. -1.
<mgrwt>
<rscale>  2 0.55877674E+03</rscale>
<asrwt>0</asrwt>
<pdfrwt beam="1">  1        2 0.12102798E+00 0.55877674E+03</pdfrwt>
<pdfrwt beam="2">  1       -2 0.11481958E+00 0.55877674E+03</pdfrwt>
<totfact> 0.21601461E+01</totfact>
</mgrwt>
</event>
<event>
 4    1  0.2338029E-002  0.5085596E+03  0.7818608E-02  0.1011569E+00
          2   -1    0    0  502    0  0.00000000000E+00  0.00000000000E+00  0.14700741416E+04  0.14700741416E+04  0.00000000000E+00 0.  1.
         -2   -1    0    0    0  501 -0.00000000000E+00 -0.00000000000E+00 -0.17593202616E+03  0.17593202616E+03  0.00000000000E+00 0. -1.
    9000007    1    1    2  502    0  0.29785484984E+03  0.99576104455E+02  0.64781298644E+03  0.82358641171E+03  0.40000000000E+03 0.  1.
   -9000007    1    1    2    0  501 -0.29785484984E+03 -0.99576104455E+02  0.64632912897E+03  0.82241975603E+03  0.40000000000E+03 0.  1.
<mgrwt>
<rscale>  2 0.50855964E+03</rscale>
<asrwt>0</asrwt>
<pdfrwt beam="1">  1        2 0.22616524E+00 0.50855964E+03</pdfrwt>
<pdfrwt beam="2">  1       -2 0.27066467E-01 0.50855964E+03</pdfrwt>
<totfact> 0.17000157E+02</totfact>
</mgrwt>
</event>
<event>
 4    1  0.2338029E-002  0.4578996E+03  0.7818608E-02  0.1025392E+00
          1   -1    0    0  502    0  0.00000000000E+00  0.00000000000E+00  0.85613877135E+03  0.85613877135E+03  0.00000000000E+00 0. -1.
         -1   -1    0    0    0  501 -0.00000000000E+00 -0.00000000000E+00 -0.40927624583E+03  0.40927624583E+03  0.00000000000E+00 0.  1.
    9000007    1    1    2  502    0 -0.18696502887E+03 -0.12131009147E+03 -0.17753568680E+03  0.49111198356E+03  0.40000000000E+03 0.  1.
   -9000007    1    1    2    0  501  0.18696502887E+03  0.12131009147E+03  0.62439821233E+03  0.77430303362E+03  0.40000000000E+03 0. -1.
<mgrwt>
<rscale>  2 0.45789962E+03</rscale>
<asrwt>0</asrwt>
<pdfrwt beam="1">  1        1 0.13171366E+00 0.45789962E+03</pdfrwt>
<pdfrwt beam="2">  1       -1 0.62965576E-01 0.45789962E+03</pdfrwt>
<totfact> 0.53618570E+01</totfact>
</mgrwt>
</event>
<event>
 4    1  0.2338029E-002  0.5258419E+03  0.7818608E-02  0.1007246E+00
          2   -1    0    0  502    0  0.00000000000E+00  0.00000000000E+00  0.21171734383E+04  0.21171734383E+04  0.00000000000E+00 0. -1.
         -2   -1    0    0    0  501 -0.00000000000E+00 -0.00000000000E+00 -0.13060339708E+03  0.13060339708E+03  0.00000000000E+00 0.  1.
    9000007    1    1    2  502    0 -0.20051186427E+03 -0.27623309053E+03  0.99208500177E+03  0.11228278491E+04  0.40000000000E+03 0. -1.
   -9000007    1    1    2    0  501  0.20051186427E+03  0.27623309053E+03  0.99448503949E+03  0.11249489863E+04  0.40000000000E+03 0. -1.
<mgrwt>
<rscale>  2 0.52584192E+03</rscale>
<asrwt>0</asrwt>
<pdfrwt beam="1">  1        2 0.32571897E+00 0.52584192E+03</pdfrwt>
<pdfrwt beam="2">  1       -2 0.20092832E-01 0.52584192E+03</pdfrwt>
<totfact> 0.12852656E+02</totfact>
</mgrwt>
</event>
<event>
 4    1  0.2338029E-002  0.4522877E+03  0.7818608E-02  0.1027042E+00
         -3   -1    0    0    0  501 -0.00000000000E+00  0.00000000000E+00  0.40599121086E+03  0.40599121086E+03  0.00000000000E+00 0. -1.
          3   -1    0    0  502    0  0.00000000000E+00 -0.00000000000E+00 -0.50748648054E+03  0.50748648054E+03  0.00000000000E+00 0.  1.
    9000007    1    1    2  502    0  0.21042924841E+03  0.16842066254E+02 -0.12156020399E+02  0.45245098366E+03  0.40000000000E+03 0.  1.
   -9000007    1    1    2    0  501 -0.21042924841E+03 -0.16842066254E+02 -0.89339249285E+02  0.46102670774E+03  0.40000000000E+03 0.  1.
<mgrwt>
<rscale>  2 0.45228766E+03</rscale>
<asrwt>0</asrwt>
<pdfrwt beam="1">  1        3 0.78074843E-01 0.45228766E+03</pdfrwt>
<pdfrwt beam="2">  1       -3 0.62460186E-01 0.45228766E+03</pdfrwt>
<totfact> 0.99763894E+00</totfact>
</mgrwt>
</event>
<event>
 4    1  0.2338029E-002  0.4004288E+03  0.7818608E-02  0.1043631E+00
          2   -1    0    0  502    0  0.00000000000E+00  0.00000000000E+00  0.32916227437E+03  0.32916227437E+03  0.00000000000E+00 0.  1.
         -2   -1    0    0    0  501 -0.00000000000E+00 -0.00000000000E+00 -0.53651996892E+03  0.53651996892E+03  0.00000000000E+00 0. -1.
    9000007    1    1    2  502    0  0.15522237896E+02  0.10113828440E+02 -0.23501254503E+03  0.46429960771E+03  0.40000000000E+03 0. -1.
   -9000007    1    1    2    0  501 -0.15522237896E+02 -0.10113828440E+02  0.27654850483E+02  0.40138263559E+03  0.40000000000E+03 0.  1.
<mgrwt>
<rscale>  2 0.40042881E+03</rscale>
<asrwt>0</asrwt>
<pdfrwt beam="1">  1        2 0.50640350E-01 0.40042881E+03</pdfrwt>
<pdfrwt beam="2">  1       -2 0.82541534E-01 0.40042881E+03</pdfrwt>
<totfact> 0.13109879E+02</totfact>
</mgrwt>
</event>
<event>
 4    1  0.2338029E-002  0.5405311E+03  0.7818608E-02  0.1003710E+00
         -2   -1    0    0    0  501 -0.00000000000E+00  0.00000000000E+00  0.64915833945E+03  0.64915833945E+03  0.00000000000E+00 0.  1.
          2   -1    0    0  502    0  0.00000000000E+00 -0.00000000000E+00 -0.55530242406E+03  0.55530242406E+03  0.00000000000E+00 0. -1.
    9000007    1    1    2  502    0  0.36096693008E+03  0.43320817858E+02 -0.21522213608E+03  0.58180270344E+03  0.40000000000E+03 0. -1.
   -9000007    1    1    2    0  501 -0.36096693008E+03 -0.43320817858E+02  0.30907805148E+03  0.62265806008E+03  0.40000000000E+03 0.  1.
<mgrwt>
<rscale>  2 0.54053105E+03</rscale>
<asrwt>0</asrwt>
<pdfrwt beam="1">  1        2 0.85431142E-01 0.54053105E+03</pdfrwt>
<pdfrwt beam="2">  1       -2 0.99870514E-01 0.54053105E+03</pdfrwt>
<totfact> 0.46439407E+01</totfact>
</mgrwt>
</event>
<event>
 4    1  0.2338029E-002  0.4712251E+03  0.7818608E-02  0.1021575E+00
          1   -1    0    0  502    0  0.00000000000E+00  0.00000000000E+00  0.39101548855E+03  0.39101548855E+03  0.00000000000E+00 0.  1.
         -1   -1    0    0    0  501 -0.00000000000E+00 -0.00000000000E+00 -0.67277070204E+03  0.67277070204E+03  0.00000000000E+00 0. -1.
    9000007    1    1    2  502    0 -0.23848439576E+03  0.71960257486E+02 -0.35088873944E+03  0.58751680244E+03  0.40000000000E+03 0. -1.
   -9000007    1    1    2    0  501  0.23848439576E+03 -0.71960257486E+02  0.69133525952E+02  0.47626938815E+03  0.40000000000E+03 0.  1.
<mgrwt>
<rscale>  2 0.47122509E+03</rscale>
<asrwt>0</asrwt>
<pdfrwt beam="1">  1        1 0.60156229E-01 0.47122509E+03</pdfrwt>
<pdfrwt beam="2">  1       -1 0.10350318E+00 0.47122509E+03</pdfrwt>
<totfact> 0.57068987E+01</totfact>
</mgrwt>
</event>
<event>
 4    1  0.2338029E-002  0.5114772E+03  0.7818608E-02  0.1010826E+00
         -2   -1    0    0    0  501 -0.00000000000E+00  0.00000000000E+00  0.23110842631E+03  0.23110842631E+03  0.00000000000E+00 0.  1.
          2   -1    0    0  502    0  0.00000000000E+00 -0.00000000000E+00 -0.25868197601E+04  0.25868197601E+04  0.00000000000E+00 0. -1.
    9000007    1    1    2  502    0  0.14958800700E+02 -0.31841035702E+03 -0.12122017752E+03  0.52564555797E+03  0.40000000000E+03 0.  1.
   -9000007    1    1    2    0  501 -0.14958800700E+02  0.31841035702E+03 -0.22344911563E+04  0.22922826285E+04  0.40000000000E+03 0. -1.
<mgrwt>
<rscale>  2 0.51147720E+03</rscale>
<asrwt>0</asrwt>
<pdfrwt beam="1">  1        2 0.39797225E+00 0.51147720E+03</pdfrwt>
<pdfrwt beam="2">  1       -2 0.35555144E-01 0.51147720E+03</pdfrwt>
<totfact> 0.25182462E+01</totfact>
</mgrwt>
</event>
<event>
 4    1  0.2338029E-002  0.4984312E+03  0.7818608E-02  0.1014189E+00
          2   -1    0    0  502    0  0.00000000000E+00  0.00000000000E+00  0.86571475001E+03  0.86571475001E+03  0.00000000000E+00 0.  1.
         -2   -1    0    0    0  501 -0.00000000000E+00 -0.00000000000E+00 -0.44138468719E+03  0.44138468719E+03  0.00000000000E+00 0. -1.
    9000007    1    1    2  502    0 -0.20423790916E+03  0.21614930926E+03  0.59872345311E+03  0.77904006363E+03  0.40000000000E+03 0.  1.
   -9000007    1    1    2    0  501  0.20423790916E+03 -0.21614930926E+03 -0.17439339029E+03  0.52805937356E+03  0.40000000000E+03 0. -1.
<mgrwt>
<rscale>  2 0.49843119E+03</rscale>
<asrwt>0</asrwt>
<pdfrwt beam="1">  1        2 0.13318688E+00 0.49843119E+03</pdfrwt>
<pdfrwt beam="2">  1       -2 0.67905337E-01 0.49843119E+03</pdfrwt>
<totfact> 0.63816499E+01</totfact>
</mgrwt>
</event>
<event>
 4    1  0.2338029E-002  0.4616294E+03  0.7818608E-02  0.1024310E+00
         -2   -1    0    0    0  501 -0.00000000000E+00  0.00000000000E+00  0.94625228450E+03  0.94625228450E+03  0.00000000000E+00 0.  1.
          2   -1    0    0  502    0  0.00000000000E+00 -0.00000000000E+00 -0.36341346978E+03  0.36341346978E+03  0.00000000000E+00 0. -1.
    9000007    1    1    2  502    0  0.20070787059E+03 -0.11321677176E+03  0.69524676068E+03  0.83454762893E+03  0.40000000000E+03 0.  1.
   -9000007    1    1    2    0  501 -0.20070787059E+03  0.11321677176E+03 -0.11240794596E+03  0.47511812535E+03  0.40000000000E+03 0. -1.
<mgrwt>
<rscale>  2 0.46162938E+03</rscale>
<asrwt>0</asrwt>
<pdfrwt beam="1">  1        2 0.55909765E-01 0.46162938E+03</pdfrwt>
<pdfrwt beam="2">  1       -2 0.14557727E+00 0.46162938E+03</pdfrwt>
<totfact> 0.29857991E+01</totfact>
</mgrwt>
</event>
<event>
 4    1  0.2338029E-002  0.4212652E+03  0.7818608E-02  0.1036655E+00
         -2   -1    0    0    0  501 -0.00000000000E+00  0.00000000000E+00  0.20229123577E+03  0.20229123577E+03  0.00000000000E+00 0.  1.
          2   -1    0    0  502    0  0.00000000000E+00 -0.00000000000E+00 -0.91483078377E+03  0.91483078377E+03  0.00000000000E+00 0. -1.
    9000007    1    1    2  502    0 -0.12909844295E+03  0.28248173905E+02 -0.24309282465E+03  0.48637278778E+03  0.40000000000E+03 0.  1.
   -9000007    1    1    2    0  501  0.12909844295E+03 -0.28248173905E+02 -0.46944672334E+03  0.63074923175E+03  0.40000000000E+03 0. -1.
<mgrwt>
<rscale>  2 0.42126520E+03</rscale>
<asrwt>0</asrwt>
<pdfrwt beam="1">  1        2 0.14074320E+00 0.42126520E+03</pdfrwt>
<pdfrwt beam="2">  1       -2 0.31121729E-01 0.42126520E+03</pdfrwt>
<totfact> 0.28220237E+02</totfact>
</mgrwt>
</event>
<event>
 4    1  0.2338029E-002  0.5076211E+03  0.7818608E-02  0.1011809E+00
          2   -1    0    0  502    0  0.00000000000E+00  0.00000000000E+00  0.10186724684E+04  0.10186724684E+04  0.00000000000E+00 0. -1.
         -2   -1    0    0    0  501 -0.00000000000E+00 -0.00000000000E+00 -0.26002122697E+03  0.26002122697E+03  0.00000000000E+00 0.  1.
    9000007    1    1    2  502    0 -0.30246885319E+03  0.78687508981E+02  0.27393531427E+03  0.57681859161E+03  0.40000000000E+03 0.  1.
   -9000007    1    1    2    0  501  0.30246885319E+03 -0.78687508981E+02  0.48471592712E+03  0.70187510372E+03  0.40000000000E+03 0. -1.
<mgrwt>
<rscale>  2 0.50762105E+03</rscale>
<asrwt>0</asrwt>
<pdfrwt beam="1">  1        2 0.15671884E+00 0.50762105E+03</pdfrwt>
<pdfrwt beam="2">  1       -2 0.40003266E-01 0.50762105E+03</pdfrwt>
<totfact> 0.14946842E+02</totfact>
</mgrwt>
</event>
<event>
 4    1  0.2338029E-002  0.4596298E+03  0.7818608E-02  0.1024889E+00
         -1   -1    0    0    0  501 -0.00000000000E+00  0.00000000000E+00  0.51681197648E+03  0.51681197648E+03  0.00000000000E+00 0.  1.
          1   -1    0    0  502    0  0.00000000000E+00 -0.00000000000E+00 -0.67069798399E+03  0.67069798399E+03  0.00000000000E+00 0. -1.
    9000007    1    1    2  502    0  0.22630979089E+03  0.65920228581E+01 -0.44799173762E+03  0.64183812071E+03  0.40000000000E+03 0. -1.
   -9000007    1    1    2    0  501 -0.22630979089E+03 -0.65920228581E+01  0.29410573012E+03  0.54567183976E+03  0.40000000000E+03 0.  1.
<mgrwt>
<rscale>  2 0.45962983E+03</rscale>
<asrwt>0</asrwt>
<pdfrwt beam="1">  1        1 0.10318431E+00 0.45962983E+03</pdfrwt>
<pdfrwt beam="2">  1       -1 0.79509535E-01 0.45962983E+03</pdfrwt>
<totfact> 0.48561841E+01</totfact>
</mgrwt>
</event>
<event>
 4    1  0.2338029E-002  0.4147136E+03  0.7818608E-02  0.1038801E+00
         -3   -1    0    0    0  501 -0.00000000000E+00  0.00000000000E+00  0.96712207769E+03  0.96712207769E+03  0.00000000000E+00 0. -1.
          3   -1    0    0  502    0  0.00000000000E+00 -0.00000000000E+00 -0.17992715066E+03  0.17992715066E+03  0.00000000000E+00 0.  1.
    9000007    1    1    2  502    0  0.63276419309E+02 -0.89350069430E+02  0.33174064395E+03  0.53107362483E+03  0.40000000000E+03 0.  1.
   -9000007    1    1    2    0  501 -0.63276419309E+02  0.89350069430E+02  0.45545428309E+03  0.61597560352E+03  0.40000000000E+03 0. -1.
<mgrwt>
<rscale>  2 0.41471356E+03</rscale>
<asrwt>0</asrwt>
<pdfrwt beam="1">  1        3 0.27681101E-01 0.41471356E+03</pdfrwt>
<pdfrwt beam="2">  1       -3 0.14878801E+00 0.41471356E+03</pdfrwt>
<totfact> 0.10870028E+01</totfact>
</mgrwt>
</event>
<event>
 4    1  0.2338029E-002  0.5326209E+03  0.7818608E-02  0.1005598E+00
          2   -1    0    0  502    0  0.00000000000E+00  0.00000000000E+00  0.69384949716E+03  0.69384949716E+03  0.00000000000E+00 0. -1.
         -2   -1    0    0    0  501 -0.00000000000E+00 -0.00000000000E+00 -0.73927682246E+03  0.73927682246E+03  0.00000000000E+00 0.  1.
    9000007    1    1    2  502    0 -0.29436727679E+03  0.19243944193E+03 -0.50176731880E+03  0.73174823175E+03  0.40000000000E+03 0.  1.
   -9000007    1    1    2    0  501  0.29436727679E+03 -0.19243944193E+03  0.45633999351E+03  0.70137808786E+03  0.40000000000E+03 0. -1.
<mgrwt>
<rscale>  2 0.53262091E+03</rscale>
<asrwt>0</asrwt>
<pdfrwt beam="1">  1        2 0.10674608E+00 0.53262091E+03</pdfrwt>
<pdfrwt beam="2">  1       -2 0.11373490E+00 0.53262091E+03</pdfrwt>
<totfact> 0.26023236E+01</totfact>
</mgrwt>
</event>
<event>
 4    1  0.2338029E-002  0.4363805E+03  0.7818608E-02  0.1031863E+00
          2   -1    0    0  502    0  0.00000000000E+00  0.00000000000E+00  0.37656393131E+04  0.37656393131E+04  0.00000000000E+00 0. -1.
         -2   -1    0    0    0  501 -0.00000000000E+00 -0.00000000000E+00 -0.51063761513E+02  0.51063761513E+02  0.00000000000E+00 0.  1.
    9000007    1    1    2  502    0 -0.62005281529E+02  0.16304388230E+03  0.16696115087E+04  0.17256971207E+04  0.40000000000E+03 0. -1.
   -9000007    1    1    2    0  501  0.62005281529E+02 -0.16304388230E+03  0.20449640429E+04  0.20910059539E+04  0.40000000000E+03 0.  1.
<mgrwt>
<rscale>  2 0.43638052E+03</rscale>
<asrwt>0</asrwt>
<pdfrwt beam="1">  1        2 0.57932891E+00 0.43638052E+03</pdfrwt>
<pdfrwt beam="2">  1       -2 0.78559662E-02 0.43638052E+03</pdfrwt>
<totfact> 0.61319754E+01</totfact>
</mgrwt>
</event>
<event>
 4    1  0.2338029E-002  0.4102080E+03  0.7818608E-02  0.1040301E+00
          2   -1    0    0  502    0  0.00000000000E+00  0.00000000000E+00  0.10393919830E+04  0.10393919830E+04  0.00000000000E+00 0. -1.
         -2   -1    0    0    0  501 -0.00000000000E+00 -0.00000000000E+00 -0.20336942591E+03  0.20336942591E+03  0.00000000000E+00 0.  1.
    9000007    1    1    2  502    0  0.76799322553E+02  0.48708231755E+02  0.69862821203E+03  0.81015554459E+03  0.40000000000E+03 0. -1.
   -9000007    1    1    2    0  501 -0.76799322553E+02 -0.48708231755E+02  0.13739434506E+03  0.43260586432E+03  0.40000000000E+03 0.  1.
<mgrwt>
<rscale>  2 0.41020803E+03</rscale>
<asrwt>0</asrwt>
<pdfrwt beam="1">  1        2 0.15990646E+00 0.41020803E+03</pdfrwt>
<pdfrwt beam="2">  1       -2 0.31287605E-01 0.41020803E+03</pdfrwt>
<totfact> 0.23330911E+02</totfact>
</mgrwt>
</event>
<event>
 4    1  0.2338029E-002  0.6083872E+03  0.7818608E-02  0.9888156E-01
         -1   -1    0    0    0  501 -0.00000000000E+00  0.00000000000E+00  0.12771790489E+03  0.12771790489E+03  0.00000000000E+00 0. -1.
          1   -1    0    0  502    0  0.00000000000E+00 -0.00000000000E+00 -0.31954670961E+04  0.31954670961E+04  0.00000000000E+00 0.  1.
    9000007    1    1    2  502    0  0.40535620099E+03 -0.21405916811E+03 -0.20407815988E+04  0.21295362197E+04  0.40000000000E+03 0.  1.
   -9000007    1    1    2    0  501 -0.40535620099E+03  0.21405916811E+03 -0.10269675924E+04  0.11936487812E+04  0.40000000000E+03 0. -1.
<mgrwt>
<rscale>  2 0.60838719E+03</rscale>
<asrwt>0</asrwt>
<pdfrwt beam="1">  1        1 0.49161032E+00 0.60838719E+03</pdfrwt>
<pdfrwt beam="2">  1       -1 0.19648909E-01 0.60838719E+03</pdfrwt>
<totfact> 0.98872764E+00</totfact>
</mgrwt>
</event>
<event>
 4    1  0.2338029E-002  0.4247846E+03  0.7818608E-02  0.1035520E+00
         -1   -1    0    0    0  501 -0.00000000000E+00  0.00000000000E+00  0.49779387833E+03  0.49779387833E+03  0.00000000000E+00 0. -1.
          1   -1    0    0  502    0  0.00000000000E+00 -0.00000000000E+00 -0.51309577332E+03  0.51309577332E+03  0.00000000000E+00 0.  1.
    9000007    1    1    2  502    0 -0.91357868907E+02  0.10998030862E+03 -0.28149613958E+03  0.50959003630E+03  0.40000000000E+03 0.  1.
   -9000007    1    1    2    0  501  0.91357868907E+02 -0.10998030862E+03  0.26619424459E+03  0.50129961535E+03  0.40000000000E+03 0. -1.
<mgrwt>
<rscale>  2 0.42478457E+03</rscale>
<asrwt>0</asrwt>
<pdfrwt beam="1">  1        1 0.78937811E-01 0.42478457E+03</pdfrwt>
<pdfrwt beam="2">  1       -1 0.76583674E-01 0.42478457E+03</pdfrwt>
<totfact> 0.76980786E+01</totfact>
</mgrwt>
</event>
<event>
 4    1  0.2338029E-002  0.4252004E+03  0.7818608E-02  0.1035387E+00
         -2   -1    0    0    0  501 -0.00000000000E+00  0.00000000000E+00  0.61571655691E+02  0.61571655691E+02  0.00000000000E+00 0.  1.
          2   -1    0    0  502    0  0.00000000000E+00 -0.00000000000E+00 -0.33469101717E+04  0.33469101717E+04  0.00000000000E+00 0. -1.
    9000007    1    1    2  502    0  0.13532075107E+03 -0.49836823941E+02 -0.10457689488E+04  0.11289057130E+04  0.40000000000E+03 0.  1.
   -9000007    1    1    2    0  501 -0.13532075107E+03  0.49836823941E+02 -0.22395695672E+04  0.22795761144E+04  0.40000000000E+03 0.  1.
<mgrwt>
<rscale>  2 0.42520044E+03</rscale>
<asrwt>0</asrwt>
<pdfrwt beam="1">  1        2 0.51490931E+00 0.42520044E+03</pdfrwt>
<pdfrwt beam="2">  1       -2 0.94725615E-02 0.42520044E+03</pdfrwt>
<totfact> 0.88140132E+01</totfact>
</mgrwt>
</event>
<event>
 4    1  0.2338029E-002  0.5487379E+03  0.7818608E-02  0.1001786E+00
         -1   -1    0    0    0  501 -0.00000000000E+00  0.00000000000E+00  0.72814490902E+03  0.72814490902E+03  0.00000000000E+00 0.  1.
          1   -1    0    0  502    0  0.00000000000E+00 -0.00000000000E+00 -0.58158480233E+03  0.58158480233E+03  0.00000000000E+00 0. -1.
    9000007    1    1    2  502    0  0.17093457942E+03 -0.33450653041E+03 -0.27873759597E+03  0.61547371734E+03  0.40000000000E+03 0. -1.
   -9000007    1    1    2    0  501 -0.17093457942E+03  0.33450653041E+03  0.42529770266E+03  0.69425599401E+03  0.40000000000E+03 0.  1.
<mgrwt>
<rscale>  2 0.54873787E+03</rscale>
<asrwt>0</asrwt>
<pdfrwt beam="1">  1        1 0.89474585E-01 0.54873787E+03</pdfrwt>
<pdfrwt beam="2">  1       -1 0.11202229E+00 0.54873787E+03</pdfrwt>
<totfact> 0.27482810E+01</totfact>
</mgrwt>
</event>
<event>
 4    1  0.2338029E-002  0.6483410E+03  0.7818608E-02  0.9809897E-01
          1   -1    0    0  502    0  0.00000000000E+00  0.00000000000E+00  0.19715905711E+04  0.19715905711E+04  0.00000000000E+00 0. -1.
         -1   -1    0    0    0  501 -0.00000000000E+00 -0.00000000000E+00 -0.21570082716E+03  0.21570082716E+03  0.00000000000E+00 0.  1.
    9000007    1    1    2  502    0  0.22800127314E+03 -0.45646628154E+03  0.76022136311E+03  0.99914091482E+03  0.40000000000E+03 0.  1.
   -9000007    1    1    2    0  501 -0.22800127314E+03  0.45646628154E+03  0.99566838085E+03  0.11881504835E+04  0.40000000000E+03 0.  1.
<mgrwt>
<rscale>  2 0.64834100E+03</rscale>
<asrwt>0</asrwt>
<pdfrwt beam="1">  1        1 0.30332161E+00 0.64834100E+03</pdfrwt>
<pdfrwt beam="2">  1       -1 0.33184744E-01 0.64834100E+03</pdfrwt>
<totfact> 0.27997963E+01</totfact>
</mgrwt>
</event>
<event>
 4    1  0.2338029E-002  0.4210668E+03  0.7818608E-02  0.1036720E+00
          1   -1    0    0  502    0  0.00000000000E+00  0.00000000000E+00  0.12241916749E+04  0.12241916749E+04  0.00000000000E+00 0. -1.
         -1   -1    0    0    0  501 -0.00000000000E+00 -0.00000000000E+00 -0.14487618963E+03  0.14487618963E+03  0.00000000000E+00 0.  1.
    9000007    1    1    2  502    0 -0.12424299999E+03  0.43138823300E+02  0.55213709201E+03  0.69437212609E+03  0.40000000000E+03 0. -1.
   -9000007    1    1    2    0  501  0.12424299999E+03 -0.43138823300E+02  0.52717839322E+03  0.67469573839E+03  0.40000000000E+03 0.  1.
<mgrwt>
<rscale>  2 0.42106684E+03</rscale>
<asrwt>0</asrwt>
<pdfrwt beam="1">  1        1 0.18833717E+00 0.42106684E+03</pdfrwt>
<pdfrwt beam="2">  1       -1 0.22288645E-01 0.42106684E+03</pdfrwt>
<totfact> 0.18309157E+02</totfact>
</mgrwt>
</event>
<event>
 4    1  0.2338029E-002  0.4879850E+03  0.7818608E-02  0.1016963E+00
         -2   -1    0    0    0  501 -0.00000000000E+00  0.00000000000E+00  0.60622608758E+03  0.60622608758E+03  0.00000000000E+00 0.  1.
          2   -1    0    0  502    0  0.00000000000E+00 -0.00000000000E+00 -0.39509590127E+03  0.39509590127E+03  0.00000000000E+00 0. -1.
    9000007    1    1    2  502    0 -0.27758748234E+03  0.32780349103E+02  0.67451266061E+02  0.49262463898E+03  0.40000000000E+03 0. -1.
   -9000007    1    1    2    0  501  0.27758748234E+03 -0.32780349103E+02  0.14367892024E+03  0.50869734987E+03  0.40000000000E+03 0.  1.
<mgrwt>
<rscale>  2 0.48798500E+03</rscale>
<asrwt>0</asrwt>
<pdfrwt beam="1">  1        2 0.60783985E-01 0.48798500E+03</pdfrwt>
<pdfrwt beam="2">  1       -2 0.93265552E-01 0.48798500E+03</pdfrwt>
<totfact> 0.80638609E+01</totfact>
</mgrwt>
</event>
<event>
 4    1  0.2338029E-002  0.6133754E+03  0.7818608E-02  0.9878038E-01
         -1   -1    0    0    0  501 -0.00000000000E+00  0.00000000000E+00  0.14942319845E+03  0.14942319845E+03  0.00000000000E+00 0.  1.
          1   -1    0    0  502    0  0.00000000000E+00 -0.00000000000E+00 -0.30494104400E+04  0.30494104400E+04  0.00000000000E+00 0. -1.
    9000007    1    1    2  502    0  0.33611248395E+03 -0.32133752806E+03 -0.78223648578E+03  0.99404392684E+03  0.40000000000E+03 0.  1.
   -9000007    1    1    2    0  501 -0.33611248395E+03  0.32133752806E+03 -0.21177507557E+04  0.22047897116E+04  0.40000000000E+03 0. -1.
<mgrwt>
<rscale>  2 0.61337542E+03</rscale>
<asrwt>0</asrwt>
<pdfrwt beam="1">  1        1 0.46914004E+00 0.61337542E+03</pdfrwt>
<pdfrwt beam="2">  1       -1 0.22988186E-01 0.61337542E+03</pdfrwt>
<totfact> 0.96993747E+00</totfact>
</mgrwt>
</event>
<event>
 4    1  0.2338029E-002  0.4071206E+03  0.7818608E-02  0.1041342E+00
         -1   -1    0    0    0  501 -0.00000000000E+00  0.00000000000E+00  0.32457331639E+03  0.32457331639E+03  0.00000000000E+00 0.  1.
          1   -1    0    0  502    0  0.00000000000E+00 -0.00000000000E+00 -0.61114806534E+03  0.61114806534E+03  0.00000000000E+00 0. -1.
    9000007    1    1    2  502    0 -0.73283302823E+02  0.19410271339E+02 -0.33300017822E+03  0.52596227983E+03  0.40000000000E+03 0. -1.
   -9000007    1    1    2    0  501  0.73283302823E+02 -0.19410271339E+02  0.46425429273E+02  0.40975910190E+03  0.40000000000E+03 0.  1.
<mgrwt>
<rscale>  2 0.40712062E+03</rscale>
<asrwt>0</asrwt>
<pdfrwt beam="1">  1        1 0.94022779E-01 0.40712062E+03</pdfrwt>
<pdfrwt beam="2">  1       -1 0.49934356E-01 0.40712062E+03</pdfrwt>
<totfact> 0.14022663E+02</totfact>
</mgrwt>
</event>
<event>
 4    1  0.2338029E-002  0.4579576E+03  0.7818608E-02  0.1025375E+00
         -2   -1    0    0    0  501 -0.00000000000E+00  0.00000000000E+00  0.72213076826E+02  0.72213076826E+02  0.00000000000E+00 0.  1.
          2   -1    0    0  502    0  0.00000000000E+00 -0.00000000000E+00 -0.29239177850E+04  0.29239177850E+04  0.00000000000E+00 0. -1.
    9000007    1    1    2  502    0 -0.43769285491E+02 -0.21865357786E+03 -0.13030013620E+04  0.13811363752E+04  0.40000000000E+03 0.  1.
   -9000007    1    1    2    0  501  0.43769285491E+02  0.21865357786E+03 -0.15487033462E+04  0.16149944867E+04  0.40000000000E+03 0.  1.
<mgrwt>
<rscale>  2 0.45795757E+03</rscale>
<asrwt>0</asrwt>
<pdfrwt beam="1">  1        2 0.44983350E+00 0.45795757E+03</pdfrwt>
<pdfrwt beam="2">  1       -2 0.11109704E-01 0.45795757E+03</pdfrwt>
<totfact> 0.12359492E+02</totfact>
</mgrwt>
</event>
<event>
 4    1  0.2338029E-002  0.4853705E+03  0.7818608E-02  0.1017670E+00
         -2   -1    0    0    0  501 -0.00000000000E+00  0.00000000000E+00  0.15475463323E+03  0.15475463323E+03  0.00000000000E+00 0. -1.
          2   -1    0    0  502    0  0.00000000000E+00 -0.00000000000E+00 -0.15309307001E+04  0.15309307001E+04  0.00000000000E+00 0.  1.
    9000007    1    1    2  502    0  0.27315600585E+03 -0.31149555491E+02 -0.75133569496E+03  0.89447740321E+03  0.40000000000E+03 0.  1.
   -9000007    1    1    2    0  501 -0.27315600585E+03  0.31149555491E+02 -0.62484037196E+03  0.79120793017E+03  0.40000000000E+03 0. -1.
<mgrwt>
<rscale>  2 0.48537048E+03</rscale>
<asrwt>0</asrwt>
<pdfrwt beam="1">  1        2 0.23552780E+00 0.48537048E+03</pdfrwt>
<pdfrwt beam="2">  1       -2 0.23808405E-01 0.48537048E+03</pdfrwt>
<totfact> 0.19871832E+02</totfact>
</mgrwt>
</event>
<event>
 4    1  0.2338029E-002  0.4315731E+03  0.7818608E-02  0.1033364E+00
          2   -1    0    0  502    0  0.00000000000E+00  0.00000000000E+00  0.21663744973E+03  0.21663744973E+03  0.00000000000E+00 0.  1.
         -2   -1    0    0    0  501 -0.00000000000E+00 -0.00000000000E+00 -0.89614144240E+03  0.89614144240E+03  0.00000000000E+00 0. -1.
    9000007    1    1    2  502    0  0.19197896621E+02  0.16089371098E+03 -0.22763938178E+03  0.48792933259E+03  0.40000000000E+03 0. -1.
   -9000007    1    1    2    0  501 -0.19197896621E+02 -0.16089371098E+03 -0.45186461090E+03  0.62484955954E+03  0.40000000000E+03 0. -1.
<mgrwt>
<rscale>  2 0.43157311E+03</rscale>
<asrwt>0</asrwt>
<pdfrwt beam="1">  1        2 0.33328839E-01 0.43157311E+03</pdfrwt>
<pdfrwt beam="2">  1       -2 0.13786791E+00 0.43157311E+03</pdfrwt>
<totfact> 0.60908693E+01</totfact>
</mgrwt>
</event>
<event>
 4    1  0.2338029E-002  0.4241182E+03  0.7818608E-02  0.1035734E+00
         -1   -1    0    0    0  501 -0.00000000000E+00  0.00000000000E+00  0.41380524117E+03  0.41380524117E+03  0.00000000000E+00 0.  1.
          1   -1    0    0  502    0  0.00000000000E+00 -0.00000000000E+00 -0.84664522262E+03  0.84664522262E+03  0.00000000000E+00 0. -1.
    9000007    1    1    2  502    0 -0.12070036163E+03 -0.72853743548E+02 -0.65603349413E+03  0.78118895964E+03  0.40000000000E+03 0. -1.
   -9000007    1    1    2    0  501  0.12070036163E+03  0.72853743548E+02  0.22319351268E+03  0.47926150414E+03  0.40000000000E+03 0.  1.
<mgrwt>
<rscale>  2 0.42411820E+03</rscale>
<asrwt>0</asrwt>
<pdfrwt beam="1">  1        1 0.13025311E+00 0.42411820E+03</pdfrwt>
<pdfrwt beam="2">  1       -1 0.63662345E-01 0.42411820E+03</pdfrwt>
<totfact> 0.53707672E+01</totfact>
</mgrwt>
</event>
<event>
 4    1  0.2338029E-002  0.4902413E+03  0.7818608E-02  0.1016358E+00
         -1   -1    0    0    0  501 -0.00000000000E+00  0.00000000000E+00  0.88696608749E+02  0.88696608749E+02  0.00000000000E+00 0.  1.
          1   -1    0    0  502    0  0.00000000000E+00 -0.00000000000E+00 -0.31483666448E+04  0.31483666448E+04  0.00000000000E+00 0. -1.
    9000007    1    1    2  502    0 -0.28339991629E+03  0.45862470899E+01 -0.21340226358E+04  0.21896093616E+04  0.40000000000E+03 0. -1.
   -9000007    1    1    2    0  501  0.28339991629E+03 -0.45862470899E+01 -0.92564740029E+03  0.10474538920E+04  0.40000000000E+03 0.  1.
<mgrwt>
<rscale>  2 0.49024131E+03</rscale>
<asrwt>0</asrwt>
<pdfrwt beam="1">  1        1 0.48436412E+00 0.49024131E+03</pdfrwt>
<pdfrwt beam="2">  1       -1 0.13645632E-01 0.49024131E+03</pdfrwt>
<totfact> 0.19895599E+01</totfact>
</mgrwt>
</event>
<event>
 4    1  0.2338029E-002  0.4290239E+03  0.7818608E-02  0.1034169E+00
         -1   -1    0    0    0  501 -0.00000000000E+00  0.00000000000E+00  0.17838809951E+03  0.17838809951E+03  0.00000000000E+00 0. -1.
          1   -1    0    0  502    0  0.00000000000E+00 -0.00000000000E+00 -0.10480920274E+04  0.10480920274E+04  0.00000000000E+00 0.  1.
    9000007    1    1    2  502    0 -0.79353186494E+02  0.13328376047E+03 -0.51130063848E+03  0.66745024677E+03  0.40000000000E+03 0. -1.
   -9000007    1    1    2    0  501  0.79353186494E+02 -0.13328376047E+03 -0.35840328938E+03  0.55902988011E+03  0.40000000000E+03 0. -1.
<mgrwt>
<rscale>  2 0.42902388E+03</rscale>
<asrwt>0</asrwt>
<pdfrwt beam="1">  1        1 0.16124493E+00 0.42902388E+03</pdfrwt>
<pdfrwt beam="2">  1       -1 0.27444323E-01 0.42902388E+03</pdfrwt>
<totfact> 0.17290844E+02</totfact>
</mgrwt>
</event>
<event>
 4    1  0.2338029E-002  0.4061351E+03  0.7818608E-02  0.1041676E+00
          2   -1    0    0  502    0  0.00000000000E+00  0.00000000000E+00  0.12417870351E+04  0.12417870351E+04  0.00000000000E+00 0. -1.
         -2   -1    0    0    0  501 -0.00000000000E+00 -0.00000000000E+00 -0.13828868800E+03  0.13828868800E+03  0.00000000000E+00 0.  1.
    9000007    1    1    2  502    0  0.18207389712E+02  0.67927994712E+02  0.41464490756E+03  0.58041030390E+03  0.40000000000E+03 0.  1.
   -9000007    1    1    2    0  501 -0.18207389712E+02 -0.67927994712E+02  0.68885343958E+03  0.79966541924E+03  0.40000000000E+03 0. -1.
<mgrwt>
<rscale>  2 0.40613510E+03</rscale>
<asrwt>0</asrwt>
<pdfrwt beam="1">  1        2 0.19104415E+00 0.40613510E+03</pdfrwt>
<pdfrwt beam="2">  1       -2 0.21275184E-01 0.40613510E+03</pdfrwt>
<totfact> 0.35412373E+02</totfact>
</mgrwt>
</event>
<event>
 4    1  0.2338029E-002  0.4004313E+03  0.7818608E-02  0.1043630E+00
          2   -1    0    0  502    0  0.00000000000E+00  0.00000000000E+00  0.18450667663E+04  0.18450667663E+04  0.00000000000E+00 0.  1.
         -2   -1    0    0    0  501 -0.00000000000E+00 -0.00000000000E+00 -0.92137210622E+02  0.92137210622E+02  0.00000000000E+00 0. -1.
    9000007    1    1    2  502    0 -0.14510805437E+02 -0.11605160155E+02  0.64564297657E+03  0.75973685998E+03  0.40000000000E+03 0. -1.
   -9000007    1    1    2    0  501  0.14510805437E+02  0.11605160155E+02  0.11072865792E+04  0.11774671170E+04  0.40000000000E+03 0.  1.
<mgrwt>
<rscale>  2 0.40043132E+03</rscale>
<asrwt>0</asrwt>
<pdfrwt beam="1">  1        2 0.28385640E+00 0.40043132E+03</pdfrwt>
<pdfrwt beam="2">  1       -2 0.14174957E-01 0.40043132E+03</pdfrwt>
<totfact> 0.33143536E+02</totfact>
</mgrwt>
</event>
<event>
 4    1  0.2338029E-002  0.4058936E+03  0.7818608E-02  0.1041758E+00
          2   -1    0    0  502    0  0.00000000000E+00  0.00000000000E+00  0.10490586728E+04  0.10490586728E+04  0.00000000000E+00 0.  1.
         -2   -1    0    0    0  501 -0.00000000000E+00 -0.00000000000E+00 -0.16992059350E+03  0.16992059350E+03  0.00000000000E+00 0. -1.
    9000007    1    1    2  502    0 -0.43019714214E+02  0.53841594255E+02  0.27179536085E+03  0.48848984765E+03  0.40000000000E+03 0. -1.
   -9000007    1    1    2    0  501  0.43019714214E+02 -0.53841594255E+02  0.60734271842E+03  0.73048941861E+03  0.40000000000E+03 0.  1.
<mgrwt>
<rscale>  2 0.40589360E+03</rscale>
<asrwt>0</asrwt>
<pdfrwt beam="1">  1        2 0.16139364E+00 0.40589360E+03</pdfrwt>
<pdfrwt beam="2">  1       -2 0.26141630E-01 0.40589360E+03</pdfrwt>
<totfact> 0.31950126E+02</totfact>
</mgrwt>
</event>
<event>
 4    1  0.2338029E-002  0.4616416E+03  0.7818608E-02  0.1024306E+00
          4   -1    0    0  502    0  0.00000000000E+00  0.00000000000E+00  0.83479874331E+03  0.83479874331E+03  0.00000000000E+00 0. -1.
         -4   -1    0    0    0  501 -0.00000000000E+00 -0.00000000000E+00 -0.28721396621E+03  0.28721396621E+03  0.00000000000E+00 0.  1.
    9000007    1    1    2  502    0  0.17345911605E+02  0.22980881417E+03  0.86747332342E+02  0.46972126989E+03  0.40000000000E+03 0.  1.
   -9000007    1    1    2    0  501 -0.17345911605E+02 -0.22980881417E+03  0.46083744475E+03  0.65229143962E+03  0.40000000000E+03 0. -1.
<mgrwt>
<rscale>  2 0.46164161E+03</rscale>
<asrwt>0</asrwt>
<pdfrwt beam="1">  1        4 0.12843057E+00 0.46164161E+03</pdfrwt>
<pdfrwt beam="2">  1       -4 0.44186764E-01 0.46164161E+03</pdfrwt>
<totfact> 0.43292362E+00</totfact>
</mgrwt>
</event>
<event>
 4    1  0.2338029E-002  0.5075237E+03  0.7818608E-02  0.1011834E+00
         -1   -1    0    0    0  501 -0.00000000000E+00  0.00000000000E+00  0.73016745631E+02  0.73016745631E+02  0.00000000000E+00 0.  1.
          1   -1    0    0  502    0  0.00000000000E+00 -0.00000000000E+00 -0.36188594536E+04  0.36188594536E+04  0.00000000000E+00 0. -1.
    9000007    1    1    2  502    0 -0.29995696316E+03  0.87213334562E+02 -0.20659156364E+04  0.21273428878E+04  0.40000000000E+03 0. -1.
   -9000007    1    1    2    0  501  0.29995696316E+03 -0.87213334562E+02 -0.14799270716E+04  0.15645333115E+04  0.40000000000E+03 0.  1.
<mgrwt>
<rscale>  2 0.50752374E+03</rscale>
<asrwt>0</asrwt>
<pdfrwt beam="1">  1        1 0.55674766E+00 0.50752374E+03</pdfrwt>
<pdfrwt beam="2">  1       -1 0.11233344E-01 0.50752374E+03</pdfrwt>
<totfact> 0.11952646E+01</totfact>
</mgrwt>
</event>
<event>
 4    1  0.2338029E-002  0.4475694E+03  0.7818608E-02  0.1028449E+00
          2   -1    0    0  502    0  0.00000000000E+00  0.00000000000E+00  0.11283065533E+04  0.11283065533E+04  0.00000000000E+00 0. -1.
         -2   -1    0    0    0  501 -0.00000000000E+00 -0.00000000000E+00 -0.19612501818E+03  0.19612501818E+03  0.00000000000E+00 0.  1.
    9000007    1    1    2  502    0  0.11250270483E+03 -0.16631761757E+03  0.66994808226E+03  0.80569773577E+03  0.40000000000E+03 0. -1.
   -9000007    1    1    2    0  501 -0.11250270483E+03  0.16631761757E+03  0.26223345286E+03  0.51873383570E+03  0.40000000000E+03 0. -1.
<mgrwt>
<rscale>  2 0.44756945E+03</rscale>
<asrwt>0</asrwt>
<pdfrwt beam="1">  1        2 0.17358562E+00 0.44756945E+03</pdfrwt>
<pdfrwt beam="2">  1       -2 0.30173080E-01 0.44756945E+03</pdfrwt>
<totfact> 0.21962789E+02</totfact>
</mgrwt>
</event>
<event>
 4    1  0.2338029E-002  0.4031592E+03  0.7818608E-02  0.1042691E+00
          2   -1    0    0  502    0  0.00000000000E+00  0.00000000000E+00  0.11948165607E+04  0.11948165607E+04  0.00000000000E+00 0. -1.
         -2   -1    0    0    0  501 -0.00000000000E+00 -0.00000000000E+00 -0.16280169477E+03  0.16280169477E+03  0.00000000000E+00 0.  1.
    9000007    1    1    2  502    0  0.86437794357E+01  0.49624543499E+02  0.79124810057E+03  0.88803764948E+03  0.40000000000E+03 0. -1.
   -9000007    1    1    2    0  501 -0.86437794357E+01 -0.49624543499E+02  0.24076676539E+03  0.46958060603E+03  0.40000000000E+03 0.  1.
<mgrwt>
<rscale>  2 0.40315916E+03</rscale>
<asrwt>0</asrwt>
<pdfrwt beam="1">  1        2 0.18381793E+00 0.40315916E+03</pdfrwt>
<pdfrwt beam="2">  1       -2 0.25046415E-01 0.40315916E+03</pdfrwt>
<totfact> 0.28265229E+02</totfact>
</mgrwt>
</event>
<event>
 4    1  0.2338029E-002  0.4623930E+03  0.7818608E-02  0.1024089E+00
          2   -1    0    0  502    0  0.00000000000E+00  0.00000000000E+00  0.34548224635E+04  0.34548224635E+04  0.00000000000E+00 0. -1.
         -2   -1    0    0    0  501 -0.00000000000E+00 -0.00000000000E+00 -0.61906641856E+02  0.61906641856E+02  0.00000000000E+00 0.  1.
    9000007    1    1    2  502    0 -0.12786336810E+03 -0.19354139251E+03  0.17280740693E+04  0.17888676029E+04  0.40000000000E+03 0. -1.
   -9000007    1    1    2    0  501  0.12786336810E+03  0.19354139251E+03  0.16648417523E+04  0.17278615024E+04  0.40000000000E+03 0. -1.
<mgrwt>
<rscale>  2 0.46239303E+03</rscale>
<asrwt>0</asrwt>
<pdfrwt beam="1">  1        2 0.53151100E+00 0.46239303E+03</pdfrwt>
<pdfrwt beam="2">  1       -2 0.95241015E-02 0.46239303E+03</pdfrwt>
<totfact> 0.73560090E+01</totfact>
</mgrwt>
</event>
<event>
 4    1  0.2338029E-002  0.4080628E+03  0.7818608E-02  0.1041023E+00
         -1   -1    0    0    0  501 -0.00000000000E+00  0.00000000000E+00  0.95862337417E+02  0.95862337417E+02  0.00000000000E+00 0.  1.
          1   -1    0    0  502    0  0.00000000000E+00 -0.00000000000E+00 -0.17487735316E+04  0.17487735316E+04  0.00000000000E+00 0. -1.
    9000007    1    1    2  502    0  0.63954514692E+02  0.49245373112E+02 -0.90205245088E+03  0.99005752907E+03  0.40000000000E+03 0. -1.
   -9000007    1    1    2    0  501 -0.63954514692E+02 -0.49245373112E+02 -0.75085874331E+03  0.85457833996E+03  0.40000000000E+03 0. -1.
<mgrwt>
<rscale>  2 0.40806285E+03</rscale>
<asrwt>0</asrwt>
<pdfrwt beam="1">  1        1 0.26904207E+00 0.40806285E+03</pdfrwt>
<pdfrwt beam="2">  1       -1 0.14748052E-01 0.40806285E+03</pdfrwt>
<totfact> 0.15892258E+02</totfact>
</mgrwt>
</event>
<event>
 4    1  0.2338029E-002  0.5749105E+03  0.7818608E-02  0.9958871E-01
          2   -1    0    0  502    0  0.00000000000E+00  0.00000000000E+00  0.65017109335E+03  0.65017109335E+03  0.00000000000E+00 0.  1.
         -2   -1    0    0    0  501 -0.00000000000E+00 -0.00000000000E+00 -0.67646293854E+03  0.67646293854E+03  0.00000000000E+00 0. -1.
    9000007    1    1    2  502    0  0.35920166269E+03  0.20370633847E+03 -0.34380811606E+03  0.66987023182E+03  0.40000000000E+03 0. -1.
   -9000007    1    1    2    0  501 -0.35920166269E+03 -0.20370633847E+03  0.31751627087E+03  0.65676380007E+03  0.40000000000E+03 0. -1.
<mgrwt>
<rscale>  2 0.57491052E+03</rscale>
<asrwt>0</asrwt>
<pdfrwt beam="1">  1        2 0.10002632E+00 0.57491052E+03</pdfrwt>
<pdfrwt beam="2">  1       -2 0.10407122E+00 0.57491052E+03</pdfrwt>
<totfact> 0.34742757E+01</totfact>
</mgrwt>
</event>
<event>
 4    1  0.2338029E-002  0.7628494E+03  0.7818608E-02  0.9615405E-01
         -2   -1    0    0    0  501 -0.00000000000E+00  0.00000000000E+00  0.62971300647E+03  0.62971300647E+03  0.00000000000E+00 0. -1.
          2   -1    0    0  502    0  0.00000000000E+00 -0.00000000000E+00 -0.92425404293E+03  0.92425404293E+03  0.00000000000E+00 0.  1.
    9000007    1    1    2  502    0 -0.97770700598E+02 -0.64216832924E+03 -0.15612113045E+03  0.77866108182E+03  0.40000000000E+03 0.  1.
   -9000007    1    1    2    0  501  0.97770700598E+02  0.64216832924E+03 -0.13841990602E+03  0.77530596757E+03  0.40000000000E+03 0. -1.
<mgrwt>
<rscale>  2 0.76284944E+03</rscale>
<asrwt>0</asrwt>
<pdfrwt beam="1">  1        2 0.14219293E+00 0.76284944E+03</pdfrwt>
<pdfrwt beam="2">  1       -2 0.96878924E-01 0.76284944E+03</pdfrwt>
<totfact> 0.25495859E+01</totfact>
</mgrwt>
</event>
<event>
 4    1  0.2338029E-002  0.4034509E+03  0.7818608E-02  0.1042591E+00
          2   -1    0    0  502    0  0.00000000000E+00  0.00000000000E+00  0.24751564045E+03  0.24751564045E+03  0.00000000000E+00 0. -1.
         -2   -1    0    0    0  501 -0.00000000000E+00 -0.00000000000E+00 -0.90125221237E+03  0.90125221237E+03  0.00000000000E+00 0.  1.
    9000007    1    1    2  502    0  0.48789886011E+02  0.19802423298E+02 -0.62550389188E+03  0.74433037537E+03  0.40000000000E+03 0.  1.
   -9000007    1    1    2    0  501 -0.48789886011E+02 -0.19802423298E+02 -0.28232680039E+02  0.40443747745E+03  0.40000000000E+03 0. -1.
<mgrwt>
<rscale>  2 0.40345085E+03</rscale>
<asrwt>0</asrwt>
<pdfrwt beam="1">  1        2 0.38079329E-01 0.40345085E+03</pdfrwt>
<pdfrwt beam="2">  1       -2 0.13865419E+00 0.40345085E+03</pdfrwt>
<totfact> 0.51946588E+01</totfact>
</mgrwt>
</event>
<event>
 4    1  0.2338029E-002  0.5089788E+03  0.7818608E-02  0.1011462E+00
          1   -1    0    0  502    0  0.00000000000E+00  0.00000000000E+00  0.35979609344E+03  0.35979609344E+03  0.00000000000E+00 0.  1.
         -1   -1    0    0    0  501 -0.00000000000E+00 -0.00000000000E+00 -0.81676101833E+03  0.81676101833E+03  0.00000000000E+00 0. -1.
    9000007    1    1    2  502    0 -0.16318971678E+03  0.26912553435E+03 -0.43094596579E+03  0.66691368432E+03  0.40000000000E+03 0. -1.
   -9000007    1    1    2    0  501  0.16318971678E+03 -0.26912553435E+03 -0.26018959094E+02  0.50964342744E+03  0.40000000000E+03 0.  1.
<mgrwt>
<rscale>  2 0.50897882E+03</rscale>
<asrwt>0</asrwt>
<pdfrwt beam="1">  1        1 0.55353245E-01 0.50897882E+03</pdfrwt>
<pdfrwt beam="2">  1       -1 0.12565554E+00 0.50897882E+03</pdfrwt>
<totfact> 0.39963642E+01</totfact>
</mgrwt>
</event>
<event>
 4    1  0.2338029E-002  0.4106736E+03  0.7818608E-02  0.1040145E+00
          1   -1    0    0  502    0  0.00000000000E+00  0.00000000000E+00  0.17428029260E+04  0.17428029260E+04  0.00000000000E+00 0.  1.
         -1   -1    0    0    0  501 -0.00000000000E+00 -0.00000000000E+00 -0.25159196756E+03  0.25159196756E+03  0.00000000000E+00 0. -1.
    9000007    1    1    2  502    0 -0.50499782525E+02 -0.78118989250E+02 -0.36648250649E+02  0.41230558909E+03  0.40000000000E+03 0. -1.
   -9000007    1    1    2    0  501  0.50499782525E+02  0.78118989250E+02  0.15278592091E+04  0.15820893045E+04  0.40000000000E+03 0.  1.
<mgrwt>
<rscale>  2 0.41067360E+03</rscale>
<asrwt>0</asrwt>
<pdfrwt beam="1">  1        1 0.26812352E+00 0.41067360E+03</pdfrwt>
<pdfrwt beam="2">  1       -1 0.38706458E-01 0.41067360E+03</pdfrwt>
<totfact> 0.31590060E+01</totfact>
</mgrwt>
</event>
<event>
 4    1  0.2338029E-002  0.5410662E+03  0.7818608E-02  0.1003583E+00
         -2   -1    0    0    0  501 -0.00000000000E+00  0.00000000000E+00  0.52715269693E+03  0.52715269693E+03  0.00000000000E+00 0. -1.
          2   -1    0    0  502    0  0.00000000000E+00 -0.00000000000E+00 -0.19307350374E+04  0.19307350374E+04  0.00000000000E+00 0.  1.
    9000007    1    1    2  502    0  0.29542558154E+03  0.21325182957E+03 -0.17390409339E+04  0.18212676868E+04  0.40000000000E+03 0.  1.
   -9000007    1    1    2    0  501 -0.29542558154E+03 -0.21325182957E+03  0.33545859344E+03  0.63662004756E+03  0.40000000000E+03 0. -1.
<mgrwt>
<rscale>  2 0.54106619E+03</rscale>
<asrwt>0</asrwt>
<pdfrwt beam="1">  1        2 0.29703616E+00 0.54106619E+03</pdfrwt>
<pdfrwt beam="2">  1       -2 0.81100415E-01 0.54106619E+03</pdfrwt>
<totfact> 0.10495703E+01</totfact>
</mgrwt>
</event>
<event>
 4    1  0.2338029E-002  0.4802800E+03  0.7818608E-02  0.1019058E+00
         -2   -1    0    0    0  501 -0.00000000000E+00  0.00000000000E+00  0.22017190946E+03  0.22017190946E+03  0.00000000000E+00 0.  1.
          2   -1    0    0  502    0  0.00000000000E+00 -0.00000000000E+00 -0.10570857745E+04  0.10570857745E+04  0.00000000000E+00 0. -1.
    9000007    1    1    2  502    0 -0.20806463532E+03 -0.16546285466E+03 -0.47871019626E+03  0.67810935751E+03  0.40000000000E+03 0. -1.
   -9000007    1    1    2    0  501  0.20806463532E+03  0.16546285466E+03 -0.35820366873E+03  0.59914832641E+03  0.40000000000E+03 0.  1.
<mgrwt>
<rscale>  2 0.48027997E+03</rscale>
<asrwt>0</asrwt>
<pdfrwt beam="1">  1        2 0.16262858E+00 0.48027997E+03</pdfrwt>
<pdfrwt beam="2">  1       -2 0.33872602E-01 0.48027997E+03</pdfrwt>
<totfact> 0.19490228E+02</totfact>
</mgrwt>
</event>
<event>
 4    1  0.2338029E-002  0.4771461E+03  0.7818608E-02  0.1019922E+00
         -3   -1    0    0    0  501 -0.00000000000E+00  0.00000000000E+00  0.11675326507E+04  0.11675326507E+04  0.00000000000E+00 0.  1.
          3   -1    0    0  502    0  0.00000000000E+00 -0.00000000000E+00 -0.26874785605E+03  0.26874785605E+03  0.00000000000E+00 0. -1.
    9000007    1    1    2  502    0 -0.25818979393E+03  0.31723995318E+02  0.73197682334E+02  0.48272795886E+03  0.40000000000E+03 0. -1.
   -9000007    1    1    2    0  501  0.25818979393E+03 -0.31723995318E+02  0.82558711231E+03  0.95355254788E+03  0.40000000000E+03 0. -1.
<mgrwt>
<rscale>  2 0.47714608E+03</rscale>
<asrwt>0</asrwt>
<pdfrwt beam="1">  1        3 0.41345825E-01 0.47714608E+03</pdfrwt>
<pdfrwt beam="2">  1       -3 0.17962040E+00 0.47714608E+03</pdfrwt>
<totfact> 0.30539166E+00</totfact>
</mgrwt>
</event>
<event>
 4    1  0.2338029E-002  0.4325391E+03  0.7818608E-02  0.1033061E+00
          2   -1    0    0  502    0  0.00000000000E+00  0.00000000000E+00  0.28997751344E+03  0.28997751344E+03  0.00000000000E+00 0. -1.
         -2   -1    0    0    0  501 -0.00000000000E+00 -0.00000000000E+00 -0.79973699121E+03  0.79973699121E+03  0.00000000000E+00 0.  1.
    9000007    1    1    2  502    0 -0.13084512854E+03 -0.99848199588E+02 -0.49439972228E+03  0.65690272949E+03  0.40000000000E+03 0.  1.
   -9000007    1    1    2    0  501  0.13084512854E+03  0.99848199588E+02 -0.15359755489E+02  0.43281177516E+03  0.40000000000E+03 0. -1.
<mgrwt>
<rscale>  2 0.43253914E+03</rscale>
<asrwt>0</asrwt>
<pdfrwt beam="1">  1        2 0.44611925E-01 0.43253914E+03</pdfrwt>
<pdfrwt beam="2">  1       -2 0.12303646E+00 0.43253914E+03</pdfrwt>
<totfact> 0.58764508E+01</totfact>
</mgrwt>
</event>
<event>
 4    1  0.2338029E-002  0.4648799E+03  0.7818608E-02  0.1023375E+00
         -2   -1    0    0    0  501 -0.00000000000E+00  0.00000000000E+00  0.35468607206E+03  0.35468607206E+03  0.00000000000E+00 0.  1.
          2   -1    0    0  502    0  0.00000000000E+00 -0.00000000000E+00 -0.62743823954E+03  0.62743823954E+03  0.00000000000E+00 0. -1.
    9000007    1    1    2  502    0  0.23687292983E+03  0.21249315219E+01 -0.21984882458E+03  0.51424391672E+03  0.40000000000E+03 0. -1.
   -9000007    1    1    2    0  501 -0.23687292983E+03 -0.21249315219E+01 -0.52903342910E+02  0.46788039488E+03  0.40000000000E+03 0. -1.
<mgrwt>
<rscale>  2 0.46487988E+03</rscale>
<asrwt>0</asrwt>
<pdfrwt beam="1">  1        2 0.96528960E-01 0.46487988E+03</pdfrwt>
<pdfrwt beam="2">  1       -2 0.54567088E-01 0.46487988E+03</pdfrwt>
<totfact> 0.15269606E+02</totfact>
</mgrwt>
</event>
<event>
 4    1  0.2338029E-002  0.4639070E+03  0.7818608E-02  0.1023654E+00
         -2   -1    0    0    0  501 -0.00000000000E+00  0.00000000000E+00  0.34865363245E+03  0.34865363245E+03  0.00000000000E+00 0. -1.
          2   -1    0    0  502    0  0.00000000000E+00 -0.00000000000E+00 -0.62036089427E+03  0.62036089427E+03  0.00000000000E+00 0.  1.
    9000007    1    1    2  502    0  0.64275414289E+02 -0.22600517959E+03 -0.10159452654E+03  0.47490116646E+03  0.40000000000E+03 0. -1.
   -9000007    1    1    2    0  501 -0.64275414289E+02  0.22600517959E+03 -0.17011273528E+03  0.49411336026E+03  0.40000000000E+03 0. -1.
<mgrwt>
<rscale>  2 0.46390696E+03</rscale>
<asrwt>0</asrwt>
<pdfrwt beam="1">  1        2 0.95440137E-01 0.46390696E+03</pdfrwt>
<pdfrwt beam="2">  1       -2 0.53639021E-01 0.46390696E+03</pdfrwt>
<totfact> 0.16035278E+02</totfact>
</mgrwt>
</event>
<event>
 4    1  0.2338029E-002  0.5215802E+03  0.7818608E-02  0.1008295E+00
         -2   -1    0    0    0  501 -0.00000000000E+00  0.00000000000E+00  0.24797383221E+03  0.24797383221E+03  0.00000000000E+00 0.  1.
          2   -1    0    0  502    0  0.00000000000E+00 -0.00000000000E+00 -0.14494930719E+04  0.14494930719E+04  0.00000000000E+00 0. -1.
    9000007    1    1    2  502    0  0.33245094722E+03 -0.39016691717E+02 -0.10192565026E+04  0.11449584065E+04  0.40000000000E+03 0. -1.
   -9000007    1    1    2    0  501 -0.33245094722E+03  0.39016691717E+02 -0.18226273702E+03  0.55250849753E+03  0.40000000000E+03 0.  1.
<mgrwt>
<rscale>  2 0.52158023E+03</rscale>
<asrwt>0</asrwt>
<pdfrwt beam="1">  1        2 0.22299894E+00 0.52158023E+03</pdfrwt>
<pdfrwt beam="2">  1       -2 0.38149820E-01 0.52158023E+03</pdfrwt>
<totfact> 0.91815285E+01</totfact>
</mgrwt>
</event>
<event>
 4    1  0.2338029E-002  0.6226012E+03  0.7818608E-02  0.9859594E-01
          1   -1    0    0  502    0  0.00000000000E+00  0.00000000000E+00  0.95713016218E+03  0.95713016218E+03  0.00000000000E+00 0. -1.
         -1   -1    0    0    0  501 -0.00000000000E+00 -0.00000000000E+00 -0.40947226698E+03  0.40947226698E+03  0.00000000000E+00 0.  1.
    9000007    1    1    2  502    0 -0.31556488439E+03 -0.35784224606E+03  0.34528514797E+03  0.71193686710E+03  0.40000000000E+03 0.  1.
   -9000007    1    1    2    0  501  0.31556488439E+03  0.35784224606E+03  0.20237274723E+03  0.65466556206E+03  0.40000000000E+03 0.  1.
<mgrwt>
<rscale>  2 0.62260121E+03</rscale>
<asrwt>0</asrwt>
<pdfrwt beam="1">  1        1 0.14725079E+00 0.62260121E+03</pdfrwt>
<pdfrwt beam="2">  1       -1 0.62995733E-01 0.62260121E+03</pdfrwt>
<totfact> 0.43451122E+01</totfact>
</mgrwt>
</event>
<event>
 4    1  0.2338029E-002  0.4087033E+03  0.7818608E-02  0.1040807E+00
         -2   -1    0    0    0  501 -0.00000000000E+00  0.00000000000E+00  0.12986046613E+04  0.12986046613E+04  0.00000000000E+00 0.  1.
          2   -1    0    0  502    0  0.00000000000E+00 -0.00000000000E+00 -0.12936265797E+03  0.12936265797E+03  0.00000000000E+00 0. -1.
    9000007    1    1    2  502    0  0.14824944177E+02 -0.82574775918E+02  0.53085650139E+03  0.66996044485E+03  0.40000000000E+03 0. -1.
   -9000007    1    1    2    0  501 -0.14824944177E+02  0.82574775918E+02  0.63838550191E+03  0.75800687440E+03  0.40000000000E+03 0. -1.
<mgrwt>
<rscale>  2 0.40870328E+03</rscale>
<asrwt>0</asrwt>
<pdfrwt beam="1">  1        2 0.19901948E-01 0.40870328E+03</pdfrwt>
<pdfrwt beam="2">  1       -2 0.19978532E+00 0.40870328E+03</pdfrwt>
<totfact> 0.39847878E+01</totfact>
</mgrwt>
</event>
<event>
 4    1  0.2338029E-002  0.4105258E+03  0.7818608E-02  0.1040195E+00
         -1   -1    0    0    0  501 -0.00000000000E+00  0.00000000000E+00  0.21278305949E+03  0.21278305949E+03  0.00000000000E+00 0. -1.
          1   -1    0    0  502    0  0.00000000000E+00 -0.00000000000E+00 -0.13181154271E+04  0.13181154271E+04  0.00000000000E+00 0.  1.
    9000007    1    1    2  502    0 -0.87211523111E+02 -0.30423086989E+02 -0.10362437762E+04  0.11145997388E+04  0.40000000000E+03 0.  1.
   -9000007    1    1    2    0  501  0.87211523111E+02  0.30423086989E+02 -0.69088591439E+02  0.41629874784E+03  0.40000000000E+03 0. -1.
<mgrwt>
<rscale>  2 0.41052578E+03</rscale>
<asrwt>0</asrwt>
<pdfrwt beam="1">  1        1 0.20278699E+00 0.41052578E+03</pdfrwt>
<pdfrwt beam="2">  1       -1 0.32735855E-01 0.41052578E+03</pdfrwt>
<totfact> 0.81946648E+01</totfact>
</mgrwt>
</event>
<event>
 4    1  0.2338029E-002  0.4367816E+03  0.7818608E-02  0.1031739E+00
         -1   -1    0    0    0  501 -0.00000000000E+00  0.00000000000E+00  0.18443953651E+03  0.18443953651E+03  0.00000000000E+00 0. -1.
          1   -1    0    0  502    0  0.00000000000E+00 -0.00000000000E+00 -0.10917049689E+04  0.10917049689E+04  0.00000000000E+00 0.  1.
    9000007    1    1    2  502    0  0.86359421032E+00 -0.17543489874E+03 -0.59986349420E+03  0.74203393532E+03  0.40000000000E+03 0.  1.
   -9000007    1    1    2    0  501 -0.86359421032E+00  0.17543489874E+03 -0.30740193820E+03  0.53411057011E+03  0.40000000000E+03 0. -1.
<mgrwt>
<rscale>  2 0.43678158E+03</rscale>
<asrwt>0</asrwt>
<pdfrwt beam="1">  1        1 0.16795461E+00 0.43678158E+03</pdfrwt>
<pdfrwt beam="2">  1       -1 0.28375313E-01 0.43678158E+03</pdfrwt>
<totfact> 0.15145935E+02</totfact>
</mgrwt>
</event>
<event>
 4    1  0.2338029E-002  0.4502490E+03  0.7818608E-02  0.1027648E+00
         -1   -1    0    0    0  501 -0.00000000000E+00  0.00000000000E+00  0.63523522275E+03  0.63523522275E+03  0.00000000000E+00 0. -1.
          1   -1    0    0  502    0  0.00000000000E+00 -0.00000000000E+00 -0.32268946588E+03  0.32268946588E+03  0.00000000000E+00 0.  1.
    9000007    1    1    2  502    0  0.17045326771E+03  0.11691804830E+03  0.10598602952E+03  0.46255506153E+03  0.40000000000E+03 0.  1.
   -9000007    1    1    2    0  501 -0.17045326771E+03 -0.11691804830E+03  0.20655972736E+03  0.49536962710E+03  0.40000000000E+03 0. -1.
<mgrwt>
<rscale>  2 0.45024898E+03</rscale>
<asrwt>0</asrwt>
<pdfrwt beam="1">  1        1 0.49644533E-01 0.45024898E+03</pdfrwt>
<pdfrwt beam="2">  1       -1 0.97728496E-01 0.45024898E+03</pdfrwt>
<totfact> 0.83550499E+01</totfact>
</mgrwt>
</event>
<event>
 4    1  0.2338029E-002  0.4011858E+03  0.7818608E-02  0.1043370E+00
          4   -1    0    0  502    0  0.00000000000E+00  0.00000000000E+00  0.48369996833E+03  0.48369996833E+03  0.00000000000E+00 0. -1.
         -4   -1    0    0    0  501 -0.00000000000E+00 -0.00000000000E+00 -0.33600905113E+03  0.33600905113E+03  0.00000000000E+00 0.  1.
    9000007    1    1    2  502    0 -0.13070681417E+02 -0.27913960320E+02  0.11422447826E+03  0.41712979194E+03  0.40000000000E+03 0. -1.
   -9000007    1    1    2    0  501  0.13070681417E+02  0.27913960320E+02  0.33466438934E+02  0.40257922752E+03  0.40000000000E+03 0.  1.
<mgrwt>
<rscale>  2 0.40118578E+03</rscale>
<asrwt>0</asrwt>
<pdfrwt beam="1">  1        4 0.74415379E-01 0.40118578E+03</pdfrwt>
<pdfrwt beam="2">  1       -4 0.51693700E-01 0.40118578E+03</pdfrwt>
<totfact> 0.11292082E+01</totfact>
</mgrwt>
</event>
<event>
 4    1  0.2338029E-002  0.4163579E+03  0.7818608E-02  0.1038258E+00
         -1   -1    0    0    0  501 -0.00000000000E+00  0.00000000000E+00  0.17430120414E+03  0.17430120414E+03  0.00000000000E+00 0.  1.
          1   -1    0    0  502    0  0.00000000000E+00 -0.00000000000E+00 -0.99507225295E+03  0.99507225295E+03  0.00000000000E+00 0. -1.
    9000007    1    1    2  502    0  0.87821814499E+02 -0.75107908096E+02 -0.42358717362E+03  0.59395282861E+03  0.40000000000E+03 0. -1.
   -9000007    1    1    2    0  501 -0.87821814499E+02  0.75107908096E+02 -0.39718387519E+03  0.57542062847E+03  0.40000000000E+03 0.  1.
<mgrwt>
<rscale>  2 0.41635786E+03</rscale>
<asrwt>0</asrwt>
<pdfrwt beam="1">  1        1 0.15308804E+00 0.41635786E+03</pdfrwt>
<pdfrwt beam="2">  1       -1 0.26815569E-01 0.41635786E+03</pdfrwt>
<totfact> 0.19752299E+02</totfact>
</mgrwt>
</event>
<event>
 4    1  0.2338029E-002  0.4012840E+03  0.7818608E-02  0.1043336E+00
          2   -1    0    0  502    0  0.00000000000E+00  0.00000000000E+00  0.53960798857E+03  0.53960798857E+03  0.00000000000E+00 0.  1.
         -2   -1    0    0    0  501 -0.00000000000E+00 -0.00000000000E+00 -0.30825032480E+03  0.30825032480E+03  0.00000000000E+00 0. -1.
    9000007    1    1    2  502    0 -0.21841784367E+02 -0.23490632944E+02  0.39966951716E+02  0.40326942682E+03  0.40000000000E+03 0. -1.
   -9000007    1    1    2    0  501  0.21841784367E+02  0.23490632944E+02  0.19139071205E+03  0.44458888654E+03  0.40000000000E+03 0.  1.
<mgrwt>
<rscale>  2 0.40128403E+03</rscale>
<asrwt>0</asrwt>
<pdfrwt beam="1">  1        2 0.83016614E-01 0.40128403E+03</pdfrwt>
<pdfrwt beam="2">  1       -2 0.47423127E-01 0.40128403E+03</pdfrwt>
<totfact> 0.24345371E+02</totfact>
</mgrwt>
</event>
<event>
 4    1  0.2338029E-002  0.4311066E+03  0.7818608E-02  0.1033511E+00
          2   -1    0    0  502    0  0.00000000000E+00  0.00000000000E+00  0.12313081151E+04  0.12313081151E+04  0.00000000000E+00 0.  1.
         -2   -1    0    0    0  501 -0.00000000000E+00 -0.00000000000E+00 -0.25361393128E+03  0.25361393128E+03  0.00000000000E+00 0. -1.
    9000007    1    1    2  502    0  0.21097907129E+02  0.15939827381E+03  0.96125638354E+03  0.10535021435E+04  0.40000000000E+03 0.  1.
   -9000007    1    1    2    0  501 -0.21097907129E+02 -0.15939827381E+03  0.16437800298E+02  0.43141990294E+03  0.40000000000E+03 0. -1.
<mgrwt>
<rscale>  2 0.43110664E+03</rscale>
<asrwt>0</asrwt>
<pdfrwt beam="1">  1        2 0.18943201E+00 0.43110664E+03</pdfrwt>
<pdfrwt beam="2">  1       -2 0.39017528E-01 0.43110664E+03</pdfrwt>
<totfact> 0.11809790E+02</totfact>
</mgrwt>
</event>
<event>
 4    1  0.2338029E-002  0.4196543E+03  0.7818608E-02  0.1037179E+00
          2   -1    0    0  502    0  0.00000000000E+00  0.00000000000E+00  0.23116452100E+04  0.23116452100E+04  0.00000000000E+00 0.  1.
         -2   -1    0    0    0  501 -0.00000000000E+00 -0.00000000000E+00 -0.34678887815E+03  0.34678887815E+03  0.00000000000E+00 0. -1.
    9000007    1    1    2  502    0 -0.35781056189E+02  0.12177612269E+03  0.21565992055E+04  0.21970502591E+04  0.40000000000E+03 0.  1.
   -9000007    1    1    2    0  501  0.35781056189E+02 -0.12177612269E+03 -0.19174287367E+03  0.46138382898E+03  0.40000000000E+03 0. -1.
<mgrwt>
<rscale>  2 0.41965427E+03</rscale>
<asrwt>0</asrwt>
<pdfrwt beam="1">  1        2 0.35563771E+00 0.41965427E+03</pdfrwt>
<pdfrwt beam="2">  1       -2 0.53352137E-01 0.41965427E+03</pdfrwt>
<totfact> 0.16484251E+01</totfact>
</mgrwt>
</event>
<event>
 4    1  0.2338029E-002  0.4140643E+03  0.7818608E-02  0.1039016E+00
          2   -1    0    0  502    0  0.00000000000E+00  0.00000000000E+00  0.39209829417E+03  0.39209829417E+03  0.00000000000E+00 0. -1.
         -2   -1    0    0    0  501 -0.00000000000E+00 -0.00000000000E+00 -0.43905982349E+03  0.43905982349E+03  0.00000000000E+00 0.  1.
    9000007    1    1    2  502    0 -0.10269102324E+03  0.30062793128E+02  0.31209109461E+01  0.41407602909E+03  0.40000000000E+03 0. -1.
   -9000007    1    1    2    0  501  0.10269102324E+03 -0.30062793128E+02 -0.50082440268E+02  0.41708208857E+03  0.40000000000E+03 0.  1.
<mgrwt>
<rscale>  2 0.41406427E+03</rscale>
<asrwt>0</asrwt>
<pdfrwt beam="1">  1        2 0.60322815E-01 0.41406427E+03</pdfrwt>
<pdfrwt beam="2">  1       -2 0.67547665E-01 0.41406427E+03</pdfrwt>
<totfact> 0.16774284E+02</totfact>
</mgrwt>
</event>
<event>
 4    1  0.2338029E-002  0.4109894E+03  0.7818608E-02  0.1040040E+00
         -2   -1    0    0    0  501 -0.00000000000E+00  0.00000000000E+00  0.68698331277E+02  0.68698331277E+02  0.00000000000E+00 0.  1.
          2   -1    0    0  502    0  0.00000000000E+00 -0.00000000000E+00 -0.24631560240E+04  0.24631560240E+04  0.00000000000E+00 0. -1.
    9000007    1    1    2  502    0 -0.94121431216E+02 -0.73087024448E+01 -0.11437090163E+04  0.12153117193E+04  0.40000000000E+03 0.  1.
   -9000007    1    1    2    0  501  0.94121431216E+02  0.73087024448E+01 -0.12507486764E+04  0.13165426360E+04  0.40000000000E+03 0. -1.
<mgrwt>
<rscale>  2 0.41098937E+03</rscale>
<asrwt>0</asrwt>
<pdfrwt beam="1">  1        2 0.37894706E+00 0.41098937E+03</pdfrwt>
<pdfrwt beam="2">  1       -2 0.10568975E-01 0.41098937E+03</pdfrwt>
<totfact> 0.24820886E+02</totfact>
</mgrwt>
</event>
<event>
 4    1  0.2338029E-002  0.4497250E+03  0.7818608E-02  0.1027804E+00
          1   -1    0    0  502    0  0.00000000000E+00  0.00000000000E+00  0.25993915433E+04  0.25993915433E+04  0.00000000000E+00 0.  1.
         -1   -1    0    0    0  501 -0.00000000000E+00 -0.00000000000E+00 -0.84932397198E+02  0.84932397198E+02  0.00000000000E+00 0. -1.
    9000007    1    1    2  502    0  0.14916142936E+03 -0.14143359938E+03  0.86849567868E+03  0.97802726901E+03  0.40000000000E+03 0. -1.
   -9000007    1    1    2    0  501 -0.14916142936E+03  0.14143359938E+03  0.16459634674E+04  0.17062966714E+04  0.40000000000E+03 0.  1.
<mgrwt>
<rscale>  2 0.44972502E+03</rscale>
<asrwt>0</asrwt>
<pdfrwt beam="1">  1        1 0.39990633E+00 0.44972502E+03</pdfrwt>
<pdfrwt beam="2">  1       -1 0.13066525E-01 0.44972502E+03</pdfrwt>
<totfact> 0.52140331E+01</totfact>
</mgrwt>
</event>
<event>
 4    1  0.2338029E-002  0.4741134E+03  0.7818608E-02  0.1020766E+00
         -4   -1    0    0    0  501 -0.00000000000E+00  0.00000000000E+00  0.12926954501E+03  0.12926954501E+03  0.00000000000E+00 0.  1.
          4   -1    0    0  502    0  0.00000000000E+00 -0.00000000000E+00 -0.17980519990E+04  0.17980519990E+04  0.00000000000E+00 0. -1.
    9000007    1    1    2  502    0  0.11437480701E+03 -0.22738053856E+03 -0.10092154610E+04  0.11150333415E+04  0.40000000000E+03 0. -1.
   -9000007    1    1    2    0  501 -0.11437480701E+03  0.22738053856E+03 -0.65956699296E+03  0.81228820255E+03  0.40000000000E+03 0.  1.
<mgrwt>
<rscale>  2 0.47411339E+03</rscale>
<asrwt>0</asrwt>
<pdfrwt beam="1">  1        4 0.27662338E+00 0.47411339E+03</pdfrwt>
<pdfrwt beam="2">  1       -4 0.19887623E-01 0.47411339E+03</pdfrwt>
<totfact> 0.20591946E+00</totfact>
</mgrwt>
</event>
<event>
 4    1  0.2338029E-002  0.5615569E+03  0.7818608E-02  0.9988538E-01
         -1   -1    0    0    0  501 -0.00000000000E+00  0.00000000000E+00  0.55101966363E+03  0.55101966363E+03  0.00000000000E+00 0. -1.
          1   -1    0    0  502    0  0.00000000000E+00 -0.00000000000E+00 -0.57239230486E+03  0.57239230486E+03  0.00000000000E+00 0.  1.
    9000007    1    1    2  502    0 -0.23293984449E+03 -0.31793898977E+03 -0.33882249923E+01  0.56156713974E+03  0.40000000000E+03 0.  1.
   -9000007    1    1    2    0  501  0.23293984449E+03  0.31793898977E+03 -0.17984416234E+02  0.56184482875E+03  0.40000000000E+03 0. -1.
<mgrwt>
<rscale>  2 0.56155692E+03</rscale>
<asrwt>0</asrwt>
<pdfrwt beam="1">  1        1 0.88060355E-01 0.56155692E+03</pdfrwt>
<pdfrwt beam="2">  1       -1 0.84772256E-01 0.56155692E+03</pdfrwt>
<totfact> 0.52522561E+01</totfact>
</mgrwt>
</event>
<event>
 4    1  0.2338029E-002  0.4286731E+03  0.7818608E-02  0.1034280E+00
          2   -1    0    0  502    0  0.00000000000E+00  0.00000000000E+00  0.16017324018E+04  0.16017324018E+04  0.00000000000E+00 0.  1.
         -2   -1    0    0    0  501 -0.00000000000E+00 -0.00000000000E+00 -0.12796135638E+03  0.12796135638E+03  0.00000000000E+00 0. -1.
    9000007    1    1    2  502    0  0.15376827062E+03 -0.10769760474E+02  0.10150261150E+04  0.11018342357E+04  0.40000000000E+03 0.  1.
   -9000007    1    1    2    0  501 -0.15376827062E+03  0.10769760474E+02  0.45874493041E+03  0.62785952247E+03  0.40000000000E+03 0.  1.
<mgrwt>
<rscale>  2 0.42867315E+03</rscale>
<asrwt>0</asrwt>
<pdfrwt beam="1">  1        2 0.24642036E+00 0.42867315E+03</pdfrwt>
<pdfrwt beam="2">  1       -2 0.19686364E-01 0.42867315E+03</pdfrwt>
<totfact> 0.25558403E+02</totfact>
</mgrwt>
</event>
<event>
 4    1  0.2338029E-002  0.5544903E+03  0.7818608E-02  0.1000460E+00
         -1   -1    0    0    0  501 -0.00000000000E+00  0.00000000000E+00  0.44281963155E+03  0.44281963155E+03  0.00000000000E+00 0.  1.
          1   -1    0    0  502    0  0.00000000000E+00 -0.00000000000E+00 -0.69443295982E+03  0.69443295982E+03  0.00000000000E+00 0. -1.
    9000007    1    1    2  502    0 -0.72470936433E+02 -0.37710397280E+03 -0.13299219575E+03  0.57021607050E+03  0.40000000000E+03 0. -1.
   -9000007    1    1    2    0  501  0.72470936433E+02  0.37710397280E+03 -0.11862113252E+03  0.56703652088E+03  0.40000000000E+03 0.  1.
<mgrwt>
<rscale>  2 0.55449026E+03</rscale>
<asrwt>0</asrwt>
<pdfrwt beam="1">  1        1 0.10683584E+00 0.55449026E+03</pdfrwt>
<pdfrwt beam="2">  1       -1 0.68126098E-01 0.55449026E+03</pdfrwt>
<totfact> 0.62616970E+01</totfact>
</mgrwt>
</event>
<event>
 4    1  0.2338029E-002  0.4812947E+03  0.7818608E-02  0.1018780E+00
         -2   -1    0    0    0  501 -0.00000000000E+00  0.00000000000E+00  0.16985925012E+04  0.16985925012E+04  0.00000000000E+00 0.  1.
          2   -1    0    0  502    0  0.00000000000E+00 -0.00000000000E+00 -0.14710811612E+03  0.14710811612E+03  0.00000000000E+00 0. -1.
    9000007    1    1    2  502    0 -0.13411789991E+03  0.23163982713E+03  0.10250219174E+04  0.11323932849E+04  0.40000000000E+03 0.  1.
   -9000007    1    1    2    0  501  0.13411789991E+03 -0.23163982713E+03  0.52646246776E+03  0.71330733247E+03  0.40000000000E+03 0. -1.
<mgrwt>
<rscale>  2 0.48129473E+03</rscale>
<asrwt>0</asrwt>
<pdfrwt beam="1">  1        2 0.22632019E-01 0.48129473E+03</pdfrwt>
<pdfrwt beam="2">  1       -2 0.26132191E+00 0.48129473E+03</pdfrwt>
<totfact> 0.14296582E+01</totfact>
</mgrwt>
</event>
<event>
 4    1  0.2338029E-002  0.4578468E+03  0.7818608E-02  0.1025408E+00
         -1   -1    0    0    0  501 -0.00000000000E+00  0.00000000000E+00  0.20166943484E+03  0.20166943484E+03  0.00000000000E+00 0.  1.
          1   -1    0    0  502    0  0.00000000000E+00 -0.00000000000E+00 -0.11426226004E+04  0.11426226004E+04  0.00000000000E+00 0. -1.
    9000007    1    1    2  502    0  0.22225380405E+03 -0.15063416218E+02 -0.26849514144E+03  0.53076671043E+03  0.40000000000E+03 0.  1.
   -9000007    1    1    2    0  501 -0.22225380405E+03  0.15063416218E+02 -0.67245802416E+03  0.81352532485E+03  0.40000000000E+03 0. -1.
<mgrwt>
<rscale>  2 0.45784676E+03</rscale>
<asrwt>0</asrwt>
<pdfrwt beam="1">  1        1 0.17578809E+00 0.45784676E+03</pdfrwt>
<pdfrwt beam="2">  1       -1 0.31026067E-01 0.45784676E+03</pdfrwt>
<totfact> 0.11887117E+02</totfact>
</mgrwt>
</event>
<event>
 4    1  0.2338029E-002  0.4137780E+03  0.7818608E-02  0.1039111E+00
         -2   -1    0    0    0  501 -0.00000000000E+00  0.00000000000E+00  0.39853163233E+03  0.39853163233E+03  0.00000000000E+00 0.  1.
          2   -1    0    0  502    0  0.00000000000E+00 -0.00000000000E+00 -0.42960828665E+03  0.42960828665E+03  0.00000000000E+00 0. -1.
    9000007    1    1    2  502    0  0.10584455548E+03  0.30239012490E+01 -0.15010853371E+02  0.41405016559E+03  0.40000000000E+03 0.  1.
   -9000007    1    1    2    0  501 -0.10584455548E+03 -0.30239012490E+01 -0.16065800953E+02  0.41408975339E+03  0.40000000000E+03 0. -1.
<mgrwt>
<rscale>  2 0.41377798E+03</rscale>
<asrwt>0</asrwt>
<pdfrwt beam="1">  1        2 0.66093583E-01 0.41377798E+03</pdfrwt>
<pdfrwt beam="2">  1       -2 0.61312559E-01 0.41377798E+03</pdfrwt>
<totfact> 0.18618035E+02</totfact>
</mgrwt>
</event>
<event>
 4    1  0.2338029E-002  0.4086912E+03  0.7818608E-02  0.1040811E+00
         -2   -1    0    0    0  501 -0.00000000000E+00  0.00000000000E+00  0.12886129419E+03  0.12886129419E+03  0.00000000000E+00 0.  1.
          2   -1    0    0  502    0  0.00000000000E+00 -0.00000000000E+00 -0.13021003096E+04  0.13021003096E+04  0.00000000000E+00 0. -1.
    9000007    1    1    2  502    0  0.76631266399E+02  0.34002665588E+02 -0.63482923385E+03  0.75500774063E+03  0.40000000000E+03 0. -1.
   -9000007    1    1    2    0  501 -0.76631266399E+02 -0.34002665588E+02 -0.53840978158E+03  0.67595386319E+03  0.40000000000E+03 0. -1.
<mgrwt>
<rscale>  2 0.40869124E+03</rscale>
<asrwt>0</asrwt>
<pdfrwt beam="1">  1        2 0.20032314E+00 0.40869124E+03</pdfrwt>
<pdfrwt beam="2">  1       -2 0.19824813E-01 0.40869124E+03</pdfrwt>
<totfact> 0.36988075E+02</totfact>
</mgrwt>
</event>
<event>
 4    1  0.2338029E-002  0.4444877E+03  0.7818608E-02  0.1029379E+00
         -1   -1    0    0    0  501 -0.00000000000E+00  0.00000000000E+00  0.37474974092E+03  0.37474974092E+03  0.00000000000E+00 0. -1.
          1   -1    0    0  502    0  0.00000000000E+00 -0.00000000000E+00 -0.57339464606E+03  0.57339464606E+03  0.00000000000E+00 0.  1.
    9000007    1    1    2  502    0  0.19113807709E+03 -0.32179750601E+02  0.35231966437E+02  0.44588181430E+03  0.40000000000E+03 0. -1.
   -9000007    1    1    2    0  501 -0.19113807709E+03  0.32179750601E+02 -0.23387687157E+03  0.50226257268E+03  0.40000000000E+03 0.  1.
<mgrwt>
<rscale>  2 0.44448768E+03</rscale>
<asrwt>0</asrwt>
<pdfrwt beam="1">  1        1 0.88214562E-01 0.44448768E+03</pdfrwt>
<pdfrwt beam="2">  1       -1 0.57653806E-01 0.44448768E+03</pdfrwt>
<totfact> 0.11625761E+02</totfact>
</mgrwt>
</event>
<event>
 4    1  0.2338029E-002  0.4546620E+03  0.7818608E-02  0.1026341E+00
          2   -1    0    0  502    0  0.00000000000E+00  0.00000000000E+00  0.74866303447E+03  0.74866303447E+03  0.00000000000E+00 0. -1.
         -2   -1    0    0    0  501 -0.00000000000E+00 -0.00000000000E+00 -0.28517537961E+03  0.28517537961E+03  0.00000000000E+00 0.  1.
    9000007    1    1    2  502    0  0.18788114202E+03  0.10685592688E+03  0.13960844502E+03  0.47561332041E+03  0.40000000000E+03 0. -1.
   -9000007    1    1    2    0  501 -0.18788114202E+03 -0.10685592688E+03  0.32387920984E+03  0.55822509367E+03  0.40000000000E+03 0.  1.
<mgrwt>
<rscale>  2 0.45466198E+03</rscale>
<asrwt>0</asrwt>
<pdfrwt beam="1">  1        2 0.11517893E+00 0.45466198E+03</pdfrwt>
<pdfrwt beam="2">  1       -2 0.43873136E-01 0.45466198E+03</pdfrwt>
<totfact> 0.19054724E+02</totfact>
</mgrwt>
</event>
<event>
 4    1  0.2338029E-002  0.4246032E+03  0.7818608E-02  0.1035578E+00
          2   -1    0    0  502    0  0.00000000000E+00  0.00000000000E+00  0.85589866737E+03  0.85589866737E+03  0.00000000000E+00 0.  1.
         -2   -1    0    0    0  501 -0.00000000000E+00 -0.00000000000E+00 -0.26033935599E+03  0.26033935599E+03  0.00000000000E+00 0. -1.
    9000007    1    1    2  502    0  0.14238577458E+03 -0.37674256200E+01  0.53928341023E+02  0.42801421503E+03  0.40000000000E+03 0. -1.
   -9000007    1    1    2    0  501 -0.14238577458E+03  0.37674256200E+01  0.54163097037E+03  0.68822380833E+03  0.40000000000E+03 0.  1.
<mgrwt>
<rscale>  2 0.42460323E+03</rscale>
<asrwt>0</asrwt>
<pdfrwt beam="1">  1        2 0.13167672E+00 0.42460323E+03</pdfrwt>
<pdfrwt beam="2">  1       -2 0.40052209E-01 0.42460323E+03</pdfrwt>
<totfact> 0.19169141E+02</totfact>
</mgrwt>
</event>
<event>
 4    1  0.2338029E-002  0.4230938E+03  0.7818608E-02  0.1036064E+00
          1   -1    0    0  502    0  0.00000000000E+00  0.00000000000E+00  0.87713425925E+03  0.87713425925E+03  0.00000000000E+00 0.  1.
         -1   -1    0    0    0  501 -0.00000000000E+00 -0.00000000000E+00 -0.30081972884E+03  0.30081972884E+03  0.00000000000E+00 0. -1.
    9000007    1    1    2  502    0  0.75353183573E+02  0.11545663649E+03  0.62215267503E+03  0.75238440190E+03  0.40000000000E+03 0.  1.
   -9000007    1    1    2    0  501 -0.75353183573E+02 -0.11545663649E+03 -0.45838144613E+02  0.42556958618E+03  0.40000000000E+03 0. -1.
<mgrwt>
<rscale>  2 0.42309377E+03</rscale>
<asrwt>0</asrwt>
<pdfrwt beam="1">  1        1 0.13494373E+00 0.42309377E+03</pdfrwt>
<pdfrwt beam="2">  1       -1 0.46279959E-01 0.42309377E+03</pdfrwt>
<totfact> 0.93174564E+01</totfact>
</mgrwt>
</event>
<event>
 4    1  0.2338029E-002  0.4936164E+03  0.7818608E-02  0.1015459E+00
          2   -1    0    0  502    0  0.00000000000E+00  0.00000000000E+00  0.17793400333E+04  0.17793400333E+04  0.00000000000E+00 0. -1.
         -2   -1    0    0    0  501 -0.00000000000E+00 -0.00000000000E+00 -0.14370385496E+03  0.14370385496E+03  0.00000000000E+00 0.  1.
    9000007    1    1    2  502    0 -0.28189591989E+03 -0.64744464636E+02  0.60916520589E+03  0.78405318915E+03  0.40000000000E+03 0. -1.
   -9000007    1    1    2    0  501  0.28189591989E+03  0.64744464636E+02  0.10264709724E+04  0.11389906991E+04  0.40000000000E+03 0. -1.
<mgrwt>
<rscale>  2 0.49361641E+03</rscale>
<asrwt>0</asrwt>
<pdfrwt beam="1">  1        2 0.27374461E+00 0.49361641E+03</pdfrwt>
<pdfrwt beam="2">  1       -2 0.22108287E-01 0.49361641E+03</pdfrwt>
<totfact> 0.16606554E+02</totfact>
</mgrwt>
</event>
<event>
 4    1  0.2338029E-002  0.1212410E+04  0.7818608E-02  0.9102063E-01
         -2   -1    0    0    0  501 -0.00000000000E+00  0.00000000000E+00  0.20131879487E+04  0.20131879487E+04  0.00000000000E+00 0.  1.
          2   -1    0    0  502    0  0.00000000000E+00 -0.00000000000E+00 -0.74023114989E+03  0.74023114989E+03  0.00000000000E+00 0. -1.
    9000007    1    1    2  502    0  0.92118264170E+03 -0.67923587680E+03  0.47585442952E+03  0.13024501041E+04  0.40000000000E+03 0. -1.
   -9000007    1    1    2    0  501 -0.92118264170E+03  0.67923587680E+03  0.79710236931E+03  0.14509689945E+04  0.40000000000E+03 0.  1.
<mgrwt>
<rscale>  2 0.12124103E+04</rscale>
<asrwt>0</asrwt>
<pdfrwt beam="1">  1        2 0.11388172E+00 0.12124103E+04</pdfrwt>
<pdfrwt beam="2">  1       -2 0.30972122E+00 0.12124103E+04</pdfrwt>
<totfact> 0.10367372E+00</totfact>
</mgrwt>
</event>
<event>
 4    1  0.2338029E-002  0.4479744E+03  0.7818608E-02  0.1028328E+00
         -1   -1    0    0    0  501 -0.00000000000E+00  0.00000000000E+00  0.32739183626E+03  0.32739183626E+03  0.00000000000E+00 0.  1.
          1   -1    0    0  502    0  0.00000000000E+00 -0.00000000000E+00 -0.78194698782E+03  0.78194698782E+03  0.00000000000E+00 0. -1.
    9000007    1    1    2  502    0 -0.91292299840E+02  0.17985217717E+03  0.30568460132E+02  0.44901616942E+03  0.40000000000E+03 0.  1.
   -9000007    1    1    2    0  501  0.91292299840E+02 -0.17985217717E+03 -0.48512361169E+03  0.66032265466E+03  0.40000000000E+03 0. -1.
<mgrwt>
<rscale>  2 0.44797443E+03</rscale>
<asrwt>0</asrwt>
<pdfrwt beam="1">  1        1 0.12029954E+00 0.44797443E+03</pdfrwt>
<pdfrwt beam="2">  1       -1 0.50367975E-01 0.44797443E+03</pdfrwt>
<totfact> 0.95272257E+01</totfact>
</mgrwt>
</event>
<event>
 4    1  0.2338029E-002  0.4134298E+03  0.7818608E-02  0.1039226E+00
         -2   -1    0    0    0  501 -0.00000000000E+00  0.00000000000E+00  0.20084400834E+04  0.20084400834E+04  0.00000000000E+00 0. -1.
          2   -1    0    0  502    0  0.00000000000E+00 -0.00000000000E+00 -0.89773230123E+02  0.89773230123E+02  0.00000000000E+00 0.  1.
    9000007    1    1    2  502    0 -0.10229585107E+03  0.21441303984E+02  0.72004714258E+03  0.83029636769E+03  0.40000000000E+03 0.  1.
   -9000007    1    1    2    0  501  0.10229585107E+03 -0.21441303984E+02  0.11986197107E+04  0.12679169459E+04  0.40000000000E+03 0. -1.
<mgrwt>
<rscale>  2 0.41342977E+03</rscale>
<asrwt>0</asrwt>
<pdfrwt beam="1">  1        2 0.13811268E-01 0.41342977E+03</pdfrwt>
<pdfrwt beam="2">  1       -2 0.30899075E+00 0.41342977E+03</pdfrwt>
<totfact> 0.13530466E+01</totfact>
</mgrwt>
</event>
<event>
 4    1  0.2338029E-002  0.4965715E+03  0.7818608E-02  0.1014678E+00
          2   -1    0    0  502    0  0.00000000000E+00  0.00000000000E+00  0.19992462071E+04  0.19992462071E+04  0.00000000000E+00 0.  1.
         -2   -1    0    0    0  501 -0.00000000000E+00 -0.00000000000E+00 -0.14805991727E+03  0.14805991727E+03  0.00000000000E+00 0. -1.
    9000007    1    1    2  502    0 -0.79038618783E+02  0.28343639966E+03  0.48687548534E+03  0.69543585911E+03  0.40000000000E+03 0. -1.
   -9000007    1    1    2    0  501  0.79038618783E+02 -0.28343639966E+03  0.13643108045E+04  0.14518702652E+04  0.40000000000E+03 0.  1.
<mgrwt>
<rscale>  2 0.49657154E+03</rscale>
<asrwt>0</asrwt>
<pdfrwt beam="1">  1        2 0.30757632E+00 0.49657154E+03</pdfrwt>
<pdfrwt beam="2">  1       -2 0.22778450E-01 0.49657154E+03</pdfrwt>
<totfact> 0.11995256E+02</totfact>
</mgrwt>
</event>
<event>
 4    1  0.2338029E-002  0.4586166E+03  0.7818608E-02  0.1025183E+00
         -3   -1    0    0    0  501 -0.00000000000E+00  0.00000000000E+00  0.18098332912E+03  0.18098332912E+03  0.00000000000E+00 0.  1.
          3   -1    0    0  502    0  0.00000000000E+00 -0.00000000000E+00 -0.17370856494E+04  0.17370856494E+04  0.00000000000E+00 0. -1.
    9000007    1    1    2  502    0  0.18214805150E+03  0.13096294160E+03 -0.13297910968E+04  0.14066533211E+04  0.40000000000E+03 0. -1.
   -9000007    1    1    2    0  501 -0.18214805150E+03 -0.13096294160E+03 -0.22631122348E+03  0.51141565738E+03  0.40000000000E+03 0.  1.
<mgrwt>
<rscale>  2 0.45861662E+03</rscale>
<asrwt>0</asrwt>
<pdfrwt beam="1">  1        3 0.26724394E+00 0.45861662E+03</pdfrwt>
<pdfrwt beam="2">  1       -3 0.27843590E-01 0.45861662E+03</pdfrwt>
<totfact> 0.19910802E+00</totfact>
</mgrwt>
</event>
<event>
 4    1  0.2338029E-002  0.4144238E+03  0.7818608E-02  0.1038897E+00
          2   -1    0    0  502    0  0.00000000000E+00  0.00000000000E+00  0.85926918759E+03  0.85926918759E+03  0.00000000000E+00 0. -1.
         -2   -1    0    0    0  501 -0.00000000000E+00 -0.00000000000E+00 -0.21509988006E+03  0.21509988006E+03  0.00000000000E+00 0.  1.
    9000007    1    1    2  502    0 -0.57958077078E+02  0.91585680100E+02  0.17917234913E+03  0.45149729367E+03  0.40000000000E+03 0.  1.
   -9000007    1    1    2    0  501  0.57958077078E+02 -0.91585680100E+02  0.46499695840E+03  0.62287177398E+03  0.40000000000E+03 0. -1.
<mgrwt>
<rscale>  2 0.41442379E+03</rscale>
<asrwt>0</asrwt>
<pdfrwt beam="1">  1        2 0.13219526E+00 0.41442379E+03</pdfrwt>
<pdfrwt beam="2">  1       -2 0.33092290E-01 0.41442379E+03</pdfrwt>
<totfact> 0.27427527E+02</totfact>
</mgrwt>
</event>
<event>
 4    1  0.2338029E-002  0.4093380E+03  0.7818608E-02  0.1040593E+00
          1   -1    0    0  502    0  0.00000000000E+00  0.00000000000E+00  0.75282550833E+03  0.75282550833E+03  0.00000000000E+00 0.  1.
         -1   -1    0    0    0  501 -0.00000000000E+00 -0.00000000000E+00 -0.74683860388E+03  0.74683860388E+03  0.00000000000E+00 0. -1.
    9000007    1    1    2  502    0  0.47707195189E+02 -0.72674822772E+02 -0.62524840850E+03  0.74732401183E+03  0.40000000000E+03 0. -1.
   -9000007    1    1    2    0  501 -0.47707195189E+02  0.72674822772E+02  0.63123531294E+03  0.75234010038E+03  0.40000000000E+03 0.  1.
<mgrwt>
<rscale>  2 0.40933801E+03</rscale>
<asrwt>0</asrwt>
<pdfrwt beam="1">  1        1 0.11581931E+00 0.40933801E+03</pdfrwt>
<pdfrwt beam="2">  1       -1 0.11489825E+00 0.40933801E+03</pdfrwt>
<totfact> 0.18174888E+01</totfact>
</mgrwt>
</event>
<event>
 4    1  0.2338029E-002  0.4524522E+03  0.7818608E-02  0.1026993E+00
         -1   -1    0    0    0  501 -0.00000000000E+00  0.00000000000E+00  0.62672486323E+03  0.62672486323E+03  0.00000000000E+00 0. -1.
          1   -1    0    0  502    0  0.00000000000E+00 -0.00000000000E+00 -0.38995132536E+03  0.38995132536E+03  0.00000000000E+00 0.  1.
    9000007    1    1    2  502    0 -0.68425187163E+02  0.20007741663E+03  0.32321533011E+03  0.55604058171E+03  0.40000000000E+03 0. -1.
   -9000007    1    1    2    0  501  0.68425187163E+02 -0.20007741663E+03 -0.86441792244E+02  0.46063560688E+03  0.40000000000E+03 0.  1.
<mgrwt>
<rscale>  2 0.45245218E+03</rscale>
<asrwt>0</asrwt>
<pdfrwt beam="1">  1        1 0.59992512E-01 0.45245218E+03</pdfrwt>
<pdfrwt beam="2">  1       -1 0.96419209E-01 0.45245218E+03</pdfrwt>
<totfact> 0.67373912E+01</totfact>
</mgrwt>
</event>
<event>
 4    1  0.2338029E-002  0.4589798E+03  0.7818608E-02  0.1025078E+00
          2   -1    0    0  502    0  0.00000000000E+00  0.00000000000E+00  0.40884518117E+04  0.40884518117E+04  0.00000000000E+00 0.  1.
         -2   -1    0    0    0  501 -0.00000000000E+00 -0.00000000000E+00 -0.52770732155E+02  0.52770732155E+02  0.00000000000E+00 0. -1.
    9000007    1    1    2  502    0  0.12152997471E+03 -0.18945432511E+03  0.23358215762E+04  0.23804883768E+04  0.40000000000E+03 0. -1.
   -9000007    1    1    2    0  501 -0.12152997471E+03  0.18945432511E+03  0.16998595033E+04  0.17607341670E+04  0.40000000000E+03 0. -1.
<mgrwt>
<rscale>  2 0.45897982E+03</rscale>
<asrwt>0</asrwt>
<pdfrwt beam="1">  1        2 0.62899234E+00 0.45897982E+03</pdfrwt>
<pdfrwt beam="2">  1       -2 0.81185774E-02 0.45897982E+03</pdfrwt>
<totfact> 0.32864524E+01</totfact>
</mgrwt>
</event>
<event>
 4    1  0.2338029E-002  0.4407072E+03  0.7818608E-02  0.1030530E+00
         -1   -1    0    0    0  501 -0.00000000000E+00  0.00000000000E+00  0.40530448837E+03  0.40530448837E+03  0.00000000000E+00 0. -1.
          1   -1    0    0  502    0  0.00000000000E+00 -0.00000000000E+00 -0.48377860715E+03  0.48377860715E+03  0.00000000000E+00 0.  1.
    9000007    1    1    2  502    0 -0.18021071022E+03 -0.41795875801E+02 -0.82473725215E+02  0.44835779313E+03  0.40000000000E+03 0. -1.
   -9000007    1    1    2    0  501  0.18021071022E+03  0.41795875801E+02  0.39996064421E+01  0.44072530239E+03  0.40000000000E+03 0. -1.
<mgrwt>
<rscale>  2 0.44070715E+03</rscale>
<asrwt>0</asrwt>
<pdfrwt beam="1">  1        1 0.74427478E-01 0.44070715E+03</pdfrwt>
<pdfrwt beam="2">  1       -1 0.62354536E-01 0.44070715E+03</pdfrwt>
<totfact> 0.12600215E+02</totfact>
</mgrwt>
</event>
<event>
 4    1  0.2338029E-002  0.5987922E+03  0.7818608E-02  0.9907915E-01
          2   -1    0    0  502    0  0.00000000000E+00  0.00000000000E+00  0.65943564129E+03  0.65943564129E+03  0.00000000000E+00 0.  1.
         -2   -1    0    0    0  501 -0.00000000000E+00 -0.00000000000E+00 -0.54635038334E+03  0.54635038334E+03  0.00000000000E+00 0. -1.
    9000007    1    1    2  502    0 -0.44558836729E+03  0.17551107394E+01  0.14755058643E+02  0.59897394370E+03  0.40000000000E+03 0. -1.
   -9000007    1    1    2    0  501  0.44558836729E+03 -0.17551107394E+01  0.98330199312E+02  0.60681208094E+03  0.40000000000E+03 0. -1.
<mgrwt>
<rscale>  2 0.59879218E+03</rscale>
<asrwt>0</asrwt>
<pdfrwt beam="1">  1        2 0.10145164E+00 0.59879218E+03</pdfrwt>
<pdfrwt beam="2">  1       -2 0.84053905E-01 0.59879218E+03</pdfrwt>
<totfact> 0.55942215E+01</totfact>
</mgrwt>
</event>
<event>
 4    1  0.2338029E-002  0.4609629E+03  0.7818608E-02  0.1024502E+00
          1   -1    0    0  502    0  0.00000000000E+00  0.00000000000E+00  0.99912430314E+03  0.99912430314E+03  0.00000000000E+00 0. -1.
         -1   -1    0    0    0  501 -0.00000000000E+00 -0.00000000000E+00 -0.22695171555E+03  0.22695171555E+03  0.00000000000E+00 0.  1.
    9000007    1    1    2  502    0 -0.21299808137E+03  0.84371867326E+02  0.53985386519E+03  0.70987956051E+03  0.40000000000E+03 0. -1.
   -9000007    1    1    2    0  501  0.21299808137E+03 -0.84371867326E+02  0.23231872239E+03  0.51619645818E+03  0.40000000000E+03 0.  1.
<mgrwt>
<rscale>  2 0.46096290E+03</rscale>
<asrwt>0</asrwt>
<pdfrwt beam="1">  1        1 0.15371143E+00 0.46096290E+03</pdfrwt>
<pdfrwt beam="2">  1       -1 0.34915649E-01 0.46096290E+03</pdfrwt>
<totfact> 0.12356088E+02</totfact>
</mgrwt>
</event>
<event>
 4    1  0.2338029E-002  0.6297763E+03  0.7818608E-02  0.9845485E-01
          2   -1    0    0  502    0  0.00000000000E+00  0.00000000000E+00  0.74812805066E+03  0.74812805066E+03  0.00000000000E+00 0.  1.
         -2   -1    0    0    0  501 -0.00000000000E+00 -0.00000000000E+00 -0.61059062992E+03  0.61059062992E+03  0.00000000000E+00 0. -1.
    9000007    1    1    2  502    0 -0.41096079045E+03  0.26024888000E+03 -0.17781752849E+03  0.65439844458E+03  0.40000000000E+03 0. -1.
   -9000007    1    1    2    0  501  0.41096079045E+03 -0.26024888000E+03  0.31535494924E+03  0.70432023600E+03  0.40000000000E+03 0. -1.
<mgrwt>
<rscale>  2 0.62977635E+03</rscale>
<asrwt>0</asrwt>
<pdfrwt beam="1">  1        2 0.11509662E+00 0.62977635E+03</pdfrwt>
<pdfrwt beam="2">  1       -2 0.93937020E-01 0.62977635E+03</pdfrwt>
<totfact> 0.36885875E+01</totfact>
</mgrwt>
</event>
<event>
 4    1  0.2338029E-002  0.5624976E+03  0.7818608E-02  0.9986419E-01
          1   -1    0    0  502    0  0.00000000000E+00  0.00000000000E+00  0.18064300759E+04  0.18064300759E+04  0.00000000000E+00 0.  1.
         -1   -1    0    0    0  501 -0.00000000000E+00 -0.00000000000E+00 -0.24365274451E+03  0.24365274451E+03  0.00000000000E+00 0. -1.
    9000007    1    1    2  502    0 -0.14597769364E+03  0.36755148944E+03  0.13248852672E+04  0.14393486568E+04  0.40000000000E+03 0.  1.
   -9000007    1    1    2    0  501  0.14597769364E+03 -0.36755148944E+03  0.23789206414E+03  0.61073416362E+03  0.40000000000E+03 0. -1.
<mgrwt>
<rscale>  2 0.56249763E+03</rscale>
<asrwt>0</asrwt>
<pdfrwt beam="1">  1        1 0.27791231E+00 0.56249763E+03</pdfrwt>
<pdfrwt beam="2">  1       -1 0.37485039E-01 0.56249763E+03</pdfrwt>
<totfact> 0.29447047E+01</totfact>
</mgrwt>
</event>
<event>
 4    1  0.2338029E-002  0.4568720E+03  0.7818608E-02  0.1025692E+00
         -1   -1    0    0    0  501 -0.00000000000E+00  0.00000000000E+00  0.32543036426E+03  0.32543036426E+03  0.00000000000E+00 0.  1.
          1   -1    0    0  502    0  0.00000000000E+00 -0.00000000000E+00 -0.90117013713E+03  0.90117013713E+03  0.00000000000E+00 0. -1.
    9000007    1    1    2  502    0 -0.17234987805E+03  0.13794029855E+03  0.41407468580E+02  0.45874457477E+03  0.40000000000E+03 0.  1.
   -9000007    1    1    2    0  501  0.17234987805E+03 -0.13794029855E+03 -0.61714724145E+03  0.76785592662E+03  0.40000000000E+03 0. -1.
<mgrwt>
<rscale>  2 0.45687198E+03</rscale>
<asrwt>0</asrwt>
<pdfrwt beam="1">  1        1 0.13864156E+00 0.45687198E+03</pdfrwt>
<pdfrwt beam="2">  1       -1 0.50066210E-01 0.45687198E+03</pdfrwt>
<totfact> 0.76614964E+01</totfact>
</mgrwt>
</event>
<event>
 4    1  0.2338029E-002  0.5253297E+03  0.7818608E-02  0.1007371E+00
         -2   -1    0    0    0  501 -0.00000000000E+00  0.00000000000E+00  0.23423161864E+03  0.23423161864E+03  0.00000000000E+00 0. -1.
          2   -1    0    0  502    0  0.00000000000E+00 -0.00000000000E+00 -0.16667861228E+04  0.16667861228E+04  0.00000000000E+00 0.  1.
    9000007    1    1    2  502    0 -0.31629555245E+03 -0.12620786481E+03 -0.20165620645E+03  0.56270465365E+03  0.40000000000E+03 0. -1.
   -9000007    1    1    2    0  501  0.31629555245E+03  0.12620786481E+03 -0.12308982977E+04  0.13383130878E+04  0.40000000000E+03 0.  1.
<mgrwt>
<rscale>  2 0.52532971E+03</rscale>
<asrwt>0</asrwt>
<pdfrwt beam="1">  1        2 0.25642863E+00 0.52532971E+03</pdfrwt>
<pdfrwt beam="2">  1       -2 0.36035634E-01 0.52532971E+03</pdfrwt>
<totfact> 0.77844603E+01</totfact>
</mgrwt>
</event>
<event>
 4    1  0.2338029E-002  0.4218158E+03  0.7818608E-02  0.1036477E+00
          2   -1    0    0  502    0  0.00000000000E+00  0.00000000000E+00  0.17939126789E+04  0.17939126789E+04  0.00000000000E+00 0.  1.
         -2   -1    0    0    0  501 -0.00000000000E+00 -0.00000000000E+00 -0.14129433201E+03  0.14129433201E+03  0.00000000000E+00 0. -1.
    9000007    1    1    2  502    0  0.26444733241E+02 -0.13126016180E+03  0.29807538259E+03  0.51650507035E+03  0.40000000000E+03 0. -1.
   -9000007    1    1    2    0  501 -0.26444733241E+02  0.13126016180E+03  0.13545429643E+04  0.14187019406E+04  0.40000000000E+03 0.  1.
<mgrwt>
<rscale>  2 0.42181578E+03</rscale>
<asrwt>0</asrwt>
<pdfrwt beam="1">  1        2 0.27598655E+00 0.42181578E+03</pdfrwt>
<pdfrwt beam="2">  1       -2 0.21737591E-01 0.42181578E+03</pdfrwt>
<totfact> 0.16976914E+02</totfact>
</mgrwt>
</event>
<event>
 4    1  0.2338029E-002  0.4157455E+03  0.7818608E-02  0.1038460E+00
         -1   -1    0    0    0  501 -0.00000000000E+00  0.00000000000E+00  0.15594626913E+03  0.15594626913E+03  0.00000000000E+00 0.  1.
          1   -1    0    0  502    0  0.00000000000E+00 -0.00000000000E+00 -0.19711754241E+04  0.19711754241E+04  0.00000000000E+00 0. -1.
    9000007    1    1    2  502    0  0.10824616264E+03  0.33571912222E+02 -0.16112685443E+04  0.16640404522E+04  0.40000000000E+03 0. -1.
   -9000007    1    1    2    0  501 -0.10824616264E+03 -0.33571912222E+02 -0.20396061070E+03  0.46308124096E+03  0.40000000000E+03 0.  1.
<mgrwt>
<rscale>  2 0.41574548E+03</rscale>
<asrwt>0</asrwt>
<pdfrwt beam="1">  1        1 0.30325776E+00 0.41574548E+03</pdfrwt>
<pdfrwt beam="2">  1       -1 0.23991733E-01 0.41574548E+03</pdfrwt>
<totfact> 0.51022575E+01</totfact>
</mgrwt>
</event>
<event>
 4    1  0.2338029E-002  0.4070310E+03  0.7818608E-02  0.1041372E+00
         -2   -1    0    0    0  501 -0.00000000000E+00  0.00000000000E+00  0.15908558719E+03  0.15908558719E+03  0.00000000000E+00 0.  1.
          2   -1    0    0  502    0  0.00000000000E+00 -0.00000000000E+00 -0.15233262093E+04  0.15233262093E+04  0.00000000000E+00 0. -1.
    9000007    1    1    2  502    0  0.32965798905E+02 -0.67730977849E+02 -0.11552596378E+04  0.12248669560E+04  0.40000000000E+03 0. -1.
   -9000007    1    1    2    0  501 -0.32965798905E+02  0.67730977849E+02 -0.20898098437E+03  0.45754484052E+03  0.40000000000E+03 0.  1.
<mgrwt>
<rscale>  2 0.40703099E+03</rscale>
<asrwt>0</asrwt>
<pdfrwt beam="1">  1        2 0.23435789E+00 0.40703099E+03</pdfrwt>
<pdfrwt beam="2">  1       -2 0.24474705E-01 0.40703099E+03</pdfrwt>
<totfact> 0.19293796E+02</totfact>
</mgrwt>
</event>
<event>
 4    1  0.2338029E-002  0.4190766E+03  0.7818608E-02  0.1037367E+00
          1   -1    0    0  502    0  0.00000000000E+00  0.00000000000E+00  0.27656986274E+03  0.27656986274E+03  0.00000000000E+00 0. -1.
         -1   -1    0    0    0  501 -0.00000000000E+00 -0.00000000000E+00 -0.63603052720E+03  0.63603052720E+03  0.00000000000E+00 0.  1.
    9000007    1    1    2  502    0 -0.89360861084E+02 -0.87406126030E+02 -0.16147086027E+03  0.44910804165E+03  0.40000000000E+03 0.  1.
   -9000007    1    1    2    0  501  0.89360861084E+02  0.87406126030E+02 -0.19798980419E+03  0.46349234829E+03  0.40000000000E+03 0. -1.
<mgrwt>
<rscale>  2 0.41907660E+03</rscale>
<asrwt>0</asrwt>
<pdfrwt beam="1">  1        1 0.42549209E-01 0.41907660E+03</pdfrwt>
<pdfrwt beam="2">  1       -1 0.97850851E-01 0.41907660E+03</pdfrwt>
<totfact> 0.10184514E+02</totfact>
</mgrwt>
</event>
<event>
 4    1  0.2338029E-002  0.5520869E+03  0.7818608E-02  0.1001012E+00
         -1   -1    0    0    0  501 -0.00000000000E+00  0.00000000000E+00  0.94311712052E+03  0.94311712052E+03  0.00000000000E+00 0.  1.
          1   -1    0    0  502    0  0.00000000000E+00 -0.00000000000E+00 -0.33014317259E+03  0.33014317259E+03  0.00000000000E+00 0. -1.
    9000007    1    1    2  502    0  0.38036435255E+03 -0.11084879859E+02  0.21405341553E+03  0.59213071188E+03  0.40000000000E+03 0. -1.
   -9000007    1    1    2    0  501 -0.38036435255E+03  0.11084879859E+02  0.39892053240E+03  0.68112958122E+03  0.40000000000E+03 0.  1.
<mgrwt>
<rscale>  2 0.55208687E+03</rscale>
<asrwt>0</asrwt>
<pdfrwt beam="1">  1        1 0.50791258E-01 0.55208687E+03</pdfrwt>
<pdfrwt beam="2">  1       -1 0.14509494E+00 0.55208687E+03</pdfrwt>
<totfact> 0.30822671E+01</totfact>
</mgrwt>
</event>
<event>
 4    1  0.2338029E-002  0.4020873E+03  0.7818608E-02  0.1043059E+00
         -1   -1    0    0    0  501 -0.00000000000E+00  0.00000000000E+00  0.14232951433E+03  0.14232951433E+03  0.00000000000E+00 0. -1.
          1   -1    0    0  502    0  0.00000000000E+00 -0.00000000000E+00 -0.21337405181E+04  0.21337405181E+04  0.00000000000E+00 0.  1.
    9000007    1    1    2  502    0  0.39220545046E+02  0.11660232919E+02 -0.21746800196E+03  0.45712858592E+03  0.40000000000E+03 0. -1.
   -9000007    1    1    2    0  501 -0.39220545046E+02 -0.11660232919E+02 -0.17739430018E+04  0.18189414465E+04  0.40000000000E+03 0.  1.
<mgrwt>
<rscale>  2 0.40208732E+03</rscale>
<asrwt>0</asrwt>
<pdfrwt beam="1">  1        1 0.32826774E+00 0.40208732E+03</pdfrwt>
<pdfrwt beam="2">  1       -1 0.21896850E-01 0.40208732E+03</pdfrwt>
<totfact> 0.46593535E+01</totfact>
</mgrwt>
</event>
<event>
 4    1  0.2338029E-002  0.7035401E+03  0.7818608E-02  0.9711197E-01
         -2   -1    0    0    0  501 -0.00000000000E+00  0.00000000000E+00  0.33293687223E+03  0.33293687223E+03  0.00000000000E+00 0.  1.
          2   -1    0    0  502    0  0.00000000000E+00 -0.00000000000E+00 -0.18502136686E+04  0.18502136686E+04  0.00000000000E+00 0. -1.
    9000007    1    1    2  502    0  0.50923335249E+03 -0.27504549824E+03 -0.27477967602E+03  0.75529630196E+03  0.40000000000E+03 0.  1.
   -9000007    1    1    2    0  501 -0.50923335249E+03  0.27504549824E+03 -0.12424971203E+04  0.14278542389E+04  0.40000000000E+03 0. -1.
<mgrwt>
<rscale>  2 0.70354007E+03</rscale>
<asrwt>0</asrwt>
<pdfrwt beam="1">  1        2 0.28464826E+00 0.70354007E+03</pdfrwt>
<pdfrwt beam="2">  1       -2 0.51221057E-01 0.70354007E+03</pdfrwt>
<totfact> 0.30190892E+01</totfact>
</mgrwt>
</event>
<event>
 4    1  0.2338029E-002  0.5011225E+03  0.7818608E-02  0.1013486E+00
          2   -1    0    0  502    0  0.00000000000E+00  0.00000000000E+00  0.18601879437E+04  0.18601879437E+04  0.00000000000E+00 0.  1.
         -2   -1    0    0    0  501 -0.00000000000E+00 -0.00000000000E+00 -0.17252181943E+03  0.17252181943E+03  0.00000000000E+00 0. -1.
    9000007    1    1    2  502    0 -0.23891219940E+03  0.18451201101E+03  0.13178244426E+04  0.14098882873E+04  0.40000000000E+03 0.  1.
   -9000007    1    1    2    0  501  0.23891219940E+03 -0.18451201101E+03  0.36984168169E+03  0.62282147582E+03  0.40000000000E+03 0. -1.
<mgrwt>
<rscale>  2 0.50112246E+03</rscale>
<asrwt>0</asrwt>
<pdfrwt beam="1">  1        2 0.28618275E+00 0.50112246E+03</pdfrwt>
<pdfrwt beam="2">  1       -2 0.26541820E-01 0.50112246E+03</pdfrwt>
<totfact> 0.10833615E+02</totfact>
</mgrwt>
</event>
<event>
 4    1  0.2338029E-002  0.6182025E+03  0.7818608E-02  0.9868345E-01
          2   -1    0    0  502    0  0.00000000000E+00  0.00000000000E+00  0.40021848585E+03  0.40021848585E+03  0.00000000000E+00 0.  1.
         -2   -1    0    0    0  501 -0.00000000000E+00 -0.00000000000E+00 -0.10818999423E+04  0.10818999423E+04  0.00000000000E+00 0. -1.
    9000007    1    1    2  502    0 -0.40718543267E+03  0.23743277004E+03 -0.86955798684E+02  0.62428808077E+03  0.40000000000E+03 0.  1.
   -9000007    1    1    2    0  501  0.40718543267E+03 -0.23743277004E+03 -0.59472565777E+03  0.85783034737E+03  0.40000000000E+03 0. -1.
<mgrwt>
<rscale>  2 0.61820247E+03</rscale>
<asrwt>0</asrwt>
<pdfrwt beam="1">  1        2 0.61572076E-01 0.61820247E+03</pdfrwt>
<pdfrwt beam="2">  1       -2 0.16644614E+00 0.61820247E+03</pdfrwt>
<totfact> 0.18446230E+01</totfact>
</mgrwt>
</event>
<event>
 4    1  0.2338029E-002  0.4169478E+03  0.7818608E-02  0.1038064E+00
         -1   -1    0    0    0  501 -0.00000000000E+00  0.00000000000E+00  0.19047771051E+03  0.19047771051E+03  0.00000000000E+00 0.  1.
          1   -1    0    0  502    0  0.00000000000E+00 -0.00000000000E+00 -0.11490832894E+04  0.11490832894E+04  0.00000000000E+00 0. -1.
    9000007    1    1    2  502    0 -0.73180135652E+02 -0.92141992469E+02 -0.17550672632E+03  0.45238047042E+03  0.40000000000E+03 0.  1.
   -9000007    1    1    2    0  501  0.73180135652E+02  0.92141992469E+02 -0.78309885260E+03  0.88718052952E+03  0.40000000000E+03 0. -1.
<mgrwt>
<rscale>  2 0.41694781E+03</rscale>
<asrwt>0</asrwt>
<pdfrwt beam="1">  1        1 0.17678205E+00 0.41694781E+03</pdfrwt>
<pdfrwt beam="2">  1       -1 0.29304263E-01 0.41694781E+03</pdfrwt>
<totfact> 0.13049995E+02</totfact>
</mgrwt>
</event>
<event>
 4    1  0.2338029E-002  0.4001808E+03  0.7818608E-02  0.1043717E+00
         -2   -1    0    0    0  501 -0.00000000000E+00  0.00000000000E+00  0.15285225424E+03  0.15285225424E+03  0.00000000000E+00 0. -1.
          2   -1    0    0  502    0  0.00000000000E+00 -0.00000000000E+00 -0.10487029904E+04  0.10487029904E+04  0.00000000000E+00 0.  1.
    9000007    1    1    2  502    0 -0.85257483453E+01  0.84827857381E+01 -0.46642361633E+03  0.61456947200E+03  0.40000000000E+03 0.  1.
   -9000007    1    1    2    0  501  0.85257483453E+01 -0.84827857381E+01 -0.42942711979E+03  0.58698577261E+03  0.40000000000E+03 0. -1.
<mgrwt>
<rscale>  2 0.40018077E+03</rscale>
<asrwt>0</asrwt>
<pdfrwt beam="1">  1        2 0.16133893E+00 0.40018077E+03</pdfrwt>
<pdfrwt beam="2">  1       -2 0.23515730E-01 0.40018077E+03</pdfrwt>
<totfact> 0.38624316E+02</totfact>
</mgrwt>
</event>
<event>
 4    1  0.2338029E-002  0.4509214E+03  0.7818608E-02  0.1027448E+00
         -1   -1    0    0    0  501 -0.00000000000E+00  0.00000000000E+00  0.66699431233E+03  0.66699431233E+03  0.00000000000E+00 0.  1.
          1   -1    0    0  502    0  0.00000000000E+00 -0.00000000000E+00 -0.32409291330E+03  0.32409291330E+03  0.00000000000E+00 0. -1.
    9000007    1    1    2  502    0  0.20448152870E+03 -0.38953808314E+02  0.29221409878E+03  0.53732594790E+03  0.40000000000E+03 0.  1.
   -9000007    1    1    2    0  501 -0.20448152870E+03  0.38953808314E+02  0.50687300252E+02  0.45376127773E+03  0.40000000000E+03 0.  1.
<mgrwt>
<rscale>  2 0.45092138E+03</rscale>
<asrwt>0</asrwt>
<pdfrwt beam="1">  1        1 0.49860448E-01 0.45092138E+03</pdfrwt>
<pdfrwt beam="2">  1       -1 0.10261451E+00 0.45092138E+03</pdfrwt>
<totfact> 0.74407167E+01</totfact>
</mgrwt>
</event>
<event>
 4    1  0.2338029E-002  0.6630497E+03  0.7818608E-02  0.9782596E-01
          2   -1    0    0  502    0  0.00000000000E+00  0.00000000000E+00  0.60514163341E+03  0.60514163341E+03  0.00000000000E+00 0. -1.
         -2   -1    0    0    0  501 -0.00000000000E+00 -0.00000000000E+00 -0.72733775273E+03  0.72733775273E+03  0.00000000000E+00 0.  1.
    9000007    1    1    2  502    0 -0.12357577988E+03  0.51416330029E+03 -0.83720771809E+02  0.66831432752E+03  0.40000000000E+03 0.  1.
   -9000007    1    1    2    0  501  0.12357577988E+03 -0.51416330029E+03 -0.38475347512E+02  0.66416505863E+03  0.40000000000E+03 0. -1.
<mgrwt>
<rscale>  2 0.66304968E+03</rscale>
<asrwt>0</asrwt>
<pdfrwt beam="1">  1        2 0.93098713E-01 0.66304968E+03</pdfrwt>
<pdfrwt beam="2">  1       -2 0.11189812E+00 0.66304968E+03</pdfrwt>
<totfact> 0.31567395E+01</totfact>
</mgrwt>
</event>
<event>
 4    1  0.2338029E-002  0.4183392E+03  0.7818608E-02  0.1037608E+00
         -1   -1    0    0    0  501 -0.00000000000E+00  0.00000000000E+00  0.56644454102E+03  0.56644454102E+03  0.00000000000E+00 0.  1.
          1   -1    0    0  502    0  0.00000000000E+00 -0.00000000000E+00 -0.37932691441E+03  0.37932691441E+03  0.00000000000E+00 0. -1.
    9000007    1    1    2  502    0  0.41140985326E+02 -0.11539123425E+03 -0.11011679055E+03  0.43258921066E+03  0.40000000000E+03 0. -1.
   -9000007    1    1    2    0  501 -0.41140985326E+02  0.11539123425E+03  0.29723441716E+03  0.51318224478E+03  0.40000000000E+03 0.  1.
<mgrwt>
<rscale>  2 0.41833924E+03</rscale>
<asrwt>0</asrwt>
<pdfrwt beam="1">  1        1 0.58357987E-01 0.41833924E+03</pdfrwt>
<pdfrwt beam="2">  1       -1 0.87145314E-01 0.41833924E+03</pdfrwt>
<totfact> 0.87509418E+01</totfact>
</mgrwt>
</event>
<event>
 4    1  0.2338029E-002  0.4254881E+03  0.7818608E-02  0.1035295E+00
         -2   -1    0    0    0  501 -0.00000000000E+00  0.00000000000E+00  0.26274354539E+03  0.26274354539E+03  0.00000000000E+00 0.  1.
          2   -1    0    0  502    0  0.00000000000E+00 -0.00000000000E+00 -0.88817136247E+03  0.88817136247E+03  0.00000000000E+00 0. -1.
    9000007    1    1    2  502    0  0.12687675085E+03  0.70302253754E+02 -0.40232072515E+02  0.42738593385E+03  0.40000000000E+03 0.  1.
   -9000007    1    1    2    0  501 -0.12687675085E+03 -0.70302253754E+02 -0.58519574456E+03  0.72352897402E+03  0.40000000000E+03 0. -1.
<mgrwt>
<rscale>  2 0.42548809E+03</rscale>
<asrwt>0</asrwt>
<pdfrwt beam="1">  1        2 0.13664175E+00 0.42548809E+03</pdfrwt>
<pdfrwt beam="2">  1       -2 0.40422083E-01 0.42548809E+03</pdfrwt>
<totfact> 0.17913332E+02</totfact>
</mgrwt>
</event>
<event>
 4    1  0.2338029E-002  0.4461693E+03  0.7818608E-02  0.1028871E+00
         -2   -1    0    0    0  501 -0.00000000000E+00  0.00000000000E+00  0.29196662928E+03  0.29196662928E+03  0.00000000000E+00 0. -1.
          2   -1    0    0  502    0  0.00000000000E+00 -0.00000000000E+00 -0.78069228284E+03  0.78069228284E+03  0.00000000000E+00 0.  1.
    9000007    1    1    2  502    0  0.26581430858E+01 -0.19763587911E+03 -0.43523456560E+03  0.62329458006E+03  0.40000000000E+03 0.  1.
   -9000007    1    1    2    0  501 -0.26581430858E+01  0.19763587911E+03 -0.53491087967E+02  0.44936433206E+03  0.40000000000E+03 0. -1.
<mgrwt>
<rscale>  2 0.44616926E+03</rscale>
<asrwt>0</asrwt>
<pdfrwt beam="1">  1        2 0.12010651E+00 0.44616926E+03</pdfrwt>
<pdfrwt beam="2">  1       -2 0.44917942E-01 0.44616926E+03</pdfrwt>
<totfact> 0.17252654E+02</totfact>
</mgrwt>
</event>
<event>
 4    1  0.2338029E-002  0.4211658E+03  0.7818608E-02  0.1036688E+00
         -2   -1    0    0    0  501 -0.00000000000E+00  0.00000000000E+00  0.38597406657E+02  0.38597406657E+02  0.00000000000E+00 0.  1.
          2   -1    0    0  502    0  0.00000000000E+00 -0.00000000000E+00 -0.49227096070E+04  0.49227096070E+04  0.00000000000E+00 0. -1.
    9000007    1    1    2  502    0 -0.38790589837E+02  0.12599956577E+03 -0.30814523463E+04  0.31101011499E+04  0.40000000000E+03 0.  1.
   -9000007    1    1    2    0  501  0.38790589837E+02 -0.12599956577E+03 -0.18026598541E+04  0.18512058638E+04  0.40000000000E+03 0.  1.
<mgrwt>
<rscale>  2 0.42116576E+03</rscale>
<asrwt>0</asrwt>
<pdfrwt beam="1">  1        2 0.75733931E+00 0.42116576E+03</pdfrwt>
<pdfrwt beam="2">  1       -2 0.59380675E-02 0.42116576E+03</pdfrwt>
<totfact> 0.86880577E+00</totfact>
</mgrwt>
</event>
<event>
 4    1  0.2338029E-002  0.4725521E+03  0.7818608E-02  0.1021202E+00
         -2   -1    0    0    0  501 -0.00000000000E+00  0.00000000000E+00  0.13080862297E+03  0.13080862297E+03  0.00000000000E+00 0.  1.
          2   -1    0    0  502    0  0.00000000000E+00 -0.00000000000E+00 -0.17123572552E+04  0.17123572552E+04  0.00000000000E+00 0. -1.
    9000007    1    1    2  502    0  0.21041532435E+03  0.13795261267E+03 -0.84175933480E+03  0.96533119176E+03  0.40000000000E+03 0. -1.
   -9000007    1    1    2    0  501 -0.21041532435E+03 -0.13795261267E+03 -0.73978929739E+03  0.87783468637E+03  0.40000000000E+03 0. -1.
<mgrwt>
<rscale>  2 0.47255215E+03</rscale>
<asrwt>0</asrwt>
<pdfrwt beam="1">  1        2 0.26343956E+00 0.47255215E+03</pdfrwt>
<pdfrwt beam="2">  1       -2 0.20124405E-01 0.47255215E+03</pdfrwt>
<totfact> 0.21326819E+02</totfact>
</mgrwt>
</event>
<event>
 4    1  0.2338029E-002  0.5490671E+03  0.7818608E-02  0.1001710E+00
         -2   -1    0    0    0  501 -0.00000000000E+00  0.00000000000E+00  0.50111336092E+03  0.50111336092E+03  0.00000000000E+00 0. -1.
          2   -1    0    0  502    0  0.00000000000E+00 -0.00000000000E+00 -0.60162335180E+03  0.60162335180E+03  0.00000000000E+00 0.  1.
    9000007    1    1    2  502    0  0.15639262139E+03 -0.34207604614E+03 -0.52878665961E+02  0.55160749331E+03  0.40000000000E+03 0.  1.
   -9000007    1    1    2    0  501 -0.15639262139E+03  0.34207604614E+03 -0.47631324923E+02  0.55112921940E+03  0.40000000000E+03 0.  1.
<mgrwt>
<rscale>  2 0.54906709E+03</rscale>
<asrwt>0</asrwt>
<pdfrwt beam="1">  1        2 0.92557438E-01 0.54906709E+03</pdfrwt>
<pdfrwt beam="2">  1       -2 0.77094364E-01 0.54906709E+03</pdfrwt>
<totfact> 0.76233035E+01</totfact>
</mgrwt>
</event>
<event>
 4    1  0.2338029E-002  0.5177422E+03  0.7818608E-02  0.1009249E+00
         -2   -1    0    0    0  501 -0.00000000000E+00  0.00000000000E+00  0.11514333976E+03  0.11514333976E+03  0.00000000000E+00 0. -1.
          2   -1    0    0  502    0  0.00000000000E+00 -0.00000000000E+00 -0.29328143328E+04  0.29328143328E+04  0.00000000000E+00 0.  1.
    9000007    1    1    2  502    0  0.28154793210E+03  0.16966939543E+03 -0.21008856413E+04  0.21637415325E+04  0.40000000000E+03 0.  1.
   -9000007    1    1    2    0  501 -0.28154793210E+03 -0.16966939543E+03 -0.71678535184E+03  0.88421614011E+03  0.40000000000E+03 0.  1.
<mgrwt>
<rscale>  2 0.51774216E+03</rscale>
<asrwt>0</asrwt>
<pdfrwt beam="1">  1        2 0.45120221E+00 0.51774216E+03</pdfrwt>
<pdfrwt beam="2">  1       -2 0.17714360E-01 0.51774216E+03</pdfrwt>
<totfact> 0.55387925E+01</totfact>
</mgrwt>
</event>
<event>
 4    1  0.2338029E-002  0.4248421E+03  0.7818608E-02  0.1035502E+00
          1   -1    0    0  502    0  0.00000000000E+00  0.00000000000E+00  0.39618870311E+03  0.39618870311E+03  0.00000000000E+00 0. -1.
         -1   -1    0    0    0  501 -0.00000000000E+00 -0.00000000000E+00 -0.45558052847E+03  0.45558052847E+03  0.00000000000E+00 0.  1.
    9000007    1    1    2  502    0  0.12428886010E+03  0.71014643877E+02 -0.27441348462E+02  0.42572741044E+03  0.40000000000E+03 0. -1.
   -9000007    1    1    2    0  501 -0.12428886010E+03 -0.71014643877E+02 -0.31950476905E+02  0.42604182115E+03  0.40000000000E+03 0.  1.
<mgrwt>
<rscale>  2 0.42484209E+03</rscale>
<asrwt>0</asrwt>
<pdfrwt beam="1">  1        1 0.60952108E-01 0.42484209E+03</pdfrwt>
<pdfrwt beam="2">  1       -1 0.70089312E-01 0.42484209E+03</pdfrwt>
<totfact> 0.13016973E+02</totfact>
</mgrwt>
</event>
<event>
 4    1  0.2338029E-002  0.4177536E+03  0.7818608E-02  0.1037800E+00
         -1   -1    0    0    0  501 -0.00000000000E+00  0.00000000000E+00  0.48957427827E+03  0.48957427827E+03  0.00000000000E+00 0. -1.
          1   -1    0    0  502    0  0.00000000000E+00 -0.00000000000E+00 -0.51786421687E+03  0.51786421687E+03  0.00000000000E+00 0.  1.
    9000007    1    1    2  502    0  0.10789525425E+03 -0.53634448102E+02  0.26706192320E+03  0.49582266057E+03  0.40000000000E+03 0. -1.
   -9000007    1    1    2    0  501 -0.10789525425E+03  0.53634448102E+02 -0.29535186179E+03  0.51161583456E+03  0.40000000000E+03 0.  1.
<mgrwt>
<rscale>  2 0.41775356E+03</rscale>
<asrwt>0</asrwt>
<pdfrwt beam="1">  1        1 0.79671418E-01 0.41775356E+03</pdfrwt>
<pdfrwt beam="2">  1       -1 0.75319119E-01 0.41775356E+03</pdfrwt>
<totfact> 0.78753007E+01</totfact>
</mgrwt>
</event>
<event>
 4    1  0.2338029E-002  0.5062026E+03  0.7818608E-02  0.1012173E+00
         -1   -1    0    0    0  501 -0.00000000000E+00  0.00000000000E+00  0.87370867871E+03  0.87370867871E+03  0.00000000000E+00 0. -1.
          1   -1    0    0  502    0  0.00000000000E+00 -0.00000000000E+00 -0.33820767523E+03  0.33820767523E+03  0.00000000000E+00 0.  1.
    9000007    1    1    2  502    0 -0.26912723518E+03  0.15430992947E+03  0.48860656300E+03  0.70354630015E+03  0.40000000000E+03 0.  1.
   -9000007    1    1    2    0  501  0.26912723518E+03 -0.15430992947E+03  0.46894440485E+02  0.50837005380E+03  0.40000000000E+03 0.  1.
<mgrwt>
<rscale>  2 0.50620255E+03</rscale>
<asrwt>0</asrwt>
<pdfrwt beam="1">  1        1 0.52031950E-01 0.50620255E+03</pdfrwt>
<pdfrwt beam="2">  1       -1 0.13441672E+00 0.50620255E+03</pdfrwt>
<totfact> 0.36606009E+01</totfact>
</mgrwt>
</event>
<event>
 4    1  0.2338029E-002  0.4268846E+03  0.7818608E-02  0.1034849E+00
         -3   -1    0    0    0  501 -0.00000000000E+00  0.00000000000E+00  0.28811157456E+03  0.28811157456E+03  0.00000000000E+00 0.  1.
          3   -1    0    0  502    0  0.00000000000E+00 -0.00000000000E+00 -0.73410473590E+03  0.73410473590E+03  0.00000000000E+00 0. -1.
    9000007    1    1    2  502    0 -0.45495945171E+02  0.14198786451E+03 -0.32848571043E+02  0.42814654420E+03  0.40000000000E+03 0.  1.
   -9000007    1    1    2    0  501  0.45495945171E+02 -0.14198786451E+03 -0.41314459030E+03  0.59406976626E+03  0.40000000000E+03 0.  1.
<mgrwt>
<rscale>  2 0.42688457E+03</rscale>
<asrwt>0</asrwt>
<pdfrwt beam="1">  1        3 0.11293919E+00 0.42688457E+03</pdfrwt>
<pdfrwt beam="2">  1       -3 0.44324857E-01 0.42688457E+03</pdfrwt>
<totfact> 0.86620808E+00</totfact>
</mgrwt>
</event>
<event>
 4    1  0.2338029E-002  0.4820023E+03  0.7818608E-02  0.1018586E+00
          1   -1    0    0  502    0  0.00000000000E+00  0.00000000000E+00  0.90064052935E+03  0.90064052935E+03  0.00000000000E+00 0. -1.
         -1   -1    0    0    0  501 -0.00000000000E+00 -0.00000000000E+00 -0.26005461316E+03  0.26005461316E+03  0.00000000000E+00 0.  1.
    9000007    1    1    2  502    0 -0.12391279440E+03 -0.23868773137E+03  0.37241900956E+03  0.60911586123E+03  0.40000000000E+03 0.  1.
   -9000007    1    1    2    0  501  0.12391279440E+03  0.23868773137E+03  0.26816690663E+03  0.55157928127E+03  0.40000000000E+03 0. -1.
<mgrwt>
<rscale>  2 0.48200230E+03</rscale>
<asrwt>0</asrwt>
<pdfrwt beam="1">  1        1 0.13856008E+00 0.48200230E+03</pdfrwt>
<pdfrwt beam="2">  1       -1 0.40008402E-01 0.48200230E+03</pdfrwt>
<totfact> 0.11546420E+02</totfact>
</mgrwt>
</event>
<event>
 4    1  0.2338029E-002  0.7664511E+03  0.7818608E-02  0.9609889E-01
          2   -1    0    0  502    0  0.00000000000E+00  0.00000000000E+00  0.29219874986E+04  0.29219874986E+04  0.00000000000E+00 0.  1.
         -2   -1    0    0    0  501 -0.00000000000E+00 -0.00000000000E+00 -0.61148035931E+03  0.61148035931E+03  0.00000000000E+00 0. -1.
    9000007    1    1    2  502    0  0.16268230865E+03 -0.63323119374E+03 -0.29219435297E+03  0.82025899457E+03  0.40000000000E+03 0. -1.
   -9000007    1    1    2    0  501 -0.16268230865E+03  0.63323119374E+03  0.26027014922E+04  0.27132088633E+04  0.40000000000E+03 0.  1.
<mgrwt>
<rscale>  2 0.76645109E+03</rscale>
<asrwt>0</asrwt>
<pdfrwt beam="1">  1        2 0.44953653E+00 0.76645109E+03</pdfrwt>
<pdfrwt beam="2">  1       -2 0.94073903E-01 0.76645109E+03</pdfrwt>
<totfact> 0.19703932E+00</totfact>
</mgrwt>
</event>
<event>
 4    1  0.2338029E-002  0.5163072E+03  0.7818608E-02  0.1009608E+00
          2   -1    0    0  502    0  0.00000000000E+00  0.00000000000E+00  0.14271435481E+04  0.14271435481E+04  0.00000000000E+00 0.  1.
         -2   -1    0    0    0  501 -0.00000000000E+00 -0.00000000000E+00 -0.20839122445E+03  0.20839122445E+03  0.00000000000E+00 0. -1.
    9000007    1    1    2  502    0 -0.25969836541E+03  0.19781276218E+03  0.34607638977E+03  0.62156415391E+03  0.40000000000E+03 0. -1.
   -9000007    1    1    2    0  501  0.25969836541E+03 -0.19781276218E+03  0.87267593389E+03  0.10139706186E+04  0.40000000000E+03 0.  1.
<mgrwt>
<rscale>  2 0.51630720E+03</rscale>
<asrwt>0</asrwt>
<pdfrwt beam="1">  1        2 0.21956054E+00 0.51630720E+03</pdfrwt>
<pdfrwt beam="2">  1       -2 0.32060189E-01 0.51630720E+03</pdfrwt>
<totfact> 0.13139232E+02</totfact>
</mgrwt>
</event>
<event>
 4    1  0.2338029E-002  0.4297573E+03  0.7818608E-02  0.1033937E+00
         -4   -1    0    0    0  501 -0.00000000000E+00  0.00000000000E+00  0.21467717757E+04  0.21467717757E+04  0.00000000000E+00 0.  1.
          4   -1    0    0  502    0  0.00000000000E+00 -0.00000000000E+00 -0.89066495991E+02  0.89066495991E+02  0.00000000000E+00 0. -1.
    9000007    1    1    2  502    0 -0.11052850610E+03 -0.11169069364E+03  0.82251106199E+03  0.92801713821E+03  0.40000000000E+03 0. -1.
   -9000007    1    1    2    0  501  0.11052850610E+03  0.11169069364E+03  0.12351942177E+04  0.13078211335E+04  0.40000000000E+03 0. -1.
<mgrwt>
<rscale>  2 0.42975733E+03</rscale>
<asrwt>0</asrwt>
<pdfrwt beam="1">  1        4 0.13702539E-01 0.42975733E+03</pdfrwt>
<pdfrwt beam="2">  1       -4 0.33027254E+00 0.42975733E+03</pdfrwt>
<totfact> 0.19063662E+00</totfact>
</mgrwt>
</event>
<event>
 4    1  0.2338029E-002  0.4467883E+03  0.7818608E-02  0.1028684E+00
          2   -1    0    0  502    0  0.00000000000E+00  0.00000000000E+00  0.60573110670E+03  0.60573110670E+03  0.00000000000E+00 0.  1.
         -2   -1    0    0    0  501 -0.00000000000E+00 -0.00000000000E+00 -0.33823084476E+03  0.33823084476E+03  0.00000000000E+00 0. -1.
    9000007    1    1    2  502    0  0.53565346966E+01  0.19897520832E+03  0.58144906058E+02  0.45055594113E+03  0.40000000000E+03 0. -1.
   -9000007    1    1    2    0  501 -0.53565346966E+01 -0.19897520832E+03  0.20935535588E+03  0.49340601032E+03  0.40000000000E+03 0. -1.
<mgrwt>
<rscale>  2 0.44678835E+03</rscale>
<asrwt>0</asrwt>
<pdfrwt beam="1">  1        2 0.93189401E-01 0.44678835E+03</pdfrwt>
<pdfrwt beam="2">  1       -2 0.52035515E-01 0.44678835E+03</pdfrwt>
<totfact> 0.17577200E+02</totfact>
</mgrwt>
</event>
<event>
 4    1  0.2338029E-002  0.5847314E+03  0.7818608E-02  0.9937600E-01
          2   -1    0    0  502    0  0.00000000000E+00  0.00000000000E+00  0.36343212448E+03  0.36343212448E+03  0.00000000000E+00 0.  1.
         -2   -1    0    0    0  501 -0.00000000000E+00 -0.00000000000E+00 -0.94563517771E+03  0.94563517771E+03  0.00000000000E+00 0. -1.
    9000007    1    1    2  502    0 -0.24380538809E+03  0.34995675417E+03 -0.33798658859E+03  0.67538561660E+03  0.40000000000E+03 0. -1.
   -9000007    1    1    2    0  501  0.24380538809E+03 -0.34995675417E+03 -0.24421646465E+03  0.63368168559E+03  0.40000000000E+03 0.  1.
<mgrwt>
<rscale>  2 0.58473139E+03</rscale>
<asrwt>0</asrwt>
<pdfrwt beam="1">  1        2 0.55912635E-01 0.58473139E+03</pdfrwt>
<pdfrwt beam="2">  1       -2 0.14548233E+00 0.58473139E+03</pdfrwt>
<totfact> 0.29526181E+01</totfact>
</mgrwt>
</event>
<event>
 4    1  0.2338029E-002  0.5042841E+03  0.7818608E-02  0.1012667E+00
         -4   -1    0    0    0  501 -0.00000000000E+00  0.00000000000E+00  0.19593061808E+03  0.19593061808E+03  0.00000000000E+00 0. -1.
          4   -1    0    0  502    0  0.00000000000E+00 -0.00000000000E+00 -0.15143373604E+04  0.15143373604E+04  0.00000000000E+00 0.  1.
    9000007    1    1    2  502    0  0.67545124495E+02  0.29956653348E+03 -0.33593147109E+03  0.60593102338E+03  0.40000000000E+03 0. -1.
   -9000007    1    1    2    0  501 -0.67545124495E+02 -0.29956653348E+03 -0.98247527125E+03  0.11043369551E+04  0.40000000000E+03 0.  1.
<mgrwt>
<rscale>  2 0.50428410E+03</rscale>
<asrwt>0</asrwt>
<pdfrwt beam="1">  1        4 0.23297497E+00 0.50428410E+03</pdfrwt>
<pdfrwt beam="2">  1       -4 0.30143173E-01 0.50428410E+03</pdfrwt>
<totfact> 0.17259741E+00</totfact>
</mgrwt>
</event>
<event>
 4    1  0.2338029E-002  0.4266128E+03  0.7818608E-02  0.1034935E+00
         -2   -1    0    0    0  501 -0.00000000000E+00  0.00000000000E+00  0.13836357195E+04  0.13836357195E+04  0.00000000000E+00 0.  1.
          2   -1    0    0  502    0  0.00000000000E+00 -0.00000000000E+00 -0.15609573109E+03  0.15609573109E+03  0.00000000000E+00 0. -1.
    9000007    1    1    2  502    0 -0.12575887350E+03  0.78633154602E+02  0.30839905706E+03  0.52641090952E+03  0.40000000000E+03 0. -1.
   -9000007    1    1    2    0  501  0.12575887350E+03 -0.78633154602E+02  0.91914093132E+03  0.10133205410E+04  0.40000000000E+03 0.  1.
<mgrwt>
<rscale>  2 0.42661278E+03</rscale>
<asrwt>0</asrwt>
<pdfrwt beam="1">  1        2 0.24014729E-01 0.42661278E+03</pdfrwt>
<pdfrwt beam="2">  1       -2 0.21286703E+00 0.42661278E+03</pdfrwt>
<totfact> 0.26466329E+01</totfact>
</mgrwt>
</event>
<event>
 4    1  0.2338029E-002  0.4065408E+03  0.7818608E-02  0.1041538E+00
          2   -1    0    0  502    0  0.00000000000E+00  0.00000000000E+00  0.12799797325E+04  0.12799797325E+04  0.00000000000E+00 0.  1.
         -2   -1    0    0    0  501 -0.00000000000E+00 -0.00000000000E+00 -0.19542521783E+03  0.19542521783E+03  0.00000000000E+00 0. -1.
    9000007    1    1    2  502    0  0.30430967559E+02 -0.65949771021E+02  0.11258903623E+03  0.42184322581E+03  0.40000000000E+03 0. -1.
   -9000007    1    1    2    0  501 -0.30430967559E+02  0.65949771021E+02  0.97196547845E+03  0.10535617245E+04  0.40000000000E+03 0.  1.
<mgrwt>
<rscale>  2 0.40654079E+03</rscale>
<asrwt>0</asrwt>
<pdfrwt beam="1">  1        2 0.19691995E+00 0.40654079E+03</pdfrwt>
<pdfrwt beam="2">  1       -2 0.30065419E-01 0.40654079E+03</pdfrwt>
<totfact> 0.18139622E+02</totfact>
</mgrwt>
</event>
<event>
 4    1  0.2338029E-002  0.4016252E+03  0.7818608E-02  0.1043218E+00
          2   -1    0    0  502    0  0.00000000000E+00  0.00000000000E+00  0.30308851019E+03  0.30308851019E+03  0.00000000000E+00 0.  1.
         -2   -1    0    0    0  501 -0.00000000000E+00 -0.00000000000E+00 -0.53240104533E+03  0.53240104533E+03  0.00000000000E+00 0. -1.
    9000007    1    1    2  502    0 -0.28998656801E+02  0.21490829402E+02 -0.12283560521E+03  0.41998971863E+03  0.40000000000E+03 0.  1.
   -9000007    1    1    2    0  501  0.28998656801E+02 -0.21490829402E+02 -0.10647692993E+03  0.41549983689E+03  0.40000000000E+03 0. -1.
<mgrwt>
<rscale>  2 0.40162517E+03</rscale>
<asrwt>0</asrwt>
<pdfrwt beam="1">  1        2 0.46629002E-01 0.40162517E+03</pdfrwt>
<pdfrwt beam="2">  1       -2 0.81907853E-01 0.40162517E+03</pdfrwt>
<totfact> 0.14598880E+02</totfact>
</mgrwt>
</event>
<event>
 4    1  0.2338029E-002  0.4080246E+03  0.7818608E-02  0.1041036E+00
          1   -1    0    0  502    0  0.00000000000E+00  0.00000000000E+00  0.23651833749E+03  0.23651833749E+03  0.00000000000E+00 0.  1.
         -1   -1    0    0    0  501 -0.00000000000E+00 -0.00000000000E+00 -0.81103058786E+03  0.81103058786E+03  0.00000000000E+00 0. -1.
    9000007    1    1    2  502    0  0.67917814038E+02  0.43258165717E+02 -0.47762343941E+03  0.62817851622E+03  0.40000000000E+03 0. -1.
   -9000007    1    1    2    0  501 -0.67917814038E+02 -0.43258165717E+02 -0.96888810968E+02  0.41937040913E+03  0.40000000000E+03 0.  1.
<mgrwt>
<rscale>  2 0.40802463E+03</rscale>
<asrwt>0</asrwt>
<pdfrwt beam="1">  1        1 0.36387436E-01 0.40802463E+03</pdfrwt>
<pdfrwt beam="2">  1       -1 0.12477394E+00 0.40802463E+03</pdfrwt>
<totfact> 0.70542803E+01</totfact>
</mgrwt>
</event>
<event>
 4    1  0.2338029E-002  0.4369232E+03  0.7818608E-02  0.1031695E+00
          2   -1    0    0  502    0  0.00000000000E+00  0.00000000000E+00  0.83088793887E+03  0.83088793887E+03  0.00000000000E+00 0. -1.
         -2   -1    0    0    0  501 -0.00000000000E+00 -0.00000000000E+00 -0.35710158775E+03  0.35710158775E+03  0.00000000000E+00 0.  1.
    9000007    1    1    2  502    0 -0.12668566149E+03 -0.12187136617E+03 -0.11782044169E+03  0.45253015723E+03  0.40000000000E+03 0.  1.
   -9000007    1    1    2    0  501  0.12668566149E+03  0.12187136617E+03  0.59160679282E+03  0.73545936939E+03  0.40000000000E+03 0.  1.
<mgrwt>
<rscale>  2 0.43692320E+03</rscale>
<asrwt>0</asrwt>
<pdfrwt beam="1">  1        2 0.12782891E+00 0.43692320E+03</pdfrwt>
<pdfrwt beam="2">  1       -2 0.54938706E-01 0.43692320E+03</pdfrwt>
<totfact> 0.10606016E+02</totfact>
</mgrwt>
</event>
<event>
 4    1  0.2338029E-002  0.5582313E+03  0.7818608E-02  0.9996065E-01
          2   -1    0    0  502    0  0.00000000000E+00  0.00000000000E+00  0.25986546941E+03  0.25986546941E+03  0.00000000000E+00 0.  1.
         -2   -1    0    0    0  501 -0.00000000000E+00 -0.00000000000E+00 -0.12723271921E+04  0.12723271921E+04  0.00000000000E+00 0. -1.
    9000007    1    1    2  502    0  0.36269358728E+03 -0.14168807833E+03 -0.68993577581E+03  0.88748719683E+03  0.40000000000E+03 0. -1.
   -9000007    1    1    2    0  501 -0.36269358728E+03  0.14168807833E+03 -0.32252594693E+03  0.64470546472E+03  0.40000000000E+03 0. -1.
<mgrwt>
<rscale>  2 0.55823127E+03</rscale>
<asrwt>0</asrwt>
<pdfrwt beam="1">  1        2 0.39979303E-01 0.55823127E+03</pdfrwt>
<pdfrwt beam="2">  1       -2 0.19574264E+00 0.55823127E+03</pdfrwt>
<totfact> 0.18929988E+01</totfact>
</mgrwt>
</event>
<event>
 4    1  0.2338029E-002  0.4493475E+03  0.7818608E-02  0.1027917E+00
          4   -1    0    0  502    0  0.00000000000E+00  0.00000000000E+00  0.26426484132E+03  0.26426484132E+03  0.00000000000E+00 0. -1.
         -4   -1    0    0    0  501 -0.00000000000E+00 -0.00000000000E+00 -0.81233862684E+03  0.81233862684E+03  0.00000000000E+00 0.  1.
    9000007    1    1    2  502    0 -0.14524906888E+03  0.14427702022E+03 -0.40527273139E+03  0.60511084718E+03  0.40000000000E+03 0.  1.
   -9000007    1    1    2    0  501  0.14524906888E+03 -0.14427702022E+03 -0.14280105412E+03  0.47149262097E+03  0.40000000000E+03 0. -1.
<mgrwt>
<rscale>  2 0.44934747E+03</rscale>
<asrwt>0</asrwt>
<pdfrwt beam="1">  1        4 0.40656131E-01 0.44934747E+03</pdfrwt>
<pdfrwt beam="2">  1       -4 0.12497517E+00 0.44934747E+03</pdfrwt>
<totfact> 0.54846437E+00</totfact>
</mgrwt>
</event>
<event>
 4    1  0.2338029E-002  0.4994477E+03  0.7818608E-02  0.1013923E+00
          2   -1    0    0  502    0  0.00000000000E+00  0.00000000000E+00  0.13812342091E+04  0.13812342091E+04  0.00000000000E+00 0. -1.
         -2   -1    0    0    0  501 -0.00000000000E+00 -0.00000000000E+00 -0.19026667284E+03  0.19026667284E+03  0.00000000000E+00 0.  1.
    9000007    1    1    2  502    0  0.12734359507E+03 -0.27061334109E+03  0.77261264639E+03  0.91998819174E+03  0.40000000000E+03 0. -1.
   -9000007    1    1    2    0  501 -0.12734359507E+03  0.27061334109E+03  0.41835488984E+03  0.65151269016E+03  0.40000000000E+03 0.  1.
<mgrwt>
<rscale>  2 0.49944767E+03</rscale>
<asrwt>0</asrwt>
<pdfrwt beam="1">  1        2 0.21249756E+00 0.49944767E+03</pdfrwt>
<pdfrwt beam="2">  1       -2 0.29271797E-01 0.49944767E+03</pdfrwt>
<totfact> 0.16524500E+02</totfact>
</mgrwt>
</event>
<event>
 4    1  0.2338029E-002  0.4466205E+03  0.7818608E-02  0.1028735E+00
          1   -1    0    0  502    0  0.00000000000E+00  0.00000000000E+00  0.10285719844E+04  0.10285719844E+04  0.00000000000E+00 0. -1.
         -1   -1    0    0    0  501 -0.00000000000E+00 -0.00000000000E+00 -0.27024557203E+03  0.27024557203E+03  0.00000000000E+00 0.  1.
    9000007    1    1    2  502    0  0.17121371693E+03  0.10077566756E+03  0.34060419158E+02  0.44791738545E+03  0.40000000000E+03 0.  1.
   -9000007    1    1    2    0  501 -0.17121371693E+03 -0.10077566756E+03  0.72426599321E+03  0.85090017097E+03  0.40000000000E+03 0. -1.
<mgrwt>
<rscale>  2 0.44662050E+03</rscale>
<asrwt>0</asrwt>
<pdfrwt beam="1">  1        1 0.15824184E+00 0.44662050E+03</pdfrwt>
<pdfrwt beam="2">  1       -1 0.41576243E-01 0.44662050E+03</pdfrwt>
<totfact> 0.86066464E+01</totfact>
</mgrwt>
</event>
<event>
 4    1  0.2338029E-002  0.4206625E+03  0.7818608E-02  0.1036851E+00
          1   -1    0    0  502    0  0.00000000000E+00  0.00000000000E+00  0.22843024796E+04  0.22843024796E+04  0.00000000000E+00 0. -1.
         -1   -1    0    0    0  501 -0.00000000000E+00 -0.00000000000E+00 -0.78155770788E+02  0.78155770788E+02  0.00000000000E+00 0.  1.
    9000007    1    1    2  502    0  0.43547031325E+02  0.12272165902E+03  0.99214458006E+03  0.10776399293E+04  0.40000000000E+03 0.  1.
   -9000007    1    1    2    0  501 -0.43547031325E+02 -0.12272165902E+03  0.12140021288E+04  0.12848183211E+04  0.40000000000E+03 0. -1.
<mgrwt>
<rscale>  2 0.42066251E+03</rscale>
<asrwt>0</asrwt>
<pdfrwt beam="1">  1        1 0.35143110E+00 0.42066251E+03</pdfrwt>
<pdfrwt beam="2">  1       -1 0.12023967E-01 0.42066251E+03</pdfrwt>
<totfact> 0.97398577E+01</totfact>
</mgrwt>
</event>
<event>
 4    1  0.2338029E-002  0.4505777E+03  0.7818608E-02  0.1027550E+00
          2   -1    0    0  502    0  0.00000000000E+00  0.00000000000E+00  0.86412190654E+03  0.86412190654E+03  0.00000000000E+00 0. -1.
         -2   -1    0    0    0  501 -0.00000000000E+00 -0.00000000000E+00 -0.30308102833E+03  0.30308102833E+03  0.00000000000E+00 0.  1.
    9000007    1    1    2  502    0 -0.20733956033E+03 -0.55270092898E+01  0.55723285936E+03  0.71660916869E+03  0.40000000000E+03 0. -1.
   -9000007    1    1    2    0  501  0.20733956033E+03  0.55270092898E+01  0.38080188485E+01  0.45059376618E+03  0.40000000000E+03 0.  1.
<mgrwt>
<rscale>  2 0.45057767E+03</rscale>
<asrwt>0</asrwt>
<pdfrwt beam="1">  1        2 0.13294183E+00 0.45057767E+03</pdfrwt>
<pdfrwt beam="2">  1       -2 0.46627851E-01 0.45057767E+03</pdfrwt>
<totfact> 0.14009139E+02</totfact>
</mgrwt>
</event>
<event>
 4    1  0.2338029E-002  0.4246787E+03  0.7818608E-02  0.1035554E+00
         -1   -1    0    0    0  501 -0.00000000000E+00  0.00000000000E+00  0.21945680581E+03  0.21945680581E+03  0.00000000000E+00 0. -1.
          1   -1    0    0  502    0  0.00000000000E+00 -0.00000000000E+00 -0.82202567337E+03  0.82202567337E+03  0.00000000000E+00 0.  1.
    9000007    1    1    2  502    0 -0.56509214469E+02 -0.13099138704E+03 -0.30969812415E+03  0.52560913510E+03  0.40000000000E+03 0. -1.
   -9000007    1    1    2    0  501  0.56509214469E+02  0.13099138704E+03 -0.29287074341E+03  0.51587334409E+03  0.40000000000E+03 0. -1.
<mgrwt>
<rscale>  2 0.42467874E+03</rscale>
<asrwt>0</asrwt>
<pdfrwt beam="1">  1        1 0.12646549E+00 0.42467874E+03</pdfrwt>
<pdfrwt beam="2">  1       -1 0.33762585E-01 0.42467874E+03</pdfrwt>
<totfact> 0.18224682E+02</totfact>
</mgrwt>
</event>
<event>
 4    1  0.2338029E-002  0.5323654E+03  0.7818608E-02  0.1005660E+00
         -1   -1    0    0    0  501 -0.00000000000E+00  0.00000000000E+00  0.18656429226E+03  0.18656429226E+03  0.00000000000E+00 0.  1.
          1   -1    0    0  502    0  0.00000000000E+00 -0.00000000000E+00 -0.16069534915E+04  0.16069534915E+04  0.00000000000E+00 0. -1.
    9000007    1    1    2  502    0 -0.24946702008E+03  0.24734417212E+03 -0.50053620860E+03  0.73071843395E+03  0.40000000000E+03 0.  1.
   -9000007    1    1    2    0  501  0.24946702008E+03 -0.24734417212E+03 -0.91985299068E+03  0.10627993499E+04  0.40000000000E+03 0. -1.
<mgrwt>
<rscale>  2 0.53236541E+03</rscale>
<asrwt>0</asrwt>
<pdfrwt beam="1">  1        1 0.24722362E+00 0.53236541E+03</pdfrwt>
<pdfrwt beam="2">  1       -1 0.28702198E-01 0.53236541E+03</pdfrwt>
<totfact> 0.64225527E+01</totfact>
</mgrwt>
</event>
<event>
 4    1  0.2338029E-002  0.4998570E+03  0.7818608E-02  0.1013816E+00
         -2   -1    0    0    0  501 -0.00000000000E+00  0.00000000000E+00  0.19713011424E+03  0.19713011424E+03  0.00000000000E+00 0.  1.
          2   -1    0    0  502    0  0.00000000000E+00 -0.00000000000E+00 -0.14648164002E+04  0.14648164002E+04  0.00000000000E+00 0. -1.
    9000007    1    1    2  502    0 -0.15768114290E+03 -0.25493857108E+03 -0.32883797556E+03  0.59832385212E+03  0.40000000000E+03 0.  1.
   -9000007    1    1    2    0  501  0.15768114290E+03  0.25493857108E+03 -0.93884831045E+03  0.10636226624E+04  0.40000000000E+03 0. -1.
<mgrwt>
<rscale>  2 0.49985700E+03</rscale>
<asrwt>0</asrwt>
<pdfrwt beam="1">  1        2 0.22535636E+00 0.49985700E+03</pdfrwt>
<pdfrwt beam="2">  1       -2 0.30327711E-01 0.49985700E+03</pdfrwt>
<totfact> 0.13910973E+02</totfact>
</mgrwt>
</event>
<event>
 4    1  0.2338029E-002  0.4336250E+03  0.7818608E-02  0.1032721E+00
          2   -1    0    0  502    0  0.00000000000E+00  0.00000000000E+00  0.90818477506E+03  0.90818477506E+03  0.00000000000E+00 0.  1.
         -2   -1    0    0    0  501 -0.00000000000E+00 -0.00000000000E+00 -0.22750446041E+03  0.22750446041E+03  0.00000000000E+00 0. -1.
    9000007    1    1    2  502    0 -0.44603664575E+02  0.16137265965E+03  0.51064781007E+03  0.66991925491E+03  0.40000000000E+03 0.  1.
   -9000007    1    1    2    0  501  0.44603664575E+02 -0.16137265965E+03  0.17003250459E+03  0.46576998056E+03  0.40000000000E+03 0. -1.
<mgrwt>
<rscale>  2 0.43362498E+03</rscale>
<asrwt>0</asrwt>
<pdfrwt beam="1">  1        2 0.13972073E+00 0.43362498E+03</pdfrwt>
<pdfrwt beam="2">  1       -2 0.35000687E-01 0.43362498E+03</pdfrwt>
<totfact> 0.22864614E+02</totfact>
</mgrwt>
</event>
<event>
 4    1  0.2338029E-002  0.4058253E+03  0.7818608E-02  0.1041781E+00
          2   -1    0    0  502    0  0.00000000000E+00  0.00000000000E+00  0.10689947533E+04  0.10689947533E+04  0.00000000000E+00 0. -1.
         -2   -1    0    0    0  501 -0.00000000000E+00 -0.00000000000E+00 -0.23256320448E+03  0.23256320448E+03  0.00000000000E+00 0.  1.
    9000007    1    1    2  502    0  0.26613450292E+02 -0.63134196954E+02  0.40126721528E+02  0.40780431133E+03  0.40000000000E+03 0.  1.
   -9000007    1    1    2    0  501 -0.26613450292E+02  0.63134196954E+02  0.79630482728E+03  0.89375364643E+03  0.40000000000E+03 0. -1.
<mgrwt>
<rscale>  2 0.40582534E+03</rscale>
<asrwt>0</asrwt>
<pdfrwt beam="1">  1        2 0.16446073E+00 0.40582534E+03</pdfrwt>
<pdfrwt beam="2">  1       -2 0.35778955E-01 0.40582534E+03</pdfrwt>
<totfact> 0.17421959E+02</totfact>
</mgrwt>
</event>
<event>
 4    1  0.2338029E-002  0.5016543E+03  0.7818608E-02  0.1013348E+00
          2   -1    0    0  502    0  0.00000000000E+00  0.00000000000E+00  0.81446582274E+03  0.81446582274E+03  0.00000000000E+00 0.  1.
         -2   -1    0    0    0  501 -0.00000000000E+00 -0.00000000000E+00 -0.49271796052E+03  0.49271796052E+03  0.00000000000E+00 0. -1.
    9000007    1    1    2  502    0  0.16970775529E+03 -0.25071155044E+03 -0.23824473377E+03  0.55535354226E+03  0.40000000000E+03 0. -1.
   -9000007    1    1    2    0  501 -0.16970775529E+03  0.25071155044E+03  0.55999259598E+03  0.75183024100E+03  0.40000000000E+03 0.  1.
<mgrwt>
<rscale>  2 0.50165427E+03</rscale>
<asrwt>0</asrwt>
<pdfrwt beam="1">  1        2 0.12530243E+00 0.50165427E+03</pdfrwt>
<pdfrwt beam="2">  1       -2 0.75802763E-01 0.50165427E+03</pdfrwt>
<totfact> 0.54433165E+01</totfact>
</mgrwt>
</event>
<event>
 4    1  0.2338029E-002  0.7486493E+03  0.7818608E-02  0.9637472E-01
          4   -1    0    0  502    0  0.00000000000E+00  0.00000000000E+00  0.78048543572E+03  0.78048543572E+03  0.00000000000E+00 0.  1.
         -4   -1    0    0    0  501 -0.00000000000E+00 -0.00000000000E+00 -0.72812835406E+03  0.72812835406E+03  0.00000000000E+00 0. -1.
    9000007    1    1    2  502    0 -0.55906938674E+03 -0.29650832576E+03 -0.62293131913E+02  0.75123644795E+03  0.40000000000E+03 0. -1.
   -9000007    1    1    2    0  501  0.55906938674E+03  0.29650832576E+03  0.11465021357E+03  0.75737734183E+03  0.40000000000E+03 0. -1.
<mgrwt>
<rscale>  2 0.74864929E+03</rscale>
<asrwt>0</asrwt>
<pdfrwt beam="1">  1        4 0.12007468E+00 0.74864929E+03</pdfrwt>
<pdfrwt beam="2">  1       -4 0.11201975E+00 0.74864929E+03</pdfrwt>
<totfact> 0.64739442E-01</totfact>
</mgrwt>
</event>
<event>
 4    1  0.2338029E-002  0.5474029E+03  0.7818608E-02  0.1002097E+00
          2   -1    0    0  502    0  0.00000000000E+00  0.00000000000E+00  0.32093587593E+04  0.32093587593E+04  0.00000000000E+00 0. -1.
         -2   -1    0    0    0  501 -0.00000000000E+00 -0.00000000000E+00 -0.13799781424E+03  0.13799781424E+03  0.00000000000E+00 0.  1.
    9000007    1    1    2  502    0 -0.24487809023E+03  0.28228461114E+03  0.58386944097E+03  0.80034580330E+03  0.40000000000E+03 0.  1.
   -9000007    1    1    2    0  501  0.24487809023E+03 -0.28228461114E+03  0.24874915041E+04  0.25470107703E+04  0.40000000000E+03 0. -1.
<mgrwt>
<rscale>  2 0.54740285E+03</rscale>
<asrwt>0</asrwt>
<pdfrwt beam="1">  1        2 0.49374744E+00 0.54740285E+03</pdfrwt>
<pdfrwt beam="2">  1       -2 0.21230435E-01 0.54740285E+03</pdfrwt>
<totfact> 0.27194203E+01</totfact>
</mgrwt>
</event>
<event>
 4    1  0.2338029E-002  0.4792410E+03  0.7818608E-02  0.1019344E+00
          1   -1    0    0  502    0  0.00000000000E+00  0.00000000000E+00  0.18096873052E+03  0.18096873052E+03  0.00000000000E+00 0.  1.
         -1   -1    0    0    0  501 -0.00000000000E+00 -0.00000000000E+00 -0.13323407664E+04  0.13323407664E+04  0.00000000000E+00 0. -1.
    9000007    1    1    2  502    0 -0.15065116138E+03  0.21673992905E+03 -0.74050311259E+03  0.88205262259E+03  0.40000000000E+03 0. -1.
   -9000007    1    1    2    0  501  0.15065116138E+03 -0.21673992905E+03 -0.41086892329E+03  0.63125687433E+03  0.40000000000E+03 0. -1.
<mgrwt>
<rscale>  2 0.47924103E+03</rscale>
<asrwt>0</asrwt>
<pdfrwt beam="1">  1        1 0.27841343E-01 0.47924103E+03</pdfrwt>
<pdfrwt beam="2">  1       -1 0.20497551E+00 0.47924103E+03</pdfrwt>
<totfact> 0.24967729E+01</totfact>
</mgrwt>
</event>
<event>
 4    1  0.2338029E-002  0.4372642E+03  0.7818608E-02  0.1031590E+00
          4   -1    0    0  502    0  0.00000000000E+00  0.00000000000E+00  0.21837923347E+03  0.21837923347E+03  0.00000000000E+00 0.  1.
         -4   -1    0    0    0  501 -0.00000000000E+00 -0.00000000000E+00 -0.10999549683E+04  0.10999549683E+04  0.00000000000E+00 0. -1.
    9000007    1    1    2  502    0  0.12030321075E+03 -0.12933348935E+03 -0.73852488197E+03  0.85826511945E+03  0.40000000000E+03 0. -1.
   -9000007    1    1    2    0  501 -0.12030321075E+03  0.12933348935E+03 -0.14305085284E+03  0.46006908229E+03  0.40000000000E+03 0.  1.
<mgrwt>
<rscale>  2 0.43726424E+03</rscale>
<asrwt>0</asrwt>
<pdfrwt beam="1">  1        4 0.33596806E-01 0.43726424E+03</pdfrwt>
<pdfrwt beam="2">  1       -4 0.16922384E+00 0.43726424E+03</pdfrwt>
<totfact> 0.36250958E+00</totfact>
</mgrwt>
</event>
<event>
 4    1  0.2338029E-002  0.4616466E+03  0.7818608E-02  0.1024305E+00
          1   -1    0    0  502    0  0.00000000000E+00  0.00000000000E+00  0.29993786550E+04  0.29993786550E+04  0.00000000000E+00 0. -1.
         -1   -1    0    0    0  501 -0.00000000000E+00 -0.00000000000E+00 -0.82237797321E+02  0.82237797321E+02  0.00000000000E+00 0.  1.
    9000007    1    1    2  502    0  0.88994303658E+02  0.21259725396E+03  0.20267809376E+04  0.20786915469E+04  0.40000000000E+03 0. -1.
   -9000007    1    1    2    0  501 -0.88994303658E+02 -0.21259725396E+03  0.89035992012E+03  0.10029249054E+04  0.40000000000E+03 0.  1.
<mgrwt>
<rscale>  2 0.46164659E+03</rscale>
<asrwt>0</asrwt>
<pdfrwt beam="1">  1        1 0.46144279E+00 0.46164659E+03</pdfrwt>
<pdfrwt beam="2">  1       -1 0.12651971E-01 0.46164659E+03</pdfrwt>
<totfact> 0.28904432E+01</totfact>
</mgrwt>
</event>
<event>
 4    1  0.2338029E-002  0.7601889E+03  0.7818608E-02  0.9619500E-01
         -2   -1    0    0    0  501 -0.00000000000E+00  0.00000000000E+00  0.12333425504E+04  0.12333425504E+04  0.00000000000E+00 0.  1.
          2   -1    0    0  502    0  0.00000000000E+00 -0.00000000000E+00 -0.54005348596E+03  0.54005348596E+03  0.00000000000E+00 0. -1.
    9000007    1    1    2  502    0  0.15982580858E+03 -0.62637285005E+03  0.66927818871E+03  0.10128279865E+04  0.40000000000E+03 0.  1.
   -9000007    1    1    2    0  501 -0.15982580858E+03  0.62637285005E+03  0.24010875784E+02  0.76056804990E+03  0.40000000000E+03 0. -1.
<mgrwt>
<rscale>  2 0.76018895E+03</rscale>
<asrwt>0</asrwt>
<pdfrwt beam="1">  1        2 0.83085152E-01 0.76018895E+03</pdfrwt>
<pdfrwt beam="2">  1       -2 0.18974501E+00 0.76018895E+03</pdfrwt>
<totfact> 0.89030716E+00</totfact>
</mgrwt>
</event>
<event>
 4    1  0.2338029E-002  0.4700768E+03  0.7818608E-02  0.1021899E+00
         -2   -1    0    0    0  501 -0.00000000000E+00  0.00000000000E+00  0.72337684033E+02  0.72337684033E+02  0.00000000000E+00 0.  1.
          2   -1    0    0  502    0  0.00000000000E+00 -0.00000000000E+00 -0.30886547355E+04  0.30886547355E+04  0.00000000000E+00 0. -1.
    9000007    1    1    2  502    0  0.31734354091E+02  0.24487781379E+03 -0.16737951799E+04  0.17385518448E+04  0.40000000000E+03 0.  1.
   -9000007    1    1    2    0  501 -0.31734354091E+02 -0.24487781379E+03 -0.13425218716E+04  0.14224405747E+04  0.40000000000E+03 0. -1.
<mgrwt>
<rscale>  2 0.47007682E+03</rscale>
<asrwt>0</asrwt>
<pdfrwt beam="1">  1        2 0.47517760E+00 0.47007682E+03</pdfrwt>
<pdfrwt beam="2">  1       -2 0.11128876E-01 0.47007682E+03</pdfrwt>
<totfact> 0.97766338E+01</totfact>
</mgrwt>
</event>
<event>
 4    1  0.2338029E-002  0.4184615E+03  0.7818608E-02  0.1037568E+00
         -2   -1    0    0    0  501 -0.00000000000E+00  0.00000000000E+00  0.44090559677E+03  0.44090559677E+03  0.00000000000E+00 0.  1.
          2   -1    0    0  502    0  0.00000000000E+00 -0.00000000000E+00 -0.51763436687E+03  0.51763436687E+03  0.00000000000E+00 0. -1.
    9000007    1    1    2  502    0  0.86251028574E+02  0.87582908191E+02  0.19285074700E+03  0.46076177832E+03  0.40000000000E+03 0.  1.
   -9000007    1    1    2    0  501 -0.86251028574E+02 -0.87582908191E+02 -0.26957951710E+03  0.49777818532E+03  0.40000000000E+03 0. -1.
<mgrwt>
<rscale>  2 0.41846147E+03</rscale>
<asrwt>0</asrwt>
<pdfrwt beam="1">  1        2 0.79636056E-01 0.41846147E+03</pdfrwt>
<pdfrwt beam="2">  1       -2 0.67831631E-01 0.41846147E+03</pdfrwt>
<totfact> 0.12160051E+02</totfact>
</mgrwt>
</event>
<event>
 4    1  0.2338029E-002  0.5835381E+03  0.7818608E-02  0.9940160E-01
         -2   -1    0    0    0  501 -0.00000000000E+00  0.00000000000E+00  0.63273631250E+03  0.63273631250E+03  0.00000000000E+00 0. -1.
          2   -1    0    0  502    0  0.00000000000E+00 -0.00000000000E+00 -0.53910243535E+03  0.53910243535E+03  0.00000000000E+00 0.  1.
    9000007    1    1    2  502    0  0.37813896012E+03 -0.19372043483E+03  0.71246784592E+02  0.58787140120E+03  0.40000000000E+03 0. -1.
   -9000007    1    1    2    0  501 -0.37813896012E+03  0.19372043483E+03  0.22387092559E+02  0.58396734664E+03  0.40000000000E+03 0.  1.
<mgrwt>
<rscale>  2 0.58353807E+03</rscale>
<asrwt>0</asrwt>
<pdfrwt beam="1">  1        2 0.82938836E-01 0.58353807E+03</pdfrwt>
<pdfrwt beam="2">  1       -2 0.97344049E-01 0.58353807E+03</pdfrwt>
<totfact> 0.50857976E+01</totfact>
</mgrwt>
</event>
<event>
 4    1  0.2338029E-002  0.5869623E+03  0.7818608E-02  0.9932830E-01
         -2   -1    0    0    0  501 -0.00000000000E+00  0.00000000000E+00  0.12579005354E+04  0.12579005354E+04  0.00000000000E+00 0.  1.
          2   -1    0    0  502    0  0.00000000000E+00 -0.00000000000E+00 -0.40482243061E+03  0.40482243061E+03  0.00000000000E+00 0. -1.
    9000007    1    1    2  502    0 -0.42895028772E+03 -0.22944229998E+02 -0.46267327246E+02  0.58878302675E+03  0.40000000000E+03 0. -1.
   -9000007    1    1    2    0  501  0.42895028772E+03  0.22944229998E+02  0.89934543206E+03  0.10739399393E+04  0.40000000000E+03 0.  1.
<mgrwt>
<rscale>  2 0.58696234E+03</rscale>
<asrwt>0</asrwt>
<pdfrwt beam="1">  1        2 0.62280374E-01 0.58696234E+03</pdfrwt>
<pdfrwt beam="2">  1       -2 0.19352316E+00 0.58696234E+03</pdfrwt>
<totfact> 0.11934657E+01</totfact>
</mgrwt>
</event>
<event>
 4    1  0.2338029E-002  0.4624294E+03  0.7818608E-02  0.1024079E+00
          2   -1    0    0  502    0  0.00000000000E+00  0.00000000000E+00  0.26449272424E+03  0.26449272424E+03  0.00000000000E+00 0.  1.
         -2   -1    0    0    0  501 -0.00000000000E+00 -0.00000000000E+00 -0.16983287215E+04  0.16983287215E+04  0.00000000000E+00 0. -1.
    9000007    1    1    2  502    0  0.12892708155E+03  0.19292158969E+03 -0.14273040998E+04  0.15003459353E+04  0.40000000000E+03 0. -1.
   -9000007    1    1    2    0  501 -0.12892708155E+03 -0.19292158969E+03 -0.65318974645E+01  0.46247551050E+03  0.40000000000E+03 0.  1.
<mgrwt>
<rscale>  2 0.46242938E+03</rscale>
<asrwt>0</asrwt>
<pdfrwt beam="1">  1        2 0.40691187E-01 0.46242938E+03</pdfrwt>
<pdfrwt beam="2">  1       -2 0.26128135E+00 0.46242938E+03</pdfrwt>
<totfact> 0.74301352E+00</totfact>
</mgrwt>
</event>
<event>
 4    1  0.2338029E-002  0.4371209E+03  0.7818608E-02  0.1031634E+00
         -2   -1    0    0    0  501 -0.00000000000E+00  0.00000000000E+00  0.56482391587E+03  0.56482391587E+03  0.00000000000E+00 0. -1.
          2   -1    0    0  502    0  0.00000000000E+00 -0.00000000000E+00 -0.39867327916E+03  0.39867327916E+03  0.00000000000E+00 0.  1.
    9000007    1    1    2  502    0  0.60481233782E+02 -0.16557990123E+03  0.27056082028E+03  0.51407960551E+03  0.40000000000E+03 0. -1.
   -9000007    1    1    2    0  501 -0.60481233782E+02  0.16557990123E+03 -0.10441018357E+03  0.44941758951E+03  0.40000000000E+03 0.  1.
<mgrwt>
<rscale>  2 0.43712090E+03</rscale>
<asrwt>0</asrwt>
<pdfrwt beam="1">  1        2 0.61334350E-01 0.43712090E+03</pdfrwt>
<pdfrwt beam="2">  1       -2 0.86895988E-01 0.43712090E+03</pdfrwt>
<totfact> 0.94261827E+01</totfact>
</mgrwt>
</event>
<event>
 4    1  0.2338029E-002  0.4342871E+03  0.7818608E-02  0.1032514E+00
         -1   -1    0    0    0  501 -0.00000000000E+00  0.00000000000E+00  0.15140777564E+03  0.15140777564E+03  0.00000000000E+00 0. -1.
          1   -1    0    0  502    0  0.00000000000E+00 -0.00000000000E+00 -0.13276844197E+04  0.13276844197E+04  0.00000000000E+00 0.  1.
    9000007    1    1    2  502    0  0.11788790428E+03 -0.12127542489E+03 -0.77193708930E+03  0.88571561830E+03  0.40000000000E+03 0.  1.
   -9000007    1    1    2    0  501 -0.11788790428E+03  0.12127542489E+03 -0.40433955480E+03  0.59337657709E+03  0.40000000000E+03 0. -1.
<mgrwt>
<rscale>  2 0.43428710E+03</rscale>
<asrwt>0</asrwt>
<pdfrwt beam="1">  1        1 0.20425915E+00 0.43428710E+03</pdfrwt>
<pdfrwt beam="2">  1       -1 0.23293503E-01 0.43428710E+03</pdfrwt>
<totfact> 0.14374392E+02</totfact>
</mgrwt>
</event>
<event>
 4    1  0.2338029E-002  0.4883479E+03  0.7818608E-02  0.1016866E+00
          1   -1    0    0  502    0  0.00000000000E+00  0.00000000000E+00  0.24017919550E+03  0.24017919550E+03  0.00000000000E+00 0.  1.
         -1   -1    0    0    0  501 -0.00000000000E+00 -0.00000000000E+00 -0.10810133036E+04  0.10810133036E+04  0.00000000000E+00 0. -1.
    9000007    1    1    2  502    0 -0.26330791912E+03 -0.95669025431E+02 -0.23186043593E+03  0.54059493565E+03  0.40000000000E+03 0.  1.
   -9000007    1    1    2    0  501  0.26330791912E+03  0.95669025431E+02 -0.60897367220E+03  0.78059756349E+03  0.40000000000E+03 0. -1.
<mgrwt>
<rscale>  2 0.48834785E+03</rscale>
<asrwt>0</asrwt>
<pdfrwt beam="1">  1        1 0.36950646E-01 0.48834785E+03</pdfrwt>
<pdfrwt beam="2">  1       -1 0.16630974E+00 0.48834785E+03</pdfrwt>
<totfact> 0.32299354E+01</totfact>
</mgrwt>
</event>
<event>
 4    1  0.2338029E-002  0.4472535E+03  0.7818608E-02  0.1028544E+00
          2   -1    0    0  502    0  0.00000000000E+00  0.00000000000E+00  0.20963769779E+04  0.20963769779E+04  0.00000000000E+00 0.  1.
         -2   -1    0    0    0  501 -0.00000000000E+00 -0.00000000000E+00 -0.95817487943E+02  0.95817487943E+02  0.00000000000E+00 0. -1.
    9000007    1    1    2  502    0  0.17106922503E+01  0.20008197801E+03  0.10709011470E+04  0.11605451267E+04  0.40000000000E+03 0. -1.
   -9000007    1    1    2    0  501 -0.17106922503E+01 -0.20008197801E+03  0.92965834295E+03  0.10316493392E+04  0.40000000000E+03 0.  1.
<mgrwt>
<rscale>  2 0.44725353E+03</rscale>
<asrwt>0</asrwt>
<pdfrwt beam="1">  1        2 0.32251950E+00 0.44725353E+03</pdfrwt>
<pdfrwt beam="2">  1       -2 0.14741154E-01 0.44725353E+03</pdfrwt>
<totfact> 0.22628092E+02</totfact>
</mgrwt>
</event>
<event>
 4    1  0.2338029E-002  0.5017165E+03  0.7818608E-02  0.1013332E+00
         -1   -1    0    0    0  501 -0.00000000000E+00  0.00000000000E+00  0.44345435255E+03  0.44345435255E+03  0.00000000000E+00 0.  1.
          1   -1    0    0  502    0  0.00000000000E+00 -0.00000000000E+00 -0.64816225122E+03  0.64816225122E+03  0.00000000000E+00 0. -1.
    9000007    1    1    2  502    0 -0.24916486009E+02  0.30182539836E+03  0.90032565374E+02  0.50973058099E+03  0.40000000000E+03 0. -1.
   -9000007    1    1    2    0  501  0.24916486009E+02 -0.30182539836E+03 -0.29474046404E+03  0.58188602278E+03  0.40000000000E+03 0.  1.
<mgrwt>
<rscale>  2 0.50171646E+03</rscale>
<asrwt>0</asrwt>
<pdfrwt beam="1">  1        1 0.99717270E-01 0.50171646E+03</pdfrwt>
<pdfrwt beam="2">  1       -1 0.68223746E-01 0.50171646E+03</pdfrwt>
<totfact> 0.69550520E+01</totfact>
</mgrwt>
</event>
<event>
 4    1  0.2338029E-002  0.4375462E+03  0.7818608E-02  0.1031502E+00
          2   -1    0    0  502    0  0.00000000000E+00  0.00000000000E+00  0.88622811592E+03  0.88622811592E+03  0.00000000000E+00 0.  1.
         -2   -1    0    0    0  501 -0.00000000000E+00 -0.00000000000E+00 -0.23441428284E+03  0.23441428284E+03  0.00000000000E+00 0. -1.
    9000007    1    1    2  502    0 -0.11496689288E+03  0.13501578576E+03  0.16896541386E+03  0.46903726925E+03  0.40000000000E+03 0. -1.
   -9000007    1    1    2    0  501  0.11496689288E+03 -0.13501578576E+03  0.48284841922E+03  0.65160512951E+03  0.40000000000E+03 0.  1.
<mgrwt>
<rscale>  2 0.43754617E+03</rscale>
<asrwt>0</asrwt>
<pdfrwt beam="1">  1        2 0.13634278E+00 0.43754617E+03</pdfrwt>
<pdfrwt beam="2">  1       -2 0.36063736E-01 0.43754617E+03</pdfrwt>
<totfact> 0.22333117E+02</totfact>
</mgrwt>
</event>
<event>
 4    1  0.2338029E-002  0.4536586E+03  0.7818608E-02  0.1026637E+00
          2   -1    0    0  502    0  0.00000000000E+00  0.00000000000E+00  0.22440023838E+04  0.22440023838E+04  0.00000000000E+00 0. -1.
         -2   -1    0    0    0  501 -0.00000000000E+00 -0.00000000000E+00 -0.92345241289E+02  0.92345241289E+02  0.00000000000E+00 0.  1.
    9000007    1    1    2  502    0  0.21128446442E+03 -0.34132154400E+02  0.97923576762E+03  0.10792167611E+04  0.40000000000E+03 0. -1.
   -9000007    1    1    2    0  501 -0.21128446442E+03  0.34132154400E+02  0.11724213749E+04  0.12571308640E+04  0.40000000000E+03 0. -1.
<mgrwt>
<rscale>  2 0.45365860E+03</rscale>
<asrwt>0</asrwt>
<pdfrwt beam="1">  1        2 0.34523109E+00 0.45365860E+03</pdfrwt>
<pdfrwt beam="2">  1       -2 0.14206962E-01 0.45365860E+03</pdfrwt>
<totfact> 0.20004388E+02</totfact>
</mgrwt>
</event>
<event>
 4    1  0.2338029E-002  0.4237146E+03  0.7818608E-02  0.1035864E+00
          2   -1    0    0  502    0  0.00000000000E+00  0.00000000000E+00  0.70273207350E+03  0.70273207350E+03  0.00000000000E+00 0. -1.
         -2   -1    0    0    0  501 -0.00000000000E+00 -0.00000000000E+00 -0.27332265942E+03  0.27332265942E+03  0.00000000000E+00 0.  1.
    9000007    1    1    2  502    0 -0.11844246582E+03  0.74198811150E+02  0.33939555305E+03  0.54288435482E+03  0.40000000000E+03 0. -1.
   -9000007    1    1    2    0  501  0.11844246582E+03 -0.74198811150E+02  0.90013861035E+02  0.43317037810E+03  0.40000000000E+03 0. -1.
<mgrwt>
<rscale>  2 0.42371462E+03</rscale>
<asrwt>0</asrwt>
<pdfrwt beam="1">  1        2 0.10811263E+00 0.42371462E+03</pdfrwt>
<pdfrwt beam="2">  1       -2 0.42049640E-01 0.42371462E+03</pdfrwt>
<totfact> 0.22475628E+02</totfact>
</mgrwt>
</event>
<event>
 4    1  0.2338029E-002  0.5984372E+03  0.7818608E-02  0.9908654E-01
          2   -1    0    0  502    0  0.00000000000E+00  0.00000000000E+00  0.16749567386E+04  0.16749567386E+04  0.00000000000E+00 0.  1.
         -2   -1    0    0    0  501 -0.00000000000E+00 -0.00000000000E+00 -0.23376579551E+03  0.23376579551E+03  0.00000000000E+00 0. -1.
    9000007    1    1    2  502    0  0.75072638893E+02  0.43873821872E+03  0.44177362850E+03  0.74383537460E+03  0.40000000000E+03 0. -1.
   -9000007    1    1    2    0  501 -0.75072638893E+02 -0.43873821872E+03  0.99941731460E+03  0.11648871595E+04  0.40000000000E+03 0. -1.
<mgrwt>
<rscale>  2 0.59843724E+03</rscale>
<asrwt>0</asrwt>
<pdfrwt beam="1">  1        2 0.25768564E+00 0.59843724E+03</pdfrwt>
<pdfrwt beam="2">  1       -2 0.35963970E-01 0.59843724E+03</pdfrwt>
<totfact> 0.76578539E+01</totfact>
</mgrwt>
</event>
<event>
 4    1  0.2338029E-002  0.4095477E+03  0.7818608E-02  0.1040523E+00
          2   -1    0    0  502    0  0.00000000000E+00  0.00000000000E+00  0.30594468505E+03  0.30594468505E+03  0.00000000000E+00 0. -1.
         -2   -1    0    0    0  501 -0.00000000000E+00 -0.00000000000E+00 -0.96944970139E+03  0.96944970139E+03  0.00000000000E+00 0.  1.
    9000007    1    1    2  502    0  0.24922527231E+02  0.84309931998E+02  0.88590772548E+02  0.41901983483E+03  0.40000000000E+03 0.  1.
   -9000007    1    1    2    0  501 -0.24922527231E+02 -0.84309931998E+02 -0.75209578889E+03  0.85637455162E+03  0.40000000000E+03 0.  1.
<mgrwt>
<rscale>  2 0.40954767E+03</rscale>
<asrwt>0</asrwt>
<pdfrwt beam="1">  1        2 0.47068414E-01 0.40954767E+03</pdfrwt>
<pdfrwt beam="2">  1       -2 0.14914610E+00 0.40954767E+03</pdfrwt>
<totfact> 0.34085621E+01</totfact>
</mgrwt>
</event>
<event>
 4    1  0.2338029E-002  0.4081582E+03  0.7818608E-02  0.1040991E+00
         -2   -1    0    0    0  501 -0.00000000000E+00  0.00000000000E+00  0.26070247167E+03  0.26070247167E+03  0.00000000000E+00 0. -1.
          2   -1    0    0  502    0  0.00000000000E+00 -0.00000000000E+00 -0.70440350774E+03  0.70440350774E+03  0.00000000000E+00 0.  1.
    9000007    1    1    2  502    0 -0.80060333830E+02  0.13545610848E+02 -0.36887190032E+03  0.55014508947E+03  0.40000000000E+03 0.  1.
   -9000007    1    1    2    0  501  0.80060333830E+02 -0.13545610848E+02 -0.74829135749E+02  0.41496088994E+03  0.40000000000E+03 0. -1.
<mgrwt>
<rscale>  2 0.40815823E+03</rscale>
<asrwt>0</asrwt>
<pdfrwt beam="1">  1        2 0.10836977E+00 0.40815823E+03</pdfrwt>
<pdfrwt beam="2">  1       -2 0.40108074E-01 0.40815823E+03</pdfrwt>
<totfact> 0.24592618E+02</totfact>
</mgrwt>
</event>
<event>
 4    1  0.2338029E-002  0.4135457E+03  0.7818608E-02  0.1039188E+00
          1   -1    0    0  502    0  0.00000000000E+00  0.00000000000E+00  0.57067142174E+03  0.57067142174E+03  0.00000000000E+00 0.  1.
         -1   -1    0    0    0  501 -0.00000000000E+00 -0.00000000000E+00 -0.35000615655E+03  0.35000615655E+03  0.00000000000E+00 0. -1.
    9000007    1    1    2  502    0 -0.70907902567E+02  0.77408549849E+02  0.28488571352E+03  0.50217515271E+03  0.40000000000E+03 0.  1.
   -9000007    1    1    2    0  501  0.70907902567E+02 -0.77408549849E+02 -0.64220448326E+02  0.41850242558E+03  0.40000000000E+03 0. -1.
<mgrwt>
<rscale>  2 0.41354566E+03</rscale>
<asrwt>0</asrwt>
<pdfrwt beam="1">  1        1 0.87795603E-01 0.41354566E+03</pdfrwt>
<pdfrwt beam="2">  1       -1 0.53847101E-01 0.41354566E+03</pdfrwt>
<totfact> 0.13385111E+02</totfact>
</mgrwt>
</event>
<event>
 4    1  0.2338029E-002  0.4386416E+03  0.7818608E-02  0.1031164E+00
          1   -1    0    0  502    0  0.00000000000E+00  0.00000000000E+00  0.82075012261E+03  0.82075012261E+03  0.00000000000E+00 0. -1.
         -1   -1    0    0    0  501 -0.00000000000E+00 -0.00000000000E+00 -0.30686406860E+03  0.30686406860E+03  0.00000000000E+00 0.  1.
    9000007    1    1    2  502    0  0.78493649017E+02  0.16200358709E+03  0.53087100683E+03  0.68864391456E+03  0.40000000000E+03 0.  1.
   -9000007    1    1    2    0  501 -0.78493649017E+02 -0.16200358709E+03 -0.16984952814E+02  0.43897027666E+03  0.40000000000E+03 0. -1.
<mgrwt>
<rscale>  2 0.43864156E+03</rscale>
<asrwt>0</asrwt>
<pdfrwt beam="1">  1        1 0.12626925E+00 0.43864156E+03</pdfrwt>
<pdfrwt beam="2">  1       -1 0.47209857E-01 0.43864156E+03</pdfrwt>
<totfact> 0.99747270E+01</totfact>
</mgrwt>
</event>
<event>
 4    1  0.2338029E-002  0.4117553E+03  0.7818608E-02  0.1039784E+00
          4   -1    0    0  502    0  0.00000000000E+00  0.00000000000E+00  0.83109236355E+03  0.83109236355E+03  0.00000000000E+00 0.  1.
         -4   -1    0    0    0  501 -0.00000000000E+00 -0.00000000000E+00 -0.31718756586E+03  0.31718756586E+03  0.00000000000E+00 0. -1.
    9000007    1    1    2  502    0  0.92315046375E+02  0.31942944455E+02  0.59992548164E+03  0.72763521287E+03  0.40000000000E+03 0.  1.
   -9000007    1    1    2    0  501 -0.92315046375E+02 -0.31942944455E+02 -0.86020683953E+02  0.42064471654E+03  0.40000000000E+03 0. -1.
<mgrwt>
<rscale>  2 0.41175529E+03</rscale>
<asrwt>0</asrwt>
<pdfrwt beam="1">  1        4 0.12786036E+00 0.41175529E+03</pdfrwt>
<pdfrwt beam="2">  1       -4 0.48798087E-01 0.41175529E+03</pdfrwt>
<totfact> 0.35545153E+00</totfact>
</mgrwt>
</event>
<event>
 4    1  0.2338029E-002  0.5416591E+03  0.7818608E-02  0.1003443E+00
         -2   -1    0    0    0  501 -0.00000000000E+00  0.00000000000E+00  0.62898320660E+02  0.62898320660E+02  0.00000000000E+00 0. -1.
          2   -1    0    0  502    0  0.00000000000E+00 -0.00000000000E+00 -0.48358701353E+04  0.48358701353E+04  0.00000000000E+00 0.  1.
    9000007    1    1    2  502    0 -0.17244829576E+03 -0.32195682127E+03 -0.19255097062E+04  0.20002455444E+04  0.40000000000E+03 0. -1.
   -9000007    1    1    2    0  501  0.17244829576E+03  0.32195682127E+03 -0.28474621085E+04  0.28985229115E+04  0.40000000000E+03 0.  1.
<mgrwt>
<rscale>  2 0.54165913E+03</rscale>
<asrwt>0</asrwt>
<pdfrwt beam="1">  1        2 0.74397988E+00 0.54165913E+03</pdfrwt>
<pdfrwt beam="2">  1       -2 0.96766666E-02 0.54165913E+03</pdfrwt>
<totfact> 0.48125495E+00</totfact>
</mgrwt>
</event>
<event>
 4    1  0.2338029E-002  0.4411710E+03  0.7818608E-02  0.1030388E+00
          2   -1    0    0  502    0  0.00000000000E+00  0.00000000000E+00  0.13873182273E+04  0.13873182273E+04  0.00000000000E+00 0.  1.
         -2   -1    0    0    0  501 -0.00000000000E+00 -0.00000000000E+00 -0.15604669426E+03  0.15604669426E+03  0.00000000000E+00 0. -1.
    9000007    1    1    2  502    0 -0.16719023435E+03 -0.81726774588E+02  0.37045039225E+03  0.57607754102E+03  0.40000000000E+03 0. -1.
   -9000007    1    1    2    0  501  0.16719023435E+03  0.81726774588E+02  0.86082114082E+03  0.96728738058E+03  0.40000000000E+03 0.  1.
<mgrwt>
<rscale>  2 0.44117099E+03</rscale>
<asrwt>0</asrwt>
<pdfrwt beam="1">  1        2 0.21343357E+00 0.44117099E+03</pdfrwt>
<pdfrwt beam="2">  1       -2 0.24007185E-01 0.44117099E+03</pdfrwt>
<totfact> 0.23612519E+02</totfact>
</mgrwt>
</event>
<event>
 4    1  0.2338029E-002  0.6238959E+03  0.7818608E-02  0.9857034E-01
         -2   -1    0    0    0  501 -0.00000000000E+00  0.00000000000E+00  0.21329076825E+03  0.21329076825E+03  0.00000000000E+00 0. -1.
          2   -1    0    0  502    0  0.00000000000E+00 -0.00000000000E+00 -0.18729200456E+04  0.18729200456E+04  0.00000000000E+00 0.  1.
    9000007    1    1    2  502    0 -0.34744265629E+03  0.32943835978E+03 -0.99674351433E+03  0.11759012142E+04  0.40000000000E+03 0.  1.
   -9000007    1    1    2    0  501  0.34744265629E+03 -0.32943835978E+03 -0.66288576302E+03  0.91030959960E+03  0.40000000000E+03 0.  1.
<mgrwt>
<rscale>  2 0.62389585E+03</rscale>
<asrwt>0</asrwt>
<pdfrwt beam="1">  1        2 0.28814154E+00 0.62389585E+03</pdfrwt>
<pdfrwt beam="2">  1       -2 0.32813965E-01 0.62389585E+03</pdfrwt>
<totfact> 0.70903378E+01</totfact>
</mgrwt>
</event>
<event>
 4    1  0.2338029E-002  0.5245748E+03  0.7818608E-02  0.1007556E+00
         -1   -1    0    0    0  501 -0.00000000000E+00  0.00000000000E+00  0.16577040603E+03  0.16577040603E+03  0.00000000000E+00 0.  1.
          1   -1    0    0  502    0  0.00000000000E+00 -0.00000000000E+00 -0.17202385985E+04  0.17202385985E+04  0.00000000000E+00 0. -1.
    9000007    1    1    2  502    0  0.22934872330E+03  0.25015575792E+03 -0.60076861536E+03  0.79755982177E+03  0.40000000000E+03 0.  1.
   -9000007    1    1    2    0  501 -0.22934872330E+03 -0.25015575792E+03 -0.95369957713E+03  0.10884491828E+04  0.40000000000E+03 0. -1.
<mgrwt>
<rscale>  2 0.52457482E+03</rscale>
<asrwt>0</asrwt>
<pdfrwt beam="1">  1        1 0.26465208E+00 0.52457482E+03</pdfrwt>
<pdfrwt beam="2">  1       -1 0.25503141E-01 0.52457482E+03</pdfrwt>
<totfact> 0.66110310E+01</totfact>
</mgrwt>
</event>
<event>
 4    1  0.2338029E-002  0.4208475E+03  0.7818608E-02  0.1036791E+00
          1   -1    0    0  502    0  0.00000000000E+00  0.00000000000E+00  0.28036475892E+03  0.28036475892E+03  0.00000000000E+00 0.  1.
         -1   -1    0    0    0  501 -0.00000000000E+00 -0.00000000000E+00 -0.63195590312E+03  0.63195590312E+03  0.00000000000E+00 0. -1.
    9000007    1    1    2  502    0 -0.40897263273E+02  0.12425782107E+03 -0.16702006444E+03  0.45277841619E+03  0.40000000000E+03 0.  1.
   -9000007    1    1    2    0  501  0.40897263273E+02 -0.12425782107E+03 -0.18457107976E+03  0.45954224585E+03  0.40000000000E+03 0. -1.
<mgrwt>
<rscale>  2 0.42084747E+03</rscale>
<asrwt>0</asrwt>
<pdfrwt beam="1">  1        1 0.43133040E-01 0.42084747E+03</pdfrwt>
<pdfrwt beam="2">  1       -1 0.97223985E-01 0.42084747E+03</pdfrwt>
<totfact> 0.10151681E+02</totfact>
</mgrwt>
</event>
<event>
 4    1  0.2338029E-002  0.4053119E+03  0.7818608E-02  0.1041956E+00
          1   -1    0    0  502    0  0.00000000000E+00  0.00000000000E+00  0.41552438801E+03  0.41552438801E+03  0.00000000000E+00 0. -1.
         -1   -1    0    0    0  501 -0.00000000000E+00 -0.00000000000E+00 -0.42574004969E+03  0.42574004969E+03  0.00000000000E+00 0.  1.
    9000007    1    1    2  502    0 -0.56590912552E+02  0.32789820754E+02  0.10727336061E+03  0.41926754898E+03  0.40000000000E+03 0. -1.
   -9000007    1    1    2    0  501  0.56590912552E+02 -0.32789820754E+02 -0.11748902230E+03  0.42199688872E+03  0.40000000000E+03 0.  1.
<mgrwt>
<rscale>  2 0.40531186E+03</rscale>
<asrwt>0</asrwt>
<pdfrwt beam="1">  1        1 0.63926829E-01 0.40531186E+03</pdfrwt>
<pdfrwt beam="2">  1       -1 0.65498469E-01 0.40531186E+03</pdfrwt>
<totfact> 0.14038522E+02</totfact>
</mgrwt>
</event>
<event>
 4    1  0.2338029E-002  0.4439254E+03  0.7818608E-02  0.1029549E+00
         -3   -1    0    0    0  501 -0.00000000000E+00  0.00000000000E+00  0.10020707916E+04  0.10020707916E+04  0.00000000000E+00 0.  1.
          3   -1    0    0  502    0  0.00000000000E+00 -0.00000000000E+00 -0.21062884291E+03  0.21062884291E+03  0.00000000000E+00 0. -1.
    9000007    1    1    2  502    0 -0.99567849135E+02 -0.16479075170E+03  0.23958403595E+03  0.50445045219E+03  0.40000000000E+03 0.  1.
   -9000007    1    1    2    0  501  0.99567849135E+02  0.16479075170E+03  0.55185791278E+03  0.70824918237E+03  0.40000000000E+03 0.  1.
<mgrwt>
<rscale>  2 0.44392539E+03</rscale>
<asrwt>0</asrwt>
<pdfrwt beam="1">  1        3 0.32404438E-01 0.44392539E+03</pdfrwt>
<pdfrwt beam="2">  1       -3 0.15416474E+00 0.44392539E+03</pdfrwt>
<totfact> 0.73720270E+00</totfact>
</mgrwt>
</event>
<event>
 4    1  0.2338029E-002  0.4312017E+03  0.7818608E-02  0.1033481E+00
         -2   -1    0    0    0  501 -0.00000000000E+00  0.00000000000E+00  0.32127660460E+03  0.32127660460E+03  0.00000000000E+00 0. -1.
          2   -1    0    0  502    0  0.00000000000E+00 -0.00000000000E+00 -0.59039177093E+03  0.59039177093E+03  0.00000000000E+00 0.  1.
    9000007    1    1    2  502    0  0.95426515935E+02  0.12972550863E+03 -0.19860078029E+03  0.47473908357E+03  0.40000000000E+03 0. -1.
   -9000007    1    1    2    0  501 -0.95426515935E+02 -0.12972550863E+03 -0.70514386047E+02  0.43692929196E+03  0.40000000000E+03 0. -1.
<mgrwt>
<rscale>  2 0.43120172E+03</rscale>
<asrwt>0</asrwt>
<pdfrwt beam="1">  1        2 0.90829503E-01 0.43120172E+03</pdfrwt>
<pdfrwt beam="2">  1       -2 0.49427170E-01 0.43120172E+03</pdfrwt>
<totfact> 0.20131471E+02</totfact>
</mgrwt>
</event>
<event>
 4    1  0.2338029E-002  0.4017146E+03  0.7818608E-02  0.1043188E+00
         -2   -1    0    0    0  501 -0.00000000000E+00  0.00000000000E+00  0.75275965997E+03  0.75275965997E+03  0.00000000000E+00 0. -1.
          2   -1    0    0  502    0  0.00000000000E+00 -0.00000000000E+00 -0.26185007027E+03  0.26185007027E+03  0.00000000000E+00 0.  1.
    9000007    1    1    2  502    0 -0.34464924309E+02 -0.13667111785E+02  0.29449329455E+02  0.40279260663E+03  0.40000000000E+03 0.  1.
   -9000007    1    1    2    0  501  0.34464924309E+02  0.13667111785E+02  0.46146026025E+03  0.61181712361E+03  0.40000000000E+03 0. -1.
<mgrwt>
<rscale>  2 0.40171460E+03</rscale>
<asrwt>0</asrwt>
<pdfrwt beam="1">  1        2 0.40284626E-01 0.40171460E+03</pdfrwt>
<pdfrwt beam="2">  1       -2 0.11580918E+00 0.40171460E+03</pdfrwt>
<totfact> 0.76429431E+01</totfact>
</mgrwt>
</event>
<event>
 4    1  0.2338029E-002  0.4293812E+03  0.7818608E-02  0.1034056E+00
          2   -1    0    0  502    0  0.00000000000E+00  0.00000000000E+00  0.22501962317E+03  0.22501962317E+03  0.00000000000E+00 0. -1.
         -2   -1    0    0    0  501 -0.00000000000E+00 -0.00000000000E+00 -0.11158107951E+04  0.11158107951E+04  0.00000000000E+00 0.  1.
    9000007    1    1    2  502    0  0.81631413795E+02 -0.13305833683E+03 -0.99824430572E+02  0.44083231013E+03  0.40000000000E+03 0. -1.
   -9000007    1    1    2    0  501 -0.81631413795E+02  0.13305833683E+03 -0.79096674135E+03  0.89999810813E+03  0.40000000000E+03 0.  1.
<mgrwt>
<rscale>  2 0.42938119E+03</rscale>
<asrwt>0</asrwt>
<pdfrwt beam="1">  1        2 0.34618405E-01 0.42938119E+03</pdfrwt>
<pdfrwt beam="2">  1       -2 0.17166319E+00 0.42938119E+03</pdfrwt>
<totfact> 0.32709559E+01</totfact>
</mgrwt>
</event>
<event>
 4    1  0.2338029E-002  0.4001845E+03  0.7818608E-02  0.1043716E+00
         -2   -1    0    0    0  501 -0.00000000000E+00  0.00000000000E+00  0.21888103185E+03  0.21888103185E+03  0.00000000000E+00 0. -1.
          2   -1    0    0  502    0  0.00000000000E+00 -0.00000000000E+00 -0.74422003673E+03  0.74422003673E+03  0.00000000000E+00 0.  1.
    9000007    1    1    2  502    0  0.99663105135E+01  0.69476245478E+01 -0.32521551922E+03  0.51566726750E+03  0.40000000000E+03 0.  1.
   -9000007    1    1    2    0  501 -0.99663105135E+01 -0.69476245478E+01 -0.20012348566E+03  0.44743380108E+03  0.40000000000E+03 0. -1.
<mgrwt>
<rscale>  2 0.40018445E+03</rscale>
<asrwt>0</asrwt>
<pdfrwt beam="1">  1        2 0.11449539E+00 0.40018445E+03</pdfrwt>
<pdfrwt beam="2">  1       -2 0.33674005E-01 0.40018445E+03</pdfrwt>
<totfact> 0.32031006E+02</totfact>
</mgrwt>
</event>
<event>
 4    1  0.2338029E-002  0.4328086E+03  0.7818608E-02  0.1032976E+00
         -2   -1    0    0    0  501 -0.00000000000E+00  0.00000000000E+00  0.18149513867E+03  0.18149513867E+03  0.00000000000E+00 0. -1.
          2   -1    0    0  502    0  0.00000000000E+00 -0.00000000000E+00 -0.10577019539E+04  0.10577019539E+04  0.00000000000E+00 0.  1.
    9000007    1    1    2  502    0 -0.15201931679E+03  0.64910904506E+02 -0.34172847967E+03  0.55145412503E+03  0.40000000000E+03 0.  1.
   -9000007    1    1    2    0  501  0.15201931679E+03 -0.64910904506E+02 -0.53447833552E+03  0.68774296750E+03  0.40000000000E+03 0.  1.
<mgrwt>
<rscale>  2 0.43280862E+03</rscale>
<asrwt>0</asrwt>
<pdfrwt beam="1">  1        2 0.16272338E+00 0.43280862E+03</pdfrwt>
<pdfrwt beam="2">  1       -2 0.27922329E-01 0.43280862E+03</pdfrwt>
<totfact> 0.27952792E+02</totfact>
</mgrwt>
</event>
<event>
 4    1  0.2338029E-002  0.4040168E+03  0.7818608E-02  0.1042398E+00
         -2   -1    0    0    0  501 -0.00000000000E+00  0.00000000000E+00  0.77066271777E+02  0.77066271777E+02  0.00000000000E+00 0. -1.
          2   -1    0    0  502    0  0.00000000000E+00 -0.00000000000E+00 -0.21429109076E+04  0.21429109076E+04  0.00000000000E+00 0.  1.
    9000007    1    1    2  502    0  0.48197275373E+02  0.30109929752E+02 -0.91334562685E+03  0.99871408287E+03  0.40000000000E+03 0. -1.
   -9000007    1    1    2    0  501 -0.48197275373E+02 -0.30109929752E+02 -0.11524990090E+04  0.12212630965E+04  0.40000000000E+03 0.  1.
<mgrwt>
<rscale>  2 0.40401681E+03</rscale>
<asrwt>0</asrwt>
<pdfrwt beam="1">  1        2 0.32967863E+00 0.40401681E+03</pdfrwt>
<pdfrwt beam="2">  1       -2 0.11856349E-01 0.40401681E+03</pdfrwt>
<totfact> 0.30812297E+02</totfact>
</mgrwt>
</event>
<event>
 4    1  0.2338029E-002  0.5071338E+03  0.7818608E-02  0.1011933E+00
         -2   -1    0    0    0  501 -0.00000000000E+00  0.00000000000E+00  0.13320211926E+03  0.13320211926E+03  0.00000000000E+00 0. -1.
          2   -1    0    0  502    0  0.00000000000E+00 -0.00000000000E+00 -0.19334836269E+04  0.19334836269E+04  0.00000000000E+00 0.  1.
    9000007    1    1    2  502    0  0.31169989652E+03  0.52784555501E+01 -0.86153738304E+03  0.99971563455E+03  0.40000000000E+03 0. -1.
   -9000007    1    1    2    0  501 -0.31169989652E+03 -0.52784555501E+01 -0.93874412460E+03  0.10669701116E+04  0.40000000000E+03 0. -1.
<mgrwt>
<rscale>  2 0.50713380E+03</rscale>
<asrwt>0</asrwt>
<pdfrwt beam="1">  1        2 0.29745902E+00 0.50713380E+03</pdfrwt>
<pdfrwt beam="2">  1       -2 0.20492633E-01 0.50713380E+03</pdfrwt>
<totfact> 0.15644681E+02</totfact>
</mgrwt>
</event>
<event>
 4    1  0.2338029E-002  0.6375661E+03  0.7818608E-02  0.9830394E-01
          1   -1    0    0  502    0  0.00000000000E+00  0.00000000000E+00  0.15035622366E+04  0.15035622366E+04  0.00000000000E+00 0. -1.
         -1   -1    0    0    0  501 -0.00000000000E+00 -0.00000000000E+00 -0.52593902339E+03  0.52593902339E+03  0.00000000000E+00 0.  1.
    9000007    1    1    2  502    0 -0.82626726985E+02 -0.48955418327E+03 -0.21858237657E+03  0.67399460659E+03  0.40000000000E+03 0.  1.
   -9000007    1    1    2    0  501  0.82626726985E+02  0.48955418327E+03  0.11962055898E+04  0.13555066534E+04  0.40000000000E+03 0. -1.
<mgrwt>
<rscale>  2 0.63756605E+03</rscale>
<asrwt>0</asrwt>
<pdfrwt beam="1">  1        1 0.23131726E+00 0.63756605E+03</pdfrwt>
<pdfrwt beam="2">  1       -1 0.80913697E-01 0.63756605E+03</pdfrwt>
<totfact> 0.10471833E+01</totfact>
</mgrwt>
</event>
<event>
 4    1  0.2338029E-002  0.5367496E+03  0.7818608E-02  0.1004608E+00
         -2   -1    0    0    0  501 -0.00000000000E+00  0.00000000000E+00  0.70280074118E+03  0.70280074118E+03  0.00000000000E+00 0. -1.
          2   -1    0    0  502    0  0.00000000000E+00 -0.00000000000E+00 -0.45248624432E+03  0.45248624432E+03  0.00000000000E+00 0.  1.
    9000007    1    1    2  502    0  0.35755431581E+03  0.15969286497E+02 -0.51988848547E+02  0.53926148318E+03  0.40000000000E+03 0. -1.
   -9000007    1    1    2    0  501 -0.35755431581E+03 -0.15969286497E+02  0.30230334541E+03  0.61602550232E+03  0.40000000000E+03 0. -1.
<mgrwt>
<rscale>  2 0.53674958E+03</rscale>
<asrwt>0</asrwt>
<pdfrwt beam="1">  1        2 0.69613268E-01 0.53674958E+03</pdfrwt>
<pdfrwt beam="2">  1       -2 0.10812319E+00 0.53674958E+03</pdfrwt>
<totfact> 0.48673332E+01</totfact>
</mgrwt>
</event>
<event>
 4    1  0.2338029E-002  0.4047368E+03  0.7818608E-02  0.1042152E+00
         -2   -1    0    0    0  501 -0.00000000000E+00  0.00000000000E+00  0.71128010280E+02  0.71128010280E+02  0.00000000000E+00 0.  1.
          2   -1    0    0  502    0  0.00000000000E+00 -0.00000000000E+00 -0.23035739962E+04  0.23035739962E+04  0.00000000000E+00 0. -1.
    9000007    1    1    2  502    0 -0.45782336755E+02  0.41422810192E+02 -0.11340084522E+04  0.12040710283E+04  0.40000000000E+03 0.  1.
   -9000007    1    1    2    0  501  0.45782336755E+02 -0.41422810192E+02 -0.10984375337E+04  0.11706309782E+04  0.40000000000E+03 0. -1.
<mgrwt>
<rscale>  2 0.40473679E+03</rscale>
<asrwt>0</asrwt>
<pdfrwt beam="1">  1        2 0.35439596E+00 0.40473679E+03</pdfrwt>
<pdfrwt beam="2">  1       -2 0.10942772E-01 0.40473679E+03</pdfrwt>
<totfact> 0.28736312E+02</totfact>
</mgrwt>
</event>
<event>
 4    1  0.2338029E-002  0.4168821E+03  0.7818608E-02  0.1038086E+00
          2   -1    0    0  502    0  0.00000000000E+00  0.00000000000E+00  0.23471352565E+04  0.23471352565E+04  0.00000000000E+00 0.  1.
         -2   -1    0    0    0  501 -0.00000000000E+00 -0.00000000000E+00 -0.80664748452E+02  0.80664748452E+02  0.00000000000E+00 0. -1.
    9000007    1    1    2  502    0  0.13833582682E+02 -0.11661625674E+03  0.78545698675E+03  0.88923191428E+03  0.40000000000E+03 0. -1.
   -9000007    1    1    2    0  501 -0.13833582682E+02  0.11661625674E+03  0.14810135213E+04  0.15385680906E+04  0.40000000000E+03 0.  1.
<mgrwt>
<rscale>  2 0.41688214E+03</rscale>
<asrwt>0</asrwt>
<pdfrwt beam="1">  1        2 0.36109768E+00 0.41688214E+03</pdfrwt>
<pdfrwt beam="2">  1       -2 0.12409963E-01 0.41688214E+03</pdfrwt>
<totfact> 0.22111964E+02</totfact>
</mgrwt>
</event>
<event>
 4    1  0.2338029E-002  0.5528975E+03  0.7818608E-02  0.1000825E+00
          1   -1    0    0  502    0  0.00000000000E+00  0.00000000000E+00  0.51250983390E+03  0.51250983390E+03  0.00000000000E+00 0. -1.
         -1   -1    0    0    0  501 -0.00000000000E+00 -0.00000000000E+00 -0.63817606475E+03  0.63817606475E+03  0.00000000000E+00 0.  1.
    9000007    1    1    2  502    0  0.37337250841E+03  0.79300825083E+02  0.84251488845E+02  0.55927986221E+03  0.40000000000E+03 0.  1.
   -9000007    1    1    2    0  501 -0.37337250841E+03 -0.79300825083E+02 -0.20991771970E+03  0.59140603644E+03  0.40000000000E+03 0.  1.
<mgrwt>
<rscale>  2 0.55289750E+03</rscale>
<asrwt>0</asrwt>
<pdfrwt beam="1">  1        1 0.78847667E-01 0.55289750E+03</pdfrwt>
<pdfrwt beam="2">  1       -1 0.98180933E-01 0.55289750E+03</pdfrwt>
<totfact> 0.44390334E+01</totfact>
</mgrwt>
</event>
<event>
 4    1  0.2338029E-002  0.4805714E+03  0.7818608E-02  0.1018978E+00
         -1   -1    0    0    0  501 -0.00000000000E+00  0.00000000000E+00  0.83066189203E+02  0.83066189203E+02  0.00000000000E+00 0.  1.
          1   -1    0    0  502    0  0.00000000000E+00 -0.00000000000E+00 -0.28691237225E+04  0.28691237225E+04  0.00000000000E+00 0. -1.
    9000007    1    1    2  502    0 -0.51974703553E+02  0.26124221583E+03 -0.16527490867E+04  0.17211997004E+04  0.40000000000E+03 0.  1.
   -9000007    1    1    2    0  501  0.51974703553E+02 -0.26124221583E+03 -0.11333084466E+04  0.12309902113E+04  0.40000000000E+03 0.  1.
<mgrwt>
<rscale>  2 0.48057139E+03</rscale>
<asrwt>0</asrwt>
<pdfrwt beam="1">  1        1 0.44140366E+00 0.48057139E+03</pdfrwt>
<pdfrwt beam="2">  1       -1 0.12779413E-01 0.48057139E+03</pdfrwt>
<totfact> 0.34983347E+01</totfact>
</mgrwt>
</event>
<event>
 4    1  0.2338029E-002  0.4173223E+03  0.7818608E-02  0.1037941E+00
          2   -1    0    0  502    0  0.00000000000E+00  0.00000000000E+00  0.17504849602E+04  0.17504849602E+04  0.00000000000E+00 0.  1.
         -2   -1    0    0    0  501 -0.00000000000E+00 -0.00000000000E+00 -0.15071864464E+03  0.15071864464E+03  0.00000000000E+00 0. -1.
    9000007    1    1    2  502    0 -0.23830981270E+02  0.11657597831E+03  0.24568327585E+03  0.48427073670E+03  0.40000000000E+03 0. -1.
   -9000007    1    1    2    0  501  0.23830981270E+02 -0.11657597831E+03  0.13540830397E+04  0.14169328681E+04  0.40000000000E+03 0.  1.
<mgrwt>
<rscale>  2 0.41732227E+03</rscale>
<asrwt>0</asrwt>
<pdfrwt beam="1">  1        2 0.26930536E+00 0.41732227E+03</pdfrwt>
<pdfrwt beam="2">  1       -2 0.23187485E-01 0.41732227E+03</pdfrwt>
<totfact> 0.15997683E+02</totfact>
</mgrwt>
</event>
<event>
 4    1  0.2338029E-002  0.4701450E+03  0.7818608E-02  0.1021879E+00
          2   -1    0    0  502    0  0.00000000000E+00  0.00000000000E+00  0.39258977538E+03  0.39258977538E+03  0.00000000000E+00 0. -1.
         -2   -1    0    0    0  501 -0.00000000000E+00 -0.00000000000E+00 -0.56555272990E+03  0.56555272990E+03  0.00000000000E+00 0.  1.
    9000007    1    1    2  502    0  0.30969916167E+02  0.24510650805E+03 -0.11853396498E+03  0.48485733659E+03  0.40000000000E+03 0.  1.
   -9000007    1    1    2    0  501 -0.30969916167E+02 -0.24510650805E+03 -0.54428989546E+02  0.47328516869E+03  0.40000000000E+03 0. -1.
<mgrwt>
<rscale>  2 0.47014502E+03</rscale>
<asrwt>0</asrwt>
<pdfrwt beam="1">  1        2 0.60398427E-01 0.47014502E+03</pdfrwt>
<pdfrwt beam="2">  1       -2 0.87008112E-01 0.47014502E+03</pdfrwt>
<totfact> 0.95357119E+01</totfact>
</mgrwt>
</event>
<event>
 4    1  0.2338029E-002  0.4708365E+03  0.7818608E-02  0.1021684E+00
         -1   -1    0    0    0  501 -0.00000000000E+00  0.00000000000E+00  0.14247836801E+03  0.14247836801E+03  0.00000000000E+00 0.  1.
          1   -1    0    0  502    0  0.00000000000E+00 -0.00000000000E+00 -0.15582164009E+04  0.15582164009E+04  0.00000000000E+00 0. -1.
    9000007    1    1    2  502    0 -0.12513726894E+03 -0.21454053212E+03 -0.67532640198E+03  0.82325738697E+03  0.40000000000E+03 0. -1.
   -9000007    1    1    2    0  501  0.12513726894E+03  0.21454053212E+03 -0.74041163087E+03  0.87743738188E+03  0.40000000000E+03 0. -1.
<mgrwt>
<rscale>  2 0.47083646E+03</rscale>
<asrwt>0</asrwt>
<pdfrwt beam="1">  1        1 0.23972559E+00 0.47083646E+03</pdfrwt>
<pdfrwt beam="2">  1       -1 0.21919749E-01 0.47083646E+03</pdfrwt>
<totfact> 0.11030454E+02</totfact>
</mgrwt>
</event>
<event>
 4    1  0.2338029E-002  0.4069856E+03  0.7818608E-02  0.1041387E+00
         -2   -1    0    0    0  501 -0.00000000000E+00  0.00000000000E+00  0.80869767466E+02  0.80869767466E+02  0.00000000000E+00 0. -1.
          2   -1    0    0  502    0  0.00000000000E+00 -0.00000000000E+00 -0.26023176491E+04  0.26023176491E+04  0.00000000000E+00 0.  1.
    9000007    1    1    2  502    0 -0.46767727186E+02 -0.58737168539E+02 -0.64164969831E+03  0.75983656836E+03  0.40000000000E+03 0. -1.
   -9000007    1    1    2    0  501  0.46767727186E+02  0.58737168539E+02 -0.18797981833E+04  0.19233508482E+04  0.40000000000E+03 0.  1.
<mgrwt>
<rscale>  2 0.40698560E+03</rscale>
<asrwt>0</asrwt>
<pdfrwt beam="1">  1        2 0.40035654E+00 0.40698560E+03</pdfrwt>
<pdfrwt beam="2">  1       -2 0.12441503E-01 0.40698560E+03</pdfrwt>
<totfact> 0.15923939E+02</totfact>
</mgrwt>
</event>
<event>
 4    1  0.2338029E-002  0.4265446E+03  0.7818608E-02  0.1034957E+00
          1   -1    0    0  502    0  0.00000000000E+00  0.00000000000E+00  0.49450255969E+03  0.49450255969E+03  0.00000000000E+00 0. -1.
         -1   -1    0    0    0  501 -0.00000000000E+00 -0.00000000000E+00 -0.38120101229E+03  0.38120101229E+03  0.00000000000E+00 0.  1.
    9000007    1    1    2  502    0  0.49540766465E+02  0.13959233612E+03  0.13835959070E+03  0.44842355445E+03  0.40000000000E+03 0. -1.
   -9000007    1    1    2    0  501 -0.49540766465E+02 -0.13959233612E+03 -0.25058043298E+02  0.42728001753E+03  0.40000000000E+03 0.  1.
<mgrwt>
<rscale>  2 0.42654461E+03</rscale>
<asrwt>0</asrwt>
<pdfrwt beam="1">  1        1 0.76077317E-01 0.42654461E+03</pdfrwt>
<pdfrwt beam="2">  1       -1 0.58646310E-01 0.42654461E+03</pdfrwt>
<totfact> 0.13809683E+02</totfact>
</mgrwt>
</event>
<event>
 4    1  0.2338029E-002  0.4159834E+03  0.7818608E-02  0.1038382E+00
         -1   -1    0    0    0  501 -0.00000000000E+00  0.00000000000E+00  0.80698751638E+03  0.80698751638E+03  0.00000000000E+00 0. -1.
          1   -1    0    0  502    0  0.00000000000E+00 -0.00000000000E+00 -0.37207729603E+03  0.37207729603E+03  0.00000000000E+00 0.  1.
    9000007    1    1    2  502    0 -0.94488781787E+02  0.64141039224E+02  0.60119291188E+03  0.73107805335E+03  0.40000000000E+03 0.  1.
   -9000007    1    1    2    0  501  0.94488781787E+02 -0.64141039224E+02 -0.16628269153E+03  0.44798675907E+03  0.40000000000E+03 0.  1.
<mgrwt>
<rscale>  2 0.41598342E+03</rscale>
<asrwt>0</asrwt>
<pdfrwt beam="1">  1        1 0.57242661E-01 0.41598342E+03</pdfrwt>
<pdfrwt beam="2">  1       -1 0.12415193E+00 0.41598342E+03</pdfrwt>
<totfact> 0.39926204E+01</totfact>
</mgrwt>
</event>
<event>
 4    1  0.2338029E-002  0.4924210E+03  0.7818608E-02  0.1015776E+00
         -1   -1    0    0    0  501 -0.00000000000E+00  0.00000000000E+00  0.57076287065E+03  0.57076287065E+03  0.00000000000E+00 0.  1.
          1   -1    0    0  502    0  0.00000000000E+00 -0.00000000000E+00 -0.43779013456E+03  0.43779013456E+03  0.00000000000E+00 0. -1.
    9000007    1    1    2  502    0  0.18093531263E+03 -0.22302653494E+03  0.15324332773E+03  0.51571497955E+03  0.40000000000E+03 0.  1.
   -9000007    1    1    2    0  501 -0.18093531263E+03  0.22302653494E+03 -0.20270591638E+02  0.49283802565E+03  0.40000000000E+03 0. -1.
<mgrwt>
<rscale>  2 0.49242098E+03</rscale>
<asrwt>0</asrwt>
<pdfrwt beam="1">  1        1 0.67352328E-01 0.49242098E+03</pdfrwt>
<pdfrwt beam="2">  1       -1 0.87809673E-01 0.49242098E+03</pdfrwt>
<totfact> 0.70723610E+01</totfact>
</mgrwt>
</event>
<event>
 4    1  0.2338029E-002  0.4014433E+03  0.7818608E-02  0.1043281E+00
          2   -1    0    0  502    0  0.00000000000E+00  0.00000000000E+00  0.14181321685E+04  0.14181321685E+04  0.00000000000E+00 0.  1.
         -2   -1    0    0    0  501 -0.00000000000E+00 -0.00000000000E+00 -0.11864585456E+03  0.11864585456E+03  0.00000000000E+00 0. -1.
    9000007    1    1    2  502    0  0.20632763537E+02  0.27037350261E+02  0.80757265477E+03  0.90184828101E+03  0.40000000000E+03 0.  1.
   -9000007    1    1    2    0  501 -0.20632763537E+02 -0.27037350261E+02  0.49191365916E+03  0.63492974203E+03  0.40000000000E+03 0. -1.
<mgrwt>
<rscale>  2 0.40144331E+03</rscale>
<asrwt>0</asrwt>
<pdfrwt beam="1">  1        2 0.21817417E+00 0.40144331E+03</pdfrwt>
<pdfrwt beam="2">  1       -2 0.18253209E-01 0.40144331E+03</pdfrwt>
<totfact> 0.36763980E+02</totfact>
</mgrwt>
</event>
<event>
 4    1  0.2338029E-002  0.4119411E+03  0.7818608E-02  0.1039722E+00
         -2   -1    0    0    0  501 -0.00000000000E+00  0.00000000000E+00  0.56956744365E+02  0.56956744365E+02  0.00000000000E+00 0.  1.
          2   -1    0    0  502    0  0.00000000000E+00 -0.00000000000E+00 -0.30626404507E+04  0.30626404507E+04  0.00000000000E+00 0. -1.
    9000007    1    1    2  502    0 -0.81447327664E+02 -0.55333547107E+02 -0.12456516717E+04  0.13119998307E+04  0.40000000000E+03 0.  1.
   -9000007    1    1    2    0  501  0.81447327664E+02  0.55333547107E+02 -0.17600320347E+04  0.18075973644E+04  0.40000000000E+03 0. -1.
<mgrwt>
<rscale>  2 0.41194110E+03</rscale>
<asrwt>0</asrwt>
<pdfrwt beam="1">  1        2 0.47117556E+00 0.41194110E+03</pdfrwt>
<pdfrwt beam="2">  1       -2 0.87625741E-02 0.41194110E+03</pdfrwt>
<totfact> 0.15093520E+02</totfact>
</mgrwt>
</event>
<event>
 4    1  0.2338029E-002  0.4369546E+03  0.7818608E-02  0.1031685E+00
          3   -1    0    0  502    0  0.00000000000E+00  0.00000000000E+00  0.19415255793E+03  0.19415255793E+03  0.00000000000E+00 0.  1.
         -3   -1    0    0    0  501 -0.00000000000E+00 -0.00000000000E+00 -0.99884010539E+03  0.99884010539E+03  0.00000000000E+00 0. -1.
    9000007    1    1    2  502    0  0.40193741252E+02 -0.17121258045E+03 -0.32817696102E+03  0.54646994637E+03  0.40000000000E+03 0. -1.
   -9000007    1    1    2    0  501 -0.40193741252E+02  0.17121258045E+03 -0.47651058644E+03  0.64652271695E+03  0.40000000000E+03 0.  1.
<mgrwt>
<rscale>  2 0.43695456E+03</rscale>
<asrwt>0</asrwt>
<pdfrwt beam="1">  1        3 0.29869624E-01 0.43695456E+03</pdfrwt>
<pdfrwt beam="2">  1       -3 0.15366771E+00 0.43695456E+03</pdfrwt>
<totfact> 0.86776473E+00</totfact>
</mgrwt>
</event>
<event>
 4    1  0.2338029E-002  0.4110027E+03  0.7818608E-02  0.1040035E+00
         -2   -1    0    0    0  501 -0.00000000000E+00  0.00000000000E+00  0.83342781293E+02  0.83342781293E+02  0.00000000000E+00 0. -1.
          2   -1    0    0  502    0  0.00000000000E+00 -0.00000000000E+00 -0.20372716440E+04  0.20372716440E+04  0.00000000000E+00 0.  1.
    9000007    1    1    2  502    0 -0.50119504702E+02  0.80070380820E+02 -0.90112470308E+03  0.99042867544E+03  0.40000000000E+03 0. -1.
   -9000007    1    1    2    0  501  0.50119504702E+02 -0.80070380820E+02 -0.10528041596E+04  0.11301857498E+04  0.40000000000E+03 0. -1.
<mgrwt>
<rscale>  2 0.41100271E+03</rscale>
<asrwt>0</asrwt>
<pdfrwt beam="1">  1        2 0.31342641E+00 0.41100271E+03</pdfrwt>
<pdfrwt beam="2">  1       -2 0.12821966E-01 0.41100271E+03</pdfrwt>
<totfact> 0.30846367E+02</totfact>
</mgrwt>
</event>
<event>
 4    1  0.2338029E-002  0.4221580E+03  0.7818608E-02  0.1036366E+00
          2   -1    0    0  502    0  0.00000000000E+00  0.00000000000E+00  0.53568286629E+03  0.53568286629E+03  0.00000000000E+00 0.  1.
         -2   -1    0    0    0  501 -0.00000000000E+00 -0.00000000000E+00 -0.33341816469E+03  0.33341816469E+03  0.00000000000E+00 0. -1.
    9000007    1    1    2  502    0  0.13317154761E+03 -0.21971633323E+02  0.80852822873E+02  0.42983088852E+03  0.40000000000E+03 0.  1.
   -9000007    1    1    2    0  501 -0.13317154761E+03  0.21971633323E+02  0.12141187872E+03  0.43927014246E+03  0.40000000000E+03 0.  1.
<mgrwt>
<rscale>  2 0.42215804E+03</rscale>
<asrwt>0</asrwt>
<pdfrwt beam="1">  1        2 0.82412748E-01 0.42215804E+03</pdfrwt>
<pdfrwt beam="2">  1       -2 0.51295103E-01 0.42215804E+03</pdfrwt>
<totfact> 0.20938335E+02</totfact>
</mgrwt>
</event>
<event>
 4    1  0.2338029E-002  0.4906466E+03  0.7818608E-02  0.1016250E+00
         -3   -1    0    0    0  501 -0.00000000000E+00  0.00000000000E+00  0.45037223522E+03  0.45037223522E+03  0.00000000000E+00 0. -1.
          3   -1    0    0  502    0  0.00000000000E+00 -0.00000000000E+00 -0.58617556893E+03  0.58617556893E+03  0.00000000000E+00 0.  1.
    9000007    1    1    2  502    0 -0.23356043881E+03 -0.16181341427E+03  0.85947043810E+02  0.49811740981E+03  0.40000000000E+03 0. -1.
   -9000007    1    1    2    0  501  0.23356043881E+03  0.16181341427E+03 -0.22175037752E+03  0.53843039434E+03  0.40000000000E+03 0. -1.
<mgrwt>
<rscale>  2 0.49064657E+03</rscale>
<asrwt>0</asrwt>
<pdfrwt beam="1">  1        3 0.90180857E-01 0.49064657E+03</pdfrwt>
<pdfrwt beam="2">  1       -3 0.69288036E-01 0.49064657E+03</pdfrwt>
<totfact> 0.57865231E+00</totfact>
</mgrwt>
</event>
<event>
 4    1  0.2338029E-002  0.5146827E+03  0.7818608E-02  0.1010016E+00
          2   -1    0    0  502    0  0.00000000000E+00  0.00000000000E+00  0.15140043149E+04  0.15140043149E+04  0.00000000000E+00 0. -1.
         -2   -1    0    0    0  501 -0.00000000000E+00 -0.00000000000E+00 -0.21531675015E+03  0.21531675015E+03  0.00000000000E+00 0.  1.
    9000007    1    1    2  502    0 -0.30817967613E+03  0.99617291564E+02  0.27502988505E+03  0.58355784223E+03  0.40000000000E+03 0. -1.
   -9000007    1    1    2    0  501  0.30817967613E+03 -0.99617291564E+02  0.10236576797E+04  0.11457632228E+04  0.40000000000E+03 0.  1.
<mgrwt>
<rscale>  2 0.51468273E+03</rscale>
<asrwt>0</asrwt>
<pdfrwt beam="1">  1        2 0.23292373E+00 0.51468273E+03</pdfrwt>
<pdfrwt beam="2">  1       -2 0.33125655E-01 0.51468273E+03</pdfrwt>
<totfact> 0.11070537E+02</totfact>
</mgrwt>
</event>
<event>
 4    1  0.2338029E-002  0.4215058E+03  0.7818608E-02  0.1036577E+00
         -4   -1    0    0    0  501 -0.00000000000E+00  0.00000000000E+00  0.11121837799E+03  0.11121837799E+03  0.00000000000E+00 0. -1.
          4   -1    0    0  502    0  0.00000000000E+00 -0.00000000000E+00 -0.16790985896E+04  0.16790985896E+04  0.00000000000E+00 0.  1.
    9000007    1    1    2  502    0  0.11932971924E+03 -0.58545255776E+02 -0.58655955882E+03  0.72230135325E+03  0.40000000000E+03 0. -1.
   -9000007    1    1    2    0  501 -0.11932971924E+03  0.58545255776E+02 -0.98132065278E+03  0.10680156143E+04  0.40000000000E+03 0.  1.
<mgrwt>
<rscale>  2 0.42150579E+03</rscale>
<asrwt>0</asrwt>
<pdfrwt beam="1">  1        4 0.25832282E+00 0.42150579E+03</pdfrwt>
<pdfrwt beam="2">  1       -4 0.17110522E-01 0.42150579E+03</pdfrwt>
<totfact> 0.34880984E+00</totfact>
</mgrwt>
</event>
<event>
 4    1  0.2338029E-002  0.5052901E+03  0.7818608E-02  0.1012407E+00
         -2   -1    0    0    0  501 -0.00000000000E+00  0.00000000000E+00  0.18229562547E+03  0.18229562547E+03  0.00000000000E+00 0.  1.
          2   -1    0    0  502    0  0.00000000000E+00 -0.00000000000E+00 -0.14814890286E+04  0.14814890286E+04  0.00000000000E+00 0. -1.
    9000007    1    1    2  502    0 -0.32767239168E+02 -0.30699249351E+03 -0.84401575730E+03  0.98370761997E+03  0.40000000000E+03 0. -1.
   -9000007    1    1    2    0  501  0.32767239168E+02  0.30699249351E+03 -0.45517764582E+03  0.68007703408E+03  0.40000000000E+03 0.  1.
<mgrwt>
<rscale>  2 0.50529010E+03</rscale>
<asrwt>0</asrwt>
<pdfrwt beam="1">  1        2 0.22792139E+00 0.50529010E+03</pdfrwt>
<pdfrwt beam="2">  1       -2 0.28045481E-01 0.50529010E+03</pdfrwt>
<totfact> 0.15712726E+02</totfact>
</mgrwt>
</event>
<event>
 4    1  0.2338029E-002  0.4483508E+03  0.7818608E-02  0.1028215E+00
          2   -1    0    0  502    0  0.00000000000E+00  0.00000000000E+00  0.24416618448E+04  0.24416618448E+04  0.00000000000E+00 0.  1.
         -2   -1    0    0    0  501 -0.00000000000E+00 -0.00000000000E+00 -0.11068642647E+03  0.11068642647E+03  0.00000000000E+00 0. -1.
    9000007    1    1    2  502    0  0.92366689808E+02 -0.18024110458E+03  0.51953657483E+03  0.68624828871E+03  0.40000000000E+03 0. -1.
   -9000007    1    1    2    0  501 -0.92366689808E+02  0.18024110458E+03  0.18114388435E+04  0.18660999826E+04  0.40000000000E+03 0.  1.
<mgrwt>
<rscale>  2 0.44835082E+03</rscale>
<asrwt>0</asrwt>
<pdfrwt beam="1">  1        2 0.37564024E+00 0.44835082E+03</pdfrwt>
<pdfrwt beam="2">  1       -2 0.17028683E-01 0.44835082E+03</pdfrwt>
<totfact> 0.11499528E+02</totfact>
</mgrwt>
</event>
<event>
 4    1  0.2338029E-002  0.4495842E+03  0.7818608E-02  0.1027846E+00
         -1   -1    0    0    0  501 -0.00000000000E+00  0.00000000000E+00  0.93311886889E+03  0.93311886889E+03  0.00000000000E+00 0. -1.
          1   -1    0    0  502    0  0.00000000000E+00 -0.00000000000E+00 -0.26177344542E+03  0.26177344542E+03  0.00000000000E+00 0.  1.
    9000007    1    1    2  502    0 -0.67474813001E+02  0.19383785537E+03  0.58382232737E+03  0.73686801701E+03  0.40000000000E+03 0. -1.
   -9000007    1    1    2    0  501  0.67474813001E+02 -0.19383785537E+03  0.87523096100E+02  0.45802429730E+03  0.40000000000E+03 0.  1.
<mgrwt>
<rscale>  2 0.44958421E+03</rscale>
<asrwt>0</asrwt>
<pdfrwt beam="1">  1        1 0.40272838E-01 0.44958421E+03</pdfrwt>
<pdfrwt beam="2">  1       -1 0.14355675E+00 0.44958421E+03</pdfrwt>
<totfact> 0.43273670E+01</totfact>
</mgrwt>
</event>
<event>
 4    1  0.2338029E-002  0.5610136E+03  0.7818608E-02  0.9989764E-01
         -2   -1    0    0    0  501 -0.00000000000E+00  0.00000000000E+00  0.31521640811E+03  0.31521640811E+03  0.00000000000E+00 0.  1.
          2   -1    0    0  502    0  0.00000000000E+00 -0.00000000000E+00 -0.10554232007E+04  0.10554232007E+04  0.00000000000E+00 0. -1.
    9000007    1    1    2  502    0 -0.39330049992E+03 -0.71401969078E+01 -0.21091435685E+03  0.59935059154E+03  0.40000000000E+03 0.  1.
   -9000007    1    1    2    0  501  0.39330049992E+03  0.71401969078E+01 -0.52929243575E+03  0.77128901729E+03  0.40000000000E+03 0. -1.
<mgrwt>
<rscale>  2 0.56101361E+03</rscale>
<asrwt>0</asrwt>
<pdfrwt beam="1">  1        2 0.16237280E+00 0.56101361E+03</pdfrwt>
<pdfrwt beam="2">  1       -2 0.48494832E-01 0.56101361E+03</pdfrwt>
<totfact> 0.96448363E+01</totfact>
</mgrwt>
</event>
<event>
 4    1  0.2338029E-002  0.4002145E+03  0.7818608E-02  0.1043705E+00
         -2   -1    0    0    0  501 -0.00000000000E+00  0.00000000000E+00  0.76314092191E+02  0.76314092191E+02  0.00000000000E+00 0.  1.
          2   -1    0    0  502    0  0.00000000000E+00 -0.00000000000E+00 -0.21498249657E+04  0.21498249657E+04  0.00000000000E+00 0. -1.
    9000007    1    1    2  502    0 -0.43186277754E+01  0.12368545373E+02 -0.12081552838E+04  0.12727178876E+04  0.40000000000E+03 0. -1.
   -9000007    1    1    2    0  501  0.43186277754E+01 -0.12368545373E+02 -0.86535558972E+03  0.95342117037E+03  0.40000000000E+03 0.  1.
<mgrwt>
<rscale>  2 0.40021448E+03</rscale>
<asrwt>0</asrwt>
<pdfrwt beam="1">  1        2 0.33074228E+00 0.40021448E+03</pdfrwt>
<pdfrwt beam="2">  1       -2 0.11740630E-01 0.40021448E+03</pdfrwt>
<totfact> 0.31060870E+02</totfact>
</mgrwt>
</event>
<event>
 4    1  0.2338029E-002  0.4682832E+03  0.7818608E-02  0.1022406E+00
          2   -1    0    0  502    0  0.00000000000E+00  0.00000000000E+00  0.44932435456E+04  0.44932435456E+04  0.00000000000E+00 0. -1.
         -2   -1    0    0    0  501 -0.00000000000E+00 -0.00000000000E+00 -0.50726046131E+02  0.50726046131E+02  0.00000000000E+00 0.  1.
    9000007    1    1    2  502    0  0.17666876335E+02 -0.24285179204E+03  0.17790265524E+04  0.18396262081E+04  0.40000000000E+03 0. -1.
   -9000007    1    1    2    0  501 -0.17666876335E+02  0.24285179204E+03  0.26634909472E+04  0.27043433837E+04  0.40000000000E+03 0. -1.
<mgrwt>
<rscale>  2 0.46828315E+03</rscale>
<asrwt>0</asrwt>
<pdfrwt beam="1">  1        2 0.69126792E+00 0.46828315E+03</pdfrwt>
<pdfrwt beam="2">  1       -2 0.78040106E-02 0.46828315E+03</pdfrwt>
<totfact> 0.15564494E+01</totfact>
</mgrwt>
</event>
<event>
 4    1  0.2338029E-002  0.4582279E+03  0.7818608E-02  0.1025296E+00
         -1   -1    0    0    0  501 -0.00000000000E+00  0.00000000000E+00  0.12133259298E+03  0.12133259298E+03  0.00000000000E+00 0.  1.
          1   -1    0    0  502    0  0.00000000000E+00 -0.00000000000E+00 -0.20118382547E+04  0.20118382547E+04  0.00000000000E+00 0. -1.
    9000007    1    1    2  502    0  0.20030111229E+03 -0.99258660772E+02 -0.54643876419E+03  0.71313963593E+03  0.40000000000E+03 0.  1.
   -9000007    1    1    2    0  501 -0.20030111229E+03  0.99258660772E+02 -0.13440668976E+04  0.14200312118E+04  0.40000000000E+03 0. -1.
<mgrwt>
<rscale>  2 0.45822791E+03</rscale>
<asrwt>0</asrwt>
<pdfrwt beam="1">  1        1 0.30951357E+00 0.45822791E+03</pdfrwt>
<pdfrwt beam="2">  1       -1 0.18666553E-01 0.45822791E+03</pdfrwt>
<totfact> 0.72130375E+01</totfact>
</mgrwt>
</event>
<event>
 4    1  0.2338029E-002  0.4015034E+03  0.7818608E-02  0.1043260E+00
         -2   -1    0    0    0  501 -0.00000000000E+00  0.00000000000E+00  0.34931643683E+03  0.34931643683E+03  0.00000000000E+00 0. -1.
          2   -1    0    0  502    0  0.00000000000E+00 -0.00000000000E+00 -0.65552032260E+03  0.65552032260E+03  0.00000000000E+00 0.  1.
    9000007    1    1    2  502    0  0.48481964730E+01 -0.34372580493E+02 -0.42644663644E+03  0.58571470276E+03  0.40000000000E+03 0.  1.
   -9000007    1    1    2    0  501 -0.48481964730E+01  0.34372580493E+02  0.12024275067E+03  0.41912205667E+03  0.40000000000E+03 0. -1.
<mgrwt>
<rscale>  2 0.40150340E+03</rscale>
<asrwt>0</asrwt>
<pdfrwt beam="1">  1        2 0.10084928E+00 0.40150340E+03</pdfrwt>
<pdfrwt beam="2">  1       -2 0.53740991E-01 0.40150340E+03</pdfrwt>
<totfact> 0.15024296E+02</totfact>
</mgrwt>
</event>
<event>
 4    1  0.2338029E-002  0.4908020E+03  0.7818608E-02  0.1016208E+00
         -2   -1    0    0    0  501 -0.00000000000E+00  0.00000000000E+00  0.86872669465E+03  0.86872669465E+03  0.00000000000E+00 0. -1.
          2   -1    0    0  502    0  0.00000000000E+00 -0.00000000000E+00 -0.11922963928E+04  0.11922963928E+04  0.00000000000E+00 0.  1.
    9000007    1    1    2  502    0  0.27912358857E+03 -0.54558826122E+02 -0.10645473595E+04  0.11722404718E+04  0.40000000000E+03 0.  1.
   -9000007    1    1    2    0  501 -0.27912358857E+03  0.54558826122E+02  0.74097766135E+03  0.88878261562E+03  0.40000000000E+03 0. -1.
<mgrwt>
<rscale>  2 0.49080204E+03</rscale>
<asrwt>0</asrwt>
<pdfrwt beam="1">  1        2 0.18343021E+00 0.49080204E+03</pdfrwt>
<pdfrwt beam="2">  1       -2 0.13365026E+00 0.49080204E+03</pdfrwt>
<totfact> 0.82436612E+00</totfact>
</mgrwt>
</event>
<event>
 4    1  0.2338029E-002  0.5663137E+03  0.7818608E-02  0.9977869E-01
         -2   -1    0    0    0  501 -0.00000000000E+00  0.00000000000E+00  0.30454753083E+03  0.30454753083E+03  0.00000000000E+00 0. -1.
          2   -1    0    0  502    0  0.00000000000E+00 -0.00000000000E+00 -0.11944056274E+04  0.11944056274E+04  0.00000000000E+00 0.  1.
    9000007    1    1    2  502    0  0.13175631310E+03  0.37861789494E+03 -0.18711827061E+03  0.59642642766E+03  0.40000000000E+03 0.  1.
   -9000007    1    1    2    0  501 -0.13175631310E+03 -0.37861789494E+03 -0.70273982600E+03  0.90252673061E+03  0.40000000000E+03 0.  1.
<mgrwt>
<rscale>  2 0.56631373E+03</rscale>
<asrwt>0</asrwt>
<pdfrwt beam="1">  1        2 0.18375471E+00 0.56631373E+03</pdfrwt>
<pdfrwt beam="2">  1       -2 0.46853466E-01 0.56631373E+03</pdfrwt>
<totfact> 0.85224259E+01</totfact>
</mgrwt>
</event>
<event>
 4    1  0.2338029E-002  0.4972480E+03  0.7818608E-02  0.1014500E+00
         -2   -1    0    0    0  501 -0.00000000000E+00  0.00000000000E+00  0.34316263542E+03  0.34316263542E+03  0.00000000000E+00 0.  1.
          2   -1    0    0  502    0  0.00000000000E+00 -0.00000000000E+00 -0.77050800985E+03  0.77050800985E+03  0.00000000000E+00 0. -1.
    9000007    1    1    2  502    0 -0.26993644764E+03  0.11995803784E+03 -0.71842009628E+02  0.50241107766E+03  0.40000000000E+03 0. -1.
   -9000007    1    1    2    0  501  0.26993644764E+03 -0.11995803784E+03 -0.35550336480E+03  0.61125956761E+03  0.40000000000E+03 0. -1.
<mgrwt>
<rscale>  2 0.49724804E+03</rscale>
<asrwt>0</asrwt>
<pdfrwt beam="1">  1        2 0.11853969E+00 0.49724804E+03</pdfrwt>
<pdfrwt beam="2">  1       -2 0.52794252E-01 0.49724804E+03</pdfrwt>
<totfact> 0.12623232E+02</totfact>
</mgrwt>
</event>
<event>
 4    1  0.2338029E-002  0.4404587E+03  0.7818608E-02  0.1030606E+00
         -2   -1    0    0    0  501 -0.00000000000E+00  0.00000000000E+00  0.17681812925E+03  0.17681812925E+03  0.00000000000E+00 0. -1.
          2   -1    0    0  502    0  0.00000000000E+00 -0.00000000000E+00 -0.13489632281E+04  0.13489632281E+04  0.00000000000E+00 0.  1.
    9000007    1    1    2  502    0 -0.16705884643E+02 -0.18364300126E+03 -0.25649065704E+03  0.50969725881E+03  0.40000000000E+03 0. -1.
   -9000007    1    1    2    0  501  0.16705884643E+02  0.18364300126E+03 -0.91565444177E+03  0.10160840985E+04  0.40000000000E+03 0.  1.
<mgrwt>
<rscale>  2 0.44045867E+03</rscale>
<asrwt>0</asrwt>
<pdfrwt beam="1">  1        2 0.20753281E+00 0.44045867E+03</pdfrwt>
<pdfrwt beam="2">  1       -2 0.27202789E-01 0.44045867E+03</pdfrwt>
<totfact> 0.19825801E+02</totfact>
</mgrwt>
</event>
<event>
 4    1  0.2338029E-002  0.4094862E+03  0.7818608E-02  0.1040544E+00
          2   -1    0    0  502    0  0.00000000000E+00  0.00000000000E+00  0.19318338075E+04  0.19318338075E+04  0.00000000000E+00 0. -1.
         -2   -1    0    0    0  501 -0.00000000000E+00 -0.00000000000E+00 -0.17422443706E+03  0.17422443706E+03  0.00000000000E+00 0.  1.
    9000007    1    1    2  502    0 -0.74014080654E+02 -0.46913292265E+02  0.16247512397E+04  0.16755582747E+04  0.40000000000E+03 0. -1.
   -9000007    1    1    2    0  501  0.74014080654E+02  0.46913292265E+02  0.13285813076E+03  0.43049996984E+03  0.40000000000E+03 0.  1.
<mgrwt>
<rscale>  2 0.40948619E+03</rscale>
<asrwt>0</asrwt>
<pdfrwt beam="1">  1        2 0.29720519E+00 0.40948619E+03</pdfrwt>
<pdfrwt beam="2">  1       -2 0.26803761E-01 0.40948619E+03</pdfrwt>
<totfact> 0.98955605E+01</totfact>
</mgrwt>
</event>
<event>
 4    1  0.2338029E-002  0.4664861E+03  0.7818608E-02  0.1022917E+00
         -2   -1    0    0    0  501 -0.00000000000E+00  0.00000000000E+00  0.37341558681E+03  0.37341558681E+03  0.00000000000E+00 0. -1.
          2   -1    0    0  502    0  0.00000000000E+00 -0.00000000000E+00 -0.60455954333E+03  0.60455954333E+03  0.00000000000E+00 0.  1.
    9000007    1    1    2  502    0 -0.15006785526E+03  0.18732048314E+03 -0.20843962885E+03  0.51093679009E+03  0.40000000000E+03 0.  1.
   -9000007    1    1    2    0  501  0.15006785526E+03 -0.18732048314E+03 -0.22704327671E+02  0.46703834005E+03  0.40000000000E+03 0. -1.
<mgrwt>
<rscale>  2 0.46648615E+03</rscale>
<asrwt>0</asrwt>
<pdfrwt beam="1">  1        2 0.93009159E-01 0.46648615E+03</pdfrwt>
<pdfrwt beam="2">  1       -2 0.57448552E-01 0.46648615E+03</pdfrwt>
<totfact> 0.14350986E+02</totfact>
</mgrwt>
</event>
<event>
 4    1  0.2338029E-002  0.4722710E+03  0.7818608E-02  0.1021281E+00
          2   -1    0    0  502    0  0.00000000000E+00  0.00000000000E+00  0.98109800019E+03  0.98109800019E+03  0.00000000000E+00 0.  1.
         -2   -1    0    0    0  501 -0.00000000000E+00 -0.00000000000E+00 -0.23214613186E+03  0.23214613186E+03  0.00000000000E+00 0. -1.
    9000007    1    1    2  502    0 -0.56456740929E+02  0.24464784998E+03  0.46178677080E+03  0.66052021603E+03  0.40000000000E+03 0. -1.
   -9000007    1    1    2    0  501  0.56456740929E+02 -0.24464784998E+03  0.28716509753E+03  0.55272391602E+03  0.40000000000E+03 0.  1.
<mgrwt>
<rscale>  2 0.47227104E+03</rscale>
<asrwt>0</asrwt>
<pdfrwt beam="1">  1        2 0.15093815E+00 0.47227104E+03</pdfrwt>
<pdfrwt beam="2">  1       -2 0.35714790E-01 0.47227104E+03</pdfrwt>
<totfact> 0.19680439E+02</totfact>
</mgrwt>
</event>
<event>
 4    1  0.2338029E-002  0.4247734E+03  0.7818608E-02  0.1035524E+00
          2   -1    0    0  502    0  0.00000000000E+00  0.00000000000E+00  0.89793372572E+03  0.89793372572E+03  0.00000000000E+00 0.  1.
         -2   -1    0    0    0  501 -0.00000000000E+00 -0.00000000000E+00 -0.23369224109E+03  0.23369224109E+03  0.00000000000E+00 0. -1.
    9000007    1    1    2  502    0  0.12121438208E+03 -0.75759345496E+02  0.54393707483E+03  0.69014487337E+03  0.40000000000E+03 0.  1.
   -9000007    1    1    2    0  501 -0.12121438208E+03  0.75759345496E+02  0.12030440979E+03  0.44148109344E+03  0.40000000000E+03 0. -1.
<mgrwt>
<rscale>  2 0.42477336E+03</rscale>
<asrwt>0</asrwt>
<pdfrwt beam="1">  1        2 0.13814365E+00 0.42477336E+03</pdfrwt>
<pdfrwt beam="2">  1       -2 0.35952653E-01 0.42477336E+03</pdfrwt>
<totfact> 0.22091174E+02</totfact>
</mgrwt>
</event>
<event>
 4    1  0.2338029E-002  0.4319188E+03  0.7818608E-02  0.1033256E+00
          2   -1    0    0  502    0  0.00000000000E+00  0.00000000000E+00  0.28230792609E+04  0.28230792609E+04  0.00000000000E+00 0.  1.
         -2   -1    0    0    0  501 -0.00000000000E+00 -0.00000000000E+00 -0.67641503689E+02  0.67641503689E+02  0.00000000000E+00 0. -1.
    9000007    1    1    2  502    0 -0.14272252809E+03 -0.78639188812E+02  0.11582331913E+04  0.12361464183E+04  0.40000000000E+03 0.  1.
   -9000007    1    1    2    0  501  0.14272252809E+03  0.78639188812E+02  0.15972045659E+04  0.16545743463E+04  0.40000000000E+03 0.  1.
<mgrwt>
<rscale>  2 0.43191879E+03</rscale>
<asrwt>0</asrwt>
<pdfrwt beam="1">  1        2 0.43431979E+00 0.43191879E+03</pdfrwt>
<pdfrwt beam="2">  1       -2 0.10406387E-01 0.43191879E+03</pdfrwt>
<totfact> 0.15839427E+02</totfact>
</mgrwt>
</event>
<event>
 4    1  0.2338029E-002  0.5376094E+03  0.7818608E-02  0.1004403E+00
         -4   -1    0    0    0  501 -0.00000000000E+00  0.00000000000E+00  0.61163426687E+03  0.61163426687E+03  0.00000000000E+00 0. -1.
          4   -1    0    0  502    0  0.00000000000E+00 -0.00000000000E+00 -0.49878884776E+03  0.49878884776E+03  0.00000000000E+00 0.  1.
    9000007    1    1    2  502    0 -0.34563228666E+03 -0.97786679607E+02 -0.70934853181E+02  0.54226899754E+03  0.40000000000E+03 0. -1.
   -9000007    1    1    2    0  501  0.34563228666E+03  0.97786679607E+02  0.18378027229E+03  0.56815411710E+03  0.40000000000E+03 0. -1.
<mgrwt>
<rscale>  2 0.53760944E+03</rscale>
<asrwt>0</asrwt>
<pdfrwt beam="1">  1        4 0.76736746E-01 0.53760944E+03</pdfrwt>
<pdfrwt beam="2">  1       -4 0.94097580E-01 0.53760944E+03</pdfrwt>
<totfact> 0.28371492E+00</totfact>
</mgrwt>
</event>
<event>
 4    1  0.2338029E-002  0.5290707E+03  0.7818608E-02  0.1006458E+00
         -2   -1    0    0    0  501 -0.00000000000E+00  0.00000000000E+00  0.13071412915E+04  0.13071412915E+04  0.00000000000E+00 0. -1.
          2   -1    0    0  502    0  0.00000000000E+00 -0.00000000000E+00 -0.25489062845E+03  0.25489062845E+03  0.00000000000E+00 0.  1.
    9000007    1    1    2  502    0  0.12579362804E+03  0.32263254921E+03  0.83839624218E+03  0.99137483202E+03  0.40000000000E+03 0. -1.
   -9000007    1    1    2    0  501 -0.12579362804E+03 -0.32263254921E+03  0.21385442085E+03  0.57065708791E+03  0.40000000000E+03 0.  1.
<mgrwt>
<rscale>  2 0.52907069E+03</rscale>
<asrwt>0</asrwt>
<pdfrwt beam="1">  1        2 0.39213944E-01 0.52907069E+03</pdfrwt>
<pdfrwt beam="2">  1       -2 0.20109866E+00 0.52907069E+03</pdfrwt>
<totfact> 0.17913226E+01</totfact>
</mgrwt>
</event>
<event>
 4    1  0.2338029E-002  0.4216067E+03  0.7818608E-02  0.1036545E+00
          2   -1    0    0  502    0  0.00000000000E+00  0.00000000000E+00  0.95542551558E+03  0.95542551558E+03  0.00000000000E+00 0. -1.
         -2   -1    0    0    0  501 -0.00000000000E+00 -0.00000000000E+00 -0.24840998760E+03  0.24840998760E+03  0.00000000000E+00 0.  1.
    9000007    1    1    2  502    0  0.29074017973E+02  0.13002668077E+03  0.65510176216E+03  0.77904464250E+03  0.40000000000E+03 0. -1.
   -9000007    1    1    2    0  501 -0.29074017973E+02 -0.13002668077E+03  0.51913765826E+02  0.42479086068E+03  0.40000000000E+03 0.  1.
<mgrwt>
<rscale>  2 0.42160673E+03</rscale>
<asrwt>0</asrwt>
<pdfrwt beam="1">  1        2 0.14698854E+00 0.42160673E+03</pdfrwt>
<pdfrwt beam="2">  1       -2 0.38216922E-01 0.42160673E+03</pdfrwt>
<totfact> 0.18048878E+02</totfact>
</mgrwt>
</event>
<event>
 4    1  0.2338029E-002  0.4915127E+03  0.7818608E-02  0.1016018E+00
         -2   -1    0    0    0  501 -0.00000000000E+00  0.00000000000E+00  0.70036133431E+03  0.70036133431E+03  0.00000000000E+00 0. -1.
          2   -1    0    0  502    0  0.00000000000E+00 -0.00000000000E+00 -0.35976600823E+03  0.35976600823E+03  0.00000000000E+00 0.  1.
    9000007    1    1    2  502    0  0.18053448033E+03 -0.22134144608E+03  0.62704106289E+02  0.49549625557E+03  0.40000000000E+03 0.  1.
   -9000007    1    1    2    0  501 -0.18053448033E+03  0.22134144608E+03  0.27789121978E+03  0.56463108697E+03  0.40000000000E+03 0. -1.
<mgrwt>
<rscale>  2 0.49151270E+03</rscale>
<asrwt>0</asrwt>
<pdfrwt beam="1">  1        2 0.55348617E-01 0.49151270E+03</pdfrwt>
<pdfrwt beam="2">  1       -2 0.10774790E+00 0.49151270E+03</pdfrwt>
<totfact> 0.63659953E+01</totfact>
</mgrwt>
</event>
<event>
 4    1  0.2338029E-002  0.4522315E+03  0.7818608E-02  0.1027059E+00
          1   -1    0    0  502    0  0.00000000000E+00  0.00000000000E+00  0.90343277853E+03  0.90343277853E+03  0.00000000000E+00 0. -1.
         -1   -1    0    0    0  501 -0.00000000000E+00 -0.00000000000E+00 -0.47012649419E+03  0.47012649419E+03  0.00000000000E+00 0.  1.
    9000007    1    1    2  502    0  0.49769071563E+02  0.20502781287E+03 -0.27786804476E+03  0.53077680322E+03  0.40000000000E+03 0.  1.
   -9000007    1    1    2    0  501 -0.49769071563E+02 -0.20502781287E+03  0.71117432910E+03  0.84278246950E+03  0.40000000000E+03 0. -1.
<mgrwt>
<rscale>  2 0.45223154E+03</rscale>
<asrwt>0</asrwt>
<pdfrwt beam="1">  1        1 0.13898966E+00 0.45223154E+03</pdfrwt>
<pdfrwt beam="2">  1       -1 0.72327153E-01 0.45223154E+03</pdfrwt>
<totfact> 0.37193791E+01</totfact>
</mgrwt>
</event>
<event>
 4    1  0.2338029E-002  0.4837117E+03  0.7818608E-02  0.1018120E+00
          1   -1    0    0  502    0  0.00000000000E+00  0.00000000000E+00  0.12265248258E+04  0.12265248258E+04  0.00000000000E+00 0. -1.
         -1   -1    0    0    0  501 -0.00000000000E+00 -0.00000000000E+00 -0.26895509995E+03  0.26895509995E+03  0.00000000000E+00 0.  1.
    9000007    1    1    2  502    0  0.10047774844E+03  0.25274734409E+03  0.75614246775E+02  0.48958606209E+03  0.40000000000E+03 0.  1.
   -9000007    1    1    2    0  501 -0.10047774844E+03 -0.25274734409E+03  0.88195547912E+03  0.10058938637E+04  0.40000000000E+03 0. -1.
<mgrwt>
<rscale>  2 0.48371169E+03</rscale>
<asrwt>0</asrwt>
<pdfrwt beam="1">  1        1 0.18869612E+00 0.48371169E+03</pdfrwt>
<pdfrwt beam="2">  1       -1 0.41377708E-01 0.48371169E+03</pdfrwt>
<totfact> 0.61900644E+01</totfact>
</mgrwt>
</event>
<event>
 4    1  0.2338029E-002  0.4475120E+03  0.7818608E-02  0.1028467E+00
         -2   -1    0    0    0  501 -0.00000000000E+00  0.00000000000E+00  0.21279802162E+03  0.21279802162E+03  0.00000000000E+00 0. -1.
          2   -1    0    0  502    0  0.00000000000E+00 -0.00000000000E+00 -0.11752213998E+04  0.11752213998E+04  0.00000000000E+00 0.  1.
    9000007    1    1    2  502    0  0.19792013875E+03  0.33085322195E+02 -0.17145974138E+03  0.47923424625E+03  0.40000000000E+03 0. -1.
   -9000007    1    1    2    0  501 -0.19792013875E+03 -0.33085322195E+02 -0.79096363677E+03  0.90878517514E+03  0.40000000000E+03 0.  1.
<mgrwt>
<rscale>  2 0.44751203E+03</rscale>
<asrwt>0</asrwt>
<pdfrwt beam="1">  1        2 0.18080329E+00 0.44751203E+03</pdfrwt>
<pdfrwt beam="2">  1       -2 0.32738157E-01 0.44751203E+03</pdfrwt>
<totfact> 0.17713595E+02</totfact>
</mgrwt>
</event>
<event>
 4    1  0.2338029E-002  0.4529952E+03  0.7818608E-02  0.1026833E+00
          2   -1    0    0  502    0  0.00000000000E+00  0.00000000000E+00  0.13588456031E+03  0.13588456031E+03  0.00000000000E+00 0.  1.
         -2   -1    0    0    0  501 -0.00000000000E+00 -0.00000000000E+00 -0.15248049860E+04  0.15248049860E+04  0.00000000000E+00 0. -1.
    9000007    1    1    2  502    0  0.20361584367E+03 -0.61198489782E+02 -0.77589253348E+03  0.89845082807E+03  0.40000000000E+03 0.  1.
   -9000007    1    1    2    0  501 -0.20361584367E+03  0.61198489782E+02 -0.61302789218E+03  0.76223871821E+03  0.40000000000E+03 0. -1.
<mgrwt>
<rscale>  2 0.45299522E+03</rscale>
<asrwt>0</asrwt>
<pdfrwt beam="1">  1        2 0.20905317E-01 0.45299522E+03</pdfrwt>
<pdfrwt beam="2">  1       -2 0.23458538E+00 0.45299522E+03</pdfrwt>
<totfact> 0.22755531E+01</totfact>
</mgrwt>
</event>
<event>
 4    1  0.2338029E-002  0.4246222E+03  0.7818608E-02  0.1035572E+00
         -2   -1    0    0    0  501 -0.00000000000E+00  0.00000000000E+00  0.38219253218E+03  0.38219253218E+03  0.00000000000E+00 0. -1.
          2   -1    0    0  502    0  0.00000000000E+00 -0.00000000000E+00 -0.72208990554E+03  0.72208990554E+03  0.00000000000E+00 0.  1.
    9000007    1    1    2  502    0  0.11618708643E+03 -0.82489837101E+02 -0.49504267689E+03  0.65220492502E+03  0.40000000000E+03 0.  1.
   -9000007    1    1    2    0  501 -0.11618708643E+03  0.82489837101E+02  0.15514530353E+03  0.45207751270E+03  0.40000000000E+03 0. -1.
<mgrwt>
<rscale>  2 0.42462220E+03</rscale>
<asrwt>0</asrwt>
<pdfrwt beam="1">  1        2 0.11109075E+00 0.42462220E+03</pdfrwt>
<pdfrwt beam="2">  1       -2 0.58798851E-01 0.42462220E+03</pdfrwt>
<totfact> 0.11050566E+02</totfact>
</mgrwt>
</event>
<event>
 4    1  0.2338029E-002  0.4067408E+03  0.7818608E-02  0.1041470E+00
          2   -1    0    0  502    0  0.00000000000E+00  0.00000000000E+00  0.14970684117E+04  0.14970684117E+04  0.00000000000E+00 0.  1.
         -2   -1    0    0    0  501 -0.00000000000E+00 -0.00000000000E+00 -0.17179114133E+03  0.17179114133E+03  0.00000000000E+00 0. -1.
    9000007    1    1    2  502    0  0.64308004558E+02 -0.36091322101E+02  0.16425960354E+03  0.43865626673E+03  0.40000000000E+03 0. -1.
   -9000007    1    1    2    0  501 -0.64308004558E+02  0.36091322101E+02  0.11610176669E+04  0.12302032864E+04  0.40000000000E+03 0.  1.
<mgrwt>
<rscale>  2 0.40674083E+03</rscale>
<asrwt>0</asrwt>
<pdfrwt beam="1">  1        2 0.23031821E+00 0.40674083E+03</pdfrwt>
<pdfrwt beam="2">  1       -2 0.26429407E-01 0.40674083E+03</pdfrwt>
<totfact> 0.17378127E+02</totfact>
</mgrwt>
</event>
<event>
 4    1  0.2338029E-002  0.4294435E+03  0.7818608E-02  0.1034036E+00
          2   -1    0    0  502    0  0.00000000000E+00  0.00000000000E+00  0.26784803601E+04  0.26784803601E+04  0.00000000000E+00 0.  1.
         -2   -1    0    0    0  501 -0.00000000000E+00 -0.00000000000E+00 -0.78222155959E+02  0.78222155959E+02  0.00000000000E+00 0. -1.
    9000007    1    1    2  502    0 -0.14316328044E+03 -0.62657734861E+02  0.17771556855E+04  0.18283063330E+04  0.40000000000E+03 0.  1.
   -9000007    1    1    2    0  501  0.14316328044E+03  0.62657734861E+02  0.82310251860E+03  0.92839618306E+03  0.40000000000E+03 0. -1.
<mgrwt>
<rscale>  2 0.42944350E+03</rscale>
<asrwt>0</asrwt>
<pdfrwt beam="1">  1        2 0.41207383E+00 0.42944350E+03</pdfrwt>
<pdfrwt beam="2">  1       -2 0.12034180E-01 0.42944350E+03</pdfrwt>
<totfact> 0.15157975E+02</totfact>
</mgrwt>
</event>
<event>
 4    1  0.2338029E-002  0.4034978E+03  0.7818608E-02  0.1042575E+00
         -1   -1    0    0    0  501 -0.00000000000E+00  0.00000000000E+00  0.10533877669E+03  0.10533877669E+03  0.00000000000E+00 0.  1.
          1   -1    0    0  502    0  0.00000000000E+00 -0.00000000000E+00 -0.15688627265E+04  0.15688627265E+04  0.00000000000E+00 0. -1.
    9000007    1    1    2  502    0 -0.39766293742E+02 -0.35058602478E+02 -0.62980489059E+03  0.74797370538E+03  0.40000000000E+03 0.  1.
   -9000007    1    1    2    0  501  0.39766293742E+02  0.35058602478E+02 -0.83371905924E+03  0.92622779782E+03  0.40000000000E+03 0.  1.
<mgrwt>
<rscale>  2 0.40349779E+03</rscale>
<asrwt>0</asrwt>
<pdfrwt beam="1">  1        1 0.24136346E+00 0.40349779E+03</pdfrwt>
<pdfrwt beam="2">  1       -1 0.16205968E-01 0.40349779E+03</pdfrwt>
<totfact> 0.17983768E+02</totfact>
</mgrwt>
</event>
<event>
 4    1  0.2338029E-002  0.5926689E+03  0.7818608E-02  0.9920734E-01
          1   -1    0    0  502    0  0.00000000000E+00  0.00000000000E+00  0.63165236432E+03  0.63165236432E+03  0.00000000000E+00 0. -1.
         -1   -1    0    0    0  501 -0.00000000000E+00 -0.00000000000E+00 -0.58749327326E+03  0.58749327326E+03  0.00000000000E+00 0.  1.
    9000007    1    1    2  502    0  0.23211180119E+03 -0.37064874252E+03 -0.11885020324E+03  0.60446815417E+03  0.40000000000E+03 0.  1.
   -9000007    1    1    2    0  501 -0.23211180119E+03  0.37064874252E+03  0.16300929430E+03  0.61467748341E+03  0.40000000000E+03 0. -1.
<mgrwt>
<rscale>  2 0.59266886E+03</rscale>
<asrwt>0</asrwt>
<pdfrwt beam="1">  1        1 0.97177287E-01 0.59266886E+03</pdfrwt>
<pdfrwt beam="2">  1       -1 0.90383580E-01 0.59266886E+03</pdfrwt>
<totfact> 0.39556756E+01</totfact>
</mgrwt>
</event>
<event>
 4    1  0.2338029E-002  0.5598171E+03  0.7818608E-02  0.9992469E-01
         -2   -1    0    0    0  501 -0.00000000000E+00  0.00000000000E+00  0.76508057734E+03  0.76508057734E+03  0.00000000000E+00 0. -1.
          2   -1    0    0  502    0  0.00000000000E+00 -0.00000000000E+00 -0.53174040290E+03  0.53174040290E+03  0.00000000000E+00 0.  1.
    9000007    1    1    2  502    0 -0.10410012382E+03  0.37756900266E+03 -0.19406308554E+03  0.59249950947E+03  0.40000000000E+03 0.  1.
   -9000007    1    1    2    0  501  0.10410012382E+03 -0.37756900266E+03  0.42740325997E+03  0.70432147077E+03  0.40000000000E+03 0. -1.
<mgrwt>
<rscale>  2 0.55981710E+03</rscale>
<asrwt>0</asrwt>
<pdfrwt beam="1">  1        2 0.81806216E-01 0.55981710E+03</pdfrwt>
<pdfrwt beam="2">  1       -2 0.11770470E+00 0.55981710E+03</pdfrwt>
<totfact> 0.32856058E+01</totfact>
</mgrwt>
</event>
<event>
 4    1  0.2338029E-002  0.4070459E+03  0.7818608E-02  0.1041367E+00
         -2   -1    0    0    0  501 -0.00000000000E+00  0.00000000000E+00  0.96981192998E+02  0.96981192998E+02  0.00000000000E+00 0.  1.
          2   -1    0    0  502    0  0.00000000000E+00 -0.00000000000E+00 -0.21704986080E+04  0.21704986080E+04  0.00000000000E+00 0. -1.
    9000007    1    1    2  502    0  0.70409306684E+02  0.26997775793E+02 -0.51366057142E+03  0.65538807816E+03  0.40000000000E+03 0.  1.
   -9000007    1    1    2    0  501 -0.70409306684E+02 -0.26997775793E+02 -0.15598568436E+04  0.16120917228E+04  0.40000000000E+03 0. -1.
<mgrwt>
<rscale>  2 0.40704588E+03</rscale>
<asrwt>0</asrwt>
<pdfrwt beam="1">  1        2 0.33392282E+00 0.40704588E+03</pdfrwt>
<pdfrwt beam="2">  1       -2 0.14920185E-01 0.40704588E+03</pdfrwt>
<totfact> 0.20358028E+02</totfact>
</mgrwt>
</event>
<event>
 4    1  0.2338029E-002  0.4028834E+03  0.7818608E-02  0.1042786E+00
          2   -1    0    0  502    0  0.00000000000E+00  0.00000000000E+00  0.56907823765E+03  0.56907823765E+03  0.00000000000E+00 0. -1.
         -2   -1    0    0    0  501 -0.00000000000E+00 -0.00000000000E+00 -0.30723544493E+03  0.30723544493E+03  0.00000000000E+00 0.  1.
    9000007    1    1    2  502    0 -0.39843661209E+02 -0.26973062709E+02  0.13644315052E+02  0.40311441401E+03  0.40000000000E+03 0.  1.
   -9000007    1    1    2    0  501  0.39843661209E+02  0.26973062709E+02  0.24819847767E+03  0.47319926856E+03  0.40000000000E+03 0. -1.
<mgrwt>
<rscale>  2 0.40288344E+03</rscale>
<asrwt>0</asrwt>
<pdfrwt beam="1">  1        2 0.87550498E-01 0.40288344E+03</pdfrwt>
<pdfrwt beam="2">  1       -2 0.47266992E-01 0.40288344E+03</pdfrwt>
<totfact> 0.23034870E+02</totfact>
</mgrwt>
</event>
<event>
 4    1  0.2338029E-002  0.4468769E+03  0.7818608E-02  0.1028657E+00
          2   -1    0    0  502    0  0.00000000000E+00  0.00000000000E+00  0.24577277901E+04  0.24577277901E+04  0.00000000000E+00 0.  1.
         -2   -1    0    0    0  501 -0.00000000000E+00 -0.00000000000E+00 -0.85978952841E+02  0.85978952841E+02  0.00000000000E+00 0. -1.
    9000007    1    1    2  502    0 -0.19719642255E+03 -0.28504730354E+02  0.14840440200E+04  0.15498663175E+04  0.40000000000E+03 0.  1.
   -9000007    1    1    2    0  501  0.19719642255E+03  0.28504730354E+02  0.88770481725E+03  0.99384042547E+03  0.40000000000E+03 0. -1.
<mgrwt>
<rscale>  2 0.44687688E+03</rscale>
<asrwt>0</asrwt>
<pdfrwt beam="1">  1        2 0.37811191E+00 0.44687688E+03</pdfrwt>
<pdfrwt beam="2">  1       -2 0.13227533E-01 0.44687688E+03</pdfrwt>
<totfact> 0.17210013E+02</totfact>
</mgrwt>
</event>
<event>
 4    1  0.2338029E-002  0.4271537E+03  0.7818608E-02  0.1034763E+00
         -2   -1    0    0    0  501 -0.00000000000E+00  0.00000000000E+00  0.30986919530E+03  0.30986919530E+03  0.00000000000E+00 0.  1.
          2   -1    0    0  502    0  0.00000000000E+00 -0.00000000000E+00 -0.78620512116E+03  0.78620512116E+03  0.00000000000E+00 0. -1.
    9000007    1    1    2  502    0 -0.14552392989E+03 -0.35820551110E+02  0.36424180186E+02  0.42870391525E+03  0.40000000000E+03 0.  1.
   -9000007    1    1    2    0  501  0.14552392989E+03  0.35820551110E+02 -0.51276010605E+03  0.66737040121E+03  0.40000000000E+03 0. -1.
<mgrwt>
<rscale>  2 0.42715375E+03</rscale>
<asrwt>0</asrwt>
<pdfrwt beam="1">  1        2 0.12095463E+00 0.42715375E+03</pdfrwt>
<pdfrwt beam="2">  1       -2 0.47672184E-01 0.42715375E+03</pdfrwt>
<totfact> 0.15215939E+02</totfact>
</mgrwt>
</event>
<event>
 4    1  0.2338029E-002  0.9051077E+03  0.7818608E-02  0.9419219E-01
         -2   -1    0    0    0  501 -0.00000000000E+00  0.00000000000E+00  0.10117076245E+04  0.10117076245E+04  0.00000000000E+00 0.  1.
          2   -1    0    0  502    0  0.00000000000E+00 -0.00000000000E+00 -0.10681793203E+04  0.10681793203E+04  0.00000000000E+00 0. -1.
    9000007    1    1    2  502    0 -0.74790468722E+03 -0.31600399725E+03  0.48328942837E+03  0.10260548811E+04  0.40000000000E+03 0. -1.
   -9000007    1    1    2    0  501  0.74790468722E+03  0.31600399725E+03 -0.53976112419E+03  0.10538320638E+04  0.40000000000E+03 0.  1.
<mgrwt>
<rscale>  2 0.90510770E+03</rscale>
<asrwt>0</asrwt>
<pdfrwt beam="1">  1        2 0.16433528E+00 0.90510770E+03</pdfrwt>
<pdfrwt beam="2">  1       -2 0.15564733E+00 0.90510770E+03</pdfrwt>
<totfact> 0.61954670E+00</totfact>
</mgrwt>
</event>
<event>
 4    1  0.2338029E-002  0.4347791E+03  0.7818608E-02  0.1032361E+00
          3   -1    0    0  502    0  0.00000000000E+00  0.00000000000E+00  0.67330512052E+03  0.67330512052E+03  0.00000000000E+00 0.  1.
         -3   -1    0    0    0  501 -0.00000000000E+00 -0.00000000000E+00 -0.37518331771E+03  0.37518331771E+03  0.00000000000E+00 0. -1.
    9000007    1    1    2  502    0 -0.12532325410E+03  0.11544251603E+03  0.41206713666E+03  0.59902605756E+03  0.40000000000E+03 0.  1.
   -9000007    1    1    2    0  501  0.12532325410E+03 -0.11544251603E+03 -0.11394533385E+03  0.44946238066E+03  0.40000000000E+03 0. -1.
<mgrwt>
<rscale>  2 0.43477913E+03</rscale>
<asrwt>0</asrwt>
<pdfrwt beam="1">  1        3 0.10358540E+00 0.43477913E+03</pdfrwt>
<pdfrwt beam="2">  1       -3 0.57720510E-01 0.43477913E+03</pdfrwt>
<totfact> 0.61916012E+00</totfact>
</mgrwt>
</event>
<event>
 4    1  0.2338029E-002  0.4176822E+03  0.7818608E-02  0.1037823E+00
         -2   -1    0    0    0  501 -0.00000000000E+00  0.00000000000E+00  0.57245371427E+02  0.57245371427E+02  0.00000000000E+00 0.  1.
          2   -1    0    0  502    0  0.00000000000E+00 -0.00000000000E+00 -0.31010940807E+04  0.31010940807E+04  0.00000000000E+00 0. -1.
    9000007    1    1    2  502    0  0.11472212739E+03 -0.36017387772E+02 -0.13144297847E+04  0.13791968959E+04  0.40000000000E+03 0.  1.
   -9000007    1    1    2    0  501 -0.11472212739E+03  0.36017387772E+02 -0.17294189246E+04  0.17791425562E+04  0.40000000000E+03 0. -1.
<mgrwt>
<rscale>  2 0.41768220E+03</rscale>
<asrwt>0</asrwt>
<pdfrwt beam="1">  1        2 0.47709136E+00 0.41768220E+03</pdfrwt>
<pdfrwt beam="2">  1       -2 0.88069810E-02 0.41768220E+03</pdfrwt>
<totfact> 0.14166672E+02</totfact>
</mgrwt>
</event>
<event>
 4    1  0.2338029E-002  0.4598604E+03  0.7818608E-02  0.1024822E+00
          2   -1    0    0  502    0  0.00000000000E+00  0.00000000000E+00  0.11209138322E+04  0.11209138322E+04  0.00000000000E+00 0.  1.
         -2   -1    0    0    0  501 -0.00000000000E+00 -0.00000000000E+00 -0.18903985889E+03  0.18903985889E+03  0.00000000000E+00 0. -1.
    9000007    1    1    2  502    0 -0.18872363573E+03  0.12591668210E+03  0.49529666230E+03  0.67586271180E+03  0.40000000000E+03 0.  1.
   -9000007    1    1    2    0  501  0.18872363573E+03 -0.12591668210E+03  0.43657731098E+03  0.63409097925E+03  0.40000000000E+03 0. -1.
<mgrwt>
<rscale>  2 0.45986044E+03</rscale>
<asrwt>0</asrwt>
<pdfrwt beam="1">  1        2 0.17244828E+00 0.45986044E+03</pdfrwt>
<pdfrwt beam="2">  1       -2 0.29083056E-01 0.45986044E+03</pdfrwt>
<totfact> 0.23709522E+02</totfact>
</mgrwt>
</event>
<event>
 4    1  0.2338029E-002  0.4191348E+03  0.7818608E-02  0.1037348E+00
          2   -1    0    0  502    0  0.00000000000E+00  0.00000000000E+00  0.15629059488E+04  0.15629059488E+04  0.00000000000E+00 0.  1.
         -2   -1    0    0    0  501 -0.00000000000E+00 -0.00000000000E+00 -0.15012581064E+03  0.15012581064E+03  0.00000000000E+00 0. -1.
    9000007    1    1    2  502    0  0.35598571608E+01  0.12514521410E+03  0.11357431865E+04  0.12106141345E+04  0.40000000000E+03 0.  1.
   -9000007    1    1    2    0  501 -0.35598571608E+01 -0.12514521410E+03  0.27703695172E+03  0.50241762490E+03  0.40000000000E+03 0. -1.
<mgrwt>
<rscale>  2 0.41913482E+03</rscale>
<asrwt>0</asrwt>
<pdfrwt beam="1">  1        2 0.24044706E+00 0.41913482E+03</pdfrwt>
<pdfrwt beam="2">  1       -2 0.23096280E-01 0.41913482E+03</pdfrwt>
<totfact> 0.20316557E+02</totfact>
</mgrwt>
</event>
<event>
 4    1  0.2338029E-002  0.4581923E+03  0.7818608E-02  0.1025307E+00
          2   -1    0    0  502    0  0.00000000000E+00  0.00000000000E+00  0.10898474215E+04  0.10898474215E+04  0.00000000000E+00 0. -1.
         -2   -1    0    0    0  501 -0.00000000000E+00 -0.00000000000E+00 -0.20317408853E+03  0.20317408853E+03  0.00000000000E+00 0.  1.
    9000007    1    1    2  502    0 -0.29902422699E+02 -0.22146331173E+03  0.29607410247E+03  0.54552729306E+03  0.40000000000E+03 0.  1.
   -9000007    1    1    2    0  501  0.29902422699E+02  0.22146331173E+03  0.59059923048E+03  0.74749421695E+03  0.40000000000E+03 0. -1.
<mgrwt>
<rscale>  2 0.45819227E+03</rscale>
<asrwt>0</asrwt>
<pdfrwt beam="1">  1        2 0.16766883E+00 0.45819227E+03</pdfrwt>
<pdfrwt beam="2">  1       -2 0.31257553E-01 0.45819227E+03</pdfrwt>
<totfact> 0.21674072E+02</totfact>
</mgrwt>
</event>
<event>
 4    1  0.2338029E-002  0.5060505E+03  0.7818608E-02  0.1012212E+00
          2   -1    0    0  502    0  0.00000000000E+00  0.00000000000E+00  0.17698024633E+04  0.17698024633E+04  0.00000000000E+00 0. -1.
         -2   -1    0    0    0  501 -0.00000000000E+00 -0.00000000000E+00 -0.14922623807E+03  0.14922623807E+03  0.00000000000E+00 0.  1.
    9000007    1    1    2  502    0 -0.18800570117E+03 -0.24645676527E+03  0.97743102983E+03  0.11006627544E+04  0.40000000000E+03 0. -1.
   -9000007    1    1    2    0  501  0.18800570117E+03  0.24645676527E+03  0.64314519539E+03  0.81836594698E+03  0.40000000000E+03 0.  1.
<mgrwt>
<rscale>  2 0.50605047E+03</rscale>
<asrwt>0</asrwt>
<pdfrwt beam="1">  1        2 0.27227729E+00 0.50605047E+03</pdfrwt>
<pdfrwt beam="2">  1       -2 0.22957884E-01 0.50605047E+03</pdfrwt>
<totfact> 0.15695928E+02</totfact>
</mgrwt>
</event>
<event>
 4    1  0.2338029E-002  0.5766865E+03  0.7818608E-02  0.9954991E-01
         -2   -1    0    0    0  501 -0.00000000000E+00  0.00000000000E+00  0.36616422281E+03  0.36616422281E+03  0.00000000000E+00 0.  1.
          2   -1    0    0  502    0  0.00000000000E+00 -0.00000000000E+00 -0.14286437905E+04  0.14286437905E+04  0.00000000000E+00 0. -1.
    9000007    1    1    2  502    0  0.11761779704E+03 -0.39841359276E+03 -0.10728583965E+04  0.12180281097E+04  0.40000000000E+03 0. -1.
   -9000007    1    1    2    0  501 -0.11761779704E+03  0.39841359276E+03  0.10378828860E+02  0.57677990358E+03  0.40000000000E+03 0.  1.
<mgrwt>
<rscale>  2 0.57668652E+03</rscale>
<asrwt>0</asrwt>
<pdfrwt beam="1">  1        2 0.21979135E+00 0.57668652E+03</pdfrwt>
<pdfrwt beam="2">  1       -2 0.56332958E-01 0.57668652E+03</pdfrwt>
<totfact> 0.42975094E+01</totfact>
</mgrwt>
</event>
<event>
 4    1  0.2338029E-002  0.5385920E+03  0.7818608E-02  0.1004169E+00
          2   -1    0    0  502    0  0.00000000000E+00  0.00000000000E+00  0.17512399174E+04  0.17512399174E+04  0.00000000000E+00 0.  1.
         -2   -1    0    0    0  501 -0.00000000000E+00 -0.00000000000E+00 -0.20141038665E+03  0.20141038665E+03  0.00000000000E+00 0. -1.
    9000007    1    1    2  502    0  0.35702315092E+03  0.51145500386E+02  0.11863434053E+04  0.13028783780E+04  0.40000000000E+03 0.  1.
   -9000007    1    1    2    0  501 -0.35702315092E+03 -0.51145500386E+02  0.36348612545E+03  0.64977192606E+03  0.40000000000E+03 0. -1.
<mgrwt>
<rscale>  2 0.53859205E+03</rscale>
<asrwt>0</asrwt>
<pdfrwt beam="1">  1        2 0.26942152E+00 0.53859205E+03</pdfrwt>
<pdfrwt beam="2">  1       -2 0.30986215E-01 0.53859205E+03</pdfrwt>
<totfact> 0.92884079E+01</totfact>
</mgrwt>
</event>
<event>
 4    1  0.2338029E-002  0.5379004E+03  0.7818608E-02  0.1004334E+00
         -1   -1    0    0    0  501 -0.00000000000E+00  0.00000000000E+00  0.35277649204E+03  0.35277649204E+03  0.00000000000E+00 0. -1.
          1   -1    0    0  502    0  0.00000000000E+00 -0.00000000000E+00 -0.85300981764E+03  0.85300981764E+03  0.00000000000E+00 0.  1.
    9000007    1    1    2  502    0 -0.35833374159E+03  0.30558512748E+02 -0.13182340214E+03  0.55381793255E+03  0.40000000000E+03 0. -1.
   -9000007    1    1    2    0  501  0.35833374159E+03 -0.30558512748E+02 -0.36840992345E+03  0.65196837712E+03  0.40000000000E+03 0.  1.
<mgrwt>
<rscale>  2 0.53790045E+03</rscale>
<asrwt>0</asrwt>
<pdfrwt beam="1">  1        1 0.13123228E+00 0.53790045E+03</pdfrwt>
<pdfrwt beam="2">  1       -1 0.54273307E-01 0.53790045E+03</pdfrwt>
<totfact> 0.71215313E+01</totfact>
</mgrwt>
</event>
<event>
 4    1  0.2338029E-002  0.4628272E+03  0.7818608E-02  0.1023964E+00
          2   -1    0    0  502    0  0.00000000000E+00  0.00000000000E+00  0.85297313804E+03  0.85297313804E+03  0.00000000000E+00 0.  1.
         -2   -1    0    0    0  501 -0.00000000000E+00 -0.00000000000E+00 -0.25757406293E+03  0.25757406293E+03  0.00000000000E+00 0. -1.
    9000007    1    1    2  502    0 -0.21070990604E+03 -0.99047126888E+02  0.38551330397E+03  0.60235330611E+03  0.40000000000E+03 0.  1.
   -9000007    1    1    2    0  501  0.21070990604E+03  0.99047126888E+02  0.20988577114E+03  0.50819389486E+03  0.40000000000E+03 0. -1.
<mgrwt>
<rscale>  2 0.46282718E+03</rscale>
<asrwt>0</asrwt>
<pdfrwt beam="1">  1        2 0.13122664E+00 0.46282718E+03</pdfrwt>
<pdfrwt beam="2">  1       -2 0.39626779E-01 0.46282718E+03</pdfrwt>
<totfact> 0.19591794E+02</totfact>
</mgrwt>
</event>
<event>
 4    1  0.2338029E-002  0.4170485E+03  0.7818608E-02  0.1038031E+00
          3   -1    0    0  502    0  0.00000000000E+00  0.00000000000E+00  0.34083964357E+03  0.34083964357E+03  0.00000000000E+00 0.  1.
         -3   -1    0    0    0  501 -0.00000000000E+00 -0.00000000000E+00 -0.51260903741E+03  0.51260903741E+03  0.00000000000E+00 0. -1.
    9000007    1    1    2  502    0  0.11337654483E+03 -0.32789885906E+02 -0.57225765191E+02  0.42095629908E+03  0.40000000000E+03 0.  1.
   -9000007    1    1    2    0  501 -0.11337654483E+03  0.32789885906E+02 -0.11454362865E+03  0.43249238190E+03  0.40000000000E+03 0. -1.
<mgrwt>
<rscale>  2 0.41704846E+03</rscale>
<asrwt>0</asrwt>
<pdfrwt beam="1">  1        3 0.52436868E-01 0.41704846E+03</pdfrwt>
<pdfrwt beam="2">  1       -3 0.78862929E-01 0.41704846E+03</pdfrwt>
<totfact> 0.14025683E+01</totfact>
</mgrwt>
</event>
<event>
 4    1  0.2338029E-002  0.4257126E+03  0.7818608E-02  0.1035223E+00
          1   -1    0    0  502    0  0.00000000000E+00  0.00000000000E+00  0.11685246470E+04  0.11685246470E+04  0.00000000000E+00 0. -1.
         -1   -1    0    0    0  501 -0.00000000000E+00 -0.00000000000E+00 -0.15764236835E+03  0.15764236835E+03  0.00000000000E+00 0.  1.
    9000007    1    1    2  502    0  0.12774964601E+03  0.70080053530E+02  0.42113463611E+03  0.59882014637E+03  0.40000000000E+03 0. -1.
   -9000007    1    1    2    0  501 -0.12774964601E+03 -0.70080053530E+02  0.58974764256E+03  0.72734686901E+03  0.40000000000E+03 0.  1.
<mgrwt>
<rscale>  2 0.42571256E+03</rscale>
<asrwt>0</asrwt>
<pdfrwt beam="1">  1        1 0.17977302E+00 0.42571256E+03</pdfrwt>
<pdfrwt beam="2">  1       -1 0.24252673E-01 0.42571256E+03</pdfrwt>
<totfact> 0.17406811E+02</totfact>
</mgrwt>
</event>
<event>
 4    1  0.2338029E-002  0.8642980E+03  0.7818608E-02  0.9471345E-01
         -2   -1    0    0    0  501 -0.00000000000E+00  0.00000000000E+00  0.10462214716E+04  0.10462214716E+04  0.00000000000E+00 0. -1.
          2   -1    0    0  502    0  0.00000000000E+00 -0.00000000000E+00 -0.84164036859E+03  0.84164036859E+03  0.00000000000E+00 0.  1.
    9000007    1    1    2  502    0 -0.49345723309E+03 -0.58609804096E+03  0.46987456011E+03  0.98376473648E+03  0.40000000000E+03 0.  1.
   -9000007    1    1    2    0  501  0.49345723309E+03  0.58609804096E+03 -0.26529345711E+03  0.90409710369E+03  0.40000000000E+03 0. -1.
<mgrwt>
<rscale>  2 0.86429795E+03</rscale>
<asrwt>0</asrwt>
<pdfrwt beam="1">  1        2 0.12948313E+00 0.86429795E+03</pdfrwt>
<pdfrwt beam="2">  1       -2 0.16095715E+00 0.86429795E+03</pdfrwt>
<totfact> 0.80092577E+00</totfact>
</mgrwt>
</event>
<event>
 4    1  0.2338029E-002  0.7134927E+03  0.7818608E-02  0.9694432E-01
         -1   -1    0    0    0  501 -0.00000000000E+00  0.00000000000E+00  0.44900572955E+03  0.44900572955E+03  0.00000000000E+00 0.  1.
          1   -1    0    0  502    0  0.00000000000E+00 -0.00000000000E+00 -0.13888066272E+04  0.13888066272E+04  0.00000000000E+00 0. -1.
    9000007    1    1    2  502    0 -0.59030013031E+03 -0.24850809685E+02 -0.86367411222E+03  0.11202699580E+04  0.40000000000E+03 0. -1.
   -9000007    1    1    2    0  501  0.59030013031E+03  0.24850809685E+02 -0.76126785423E+02  0.71754239878E+03  0.40000000000E+03 0.  1.
<mgrwt>
<rscale>  2 0.71349268E+03</rscale>
<asrwt>0</asrwt>
<pdfrwt beam="1">  1        1 0.21366256E+00 0.71349268E+03</pdfrwt>
<pdfrwt beam="2">  1       -1 0.69077805E-01 0.71349268E+03</pdfrwt>
<totfact> 0.17239092E+01</totfact>
</mgrwt>
</event>
<event>
 4    1  0.2338029E-002  0.4760294E+03  0.7818608E-02  0.1020232E+00
         -2   -1    0    0    0  501 -0.00000000000E+00  0.00000000000E+00  0.12017879866E+03  0.12017879866E+03  0.00000000000E+00 0.  1.
          2   -1    0    0  502    0  0.00000000000E+00 -0.00000000000E+00 -0.20507259517E+04  0.20507259517E+04  0.00000000000E+00 0. -1.
    9000007    1    1    2  502    0 -0.18999865826E+03  0.17465546772E+03 -0.12733231745E+04  0.13593954278E+04  0.40000000000E+03 0. -1.
   -9000007    1    1    2    0  501  0.18999865826E+03 -0.17465546772E+03 -0.65722397855E+03  0.81150932252E+03  0.40000000000E+03 0.  1.
<mgrwt>
<rscale>  2 0.47602943E+03</rscale>
<asrwt>0</asrwt>
<pdfrwt beam="1">  1        2 0.31549626E+00 0.47602943E+03</pdfrwt>
<pdfrwt beam="2">  1       -2 0.18489048E-01 0.47602943E+03</pdfrwt>
<totfact> 0.16240475E+02</totfact>
</mgrwt>
</event>
<event>
 4    1  0.2338029E-002  0.5212821E+03  0.7818608E-02  0.1008369E+00
          2   -1    0    0  502    0  0.00000000000E+00  0.00000000000E+00  0.22462281253E+04  0.22462281253E+04  0.00000000000E+00 0. -1.
         -2   -1    0    0    0  501 -0.00000000000E+00 -0.00000000000E+00 -0.12192975795E+03  0.12192975795E+03  0.00000000000E+00 0.  1.
    9000007    1    1    2  502    0  0.20620775783E+03  0.26308439069E+03  0.11669866393E+04  0.12781208286E+04  0.40000000000E+03 0.  1.
   -9000007    1    1    2    0  501 -0.20620775783E+03 -0.26308439069E+03  0.95731172807E+03  0.10900370547E+04  0.40000000000E+03 0. -1.
<mgrwt>
<rscale>  2 0.52128211E+03</rscale>
<asrwt>0</asrwt>
<pdfrwt beam="1">  1        2 0.34557353E+00 0.52128211E+03</pdfrwt>
<pdfrwt beam="2">  1       -2 0.18758426E-01 0.52128211E+03</pdfrwt>
<totfact> 0.12324772E+02</totfact>
</mgrwt>
</event>
<event>
 4    1  0.2338029E-002  0.5881938E+03  0.7818608E-02  0.9930207E-01
          1   -1    0    0  502    0  0.00000000000E+00  0.00000000000E+00  0.35268306153E+03  0.35268306153E+03  0.00000000000E+00 0.  1.
         -1   -1    0    0    0  501 -0.00000000000E+00 -0.00000000000E+00 -0.12622986893E+04  0.12622986893E+04  0.00000000000E+00 0. -1.
    9000007    1    1    2  502    0  0.75647614705E+02  0.42455793282E+03 -0.83601623111E+03  0.10222011243E+04  0.40000000000E+03 0. -1.
   -9000007    1    1    2    0  501 -0.75647614705E+02 -0.42455793282E+03 -0.73599396650E+02  0.59278062647E+03  0.40000000000E+03 0.  1.
<mgrwt>
<rscale>  2 0.58819385E+03</rscale>
<asrwt>0</asrwt>
<pdfrwt beam="1">  1        1 0.54258933E-01 0.58819385E+03</pdfrwt>
<pdfrwt beam="2">  1       -1 0.19419980E+00 0.58819385E+03</pdfrwt>
<totfact> 0.12315963E+01</totfact>
</mgrwt>
</event>
<event>
 4    1  0.2338029E-002  0.4019123E+03  0.7818608E-02  0.1043120E+00
         -2   -1    0    0    0  501 -0.00000000000E+00  0.00000000000E+00  0.90949244603E+02  0.90949244603E+02  0.00000000000E+00 0. -1.
          2   -1    0    0  502    0  0.00000000000E+00 -0.00000000000E+00 -0.18058250554E+04  0.18058250554E+04  0.00000000000E+00 0.  1.
    9000007    1    1    2  502    0 -0.15891835117E+02  0.35790412749E+02 -0.73572810874E+03  0.83834918385E+03  0.40000000000E+03 0. -1.
   -9000007    1    1    2    0  501  0.15891835117E+02 -0.35790412749E+02 -0.97914770207E+03  0.10584251162E+04  0.40000000000E+03 0.  1.
<mgrwt>
<rscale>  2 0.40191231E+03</rscale>
<asrwt>0</asrwt>
<pdfrwt beam="1">  1        2 0.27781924E+00 0.40191231E+03</pdfrwt>
<pdfrwt beam="2">  1       -2 0.13992192E-01 0.40191231E+03</pdfrwt>
<totfact> 0.35530929E+02</totfact>
</mgrwt>
</event>
<event>
 4    1  0.2338029E-002  0.4430306E+03  0.7818608E-02  0.1029821E+00
          2   -1    0    0  502    0  0.00000000000E+00  0.00000000000E+00  0.53931905978E+03  0.53931905978E+03  0.00000000000E+00 0.  1.
         -2   -1    0    0    0  501 -0.00000000000E+00 -0.00000000000E+00 -0.52321372699E+03  0.52321372699E+03  0.00000000000E+00 0. -1.
    9000007    1    1    2  502    0 -0.16055047866E+03 -0.10246772647E+03 -0.28507321930E+03  0.52682333996E+03  0.40000000000E+03 0. -1.
   -9000007    1    1    2    0  501  0.16055047866E+03  0.10246772647E+03  0.30117855208E+03  0.53570944681E+03  0.40000000000E+03 0.  1.
<mgrwt>
<rscale>  2 0.44303058E+03</rscale>
<asrwt>0</asrwt>
<pdfrwt beam="1">  1        2 0.82972163E-01 0.44303058E+03</pdfrwt>
<pdfrwt beam="2">  1       -2 0.80494420E-01 0.44303058E+03</pdfrwt>
<totfact> 0.79522847E+01</totfact>
</mgrwt>
</event>
<event>
 4    1  0.2338029E-002  0.5353482E+03  0.7818608E-02  0.1004943E+00
         -1   -1    0    0    0  501 -0.00000000000E+00  0.00000000000E+00  0.25093192510E+03  0.25093192510E+03  0.00000000000E+00 0.  1.
          1   -1    0    0  502    0  0.00000000000E+00 -0.00000000000E+00 -0.11424945583E+04  0.11424945583E+04  0.00000000000E+00 0. -1.
    9000007    1    1    2  502    0  0.18041904032E+03 -0.30667021293E+03 -0.45817427489E+03  0.70464268660E+03  0.40000000000E+03 0. -1.
   -9000007    1    1    2    0  501 -0.18041904032E+03  0.30667021293E+03 -0.43338835830E+03  0.68878379679E+03  0.40000000000E+03 0.  1.
<mgrwt>
<rscale>  2 0.53534816E+03</rscale>
<asrwt>0</asrwt>
<pdfrwt beam="1">  1        1 0.17576840E+00 0.53534816E+03</pdfrwt>
<pdfrwt beam="2">  1       -1 0.38604911E-01 0.53534816E+03</pdfrwt>
<totfact> 0.80050262E+01</totfact>
</mgrwt>
</event>
<event>
 4    1  0.2338029E-002  0.4206539E+03  0.7818608E-02  0.1036854E+00
          2   -1    0    0  502    0  0.00000000000E+00  0.00000000000E+00  0.10217718057E+04  0.10217718057E+04  0.00000000000E+00 0. -1.
         -2   -1    0    0    0  501 -0.00000000000E+00 -0.00000000000E+00 -0.17473011151E+03  0.17473011151E+03  0.00000000000E+00 0.  1.
    9000007    1    1    2  502    0 -0.10192784658E+03  0.80996416674E+02  0.36715943512E+03  0.55835092569E+03  0.40000000000E+03 0.  1.
   -9000007    1    1    2    0  501  0.10192784658E+03 -0.80996416674E+02  0.47988225909E+03  0.63815099155E+03  0.40000000000E+03 0. -1.
<mgrwt>
<rscale>  2 0.42065390E+03</rscale>
<asrwt>0</asrwt>
<pdfrwt beam="1">  1        2 0.15719566E+00 0.42065390E+03</pdfrwt>
<pdfrwt beam="2">  1       -2 0.26881556E-01 0.42065390E+03</pdfrwt>
<totfact> 0.31539976E+02</totfact>
</mgrwt>
</event>
<event>
 4    1  0.2338029E-002  0.5059844E+03  0.7818608E-02  0.1012229E+00
          2   -1    0    0  502    0  0.00000000000E+00  0.00000000000E+00  0.26934621938E+03  0.26934621938E+03  0.00000000000E+00 0.  1.
         -2   -1    0    0    0  501 -0.00000000000E+00 -0.00000000000E+00 -0.96631530505E+03  0.96631530505E+03  0.00000000000E+00 0. -1.
    9000007    1    1    2  502    0 -0.30794043025E+03  0.34538307210E+02 -0.26950564406E+03  0.57328308489E+03  0.40000000000E+03 0. -1.
   -9000007    1    1    2    0  501  0.30794043025E+03 -0.34538307210E+02 -0.42746344161E+03  0.66237843953E+03  0.40000000000E+03 0.  1.
<mgrwt>
<rscale>  2 0.50598439E+03</rscale>
<asrwt>0</asrwt>
<pdfrwt beam="1">  1        2 0.41437880E-01 0.50598439E+03</pdfrwt>
<pdfrwt beam="2">  1       -2 0.14866389E+00 0.50598439E+03</pdfrwt>
<totfact> 0.39138418E+01</totfact>
</mgrwt>
</event>
<event>
 4    1  0.2338029E-002  0.4581780E+03  0.7818608E-02  0.1025311E+00
          2   -1    0    0  502    0  0.00000000000E+00  0.00000000000E+00  0.67627435408E+03  0.67627435408E+03  0.00000000000E+00 0.  1.
         -2   -1    0    0    0  501 -0.00000000000E+00 -0.00000000000E+00 -0.32689334958E+03  0.32689334958E+03  0.00000000000E+00 0. -1.
    9000007    1    1    2  502    0  0.88131876295E+02  0.20532871176E+03  0.62082305915E+02  0.46236492103E+03  0.40000000000E+03 0. -1.
   -9000007    1    1    2    0  501 -0.88131876295E+02 -0.20532871176E+03  0.28729869859E+03  0.54080278263E+03  0.40000000000E+03 0.  1.
<mgrwt>
<rscale>  2 0.45817803E+03</rscale>
<asrwt>0</asrwt>
<pdfrwt beam="1">  1        2 0.10404221E+00 0.45817803E+03</pdfrwt>
<pdfrwt beam="2">  1       -2 0.50291285E-01 0.45817803E+03</pdfrwt>
<totfact> 0.16472128E+02</totfact>
</mgrwt>
</event>
<event>
 4    1  0.2338029E-002  0.4059750E+03  0.7818608E-02  0.1041730E+00
          2   -1    0    0  502    0  0.00000000000E+00  0.00000000000E+00  0.14939464531E+04  0.14939464531E+04  0.00000000000E+00 0.  1.
         -2   -1    0    0    0  501 -0.00000000000E+00 -0.00000000000E+00 -0.13082522027E+03  0.13082522027E+03  0.00000000000E+00 0. -1.
    9000007    1    1    2  502    0 -0.60399593547E+02  0.34169880065E+02  0.10031664221E+04  0.10822007956E+04  0.40000000000E+03 0.  1.
   -9000007    1    1    2    0  501  0.60399593547E+02 -0.34169880065E+02  0.35995481071E+03  0.54257087773E+03  0.40000000000E+03 0. -1.
<mgrwt>
<rscale>  2 0.40597499E+03</rscale>
<asrwt>0</asrwt>
<pdfrwt beam="1">  1        2 0.22983790E+00 0.40597499E+03</pdfrwt>
<pdfrwt beam="2">  1       -2 0.20126958E-01 0.40597499E+03</pdfrwt>
<totfact> 0.28222125E+02</totfact>
</mgrwt>
</event>
<event>
 4    1  0.2338029E-002  0.4061716E+03  0.7818608E-02  0.1041663E+00
         -2   -1    0    0    0  501 -0.00000000000E+00  0.00000000000E+00  0.87928601118E+02  0.87928601118E+02  0.00000000000E+00 0. -1.
          2   -1    0    0  502    0  0.00000000000E+00 -0.00000000000E+00 -0.19175478457E+04  0.19175478457E+04  0.00000000000E+00 0.  1.
    9000007    1    1    2  502    0  0.51557577985E+02  0.48136756722E+02 -0.76763924015E+03  0.86847298991E+03  0.40000000000E+03 0. -1.
   -9000007    1    1    2    0  501 -0.51557577985E+02 -0.48136756722E+02 -0.10619800044E+04  0.11370034569E+04  0.40000000000E+03 0.  1.
<mgrwt>
<rscale>  2 0.40617155E+03</rscale>
<asrwt>0</asrwt>
<pdfrwt beam="1">  1        2 0.29500736E+00 0.40617155E+03</pdfrwt>
<pdfrwt beam="2">  1       -2 0.13527477E-01 0.40617155E+03</pdfrwt>
<totfact> 0.32740008E+02</totfact>
</mgrwt>
</event>
<event>
 4    1  0.2338029E-002  0.5085187E+03  0.7818608E-02  0.1011579E+00
         -2   -1    0    0    0  501 -0.00000000000E+00  0.00000000000E+00  0.50682264864E+03  0.50682264864E+03  0.00000000000E+00 0. -1.
          2   -1    0    0  502    0  0.00000000000E+00 -0.00000000000E+00 -0.51972136255E+03  0.51972136255E+03  0.00000000000E+00 0.  1.
    9000007    1    1    2  502    0  0.30700440644E+03 -0.65875128462E+02  0.62948624144E+02  0.51240000723E+03  0.40000000000E+03 0. -1.
   -9000007    1    1    2    0  501 -0.30700440644E+03  0.65875128462E+02 -0.75847338055E+02  0.51414400397E+03  0.40000000000E+03 0.  1.
<mgrwt>
<rscale>  2 0.50851867E+03</rscale>
<asrwt>0</asrwt>
<pdfrwt beam="1">  1        2 0.79957132E-01 0.50851867E+03</pdfrwt>
<pdfrwt beam="2">  1       -2 0.77972715E-01 0.50851867E+03</pdfrwt>
<totfact> 0.88589148E+01</totfact>
</mgrwt>
</event>
<event>
 4    1  0.2338029E-002  0.4014897E+03  0.7818608E-02  0.1043265E+00
          1   -1    0    0  502    0  0.00000000000E+00  0.00000000000E+00  0.12095724532E+04  0.12095724532E+04  0.00000000000E+00 0. -1.
         -1   -1    0    0    0  501 -0.00000000000E+00 -0.00000000000E+00 -0.14732634359E+03  0.14732634359E+03  0.00000000000E+00 0.  1.
    9000007    1    1    2  502    0 -0.34430476148E+02  0.29158979399E+01  0.74072099011E+03  0.84253281559E+03  0.40000000000E+03 0. -1.
   -9000007    1    1    2    0  501  0.34430476148E+02 -0.29158979399E+01  0.32152511949E+03  0.51436598119E+03  0.40000000000E+03 0.  1.
<mgrwt>
<rscale>  2 0.40148968E+03</rscale>
<asrwt>0</asrwt>
<pdfrwt beam="1">  1        1 0.18608806E+00 0.40148968E+03</pdfrwt>
<pdfrwt beam="2">  1       -1 0.22665592E-01 0.40148968E+03</pdfrwt>
<totfact> 0.18279542E+02</totfact>
</mgrwt>
</event>
<event>
 4    1  0.2338029E-002  0.4633967E+03  0.7818608E-02  0.1023801E+00
          2   -1    0    0  502    0  0.00000000000E+00  0.00000000000E+00  0.18815671415E+04  0.18815671415E+04  0.00000000000E+00 0. -1.
         -2   -1    0    0    0  501 -0.00000000000E+00 -0.00000000000E+00 -0.11546783419E+03  0.11546783419E+03  0.00000000000E+00 0.  1.
    9000007    1    1    2  502    0  0.99806521690E+02  0.21160133381E+03  0.77542509145E+03  0.90333855153E+03  0.40000000000E+03 0. -1.
   -9000007    1    1    2    0  501 -0.99806521690E+02 -0.21160133381E+03  0.99067421584E+03  0.10936964241E+04  0.40000000000E+03 0. -1.
<mgrwt>
<rscale>  2 0.46339666E+03</rscale>
<asrwt>0</asrwt>
<pdfrwt beam="1">  1        2 0.28947185E+00 0.46339666E+03</pdfrwt>
<pdfrwt beam="2">  1       -2 0.17764284E-01 0.46339666E+03</pdfrwt>
<totfact> 0.21477314E+02</totfact>
</mgrwt>
</event>
<event>
 4    1  0.2338029E-002  0.4579201E+03  0.7818608E-02  0.1025386E+00
         -2   -1    0    0    0  501 -0.00000000000E+00  0.00000000000E+00  0.13040431576E+03  0.13040431576E+03  0.00000000000E+00 0.  1.
          2   -1    0    0  502    0  0.00000000000E+00 -0.00000000000E+00 -0.16262424669E+04  0.16262424669E+04  0.00000000000E+00 0. -1.
    9000007    1    1    2  502    0  0.38243224061E+02  0.21960940900E+03 -0.84093128369E+03  0.95752611484E+03  0.40000000000E+03 0.  1.
   -9000007    1    1    2    0  501 -0.38243224061E+02 -0.21960940900E+03 -0.65490686746E+03  0.79912066783E+03  0.40000000000E+03 0. -1.
<mgrwt>
<rscale>  2 0.45792012E+03</rscale>
<asrwt>0</asrwt>
<pdfrwt beam="1">  1        2 0.25019113E+00 0.45792012E+03</pdfrwt>
<pdfrwt beam="2">  1       -2 0.20062204E-01 0.45792012E+03</pdfrwt>
<totfact> 0.23905144E+02</totfact>
</mgrwt>
</event>
<event>
 4    1  0.2338029E-002  0.4362194E+03  0.7818608E-02  0.1031913E+00
         -1   -1    0    0    0  501 -0.00000000000E+00  0.00000000000E+00  0.88349856455E+02  0.88349856455E+02  0.00000000000E+00 0. -1.
          1   -1    0    0  502    0  0.00000000000E+00 -0.00000000000E+00 -0.30972737820E+04  0.30972737820E+04  0.00000000000E+00 0.  1.
    9000007    1    1    2  502    0  0.16929896064E+03  0.40313755825E+02 -0.62535623329E+03  0.76246819966E+03  0.40000000000E+03 0. -1.
   -9000007    1    1    2    0  501 -0.16929896064E+03 -0.40313755825E+02 -0.23835676923E+04  0.24231554388E+04  0.40000000000E+03 0.  1.
<mgrwt>
<rscale>  2 0.43621937E+03</rscale>
<asrwt>0</asrwt>
<pdfrwt beam="1">  1        1 0.47650360E+00 0.43621937E+03</pdfrwt>
<pdfrwt beam="2">  1       -1 0.13592287E-01 0.43621937E+03</pdfrwt>
<totfact> 0.22091483E+01</totfact>
</mgrwt>
</event>
<event>
 4    1  0.2338029E-002  0.4066053E+03  0.7818608E-02  0.1041516E+00
          2   -1    0    0  502    0  0.00000000000E+00  0.00000000000E+00  0.75175821541E+03  0.75175821541E+03  0.00000000000E+00 0. -1.
         -2   -1    0    0    0  501 -0.00000000000E+00 -0.00000000000E+00 -0.22236577408E+03  0.22236577408E+03  0.00000000000E+00 0.  1.
    9000007    1    1    2  502    0  0.17340941536E+02 -0.70902669644E+02  0.21363242240E+03  0.45931112409E+03  0.40000000000E+03 0.  1.
   -9000007    1    1    2    0  501 -0.17340941536E+02  0.70902669644E+02  0.31576001894E+03  0.51481286540E+03  0.40000000000E+03 0.  1.
<mgrwt>
<rscale>  2 0.40660533E+03</rscale>
<asrwt>0</asrwt>
<pdfrwt beam="1">  1        2 0.11565511E+00 0.40660533E+03</pdfrwt>
<pdfrwt beam="2">  1       -2 0.34210119E-01 0.40660533E+03</pdfrwt>
<totfact> 0.30688944E+02</totfact>
</mgrwt>
</event>
<event>
 4    1  0.2338029E-002  0.5957411E+03  0.7818608E-02  0.9914282E-01
          2   -1    0    0  502    0  0.00000000000E+00  0.00000000000E+00  0.79506031748E+03  0.79506031748E+03  0.00000000000E+00 0.  1.
         -2   -1    0    0    0  501 -0.00000000000E+00 -0.00000000000E+00 -0.53292211085E+03  0.53292211085E+03  0.00000000000E+00 0. -1.
    9000007    1    1    2  502    0  0.65580738984E+02 -0.43658514034E+03  0.39862696350E+03  0.71680602266E+03  0.40000000000E+03 0.  1.
   -9000007    1    1    2    0  501 -0.65580738984E+02  0.43658514034E+03 -0.13648875687E+03  0.61117640567E+03  0.40000000000E+03 0. -1.
<mgrwt>
<rscale>  2 0.59574107E+03</rscale>
<asrwt>0</asrwt>
<pdfrwt beam="1">  1        2 0.12231697E+00 0.59574107E+03</pdfrwt>
<pdfrwt beam="2">  1       -2 0.81988017E-01 0.59574107E+03</pdfrwt>
<totfact> 0.46687624E+01</totfact>
</mgrwt>
</event>
<event>
 4    1  0.2338029E-002  0.1037049E+04  0.7818608E-02  0.9268818E-01
          1   -1    0    0  502    0  0.00000000000E+00  0.00000000000E+00  0.29159845514E+04  0.29159845514E+04  0.00000000000E+00 0.  1.
         -1   -1    0    0    0  501 -0.00000000000E+00 -0.00000000000E+00 -0.36882024366E+03  0.36882024366E+03  0.00000000000E+00 0. -1.
    9000007    1    1    2  502    0  0.53270974245E+02 -0.95531845957E+03  0.12763146474E+04  0.16445212784E+04  0.40000000000E+03 0.  1.
   -9000007    1    1    2    0  501 -0.53270974245E+02  0.95531845957E+03  0.12708496604E+04  0.16402835167E+04  0.40000000000E+03 0. -1.
<mgrwt>
<rscale>  2 0.10370493E+04</rscale>
<asrwt>0</asrwt>
<pdfrwt beam="1">  1        1 0.44861299E+00 0.10370493E+04</pdfrwt>
<pdfrwt beam="2">  1       -1 0.56741578E-01 0.10370493E+04</pdfrwt>
<totfact> 0.22077810E+00</totfact>
</mgrwt>
</event>
<event>
 4    1  0.2338029E-002  0.4633746E+03  0.7818608E-02  0.1023807E+00
          1   -1    0    0  502    0  0.00000000000E+00  0.00000000000E+00  0.13395935438E+04  0.13395935438E+04  0.00000000000E+00 0.  1.
         -1   -1    0    0    0  501 -0.00000000000E+00 -0.00000000000E+00 -0.17925052299E+03  0.17925052299E+03  0.00000000000E+00 0. -1.
    9000007    1    1    2  502    0 -0.19741574621E+03 -0.12547146207E+03  0.82719670884E+03  0.94814052744E+03  0.40000000000E+03 0.  1.
   -9000007    1    1    2    0  501  0.19741574621E+03  0.12547146207E+03  0.33314631194E+03  0.57070353933E+03  0.40000000000E+03 0.  1.
<mgrwt>
<rscale>  2 0.46337465E+03</rscale>
<asrwt>0</asrwt>
<pdfrwt beam="1">  1        1 0.20609131E+00 0.46337465E+03</pdfrwt>
<pdfrwt beam="2">  1       -1 0.27577004E-01 0.46337465E+03</pdfrwt>
<totfact> 0.10559034E+02</totfact>
</mgrwt>
</event>
<event>
 4    1  0.2338029E-002  0.4003207E+03  0.7818608E-02  0.1043669E+00
          2   -1    0    0  502    0  0.00000000000E+00  0.00000000000E+00  0.24736644834E+04  0.24736644834E+04  0.00000000000E+00 0.  1.
         -2   -1    0    0    0  501 -0.00000000000E+00 -0.00000000000E+00 -0.10811029033E+03  0.10811029033E+03  0.00000000000E+00 0. -1.
    9000007    1    1    2  502    0  0.71301718253E-01  0.16021117820E+02  0.19999706225E+04  0.20396419225E+04  0.40000000000E+03 0.  1.
   -9000007    1    1    2    0  501 -0.71301718253E-01 -0.16021117820E+02  0.36558357065E+03  0.54213285127E+03  0.40000000000E+03 0. -1.
<mgrwt>
<rscale>  2 0.40032072E+03</rscale>
<asrwt>0</asrwt>
<pdfrwt beam="1">  1        2 0.38056373E+00 0.40032072E+03</pdfrwt>
<pdfrwt beam="2">  1       -2 0.16632354E-01 0.40032072E+03</pdfrwt>
<totfact> 0.11601956E+02</totfact>
</mgrwt>
</event>
<event>
 4    1  0.2338029E-002  0.4378995E+03  0.7818608E-02  0.1031393E+00
          1   -1    0    0  502    0  0.00000000000E+00  0.00000000000E+00  0.32698306819E+04  0.32698306819E+04  0.00000000000E+00 0.  1.
         -1   -1    0    0    0  501 -0.00000000000E+00 -0.00000000000E+00 -0.89910789500E+02  0.89910789500E+02  0.00000000000E+00 0. -1.
    9000007    1    1    2  502    0  0.10937593562E+03  0.14068706801E+03  0.59932963453E+03  0.74226138067E+03  0.40000000000E+03 0. -1.
   -9000007    1    1    2    0  501 -0.10937593562E+03 -0.14068706801E+03  0.25805902579E+04  0.26174800907E+04  0.40000000000E+03 0.  1.
<mgrwt>
<rscale>  2 0.43789947E+03</rscale>
<asrwt>0</asrwt>
<pdfrwt beam="1">  1        1 0.50305078E+00 0.43789947E+03</pdfrwt>
<pdfrwt beam="2">  1       -1 0.13832432E-01 0.43789947E+03</pdfrwt>
<totfact> 0.16089471E+01</totfact>
</mgrwt>
</event>
<event>
 4    1  0.2338029E-002  0.5798091E+03  0.7818608E-02  0.9948204E-01
          2   -1    0    0  502    0  0.00000000000E+00  0.00000000000E+00  0.30296478649E+03  0.30296478649E+03  0.00000000000E+00 0.  1.
         -2   -1    0    0    0  501 -0.00000000000E+00 -0.00000000000E+00 -0.11107226966E+04  0.11107226966E+04  0.00000000000E+00 0. -1.
    9000007    1    1    2  502    0  0.40862916758E+03 -0.95920770761E+02 -0.42605673367E+03  0.71951576159E+03  0.40000000000E+03 0. -1.
   -9000007    1    1    2    0  501 -0.40862916758E+03  0.95920770761E+02 -0.38170117645E+03  0.69417172153E+03  0.40000000000E+03 0.  1.
<mgrwt>
<rscale>  2 0.57980910E+03</rscale>
<asrwt>0</asrwt>
<pdfrwt beam="1">  1        2 0.46609967E-01 0.57980910E+03</pdfrwt>
<pdfrwt beam="2">  1       -2 0.17088041E+00 0.57980910E+03</pdfrwt>
<totfact> 0.23473326E+01</totfact>
</mgrwt>
</event>
<event>
 4    1  0.2338029E-002  0.5012262E+03  0.7818608E-02  0.1013459E+00
         -1   -1    0    0    0  501 -0.00000000000E+00  0.00000000000E+00  0.38931108819E+03  0.38931108819E+03  0.00000000000E+00 0. -1.
          1   -1    0    0  502    0  0.00000000000E+00 -0.00000000000E+00 -0.68180178199E+03  0.68180178199E+03  0.00000000000E+00 0.  1.
    9000007    1    1    2  502    0 -0.30203910799E+03  0.22233381487E+00 -0.22350477303E+02  0.50172424301E+03  0.40000000000E+03 0.  1.
   -9000007    1    1    2    0  501  0.30203910799E+03 -0.22233381487E+00 -0.27014021650E+03  0.56938862718E+03  0.40000000000E+03 0. -1.
<mgrwt>
<rscale>  2 0.50122617E+03</rscale>
<asrwt>0</asrwt>
<pdfrwt beam="1">  1        1 0.10489258E+00 0.50122617E+03</pdfrwt>
<pdfrwt beam="2">  1       -1 0.59894013E-01 0.50122617E+03</pdfrwt>
<totfact> 0.83626590E+01</totfact>
</mgrwt>
</event>
<event>
 4    1  0.2338029E-002  0.7017196E+03  0.7818608E-02  0.9714296E-01
         -1   -1    0    0    0  501 -0.00000000000E+00  0.00000000000E+00  0.24574838906E+03  0.24574838906E+03  0.00000000000E+00 0.  1.
          1   -1    0    0  502    0  0.00000000000E+00 -0.00000000000E+00 -0.20903523551E+04  0.20903523551E+04  0.00000000000E+00 0. -1.
    9000007    1    1    2  502    0 -0.34657465160E+03 -0.46075635525E+03 -0.11600941447E+04  0.13558129785E+04  0.40000000000E+03 0.  1.
   -9000007    1    1    2    0  501  0.34657465160E+03  0.46075635525E+03 -0.68450982129E+03  0.98028776565E+03  0.40000000000E+03 0.  1.
<mgrwt>
<rscale>  2 0.70171961E+03</rscale>
<asrwt>0</asrwt>
<pdfrwt beam="1">  1        1 0.32159268E+00 0.70171961E+03</pdfrwt>
<pdfrwt beam="2">  1       -1 0.37807443E-01 0.70171961E+03</pdfrwt>
<totfact> 0.18343668E+01</totfact>
</mgrwt>
</event>
<event>
 4    1  0.2338029E-002  0.6552298E+03  0.7818608E-02  0.9797015E-01
          2   -1    0    0  502    0  0.00000000000E+00  0.00000000000E+00  0.11954602981E+04  0.11954602981E+04  0.00000000000E+00 0.  1.
         -2   -1    0    0    0  501 -0.00000000000E+00 -0.00000000000E+00 -0.41864610433E+03  0.41864610433E+03  0.00000000000E+00 0. -1.
    9000007    1    1    2  502    0  0.50411334145E+03  0.12327132611E+03  0.69270193939E+03  0.95349989916E+03  0.40000000000E+03 0.  1.
   -9000007    1    1    2    0  501 -0.50411334145E+03 -0.12327132611E+03  0.84112254412E+02  0.66060650330E+03  0.40000000000E+03 0. -1.
<mgrwt>
<rscale>  2 0.65522979E+03</rscale>
<asrwt>0</asrwt>
<pdfrwt beam="1">  1        2 0.18391697E+00 0.65522979E+03</pdfrwt>
<pdfrwt beam="2">  1       -2 0.64407094E-01 0.65522979E+03</pdfrwt>
<totfact> 0.43628947E+01</totfact>
</mgrwt>
</event>
<event>
 4    1  0.2338029E-002  0.4776449E+03  0.7818608E-02  0.1019784E+00
          2   -1    0    0  502    0  0.00000000000E+00  0.00000000000E+00  0.91572578799E+03  0.91572578799E+03  0.00000000000E+00 0.  1.
         -2   -1    0    0    0  501 -0.00000000000E+00 -0.00000000000E+00 -0.41156150483E+03  0.41156150483E+03  0.00000000000E+00 0. -1.
    9000007    1    1    2  502    0  0.24366868983E+02  0.25990549464E+03 -0.16482403434E+03  0.50528365573E+03  0.40000000000E+03 0. -1.
   -9000007    1    1    2    0  501 -0.24366868983E+02 -0.25990549464E+03  0.66898831750E+03  0.82200363710E+03  0.40000000000E+03 0.  1.
<mgrwt>
<rscale>  2 0.47764486E+03</rscale>
<asrwt>0</asrwt>
<pdfrwt beam="1">  1        2 0.14088089E+00 0.47764486E+03</pdfrwt>
<pdfrwt beam="2">  1       -2 0.63317155E-01 0.47764486E+03</pdfrwt>
<totfact> 0.68805912E+01</totfact>
</mgrwt>
</event>
<event>
 4    1  0.2338029E-002  0.4475649E+03  0.7818608E-02  0.1028451E+00
         -2   -1    0    0    0  501 -0.00000000000E+00  0.00000000000E+00  0.41794781885E+03  0.41794781885E+03  0.00000000000E+00 0. -1.
          2   -1    0    0  502    0  0.00000000000E+00 -0.00000000000E+00 -0.68488517203E+03  0.68488517203E+03  0.00000000000E+00 0.  1.
    9000007    1    1    2  502    0 -0.23708862045E+02 -0.19937965033E+03  0.16865660593E+03  0.47828799465E+03  0.40000000000E+03 0. -1.
   -9000007    1    1    2    0  501  0.23708862045E+02  0.19937965033E+03 -0.43559395911E+03  0.62454499623E+03  0.40000000000E+03 0.  1.
<mgrwt>
<rscale>  2 0.44756492E+03</rscale>
<asrwt>0</asrwt>
<pdfrwt beam="1">  1        2 0.10536695E+00 0.44756492E+03</pdfrwt>
<pdfrwt beam="2">  1       -2 0.64299665E-01 0.44756492E+03</pdfrwt>
<totfact> 0.97525670E+01</totfact>
</mgrwt>
</event>
<event>
 4    1  0.2338029E-002  0.1252416E+04  0.7818608E-02  0.9068175E-01
          1   -1    0    0  502    0  0.00000000000E+00  0.00000000000E+00  0.22730081272E+04  0.22730081272E+04  0.00000000000E+00 0. -1.
         -1   -1    0    0    0  501 -0.00000000000E+00 -0.00000000000E+00 -0.76101603409E+03  0.76101603409E+03  0.00000000000E+00 0.  1.
    9000007    1    1    2  502    0  0.11774239898E+04 -0.14905813133E+03  0.12191672746E+04  0.17478313482E+04  0.40000000000E+03 0.  1.
   -9000007    1    1    2    0  501 -0.11774239898E+04  0.14905813133E+03  0.29282481856E+03  0.12861928132E+04  0.40000000000E+03 0. -1.
<mgrwt>
<rscale>  2 0.12524159E+04</rscale>
<asrwt>0</asrwt>
<pdfrwt beam="1">  1        1 0.34969356E+00 0.12524159E+04</pdfrwt>
<pdfrwt beam="2">  1       -1 0.11707939E+00 0.12524159E+04</pdfrwt>
<totfact> 0.12515751E+00</totfact>
</mgrwt>
</event>
<event>
 4    1  0.2338029E-002  0.4686063E+03  0.7818608E-02  0.1022314E+00
          1   -1    0    0  502    0  0.00000000000E+00  0.00000000000E+00  0.44107849195E+03  0.44107849195E+03  0.00000000000E+00 0.  1.
         -1   -1    0    0    0  501 -0.00000000000E+00 -0.00000000000E+00 -0.65888963041E+03  0.65888963041E+03  0.00000000000E+00 0. -1.
    9000007    1    1    2  502    0 -0.11528792852E+03 -0.21517572154E+03  0.16299316341E+03  0.49614379863E+03  0.40000000000E+03 0.  1.
   -9000007    1    1    2    0  501  0.11528792852E+03  0.21517572154E+03 -0.38080430187E+03  0.60382432373E+03  0.40000000000E+03 0. -1.
<mgrwt>
<rscale>  2 0.46860634E+03</rscale>
<asrwt>0</asrwt>
<pdfrwt beam="1">  1        1 0.67858229E-01 0.46860634E+03</pdfrwt>
<pdfrwt beam="2">  1       -1 0.10136764E+00 0.46860634E+03</pdfrwt>
<totfact> 0.51090842E+01</totfact>
</mgrwt>
</event>
<event>
 4    1  0.2338029E-002  0.5767663E+03  0.7818608E-02  0.9954817E-01
         -1   -1    0    0    0  501 -0.00000000000E+00  0.00000000000E+00  0.23735140181E+03  0.23735140181E+03  0.00000000000E+00 0. -1.
          1   -1    0    0  502    0  0.00000000000E+00 -0.00000000000E+00 -0.14081450449E+04  0.14081450449E+04  0.00000000000E+00 0.  1.
    9000007    1    1    2  502    0 -0.22066130413E+03  0.35209077918E+03 -0.52908163255E+03  0.78267918193E+03  0.40000000000E+03 0. -1.
   -9000007    1    1    2    0  501  0.22066130413E+03 -0.35209077918E+03 -0.64171201055E+03  0.86281726478E+03  0.40000000000E+03 0.  1.
<mgrwt>
<rscale>  2 0.57676627E+03</rscale>
<asrwt>0</asrwt>
<pdfrwt beam="1">  1        1 0.21663770E+00 0.57676627E+03</pdfrwt>
<pdfrwt beam="2">  1       -1 0.36515601E-01 0.57676627E+03</pdfrwt>
<totfact> 0.57108895E+01</totfact>
</mgrwt>
</event>
<event>
 4    1  0.2338029E-002  0.4028838E+03  0.7818608E-02  0.1042786E+00
          2   -1    0    0  502    0  0.00000000000E+00  0.00000000000E+00  0.15124873184E+04  0.15124873184E+04  0.00000000000E+00 0. -1.
         -2   -1    0    0    0  501 -0.00000000000E+00 -0.00000000000E+00 -0.13447957524E+03  0.13447957524E+03  0.00000000000E+00 0.  1.
    9000007    1    1    2  502    0 -0.45730353620E+02  0.14970950634E+02  0.31890882344E+03  0.51382704510E+03  0.40000000000E+03 0.  1.
   -9000007    1    1    2    0  501  0.45730353620E+02 -0.14970950634E+02  0.10590989197E+04  0.11331398486E+04  0.40000000000E+03 0. -1.
<mgrwt>
<rscale>  2 0.40288385E+03</rscale>
<asrwt>0</asrwt>
<pdfrwt beam="1">  1        2 0.23269035E+00 0.40288385E+03</pdfrwt>
<pdfrwt beam="2">  1       -2 0.20689166E-01 0.40288385E+03</pdfrwt>
<totfact> 0.26296283E+02</totfact>
</mgrwt>
</event>
<event>
 4    1  0.2338029E-002  0.4743757E+03  0.7818608E-02  0.1020692E+00
          2   -1    0    0  502    0  0.00000000000E+00  0.00000000000E+00  0.12783039206E+04  0.12783039206E+04  0.00000000000E+00 0. -1.
         -2   -1    0    0    0  501 -0.00000000000E+00 -0.00000000000E+00 -0.17612508182E+03  0.17612508182E+03  0.00000000000E+00 0.  1.
    9000007    1    1    2  502    0  0.25379713157E+03 -0.24885932613E+02  0.53508185367E+03  0.71508382988E+03  0.40000000000E+03 0. -1.
   -9000007    1    1    2    0  501 -0.25379713157E+03  0.24885932613E+02  0.56709698511E+03  0.73934517253E+03  0.40000000000E+03 0.  1.
<mgrwt>
<rscale>  2 0.47437569E+03</rscale>
<asrwt>0</asrwt>
<pdfrwt beam="1">  1        2 0.19666214E+00 0.47437569E+03</pdfrwt>
<pdfrwt beam="2">  1       -2 0.27096167E-01 0.47437569E+03</pdfrwt>
<totfact> 0.21807337E+02</totfact>
</mgrwt>
</event>
<event>
 4    1  0.2338029E-002  0.4196653E+03  0.7818608E-02  0.1037175E+00
          1   -1    0    0  502    0  0.00000000000E+00  0.00000000000E+00  0.25584864004E+04  0.25584864004E+04  0.00000000000E+00 0. -1.
         -1   -1    0    0    0  501 -0.00000000000E+00 -0.00000000000E+00 -0.86657135396E+02  0.86657135396E+02  0.00000000000E+00 0.  1.
    9000007    1    1    2  502    0 -0.20110074674E+02 -0.12535763579E+03  0.18356650593E+04  0.18830255341E+04  0.40000000000E+03 0. -1.
   -9000007    1    1    2    0  501  0.20110074674E+02  0.12535763579E+03  0.63616420566E+03  0.76211800170E+03  0.40000000000E+03 0.  1.
<mgrwt>
<rscale>  2 0.41966529E+03</rscale>
<asrwt>0</asrwt>
<pdfrwt beam="1">  1        1 0.39361324E+00 0.41966529E+03</pdfrwt>
<pdfrwt beam="2">  1       -1 0.13331869E-01 0.41966529E+03</pdfrwt>
<totfact> 0.54173311E+01</totfact>
</mgrwt>
</event>
<event>
 4    1  0.2338029E-002  0.4309828E+03  0.7818608E-02  0.1033550E+00
          2   -1    0    0  502    0  0.00000000000E+00  0.00000000000E+00  0.17926853650E+03  0.17926853650E+03  0.00000000000E+00 0. -1.
         -2   -1    0    0    0  501 -0.00000000000E+00 -0.00000000000E+00 -0.10787513020E+04  0.10787513020E+04  0.00000000000E+00 0.  1.
    9000007    1    1    2  502    0 -0.34049953603E+02 -0.15680158703E+03 -0.57476507678E+03  0.71840171946E+03  0.40000000000E+03 0.  1.
   -9000007    1    1    2    0  501  0.34049953603E+02  0.15680158703E+03 -0.32471768873E+03  0.53961811905E+03  0.40000000000E+03 0. -1.
<mgrwt>
<rscale>  2 0.43098276E+03</rscale>
<asrwt>0</asrwt>
<pdfrwt beam="1">  1        2 0.27579775E-01 0.43098276E+03</pdfrwt>
<pdfrwt beam="2">  1       -2 0.16596174E+00 0.43098276E+03</pdfrwt>
<totfact> 0.46215752E+01</totfact>
</mgrwt>
</event>
<event>
 4    1  0.2338029E-002  0.4217120E+03  0.7818608E-02  0.1036511E+00
          1   -1    0    0  502    0  0.00000000000E+00  0.00000000000E+00  0.14975661043E+04  0.14975661043E+04  0.00000000000E+00 0.  1.
         -1   -1    0    0    0  501 -0.00000000000E+00 -0.00000000000E+00 -0.12233833650E+03  0.12233833650E+03  0.00000000000E+00 0. -1.
    9000007    1    1    2  502    0 -0.10893843784E+03  0.77287765319E+02  0.54896311741E+03  0.69224380545E+03  0.40000000000E+03 0. -1.
   -9000007    1    1    2    0  501  0.10893843784E+03 -0.77287765319E+02  0.82626465038E+03  0.92766063535E+03  0.40000000000E+03 0. -1.
<mgrwt>
<rscale>  2 0.42171197E+03</rscale>
<asrwt>0</asrwt>
<pdfrwt beam="1">  1        1 0.23039477E+00 0.42171197E+03</pdfrwt>
<pdfrwt beam="2">  1       -1 0.18821284E-01 0.42171197E+03</pdfrwt>
<totfact> 0.15697114E+02</totfact>
</mgrwt>
</event>
<event>
 4    1  0.2338029E-002  0.4102541E+03  0.7818608E-02  0.1040286E+00
          2   -1    0    0  502    0  0.00000000000E+00  0.00000000000E+00  0.99112660202E+03  0.99112660202E+03  0.00000000000E+00 0. -1.
         -2   -1    0    0    0  501 -0.00000000000E+00 -0.00000000000E+00 -0.17145043987E+03  0.17145043987E+03  0.00000000000E+00 0.  1.
    9000007    1    1    2  502    0  0.15457465561E+02 -0.89830155998E+02  0.35306931890E+03  0.54126364566E+03  0.40000000000E+03 0. -1.
   -9000007    1    1    2    0  501 -0.15457465561E+02  0.89830155998E+02  0.46660684324E+03  0.62131339623E+03  0.40000000000E+03 0. -1.
<mgrwt>
<rscale>  2 0.41025406E+03</rscale>
<asrwt>0</asrwt>
<pdfrwt beam="1">  1        2 0.15248101E+00 0.41025406E+03</pdfrwt>
<pdfrwt beam="2">  1       -2 0.26376991E-01 0.41025406E+03</pdfrwt>
<totfact> 0.34132582E+02</totfact>
</mgrwt>
</event>
<event>
 4    1  0.2338029E-002  0.5406044E+03  0.7818608E-02  0.1003692E+00
         -2   -1    0    0    0  501 -0.00000000000E+00  0.00000000000E+00  0.17625687827E+03  0.17625687827E+03  0.00000000000E+00 0. -1.
          2   -1    0    0  502    0  0.00000000000E+00 -0.00000000000E+00 -0.25513088741E+04  0.25513088741E+04  0.00000000000E+00 0.  1.
    9000007    1    1    2  502    0 -0.27015468635E+03  0.24345348690E+03 -0.19944599455E+04  0.20664277459E+04  0.40000000000E+03 0.  1.
   -9000007    1    1    2    0  501  0.27015468635E+03 -0.24345348690E+03 -0.38059205035E+03  0.66113800650E+03  0.40000000000E+03 0. -1.
<mgrwt>
<rscale>  2 0.54060443E+03</rscale>
<asrwt>0</asrwt>
<pdfrwt beam="1">  1        2 0.39250903E+00 0.54060443E+03</pdfrwt>
<pdfrwt beam="2">  1       -2 0.27116445E-01 0.54060443E+03</pdfrwt>
<totfact> 0.43347732E+01</totfact>
</mgrwt>
</event>
<event>
 4    1  0.2338029E-002  0.6753809E+03  0.7818608E-02  0.9760286E-01
         -1   -1    0    0    0  501 -0.00000000000E+00  0.00000000000E+00  0.67388172214E+03  0.67388172214E+03  0.00000000000E+00 0.  1.
          1   -1    0    0  502    0  0.00000000000E+00 -0.00000000000E+00 -0.13590857770E+04  0.13590857770E+04  0.00000000000E+00 0. -1.
    9000007    1    1    2  502    0  0.50293381521E+03  0.20783863643E+03  0.37756566506E+03  0.77375393550E+03  0.40000000000E+03 0.  1.
   -9000007    1    1    2    0  501 -0.50293381521E+03 -0.20783863643E+03 -0.10627697199E+04  0.12592135636E+04  0.40000000000E+03 0. -1.
<mgrwt>
<rscale>  2 0.67538087E+03</rscale>
<asrwt>0</asrwt>
<pdfrwt beam="1">  1        1 0.20909012E+00 0.67538087E+03</pdfrwt>
<pdfrwt beam="2">  1       -1 0.10367411E+00 0.67538087E+03</pdfrwt>
<totfact> 0.75651949E+00</totfact>
</mgrwt>
</event>
<event>
 4    1  0.2338029E-002  0.4481646E+03  0.7818608E-02  0.1028271E+00
          2   -1    0    0  502    0  0.00000000000E+00  0.00000000000E+00  0.21366335362E+04  0.21366335362E+04  0.00000000000E+00 0.  1.
         -2   -1    0    0    0  501 -0.00000000000E+00 -0.00000000000E+00 -0.33328110590E+03  0.33328110590E+03  0.00000000000E+00 0. -1.
    9000007    1    1    2  502    0 -0.17103683226E+03 -0.10769379850E+03 -0.14472300668E+03  0.47095254632E+03  0.40000000000E+03 0. -1.
   -9000007    1    1    2    0  501  0.17103683226E+03  0.10769379850E+03  0.19480754369E+04  0.19989620958E+04  0.40000000000E+03 0.  1.
<mgrwt>
<rscale>  2 0.44816465E+03</rscale>
<asrwt>0</asrwt>
<pdfrwt beam="1">  1        2 0.32871284E+00 0.44816465E+03</pdfrwt>
<pdfrwt beam="2">  1       -2 0.51274018E-01 0.44816465E+03</pdfrwt>
<totfact> 0.22076061E+01</totfact>
</mgrwt>
</event>
<event>
 4    1  0.2338029E-002  0.4009793E+03  0.7818608E-02  0.1043441E+00
         -2   -1    0    0    0  501 -0.00000000000E+00  0.00000000000E+00  0.24093240614E+03  0.24093240614E+03  0.00000000000E+00 0. -1.
          2   -1    0    0  502    0  0.00000000000E+00 -0.00000000000E+00 -0.85372182318E+03  0.85372182318E+03  0.00000000000E+00 0.  1.
    9000007    1    1    2  502    0  0.27988094081E+02 -0.10413252708E+01 -0.50661152899E+02  0.40416700778E+03  0.40000000000E+03 0. -1.
   -9000007    1    1    2    0  501 -0.27988094081E+02  0.10413252708E+01 -0.56212826413E+03  0.69048722154E+03  0.40000000000E+03 0.  1.
<mgrwt>
<rscale>  2 0.40097932E+03</rscale>
<asrwt>0</asrwt>
<pdfrwt beam="1">  1        2 0.13134182E+00 0.40097932E+03</pdfrwt>
<pdfrwt beam="2">  1       -2 0.37066525E-01 0.40097932E+03</pdfrwt>
<totfact> 0.22364948E+02</totfact>
</mgrwt>
</event>
<event>
 4    1  0.2338029E-002  0.7667975E+03  0.7818608E-02  0.9609360E-01
         -2   -1    0    0    0  501 -0.00000000000E+00  0.00000000000E+00  0.18972572515E+03  0.18972572515E+03  0.00000000000E+00 0. -1.
          2   -1    0    0  502    0  0.00000000000E+00 -0.00000000000E+00 -0.31298945196E+04  0.31298945196E+04  0.00000000000E+00 0.  1.
    9000007    1    1    2  502    0  0.55244195741E+03 -0.35040866252E+03 -0.16347315968E+04  0.18056372118E+04  0.40000000000E+03 0. -1.
   -9000007    1    1    2    0  501 -0.55244195741E+03  0.35040866252E+03 -0.13054371977E+04  0.15139830330E+04  0.40000000000E+03 0. -1.
<mgrwt>
<rscale>  2 0.76679746E+03</rscale>
<asrwt>0</asrwt>
<pdfrwt beam="1">  1        2 0.48152222E+00 0.76679746E+03</pdfrwt>
<pdfrwt beam="2">  1       -2 0.29188574E-01 0.76679746E+03</pdfrwt>
<totfact> 0.16486204E+01</totfact>
</mgrwt>
</event>
<event>
 4    1  0.2338029E-002  0.5994524E+03  0.7818608E-02  0.9906543E-01
         -2   -1    0    0    0  501 -0.00000000000E+00  0.00000000000E+00  0.12739880152E+04  0.12739880152E+04  0.00000000000E+00 0.  1.
          2   -1    0    0  502    0  0.00000000000E+00 -0.00000000000E+00 -0.39743874633E+03  0.39743874633E+03  0.00000000000E+00 0. -1.
    9000007    1    1    2  502    0  0.21936276116E+03  0.38887415607E+03 -0.12004790269E+02  0.59957255210E+03  0.40000000000E+03 0. -1.
   -9000007    1    1    2    0  501 -0.21936276116E+03 -0.38887415607E+03  0.88855405911E+03  0.10718542094E+04  0.40000000000E+03 0.  1.
<mgrwt>
<rscale>  2 0.59945236E+03</rscale>
<asrwt>0</asrwt>
<pdfrwt beam="1">  1        2 0.61144423E-01 0.59945236E+03</pdfrwt>
<pdfrwt beam="2">  1       -2 0.19599815E+00 0.59945236E+03</pdfrwt>
<totfact> 0.11718048E+01</totfact>
</mgrwt>
</event>
<event>
 4    1  0.2338029E-002  0.5742583E+03  0.7818608E-02  0.9960300E-01
         -2   -1    0    0    0  501 -0.00000000000E+00  0.00000000000E+00  0.32227836898E+03  0.32227836898E+03  0.00000000000E+00 0. -1.
          2   -1    0    0  502    0  0.00000000000E+00 -0.00000000000E+00 -0.11843060743E+04  0.11843060743E+04  0.00000000000E+00 0.  1.
    9000007    1    1    2  502    0  0.38464177857E+03  0.14772718503E+03 -0.70880264053E+03  0.91223560676E+03  0.40000000000E+03 0.  1.
   -9000007    1    1    2    0  501 -0.38464177857E+03 -0.14772718503E+03 -0.15322506483E+03  0.59434883655E+03  0.40000000000E+03 0. -1.
<mgrwt>
<rscale>  2 0.57425832E+03</rscale>
<asrwt>0</asrwt>
<pdfrwt beam="1">  1        2 0.18220093E+00 0.57425832E+03</pdfrwt>
<pdfrwt beam="2">  1       -2 0.49581288E-01 0.57425832E+03</pdfrwt>
<totfact> 0.77030554E+01</totfact>
</mgrwt>
</event>
<event>
 4    1  0.2338029E-002  0.4154278E+03  0.7818608E-02  0.1038565E+00
         -2   -1    0    0    0  501 -0.00000000000E+00  0.00000000000E+00  0.17649801869E+03  0.17649801869E+03  0.00000000000E+00 0. -1.
          2   -1    0    0  502    0  0.00000000000E+00 -0.00000000000E+00 -0.11180367759E+04  0.11180367759E+04  0.00000000000E+00 0.  1.
    9000007    1    1    2  502    0  0.15261123453E+02 -0.11111864523E+03 -0.24153364032E+03  0.48054006556E+03  0.40000000000E+03 0. -1.
   -9000007    1    1    2    0  501 -0.15261123453E+02  0.11111864523E+03 -0.70000511694E+03  0.81399472907E+03  0.40000000000E+03 0.  1.
<mgrwt>
<rscale>  2 0.41542780E+03</rscale>
<asrwt>0</asrwt>
<pdfrwt beam="1">  1        2 0.17200565E+00 0.41542780E+03</pdfrwt>
<pdfrwt beam="2">  1       -2 0.27153542E-01 0.41542780E+03</pdfrwt>
<totfact> 0.27087776E+02</totfact>
</mgrwt>
</event>
<event>
 4    1  0.2338029E-002  0.4656438E+03  0.7818608E-02  0.1023157E+00
         -2   -1    0    0    0  501 -0.00000000000E+00  0.00000000000E+00  0.12659178595E+04  0.12659178595E+04  0.00000000000E+00 0. -1.
          2   -1    0    0  502    0  0.00000000000E+00 -0.00000000000E+00 -0.17194957505E+03  0.17194957505E+03  0.00000000000E+00 0.  1.
    9000007    1    1    2  502    0  0.22301033926E+03 -0.84205115424E+02  0.50206040631E+03  0.68475452862E+03  0.40000000000E+03 0. -1.
   -9000007    1    1    2    0  501 -0.22301033926E+03  0.84205115424E+02  0.59190787814E+03  0.75311290594E+03  0.40000000000E+03 0.  1.
<mgrwt>
<rscale>  2 0.46564376E+03</rscale>
<asrwt>0</asrwt>
<pdfrwt beam="1">  1        2 0.26453782E-01 0.46564376E+03</pdfrwt>
<pdfrwt beam="2">  1       -2 0.19475659E+00 0.46564376E+03</pdfrwt>
<totfact> 0.30785954E+01</totfact>
</mgrwt>
</event>
<event>
 4    1  0.2338029E-002  0.4696037E+03  0.7818608E-02  0.1022032E+00
          2   -1    0    0  502    0  0.00000000000E+00  0.00000000000E+00  0.11704148655E+04  0.11704148655E+04  0.00000000000E+00 0.  1.
         -2   -1    0    0    0  501 -0.00000000000E+00 -0.00000000000E+00 -0.19907603383E+03  0.19907603383E+03  0.00000000000E+00 0. -1.
    9000007    1    1    2  502    0 -0.47104266254E+02  0.24147222470E+03  0.64410433873E+03  0.79711858990E+03  0.40000000000E+03 0.  1.
   -9000007    1    1    2    0  501  0.47104266254E+02 -0.24147222470E+03  0.32723449291E+03  0.57237230939E+03  0.40000000000E+03 0. -1.
<mgrwt>
<rscale>  2 0.46960371E+03</rscale>
<asrwt>0</asrwt>
<pdfrwt beam="1">  1        2 0.18006382E+00 0.46960371E+03</pdfrwt>
<pdfrwt beam="2">  1       -2 0.30627083E-01 0.46960371E+03</pdfrwt>
<totfact> 0.20131146E+02</totfact>
</mgrwt>
</event>
<event>
 4    1  0.2338029E-002  0.4591764E+03  0.7818608E-02  0.1025020E+00
          2   -1    0    0  502    0  0.00000000000E+00  0.00000000000E+00  0.11421509281E+04  0.11421509281E+04  0.00000000000E+00 0. -1.
         -2   -1    0    0    0  501 -0.00000000000E+00 -0.00000000000E+00 -0.18730472831E+03  0.18730472831E+03  0.00000000000E+00 0.  1.
    9000007    1    1    2  502    0 -0.14856302289E+03 -0.16962298217E+03  0.55727772446E+03  0.72208129046E+03  0.40000000000E+03 0. -1.
   -9000007    1    1    2    0  501  0.14856302289E+03  0.16962298217E+03  0.39756847537E+03  0.60737436599E+03  0.40000000000E+03 0. -1.
<mgrwt>
<rscale>  2 0.45917636E+03</rscale>
<asrwt>0</asrwt>
<pdfrwt beam="1">  1        2 0.17571552E+00 0.45917636E+03</pdfrwt>
<pdfrwt beam="2">  1       -2 0.28816113E-01 0.45917636E+03</pdfrwt>
<totfact> 0.23423645E+02</totfact>
</mgrwt>
</event>
<event>
 4    1  0.2338029E-002  0.4032418E+03  0.7818608E-02  0.1042663E+00
          2   -1    0    0  502    0  0.00000000000E+00  0.00000000000E+00  0.25269830157E+03  0.25269830157E+03  0.00000000000E+00 0. -1.
         -2   -1    0    0    0  501 -0.00000000000E+00 -0.00000000000E+00 -0.74299051287E+03  0.74299051287E+03  0.00000000000E+00 0.  1.
    9000007    1    1    2  502    0  0.37562813920E+02 -0.34539677967E+02 -0.62942585914E+02  0.40812464207E+03  0.40000000000E+03 0. -1.
   -9000007    1    1    2    0  501 -0.37562813920E+02  0.34539677967E+02 -0.42734962538E+03  0.58756417237E+03  0.40000000000E+03 0.  1.
<mgrwt>
<rscale>  2 0.40324181E+03</rscale>
<asrwt>0</asrwt>
<pdfrwt beam="1">  1        2 0.38876662E-01 0.40324181E+03</pdfrwt>
<pdfrwt beam="2">  1       -2 0.11430623E+00 0.40324181E+03</pdfrwt>
<totfact> 0.82012311E+01</totfact>
</mgrwt>
</event>
<event>
 4    1  0.2338029E-002  0.1110132E+04  0.7818608E-02  0.9195372E-01
         -1   -1    0    0    0  501 -0.00000000000E+00  0.00000000000E+00  0.82034429003E+03  0.82034429003E+03  0.00000000000E+00 0.  1.
          1   -1    0    0  502    0  0.00000000000E+00 -0.00000000000E+00 -0.15492611521E+04  0.15492611521E+04  0.00000000000E+00 0. -1.
    9000007    1    1    2  502    0 -0.99678555202E+03  0.28073514170E+03 -0.15815472150E+03  0.11213414165E+04  0.40000000000E+03 0.  1.
   -9000007    1    1    2    0  501  0.99678555202E+03 -0.28073514170E+03 -0.57076214058E+03  0.12482640256E+04  0.40000000000E+03 0. -1.
<mgrwt>
<rscale>  2 0.11101323E+04</rscale>
<asrwt>0</asrwt>
<pdfrwt beam="1">  1        1 0.23834787E+00 0.11101323E+04</pdfrwt>
<pdfrwt beam="2">  1       -1 0.12620682E+00 0.11101323E+04</pdfrwt>
<totfact> 0.32789906E+00</totfact>
</mgrwt>
</event>
<event>
 4    1  0.2338029E-002  0.5309234E+03  0.7818608E-02  0.1006008E+00
         -2   -1    0    0    0  501 -0.00000000000E+00  0.00000000000E+00  0.62538736667E+03  0.62538736667E+03  0.00000000000E+00 0.  1.
          2   -1    0    0  502    0  0.00000000000E+00 -0.00000000000E+00 -0.52148066222E+03  0.52148066222E+03  0.00000000000E+00 0. -1.
    9000007    1    1    2  502    0  0.15914009635E+02  0.34874975536E+03 -0.15926686797E+03  0.55429737759E+03  0.40000000000E+03 0.  1.
   -9000007    1    1    2    0  501 -0.15914009635E+02 -0.34874975536E+03  0.26317357242E+03  0.59257065131E+03  0.40000000000E+03 0. -1.
<mgrwt>
<rscale>  2 0.53092339E+03</rscale>
<asrwt>0</asrwt>
<pdfrwt beam="1">  1        2 0.80227794E-01 0.53092339E+03</pdfrwt>
<pdfrwt beam="2">  1       -2 0.96213441E-01 0.53092339E+03</pdfrwt>
<totfact> 0.54583443E+01</totfact>
</mgrwt>
</event>
<event>
 4    1  0.2338029E-002  0.4939332E+03  0.7818608E-02  0.1015375E+00
          2   -1    0    0  502    0  0.00000000000E+00  0.00000000000E+00  0.66233101028E+03  0.66233101028E+03  0.00000000000E+00 0.  1.
         -2   -1    0    0    0  501 -0.00000000000E+00 -0.00000000000E+00 -0.38011762397E+03  0.38011762397E+03  0.00000000000E+00 0. -1.
    9000007    1    1    2  502    0  0.28949512595E+03 -0.12750399030E+02  0.49400288909E+02  0.49639741052E+03  0.40000000000E+03 0. -1.
   -9000007    1    1    2    0  501 -0.28949512595E+03  0.12750399030E+02  0.23281309740E+03  0.54605122374E+03  0.40000000000E+03 0.  1.
<mgrwt>
<rscale>  2 0.49393319E+03</rscale>
<asrwt>0</asrwt>
<pdfrwt beam="1">  1        2 0.10189708E+00 0.49393319E+03</pdfrwt>
<pdfrwt beam="2">  1       -2 0.58479634E-01 0.49393319E+03</pdfrwt>
<totfact> 0.12358266E+02</totfact>
</mgrwt>
</event>
<event>
 4    1  0.2338029E-002  0.7130874E+03  0.7818608E-02  0.9695109E-01
         -2   -1    0    0    0  501 -0.00000000000E+00  0.00000000000E+00  0.19518335528E+03  0.19518335528E+03  0.00000000000E+00 0. -1.
          2   -1    0    0  502    0  0.00000000000E+00 -0.00000000000E+00 -0.26636659631E+04  0.26636659631E+04  0.00000000000E+00 0.  1.
    9000007    1    1    2  502    0 -0.59012393919E+03 -0.15727721654E+02 -0.10224852288E+04  0.12465831974E+04  0.40000000000E+03 0. -1.
   -9000007    1    1    2    0  501  0.59012393919E+03  0.15727721654E+02 -0.14459973791E+04  0.16122661210E+04  0.40000000000E+03 0.  1.
<mgrwt>
<rscale>  2 0.71308739E+03</rscale>
<asrwt>0</asrwt>
<pdfrwt beam="1">  1        2 0.40979474E+00 0.71308739E+03</pdfrwt>
<pdfrwt beam="2">  1       -2 0.30028210E-01 0.71308739E+03</pdfrwt>
<totfact> 0.30088243E+01</totfact>
</mgrwt>
</event>
<event>
 4    1  0.2338029E-002  0.4525475E+03  0.7818608E-02  0.1026965E+00
         -1   -1    0    0    0  501 -0.00000000000E+00  0.00000000000E+00  0.13207820236E+03  0.13207820236E+03  0.00000000000E+00 0. -1.
          1   -1    0    0  502    0  0.00000000000E+00 -0.00000000000E+00 -0.17614119026E+04  0.17614119026E+04  0.00000000000E+00 0.  1.
    9000007    1    1    2  502    0  0.11157673784E+03  0.17986081983E+03 -0.11422030672E+04  0.12285874530E+04  0.40000000000E+03 0. -1.
   -9000007    1    1    2    0  501 -0.11157673784E+03 -0.17986081983E+03 -0.48713063301E+03  0.66490265194E+03  0.40000000000E+03 0. -1.
<mgrwt>
<rscale>  2 0.45254755E+03</rscale>
<asrwt>0</asrwt>
<pdfrwt beam="1">  1        1 0.27098642E+00 0.45254755E+03</pdfrwt>
<pdfrwt beam="2">  1       -1 0.20319725E-01 0.45254755E+03</pdfrwt>
<totfact> 0.91865693E+01</totfact>
</mgrwt>
</event>
<event>
 4    1  0.2338029E-002  0.5643870E+03  0.7818608E-02  0.9982177E-01
          1   -1    0    0  502    0  0.00000000000E+00  0.00000000000E+00  0.12811045385E+04  0.12811045385E+04  0.00000000000E+00 0.  1.
         -1   -1    0    0    0  501 -0.00000000000E+00 -0.00000000000E+00 -0.24874335628E+03  0.24874335628E+03  0.00000000000E+00 0. -1.
    9000007    1    1    2  502    0  0.26532752414E+03 -0.29687371487E+03  0.53183959292E+03  0.77549084472E+03  0.40000000000E+03 0.  1.
   -9000007    1    1    2    0  501 -0.26532752414E+03  0.29687371487E+03  0.50052158934E+03  0.75435705010E+03  0.40000000000E+03 0.  1.
<mgrwt>
<rscale>  2 0.56438701E+03</rscale>
<asrwt>0</asrwt>
<pdfrwt beam="1">  1        1 0.19709300E+00 0.56438701E+03</pdfrwt>
<pdfrwt beam="2">  1       -1 0.38268209E-01 0.56438701E+03</pdfrwt>
<totfact> 0.64472306E+01</totfact>
</mgrwt>
</event>
<event>
 4    1  0.2338029E-002  0.4073075E+03  0.7818608E-02  0.1041278E+00
          2   -1    0    0  502    0  0.00000000000E+00  0.00000000000E+00  0.16992630106E+04  0.16992630106E+04  0.00000000000E+00 0.  1.
         -2   -1    0    0    0  501 -0.00000000000E+00 -0.00000000000E+00 -0.10382964589E+03  0.10382964589E+03  0.00000000000E+00 0. -1.
    9000007    1    1    2  502    0 -0.56969225053E+02  0.51516450131E+02  0.10180107365E+04  0.10964694692E+04  0.40000000000E+03 0.  1.
   -9000007    1    1    2    0  501  0.56969225053E+02 -0.51516450131E+02  0.57742262816E+03  0.70662318724E+03  0.40000000000E+03 0. -1.
<mgrwt>
<rscale>  2 0.40730755E+03</rscale>
<asrwt>0</asrwt>
<pdfrwt beam="1">  1        2 0.26142506E+00 0.40730755E+03</pdfrwt>
<pdfrwt beam="2">  1       -2 0.15973793E-01 0.40730755E+03</pdfrwt>
<totfact> 0.32439780E+02</totfact>
</mgrwt>
</event>
<event>
 4    1  0.2338029E-002  0.4461452E+03  0.7818608E-02  0.1028878E+00
          2   -1    0    0  502    0  0.00000000000E+00  0.00000000000E+00  0.72453100711E+03  0.72453100711E+03  0.00000000000E+00 0. -1.
         -2   -1    0    0    0  501 -0.00000000000E+00 -0.00000000000E+00 -0.39412633476E+03  0.39412633476E+03  0.00000000000E+00 0.  1.
    9000007    1    1    2  502    0 -0.24552481315E+02  0.19606806581E+03  0.47306507836E+03  0.65025847102E+03  0.40000000000E+03 0. -1.
   -9000007    1    1    2    0  501  0.24552481315E+02 -0.19606806581E+03 -0.14266040601E+03  0.46839887085E+03  0.40000000000E+03 0.  1.
<mgrwt>
<rscale>  2 0.44614517E+03</rscale>
<asrwt>0</asrwt>
<pdfrwt beam="1">  1        2 0.11146631E+00 0.44614517E+03</pdfrwt>
<pdfrwt beam="2">  1       -2 0.60634821E-01 0.44614517E+03</pdfrwt>
<totfact> 0.10295259E+02</totfact>
</mgrwt>
</event>
<event>
 4    1  0.2338029E-002  0.4132445E+03  0.7818608E-02  0.1039288E+00
         -1   -1    0    0    0  501 -0.00000000000E+00  0.00000000000E+00  0.33114224294E+03  0.33114224294E+03  0.00000000000E+00 0. -1.
          1   -1    0    0  502    0  0.00000000000E+00 -0.00000000000E+00 -0.58627436172E+03  0.58627436172E+03  0.00000000000E+00 0.  1.
    9000007    1    1    2  502    0  0.10356407974E+03  0.67426810482E+01  0.31581876049E+02  0.41444951111E+03  0.40000000000E+03 0. -1.
   -9000007    1    1    2    0  501 -0.10356407974E+03 -0.67426810482E+01 -0.28671399484E+03  0.50296709355E+03  0.40000000000E+03 0.  1.
<mgrwt>
<rscale>  2 0.41324446E+03</rscale>
<asrwt>0</asrwt>
<pdfrwt beam="1">  1        1 0.90196054E-01 0.41324446E+03</pdfrwt>
<pdfrwt beam="2">  1       -1 0.50944961E-01 0.41324446E+03</pdfrwt>
<totfact> 0.14312318E+02</totfact>
</mgrwt>
</event>
<event>
 4    1  0.2338029E-002  0.5179607E+03  0.7818608E-02  0.1009194E+00
         -2   -1    0    0    0  501 -0.00000000000E+00  0.00000000000E+00  0.51591733885E+03  0.51591733885E+03  0.00000000000E+00 0. -1.
          2   -1    0    0  502    0  0.00000000000E+00 -0.00000000000E+00 -0.59083973680E+03  0.59083973680E+03  0.00000000000E+00 0.  1.
    9000007    1    1    2  502    0  0.25215284161E+03 -0.21142908706E+03  0.15413571468E+03  0.54040830205E+03  0.40000000000E+03 0. -1.
   -9000007    1    1    2    0  501 -0.25215284161E+03  0.21142908706E+03 -0.22905811264E+03  0.56634877359E+03  0.40000000000E+03 0.  1.
<mgrwt>
<rscale>  2 0.51796073E+03</rscale>
<asrwt>0</asrwt>
<pdfrwt beam="1">  1        2 0.90898421E-01 0.51796073E+03</pdfrwt>
<pdfrwt beam="2">  1       -2 0.79371898E-01 0.51796073E+03</pdfrwt>
<totfact> 0.73206194E+01</totfact>
</mgrwt>
</event>
<event>
 4    1  0.2338029E-002  0.7153474E+03  0.7818608E-02  0.9691340E-01
         -2   -1    0    0    0  501 -0.00000000000E+00  0.00000000000E+00  0.50019064691E+03  0.50019064691E+03  0.00000000000E+00 0. -1.
          2   -1    0    0  502    0  0.00000000000E+00 -0.00000000000E+00 -0.10639665798E+04  0.10639665798E+04  0.00000000000E+00 0.  1.
    9000007    1    1    2  502    0  0.24819306069E+03 -0.53862990809E+03 -0.43524919510E+03  0.83735526218E+03  0.40000000000E+03 0. -1.
   -9000007    1    1    2    0  501 -0.24819306069E+03  0.53862990809E+03 -0.12852673776E+03  0.72680196449E+03  0.40000000000E+03 0.  1.
<mgrwt>
<rscale>  2 0.71534745E+03</rscale>
<asrwt>0</asrwt>
<pdfrwt beam="1">  1        2 0.16368717E+00 0.71534745E+03</pdfrwt>
<pdfrwt beam="2">  1       -2 0.76952408E-01 0.71534745E+03</pdfrwt>
<totfact> 0.35292522E+01</totfact>
</mgrwt>
</event>
<event>
 4    1  0.2338029E-002  0.5251155E+03  0.7818608E-02  0.1007424E+00
         -1   -1    0    0    0  501 -0.00000000000E+00  0.00000000000E+00  0.58160848156E+03  0.58160848156E+03  0.00000000000E+00 0.  1.
          1   -1    0    0  502    0  0.00000000000E+00 -0.00000000000E+00 -0.50347566166E+03  0.50347566166E+03  0.00000000000E+00 0. -1.
    9000007    1    1    2  502    0 -0.32345225588E+03  0.10547472660E+03  0.17009484944E+03  0.55197693574E+03  0.40000000000E+03 0.  1.
   -9000007    1    1    2    0  501  0.32345225588E+03 -0.10547472660E+03 -0.91962029547E+02  0.53310720748E+03  0.40000000000E+03 0. -1.
<mgrwt>
<rscale>  2 0.52511549E+03</rscale>
<asrwt>0</asrwt>
<pdfrwt beam="1">  1        1 0.77457794E-01 0.52511549E+03</pdfrwt>
<pdfrwt beam="2">  1       -1 0.89478228E-01 0.52511549E+03</pdfrwt>
<totfact> 0.56047457E+01</totfact>
</mgrwt>
</event>
<event>
 4    1  0.2338029E-002  0.5590918E+03  0.7818608E-02  0.9994112E-01
         -2   -1    0    0    0  501 -0.00000000000E+00  0.00000000000E+00  0.76379192643E+03  0.76379192643E+03  0.00000000000E+00 0.  1.
          2   -1    0    0  502    0  0.00000000000E+00 -0.00000000000E+00 -0.47448078144E+03  0.47448078144E+03  0.00000000000E+00 0. -1.
    9000007    1    1    2  502    0 -0.25506282427E+03 -0.29584885475E+03  0.37421529162E+03  0.67277089240E+03  0.40000000000E+03 0.  1.
   -9000007    1    1    2    0  501  0.25506282427E+03  0.29584885475E+03 -0.84904146639E+02  0.56550181547E+03  0.40000000000E+03 0. -1.
<mgrwt>
<rscale>  2 0.55909175E+03</rscale>
<asrwt>0</asrwt>
<pdfrwt beam="1">  1        2 0.72997043E-01 0.55909175E+03</pdfrwt>
<pdfrwt beam="2">  1       -2 0.11750645E+00 0.55909175E+03</pdfrwt>
<totfact> 0.37624472E+01</totfact>
</mgrwt>
</event>
<event>
 4    1  0.2338029E-002  0.4490538E+03  0.7818608E-02  0.1028005E+00
          1   -1    0    0  502    0  0.00000000000E+00  0.00000000000E+00  0.19927308734E+03  0.19927308734E+03  0.00000000000E+00 0.  1.
         -1   -1    0    0    0  501 -0.00000000000E+00 -0.00000000000E+00 -0.10125046499E+04  0.10125046499E+04  0.00000000000E+00 0. -1.
    9000007    1    1    2  502    0 -0.18801462313E+03  0.79371209463E+02 -0.42112100521E+03  0.61562341446E+03  0.40000000000E+03 0. -1.
   -9000007    1    1    2    0  501  0.18801462313E+03 -0.79371209463E+02 -0.39211055739E+03  0.59615432282E+03  0.40000000000E+03 0. -1.
<mgrwt>
<rscale>  2 0.44905377E+03</rscale>
<asrwt>0</asrwt>
<pdfrwt beam="1">  1        1 0.30657398E-01 0.44905377E+03</pdfrwt>
<pdfrwt beam="2">  1       -1 0.15576995E+00 0.44905377E+03</pdfrwt>
<totfact> 0.49408975E+01</totfact>
</mgrwt>
</event>
<event>
 4    1  0.2338029E-002  0.5168567E+03  0.7818608E-02  0.1009470E+00
         -4   -1    0    0    0  501 -0.00000000000E+00  0.00000000000E+00  0.49765230640E+03  0.49765230640E+03  0.00000000000E+00 0. -1.
          4   -1    0    0  502    0  0.00000000000E+00 -0.00000000000E+00 -0.58131536871E+03  0.58131536871E+03  0.00000000000E+00 0.  1.
    9000007    1    1    2  502    0 -0.18923170550E+03 -0.26708094231E+03 -0.19111669263E+03  0.55105939636E+03  0.40000000000E+03 0.  1.
   -9000007    1    1    2    0  501  0.18923170550E+03  0.26708094231E+03  0.10745363031E+03  0.52790827876E+03  0.40000000000E+03 0. -1.
<mgrwt>
<rscale>  2 0.51685672E+03</rscale>
<asrwt>0</asrwt>
<pdfrwt beam="1">  1        4 0.89433134E-01 0.51685672E+03</pdfrwt>
<pdfrwt beam="2">  1       -4 0.76561893E-01 0.51685672E+03</pdfrwt>
<totfact> 0.32076884E+00</totfact>
</mgrwt>
</event>
<event>
 4    1  0.2338029E-002  0.4898808E+03  0.7818608E-02  0.1016454E+00
          2   -1    0    0  502    0  0.00000000000E+00  0.00000000000E+00  0.76379679252E+03  0.76379679252E+03  0.00000000000E+00 0.  1.
         -2   -1    0    0    0  501 -0.00000000000E+00 -0.00000000000E+00 -0.34816397528E+03  0.34816397528E+03  0.00000000000E+00 0. -1.
    9000007    1    1    2  502    0  0.21730782363E+03  0.18099862256E+03  0.38147311026E+03  0.62089042949E+03  0.40000000000E+03 0.  1.
   -9000007    1    1    2    0  501 -0.21730782363E+03 -0.18099862256E+03  0.34159706978E+02  0.49107033830E+03  0.40000000000E+03 0. -1.
<mgrwt>
<rscale>  2 0.48988079E+03</rscale>
<asrwt>0</asrwt>
<pdfrwt beam="1">  1        2 0.11750720E+00 0.48988079E+03</pdfrwt>
<pdfrwt beam="2">  1       -2 0.53563689E-01 0.48988079E+03</pdfrwt>
<totfact> 0.12401486E+02</totfact>
</mgrwt>
</event>
<event>
 4    1  0.2338029E-002  0.4172575E+03  0.7818608E-02  0.1037963E+00
         -2   -1    0    0    0  501 -0.00000000000E+00  0.00000000000E+00  0.36295013397E+03  0.36295013397E+03  0.00000000000E+00 0.  1.
          2   -1    0    0  502    0  0.00000000000E+00 -0.00000000000E+00 -0.16573857556E+04  0.16573857556E+04  0.00000000000E+00 0. -1.
    9000007    1    1    2  502    0 -0.11589503609E+03 -0.25926752532E+02  0.20430871574E+03  0.46459219453E+03  0.40000000000E+03 0.  1.
   -9000007    1    1    2    0  501  0.11589503609E+03  0.25926752532E+02 -0.14987443374E+04  0.15557436951E+04  0.40000000000E+03 0. -1.
<mgrwt>
<rscale>  2 0.41725754E+03</rscale>
<asrwt>0</asrwt>
<pdfrwt beam="1">  1        2 0.25498242E+00 0.41725754E+03</pdfrwt>
<pdfrwt beam="2">  1       -2 0.55838482E-01 0.41725754E+03</pdfrwt>
<totfact> 0.33733989E+01</totfact>
</mgrwt>
</event>
<event>
 4    1  0.2338029E-002  0.4379531E+03  0.7818608E-02  0.1031377E+00
         -1   -1    0    0    0  501 -0.00000000000E+00  0.00000000000E+00  0.13953982290E+03  0.13953982290E+03  0.00000000000E+00 0.  1.
          1   -1    0    0  502    0  0.00000000000E+00 -0.00000000000E+00 -0.16946803503E+04  0.16946803503E+04  0.00000000000E+00 0. -1.
    9000007    1    1    2  502    0  0.10023937412E+03 -0.14749559025E+03 -0.37895980505E+03  0.57914887129E+03  0.40000000000E+03 0.  1.
   -9000007    1    1    2    0  501 -0.10023937412E+03  0.14749559025E+03 -0.11761807224E+04  0.12550713019E+04  0.40000000000E+03 0. -1.
<mgrwt>
<rscale>  2 0.43795306E+03</rscale>
<asrwt>0</asrwt>
<pdfrwt beam="1">  1        1 0.26072006E+00 0.43795306E+03</pdfrwt>
<pdfrwt beam="2">  1       -1 0.21467664E-01 0.43795306E+03</pdfrwt>
<totfact> 0.93082673E+01</totfact>
</mgrwt>
</event>
<event>
 4    1  0.2338029E-002  0.4252403E+03  0.7818608E-02  0.1035374E+00
         -2   -1    0    0    0  501 -0.00000000000E+00  0.00000000000E+00  0.91729394043E+02  0.91729394043E+02  0.00000000000E+00 0. -1.
          2   -1    0    0  502    0  0.00000000000E+00 -0.00000000000E+00 -0.19906007538E+04  0.19906007538E+04  0.00000000000E+00 0.  1.
    9000007    1    1    2  502    0 -0.13755113748E+03 -0.43692517959E+02 -0.84700686082E+03  0.94776050447E+03  0.40000000000E+03 0. -1.
   -9000007    1    1    2    0  501  0.13755113748E+03  0.43692517959E+02 -0.10518644989E+04  0.11345696433E+04  0.40000000000E+03 0.  1.
<mgrwt>
<rscale>  2 0.42524035E+03</rscale>
<asrwt>0</asrwt>
<pdfrwt beam="1">  1        2 0.30624623E+00 0.42524035E+03</pdfrwt>
<pdfrwt beam="2">  1       -2 0.14112216E-01 0.42524035E+03</pdfrwt>
<totfact> 0.27822525E+02</totfact>
</mgrwt>
</event>
<event>
 4    1  0.2338029E-002  0.4805540E+03  0.7818608E-02  0.1018983E+00
         -1   -1    0    0    0  501 -0.00000000000E+00  0.00000000000E+00  0.92203821307E+02  0.92203821307E+02  0.00000000000E+00 0. -1.
          1   -1    0    0  502    0  0.00000000000E+00 -0.00000000000E+00 -0.25580203732E+04  0.25580203732E+04  0.00000000000E+00 0.  1.
    9000007    1    1    2  502    0  0.21914922071E+03  0.15134643871E+03 -0.10413843310E+04  0.11469147528E+04  0.40000000000E+03 0. -1.
   -9000007    1    1    2    0  501 -0.21914922071E+03 -0.15134643871E+03 -0.14244322209E+04  0.15033094417E+04  0.40000000000E+03 0.  1.
<mgrwt>
<rscale>  2 0.48055398E+03</rscale>
<asrwt>0</asrwt>
<pdfrwt beam="1">  1        1 0.39354165E+00 0.48055398E+03</pdfrwt>
<pdfrwt beam="2">  1       -1 0.14185201E-01 0.48055398E+03</pdfrwt>
<totfact> 0.48463074E+01</totfact>
</mgrwt>
</event>
<event>
 4    1  0.2338029E-002  0.4524188E+03  0.7818608E-02  0.1027003E+00
          2   -1    0    0  502    0  0.00000000000E+00  0.00000000000E+00  0.14251159009E+04  0.14251159009E+04  0.00000000000E+00 0.  1.
         -2   -1    0    0    0  501 -0.00000000000E+00 -0.00000000000E+00 -0.31457083028E+03  0.31457083028E+03  0.00000000000E+00 0. -1.
    9000007    1    1    2  502    0 -0.17730733427E+03 -0.11508626292E+03 -0.85952795682E+02  0.46051126130E+03  0.40000000000E+03 0. -1.
   -9000007    1    1    2    0  501  0.17730733427E+03  0.11508626292E+03  0.11964978663E+04  0.12791754699E+04  0.40000000000E+03 0.  1.
<mgrwt>
<rscale>  2 0.45241876E+03</rscale>
<asrwt>0</asrwt>
<pdfrwt beam="1">  1        2 0.21924860E+00 0.45241876E+03</pdfrwt>
<pdfrwt beam="2">  1       -2 0.48395513E-01 0.45241876E+03</pdfrwt>
<totfact> 0.59974813E+01</totfact>
</mgrwt>
</event>
<event>
 4    1  0.2338029E-002  0.4930162E+03  0.7818608E-02  0.1015618E+00
         -2   -1    0    0    0  501 -0.00000000000E+00  0.00000000000E+00  0.25246638436E+03  0.25246638436E+03  0.00000000000E+00 0.  1.
          2   -1    0    0  502    0  0.00000000000E+00 -0.00000000000E+00 -0.98653497980E+03  0.98653497980E+03  0.00000000000E+00 0. -1.
    9000007    1    1    2  502    0 -0.44987533888E+02  0.28467709795E+03 -0.46320248671E+03  0.67647725164E+03  0.40000000000E+03 0. -1.
   -9000007    1    1    2    0  501  0.44987533888E+02 -0.28467709795E+03 -0.27086610873E+03  0.56252411251E+03  0.40000000000E+03 0.  1.
<mgrwt>
<rscale>  2 0.49301615E+03</rscale>
<asrwt>0</asrwt>
<pdfrwt beam="1">  1        2 0.15177461E+00 0.49301615E+03</pdfrwt>
<pdfrwt beam="2">  1       -2 0.38840982E-01 0.49301615E+03</pdfrwt>
<totfact> 0.16599590E+02</totfact>
</mgrwt>
</event>
<event>
 4    1  0.2338029E-002  0.5768421E+03  0.7818608E-02  0.9954651E-01
          1   -1    0    0  502    0  0.00000000000E+00  0.00000000000E+00  0.18697519338E+04  0.18697519338E+04  0.00000000000E+00 0. -1.
         -1   -1    0    0    0  501 -0.00000000000E+00 -0.00000000000E+00 -0.19675511853E+03  0.19675511853E+03  0.00000000000E+00 0.  1.
    9000007    1    1    2  502    0  0.41455808422E+03  0.29806452356E+02  0.51717502617E+03  0.77473662459E+03  0.40000000000E+03 0.  1.
   -9000007    1    1    2    0  501 -0.41455808422E+03 -0.29806452356E+02  0.11558217891E+04  0.12917704277E+04  0.40000000000E+03 0. -1.
<mgrwt>
<rscale>  2 0.57684212E+03</rscale>
<asrwt>0</asrwt>
<pdfrwt beam="1">  1        1 0.28765413E+00 0.57684212E+03</pdfrwt>
<pdfrwt beam="2">  1       -1 0.30270020E-01 0.57684212E+03</pdfrwt>
<totfact> 0.38864892E+01</totfact>
</mgrwt>
</event>
<event>
 4    1  0.2338029E-002  0.4285766E+03  0.7818608E-02  0.1034311E+00
          2   -1    0    0  502    0  0.00000000000E+00  0.00000000000E+00  0.50303463376E+03  0.50303463376E+03  0.00000000000E+00 0. -1.
         -2   -1    0    0    0  501 -0.00000000000E+00 -0.00000000000E+00 -0.38872646995E+03  0.38872646995E+03  0.00000000000E+00 0.  1.
    9000007    1    1    2  502    0  0.15105270879E+03  0.29342356087E+02  0.16698663643E+03  0.45995916280E+03  0.40000000000E+03 0. -1.
   -9000007    1    1    2    0  501 -0.15105270879E+03 -0.29342356087E+02 -0.52678472620E+02  0.43180194091E+03  0.40000000000E+03 0.  1.
<mgrwt>
<rscale>  2 0.42857659E+03</rscale>
<asrwt>0</asrwt>
<pdfrwt beam="1">  1        2 0.77389944E-01 0.42857659E+03</pdfrwt>
<pdfrwt beam="2">  1       -2 0.59804072E-01 0.42857659E+03</pdfrwt>
<totfact> 0.16399441E+02</totfact>
</mgrwt>
</event>
<event>
 4    1  0.2338029E-002  0.6185381E+03  0.7818608E-02  0.9867675E-01
         -2   -1    0    0    0  501 -0.00000000000E+00  0.00000000000E+00  0.12842540436E+04  0.12842540436E+04  0.00000000000E+00 0.  1.
          2   -1    0    0  502    0  0.00000000000E+00 -0.00000000000E+00 -0.11022653127E+04  0.11022653127E+04  0.00000000000E+00 0. -1.
    9000007    1    1    2  502    0 -0.27860930600E+03  0.38074433551E+03  0.11103281904E+04  0.12709909853E+04  0.40000000000E+03 0.  1.
   -9000007    1    1    2    0  501  0.27860930600E+03 -0.38074433551E+03 -0.92833945948E+03  0.11155283710E+04  0.40000000000E+03 0. -1.
<mgrwt>
<rscale>  2 0.61853811E+03</rscale>
<asrwt>0</asrwt>
<pdfrwt beam="1">  1        2 0.16957928E+00 0.61853811E+03</pdfrwt>
<pdfrwt beam="2">  1       -2 0.19757754E+00 0.61853811E+03</pdfrwt>
<totfact> 0.31411240E+00</totfact>
</mgrwt>
</event>
<event>
 4    1  0.2338029E-002  0.4734777E+03  0.7818608E-02  0.1020943E+00
         -1   -1    0    0    0  501 -0.00000000000E+00  0.00000000000E+00  0.27472693172E+03  0.27472693172E+03  0.00000000000E+00 0. -1.
          1   -1    0    0  502    0  0.00000000000E+00 -0.00000000000E+00 -0.10760871455E+04  0.10760871455E+04  0.00000000000E+00 0.  1.
    9000007    1    1    2  502    0 -0.11823241961E+03  0.22405861222E+03 -0.68641045833E+02  0.47842738208E+03  0.40000000000E+03 0. -1.
   -9000007    1    1    2    0  501  0.11823241961E+03 -0.22405861222E+03 -0.73271916791E+03  0.87238669510E+03  0.40000000000E+03 0.  1.
<mgrwt>
<rscale>  2 0.47347774E+03</rscale>
<asrwt>0</asrwt>
<pdfrwt beam="1">  1        1 0.16555187E+00 0.47347774E+03</pdfrwt>
<pdfrwt beam="2">  1       -1 0.42265682E-01 0.47347774E+03</pdfrwt>
<totfact> 0.76672520E+01</totfact>
</mgrwt>
</event>
<event>
 4    1  0.2338029E-002  0.4237178E+03  0.7818608E-02  0.1035863E+00
          2   -1    0    0  502    0  0.00000000000E+00  0.00000000000E+00  0.35243539798E+03  0.35243539798E+03  0.00000000000E+00 0.  1.
         -2   -1    0    0    0  501 -0.00000000000E+00 -0.00000000000E+00 -0.51092116873E+03  0.51092116873E+03  0.00000000000E+00 0. -1.
    9000007    1    1    2  502    0  0.67748013163E+02 -0.12225779679E+03 -0.10266133733E+03  0.43597719246E+03  0.40000000000E+03 0. -1.
   -9000007    1    1    2    0  501 -0.67748013163E+02  0.12225779679E+03 -0.55824433429E+02  0.42737937425E+03  0.40000000000E+03 0.  1.
<mgrwt>
<rscale>  2 0.42371779E+03</rscale>
<asrwt>0</asrwt>
<pdfrwt beam="1">  1        2 0.54220830E-01 0.42371779E+03</pdfrwt>
<pdfrwt beam="2">  1       -2 0.78603257E-01 0.42371779E+03</pdfrwt>
<totfact> 0.13543126E+02</totfact>
</mgrwt>
</event>
<event>
 4    1  0.2338029E-002  0.5053113E+03  0.7818608E-02  0.1012402E+00
          2   -1    0    0  502    0  0.00000000000E+00  0.00000000000E+00  0.29925341523E+04  0.29925341523E+04  0.00000000000E+00 0.  1.
         -2   -1    0    0    0  501 -0.00000000000E+00 -0.00000000000E+00 -0.85417432234E+02  0.85417432234E+02  0.00000000000E+00 0. -1.
    9000007    1    1    2  502    0  0.22222896538E+03 -0.21436829384E+03  0.14030703819E+04  0.14912900372E+04  0.40000000000E+03 0.  1.
   -9000007    1    1    2    0  501 -0.22222896538E+03  0.21436829384E+03  0.15040463382E+04  0.15866615474E+04  0.40000000000E+03 0.  1.
<mgrwt>
<rscale>  2 0.50531127E+03</rscale>
<asrwt>0</asrwt>
<pdfrwt beam="1">  1        2 0.46038979E+00 0.50531127E+03</pdfrwt>
<pdfrwt beam="2">  1       -2 0.13141146E-01 0.50531127E+03</pdfrwt>
<totfact> 0.84523187E+01</totfact>
</mgrwt>
</event>
<event>
 4    1  0.2338029E-002  0.5826878E+03  0.7818608E-02  0.9941989E-01
          2   -1    0    0  502    0  0.00000000000E+00  0.00000000000E+00  0.25991905177E+04  0.25991905177E+04  0.00000000000E+00 0. -1.
         -2   -1    0    0    0  501 -0.00000000000E+00 -0.00000000000E+00 -0.13824842163E+03  0.13824842163E+03  0.00000000000E+00 0.  1.
    9000007    1    1    2  502    0 -0.28652421188E+03 -0.31213609140E+03  0.90910815413E+03  0.10798160489E+04  0.40000000000E+03 0.  1.
   -9000007    1    1    2    0  501  0.28652421188E+03  0.31213609140E+03  0.15518339420E+04  0.16576228905E+04  0.40000000000E+03 0. -1.
<mgrwt>
<rscale>  2 0.58268779E+03</rscale>
<asrwt>0</asrwt>
<pdfrwt beam="1">  1        2 0.39987543E+00 0.58268779E+03</pdfrwt>
<pdfrwt beam="2">  1       -2 0.21268990E-01 0.58268779E+03</pdfrwt>
<totfact> 0.62347413E+01</totfact>
</mgrwt>
</event>
<event>
 4    1  0.2338029E-002  0.4765725E+03  0.7818608E-02  0.1020081E+00
          1   -1    0    0  502    0  0.00000000000E+00  0.00000000000E+00  0.27521761680E+03  0.27521761680E+03  0.00000000000E+00 0.  1.
         -1   -1    0    0    0  501 -0.00000000000E+00 -0.00000000000E+00 -0.84277144726E+03  0.84277144726E+03  0.00000000000E+00 0. -1.
    9000007    1    1    2  502    0  0.15866830431E+03 -0.20480648437E+03 -0.20315962465E+03  0.51806868263E+03  0.40000000000E+03 0. -1.
   -9000007    1    1    2    0  501 -0.15866830431E+03  0.20480648437E+03 -0.36439420581E+03  0.59992038144E+03  0.40000000000E+03 0. -1.
<mgrwt>
<rscale>  2 0.47657248E+03</rscale>
<asrwt>0</asrwt>
<pdfrwt beam="1">  1        1 0.42341172E-01 0.47657248E+03</pdfrwt>
<pdfrwt beam="2">  1       -1 0.12965714E+00 0.47657248E+03</pdfrwt>
<totfact> 0.52427517E+01</totfact>
</mgrwt>
</event>
<event>
 4    1  0.2338029E-002  0.4035415E+03  0.7818608E-02  0.1042560E+00
         -1   -1    0    0    0  501 -0.00000000000E+00  0.00000000000E+00  0.69835135977E+03  0.69835135977E+03  0.00000000000E+00 0.  1.
          1   -1    0    0  502    0  0.00000000000E+00 -0.00000000000E+00 -0.25918934682E+03  0.25918934682E+03  0.00000000000E+00 0. -1.
    9000007    1    1    2  502    0  0.91211071168E+01  0.52560305337E+02  0.37122773999E+03  0.54832090534E+03  0.40000000000E+03 0.  1.
   -9000007    1    1    2    0  501 -0.91211071168E+01 -0.52560305337E+02  0.67934272960E+02  0.40921980125E+03  0.40000000000E+03 0. -1.
<mgrwt>
<rscale>  2 0.40354155E+03</rscale>
<asrwt>0</asrwt>
<pdfrwt beam="1">  1        1 0.39875284E-01 0.40354155E+03</pdfrwt>
<pdfrwt beam="2">  1       -1 0.10743867E+00 0.40354155E+03</pdfrwt>
<totfact> 0.89591272E+01</totfact>
</mgrwt>
</event>
<event>
 4    1  0.2338029E-002  0.5849759E+03  0.7818608E-02  0.9937076E-01
          1   -1    0    0  502    0  0.00000000000E+00  0.00000000000E+00  0.34017794310E+03  0.34017794310E+03  0.00000000000E+00 0. -1.
         -1   -1    0    0    0  501 -0.00000000000E+00 -0.00000000000E+00 -0.10160196478E+04  0.10160196478E+04  0.00000000000E+00 0.  1.
    9000007    1    1    2  502    0  0.35663790077E+03 -0.23453403539E+03 -0.40547907033E+03  0.71176546875E+03  0.40000000000E+03 0.  1.
   -9000007    1    1    2    0  501 -0.35663790077E+03  0.23453403539E+03 -0.27036263439E+03  0.64443212218E+03  0.40000000000E+03 0. -1.
<mgrwt>
<rscale>  2 0.58497590E+03</rscale>
<asrwt>0</asrwt>
<pdfrwt beam="1">  1        1 0.52335069E-01 0.58497590E+03</pdfrwt>
<pdfrwt beam="2">  1       -1 0.15631071E+00 0.58497590E+03</pdfrwt>
<totfact> 0.24193743E+01</totfact>
</mgrwt>
</event>
<event>
 4    1  0.2338029E-002  0.7455256E+03  0.7818608E-02  0.9642396E-01
          2   -1    0    0  502    0  0.00000000000E+00  0.00000000000E+00  0.23548427258E+04  0.23548427258E+04  0.00000000000E+00 0. -1.
         -2   -1    0    0    0  501 -0.00000000000E+00 -0.00000000000E+00 -0.24313362553E+03  0.24313362553E+03  0.00000000000E+00 0.  1.
    9000007    1    1    2  502    0 -0.20337388621E+03  0.59535493119E+03  0.83378507419E+03  0.11184837869E+04  0.40000000000E+03 0.  1.
   -9000007    1    1    2    0  501  0.20337388621E+03 -0.59535493119E+03  0.12779240261E+04  0.14794925644E+04  0.40000000000E+03 0. -1.
<mgrwt>
<rscale>  2 0.74552561E+03</rscale>
<asrwt>0</asrwt>
<pdfrwt beam="1">  1        2 0.36228348E+00 0.74552561E+03</pdfrwt>
<pdfrwt beam="2">  1       -2 0.37405175E-01 0.74552561E+03</pdfrwt>
<totfact> 0.29597980E+01</totfact>
</mgrwt>
</event>
<event>
 4    1  0.2338029E-002  0.4823113E+03  0.7818608E-02  0.1018502E+00
          1   -1    0    0  502    0  0.00000000000E+00  0.00000000000E+00  0.55123513325E+03  0.55123513325E+03  0.00000000000E+00 0.  1.
         -1   -1    0    0    0  501 -0.00000000000E+00 -0.00000000000E+00 -0.59453952323E+03  0.59453952323E+03  0.00000000000E+00 0. -1.
    9000007    1    1    2  502    0  0.17393455076E+03  0.20584203234E+03 -0.33026676529E+03  0.58455137198E+03  0.40000000000E+03 0. -1.
   -9000007    1    1    2    0  501 -0.17393455076E+03 -0.20584203234E+03  0.28696237531E+03  0.56122328451E+03  0.40000000000E+03 0.  1.
<mgrwt>
<rscale>  2 0.48231128E+03</rscale>
<asrwt>0</asrwt>
<pdfrwt beam="1">  1        1 0.84805404E-01 0.48231128E+03</pdfrwt>
<pdfrwt beam="2">  1       -1 0.91467620E-01 0.48231128E+03</pdfrwt>
<totfact> 0.47411223E+01</totfact>
</mgrwt>
</event>
<event>
 4    1  0.2338029E-002  0.6908088E+03  0.7818608E-02  0.9733081E-01
         -2   -1    0    0    0  501 -0.00000000000E+00  0.00000000000E+00  0.13844170630E+03  0.13844170630E+03  0.00000000000E+00 0. -1.
          2   -1    0    0  502    0  0.00000000000E+00 -0.00000000000E+00 -0.38429510666E+04  0.38429510666E+04  0.00000000000E+00 0.  1.
    9000007    1    1    2  502    0  0.49302721398E+03  0.27228846583E+03 -0.24911953810E+04  0.25852023651E+04  0.40000000000E+03 0.  1.
   -9000007    1    1    2    0  501 -0.49302721398E+03 -0.27228846583E+03 -0.12133139793E+04  0.13961904077E+04  0.40000000000E+03 0. -1.
<mgrwt>
<rscale>  2 0.69080883E+03</rscale>
<asrwt>0</asrwt>
<pdfrwt beam="1">  1        2 0.59122320E+00 0.69080883E+03</pdfrwt>
<pdfrwt beam="2">  1       -2 0.21298726E-01 0.69080883E+03</pdfrwt>
<totfact> 0.96333294E+00</totfact>
</mgrwt>
</event>
<event>
 4    1  0.2338029E-002  0.4194064E+03  0.7818608E-02  0.1037260E+00
         -2   -1    0    0    0  501 -0.00000000000E+00  0.00000000000E+00  0.11801283703E+03  0.11801283703E+03  0.00000000000E+00 0. -1.
          2   -1    0    0  502    0  0.00000000000E+00 -0.00000000000E+00 -0.16554768273E+04  0.16554768273E+04  0.00000000000E+00 0.  1.
    9000007    1    1    2  502    0 -0.97066154745E+02 -0.80497941931E+02 -0.10486353925E+04  0.11293971593E+04  0.40000000000E+03 0.  1.
   -9000007    1    1    2    0  501  0.97066154745E+02  0.80497941931E+02 -0.48882859785E+03  0.64409250510E+03  0.40000000000E+03 0. -1.
<mgrwt>
<rscale>  2 0.41940643E+03</rscale>
<asrwt>0</asrwt>
<pdfrwt beam="1">  1        2 0.25468874E+00 0.41940643E+03</pdfrwt>
<pdfrwt beam="2">  1       -2 0.18155822E-01 0.41940643E+03</pdfrwt>
<totfact> 0.27512845E+02</totfact>
</mgrwt>
</event>
<event>
 4    1  0.2338029E-002  0.5335026E+03  0.7818608E-02  0.1005386E+00
         -1   -1    0    0    0  501 -0.00000000000E+00  0.00000000000E+00  0.25627845231E+03  0.25627845231E+03  0.00000000000E+00 0. -1.
          1   -1    0    0  502    0  0.00000000000E+00 -0.00000000000E+00 -0.11703330631E+04  0.11703330631E+04  0.00000000000E+00 0.  1.
    9000007    1    1    2  502    0  0.25938530947E+03  0.23946663856E+03 -0.29588939226E+03  0.61006191670E+03  0.40000000000E+03 0. -1.
   -9000007    1    1    2    0  501 -0.25938530947E+03 -0.23946663856E+03 -0.61816521850E+03  0.81654959868E+03  0.40000000000E+03 0.  1.
<mgrwt>
<rscale>  2 0.53350259E+03</rscale>
<asrwt>0</asrwt>
<pdfrwt beam="1">  1        1 0.18005124E+00 0.53350259E+03</pdfrwt>
<pdfrwt beam="2">  1       -1 0.39427454E-01 0.53350259E+03</pdfrwt>
<totfact> 0.73585323E+01</totfact>
</mgrwt>
</event>
<event>
 4    1  0.2338029E-002  0.4165382E+03  0.7818608E-02  0.1038199E+00
          2   -1    0    0  502    0  0.00000000000E+00  0.00000000000E+00  0.24483984783E+03  0.24483984783E+03  0.00000000000E+00 0. -1.
         -2   -1    0    0    0  501 -0.00000000000E+00 -0.00000000000E+00 -0.79763927760E+03  0.79763927760E+03  0.00000000000E+00 0.  1.
    9000007    1    1    2  502    0  0.38837216061E+02 -0.10952509266E+03 -0.45050811235E+03  0.61356469469E+03  0.40000000000E+03 0.  1.
   -9000007    1    1    2    0  501 -0.38837216061E+02  0.10952509266E+03 -0.10229131742E+03  0.42891443074E+03  0.40000000000E+03 0. -1.
<mgrwt>
<rscale>  2 0.41653820E+03</rscale>
<asrwt>0</asrwt>
<pdfrwt beam="1">  1        2 0.37667669E-01 0.41653820E+03</pdfrwt>
<pdfrwt beam="2">  1       -2 0.12271373E+00 0.41653820E+03</pdfrwt>
<totfact> 0.71321781E+01</totfact>
</mgrwt>
</event>
<event>
 4    1  0.2338029E-002  0.4172558E+03  0.7818608E-02  0.1037963E+00
          1   -1    0    0  502    0  0.00000000000E+00  0.00000000000E+00  0.11255657111E+04  0.11255657111E+04  0.00000000000E+00 0.  1.
         -1   -1    0    0    0  501 -0.00000000000E+00 -0.00000000000E+00 -0.15685803095E+03  0.15685803095E+03  0.00000000000E+00 0. -1.
    9000007    1    1    2  502    0  0.98615720438E+02 -0.66161371490E+02  0.40879408483E+03  0.58413610673E+03  0.40000000000E+03 0. -1.
   -9000007    1    1    2    0  501 -0.98615720438E+02  0.66161371490E+02  0.55991359527E+03  0.69828763527E+03  0.40000000000E+03 0.  1.
<mgrwt>
<rscale>  2 0.41725578E+03</rscale>
<asrwt>0</asrwt>
<pdfrwt beam="1">  1        1 0.17316395E+00 0.41725578E+03</pdfrwt>
<pdfrwt beam="2">  1       -1 0.24132005E-01 0.41725578E+03</pdfrwt>
<totfact> 0.18872761E+02</totfact>
</mgrwt>
</event>
<event>
 4    1  0.2338029E-002  0.5395627E+03  0.7818608E-02  0.1003939E+00
          2   -1    0    0  502    0  0.00000000000E+00  0.00000000000E+00  0.24671009062E+04  0.24671009062E+04  0.00000000000E+00 0.  1.
         -2   -1    0    0    0  501 -0.00000000000E+00 -0.00000000000E+00 -0.17682127290E+03  0.17682127290E+03  0.00000000000E+00 0. -1.
    9000007    1    1    2  502    0  0.17487528761E+03 -0.31709066142E+03  0.38270320822E+03  0.66150555505E+03  0.40000000000E+03 0. -1.
   -9000007    1    1    2    0  501 -0.17487528761E+03  0.31709066142E+03  0.19075764251E+04  0.19824166240E+04  0.40000000000E+03 0.  1.
<mgrwt>
<rscale>  2 0.53956265E+03</rscale>
<asrwt>0</asrwt>
<pdfrwt beam="1">  1        2 0.37955396E+00 0.53956265E+03</pdfrwt>
<pdfrwt beam="2">  1       -2 0.27203275E-01 0.53956265E+03</pdfrwt>
<totfact> 0.48066003E+01</totfact>
</mgrwt>
</event>
<event>
 4    1  0.2338029E-002  0.6471436E+03  0.7818608E-02  0.9812154E-01
         -1   -1    0    0    0  501 -0.00000000000E+00  0.00000000000E+00  0.48225706214E+03  0.48225706214E+03  0.00000000000E+00 0.  1.
          1   -1    0    0  502    0  0.00000000000E+00 -0.00000000000E+00 -0.93945006961E+03  0.93945006961E+03  0.00000000000E+00 0. -1.
    9000007    1    1    2  502    0 -0.20920013052E+03  0.46371343118E+03 -0.33114063400E+02  0.64799026386E+03  0.40000000000E+03 0.  1.
   -9000007    1    1    2    0  501  0.20920013052E+03 -0.46371343118E+03 -0.42407894406E+03  0.77371686789E+03  0.40000000000E+03 0.  1.
<mgrwt>
<rscale>  2 0.64714360E+03</rscale>
<asrwt>0</asrwt>
<pdfrwt beam="1">  1        1 0.14453078E+00 0.64714360E+03</pdfrwt>
<pdfrwt beam="2">  1       -1 0.74193395E-01 0.64714360E+03</pdfrwt>
<totfact> 0.32102132E+01</totfact>
</mgrwt>
</event>
<event>
 4    1  0.2338029E-002  0.5480663E+03  0.7818608E-02  0.1001942E+00
          2   -1    0    0  502    0  0.00000000000E+00  0.00000000000E+00  0.24020583482E+04  0.24020583482E+04  0.00000000000E+00 0.  1.
         -2   -1    0    0    0  501 -0.00000000000E+00 -0.00000000000E+00 -0.13122980654E+03  0.13122980654E+03  0.00000000000E+00 0. -1.
    9000007    1    1    2  502    0 -0.72582011449E+02  0.36757117791E+03  0.86053898189E+03  0.10202470576E+04  0.40000000000E+03 0. -1.
   -9000007    1    1    2    0  501  0.72582011449E+02 -0.36757117791E+03  0.14102895598E+04  0.15130410971E+04  0.40000000000E+03 0.  1.
<mgrwt>
<rscale>  2 0.54806635E+03</rscale>
<asrwt>0</asrwt>
<pdfrwt beam="1">  1        2 0.36954741E+00 0.54806635E+03</pdfrwt>
<pdfrwt beam="2">  1       -2 0.20189203E-01 0.54806635E+03</pdfrwt>
<totfact> 0.88665817E+01</totfact>
</mgrwt>
</event>
<event>
 4    1  0.2338029E-002  0.5900517E+03  0.7818608E-02  0.9926263E-01
          2   -1    0    0  502    0  0.00000000000E+00  0.00000000000E+00  0.40756366579E+03  0.40756366579E+03  0.00000000000E+00 0.  1.
         -2   -1    0    0    0  501 -0.00000000000E+00 -0.00000000000E+00 -0.13113153973E+04  0.13113153973E+04  0.00000000000E+00 0. -1.
    9000007    1    1    2  502    0 -0.21803165169E+02  0.43322694998E+03 -0.95927679641E+03  0.11262206446E+04  0.40000000000E+03 0. -1.
   -9000007    1    1    2    0  501  0.21803165169E+02 -0.43322694998E+03  0.55525064876E+02  0.59265841851E+03  0.40000000000E+03 0.  1.
<mgrwt>
<rscale>  2 0.59005167E+03</rscale>
<asrwt>0</asrwt>
<pdfrwt beam="1">  1        2 0.62702102E-01 0.59005167E+03</pdfrwt>
<pdfrwt beam="2">  1       -2 0.20174083E+00 0.59005167E+03</pdfrwt>
<totfact> 0.10468269E+01</totfact>
</mgrwt>
</event>
<event>
 4    1  0.2338029E-002  0.6925681E+03  0.7818608E-02  0.9730027E-01
          1   -1    0    0  502    0  0.00000000000E+00  0.00000000000E+00  0.11573019073E+04  0.11573019073E+04  0.00000000000E+00 0.  1.
         -1   -1    0    0    0  501 -0.00000000000E+00 -0.00000000000E+00 -0.59940612601E+03  0.59940612601E+03  0.00000000000E+00 0. -1.
    9000007    1    1    2  502    0 -0.12082599380E+03 -0.55231486308E+03 -0.20895839227E+03  0.72340461600E+03  0.40000000000E+03 0. -1.
   -9000007    1    1    2    0  501  0.12082599380E+03  0.55231486308E+03  0.76685417359E+03  0.10333034173E+04  0.40000000000E+03 0.  1.
<mgrwt>
<rscale>  2 0.69256814E+03</rscale>
<asrwt>0</asrwt>
<pdfrwt beam="1">  1        1 0.17804645E+00 0.69256814E+03</pdfrwt>
<pdfrwt beam="2">  1       -1 0.92216327E-01 0.69256814E+03</pdfrwt>
<totfact> 0.13686472E+01</totfact>
</mgrwt>
</event>
<event>
 4    1  0.2338029E-002  0.4529126E+03  0.7818608E-02  0.1026857E+00
         -1   -1    0    0    0  501 -0.00000000000E+00  0.00000000000E+00  0.44166747982E+03  0.44166747982E+03  0.00000000000E+00 0.  1.
          1   -1    0    0  502    0  0.00000000000E+00 -0.00000000000E+00 -0.10073246446E+04  0.10073246446E+04  0.00000000000E+00 0. -1.
    9000007    1    1    2  502    0  0.55832581168E+02 -0.20496959828E+03  0.24903894601E+03  0.51686575623E+03  0.40000000000E+03 0.  1.
   -9000007    1    1    2    0  501 -0.55832581168E+02  0.20496959828E+03 -0.81469611083E+03  0.93212636822E+03  0.40000000000E+03 0. -1.
<mgrwt>
<rscale>  2 0.45291259E+03</rscale>
<asrwt>0</asrwt>
<pdfrwt beam="1">  1        1 0.15497302E+00 0.45291259E+03</pdfrwt>
<pdfrwt beam="2">  1       -1 0.67948844E-01 0.45291259E+03</pdfrwt>
<totfact> 0.35026855E+01</totfact>
</mgrwt>
</event>
<event>
 4    1  0.2338029E-002  0.4035880E+03  0.7818608E-02  0.1042544E+00
         -1   -1    0    0    0  501 -0.00000000000E+00  0.00000000000E+00  0.28107610796E+03  0.28107610796E+03  0.00000000000E+00 0.  1.
          1   -1    0    0  502    0  0.00000000000E+00 -0.00000000000E+00 -0.60048439214E+03  0.60048439214E+03  0.00000000000E+00 0. -1.
    9000007    1    1    2  502    0  0.16455001328E+02  0.51112350502E+02 -0.24210522204E+03  0.47063592934E+03  0.40000000000E+03 0. -1.
   -9000007    1    1    2    0  501 -0.16455001328E+02 -0.51112350502E+02 -0.77303062138E+02  0.41092457077E+03  0.40000000000E+03 0.  1.
<mgrwt>
<rscale>  2 0.40358796E+03</rscale>
<asrwt>0</asrwt>
<pdfrwt beam="1">  1        1 0.92382214E-01 0.40358796E+03</pdfrwt>
<pdfrwt beam="2">  1       -1 0.43242478E-01 0.40358796E+03</pdfrwt>
<totfact> 0.18756689E+02</totfact>
</mgrwt>
</event>
<event>
 4    1  0.2338029E-002  0.4037628E+03  0.7818608E-02  0.1042484E+00
         -1   -1    0    0    0  501 -0.00000000000E+00  0.00000000000E+00  0.12664060625E+03  0.12664060625E+03  0.00000000000E+00 0.  1.
          1   -1    0    0  502    0  0.00000000000E+00 -0.00000000000E+00 -0.15953393682E+04  0.15953393682E+04  0.00000000000E+00 0. -1.
    9000007    1    1    2  502    0  0.23383357708E+02 -0.49775750014E+02 -0.11126829926E+04  0.11836755673E+04  0.40000000000E+03 0. -1.
   -9000007    1    1    2    0  501 -0.23383357708E+02  0.49775750014E+02 -0.35601576942E+03  0.53830440717E+03  0.40000000000E+03 0.  1.
<mgrwt>
<rscale>  2 0.40376281E+03</rscale>
<asrwt>0</asrwt>
<pdfrwt beam="1">  1        1 0.24543683E+00 0.40376281E+03</pdfrwt>
<pdfrwt beam="2">  1       -1 0.19483170E-01 0.40376281E+03</pdfrwt>
<totfact> 0.12791021E+02</totfact>
</mgrwt>
</event>
<event>
 4    1  0.2338029E-002  0.4411740E+03  0.7818608E-02  0.1030387E+00
          2   -1    0    0  502    0  0.00000000000E+00  0.00000000000E+00  0.15080992639E+04  0.15080992639E+04  0.00000000000E+00 0.  1.
         -2   -1    0    0    0  501 -0.00000000000E+00 -0.00000000000E+00 -0.21328097509E+03  0.21328097509E+03  0.00000000000E+00 0. -1.
    9000007    1    1    2  502    0 -0.17858749018E+03  0.52354208315E+02  0.10655231133E+03  0.45385884350E+03  0.40000000000E+03 0. -1.
   -9000007    1    1    2    0  501  0.17858749018E+03 -0.52354208315E+02  0.11882659775E+04  0.12675213955E+04  0.40000000000E+03 0.  1.
<mgrwt>
<rscale>  2 0.44117395E+03</rscale>
<asrwt>0</asrwt>
<pdfrwt beam="1">  1        2 0.23201526E+00 0.44117395E+03</pdfrwt>
<pdfrwt beam="2">  1       -2 0.32812459E-01 0.44117395E+03</pdfrwt>
<totfact> 0.11470117E+02</totfact>
</mgrwt>
</event>
<event>
 4    1  0.2338029E-002  0.4229144E+03  0.7818608E-02  0.1036122E+00
         -2   -1    0    0    0  501 -0.00000000000E+00  0.00000000000E+00  0.26859549054E+03  0.26859549054E+03  0.00000000000E+00 0.  1.
          2   -1    0    0  502    0  0.00000000000E+00 -0.00000000000E+00 -0.68276913463E+03  0.68276913463E+03  0.00000000000E+00 0. -1.
    9000007    1    1    2  502    0 -0.13965472504E+02  0.13660722108E+03 -0.28186631647E+03  0.50823733396E+03  0.40000000000E+03 0.  1.
   -9000007    1    1    2    0  501  0.13965472504E+02 -0.13660722108E+03 -0.13230732761E+03  0.44312729121E+03  0.40000000000E+03 0. -1.
<mgrwt>
<rscale>  2 0.42291437E+03</rscale>
<asrwt>0</asrwt>
<pdfrwt beam="1">  1        2 0.10504140E+00 0.42291437E+03</pdfrwt>
<pdfrwt beam="2">  1       -2 0.41322383E-01 0.42291437E+03</pdfrwt>
<totfact> 0.24096352E+02</totfact>
</mgrwt>
</event>
<event>
 4    1  0.2338029E-002  0.4660717E+03  0.7818608E-02  0.1023035E+00
         -2   -1    0    0    0  501 -0.00000000000E+00  0.00000000000E+00  0.30440018167E+03  0.30440018167E+03  0.00000000000E+00 0. -1.
          2   -1    0    0  502    0  0.00000000000E+00 -0.00000000000E+00 -0.91678010255E+03  0.91678010255E+03  0.00000000000E+00 0.  1.
    9000007    1    1    2  502    0  0.23921285872E+03 -0.27889392387E+00 -0.18749695356E+02  0.46644873312E+03  0.40000000000E+03 0. -1.
   -9000007    1    1    2    0  501 -0.23921285872E+03  0.27889392387E+00 -0.59363022553E+03  0.75473155109E+03  0.40000000000E+03 0.  1.
<mgrwt>
<rscale>  2 0.46607174E+03</rscale>
<asrwt>0</asrwt>
<pdfrwt beam="1">  1        2 0.14104309E+00 0.46607174E+03</pdfrwt>
<pdfrwt beam="2">  1       -2 0.46830798E-01 0.46607174E+03</pdfrwt>
<totfact> 0.12791463E+02</totfact>
</mgrwt>
</event>
<event>
 4    1  0.2338029E-002  0.4499785E+03  0.7818608E-02  0.1027728E+00
          2   -1    0    0  502    0  0.00000000000E+00  0.00000000000E+00  0.96453493826E+03  0.96453493826E+03  0.00000000000E+00 0.  1.
         -2   -1    0    0    0  501 -0.00000000000E+00 -0.00000000000E+00 -0.24825629031E+03  0.24825629031E+03  0.00000000000E+00 0. -1.
    9000007    1    1    2  502    0 -0.93423080299E+01  0.20589645052E+03  0.59641457691E+03  0.74712179369E+03  0.40000000000E+03 0.  1.
   -9000007    1    1    2    0  501  0.93423080299E+01 -0.20589645052E+03  0.11986407104E+03  0.46566943488E+03  0.40000000000E+03 0. -1.
<mgrwt>
<rscale>  2 0.44997847E+03</rscale>
<asrwt>0</asrwt>
<pdfrwt beam="1">  1        2 0.14838999E+00 0.44997847E+03</pdfrwt>
<pdfrwt beam="2">  1       -2 0.38193276E-01 0.44997847E+03</pdfrwt>
<totfact> 0.17778959E+02</totfact>
</mgrwt>
</event>
<event>
 4    1  0.2338029E-002  0.4182816E+03  0.7818608E-02  0.1037627E+00
         -1   -1    0    0    0  501 -0.00000000000E+00  0.00000000000E+00  0.10819628578E+03  0.10819628578E+03  0.00000000000E+00 0.  1.
          1   -1    0    0  502    0  0.00000000000E+00 -0.00000000000E+00 -0.16219694573E+04  0.16219694573E+04  0.00000000000E+00 0. -1.
    9000007    1    1    2  502    0 -0.11787667688E+03  0.32628258797E+02 -0.80449733344E+03  0.90673892259E+03  0.40000000000E+03 0. -1.
   -9000007    1    1    2    0  501  0.11787667688E+03 -0.32628258797E+02 -0.70927583803E+03  0.82342682045E+03  0.40000000000E+03 0.  1.
<mgrwt>
<rscale>  2 0.41828162E+03</rscale>
<asrwt>0</asrwt>
<pdfrwt beam="1">  1        1 0.24953376E+00 0.41828162E+03</pdfrwt>
<pdfrwt beam="2">  1       -1 0.16645582E-01 0.41828162E+03</pdfrwt>
<totfact> 0.15839004E+02</totfact>
</mgrwt>
</event>
<event>
 4    1  0.2338029E-002  0.4325142E+03  0.7818608E-02  0.1033069E+00
          1   -1    0    0  502    0  0.00000000000E+00  0.00000000000E+00  0.56753436657E+03  0.56753436657E+03  0.00000000000E+00 0. -1.
         -1   -1    0    0    0  501 -0.00000000000E+00 -0.00000000000E+00 -0.33246325073E+03  0.33246325073E+03  0.00000000000E+00 0.  1.
    9000007    1    1    2  502    0 -0.15687162418E+03  0.49596833571E+02  0.15917769068E+03  0.46087535146E+03  0.40000000000E+03 0. -1.
   -9000007    1    1    2    0  501  0.15687162418E+03 -0.49596833571E+02  0.75893425157E+02  0.43912226584E+03  0.40000000000E+03 0.  1.
<mgrwt>
<rscale>  2 0.43251422E+03</rscale>
<asrwt>0</asrwt>
<pdfrwt beam="1">  1        1 0.87312979E-01 0.43251422E+03</pdfrwt>
<pdfrwt beam="2">  1       -1 0.51148193E-01 0.43251422E+03</pdfrwt>
<totfact> 0.14836593E+02</totfact>
</mgrwt>
</event>
<event>
 4    1  0.2338029E-002  0.4307774E+03  0.7818608E-02  0.1033615E+00
          2   -1    0    0  502    0  0.00000000000E+00  0.00000000000E+00  0.16796917221E+03  0.16796917221E+03  0.00000000000E+00 0.  1.
         -2   -1    0    0    0  501 -0.00000000000E+00 -0.00000000000E+00 -0.12501546765E+04  0.12501546765E+04  0.00000000000E+00 0. -1.
    9000007    1    1    2  502    0 -0.14807017429E+03  0.60368465155E+02 -0.29929883435E+03  0.52454639484E+03  0.40000000000E+03 0.  1.
   -9000007    1    1    2    0  501  0.14807017429E+03 -0.60368465155E+02 -0.78288666996E+03  0.89357745389E+03  0.40000000000E+03 0. -1.
<mgrwt>
<rscale>  2 0.43077735E+03</rscale>
<asrwt>0</asrwt>
<pdfrwt beam="1">  1        2 0.25841411E-01 0.43077735E+03</pdfrwt>
<pdfrwt beam="2">  1       -2 0.19233149E+00 0.43077735E+03</pdfrwt>
<totfact> 0.32914506E+01</totfact>
</mgrwt>
</event>
<event>
 4    1  0.2338029E-002  0.4023835E+03  0.7818608E-02  0.1042957E+00
         -2   -1    0    0    0  501 -0.00000000000E+00  0.00000000000E+00  0.52757814300E+02  0.52757814300E+02  0.00000000000E+00 0. -1.
          2   -1    0    0  502    0  0.00000000000E+00 -0.00000000000E+00 -0.34091260126E+04  0.34091260126E+04  0.00000000000E+00 0.  1.
    9000007    1    1    2  502    0  0.19464989395E+02 -0.39160631873E+02 -0.22249438224E+04  0.22610368095E+04  0.40000000000E+03 0.  1.
   -9000007    1    1    2    0  501 -0.19464989395E+02  0.39160631873E+02 -0.11314243758E+04  0.12008470174E+04  0.40000000000E+03 0. -1.
<mgrwt>
<rscale>  2 0.40238345E+03</rscale>
<asrwt>0</asrwt>
<pdfrwt beam="1">  1        2 0.52448089E+00 0.40238345E+03</pdfrwt>
<pdfrwt beam="2">  1       -2 0.81165874E-02 0.40238345E+03</pdfrwt>
<totfact> 0.10330247E+02</totfact>
</mgrwt>
</event>
<event>
 4    1  0.2338029E-002  0.4408690E+03  0.7818608E-02  0.1030481E+00
         -1   -1    0    0    0  501 -0.00000000000E+00  0.00000000000E+00  0.11846701900E+04  0.11846701900E+04  0.00000000000E+00 0. -1.
          1   -1    0    0  502    0  0.00000000000E+00 -0.00000000000E+00 -0.17891946625E+03  0.17891946625E+03  0.00000000000E+00 0.  1.
    9000007    1    1    2  502    0  0.75213814985E+02 -0.16943548766E+03  0.69931154974E+03  0.82668140541E+03  0.40000000000E+03 0. -1.
   -9000007    1    1    2    0  501 -0.75213814985E+02  0.16943548766E+03  0.30643917397E+03  0.53690825081E+03  0.40000000000E+03 0.  1.
<mgrwt>
<rscale>  2 0.44086903E+03</rscale>
<asrwt>0</asrwt>
<pdfrwt beam="1">  1        1 0.27526072E-01 0.44086903E+03</pdfrwt>
<pdfrwt beam="2">  1       -1 0.18225695E+00 0.44086903E+03</pdfrwt>
<totfact> 0.36472241E+01</totfact>
</mgrwt>
</event>
<event>
 4    1  0.2338029E-002  0.5055093E+03  0.7818608E-02  0.1012351E+00
          1   -1    0    0  502    0  0.00000000000E+00  0.00000000000E+00  0.24894482401E+04  0.24894482401E+04  0.00000000000E+00 0. -1.
         -1   -1    0    0    0  501 -0.00000000000E+00 -0.00000000000E+00 -0.10361091352E+03  0.10361091352E+03  0.00000000000E+00 0.  1.
    9000007    1    1    2  502    0 -0.30222632275E+03  0.64798664026E+02  0.10680005233E+04  0.11815941498E+04  0.40000000000E+03 0.  1.
   -9000007    1    1    2    0  501  0.30222632275E+03 -0.64798664026E+02  0.13178368033E+04  0.14114650039E+04  0.40000000000E+03 0. -1.
<mgrwt>
<rscale>  2 0.50550927E+03</rscale>
<asrwt>0</asrwt>
<pdfrwt beam="1">  1        1 0.38299199E+00 0.50550927E+03</pdfrwt>
<pdfrwt beam="2">  1       -1 0.15940142E-01 0.50550927E+03</pdfrwt>
<totfact> 0.44459706E+01</totfact>
</mgrwt>
</event>
<event>
 4    1  0.2338029E-002  0.5161116E+03  0.7818608E-02  0.1009657E+00
         -1   -1    0    0    0  501 -0.00000000000E+00  0.00000000000E+00  0.90874150461E+03  0.90874150461E+03  0.00000000000E+00 0.  1.
          1   -1    0    0  502    0  0.00000000000E+00 -0.00000000000E+00 -0.55820081802E+03  0.55820081802E+03  0.00000000000E+00 0. -1.
    9000007    1    1    2  502    0  0.32499982434E+03 -0.27319228510E+02  0.68071793745E+03  0.85425296982E+03  0.40000000000E+03 0.  1.
   -9000007    1    1    2    0  501 -0.32499982434E+03  0.27319228510E+02 -0.33017725085E+03  0.61268935281E+03  0.40000000000E+03 0. -1.
<mgrwt>
<rscale>  2 0.51611164E+03</rscale>
<asrwt>0</asrwt>
<pdfrwt beam="1">  1        1 0.85877049E-01 0.51611164E+03</pdfrwt>
<pdfrwt beam="2">  1       -1 0.13980638E+00 0.51611164E+03</pdfrwt>
<totfact> 0.16950550E+01</totfact>
</mgrwt>
</event>
<event>
 4    1  0.2338029E-002  0.5194547E+03  0.7818608E-02  0.1008822E+00
          2   -1    0    0  502    0  0.00000000000E+00  0.00000000000E+00  0.24880298758E+04  0.24880298758E+04  0.00000000000E+00 0. -1.
         -2   -1    0    0    0  501 -0.00000000000E+00 -0.00000000000E+00 -0.12492085017E+03  0.12492085017E+03  0.00000000000E+00 0.  1.
    9000007    1    1    2  502    0  0.45547225130E+01  0.33137962731E+03  0.70719452585E+03  0.87747210798E+03  0.40000000000E+03 0.  1.
   -9000007    1    1    2    0  501 -0.45547225130E+01 -0.33137962731E+03  0.16559144998E+04  0.17354786180E+04  0.40000000000E+03 0. -1.
<mgrwt>
<rscale>  2 0.51945472E+03</rscale>
<asrwt>0</asrwt>
<pdfrwt beam="1">  1        2 0.38277379E+00 0.51945472E+03</pdfrwt>
<pdfrwt beam="2">  1       -2 0.19218594E-01 0.51945472E+03</pdfrwt>
<totfact> 0.86914759E+01</totfact>
</mgrwt>
</event>
<event>
 4    1  0.2338029E-002  0.4708518E+03  0.7818608E-02  0.1021680E+00
          1   -1    0    0  502    0  0.00000000000E+00  0.00000000000E+00  0.29192975410E+03  0.29192975410E+03  0.00000000000E+00 0.  1.
         -1   -1    0    0    0  501 -0.00000000000E+00 -0.00000000000E+00 -0.97885790499E+03  0.97885790499E+03  0.00000000000E+00 0. -1.
    9000007    1    1    2  502    0  0.22969277779E+03 -0.94565768176E+02 -0.64429666331E+03  0.79800980385E+03  0.40000000000E+03 0.  1.
   -9000007    1    1    2    0  501 -0.22969277779E+03  0.94565768176E+02 -0.42631487574E+02  0.47277785525E+03  0.40000000000E+03 0.  1.
<mgrwt>
<rscale>  2 0.47085184E+03</rscale>
<asrwt>0</asrwt>
<pdfrwt beam="1">  1        1 0.44912269E-01 0.47085184E+03</pdfrwt>
<pdfrwt beam="2">  1       -1 0.15059353E+00 0.47085184E+03</pdfrwt>
<totfact> 0.33082827E+01</totfact>
</mgrwt>
</event>
<event>
 4    1  0.2338029E-002  0.4296795E+03  0.7818608E-02  0.1033961E+00
         -1   -1    0    0    0  501 -0.00000000000E+00  0.00000000000E+00  0.14893534927E+03  0.14893534927E+03  0.00000000000E+00 0.  1.
          1   -1    0    0  502    0  0.00000000000E+00 -0.00000000000E+00 -0.12984255681E+04  0.12984255681E+04  0.00000000000E+00 0. -1.
    9000007    1    1    2  502    0  0.10158364224E+03  0.11960458568E+03 -0.42074663888E+03  0.60137528002E+03  0.40000000000E+03 0. -1.
   -9000007    1    1    2    0  501 -0.10158364224E+03 -0.11960458568E+03 -0.72874357992E+03  0.84598563732E+03  0.40000000000E+03 0. -1.
<mgrwt>
<rscale>  2 0.42967952E+03</rscale>
<asrwt>0</asrwt>
<pdfrwt beam="1">  1        1 0.19975778E+00 0.42967952E+03</pdfrwt>
<pdfrwt beam="2">  1       -1 0.22913131E-01 0.42967952E+03</pdfrwt>
<totfact> 0.15492305E+02</totfact>
</mgrwt>
</event>
<event>
 4    1  0.2338029E-002  0.4993691E+03  0.7818608E-02  0.1013944E+00
          2   -1    0    0  502    0  0.00000000000E+00  0.00000000000E+00  0.57972613641E+03  0.57972613641E+03  0.00000000000E+00 0. -1.
         -2   -1    0    0    0  501 -0.00000000000E+00 -0.00000000000E+00 -0.51182422656E+03  0.51182422656E+03  0.00000000000E+00 0.  1.
    9000007    1    1    2  502    0  0.28787335086E+03 -0.80612887591E+02 -0.18406811081E+03  0.53221290213E+03  0.40000000000E+03 0. -1.
   -9000007    1    1    2    0  501 -0.28787335086E+03  0.80612887591E+02  0.25197002066E+03  0.55933746083E+03  0.40000000000E+03 0. -1.
<mgrwt>
<rscale>  2 0.49936911E+03</rscale>
<asrwt>0</asrwt>
<pdfrwt beam="1">  1        2 0.89188636E-01 0.49936911E+03</pdfrwt>
<pdfrwt beam="2">  1       -2 0.78742189E-01 0.49936911E+03</pdfrwt>
<totfact> 0.76344206E+01</totfact>
</mgrwt>
</event>
<event>
 4    1  0.2338029E-002  0.6817538E+03  0.7818608E-02  0.9748955E-01
         -2   -1    0    0    0  501 -0.00000000000E+00  0.00000000000E+00  0.40495098270E+03  0.40495098270E+03  0.00000000000E+00 0.  1.
          2   -1    0    0  502    0  0.00000000000E+00 -0.00000000000E+00 -0.12361262056E+04  0.12361262056E+04  0.00000000000E+00 0. -1.
    9000007    1    1    2  502    0  0.47029438731E+03 -0.28915640053E+03 -0.63496932524E+03  0.93165137187E+03  0.40000000000E+03 0. -1.
   -9000007    1    1    2    0  501 -0.47029438731E+03  0.28915640053E+03 -0.19620589763E+03  0.70942581639E+03  0.40000000000E+03 0.  1.
<mgrwt>
<rscale>  2 0.68175379E+03</rscale>
<asrwt>0</asrwt>
<pdfrwt beam="1">  1        2 0.19017326E+00 0.68175379E+03</pdfrwt>
<pdfrwt beam="2">  1       -2 0.62300152E-01 0.68175379E+03</pdfrwt>
<totfact> 0.44202866E+01</totfact>
</mgrwt>
</event>
<event>
 4    1  0.2338029E-002  0.4534580E+03  0.7818608E-02  0.1026696E+00
         -2   -1    0    0    0  501 -0.00000000000E+00  0.00000000000E+00  0.18780128199E+03  0.18780128199E+03  0.00000000000E+00 0. -1.
          2   -1    0    0  502    0  0.00000000000E+00 -0.00000000000E+00 -0.12792738461E+04  0.12792738461E+04  0.00000000000E+00 0.  1.
    9000007    1    1    2  502    0  0.39834461493E+02 -0.20985093267E+03 -0.82421156400E+03  0.94071722664E+03  0.40000000000E+03 0.  1.
   -9000007    1    1    2    0  501 -0.39834461493E+02  0.20985093267E+03 -0.26726100015E+03  0.52635790149E+03  0.40000000000E+03 0. -1.
<mgrwt>
<rscale>  2 0.45345804E+03</rscale>
<asrwt>0</asrwt>
<pdfrwt beam="1">  1        2 0.19681137E+00 0.45345804E+03</pdfrwt>
<pdfrwt beam="2">  1       -2 0.28892504E-01 0.45345804E+03</pdfrwt>
<totfact> 0.19420857E+02</totfact>
</mgrwt>
</event>
<event>
 4    1  0.2338029E-002  0.4331724E+03  0.7818608E-02  0.1032863E+00
         -1   -1    0    0    0  501 -0.00000000000E+00  0.00000000000E+00  0.55996329362E+03  0.55996329362E+03  0.00000000000E+00 0. -1.
          1   -1    0    0  502    0  0.00000000000E+00 -0.00000000000E+00 -0.38776030471E+03  0.38776030471E+03  0.00000000000E+00 0.  1.
    9000007    1    1    2  502    0  0.16128188849E+03 -0.40329248937E+02  0.26074462142E+03  0.50559475222E+03  0.40000000000E+03 0. -1.
   -9000007    1    1    2    0  501 -0.16128188849E+03  0.40329248937E+02 -0.88541632509E+02  0.44212884611E+03  0.40000000000E+03 0.  1.
<mgrwt>
<rscale>  2 0.43317236E+03</rscale>
<asrwt>0</asrwt>
<pdfrwt beam="1">  1        1 0.59655432E-01 0.43317236E+03</pdfrwt>
<pdfrwt beam="2">  1       -1 0.86148199E-01 0.43317236E+03</pdfrwt>
<totfact> 0.87023092E+01</totfact>
</mgrwt>
</event>
<event>
 4    1  0.2338029E-002  0.5235387E+03  0.7818608E-02  0.1007811E+00
          2   -1    0    0  502    0  0.00000000000E+00  0.00000000000E+00  0.86698619494E+03  0.86698619494E+03  0.00000000000E+00 0. -1.
         -2   -1    0    0    0  501 -0.00000000000E+00 -0.00000000000E+00 -0.37869832035E+03  0.37869832035E+03  0.00000000000E+00 0.  1.
    9000007    1    1    2  502    0 -0.25626120042E+03  0.22005216597E+03  0.49728286422E+03  0.72206856020E+03  0.40000000000E+03 0. -1.
   -9000007    1    1    2    0  501  0.25626120042E+03 -0.22005216597E+03 -0.89949896301E+01  0.52361595509E+03  0.40000000000E+03 0.  1.
<mgrwt>
<rscale>  2 0.52353869E+03</rscale>
<asrwt>0</asrwt>
<pdfrwt beam="1">  1        2 0.13338249E+00 0.52353869E+03</pdfrwt>
<pdfrwt beam="2">  1       -2 0.58261281E-01 0.52353869E+03</pdfrwt>
<totfact> 0.87902055E+01</totfact>
</mgrwt>
</event>
<event>
 4    1  0.2338029E-002  0.5677632E+03  0.7818608E-02  0.9974641E-01
          2   -1    0    0  502    0  0.00000000000E+00  0.00000000000E+00  0.72565800012E+03  0.72565800012E+03  0.00000000000E+00 0.  1.
         -2   -1    0    0    0  501 -0.00000000000E+00 -0.00000000000E+00 -0.51597117701E+03  0.51597117701E+03  0.00000000000E+00 0. -1.
    9000007    1    1    2  502    0 -0.30651166411E+03 -0.26154472650E+03  0.33634296840E+03  0.65991032465E+03  0.40000000000E+03 0.  1.
   -9000007    1    1    2    0  501  0.30651166411E+03  0.26154472650E+03 -0.12665614529E+03  0.58171885248E+03  0.40000000000E+03 0. -1.
<mgrwt>
<rscale>  2 0.56776319E+03</rscale>
<asrwt>0</asrwt>
<pdfrwt beam="1">  1        2 0.11163969E+00 0.56776319E+03</pdfrwt>
<pdfrwt beam="2">  1       -2 0.79380181E-01 0.56776319E+03</pdfrwt>
<totfact> 0.56628339E+01</totfact>
</mgrwt>
</event>
<event>
 4    1  0.2338029E-002  0.4140570E+03  0.7818608E-02  0.1039018E+00
          1   -1    0    0  502    0  0.00000000000E+00  0.00000000000E+00  0.81873592721E+03  0.81873592721E+03  0.00000000000E+00 0.  1.
         -1   -1    0    0    0  501 -0.00000000000E+00 -0.00000000000E+00 -0.29394689758E+03  0.29394689758E+03  0.00000000000E+00 0. -1.
    9000007    1    1    2  502    0  0.16508927363E+02  0.10569127545E+03 -0.35976162411E+02  0.41561698070E+03  0.40000000000E+03 0. -1.
   -9000007    1    1    2    0  501 -0.16508927363E+02 -0.10569127545E+03  0.56076519204E+03  0.69706584408E+03  0.40000000000E+03 0.  1.
<mgrwt>
<rscale>  2 0.41405699E+03</rscale>
<asrwt>0</asrwt>
<pdfrwt beam="1">  1        1 0.12595937E+00 0.41405699E+03</pdfrwt>
<pdfrwt beam="2">  1       -1 0.45222600E-01 0.41405699E+03</pdfrwt>
<totfact> 0.10875948E+02</totfact>
</mgrwt>
</event>
<event>
 4    1  0.2338029E-002  0.6069451E+03  0.7818608E-02  0.9891101E-01
          2   -1    0    0  502    0  0.00000000000E+00  0.00000000000E+00  0.15272269277E+04  0.15272269277E+04  0.00000000000E+00 0.  1.
         -2   -1    0    0    0  501 -0.00000000000E+00 -0.00000000000E+00 -0.24435199507E+03  0.24435199507E+03  0.00000000000E+00 0. -1.
    9000007    1    1    2  502    0 -0.43299919178E+03 -0.14454795481E+03  0.54099320517E+03  0.81305354028E+03  0.40000000000E+03 0.  1.
   -9000007    1    1    2    0  501  0.43299919178E+03  0.14454795481E+03  0.74188172747E+03  0.95852538249E+03  0.40000000000E+03 0. -1.
<mgrwt>
<rscale>  2 0.60694515E+03</rscale>
<asrwt>0</asrwt>
<pdfrwt beam="1">  1        2 0.23495798E+00 0.60694515E+03</pdfrwt>
<pdfrwt beam="2">  1       -2 0.37592615E-01 0.60694515E+03</pdfrwt>
<totfact> 0.84657477E+01</totfact>
</mgrwt>
</event>
<event>
 4    1  0.2338029E-002  0.4636768E+03  0.7818608E-02  0.1023720E+00
         -2   -1    0    0    0  501 -0.00000000000E+00  0.00000000000E+00  0.20678887848E+03  0.20678887848E+03  0.00000000000E+00 0.  1.
          2   -1    0    0  502    0  0.00000000000E+00 -0.00000000000E+00 -0.10406005001E+04  0.10406005001E+04  0.00000000000E+00 0. -1.
    9000007    1    1    2  502    0 -0.23398505797E+03  0.15721533985E+02 -0.43536228797E+03  0.63603183550E+03  0.40000000000E+03 0. -1.
   -9000007    1    1    2    0  501  0.23398505797E+03 -0.15721533985E+02 -0.39844933365E+03  0.61135754307E+03  0.40000000000E+03 0.  1.
<mgrwt>
<rscale>  2 0.46367680E+03</rscale>
<asrwt>0</asrwt>
<pdfrwt beam="1">  1        2 0.16009238E+00 0.46367680E+03</pdfrwt>
<pdfrwt beam="2">  1       -2 0.31813674E-01 0.46367680E+03</pdfrwt>
<totfact> 0.22466155E+02</totfact>
</mgrwt>
</event>
<event>
 4    1  0.2338029E-002  0.4674450E+03  0.7818608E-02  0.1022644E+00
         -2   -1    0    0    0  501 -0.00000000000E+00  0.00000000000E+00  0.58613512513E+03  0.58613512513E+03  0.00000000000E+00 0.  1.
          2   -1    0    0  502    0  0.00000000000E+00 -0.00000000000E+00 -0.37377675855E+03  0.37377675855E+03  0.00000000000E+00 0. -1.
    9000007    1    1    2  502    0  0.11517970158E+03  0.21269336285E+03  0.13084991074E+03  0.48541377133E+03  0.40000000000E+03 0. -1.
   -9000007    1    1    2    0  501 -0.11517970158E+03 -0.21269336285E+03  0.81508455841E+02  0.47449811236E+03  0.40000000000E+03 0.  1.
<mgrwt>
<rscale>  2 0.46744500E+03</rscale>
<asrwt>0</asrwt>
<pdfrwt beam="1">  1        2 0.57504117E-01 0.46744500E+03</pdfrwt>
<pdfrwt beam="2">  1       -2 0.90174635E-01 0.46744500E+03</pdfrwt>
<totfact> 0.92818491E+01</totfact>
</mgrwt>
</event>
<event>
 4    1  0.2338029E-002  0.4175556E+03  0.7818608E-02  0.1037865E+00
          1   -1    0    0  502    0  0.00000000000E+00  0.00000000000E+00  0.15326957704E+03  0.15326957704E+03  0.00000000000E+00 0. -1.
         -1   -1    0    0    0  501 -0.00000000000E+00 -0.00000000000E+00 -0.11392619418E+04  0.11392619418E+04  0.00000000000E+00 0.  1.
    9000007    1    1    2  502    0 -0.55508775215E+02 -0.10616724520E+03 -0.46798713487E+03  0.62718790365E+03  0.40000000000E+03 0. -1.
   -9000007    1    1    2    0  501  0.55508775215E+02  0.10616724520E+03 -0.51800522985E+03  0.66534361516E+03  0.40000000000E+03 0.  1.
<mgrwt>
<rscale>  2 0.41755563E+03</rscale>
<asrwt>0</asrwt>
<pdfrwt beam="1">  1        1 0.23579935E-01 0.41755563E+03</pdfrwt>
<pdfrwt beam="2">  1       -1 0.17527107E+00 0.41755563E+03</pdfrwt>
<totfact> 0.50079106E+01</totfact>
</mgrwt>
</event>
<event>
 4    1  0.2338029E-002  0.5897966E+03  0.7818608E-02  0.9926804E-01
         -1   -1    0    0    0  501 -0.00000000000E+00  0.00000000000E+00  0.85926458468E+03  0.85926458468E+03  0.00000000000E+00 0.  1.
          1   -1    0    0  502    0  0.00000000000E+00 -0.00000000000E+00 -0.86090379658E+03  0.86090379658E+03  0.00000000000E+00 0. -1.
    9000007    1    1    2  502    0  0.11047651753E+03  0.41911218229E+03  0.62518711671E+03  0.85948764573E+03  0.40000000000E+03 0.  1.
   -9000007    1    1    2    0  501 -0.11047651753E+03 -0.41911218229E+03 -0.62682632861E+03  0.86068073553E+03  0.40000000000E+03 0. -1.
<mgrwt>
<rscale>  2 0.58979664E+03</rscale>
<asrwt>0</asrwt>
<pdfrwt beam="1">  1        1 0.13244674E+00 0.58979664E+03</pdfrwt>
<pdfrwt beam="2">  1       -1 0.13219455E+00 0.58979664E+03</pdfrwt>
<totfact> 0.10075203E+01</totfact>
</mgrwt>
</event>
<event>
 4    1  0.2338029E-002  0.4360019E+03  0.7818608E-02  0.1031981E+00
          2   -1    0    0  502    0  0.00000000000E+00  0.00000000000E+00  0.61506789105E+03  0.61506789105E+03  0.00000000000E+00 0. -1.
         -2   -1    0    0    0  501 -0.00000000000E+00 -0.00000000000E+00 -0.32281056957E+03  0.32281056957E+03  0.00000000000E+00 0.  1.
    9000007    1    1    2  502    0 -0.12265286144E+03  0.12269445960E+03  0.49372089394E+02  0.43878839780E+03  0.40000000000E+03 0.  1.
   -9000007    1    1    2    0  501  0.12265286144E+03 -0.12269445960E+03  0.24288523209E+03  0.49909006282E+03  0.40000000000E+03 0. -1.
<mgrwt>
<rscale>  2 0.43600190E+03</rscale>
<asrwt>0</asrwt>
<pdfrwt beam="1">  1        2 0.94625829E-01 0.43600190E+03</pdfrwt>
<pdfrwt beam="2">  1       -2 0.49663165E-01 0.43600190E+03</pdfrwt>
<totfact> 0.18985708E+02</totfact>
</mgrwt>
</event>
<event>
 4    1  0.2338029E-002  0.4832023E+03  0.7818608E-02  0.1018259E+00
          2   -1    0    0  502    0  0.00000000000E+00  0.00000000000E+00  0.10471670076E+04  0.10471670076E+04  0.00000000000E+00 0.  1.
         -2   -1    0    0    0  501 -0.00000000000E+00 -0.00000000000E+00 -0.22655877351E+03  0.22655877351E+03  0.00000000000E+00 0. -1.
    9000007    1    1    2  502    0 -0.57618134605E+02 -0.26488601696E+03  0.33012416566E+03  0.58520630223E+03  0.40000000000E+03 0.  1.
   -9000007    1    1    2    0  501  0.57618134605E+02  0.26488601696E+03  0.49048406847E+03  0.68851947891E+03  0.40000000000E+03 0.  1.
<mgrwt>
<rscale>  2 0.48320229E+03</rscale>
<asrwt>0</asrwt>
<pdfrwt beam="1">  1        2 0.16110261E+00 0.48320229E+03</pdfrwt>
<pdfrwt beam="2">  1       -2 0.34855197E-01 0.48320229E+03</pdfrwt>
<totfact> 0.18723247E+02</totfact>
</mgrwt>
</event>
<event>
 4    1  0.2338029E-002  0.4050753E+03  0.7818608E-02  0.1042036E+00
         -2   -1    0    0    0  501 -0.00000000000E+00  0.00000000000E+00  0.19566554782E+04  0.19566554782E+04  0.00000000000E+00 0. -1.
          2   -1    0    0  502    0  0.00000000000E+00 -0.00000000000E+00 -0.10761112585E+03  0.10761112585E+03  0.00000000000E+00 0.  1.
    9000007    1    1    2  502    0  0.45818397478E+02 -0.44571661108E+02  0.14094146294E+04  0.14664704416E+04  0.40000000000E+03 0.  1.
   -9000007    1    1    2    0  501 -0.45818397478E+02  0.44571661108E+02  0.43962972293E+03  0.59779616242E+03  0.40000000000E+03 0.  1.
<mgrwt>
<rscale>  2 0.40507525E+03</rscale>
<asrwt>0</asrwt>
<pdfrwt beam="1">  1        2 0.16555559E-01 0.40507525E+03</pdfrwt>
<pdfrwt beam="2">  1       -2 0.30102389E+00 0.40507525E+03</pdfrwt>
<totfact> 0.12149474E+01</totfact>
</mgrwt>
</event>
<event>
 4    1  0.2338029E-002  0.4621293E+03  0.7818608E-02  0.1024165E+00
         -2   -1    0    0    0  501 -0.00000000000E+00  0.00000000000E+00  0.15631871586E+03  0.15631871586E+03  0.00000000000E+00 0. -1.
          2   -1    0    0  502    0  0.00000000000E+00 -0.00000000000E+00 -0.13795464482E+04  0.13795464482E+04  0.00000000000E+00 0.  1.
    9000007    1    1    2  502    0  0.71696940791E+02 -0.22005226631E+03 -0.53609555844E+03  0.70778661968E+03  0.40000000000E+03 0. -1.
   -9000007    1    1    2    0  501 -0.71696940791E+02  0.22005226631E+03 -0.68713217388E+03  0.82807854435E+03  0.40000000000E+03 0.  1.
<mgrwt>
<rscale>  2 0.46212926E+03</rscale>
<asrwt>0</asrwt>
<pdfrwt beam="1">  1        2 0.21223791E+00 0.46212926E+03</pdfrwt>
<pdfrwt beam="2">  1       -2 0.24049033E-01 0.46212926E+03</pdfrwt>
<totfact> 0.23719864E+02</totfact>
</mgrwt>
</event>
<event>
 4    1  0.2338029E-002  0.5032206E+03  0.7818608E-02  0.1012942E+00
         -2   -1    0    0    0  501 -0.00000000000E+00  0.00000000000E+00  0.19335282064E+03  0.19335282064E+03  0.00000000000E+00 0.  1.
          2   -1    0    0  502    0  0.00000000000E+00 -0.00000000000E+00 -0.13336254893E+04  0.13336254893E+04  0.00000000000E+00 0. -1.
    9000007    1    1    2  502    0 -0.18729087320E+03 -0.24114958503E+03 -0.46783853419E+03  0.68709816447E+03  0.40000000000E+03 0. -1.
   -9000007    1    1    2    0  501  0.18729087320E+03  0.24114958503E+03 -0.67243413449E+03  0.83988014548E+03  0.40000000000E+03 0.  1.
<mgrwt>
<rscale>  2 0.50322062E+03</rscale>
<asrwt>0</asrwt>
<pdfrwt beam="1">  1        2 0.20517314E+00 0.50322062E+03</pdfrwt>
<pdfrwt beam="2">  1       -2 0.29746589E-01 0.50322062E+03</pdfrwt>
<totfact> 0.17054565E+02</totfact>
</mgrwt>
</event>
<event>
 4    1  0.2338029E-002  0.4726582E+03  0.7818608E-02  0.1021173E+00
         -2   -1    0    0    0  501 -0.00000000000E+00  0.00000000000E+00  0.97274379095E+02  0.97274379095E+02  0.00000000000E+00 0. -1.
          2   -1    0    0  502    0  0.00000000000E+00 -0.00000000000E+00 -0.30158173439E+04  0.30158173439E+04  0.00000000000E+00 0.  1.
    9000007    1    1    2  502    0  0.21277447262E+03 -0.13465806808E+03 -0.69916818292E+03  0.84394426327E+03  0.40000000000E+03 0. -1.
   -9000007    1    1    2    0  501 -0.21277447262E+03  0.13465806808E+03 -0.22193747818E+04  0.22691474597E+04  0.40000000000E+03 0.  1.
<mgrwt>
<rscale>  2 0.47265820E+03</rscale>
<asrwt>0</asrwt>
<pdfrwt beam="1">  1        2 0.46397186E+00 0.47265820E+03</pdfrwt>
<pdfrwt beam="2">  1       -2 0.14965290E-01 0.47265820E+03</pdfrwt>
<totfact> 0.66345987E+01</totfact>
</mgrwt>
</event>
<event>
 4    1  0.2338029E-002  0.4920445E+03  0.7818608E-02  0.1015877E+00
         -1   -1    0    0    0  501 -0.00000000000E+00  0.00000000000E+00  0.51498216669E+03  0.51498216669E+03  0.00000000000E+00 0. -1.
          1   -1    0    0  502    0  0.00000000000E+00 -0.00000000000E+00 -0.54266333104E+03  0.54266333104E+03  0.00000000000E+00 0.  1.
    9000007    1    1    2  502    0  0.77803979509E+02 -0.27577947912E+03 -0.20717904880E+03  0.53388288847E+03  0.40000000000E+03 0. -1.
   -9000007    1    1    2    0  501 -0.77803979509E+02  0.27577947912E+03  0.17949788445E+03  0.52376260926E+03  0.40000000000E+03 0.  1.
<mgrwt>
<rscale>  2 0.49204449E+03</rscale>
<asrwt>0</asrwt>
<pdfrwt beam="1">  1        1 0.83486666E-01 0.49204449E+03</pdfrwt>
<pdfrwt beam="2">  1       -1 0.79228026E-01 0.49204449E+03</pdfrwt>
<totfact> 0.65855110E+01</totfact>
</mgrwt>
</event>
<event>
 4    1  0.2338029E-002  0.4154857E+03  0.7818608E-02  0.1038546E+00
         -2   -1    0    0    0  501 -0.00000000000E+00  0.00000000000E+00  0.20939472780E+03  0.20939472780E+03  0.00000000000E+00 0. -1.
          2   -1    0    0  502    0  0.00000000000E+00 -0.00000000000E+00 -0.12590419650E+04  0.12590419650E+04  0.00000000000E+00 0.  1.
    9000007    1    1    2  502    0 -0.11183317312E+03 -0.11033304537E+02 -0.95620648845E+03  0.10425733744E+04  0.40000000000E+03 0.  1.
   -9000007    1    1    2    0  501  0.11183317312E+03  0.11033304537E+02 -0.93440748700E+02  0.42586331838E+03  0.40000000000E+03 0. -1.
<mgrwt>
<rscale>  2 0.41548573E+03</rscale>
<asrwt>0</asrwt>
<pdfrwt beam="1">  1        2 0.19369877E+00 0.41548573E+03</pdfrwt>
<pdfrwt beam="2">  1       -2 0.32214573E-01 0.41548573E+03</pdfrwt>
<totfact> 0.16390985E+02</totfact>
</mgrwt>
</event>
<event>
 4    1  0.2338029E-002  0.4219493E+03  0.7818608E-02  0.1036434E+00
          2   -1    0    0  502    0  0.00000000000E+00  0.00000000000E+00  0.24051859773E+03  0.24051859773E+03  0.00000000000E+00 0. -1.
         -2   -1    0    0    0  501 -0.00000000000E+00 -0.00000000000E+00 -0.74147235415E+03  0.74147235415E+03  0.00000000000E+00 0.  1.
    9000007    1    1    2  502    0 -0.87975674286E+02 -0.10149634237E+03 -0.23045115665E+03  0.48077953615E+03  0.40000000000E+03 0.  1.
   -9000007    1    1    2    0  501  0.87975674286E+02  0.10149634237E+03 -0.27050259977E+03  0.50121141573E+03  0.40000000000E+03 0.  1.
<mgrwt>
<rscale>  2 0.42194932E+03</rscale>
<asrwt>0</asrwt>
<pdfrwt beam="1">  1        2 0.37002862E-01 0.42194932E+03</pdfrwt>
<pdfrwt beam="2">  1       -2 0.11407267E+00 0.42194932E+03</pdfrwt>
<totfact> 0.86901607E+01</totfact>
</mgrwt>
</event>
<event>
 4    1  0.2338029E-002  0.4096669E+03  0.7818608E-02  0.1040483E+00
         -2   -1    0    0    0  501 -0.00000000000E+00  0.00000000000E+00  0.11605268917E+03  0.11605268917E+03  0.00000000000E+00 0.  1.
          2   -1    0    0  502    0  0.00000000000E+00 -0.00000000000E+00 -0.21341704586E+04  0.21341704586E+04  0.00000000000E+00 0. -1.
    9000007    1    1    2  502    0  0.42231968216E+02 -0.77739321209E+02 -0.16478942310E+04  0.16980525132E+04  0.40000000000E+03 0. -1.
   -9000007    1    1    2    0  501 -0.42231968216E+02  0.77739321209E+02 -0.37022353842E+03  0.55217063450E+03  0.40000000000E+03 0.  1.
<mgrwt>
<rscale>  2 0.40966687E+03</rscale>
<asrwt>0</asrwt>
<pdfrwt beam="1">  1        2 0.32833391E+00 0.40966687E+03</pdfrwt>
<pdfrwt beam="2">  1       -2 0.17854260E-01 0.40966687E+03</pdfrwt>
<totfact> 0.15719293E+02</totfact>
</mgrwt>
</event>
<event>
 4    1  0.2338029E-002  0.5530631E+03  0.7818608E-02  0.1000787E+00
         -1   -1    0    0    0  501 -0.00000000000E+00  0.00000000000E+00  0.24389885696E+03  0.24389885696E+03  0.00000000000E+00 0.  1.
          1   -1    0    0  502    0  0.00000000000E+00 -0.00000000000E+00 -0.14947506506E+04  0.14947506506E+04  0.00000000000E+00 0. -1.
    9000007    1    1    2  502    0  0.35391950990E+03  0.14359571829E+03 -0.27662951062E+03  0.61838712466E+03  0.40000000000E+03 0.  1.
   -9000007    1    1    2    0  501 -0.35391950990E+03 -0.14359571829E+03 -0.97422228299E+03  0.11202623829E+04  0.40000000000E+03 0. -1.
<mgrwt>
<rscale>  2 0.55306306E+03</rscale>
<asrwt>0</asrwt>
<pdfrwt beam="1">  1        1 0.22996164E+00 0.55306306E+03</pdfrwt>
<pdfrwt beam="2">  1       -1 0.37522900E-01 0.55306306E+03</pdfrwt>
<totfact> 0.47629888E+01</totfact>
</mgrwt>
</event>
<event>
 4    1  0.2338029E-002  0.5855869E+03  0.7818608E-02  0.9935768E-01
         -2   -1    0    0    0  501 -0.00000000000E+00  0.00000000000E+00  0.23362306001E+03  0.23362306001E+03  0.00000000000E+00 0. -1.
          2   -1    0    0  502    0  0.00000000000E+00 -0.00000000000E+00 -0.15440354972E+04  0.15440354972E+04  0.00000000000E+00 0.  1.
    9000007    1    1    2  502    0  0.49558887227E+01 -0.42765341013E+03 -0.85270637598E+03  0.10344177897E+04  0.40000000000E+03 0.  1.
   -9000007    1    1    2    0  501 -0.49558887227E+01  0.42765341013E+03 -0.45770606124E+03  0.74324076754E+03  0.40000000000E+03 0. -1.
<mgrwt>
<rscale>  2 0.58558689E+03</rscale>
<asrwt>0</asrwt>
<pdfrwt beam="1">  1        2 0.23754392E+00 0.58558689E+03</pdfrwt>
<pdfrwt beam="2">  1       -2 0.35942009E-01 0.58558689E+03</pdfrwt>
<totfact> 0.90539828E+01</totfact>
</mgrwt>
</event>
<event>
 4    1  0.2338029E-002  0.5158874E+03  0.7818608E-02  0.1009713E+00
          2   -1    0    0  502    0  0.00000000000E+00  0.00000000000E+00  0.17430693182E+04  0.17430693182E+04  0.00000000000E+00 0.  1.
         -2   -1    0    0    0  501 -0.00000000000E+00 -0.00000000000E+00 -0.17616022976E+03  0.17616022976E+03  0.00000000000E+00 0. -1.
    9000007    1    1    2  502    0  0.14720402641E+03  0.29063853642E+03  0.11337640497E+04  0.12456165962E+04  0.40000000000E+03 0.  1.
   -9000007    1    1    2    0  501 -0.14720402641E+03 -0.29063853642E+03  0.43314503872E+03  0.67361295178E+03  0.40000000000E+03 0. -1.
<mgrwt>
<rscale>  2 0.51588738E+03</rscale>
<asrwt>0</asrwt>
<pdfrwt beam="1">  1        2 0.26816450E+00 0.51588738E+03</pdfrwt>
<pdfrwt beam="2">  1       -2 0.27101575E-01 0.51588738E+03</pdfrwt>
<totfact> 0.12035879E+02</totfact>
</mgrwt>
</event>
<event>
 4    1  0.2338029E-002  0.4689135E+03  0.7818608E-02  0.1022227E+00
          1   -1    0    0  502    0  0.00000000000E+00  0.00000000000E+00  0.35708733341E+03  0.35708733341E+03  0.00000000000E+00 0.  1.
         -1   -1    0    0    0  501 -0.00000000000E+00 -0.00000000000E+00 -0.68947123131E+03  0.68947123131E+03  0.00000000000E+00 0. -1.
    9000007    1    1    2  502    0 -0.13698038783E+03 -0.20277149041E+03 -0.33728953660E+03  0.57761936902E+03  0.40000000000E+03 0. -1.
   -9000007    1    1    2    0  501  0.13698038783E+03  0.20277149041E+03  0.49056386953E+01  0.46893919570E+03  0.40000000000E+03 0.  1.
<mgrwt>
<rscale>  2 0.46891354E+03</rscale>
<asrwt>0</asrwt>
<pdfrwt beam="1">  1        1 0.54936513E-01 0.46891354E+03</pdfrwt>
<pdfrwt beam="2">  1       -1 0.10607250E+00 0.46891354E+03</pdfrwt>
<totfact> 0.60718692E+01</totfact>
</mgrwt>
</event>
<event>
 4    1  0.2338029E-002  0.1018832E+04  0.7818608E-02  0.9288128E-01
          1   -1    0    0  502    0  0.00000000000E+00  0.00000000000E+00  0.11965428950E+04  0.11965428950E+04  0.00000000000E+00 0.  1.
         -1   -1    0    0    0  501 -0.00000000000E+00 -0.00000000000E+00 -0.87965088761E+03  0.87965088761E+03  0.00000000000E+00 0. -1.
    9000007    1    1    2  502    0 -0.37717860713E+03 -0.85776120095E+03  0.28038213110E+03  0.10567081522E+04  0.40000000000E+03 0. -1.
   -9000007    1    1    2    0  501  0.37717860713E+03  0.85776120095E+03  0.36509876299E+02  0.10194856304E+04  0.40000000000E+03 0.  1.
<mgrwt>
<rscale>  2 0.10188317E+04</rscale>
<asrwt>0</asrwt>
<pdfrwt beam="1">  1        1 0.18408352E+00 0.10188317E+04</pdfrwt>
<pdfrwt beam="2">  1       -1 0.13533091E+00 0.10188317E+04</pdfrwt>
<totfact> 0.49252524E+00</totfact>
</mgrwt>
</event>
<event>
 4    1  0.2338029E-002  0.6544162E+03  0.7818608E-02  0.9798528E-01
          2   -1    0    0  502    0  0.00000000000E+00  0.00000000000E+00  0.14636755159E+04  0.14636755159E+04  0.00000000000E+00 0. -1.
         -2   -1    0    0    0  501 -0.00000000000E+00 -0.00000000000E+00 -0.51437742618E+03  0.51437742618E+03  0.00000000000E+00 0.  1.
    9000007    1    1    2  502    0 -0.46977640829E+03  0.21810714564E+03  0.11240798662E+04  0.13006983303E+04  0.40000000000E+03 0. -1.
   -9000007    1    1    2    0  501  0.46977640829E+03 -0.21810714564E+03 -0.17478177648E+03  0.67735461182E+03  0.40000000000E+03 0.  1.
<mgrwt>
<rscale>  2 0.65441623E+03</rscale>
<asrwt>0</asrwt>
<pdfrwt beam="1">  1        2 0.22518085E+00 0.65441623E+03</pdfrwt>
<pdfrwt beam="2">  1       -2 0.79134989E-01 0.65441623E+03</pdfrwt>
<totfact> 0.19536274E+01</totfact>
</mgrwt>
</event>
<event>
 4    1  0.2338029E-002  0.4757974E+03  0.7818608E-02  0.1020297E+00
         -1   -1    0    0    0  501 -0.00000000000E+00  0.00000000000E+00  0.68342358430E+03  0.68342358430E+03  0.00000000000E+00 0. -1.
          1   -1    0    0  502    0  0.00000000000E+00 -0.00000000000E+00 -0.41374197797E+03  0.41374197797E+03  0.00000000000E+00 0.  1.
    9000007    1    1    2  502    0  0.15283169554E+03 -0.20742633299E+03  0.37979592070E+03  0.60879237196E+03  0.40000000000E+03 0. -1.
   -9000007    1    1    2    0  501 -0.15283169554E+03  0.20742633299E+03 -0.11011431437E+03  0.48837319031E+03  0.40000000000E+03 0.  1.
<mgrwt>
<rscale>  2 0.47579745E+03</rscale>
<asrwt>0</asrwt>
<pdfrwt beam="1">  1        1 0.63652612E-01 0.47579745E+03</pdfrwt>
<pdfrwt beam="2">  1       -1 0.10514209E+00 0.47579745E+03</pdfrwt>
<totfact> 0.51088170E+01</totfact>
</mgrwt>
</event>
<event>
 4    1  0.2338029E-002  0.4545602E+03  0.7818608E-02  0.1026371E+00
          1   -1    0    0  502    0  0.00000000000E+00  0.00000000000E+00  0.13985793336E+04  0.13985793336E+04  0.00000000000E+00 0.  1.
         -1   -1    0    0    0  501 -0.00000000000E+00 -0.00000000000E+00 -0.16958445603E+03  0.16958445603E+03  0.00000000000E+00 0. -1.
    9000007    1    1    2  502    0  0.15708369666E+03 -0.14815413819E+03  0.33308235745E+03  0.56353242433E+03  0.40000000000E+03 0. -1.
   -9000007    1    1    2    0  501 -0.15708369666E+03  0.14815413819E+03  0.89591252010E+03  0.10046313653E+04  0.40000000000E+03 0.  1.
<mgrwt>
<rscale>  2 0.45456016E+03</rscale>
<asrwt>0</asrwt>
<pdfrwt beam="1">  1        1 0.21516604E+00 0.45456016E+03</pdfrwt>
<pdfrwt beam="2">  1       -1 0.26089917E-01 0.45456016E+03</pdfrwt>
<totfact> 0.10582631E+02</totfact>
</mgrwt>
</event>
<event>
 4    1  0.2338029E-002  0.4025493E+03  0.7818608E-02  0.1042900E+00
          2   -1    0    0  502    0  0.00000000000E+00  0.00000000000E+00  0.16480854258E+04  0.16480854258E+04  0.00000000000E+00 0.  1.
         -2   -1    0    0    0  501 -0.00000000000E+00 -0.00000000000E+00 -0.12277520815E+03  0.12277520815E+03  0.00000000000E+00 0. -1.
    9000007    1    1    2  502    0 -0.33780108344E+02 -0.30080847940E+02  0.36751478084E+03  0.54508078967E+03  0.40000000000E+03 0. -1.
   -9000007    1    1    2    0  501  0.33780108344E+02  0.30080847940E+02  0.11577954368E+04  0.12257798442E+04  0.40000000000E+03 0.  1.
<mgrwt>
<rscale>  2 0.40254932E+03</rscale>
<asrwt>0</asrwt>
<pdfrwt beam="1">  1        2 0.25355159E+00 0.40254932E+03</pdfrwt>
<pdfrwt beam="2">  1       -2 0.18888495E-01 0.40254932E+03</pdfrwt>
<totfact> 0.26002692E+02</totfact>
</mgrwt>
</event>
<event>
 4    1  0.2338029E-002  0.4145172E+03  0.7818608E-02  0.1038866E+00
          2   -1    0    0  502    0  0.00000000000E+00  0.00000000000E+00  0.30330253287E+03  0.30330253287E+03  0.00000000000E+00 0.  1.
         -2   -1    0    0    0  501 -0.00000000000E+00 -0.00000000000E+00 -0.70211159887E+03  0.70211159887E+03  0.00000000000E+00 0. -1.
    9000007    1    1    2  502    0  0.49430698127E+02 -0.96856033436E+02  0.21518667408E+02  0.41507534036E+03  0.40000000000E+03 0.  1.
   -9000007    1    1    2    0  501 -0.49430698127E+02  0.96856033436E+02 -0.42032773341E+03  0.59033879138E+03  0.40000000000E+03 0. -1.
<mgrwt>
<rscale>  2 0.41451717E+03</rscale>
<asrwt>0</asrwt>
<pdfrwt beam="1">  1        2 0.46661929E-01 0.41451717E+03</pdfrwt>
<pdfrwt beam="2">  1       -2 0.10801717E+00 0.41451717E+03</pdfrwt>
<totfact> 0.76852280E+01</totfact>
</mgrwt>
</event>
<event>
 4    1  0.2338029E-002  0.4850362E+03  0.7818608E-02  0.1017760E+00
         -2   -1    0    0    0  501 -0.00000000000E+00  0.00000000000E+00  0.31349906128E+03  0.31349906128E+03  0.00000000000E+00 0. -1.
          2   -1    0    0  502    0  0.00000000000E+00 -0.00000000000E+00 -0.95266820910E+03  0.95266820910E+03  0.00000000000E+00 0.  1.
    9000007    1    1    2  502    0 -0.15207709006E+03  0.22832582688E+03 -0.27896717251E+02  0.48583778298E+03  0.40000000000E+03 0. -1.
   -9000007    1    1    2    0  501  0.15207709006E+03 -0.22832582688E+03 -0.61127243056E+03  0.78032948740E+03  0.40000000000E+03 0.  1.
<mgrwt>
<rscale>  2 0.48503621E+03</rscale>
<asrwt>0</asrwt>
<pdfrwt beam="1">  1        2 0.14656434E+00 0.48503621E+03</pdfrwt>
<pdfrwt beam="2">  1       -2 0.48230625E-01 0.48503621E+03</pdfrwt>
<totfact> 0.11406585E+02</totfact>
</mgrwt>
</event>
<event>
 4    1  0.2338029E-002  0.4031070E+03  0.7818608E-02  0.1042709E+00
          1   -1    0    0  502    0  0.00000000000E+00  0.00000000000E+00  0.22219792717E+03  0.22219792717E+03  0.00000000000E+00 0. -1.
         -1   -1    0    0    0  501 -0.00000000000E+00 -0.00000000000E+00 -0.74142606573E+03  0.74142606573E+03  0.00000000000E+00 0.  1.
    9000007    1    1    2  502    0  0.40358637433E+02 -0.29435368931E+02 -0.31589730049E+03  0.51213900946E+03  0.40000000000E+03 0.  1.
   -9000007    1    1    2    0  501 -0.40358637433E+02  0.29435368931E+02 -0.20333083806E+03  0.45148498343E+03  0.40000000000E+03 0. -1.
<mgrwt>
<rscale>  2 0.40310701E+03</rscale>
<asrwt>0</asrwt>
<pdfrwt beam="1">  1        1 0.34184297E-01 0.40310701E+03</pdfrwt>
<pdfrwt beam="2">  1       -1 0.11406555E+00 0.40310701E+03</pdfrwt>
<totfact> 0.94829164E+01</totfact>
</mgrwt>
</event>
<event>
 4    1  0.2338029E-002  0.4890300E+03  0.7818608E-02  0.1016683E+00
         -2   -1    0    0    0  501 -0.00000000000E+00  0.00000000000E+00  0.33277743142E+03  0.33277743142E+03  0.00000000000E+00 0.  1.
          2   -1    0    0  502    0  0.00000000000E+00 -0.00000000000E+00 -0.11291589293E+04  0.11291589293E+04  0.00000000000E+00 0. -1.
    9000007    1    1    2  502    0  0.18909290689E+03  0.20831288651E+03  0.42549205485E+02  0.49087760288E+03  0.40000000000E+03 0. -1.
   -9000007    1    1    2    0  501 -0.18909290689E+03 -0.20831288651E+03 -0.83893070339E+03  0.97105875786E+03  0.40000000000E+03 0.  1.
<mgrwt>
<rscale>  2 0.48903005E+03</rscale>
<asrwt>0</asrwt>
<pdfrwt beam="1">  1        2 0.17371676E+00 0.48903005E+03</pdfrwt>
<pdfrwt beam="2">  1       -2 0.51196527E-01 0.48903005E+03</pdfrwt>
<totfact> 0.78617430E+01</totfact>
</mgrwt>
</event>
<event>
 4    1  0.2338029E-002  0.4989662E+03  0.7818608E-02  0.1014049E+00
          2   -1    0    0  502    0  0.00000000000E+00  0.00000000000E+00  0.13713092677E+04  0.13713092677E+04  0.00000000000E+00 0.  1.
         -2   -1    0    0    0  501 -0.00000000000E+00 -0.00000000000E+00 -0.18965520538E+03  0.18965520538E+03  0.00000000000E+00 0. -1.
    9000007    1    1    2  502    0  0.19030984543E+03 -0.22967237893E+03  0.75213082800E+03  0.90258961956E+03  0.40000000000E+03 0.  1.
   -9000007    1    1    2    0  501 -0.19030984543E+03  0.22967237893E+03  0.42952323428E+03  0.65837485348E+03  0.40000000000E+03 0.  1.
<mgrwt>
<rscale>  2 0.49896617E+03</rscale>
<asrwt>0</asrwt>
<pdfrwt beam="1">  1        2 0.21097065E+00 0.49896617E+03</pdfrwt>
<pdfrwt beam="2">  1       -2 0.29177725E-01 0.49896617E+03</pdfrwt>
<totfact> 0.16837296E+02</totfact>
</mgrwt>
</event>
<event>
 4    1  0.2338029E-002  0.5015587E+03  0.7818608E-02  0.1013373E+00
          1   -1    0    0  502    0  0.00000000000E+00  0.00000000000E+00  0.20525450919E+04  0.20525450919E+04  0.00000000000E+00 0.  1.
         -1   -1    0    0    0  501 -0.00000000000E+00 -0.00000000000E+00 -0.15825012264E+03  0.15825012264E+03  0.00000000000E+00 0. -1.
    9000007    1    1    2  502    0 -0.22991239719E+03  0.19672670943E+03  0.42219861054E+03  0.65560107941E+03  0.40000000000E+03 0. -1.
   -9000007    1    1    2    0  501  0.22991239719E+03 -0.19672670943E+03  0.14720963587E+04  0.15551941351E+04  0.40000000000E+03 0.  1.
<mgrwt>
<rscale>  2 0.50155868E+03</rscale>
<asrwt>0</asrwt>
<pdfrwt beam="1">  1        1 0.31577615E+00 0.50155868E+03</pdfrwt>
<pdfrwt beam="2">  1       -1 0.24346174E-01 0.50155868E+03</pdfrwt>
<totfact> 0.43242087E+01</totfact>
</mgrwt>
</event>
<event>
 4    1  0.2338029E-002  0.5260889E+03  0.7818608E-02  0.1007185E+00
          1   -1    0    0  502    0  0.00000000000E+00  0.00000000000E+00  0.69191907545E+03  0.69191907545E+03  0.00000000000E+00 0. -1.
         -1   -1    0    0    0  501 -0.00000000000E+00 -0.00000000000E+00 -0.40029838478E+03  0.40029838478E+03  0.00000000000E+00 0.  1.
    9000007    1    1    2  502    0 -0.32969518266E+03  0.89836561073E+02  0.16065183425E+03  0.55007138902E+03  0.40000000000E+03 0. -1.
   -9000007    1    1    2    0  501  0.32969518266E+03 -0.89836561073E+02  0.13096885643E+03  0.54214607121E+03  0.40000000000E+03 0.  1.
<mgrwt>
<rscale>  2 0.52608889E+03</rscale>
<asrwt>0</asrwt>
<pdfrwt beam="1">  1        1 0.10644909E+00 0.52608889E+03</pdfrwt>
<pdfrwt beam="2">  1       -1 0.61584367E-01 0.52608889E+03</pdfrwt>
<totfact> 0.77249546E+01</totfact>
</mgrwt>
</event>
<event>
 4    1  0.2338029E-002  0.4353582E+03  0.7818608E-02  0.1032181E+00
          1   -1    0    0  502    0  0.00000000000E+00  0.00000000000E+00  0.57609141925E+03  0.57609141925E+03  0.00000000000E+00 0.  1.
         -1   -1    0    0    0  501 -0.00000000000E+00 -0.00000000000E+00 -0.50279541921E+03  0.50279541921E+03  0.00000000000E+00 0. -1.
    9000007    1    1    2  502    0  0.15245108491E+03  0.79343652899E+02  0.35379719373E+03  0.56098948549E+03  0.40000000000E+03 0.  1.
   -9000007    1    1    2    0  501 -0.15245108491E+03 -0.79343652899E+02 -0.28050119368E+03  0.51789735296E+03  0.40000000000E+03 0. -1.
<mgrwt>
<rscale>  2 0.43535818E+03</rscale>
<asrwt>0</asrwt>
<pdfrwt beam="1">  1        1 0.88629449E-01 0.43535818E+03</pdfrwt>
<pdfrwt beam="2">  1       -1 0.77353141E-01 0.43535818E+03</pdfrwt>
<totfact> 0.64174635E+01</totfact>
</mgrwt>
</event>
<event>
 4    1  0.2338029E-002  0.4511282E+03  0.7818608E-02  0.1027386E+00
         -1   -1    0    0    0  501 -0.00000000000E+00  0.00000000000E+00  0.32791206785E+03  0.32791206785E+03  0.00000000000E+00 0. -1.
          1   -1    0    0  502    0  0.00000000000E+00 -0.00000000000E+00 -0.80664181350E+03  0.80664181350E+03  0.00000000000E+00 0.  1.
    9000007    1    1    2  502    0 -0.20044381651E+03 -0.57783109087E+02 -0.51176596765E+03  0.68221771959E+03  0.40000000000E+03 0.  1.
   -9000007    1    1    2    0  501  0.20044381651E+03  0.57783109087E+02  0.33036222005E+02  0.45233616176E+03  0.40000000000E+03 0. -1.
<mgrwt>
<rscale>  2 0.45112815E+03</rscale>
<asrwt>0</asrwt>
<pdfrwt beam="1">  1        1 0.12409874E+00 0.45112815E+03</pdfrwt>
<pdfrwt beam="2">  1       -1 0.50448011E-01 0.45112815E+03</pdfrwt>
<totfact> 0.90436293E+01</totfact>
</mgrwt>
</event>
<event>
 4    1  0.2338029E-002  0.4101797E+03  0.7818608E-02  0.1040311E+00
         -2   -1    0    0    0  501 -0.00000000000E+00  0.00000000000E+00  0.97853494071E+02  0.97853494071E+02  0.00000000000E+00 0. -1.
          2   -1    0    0  502    0  0.00000000000E+00 -0.00000000000E+00 -0.19723406100E+04  0.19723406100E+04  0.00000000000E+00 0.  1.
    9000007    1    1    2  502    0  0.27262621041E+02 -0.86626212966E+02 -0.56654877851E+03  0.69944611637E+03  0.40000000000E+03 0. -1.
   -9000007    1    1    2    0  501 -0.27262621041E+02  0.86626212966E+02 -0.13079383374E+04  0.13707479877E+04  0.40000000000E+03 0.  1.
<mgrwt>
<rscale>  2 0.41017966E+03</rscale>
<asrwt>0</asrwt>
<pdfrwt beam="1">  1        2 0.30343704E+00 0.41017966E+03</pdfrwt>
<pdfrwt beam="2">  1       -2 0.15054382E-01 0.41017966E+03</pdfrwt>
<totfact> 0.25602169E+02</totfact>
</mgrwt>
</event>
<event>
 4    1  0.2338029E-002  0.4680089E+03  0.7818608E-02  0.1022484E+00
         -2   -1    0    0    0  501 -0.00000000000E+00  0.00000000000E+00  0.17833713265E+03  0.17833713265E+03  0.00000000000E+00 0. -1.
          2   -1    0    0  502    0  0.00000000000E+00 -0.00000000000E+00 -0.12458068855E+04  0.12458068855E+04  0.00000000000E+00 0.  1.
    9000007    1    1    2  502    0  0.39813424941E+02 -0.23968158123E+03 -0.44906488671E+03  0.64860746346E+03  0.40000000000E+03 0. -1.
   -9000007    1    1    2    0  501 -0.39813424941E+02  0.23968158123E+03 -0.61840486613E+03  0.77553655467E+03  0.40000000000E+03 0.  1.
<mgrwt>
<rscale>  2 0.46800894E+03</rscale>
<asrwt>0</asrwt>
<pdfrwt beam="1">  1        2 0.19166260E+00 0.46800894E+03</pdfrwt>
<pdfrwt beam="2">  1       -2 0.27436481E-01 0.46800894E+03</pdfrwt>
<totfact> 0.22266803E+02</totfact>
</mgrwt>
</event>
<event>
 4    1  0.2338029E-002  0.4396696E+03  0.7818608E-02  0.1030848E+00
          1   -1    0    0  502    0  0.00000000000E+00  0.00000000000E+00  0.42564935958E+04  0.42564935958E+04  0.00000000000E+00 0. -1.
         -1   -1    0    0    0  501 -0.00000000000E+00 -0.00000000000E+00 -0.62859782024E+02  0.62859782024E+02  0.00000000000E+00 0.  1.
    9000007    1    1    2  502    0 -0.22125704103E+02  0.18116226885E+03  0.95910276810E+03  0.10550769802E+04  0.40000000000E+03 0.  1.
   -9000007    1    1    2    0  501  0.22125704103E+02 -0.18116226885E+03  0.32345310457E+04  0.32642763976E+04  0.40000000000E+03 0.  1.
<mgrwt>
<rscale>  2 0.43966955E+03</rscale>
<asrwt>0</asrwt>
<pdfrwt beam="1">  1        1 0.65484494E+00 0.43966955E+03</pdfrwt>
<pdfrwt beam="2">  1       -1 0.96707391E-02 0.43966955E+03</pdfrwt>
<totfact> 0.44743669E+00</totfact>
</mgrwt>
</event>
<event>
 4    1  0.2338029E-002  0.4282296E+03  0.7818608E-02  0.1034421E+00
         -2   -1    0    0    0  501 -0.00000000000E+00  0.00000000000E+00  0.31512237486E+03  0.31512237486E+03  0.00000000000E+00 0. -1.
          2   -1    0    0  502    0  0.00000000000E+00 -0.00000000000E+00 -0.58867115030E+03  0.58867115030E+03  0.00000000000E+00 0.  1.
    9000007    1    1    2  502    0 -0.12069590455E+03  0.93878042919E+02 -0.18511633875E+03  0.46652829195E+03  0.40000000000E+03 0.  1.
   -9000007    1    1    2    0  501  0.12069590455E+03 -0.93878042919E+02 -0.88432436686E+02  0.43726523321E+03  0.40000000000E+03 0. -1.
<mgrwt>
<rscale>  2 0.42822960E+03</rscale>
<asrwt>0</asrwt>
<pdfrwt beam="1">  1        2 0.90564792E-01 0.42822960E+03</pdfrwt>
<pdfrwt beam="2">  1       -2 0.48480366E-01 0.42822960E+03</pdfrwt>
<totfact> 0.21006008E+02</totfact>
</mgrwt>
</event>
<event>
 4    1  0.2338029E-002  0.4824884E+03  0.7818608E-02  0.1018454E+00
          2   -1    0    0  502    0  0.00000000000E+00  0.00000000000E+00  0.10848399426E+04  0.10848399426E+04  0.00000000000E+00 0. -1.
         -2   -1    0    0    0  501 -0.00000000000E+00 -0.00000000000E+00 -0.23119683658E+03  0.23119683658E+03  0.00000000000E+00 0.  1.
    9000007    1    1    2  502    0 -0.19374761574E+03 -0.18776818386E+03  0.60318146350E+03  0.77241368928E+03  0.40000000000E+03 0.  1.
   -9000007    1    1    2    0  501  0.19374761574E+03  0.18776818386E+03  0.25046164247E+03  0.54362308986E+03  0.40000000000E+03 0.  1.
<mgrwt>
<rscale>  2 0.48248837E+03</rscale>
<asrwt>0</asrwt>
<pdfrwt beam="1">  1        2 0.16689845E+00 0.48248837E+03</pdfrwt>
<pdfrwt beam="2">  1       -2 0.35568745E-01 0.48248837E+03</pdfrwt>
<totfact> 0.17090372E+02</totfact>
</mgrwt>
</event>
<event>
 4    1  0.2338029E-002  0.4432535E+03  0.7818608E-02  0.1029753E+00
         -2   -1    0    0    0  501 -0.00000000000E+00  0.00000000000E+00  0.14607203216E+03  0.14607203216E+03  0.00000000000E+00 0.  1.
          2   -1    0    0  502    0  0.00000000000E+00 -0.00000000000E+00 -0.14229764465E+04  0.14229764465E+04  0.00000000000E+00 0. -1.
    9000007    1    1    2  502    0 -0.12156788299E+03  0.14729185467E+03 -0.45485741118E+03  0.63511330102E+03  0.40000000000E+03 0.  1.
   -9000007    1    1    2    0  501  0.12156788299E+03 -0.14729185467E+03 -0.82204700317E+03  0.93393517764E+03  0.40000000000E+03 0. -1.
<mgrwt>
<rscale>  2 0.44325347E+03</rscale>
<asrwt>0</asrwt>
<pdfrwt beam="1">  1        2 0.21891946E+00 0.44325347E+03</pdfrwt>
<pdfrwt beam="2">  1       -2 0.22472620E-01 0.44325347E+03</pdfrwt>
<totfact> 0.25352967E+02</totfact>
</mgrwt>
</event>
<event>
 4    1  0.2338029E-002  0.5065906E+03  0.7818608E-02  0.1012073E+00
         -1   -1    0    0    0  501 -0.00000000000E+00  0.00000000000E+00  0.13178979954E+04  0.13178979954E+04  0.00000000000E+00 0.  1.
          1   -1    0    0  502    0  0.00000000000E+00 -0.00000000000E+00 -0.21259926897E+03  0.21259926897E+03  0.00000000000E+00 0. -1.
    9000007    1    1    2  502    0 -0.28307982972E+03  0.12845180266E+03  0.77450839320E+03  0.92547139704E+03  0.40000000000E+03 0.  1.
   -9000007    1    1    2    0  501  0.28307982972E+03 -0.12845180266E+03  0.33079033325E+03  0.60502586736E+03  0.40000000000E+03 0. -1.
<mgrwt>
<rscale>  2 0.50659062E+03</rscale>
<asrwt>0</asrwt>
<pdfrwt beam="1">  1        1 0.32707581E-01 0.50659062E+03</pdfrwt>
<pdfrwt beam="2">  1       -1 0.20275353E+00 0.50659062E+03</pdfrwt>
<totfact> 0.20918409E+01</totfact>
</mgrwt>
</event>
<event>
 4    1  0.2338029E-002  0.4477224E+03  0.7818608E-02  0.1028403E+00
          2   -1    0    0  502    0  0.00000000000E+00  0.00000000000E+00  0.13369419371E+04  0.13369419371E+04  0.00000000000E+00 0. -1.
         -2   -1    0    0    0  501 -0.00000000000E+00 -0.00000000000E+00 -0.15591338931E+03  0.15591338931E+03  0.00000000000E+00 0.  1.
    9000007    1    1    2  502    0  0.16692842975E+03  0.11220625182E+03  0.44435977457E+03  0.63080183328E+03  0.40000000000E+03 0. -1.
   -9000007    1    1    2    0  501 -0.16692842975E+03 -0.11220625182E+03  0.73666877324E+03  0.86205349316E+03  0.40000000000E+03 0.  1.
<mgrwt>
<rscale>  2 0.44772240E+03</rscale>
<asrwt>0</asrwt>
<pdfrwt beam="1">  1        2 0.20568337E+00 0.44772240E+03</pdfrwt>
<pdfrwt beam="2">  1       -2 0.23986676E-01 0.44772240E+03</pdfrwt>
<totfact> 0.25213598E+02</totfact>
</mgrwt>
</event>
<event>
 4    1  0.2338029E-002  0.4419003E+03  0.7818608E-02  0.1030165E+00
          2   -1    0    0  502    0  0.00000000000E+00  0.00000000000E+00  0.11592761565E+04  0.11592761565E+04  0.00000000000E+00 0. -1.
         -2   -1    0    0    0  501 -0.00000000000E+00 -0.00000000000E+00 -0.38546290824E+03  0.38546290824E+03  0.00000000000E+00 0.  1.
    9000007    1    1    2  502    0  0.18774021874E+03 -0.54340713755E+01  0.96644233505E+03  0.10626790230E+04  0.40000000000E+03 0. -1.
   -9000007    1    1    2    0  501 -0.18774021874E+03  0.54340713755E+01 -0.19262908674E+03  0.48206004182E+03  0.40000000000E+03 0.  1.
<mgrwt>
<rscale>  2 0.44190035E+03</rscale>
<asrwt>0</asrwt>
<pdfrwt beam="1">  1        2 0.17835018E+00 0.44190035E+03</pdfrwt>
<pdfrwt beam="2">  1       -2 0.59301986E-01 0.44190035E+03</pdfrwt>
<totfact> 0.56107024E+01</totfact>
</mgrwt>
</event>
<event>
 4    1  0.2338029E-002  0.4490963E+03  0.7818608E-02  0.1027992E+00
          1   -1    0    0  502    0  0.00000000000E+00  0.00000000000E+00  0.55818418753E+03  0.55818418753E+03  0.00000000000E+00 0. -1.
         -1   -1    0    0    0  501 -0.00000000000E+00 -0.00000000000E+00 -0.39700849276E+03  0.39700849276E+03  0.00000000000E+00 0.  1.
    9000007    1    1    2  502    0  0.14640850385E+03  0.14230956949E+03  0.22376632498E+03  0.50175574911E+03  0.40000000000E+03 0. -1.
   -9000007    1    1    2    0  501 -0.14640850385E+03 -0.14230956949E+03 -0.62590630207E+02  0.45343693118E+03  0.40000000000E+03 0.  1.
<mgrwt>
<rscale>  2 0.44909627E+03</rscale>
<asrwt>0</asrwt>
<pdfrwt beam="1">  1        1 0.85874491E-01 0.44909627E+03</pdfrwt>
<pdfrwt beam="2">  1       -1 0.61078230E-01 0.44909627E+03</pdfrwt>
<totfact> 0.10782391E+02</totfact>
</mgrwt>
</event>
<event>
 4    1  0.2338029E-002  0.4896910E+03  0.7818608E-02  0.1016505E+00
          2   -1    0    0  502    0  0.00000000000E+00  0.00000000000E+00  0.23749124220E+04  0.23749124220E+04  0.00000000000E+00 0.  1.
         -2   -1    0    0    0  501 -0.00000000000E+00 -0.00000000000E+00 -0.10525813334E+03  0.10525813334E+03  0.00000000000E+00 0. -1.
    9000007    1    1    2  502    0 -0.42819940408E+02  0.27921976908E+03  0.88455737279E+03  0.10110583428E+04  0.40000000000E+03 0. -1.
   -9000007    1    1    2    0  501  0.42819940408E+02 -0.27921976908E+03  0.13850969159E+04  0.14691122126E+04  0.40000000000E+03 0.  1.
<mgrwt>
<rscale>  2 0.48969095E+03</rscale>
<asrwt>0</asrwt>
<pdfrwt beam="1">  1        2 0.36537110E+00 0.48969095E+03</pdfrwt>
<pdfrwt beam="2">  1       -2 0.16193561E-01 0.48969095E+03</pdfrwt>
<totfact> 0.13532976E+02</totfact>
</mgrwt>
</event>
<event>
 4    1  0.2338029E-002  0.4175969E+03  0.7818608E-02  0.1037851E+00
         -2   -1    0    0    0  501 -0.00000000000E+00  0.00000000000E+00  0.24934324333E+03  0.24934324333E+03  0.00000000000E+00 0. -1.
          2   -1    0    0  502    0  0.00000000000E+00 -0.00000000000E+00 -0.70780955341E+03  0.70780955341E+03  0.00000000000E+00 0.  1.
    9000007    1    1    2  502    0 -0.11296049725E+03 -0.40336895532E+02 -0.17702428420E+03  0.45356888813E+03  0.40000000000E+03 0. -1.
   -9000007    1    1    2    0  501  0.11296049725E+03  0.40336895532E+02 -0.28144202588E+03  0.50358390861E+03  0.40000000000E+03 0.  1.
<mgrwt>
<rscale>  2 0.41759686E+03</rscale>
<asrwt>0</asrwt>
<pdfrwt beam="1">  1        2 0.10889378E+00 0.41759686E+03</pdfrwt>
<pdfrwt beam="2">  1       -2 0.38360499E-01 0.41759686E+03</pdfrwt>
<totfact> 0.26615716E+02</totfact>
</mgrwt>
</event>
<event>
 4    1  0.2338029E-002  0.4966425E+03  0.7818608E-02  0.1014659E+00
         -2   -1    0    0    0  501 -0.00000000000E+00  0.00000000000E+00  0.60535459121E+03  0.60535459121E+03  0.00000000000E+00 0. -1.
          2   -1    0    0  502    0  0.00000000000E+00 -0.00000000000E+00 -0.63175402027E+03  0.63175402027E+03  0.00000000000E+00 0.  1.
    9000007    1    1    2  502    0 -0.14139456783E+03  0.25818858652E+03  0.35536952849E+03  0.61068917774E+03  0.40000000000E+03 0. -1.
   -9000007    1    1    2    0  501  0.14139456783E+03 -0.25818858652E+03 -0.38176895755E+03  0.62641943374E+03  0.40000000000E+03 0.  1.
<mgrwt>
<rscale>  2 0.49664250E+03</rscale>
<asrwt>0</asrwt>
<pdfrwt beam="1">  1        2 0.97192926E-01 0.49664250E+03</pdfrwt>
<pdfrwt beam="2">  1       -2 0.93131476E-01 0.49664250E+03</pdfrwt>
<totfact> 0.47092707E+01</totfact>
</mgrwt>
</event>
<event>
 4    1  0.2338029E-002  0.5256535E+03  0.7818608E-02  0.1007292E+00
         -2   -1    0    0    0  501 -0.00000000000E+00  0.00000000000E+00  0.11220529709E+03  0.11220529709E+03  0.00000000000E+00 0.  1.
          2   -1    0    0  502    0  0.00000000000E+00 -0.00000000000E+00 -0.26232441544E+04  0.26232441544E+04  0.00000000000E+00 0. -1.
    9000007    1    1    2  502    0  0.25013365646E+03  0.23182921226E+03 -0.91700775091E+03  0.10569838433E+04  0.40000000000E+03 0.  1.
   -9000007    1    1    2    0  501 -0.25013365646E+03 -0.23182921226E+03 -0.15940311064E+04  0.16784656082E+04  0.40000000000E+03 0.  1.
<mgrwt>
<rscale>  2 0.52565353E+03</rscale>
<asrwt>0</asrwt>
<pdfrwt beam="1">  1        2 0.40357599E+00 0.52565353E+03</pdfrwt>
<pdfrwt beam="2">  1       -2 0.17262355E-01 0.52565353E+03</pdfrwt>
<totfact> 0.87580864E+01</totfact>
</mgrwt>
</event>
<event>
 4    1  0.2338029E-002  0.5261808E+03  0.7818608E-02  0.1007163E+00
          4   -1    0    0  502    0  0.00000000000E+00  0.00000000000E+00  0.20645941556E+03  0.20645941556E+03  0.00000000000E+00 0. -1.
         -4   -1    0    0    0  501 -0.00000000000E+00 -0.00000000000E+00 -0.13929952937E+04  0.13929952937E+04  0.00000000000E+00 0.  1.
    9000007    1    1    2  502    0 -0.22464343859E+03  0.25768495168E+03 -0.43879033165E+03  0.68513003435E+03  0.40000000000E+03 0. -1.
   -9000007    1    1    2    0  501  0.22464343859E+03 -0.25768495168E+03 -0.74774554650E+03  0.91432467490E+03  0.40000000000E+03 0.  1.
<mgrwt>
<rscale>  2 0.52618078E+03</rscale>
<asrwt>0</asrwt>
<pdfrwt beam="1">  1        4 0.31762988E-01 0.52618078E+03</pdfrwt>
<pdfrwt beam="2">  1       -4 0.21430696E+00 0.52618078E+03</pdfrwt>
<totfact> 0.20372127E+00</totfact>
</mgrwt>
</event>
<event>
 4    1  0.2338029E-002  0.4092359E+03  0.7818608E-02  0.1040628E+00
         -1   -1    0    0    0  501 -0.00000000000E+00  0.00000000000E+00  0.43009338071E+03  0.43009338071E+03  0.00000000000E+00 0.  1.
          1   -1    0    0  502    0  0.00000000000E+00 -0.00000000000E+00 -0.41134537936E+03  0.41134537936E+03  0.00000000000E+00 0. -1.
    9000007    1    1    2  502    0 -0.65522432984E+02  0.56399154595E+02 -0.87824564713E+02  0.41855370985E+03  0.40000000000E+03 0. -1.
   -9000007    1    1    2    0  501  0.65522432984E+02 -0.56399154595E+02  0.10657256605E+03  0.42288505022E+03  0.40000000000E+03 0.  1.
<mgrwt>
<rscale>  2 0.40923594E+03</rscale>
<asrwt>0</asrwt>
<pdfrwt beam="1">  1        1 0.63283904E-01 0.40923594E+03</pdfrwt>
<pdfrwt beam="2">  1       -1 0.66168213E-01 0.40923594E+03</pdfrwt>
<totfact> 0.13934950E+02</totfact>
</mgrwt>
</event>
<event>
 4    1  0.2338029E-002  0.5738312E+03  0.7818608E-02  0.9961236E-01
          1   -1    0    0  502    0  0.00000000000E+00  0.00000000000E+00  0.27675780099E+04  0.27675780099E+04  0.00000000000E+00 0.  1.
         -1   -1    0    0    0  501 -0.00000000000E+00 -0.00000000000E+00 -0.13803111577E+03  0.13803111577E+03  0.00000000000E+00 0. -1.
    9000007    1    1    2  502    0 -0.40394822626E+03 -0.78154432065E+02  0.18545275867E+04  0.19412766044E+04  0.40000000000E+03 0.  1.
   -9000007    1    1    2    0  501  0.40394822626E+03  0.78154432065E+02  0.77501930734E+03  0.96433252123E+03  0.40000000000E+03 0. -1.
<mgrwt>
<rscale>  2 0.57383123E+03</rscale>
<asrwt>0</asrwt>
<pdfrwt beam="1">  1        1 0.42578119E+00 0.57383123E+03</pdfrwt>
<pdfrwt beam="2">  1       -1 0.21235558E-01 0.57383123E+03</pdfrwt>
<totfact> 0.17657887E+01</totfact>
</mgrwt>
</event>
<event>
 4    1  0.2338029E-002  0.4225701E+03  0.7818608E-02  0.1036233E+00
         -2   -1    0    0    0  501 -0.00000000000E+00  0.00000000000E+00  0.14227683157E+03  0.14227683157E+03  0.00000000000E+00 0. -1.
          2   -1    0    0  502    0  0.00000000000E+00 -0.00000000000E+00 -0.13730044575E+04  0.13730044575E+04  0.00000000000E+00 0.  1.
    9000007    1    1    2  502    0  0.75638518079E+02  0.11333264410E+03 -0.83742484630E+03  0.93800098446E+03  0.40000000000E+03 0.  1.
   -9000007    1    1    2    0  501 -0.75638518079E+02 -0.11333264410E+03 -0.39330277965E+03  0.57728030463E+03  0.40000000000E+03 0. -1.
<mgrwt>
<rscale>  2 0.42257008E+03</rscale>
<asrwt>0</asrwt>
<pdfrwt beam="1">  1        2 0.21123146E+00 0.42257008E+03</pdfrwt>
<pdfrwt beam="2">  1       -2 0.21888742E-01 0.42257008E+03</pdfrwt>
<totfact> 0.28367954E+02</totfact>
</mgrwt>
</event>
<event>
 4    1  0.2338029E-002  0.5040085E+03  0.7818608E-02  0.1012738E+00
          2   -1    0    0  502    0  0.00000000000E+00  0.00000000000E+00  0.57123087014E+03  0.57123087014E+03  0.00000000000E+00 0. -1.
         -2   -1    0    0    0  501 -0.00000000000E+00 -0.00000000000E+00 -0.51982831700E+03  0.51982831700E+03  0.00000000000E+00 0.  1.
    9000007    1    1    2  502    0 -0.88825948238E+02  0.29348674608E+03  0.23309687372E+03  0.55530052381E+03  0.40000000000E+03 0. -1.
   -9000007    1    1    2    0  501  0.88825948238E+02 -0.29348674608E+03 -0.18169432058E+03  0.53575866333E+03  0.40000000000E+03 0. -1.
<mgrwt>
<rscale>  2 0.50400845E+03</rscale>
<asrwt>0</asrwt>
<pdfrwt beam="1">  1        2 0.87881673E-01 0.50400845E+03</pdfrwt>
<pdfrwt beam="2">  1       -2 0.79973587E-01 0.50400845E+03</pdfrwt>
<totfact> 0.75010667E+01</totfact>
</mgrwt>
</event>
<event>
 4    1  0.2338029E-002  0.4108505E+03  0.7818608E-02  0.1040086E+00
          2   -1    0    0  502    0  0.00000000000E+00  0.00000000000E+00  0.14998694256E+04  0.14998694256E+04  0.00000000000E+00 0.  1.
         -2   -1    0    0    0  501 -0.00000000000E+00 -0.00000000000E+00 -0.13295031787E+03  0.13295031787E+03  0.00000000000E+00 0. -1.
    9000007    1    1    2  502    0  0.93624298579E+02  0.57102743634E+01  0.36359324497E+03  0.54863299601E+03  0.40000000000E+03 0. -1.
   -9000007    1    1    2    0  501 -0.93624298579E+02 -0.57102743634E+01  0.10033258628E+04  0.10841867475E+04  0.40000000000E+03 0.  1.
<mgrwt>
<rscale>  2 0.41085048E+03</rscale>
<asrwt>0</asrwt>
<pdfrwt beam="1">  1        2 0.23074913E+00 0.41085048E+03</pdfrwt>
<pdfrwt beam="2">  1       -2 0.20453896E-01 0.41085048E+03</pdfrwt>
<totfact> 0.27224708E+02</totfact>
</mgrwt>
</event>
<event>
 4    1  0.2338029E-002  0.4679045E+03  0.7818608E-02  0.1022513E+00
          2   -1    0    0  502    0  0.00000000000E+00  0.00000000000E+00  0.10325765518E+04  0.10325765518E+04  0.00000000000E+00 0.  1.
         -2   -1    0    0    0  501 -0.00000000000E+00 -0.00000000000E+00 -0.21301526382E+03  0.21301526382E+03  0.00000000000E+00 0. -1.
    9000007    1    1    2  502    0 -0.67807725435E+02  0.23310240284E+03  0.36737062815E+03  0.59489141553E+03  0.40000000000E+03 0.  1.
   -9000007    1    1    2    0  501  0.67807725435E+02 -0.23310240284E+03  0.45219065983E+03  0.65070040008E+03  0.40000000000E+03 0. -1.
<mgrwt>
<rscale>  2 0.46790450E+03</rscale>
<asrwt>0</asrwt>
<pdfrwt beam="1">  1        2 0.15885793E+00 0.46790450E+03</pdfrwt>
<pdfrwt beam="2">  1       -2 0.32771580E-01 0.46790450E+03</pdfrwt>
<totfact> 0.21493199E+02</totfact>
</mgrwt>
</event>
<event>
 4    1  0.2338029E-002  0.4445250E+03  0.7818608E-02  0.1029367E+00
          2   -1    0    0  502    0  0.00000000000E+00  0.00000000000E+00  0.19708835761E+04  0.19708835761E+04  0.00000000000E+00 0.  1.
         -2   -1    0    0    0  501 -0.00000000000E+00 -0.00000000000E+00 -0.10147520371E+03  0.10147520371E+03  0.00000000000E+00 0. -1.
    9000007    1    1    2  502    0 -0.12588535567E+02  0.19350445235E+03  0.82135217140E+03  0.93392817378E+03  0.40000000000E+03 0.  1.
   -9000007    1    1    2    0  501  0.12588535567E+02 -0.19350445235E+03  0.10480562010E+04  0.11384306060E+04  0.40000000000E+03 0. -1.
<mgrwt>
<rscale>  2 0.44452496E+03</rscale>
<asrwt>0</asrwt>
<pdfrwt beam="1">  1        2 0.30321283E+00 0.44452496E+03</pdfrwt>
<pdfrwt beam="2">  1       -2 0.15611571E-01 0.44452496E+03</pdfrwt>
<totfact> 0.24010591E+02</totfact>
</mgrwt>
</event>
<event>
 4    1  0.2338029E-002  0.4847753E+03  0.7818608E-02  0.1017831E+00
          4   -1    0    0  502    0  0.00000000000E+00  0.00000000000E+00  0.16112438027E+03  0.16112438027E+03  0.00000000000E+00 0. -1.
         -4   -1    0    0    0  501 -0.00000000000E+00 -0.00000000000E+00 -0.14935011601E+04  0.14935011601E+04  0.00000000000E+00 0.  1.
    9000007    1    1    2  502    0  0.12363010934E+03 -0.24438230242E+03 -0.53961845342E+03  0.72539312717E+03  0.40000000000E+03 0. -1.
   -9000007    1    1    2    0  501 -0.12363010934E+03  0.24438230242E+03 -0.79275832643E+03  0.92923241323E+03  0.40000000000E+03 0. -1.
<mgrwt>
<rscale>  2 0.48477532E+03</rscale>
<asrwt>0</asrwt>
<pdfrwt beam="1">  1        4 0.24788367E-01 0.48477532E+03</pdfrwt>
<pdfrwt beam="2">  1       -4 0.22976940E+00 0.48477532E+03</pdfrwt>
<totfact> 0.26253249E+00</totfact>
</mgrwt>
</event>
<event>
 4    1  0.2338029E-002  0.4785796E+03  0.7818608E-02  0.1019526E+00
         -2   -1    0    0    0  501 -0.00000000000E+00  0.00000000000E+00  0.98447366508E+02  0.98447366508E+02  0.00000000000E+00 0.  1.
          2   -1    0    0  502    0  0.00000000000E+00 -0.00000000000E+00 -0.26621148464E+04  0.26621148464E+04  0.00000000000E+00 0. -1.
    9000007    1    1    2  502    0 -0.20214015865E+03 -0.16786240668E+03 -0.17719177923E+04  0.18354103339E+04  0.40000000000E+03 0. -1.
   -9000007    1    1    2    0  501  0.20214015865E+03  0.16786240668E+03 -0.79174968755E+03  0.92515187891E+03  0.40000000000E+03 0.  1.
<mgrwt>
<rscale>  2 0.47857960E+03</rscale>
<asrwt>0</asrwt>
<pdfrwt beam="1">  1        2 0.40955612E+00 0.47857960E+03</pdfrwt>
<pdfrwt beam="2">  1       -2 0.15145749E-01 0.47857960E+03</pdfrwt>
<totfact> 0.10476319E+02</totfact>
</mgrwt>
</event>
<event>
 4    1  0.2338029E-002  0.5364015E+03  0.7818608E-02  0.1004691E+00
         -2   -1    0    0    0  501 -0.00000000000E+00  0.00000000000E+00  0.69757906280E+03  0.69757906280E+03  0.00000000000E+00 0.  1.
          2   -1    0    0  502    0  0.00000000000E+00 -0.00000000000E+00 -0.42797491837E+03  0.42797491837E+03  0.00000000000E+00 0. -1.
    9000007    1    1    2  502    0  0.21536660808E+02 -0.35673909577E+03  0.24193888247E+03  0.58843948972E+03  0.40000000000E+03 0.  1.
   -9000007    1    1    2    0  501 -0.21536660808E+02  0.35673909577E+03  0.27665261952E+02  0.53711449145E+03  0.40000000000E+03 0. -1.
<mgrwt>
<rscale>  2 0.53640154E+03</rscale>
<asrwt>0</asrwt>
<pdfrwt beam="1">  1        2 0.65842295E-01 0.53640154E+03</pdfrwt>
<pdfrwt beam="2">  1       -2 0.10731986E+00 0.53640154E+03</pdfrwt>
<totfact> 0.52767095E+01</totfact>
</mgrwt>
</event>
<event>
 4    1  0.2338029E-002  0.4467960E+03  0.7818608E-02  0.1028682E+00
         -2   -1    0    0    0  501 -0.00000000000E+00  0.00000000000E+00  0.16319961589E+03  0.16319961589E+03  0.00000000000E+00 0.  1.
          2   -1    0    0  502    0  0.00000000000E+00 -0.00000000000E+00 -0.13090884960E+04  0.13090884960E+04  0.00000000000E+00 0. -1.
    9000007    1    1    2  502    0  0.17971238032E+03  0.85616320323E+02 -0.76149659217E+03  0.88289509787E+03  0.40000000000E+03 0. -1.
   -9000007    1    1    2    0  501 -0.17971238032E+03 -0.85616320323E+02 -0.38439228790E+03  0.58939301399E+03  0.40000000000E+03 0. -1.
<mgrwt>
<rscale>  2 0.44679603E+03</rscale>
<asrwt>0</asrwt>
<pdfrwt beam="1">  1        2 0.20139824E+00 0.44679603E+03</pdfrwt>
<pdfrwt beam="2">  1       -2 0.25107632E-01 0.44679603E+03</pdfrwt>
<totfact> 0.24098648E+02</totfact>
</mgrwt>
</event>
<event>
 4    1  0.2338029E-002  0.6586308E+03  0.7818608E-02  0.9790717E-01
         -2   -1    0    0    0  501 -0.00000000000E+00  0.00000000000E+00  0.81157827807E+03  0.81157827807E+03  0.00000000000E+00 0. -1.
          2   -1    0    0  502    0  0.00000000000E+00 -0.00000000000E+00 -0.16577411892E+04  0.16577411892E+04  0.00000000000E+00 0.  1.
    9000007    1    1    2  502    0 -0.50928797159E+03  0.12008469121E+03  0.59322341269E+03  0.88640204672E+03  0.40000000000E+03 0. -1.
   -9000007    1    1    2    0  501  0.50928797159E+03 -0.12008469121E+03 -0.14393863238E+04  0.15829174206E+04  0.40000000000E+03 0.  1.
<mgrwt>
<rscale>  2 0.65863083E+03</rscale>
<asrwt>0</asrwt>
<pdfrwt beam="1">  1        2 0.25503710E+00 0.65863083E+03</pdfrwt>
<pdfrwt beam="2">  1       -2 0.12485820E+00 0.65863083E+03</pdfrwt>
<totfact> 0.51984713E+00</totfact>
</mgrwt>
</event>
<event>
 4    1  0.2338029E-002  0.5564581E+03  0.7818608E-02  0.1000010E+00
          2   -1    0    0  502    0  0.00000000000E+00  0.00000000000E+00  0.94748254902E+03  0.94748254902E+03  0.00000000000E+00 0. -1.
         -2   -1    0    0    0  501 -0.00000000000E+00 -0.00000000000E+00 -0.42338979488E+03  0.42338979488E+03  0.00000000000E+00 0.  1.
    9000007    1    1    2  502    0 -0.15798724881E+03 -0.35310860941E+03  0.58941918408E+03  0.81059276791E+03  0.40000000000E+03 0. -1.
   -9000007    1    1    2    0  501  0.15798724881E+03  0.35310860941E+03 -0.65326429944E+02  0.56027957599E+03  0.40000000000E+03 0.  1.
<mgrwt>
<rscale>  2 0.55645814E+03</rscale>
<asrwt>0</asrwt>
<pdfrwt beam="1">  1        2 0.14576655E+00 0.55645814E+03</pdfrwt>
<pdfrwt beam="2">  1       -2 0.65136891E-01 0.55645814E+03</pdfrwt>
<totfact> 0.61199283E+01</totfact>
</mgrwt>
</event>
<event>
 4    1  0.2338029E-002  0.5783369E+03  0.7818608E-02  0.9951398E-01
          1   -1    0    0  502    0  0.00000000000E+00  0.00000000000E+00  0.11690575107E+04  0.11690575107E+04  0.00000000000E+00 0. -1.
         -1   -1    0    0    0  501 -0.00000000000E+00 -0.00000000000E+00 -0.29399259105E+03  0.29399259105E+03  0.00000000000E+00 0.  1.
    9000007    1    1    2  502    0 -0.40058190405E+02  0.41577506041E+03  0.31771372878E+03  0.65986026773E+03  0.40000000000E+03 0.  1.
   -9000007    1    1    2    0  501  0.40058190405E+02 -0.41577506041E+03  0.55735119084E+03  0.80318983398E+03  0.40000000000E+03 0. -1.
<mgrwt>
<rscale>  2 0.57833689E+03</rscale>
<asrwt>0</asrwt>
<pdfrwt beam="1">  1        1 0.17985500E+00 0.57833689E+03</pdfrwt>
<pdfrwt beam="2">  1       -1 0.45229630E-01 0.57833689E+03</pdfrwt>
<totfact> 0.57055756E+01</totfact>
</mgrwt>
</event>
<event>
 4    1  0.2338029E-002  0.4399677E+03  0.7818608E-02  0.1030757E+00
         -1   -1    0    0    0  501 -0.00000000000E+00  0.00000000000E+00  0.49666279758E+03  0.49666279758E+03  0.00000000000E+00 0. -1.
          1   -1    0    0  502    0  0.00000000000E+00 -0.00000000000E+00 -0.46885838782E+03  0.46885838782E+03  0.00000000000E+00 0.  1.
    9000007    1    1    2  502    0 -0.17770032294E+03 -0.44655715136E+02 -0.18440461048E+03  0.47704989051E+03  0.40000000000E+03 0.  1.
   -9000007    1    1    2    0  501  0.17770032294E+03  0.44655715136E+02  0.21220902023E+03  0.48847129489E+03  0.40000000000E+03 0. -1.
<mgrwt>
<rscale>  2 0.43996766E+03</rscale>
<asrwt>0</asrwt>
<pdfrwt beam="1">  1        1 0.72132059E-01 0.43996766E+03</pdfrwt>
<pdfrwt beam="2">  1       -1 0.76409662E-01 0.43996766E+03</pdfrwt>
<totfact> 0.87182728E+01</totfact>
</mgrwt>
</event>
<event>
 4    1  0.2338029E-002  0.4334945E+03  0.7818608E-02  0.1032762E+00
         -2   -1    0    0    0  501 -0.00000000000E+00  0.00000000000E+00  0.38081903622E+03  0.38081903622E+03  0.00000000000E+00 0. -1.
          2   -1    0    0  502    0  0.00000000000E+00 -0.00000000000E+00 -0.52434241526E+03  0.52434241526E+03  0.00000000000E+00 0.  1.
    9000007    1    1    2  502    0  0.15905819012E+03  0.51165990194E+02 -0.18160453998E+03  0.46999752695E+03  0.40000000000E+03 0.  1.
   -9000007    1    1    2    0  501 -0.15905819012E+03 -0.51165990194E+02  0.38081160929E+02  0.43516392453E+03  0.40000000000E+03 0. -1.
<mgrwt>
<rscale>  2 0.43349448E+03</rscale>
<asrwt>0</asrwt>
<pdfrwt beam="1">  1        2 0.80668064E-01 0.43349448E+03</pdfrwt>
<pdfrwt beam="2">  1       -2 0.58587544E-01 0.43349448E+03</pdfrwt>
<totfact> 0.16316623E+02</totfact>
</mgrwt>
</event>
<event>
 4    1  0.2338029E-002  0.4325439E+03  0.7818608E-02  0.1033059E+00
          2   -1    0    0  502    0  0.00000000000E+00  0.00000000000E+00  0.50910294508E+04  0.50910294508E+04  0.00000000000E+00 0.  1.
         -2   -1    0    0    0  501 -0.00000000000E+00 -0.00000000000E+00 -0.45286668650E+02  0.45286668650E+02  0.00000000000E+00 0. -1.
    9000007    1    1    2  502    0 -0.52225958849E+02  0.15609825413E+03  0.14078419021E+04  0.14727909006E+04  0.40000000000E+03 0. -1.
   -9000007    1    1    2    0  501  0.52225958849E+02 -0.15609825413E+03  0.36379008801E+04  0.36635252188E+04  0.40000000000E+03 0.  1.
<mgrwt>
<rscale>  2 0.43254389E+03</rscale>
<asrwt>0</asrwt>
<pdfrwt beam="1">  1        2 0.78323485E+00 0.43254389E+03</pdfrwt>
<pdfrwt beam="2">  1       -2 0.69671838E-02 0.43254389E+03</pdfrwt>
<totfact> 0.41983684E+00</totfact>
</mgrwt>
</event>
<event>
 4    1  0.2338029E-002  0.4510890E+03  0.7818608E-02  0.1027398E+00
         -2   -1    0    0    0  501 -0.00000000000E+00  0.00000000000E+00  0.20283572666E+03  0.20283572666E+03  0.00000000000E+00 0.  1.
          2   -1    0    0  502    0  0.00000000000E+00 -0.00000000000E+00 -0.12322005417E+04  0.12322005417E+04  0.00000000000E+00 0. -1.
    9000007    1    1    2  502    0  0.15791676904E+03 -0.13617488507E+03 -0.20534903227E+03  0.49563043724E+03  0.40000000000E+03 0.  1.
   -9000007    1    1    2    0  501 -0.15791676904E+03  0.13617488507E+03 -0.82401578275E+03  0.93940583109E+03  0.40000000000E+03 0. -1.
<mgrwt>
<rscale>  2 0.45108902E+03</rscale>
<asrwt>0</asrwt>
<pdfrwt beam="1">  1        2 0.18956931E+00 0.45108902E+03</pdfrwt>
<pdfrwt beam="2">  1       -2 0.31205496E-01 0.45108902E+03</pdfrwt>
<totfact> 0.17937770E+02</totfact>
</mgrwt>
</event>
<event>
 4    1  0.2338029E-002  0.4046815E+03  0.7818608E-02  0.1042171E+00
         -2   -1    0    0    0  501 -0.00000000000E+00  0.00000000000E+00  0.24509389154E+03  0.24509389154E+03  0.00000000000E+00 0.  1.
          2   -1    0    0  502    0  0.00000000000E+00 -0.00000000000E+00 -0.75516371024E+03  0.75516371024E+03  0.00000000000E+00 0. -1.
    9000007    1    1    2  502    0 -0.56373944239E+02 -0.24271031755E+02 -0.42477230813E+03  0.58668442823E+03  0.40000000000E+03 0. -1.
   -9000007    1    1    2    0  501  0.56373944239E+02  0.24271031755E+02 -0.85297510568E+02  0.41357317355E+03  0.40000000000E+03 0.  1.
<mgrwt>
<rscale>  2 0.40468149E+03</rscale>
<asrwt>0</asrwt>
<pdfrwt beam="1">  1        2 0.11617903E+00 0.40468149E+03</pdfrwt>
<pdfrwt beam="2">  1       -2 0.37706753E-01 0.40468149E+03</pdfrwt>
<totfact> 0.25381297E+02</totfact>
</mgrwt>
</event>
<event>
 4    1  0.2338029E-002  0.4566002E+03  0.7818608E-02  0.1025772E+00
          2   -1    0    0  502    0  0.00000000000E+00  0.00000000000E+00  0.29322871777E+04  0.29322871777E+04  0.00000000000E+00 0. -1.
         -2   -1    0    0    0  501 -0.00000000000E+00 -0.00000000000E+00 -0.71233659172E+02  0.71233659172E+02  0.00000000000E+00 0.  1.
    9000007    1    1    2  502    0 -0.18773503985E+03 -0.11506198105E+03  0.13653166247E+04  0.14396434248E+04  0.40000000000E+03 0.  1.
   -9000007    1    1    2    0  501  0.18773503985E+03  0.11506198105E+03  0.14957368938E+04  0.15638774121E+04  0.40000000000E+03 0. -1.
<mgrwt>
<rscale>  2 0.45660016E+03</rscale>
<asrwt>0</asrwt>
<pdfrwt beam="1">  1        2 0.45112101E+00 0.45660016E+03</pdfrwt>
<pdfrwt beam="2">  1       -2 0.10959027E-01 0.45660016E+03</pdfrwt>
<totfact> 0.12496544E+02</totfact>
</mgrwt>
</event>
<event>
 4    1  0.2338029E-002  0.4498504E+03  0.7818608E-02  0.1027767E+00
         -1   -1    0    0    0  501 -0.00000000000E+00  0.00000000000E+00  0.63380143095E+03  0.63380143095E+03  0.00000000000E+00 0.  1.
          1   -1    0    0  502    0  0.00000000000E+00 -0.00000000000E+00 -0.37938687801E+03  0.37938687801E+03  0.00000000000E+00 0. -1.
    9000007    1    1    2  502    0 -0.86992911239E+02  0.18654127916E+03 -0.74420762228E+02  0.45596476321E+03  0.40000000000E+03 0. -1.
   -9000007    1    1    2    0  501  0.86992911239E+02 -0.18654127916E+03  0.32883531517E+03  0.55722354575E+03  0.40000000000E+03 0.  1.
<mgrwt>
<rscale>  2 0.44985044E+03</rscale>
<asrwt>0</asrwt>
<pdfrwt beam="1">  1        1 0.58367212E-01 0.44985044E+03</pdfrwt>
<pdfrwt beam="2">  1       -1 0.97507913E-01 0.44985044E+03</pdfrwt>
<totfact> 0.68121304E+01</totfact>
</mgrwt>
</event>
<event>
 4    1  0.2338029E-002  0.6227645E+03  0.7818608E-02  0.9859271E-01
         -2   -1    0    0    0  501 -0.00000000000E+00  0.00000000000E+00  0.28190176435E+03  0.28190176435E+03  0.00000000000E+00 0.  1.
          2   -1    0    0  502    0  0.00000000000E+00 -0.00000000000E+00 -0.17332135678E+04  0.17332135678E+04  0.00000000000E+00 0. -1.
    9000007    1    1    2  502    0 -0.27978223498E+03  0.38672668291E+03 -0.26810461688E+03  0.67802338594E+03  0.40000000000E+03 0. -1.
   -9000007    1    1    2    0  501  0.27978223498E+03 -0.38672668291E+03 -0.11832071866E+04  0.13370919462E+04  0.40000000000E+03 0.  1.
<mgrwt>
<rscale>  2 0.62276450E+03</rscale>
<asrwt>0</asrwt>
<pdfrwt beam="1">  1        2 0.26664824E+00 0.62276450E+03</pdfrwt>
<pdfrwt beam="2">  1       -2 0.43369502E-01 0.62276450E+03</pdfrwt>
<totfact> 0.49354515E+01</totfact>
</mgrwt>
</event>
<event>
 4    1  0.2338029E-002  0.4365716E+03  0.7818608E-02  0.1031804E+00
          2   -1    0    0  502    0  0.00000000000E+00  0.00000000000E+00  0.91560559743E+03  0.91560559743E+03  0.00000000000E+00 0. -1.
         -2   -1    0    0    0  501 -0.00000000000E+00 -0.00000000000E+00 -0.29594557205E+03  0.29594557205E+03  0.00000000000E+00 0.  1.
    9000007    1    1    2  502    0 -0.10548758834E+03  0.13952475456E+03  0.63975189894E+03  0.77451745018E+03  0.40000000000E+03 0. -1.
   -9000007    1    1    2    0  501  0.10548758834E+03 -0.13952475456E+03 -0.20091873568E+02  0.43703371931E+03  0.40000000000E+03 0.  1.
<mgrwt>
<rscale>  2 0.43657163E+03</rscale>
<asrwt>0</asrwt>
<pdfrwt beam="1">  1        2 0.14086240E+00 0.43657163E+03</pdfrwt>
<pdfrwt beam="2">  1       -2 0.45530088E-01 0.43657163E+03</pdfrwt>
<totfact> 0.13594524E+02</totfact>
</mgrwt>
</event>
<event>
 4    1  0.2338029E-002  0.7796486E+03  0.7818608E-02  0.9589951E-01
          4   -1    0    0  502    0  0.00000000000E+00  0.00000000000E+00  0.96239752767E+03  0.96239752767E+03  0.00000000000E+00 0.  1.
         -4   -1    0    0    0  501 -0.00000000000E+00 -0.00000000000E+00 -0.71386749426E+03  0.71386749426E+03  0.00000000000E+00 0. -1.
    9000007    1    1    2  502    0  0.29946331532E+03 -0.59847610709E+03  0.40878547162E+03  0.88031669857E+03  0.40000000000E+03 0.  1.
   -9000007    1    1    2    0  501 -0.29946331532E+03  0.59847610709E+03 -0.16025543821E+03  0.79594832335E+03  0.40000000000E+03 0. -1.
<mgrwt>
<rscale>  2 0.77964859E+03</rscale>
<asrwt>0</asrwt>
<pdfrwt beam="1">  1        4 0.14806116E+00 0.77964859E+03</pdfrwt>
<pdfrwt beam="2">  1       -4 0.10982577E+00 0.77964859E+03</pdfrwt>
<totfact> 0.39577803E-01</totfact>
</mgrwt>
</event>
<event>
 4    1  0.2338029E-002  0.4314573E+03  0.7818608E-02  0.1033401E+00
          1   -1    0    0  502    0  0.00000000000E+00  0.00000000000E+00  0.74726257910E+03  0.74726257910E+03  0.00000000000E+00 0.  1.
         -1   -1    0    0    0  501 -0.00000000000E+00 -0.00000000000E+00 -0.25420475788E+03  0.25420475788E+03  0.00000000000E+00 0. -1.
    9000007    1    1    2  502    0  0.14966013840E+03  0.61296537172E+02  0.17568534443E+03  0.46585487305E+03  0.40000000000E+03 0.  1.
   -9000007    1    1    2    0  501 -0.14966013840E+03 -0.61296537172E+02  0.31737247679E+03  0.53561246393E+03  0.40000000000E+03 0. -1.
<mgrwt>
<rscale>  2 0.43145732E+03</rscale>
<asrwt>0</asrwt>
<pdfrwt beam="1">  1        1 0.11496347E+00 0.43145732E+03</pdfrwt>
<pdfrwt beam="2">  1       -1 0.39108425E-01 0.43145732E+03</pdfrwt>
<totfact> 0.16280109E+02</totfact>
</mgrwt>
</event>
<event>
 4    1  0.2338029E-002  0.4808938E+03  0.7818608E-02  0.1018890E+00
         -2   -1    0    0    0  501 -0.00000000000E+00  0.00000000000E+00  0.10793472557E+03  0.10793472557E+03  0.00000000000E+00 0. -1.
          2   -1    0    0  502    0  0.00000000000E+00 -0.00000000000E+00 -0.21486632696E+04  0.21486632696E+04  0.00000000000E+00 0.  1.
    9000007    1    1    2  502    0  0.26640586917E+03  0.16933021432E+02 -0.10803984572E+04  0.11825902252E+04  0.40000000000E+03 0. -1.
   -9000007    1    1    2    0  501 -0.26640586917E+03 -0.16933021432E+02 -0.96033008677E+03  0.10740077699E+04  0.40000000000E+03 0. -1.
<mgrwt>
<rscale>  2 0.48089377E+03</rscale>
<asrwt>0</asrwt>
<pdfrwt beam="1">  1        2 0.33056355E+00 0.48089377E+03</pdfrwt>
<pdfrwt beam="2">  1       -2 0.16605344E-01 0.48089377E+03</pdfrwt>
<totfact> 0.17261927E+02</totfact>
</mgrwt>
</event>
<event>
 4    1  0.2338029E-002  0.4551281E+03  0.7818608E-02  0.1026204E+00
         -2   -1    0    0    0  501 -0.00000000000E+00  0.00000000000E+00  0.18804802050E+03  0.18804802050E+03  0.00000000000E+00 0.  1.
          2   -1    0    0  502    0  0.00000000000E+00 -0.00000000000E+00 -0.14931506727E+04  0.14931506727E+04  0.00000000000E+00 0. -1.
    9000007    1    1    2  502    0 -0.14771642523E+03 -0.15912706575E+03 -0.10830452245E+04  0.11747887145E+04  0.40000000000E+03 0. -1.
   -9000007    1    1    2    0  501  0.14771642523E+03  0.15912706575E+03 -0.22205742765E+03  0.50640997868E+03  0.40000000000E+03 0.  1.
<mgrwt>
<rscale>  2 0.45512808E+03</rscale>
<asrwt>0</asrwt>
<pdfrwt beam="1">  1        2 0.22971549E+00 0.45512808E+03</pdfrwt>
<pdfrwt beam="2">  1       -2 0.28930464E-01 0.45512808E+03</pdfrwt>
<totfact> 0.14721514E+02</totfact>
</mgrwt>
</event>
<event>
 4    1  0.2338029E-002  0.4155357E+03  0.7818608E-02  0.1038529E+00
         -2   -1    0    0    0  501 -0.00000000000E+00  0.00000000000E+00  0.14026246286E+03  0.14026246286E+03  0.00000000000E+00 0. -1.
          2   -1    0    0  502    0  0.00000000000E+00 -0.00000000000E+00 -0.18905755581E+04  0.18905755581E+04  0.00000000000E+00 0.  1.
    9000007    1    1    2  502    0  0.11035553576E+03 -0.22171670008E+02 -0.27541449376E+03  0.49852088281E+03  0.40000000000E+03 0. -1.
   -9000007    1    1    2    0  501 -0.11035553576E+03  0.22171670008E+02 -0.14748986015E+04  0.15323171382E+04  0.40000000000E+03 0.  1.
<mgrwt>
<rscale>  2 0.41553571E+03</rscale>
<asrwt>0</asrwt>
<pdfrwt beam="1">  1        2 0.29085778E+00 0.41553571E+03</pdfrwt>
<pdfrwt beam="2">  1       -2 0.21578840E-01 0.41553571E+03</pdfrwt>
<totfact> 0.15284037E+02</totfact>
</mgrwt>
</event>
<event>
 4    1  0.2338029E-002  0.4971239E+03  0.7818608E-02  0.1014532E+00
         -2   -1    0    0    0  501 -0.00000000000E+00  0.00000000000E+00  0.18130858599E+03  0.18130858599E+03  0.00000000000E+00 0.  1.
          2   -1    0    0  502    0  0.00000000000E+00 -0.00000000000E+00 -0.13634605178E+04  0.13634605178E+04  0.00000000000E+00 0. -1.
    9000007    1    1    2  502    0  0.19116098476E+03  0.22492153799E+03 -0.57763344384E+03  0.76209751068E+03  0.40000000000E+03 0.  1.
   -9000007    1    1    2    0  501 -0.19116098476E+03 -0.22492153799E+03 -0.60451848798E+03  0.78267159311E+03  0.40000000000E+03 0.  1.
<mgrwt>
<rscale>  2 0.49712395E+03</rscale>
<asrwt>0</asrwt>
<pdfrwt beam="1">  1        2 0.20976315E+00 0.49712395E+03</pdfrwt>
<pdfrwt beam="2">  1       -2 0.27893629E-01 0.49712395E+03</pdfrwt>
<totfact> 0.18471742E+02</totfact>
</mgrwt>
</event>
<event>
 4    1  0.2338029E-002  0.6654291E+03  0.7818608E-02  0.9778251E-01
          1   -1    0    0  502    0  0.00000000000E+00  0.00000000000E+00  0.22781843520E+04  0.22781843520E+04  0.00000000000E+00 0. -1.
         -1   -1    0    0    0  501 -0.00000000000E+00 -0.00000000000E+00 -0.22126786492E+03  0.22126786492E+03  0.00000000000E+00 0.  1.
    9000007    1    1    2  502    0 -0.18509716722E+03 -0.49853271981E+03  0.14642381696E+04  0.16083498535E+04  0.40000000000E+03 0. -1.
   -9000007    1    1    2    0  501  0.18509716722E+03  0.49853271981E+03  0.59267831749E+03  0.89110236340E+03  0.40000000000E+03 0.  1.
<mgrwt>
<rscale>  2 0.66542906E+03</rscale>
<asrwt>0</asrwt>
<pdfrwt beam="1">  1        1 0.35048988E+00 0.66542906E+03</pdfrwt>
<pdfrwt beam="2">  1       -1 0.34041212E-01 0.66542906E+03</pdfrwt>
<totfact> 0.16657161E+01</totfact>
</mgrwt>
</event>
<event>
 4    1  0.2338029E-002  0.4332791E+03  0.7818608E-02  0.1032829E+00
          2   -1    0    0  502    0  0.00000000000E+00  0.00000000000E+00  0.83267583555E+03  0.83267583555E+03  0.00000000000E+00 0.  1.
         -2   -1    0    0    0  501 -0.00000000000E+00 -0.00000000000E+00 -0.28395946798E+03  0.28395946798E+03  0.00000000000E+00 0. -1.
    9000007    1    1    2  502    0 -0.14764118488E+03  0.77025162854E+02  0.20933856580E+02  0.43378453354E+03  0.40000000000E+03 0. -1.
   -9000007    1    1    2    0  501  0.14764118488E+03 -0.77025162854E+02  0.52778251099E+03  0.68285077000E+03  0.40000000000E+03 0.  1.
<mgrwt>
<rscale>  2 0.43327912E+03</rscale>
<asrwt>0</asrwt>
<pdfrwt beam="1">  1        2 0.12810397E+00 0.43327912E+03</pdfrwt>
<pdfrwt beam="2">  1       -2 0.43686073E-01 0.43327912E+03</pdfrwt>
<totfact> 0.16773166E+02</totfact>
</mgrwt>
</event>
<event>
 4    1  0.2338029E-002  0.4775673E+03  0.7818608E-02  0.1019806E+00
         -2   -1    0    0    0  501 -0.00000000000E+00  0.00000000000E+00  0.19366334411E+03  0.19366334411E+03  0.00000000000E+00 0.  1.
          2   -1    0    0  502    0  0.00000000000E+00 -0.00000000000E+00 -0.14127427048E+04  0.14127427048E+04  0.00000000000E+00 0. -1.
    9000007    1    1    2  502    0 -0.10405462094E+02 -0.26069576700E+03 -0.28189776921E+03  0.55456010392E+03  0.40000000000E+03 0.  1.
   -9000007    1    1    2    0  501  0.10405462094E+02  0.26069576700E+03 -0.93718159151E+03  0.10518459450E+04  0.40000000000E+03 0. -1.
<mgrwt>
<rscale>  2 0.47756733E+03</rscale>
<asrwt>0</asrwt>
<pdfrwt beam="1">  1        2 0.21734503E+00 0.47756733E+03</pdfrwt>
<pdfrwt beam="2">  1       -2 0.29794361E-01 0.47756733E+03</pdfrwt>
<totfact> 0.15401806E+02</totfact>
</mgrwt>
</event>
<event>
 4    1  0.2338029E-002  0.5317670E+03  0.7818608E-02  0.1005805E+00
         -2   -1    0    0    0  501 -0.00000000000E+00  0.00000000000E+00  0.11029198883E+03  0.11029198883E+03  0.00000000000E+00 0.  1.
          2   -1    0    0  502    0  0.00000000000E+00 -0.00000000000E+00 -0.27735073483E+04  0.27735073483E+04  0.00000000000E+00 0. -1.
    9000007    1    1    2  502    0 -0.30244178518E+03  0.17693235363E+03 -0.93520362452E+03  0.10758168573E+04  0.40000000000E+03 0.  1.
   -9000007    1    1    2    0  501  0.30244178518E+03 -0.17693235363E+03 -0.17280117350E+04  0.18079824798E+04  0.40000000000E+03 0. -1.
<mgrwt>
<rscale>  2 0.53176695E+03</rscale>
<asrwt>0</asrwt>
<pdfrwt beam="1">  1        2 0.42669346E+00 0.53176695E+03</pdfrwt>
<pdfrwt beam="2">  1       -2 0.16967997E-01 0.53176695E+03</pdfrwt>
<totfact> 0.73813575E+01</totfact>
</mgrwt>
</event>
<event>
 4    1  0.2338029E-002  0.4277956E+03  0.7818608E-02  0.1034559E+00
         -1   -1    0    0    0  501 -0.00000000000E+00  0.00000000000E+00  0.33203638581E+03  0.33203638581E+03  0.00000000000E+00 0.  1.
          1   -1    0    0  502    0  0.00000000000E+00 -0.00000000000E+00 -0.67141839948E+03  0.67141839948E+03  0.00000000000E+00 0. -1.
    9000007    1    1    2  502    0 -0.14188723697E+01 -0.15168077178E+03 -0.38201922673E+03  0.57353967545E+03  0.40000000000E+03 0. -1.
   -9000007    1    1    2    0  501  0.14188723697E+01  0.15168077178E+03  0.42637213066E+02  0.42991510984E+03  0.40000000000E+03 0.  1.
<mgrwt>
<rscale>  2 0.42779559E+03</rscale>
<asrwt>0</asrwt>
<pdfrwt beam="1">  1        1 0.10329514E+00 0.42779559E+03</pdfrwt>
<pdfrwt beam="2">  1       -1 0.51082522E-01 0.42779559E+03</pdfrwt>
<totfact> 0.11704607E+02</totfact>
</mgrwt>
</event>
<event>
 4    1  0.2338029E-002  0.5115921E+03  0.7818608E-02  0.1010797E+00
          1   -1    0    0  502    0  0.00000000000E+00  0.00000000000E+00  0.55679756919E+03  0.55679756919E+03  0.00000000000E+00 0. -1.
         -1   -1    0    0    0  501 -0.00000000000E+00 -0.00000000000E+00 -0.13509749749E+04  0.13509749749E+04  0.00000000000E+00 0.  1.
    9000007    1    1    2  502    0  0.73302847089E+02  0.31040803742E+03  0.37317732396E+03  0.63323595302E+03  0.40000000000E+03 0. -1.
   -9000007    1    1    2    0  501 -0.73302847089E+02 -0.31040803742E+03 -0.11673547297E+04  0.12745365911E+04  0.40000000000E+03 0.  1.
<mgrwt>
<rscale>  2 0.51159208E+03</rscale>
<asrwt>0</asrwt>
<pdfrwt beam="1">  1        1 0.85661165E-01 0.51159208E+03</pdfrwt>
<pdfrwt beam="2">  1       -1 0.20784230E+00 0.51159208E+03</pdfrwt>
<totfact> 0.54751489E+00</totfact>
</mgrwt>
</event>
<event>
 4    1  0.2338029E-002  0.5027158E+03  0.7818608E-02  0.1013072E+00
          2   -1    0    0  502    0  0.00000000000E+00  0.00000000000E+00  0.89883386516E+03  0.89883386516E+03  0.00000000000E+00 0. -1.
         -2   -1    0    0    0  501 -0.00000000000E+00 -0.00000000000E+00 -0.28997044480E+03  0.28997044480E+03  0.00000000000E+00 0.  1.
    9000007    1    1    2  502    0 -0.82691595313E+02 -0.29306192744E+03  0.40799566993E+03  0.64744394347E+03  0.40000000000E+03 0. -1.
   -9000007    1    1    2    0  501  0.82691595313E+02  0.29306192744E+03  0.20086775043E+03  0.54136036650E+03  0.40000000000E+03 0.  1.
<mgrwt>
<rscale>  2 0.50271582E+03</rscale>
<asrwt>0</asrwt>
<pdfrwt beam="1">  1        2 0.13828213E+00 0.50271582E+03</pdfrwt>
<pdfrwt beam="2">  1       -2 0.44610838E-01 0.50271582E+03</pdfrwt>
<totfact> 0.14424749E+02</totfact>
</mgrwt>
</event>
<event>
 4    1  0.2338029E-002  0.4781934E+03  0.7818608E-02  0.1019633E+00
          2   -1    0    0  502    0  0.00000000000E+00  0.00000000000E+00  0.27049192530E+04  0.27049192530E+04  0.00000000000E+00 0.  1.
         -2   -1    0    0    0  501 -0.00000000000E+00 -0.00000000000E+00 -0.85423416435E+02  0.85423416435E+02  0.00000000000E+00 0. -1.
    9000007    1    1    2  502    0 -0.26168314515E+03  0.13813689107E+02  0.14517761047E+04  0.15285034330E+04  0.40000000000E+03 0.  1.
   -9000007    1    1    2    0  501  0.26168314515E+03 -0.13813689107E+02  0.11677197318E+04  0.12618392364E+04  0.40000000000E+03 0.  1.
<mgrwt>
<rscale>  2 0.47819336E+03</rscale>
<asrwt>0</asrwt>
<pdfrwt beam="1">  1        2 0.41614136E+00 0.47819336E+03</pdfrwt>
<pdfrwt beam="2">  1       -2 0.13142066E-01 0.47819336E+03</pdfrwt>
<totfact> 0.12545251E+02</totfact>
</mgrwt>
</event>
<event>
 4    1  0.2338029E-002  0.4056714E+03  0.7818608E-02  0.1041833E+00
         -2   -1    0    0    0  501 -0.00000000000E+00  0.00000000000E+00  0.16588920149E+03  0.16588920149E+03  0.00000000000E+00 0. -1.
          2   -1    0    0  502    0  0.00000000000E+00 -0.00000000000E+00 -0.11700847660E+04  0.11700847660E+04  0.00000000000E+00 0.  1.
    9000007    1    1    2  502    0  0.64564834391E+02 -0.20016879586E+02 -0.24153057790E+03  0.47212955147E+03  0.40000000000E+03 0. -1.
   -9000007    1    1    2    0  501 -0.64564834391E+02  0.20016879586E+02 -0.76266498661E+03  0.86384441603E+03  0.40000000000E+03 0.  1.
<mgrwt>
<rscale>  2 0.40567141E+03</rscale>
<asrwt>0</asrwt>
<pdfrwt beam="1">  1        2 0.18001304E+00 0.40567141E+03</pdfrwt>
<pdfrwt beam="2">  1       -2 0.25521416E-01 0.40567141E+03</pdfrwt>
<totfact> 0.28245328E+02</totfact>
</mgrwt>
</event>
<event>
 4    1  0.2338029E-002  0.5138698E+03  0.7818608E-02  0.1010221E+00
         -2   -1    0    0    0  501 -0.00000000000E+00  0.00000000000E+00  0.14488773077E+03  0.14488773077E+03  0.00000000000E+00 0. -1.
          2   -1    0    0  502    0  0.00000000000E+00 -0.00000000000E+00 -0.20645778297E+04  0.20645778297E+04  0.00000000000E+00 0.  1.
    9000007    1    1    2  502    0  0.31137986478E+02 -0.32108035908E+03 -0.13381069572E+04  0.14333849449E+04  0.40000000000E+03 0.  1.
   -9000007    1    1    2    0  501 -0.31137986478E+02  0.32108035908E+03 -0.58158314167E+03  0.77608061557E+03  0.40000000000E+03 0. -1.
<mgrwt>
<rscale>  2 0.51386980E+03</rscale>
<asrwt>0</asrwt>
<pdfrwt beam="1">  1        2 0.31762735E+00 0.51386980E+03</pdfrwt>
<pdfrwt beam="2">  1       -2 0.22290421E-01 0.51386980E+03</pdfrwt>
<totfact> 0.11461736E+02</totfact>
</mgrwt>
</event>
<event>
 4    1  0.2338029E-002  0.4648278E+03  0.7818608E-02  0.1023390E+00
          1   -1    0    0  502    0  0.00000000000E+00  0.00000000000E+00  0.82052509611E+03  0.82052509611E+03  0.00000000000E+00 0.  1.
         -1   -1    0    0    0  501 -0.00000000000E+00 -0.00000000000E+00 -0.90782180094E+03  0.90782180094E+03  0.00000000000E+00 0. -1.
    9000007    1    1    2  502    0 -0.10490149303E+03  0.21227467982E+03  0.68448505927E+03  0.82739631332E+03  0.40000000000E+03 0.  1.
   -9000007    1    1    2    0  501  0.10490149303E+03 -0.21227467982E+03 -0.77178176409E+03  0.90095058373E+03  0.40000000000E+03 0. -1.
<mgrwt>
<rscale>  2 0.46482778E+03</rscale>
<asrwt>0</asrwt>
<pdfrwt beam="1">  1        1 0.12623463E+00 0.46482778E+03</pdfrwt>
<pdfrwt beam="2">  1       -1 0.13966489E+00 0.46482778E+03</pdfrwt>
<totfact> 0.97003194E+00</totfact>
</mgrwt>
</event>
<event>
 4    1  0.2338029E-002  0.6334729E+03  0.7818608E-02  0.9838295E-01
          1   -1    0    0  502    0  0.00000000000E+00  0.00000000000E+00  0.78051077679E+03  0.78051077679E+03  0.00000000000E+00 0. -1.
         -1   -1    0    0    0  501 -0.00000000000E+00 -0.00000000000E+00 -0.51978922864E+03  0.51978922864E+03  0.00000000000E+00 0.  1.
    9000007    1    1    2  502    0 -0.12651941614E+02 -0.49104773349E+03  0.19816935364E+03  0.66374621725E+03  0.40000000000E+03 0.  1.
   -9000007    1    1    2    0  501  0.12651941614E+02  0.49104773349E+03  0.62552194514E+02  0.63655378817E+03  0.40000000000E+03 0. -1.
<mgrwt>
<rscale>  2 0.63347293E+03</rscale>
<asrwt>0</asrwt>
<pdfrwt beam="1">  1        1 0.12007858E+00 0.63347293E+03</pdfrwt>
<pdfrwt beam="2">  1       -1 0.79967573E-01 0.63347293E+03</pdfrwt>
<totfact> 0.37251857E+01</totfact>
</mgrwt>
</event>
<event>
 4    1  0.2338029E-002  0.4700457E+03  0.7818608E-02  0.1021907E+00
         -2   -1    0    0    0  501 -0.00000000000E+00  0.00000000000E+00  0.11311850890E+03  0.11311850890E+03  0.00000000000E+00 0. -1.
          2   -1    0    0  502    0  0.00000000000E+00 -0.00000000000E+00 -0.21393074455E+04  0.21393074455E+04  0.00000000000E+00 0.  1.
    9000007    1    1    2  502    0  0.69714843908E+02  0.23681809926E+03 -0.13452693824E+04  0.14250237482E+04  0.40000000000E+03 0.  1.
   -9000007    1    1    2    0  501 -0.69714843908E+02 -0.23681809926E+03 -0.68091955420E+03  0.82740220624E+03  0.40000000000E+03 0. -1.
<mgrwt>
<rscale>  2 0.47004571E+03</rscale>
<asrwt>0</asrwt>
<pdfrwt beam="1">  1        2 0.32912421E+00 0.47004571E+03</pdfrwt>
<pdfrwt beam="2">  1       -2 0.17402848E-01 0.47004571E+03</pdfrwt>
<totfact> 0.16151946E+02</totfact>
</mgrwt>
</event>
<event>
 4    1  0.2338029E-002  0.4407895E+03  0.7818608E-02  0.1030505E+00
          2   -1    0    0  502    0  0.00000000000E+00  0.00000000000E+00  0.35276811379E+03  0.35276811379E+03  0.00000000000E+00 0. -1.
         -2   -1    0    0    0  501 -0.00000000000E+00 -0.00000000000E+00 -0.62683406967E+03  0.62683406967E+03  0.00000000000E+00 0.  1.
    9000007    1    1    2  502    0 -0.11309859970E+03  0.14664277046E+03  0.33584178523E+02  0.44206706780E+03  0.40000000000E+03 0. -1.
   -9000007    1    1    2    0  501  0.11309859970E+03 -0.14664277046E+03 -0.30765013440E+03  0.53753511567E+03  0.40000000000E+03 0.  1.
<mgrwt>
<rscale>  2 0.44078951E+03</rscale>
<asrwt>0</asrwt>
<pdfrwt beam="1">  1        2 0.54272018E-01 0.44078951E+03</pdfrwt>
<pdfrwt beam="2">  1       -2 0.96436009E-01 0.44078951E+03</pdfrwt>
<totfact> 0.84910907E+01</totfact>
</mgrwt>
</event>
<event>
 4    1  0.2338029E-002  0.4193478E+03  0.7818608E-02  0.1037279E+00
          1   -1    0    0  502    0  0.00000000000E+00  0.00000000000E+00  0.13769541865E+04  0.13769541865E+04  0.00000000000E+00 0.  1.
         -1   -1    0    0    0  501 -0.00000000000E+00 -0.00000000000E+00 -0.12778371892E+03  0.12778371892E+03  0.00000000000E+00 0. -1.
    9000007    1    1    2  502    0 -0.10516829736E+03  0.69225680652E+02  0.60667035116E+03  0.73749676651E+03  0.40000000000E+03 0. -1.
   -9000007    1    1    2    0  501  0.10516829736E+03 -0.69225680652E+02  0.64250011640E+03  0.76724113889E+03  0.40000000000E+03 0.  1.
<mgrwt>
<rscale>  2 0.41934779E+03</rscale>
<asrwt>0</asrwt>
<pdfrwt beam="1">  1        1 0.21183910E+00 0.41934779E+03</pdfrwt>
<pdfrwt beam="2">  1       -1 0.19659035E-01 0.41934779E+03</pdfrwt>
<totfact> 0.17651957E+02</totfact>
</mgrwt>
</event>
<event>
 4    1  0.2338029E-002  0.4145502E+03  0.7818608E-02  0.1038855E+00
          2   -1    0    0  502    0  0.00000000000E+00  0.00000000000E+00  0.53093721728E+03  0.53093721728E+03  0.00000000000E+00 0. -1.
         -2   -1    0    0    0  501 -0.00000000000E+00 -0.00000000000E+00 -0.34319405866E+03  0.34319405866E+03  0.00000000000E+00 0.  1.
    9000007    1    1    2  502    0  0.42186986040E+02 -0.10035989569E+03 -0.10357901047E+02  0.41467955890E+03  0.40000000000E+03 0.  1.
   -9000007    1    1    2    0  501 -0.42186986040E+02  0.10035989569E+03  0.19810105967E+03  0.45945171705E+03  0.40000000000E+03 0. -1.
<mgrwt>
<rscale>  2 0.41455018E+03</rscale>
<asrwt>0</asrwt>
<pdfrwt beam="1">  1        2 0.81682649E-01 0.41455018E+03</pdfrwt>
<pdfrwt beam="2">  1       -2 0.52799086E-01 0.41455018E+03</pdfrwt>
<totfact> 0.19957645E+02</totfact>
</mgrwt>
</event>
<event>
 4    1  0.2338029E-002  0.4413954E+03  0.7818608E-02  0.1030320E+00
         -2   -1    0    0    0  501 -0.00000000000E+00  0.00000000000E+00  0.56206967540E+03  0.56206967540E+03  0.00000000000E+00 0.  1.
          2   -1    0    0  502    0  0.00000000000E+00 -0.00000000000E+00 -0.36764634949E+03  0.36764634949E+03  0.00000000000E+00 0. -1.
    9000007    1    1    2  502    0  0.14551905151E+02  0.18605959820E+03  0.20835641770E+03  0.48810073635E+03  0.40000000000E+03 0.  1.
   -9000007    1    1    2    0  501 -0.14551905151E+02 -0.18605959820E+03 -0.13933091796E+02  0.44161528854E+03  0.40000000000E+03 0. -1.
<mgrwt>
<rscale>  2 0.44139544E+03</rscale>
<asrwt>0</asrwt>
<pdfrwt beam="1">  1        2 0.56560977E-01 0.44139544E+03</pdfrwt>
<pdfrwt beam="2">  1       -2 0.86472258E-01 0.44139544E+03</pdfrwt>
<totfact> 0.10421644E+02</totfact>
</mgrwt>
</event>
<event>
 4    1  0.2338029E-002  0.5921867E+03  0.7818608E-02  0.9921750E-01
         -2   -1    0    0    0  501 -0.00000000000E+00  0.00000000000E+00  0.21633474290E+03  0.21633474290E+03  0.00000000000E+00 0. -1.
          2   -1    0    0  502    0  0.00000000000E+00 -0.00000000000E+00 -0.22045747699E+04  0.22045747699E+04  0.00000000000E+00 0.  1.
    9000007    1    1    2  502    0  0.41618614066E+03  0.13218982273E+03 -0.37135625560E+03  0.69899250460E+03  0.40000000000E+03 0. -1.
   -9000007    1    1    2    0  501 -0.41618614066E+03 -0.13218982273E+03 -0.16168837714E+04  0.17219170082E+04  0.40000000000E+03 0.  1.
<mgrwt>
<rscale>  2 0.59218667E+03</rscale>
<asrwt>0</asrwt>
<pdfrwt beam="1">  1        2 0.33916533E+00 0.59218667E+03</pdfrwt>
<pdfrwt beam="2">  1       -2 0.33282270E-01 0.59218667E+03</pdfrwt>
<totfact> 0.45806585E+01</totfact>
</mgrwt>
</event>
<event>
 4    1  0.2338029E-002  0.4419989E+03  0.7818608E-02  0.1030135E+00
          2   -1    0    0  502    0  0.00000000000E+00  0.00000000000E+00  0.12310541389E+04  0.12310541389E+04  0.00000000000E+00 0. -1.
         -2   -1    0    0    0  501 -0.00000000000E+00 -0.00000000000E+00 -0.21051815756E+03  0.21051815756E+03  0.00000000000E+00 0.  1.
    9000007    1    1    2  502    0 -0.17362284596E+03 -0.72236792707E+02  0.86788691190E+03  0.97395623039E+03  0.40000000000E+03 0. -1.
   -9000007    1    1    2    0  501  0.17362284596E+03  0.72236792707E+02  0.15264906945E+03  0.46761606609E+03  0.40000000000E+03 0.  1.
<mgrwt>
<rscale>  2 0.44199892E+03</rscale>
<asrwt>0</asrwt>
<pdfrwt beam="1">  1        2 0.18939294E+00 0.44199892E+03</pdfrwt>
<pdfrwt beam="2">  1       -2 0.32387409E-01 0.44199892E+03</pdfrwt>
<totfact> 0.16783986E+02</totfact>
</mgrwt>
</event>
<event>
 4    1  0.2338029E-002  0.4031584E+03  0.7818608E-02  0.1042691E+00
         -1   -1    0    0    0  501 -0.00000000000E+00  0.00000000000E+00  0.17846505914E+03  0.17846505914E+03  0.00000000000E+00 0. -1.
          1   -1    0    0  502    0  0.00000000000E+00 -0.00000000000E+00 -0.10823286021E+04  0.10823286021E+04  0.00000000000E+00 0.  1.
    9000007    1    1    2  502    0 -0.47029307422E+02 -0.18026869245E+02 -0.70292866584E+03  0.81033661711E+03  0.40000000000E+03 0.  1.
   -9000007    1    1    2    0  501  0.47029307422E+02  0.18026869245E+02 -0.20093487716E+03  0.45045704415E+03  0.40000000000E+03 0. -1.
<mgrwt>
<rscale>  2 0.40315844E+03</rscale>
<asrwt>0</asrwt>
<pdfrwt beam="1">  1        1 0.16651209E+00 0.40315844E+03</pdfrwt>
<pdfrwt beam="2">  1       -1 0.27456163E-01 0.40315844E+03</pdfrwt>
<totfact> 0.16348493E+02</totfact>
</mgrwt>
</event>
<event>
 4    1  0.2338029E-002  0.4182770E+03  0.7818608E-02  0.1037629E+00
          2   -1    0    0  502    0  0.00000000000E+00  0.00000000000E+00  0.23186311028E+04  0.23186311028E+04  0.00000000000E+00 0.  1.
         -2   -1    0    0    0  501 -0.00000000000E+00 -0.00000000000E+00 -0.86198200653E+02  0.86198200653E+02  0.00000000000E+00 0. -1.
    9000007    1    1    2  502    0  0.89480920064E+01 -0.12196539054E+03  0.69175026113E+03  0.80837741719E+03  0.40000000000E+03 0. -1.
   -9000007    1    1    2    0  501 -0.89480920064E+01  0.12196539054E+03  0.15406826410E+04  0.15964518862E+04  0.40000000000E+03 0.  1.
<mgrwt>
<rscale>  2 0.41827697E+03</rscale>
<asrwt>0</asrwt>
<pdfrwt beam="1">  1        2 0.35671243E+00 0.41827697E+03</pdfrwt>
<pdfrwt beam="2">  1       -2 0.13261263E-01 0.41827697E+03</pdfrwt>
<totfact> 0.20542406E+02</totfact>
</mgrwt>
</event>
<event>
 4    1  0.2338029E-002  0.4162299E+03  0.7818608E-02  0.1038300E+00
         -1   -1    0    0    0  501 -0.00000000000E+00  0.00000000000E+00  0.26291341905E+03  0.26291341905E+03  0.00000000000E+00 0. -1.
          1   -1    0    0  502    0  0.00000000000E+00 -0.00000000000E+00 -0.67756833354E+03  0.67756833354E+03  0.00000000000E+00 0.  1.
    9000007    1    1    2  502    0 -0.68761153220E+02  0.92299672375E+02 -0.12938200222E+03  0.43587501444E+03  0.40000000000E+03 0. -1.
   -9000007    1    1    2    0  501  0.68761153220E+02 -0.92299672375E+02 -0.28527291228E+03  0.50460673816E+03  0.40000000000E+03 0.  1.
<mgrwt>
<rscale>  2 0.41622990E+03</rscale>
<asrwt>0</asrwt>
<pdfrwt beam="1">  1        1 0.10424128E+00 0.41622990E+03</pdfrwt>
<pdfrwt beam="2">  1       -1 0.40448219E-01 0.41622990E+03</pdfrwt>
<totfact> 0.17768368E+02</totfact>
</mgrwt>
</event>
<event>
 4    1  0.2338029E-002  0.4208890E+03  0.7818608E-02  0.1036777E+00
         -3   -1    0    0    0  501 -0.00000000000E+00  0.00000000000E+00  0.12261560907E+03  0.12261560907E+03  0.00000000000E+00 0. -1.
          3   -1    0    0  502    0  0.00000000000E+00 -0.00000000000E+00 -0.15413377202E+04  0.15413377202E+04  0.00000000000E+00 0.  1.
    9000007    1    1    2  502    0 -0.11291675218E+03 -0.66312858664E+02 -0.50108119728E+03  0.65439281354E+03  0.40000000000E+03 0. -1.
   -9000007    1    1    2    0  501  0.11291675218E+03  0.66312858664E+02 -0.91764091386E+03  0.10095605157E+04  0.40000000000E+03 0.  1.
<mgrwt>
<rscale>  2 0.42088904E+03</rscale>
<asrwt>0</asrwt>
<pdfrwt beam="1">  1        3 0.23712888E+00 0.42088904E+03</pdfrwt>
<pdfrwt beam="2">  1       -3 0.18863940E-01 0.42088904E+03</pdfrwt>
<totfact> 0.59962880E+00</totfact>
</mgrwt>
</event>
<event>
 4    1  0.2338029E-002  0.4204378E+03  0.7818608E-02  0.1036924E+00
          1   -1    0    0  502    0  0.00000000000E+00  0.00000000000E+00  0.86448847934E+03  0.86448847934E+03  0.00000000000E+00 0. -1.
         -1   -1    0    0    0  501 -0.00000000000E+00 -0.00000000000E+00 -0.24994449861E+03  0.24994449861E+03  0.00000000000E+00 0.  1.
    9000007    1    1    2  502    0  0.12886336247E+03 -0.12734674685E+02  0.54493035311E+03  0.68827104244E+03  0.40000000000E+03 0. -1.
   -9000007    1    1    2    0  501 -0.12886336247E+03  0.12734674685E+02  0.69613627623E+02  0.42616193551E+03  0.40000000000E+03 0.  1.
<mgrwt>
<rscale>  2 0.42043779E+03</rscale>
<asrwt>0</asrwt>
<pdfrwt beam="1">  1        1 0.13299823E+00 0.42043779E+03</pdfrwt>
<pdfrwt beam="2">  1       -1 0.38453000E-01 0.42043779E+03</pdfrwt>
<totfact> 0.13360402E+02</totfact>
</mgrwt>
</event>
<event>
 4    1  0.2338029E-002  0.6599626E+03  0.7818608E-02  0.9788263E-01
         -2   -1    0    0    0  501 -0.00000000000E+00  0.00000000000E+00  0.47508440816E+03  0.47508440816E+03  0.00000000000E+00 0. -1.
          2   -1    0    0  502    0  0.00000000000E+00 -0.00000000000E+00 -0.93287035036E+03  0.93287035036E+03  0.00000000000E+00 0.  1.
    9000007    1    1    2  502    0  0.31046970922E+03  0.42327207359E+03 -0.13645484837E+03  0.67392181614E+03  0.40000000000E+03 0. -1.
   -9000007    1    1    2    0  501 -0.31046970922E+03 -0.42327207359E+03 -0.32133109383E+03  0.73403294237E+03  0.40000000000E+03 0.  1.
<mgrwt>
<rscale>  2 0.65996264E+03</rscale>
<asrwt>0</asrwt>
<pdfrwt beam="1">  1        2 0.14351851E+00 0.65996264E+03</pdfrwt>
<pdfrwt beam="2">  1       -2 0.73089909E-01 0.65996264E+03</pdfrwt>
<totfact> 0.48209039E+01</totfact>
</mgrwt>
</event>
<event>
 4    1  0.2338029E-002  0.4185978E+03  0.7818608E-02  0.1037524E+00
          2   -1    0    0  502    0  0.00000000000E+00  0.00000000000E+00  0.92338360522E+03  0.92338360522E+03  0.00000000000E+00 0. -1.
         -2   -1    0    0    0  501 -0.00000000000E+00 -0.00000000000E+00 -0.19167255755E+03  0.19167255755E+03  0.00000000000E+00 0.  1.
    9000007    1    1    2  502    0  0.22609380511E+02 -0.12129702431E+03  0.31020878534E+03  0.52101213296E+03  0.40000000000E+03 0. -1.
   -9000007    1    1    2    0  501 -0.22609380511E+02  0.12129702431E+03  0.42150226234E+03  0.59404402981E+03  0.40000000000E+03 0.  1.
<mgrwt>
<rscale>  2 0.41859784E+03</rscale>
<asrwt>0</asrwt>
<pdfrwt beam="1">  1        2 0.14205901E+00 0.41859784E+03</pdfrwt>
<pdfrwt beam="2">  1       -2 0.29488086E-01 0.41859784E+03</pdfrwt>
<totfact> 0.30774321E+02</totfact>
</mgrwt>
</event>
<event>
 4    1  0.2338029E-002  0.4487221E+03  0.7818608E-02  0.1028104E+00
         -2   -1    0    0    0  501 -0.00000000000E+00  0.00000000000E+00  0.30947403255E+03  0.30947403255E+03  0.00000000000E+00 0.  1.
          2   -1    0    0  502    0  0.00000000000E+00 -0.00000000000E+00 -0.70442414709E+03  0.70442414709E+03  0.00000000000E+00 0. -1.
    9000007    1    1    2  502    0  0.15739086760E+03 -0.12876208726E+03 -0.33757394658E+03  0.56152268852E+03  0.40000000000E+03 0. -1.
   -9000007    1    1    2    0  501 -0.15739086760E+03  0.12876208726E+03 -0.57376167954E+02  0.45237549112E+03  0.40000000000E+03 0.  1.
<mgrwt>
<rscale>  2 0.44872214E+03</rscale>
<asrwt>0</asrwt>
<pdfrwt beam="1">  1        2 0.10837294E+00 0.44872214E+03</pdfrwt>
<pdfrwt beam="2">  1       -2 0.47611390E-01 0.44872214E+03</pdfrwt>
<totfact> 0.17498780E+02</totfact>
</mgrwt>
</event>
<event>
 4    1  0.2338029E-002  0.4076212E+03  0.7818608E-02  0.1041172E+00
          2   -1    0    0  502    0  0.00000000000E+00  0.00000000000E+00  0.40270598429E+03  0.40270598429E+03  0.00000000000E+00 0.  1.
         -2   -1    0    0    0  501 -0.00000000000E+00 -0.00000000000E+00 -0.59603982265E+03  0.59603982265E+03  0.00000000000E+00 0. -1.
    9000007    1    1    2  502    0 -0.63234722502E+02 -0.46437352615E+02 -0.37370428750E+03  0.55300086107E+03  0.40000000000E+03 0. -1.
   -9000007    1    1    2    0  501  0.63234722502E+02  0.46437352615E+02  0.18037044914E+03  0.44574494587E+03  0.40000000000E+03 0.  1.
<mgrwt>
<rscale>  2 0.40762122E+03</rscale>
<asrwt>0</asrwt>
<pdfrwt beam="1">  1        2 0.61954768E-01 0.40762122E+03</pdfrwt>
<pdfrwt beam="2">  1       -2 0.91698433E-01 0.40762122E+03</pdfrwt>
<totfact> 0.82653969E+01</totfact>
</mgrwt>
</event>
<event>
 4    1  0.2338029E-002  0.4088104E+03  0.7818608E-02  0.1040771E+00
         -2   -1    0    0    0  501 -0.00000000000E+00  0.00000000000E+00  0.44749560413E+03  0.44749560413E+03  0.00000000000E+00 0. -1.
          2   -1    0    0  502    0  0.00000000000E+00 -0.00000000000E+00 -0.41451958146E+03  0.41451958146E+03  0.00000000000E+00 0.  1.
    9000007    1    1    2  502    0 -0.82298115652E+02  0.18786858363E+02  0.15212239701E+03  0.43619622827E+03  0.40000000000E+03 0. -1.
   -9000007    1    1    2    0  501  0.82298115652E+02 -0.18786858363E+02 -0.11914637434E+03  0.42581895731E+03  0.40000000000E+03 0.  1.
<mgrwt>
<rscale>  2 0.40881038E+03</rscale>
<asrwt>0</asrwt>
<pdfrwt beam="1">  1        2 0.63772244E-01 0.40881038E+03</pdfrwt>
<pdfrwt beam="2">  1       -2 0.68845477E-01 0.40881038E+03</pdfrwt>
<totfact> 0.15144016E+02</totfact>
</mgrwt>
</event>
<event>
 4    1  0.2338029E-002  0.1262696E+04  0.7818608E-02  0.9059682E-01
          2   -1    0    0  502    0  0.00000000000E+00  0.00000000000E+00  0.22155040662E+04  0.22155040662E+04  0.00000000000E+00 0. -1.
         -2   -1    0    0    0  501 -0.00000000000E+00 -0.00000000000E+00 -0.86642374346E+03  0.86642374346E+03  0.00000000000E+00 0.  1.
    9000007    1    1    2  502    0 -0.38692932487E+03  0.11334407791E+04  0.40317734864E+02  0.12633399471E+04  0.40000000000E+03 0.  1.
   -9000007    1    1    2    0  501  0.38692932487E+03 -0.11334407791E+04  0.13087625878E+04  0.18185878625E+04  0.40000000000E+03 0. -1.
<mgrwt>
<rscale>  2 0.12626964E+04</rscale>
<asrwt>0</asrwt>
<pdfrwt beam="1">  1        2 0.34084678E+00 0.12626964E+04</pdfrwt>
<pdfrwt beam="2">  1       -2 0.13329596E+00 0.12626964E+04</pdfrwt>
<totfact> 0.19995583E+00</totfact>
</mgrwt>
</event>
<event>
 4    1  0.2338029E-002  0.4493150E+03  0.7818608E-02  0.1027927E+00
          1   -1    0    0  502    0  0.00000000000E+00  0.00000000000E+00  0.30746199880E+03  0.30746199880E+03  0.00000000000E+00 0. -1.
         -1   -1    0    0    0  501 -0.00000000000E+00 -0.00000000000E+00 -0.10367646485E+04  0.10367646485E+04  0.00000000000E+00 0.  1.
    9000007    1    1    2  502    0 -0.76593938812E+02  0.18978235076E+03 -0.77163787850E+03  0.89292160219E+03  0.40000000000E+03 0.  1.
   -9000007    1    1    2    0  501  0.76593938812E+02 -0.18978235076E+03  0.42335228827E+02  0.45130504509E+03  0.40000000000E+03 0. -1.
<mgrwt>
<rscale>  2 0.44931500E+03</rscale>
<asrwt>0</asrwt>
<pdfrwt beam="1">  1        1 0.47301847E-01 0.44931500E+03</pdfrwt>
<pdfrwt beam="2">  1       -1 0.15950225E+00 0.44931500E+03</pdfrwt>
<totfact> 0.26588493E+01</totfact>
</mgrwt>
</event>
<event>
 4    1  0.2338029E-002  0.5234394E+03  0.7818608E-02  0.1007836E+00
         -2   -1    0    0    0  501 -0.00000000000E+00  0.00000000000E+00  0.48865658750E+03  0.48865658750E+03  0.00000000000E+00 0. -1.
          2   -1    0    0  502    0  0.00000000000E+00 -0.00000000000E+00 -0.59610517888E+03  0.59610517888E+03  0.00000000000E+00 0.  1.
    9000007    1    1    2  502    0 -0.90951858126E+02  0.32514077152E+03 -0.18591128410E+03  0.55547436247E+03  0.40000000000E+03 0.  1.
   -9000007    1    1    2    0  501  0.90951858126E+02 -0.32514077152E+03  0.78462692722E+02  0.52928740392E+03  0.40000000000E+03 0.  1.
<mgrwt>
<rscale>  2 0.52343936E+03</rscale>
<asrwt>0</asrwt>
<pdfrwt beam="1">  1        2 0.91708489E-01 0.52343936E+03</pdfrwt>
<pdfrwt beam="2">  1       -2 0.75177937E-01 0.52343936E+03</pdfrwt>
<totfact> 0.81671717E+01</totfact>
</mgrwt>
</event>
<event>
 4    1  0.2338029E-002  0.4305774E+03  0.7818608E-02  0.1033678E+00
         -2   -1    0    0    0  501 -0.00000000000E+00  0.00000000000E+00  0.16792175721E+03  0.16792175721E+03  0.00000000000E+00 0.  1.
          2   -1    0    0  502    0  0.00000000000E+00 -0.00000000000E+00 -0.11267160332E+04  0.11267160332E+04  0.00000000000E+00 0. -1.
    9000007    1    1    2  502    0 -0.24555334208E+02  0.15746085402E+03 -0.38761988235E+03  0.57934968558E+03  0.40000000000E+03 0. -1.
   -9000007    1    1    2    0  501  0.24555334208E+02 -0.15746085402E+03 -0.57117439368E+03  0.71528810488E+03  0.40000000000E+03 0.  1.
<mgrwt>
<rscale>  2 0.43057739E+03</rscale>
<asrwt>0</asrwt>
<pdfrwt beam="1">  1        2 0.17334093E+00 0.43057739E+03</pdfrwt>
<pdfrwt beam="2">  1       -2 0.25834116E-01 0.43057739E+03</pdfrwt>
<totfact> 0.29239001E+02</totfact>
</mgrwt>
</event>
<event>
 4    1  0.2338029E-002  0.4502555E+03  0.7818608E-02  0.1027646E+00
         -2   -1    0    0    0  501 -0.00000000000E+00  0.00000000000E+00  0.34137909248E+03  0.34137909248E+03  0.00000000000E+00 0.  1.
          2   -1    0    0  502    0  0.00000000000E+00 -0.00000000000E+00 -0.62899022920E+03  0.62899022920E+03  0.00000000000E+00 0. -1.
    9000007    1    1    2  502    0  0.17405654895E+03  0.11150937835E+03 -0.25847569793E+03  0.51917213919E+03  0.40000000000E+03 0. -1.
   -9000007    1    1    2    0  501 -0.17405654895E+03 -0.11150937835E+03 -0.29135438796E+02  0.45119718249E+03  0.40000000000E+03 0. -1.
<mgrwt>
<rscale>  2 0.45025551E+03</rscale>
<asrwt>0</asrwt>
<pdfrwt beam="1">  1        2 0.96767726E-01 0.45025551E+03</pdfrwt>
<pdfrwt beam="2">  1       -2 0.52519861E-01 0.45025551E+03</pdfrwt>
<totfact> 0.16483505E+02</totfact>
</mgrwt>
</event>
<event>
 4    1  0.2338029E-002  0.4610392E+03  0.7818608E-02  0.1024480E+00
         -4   -1    0    0    0  501 -0.00000000000E+00  0.00000000000E+00  0.49070712870E+03  0.49070712870E+03  0.00000000000E+00 0.  1.
          4   -1    0    0  502    0  0.00000000000E+00 -0.00000000000E+00 -0.61073612610E+03  0.61073612610E+03  0.00000000000E+00 0. -1.
    9000007    1    1    2  502    0  0.16654370788E+03  0.15754456967E+03  0.23694118314E+03  0.51836109261E+03  0.40000000000E+03 0. -1.
   -9000007    1    1    2    0  501 -0.16654370788E+03 -0.15754456967E+03 -0.35697018053E+03  0.58308216218E+03  0.40000000000E+03 0. -1.
<mgrwt>
<rscale>  2 0.46103915E+03</rscale>
<asrwt>0</asrwt>
<pdfrwt beam="1">  1        4 0.93959405E-01 0.46103915E+03</pdfrwt>
<pdfrwt beam="2">  1       -4 0.75493404E-01 0.46103915E+03</pdfrwt>
<totfact> 0.29401535E+00</totfact>
</mgrwt>
</event>
<event>
 4    1  0.2338029E-002  0.4184380E+03  0.7818608E-02  0.1037576E+00
         -2   -1    0    0    0  501 -0.00000000000E+00  0.00000000000E+00  0.17278136300E+03  0.17278136300E+03  0.00000000000E+00 0.  1.
          2   -1    0    0  502    0  0.00000000000E+00 -0.00000000000E+00 -0.12803437161E+04  0.12803437161E+04  0.00000000000E+00 0. -1.
    9000007    1    1    2  502    0  0.10943592837E+03  0.55804685306E+02 -0.88556024223E+03  0.97944235560E+03  0.40000000000E+03 0. -1.
   -9000007    1    1    2    0  501 -0.10943592837E+03 -0.55804685306E+02 -0.22200211090E+03  0.47368272352E+03  0.40000000000E+03 0.  1.
<mgrwt>
<rscale>  2 0.41843803E+03</rscale>
<asrwt>0</asrwt>
<pdfrwt beam="1">  1        2 0.19697595E+00 0.41843803E+03</pdfrwt>
<pdfrwt beam="2">  1       -2 0.26581748E-01 0.41843803E+03</pdfrwt>
<totfact> 0.22653764E+02</totfact>
</mgrwt>
</event>
<event>
 4    1  0.2338029E-002  0.4670917E+03  0.7818608E-02  0.1022744E+00
          1   -1    0    0  502    0  0.00000000000E+00  0.00000000000E+00  0.36811565285E+03  0.36811565285E+03  0.00000000000E+00 0. -1.
         -1   -1    0    0    0  501 -0.00000000000E+00 -0.00000000000E+00 -0.85060840665E+03  0.85060840665E+03  0.00000000000E+00 0.  1.
    9000007    1    1    2  502    0  0.17316158094E+03 -0.16789781783E+03 -0.57679892516E+03  0.74220725570E+03  0.40000000000E+03 0.  1.
   -9000007    1    1    2    0  501 -0.17316158094E+03  0.16789781783E+03  0.94306171361E+02  0.47651680380E+03  0.40000000000E+03 0. -1.
<mgrwt>
<rscale>  2 0.46709165E+03</rscale>
<asrwt>0</asrwt>
<pdfrwt beam="1">  1        1 0.56633177E-01 0.46709165E+03</pdfrwt>
<pdfrwt beam="2">  1       -1 0.13086283E+00 0.46709165E+03</pdfrwt>
<totfact> 0.35273284E+01</totfact>
</mgrwt>
</event>
<event>
 4    1  0.2338029E-002  0.5277751E+03  0.7818608E-02  0.1006773E+00
          2   -1    0    0  502    0  0.00000000000E+00  0.00000000000E+00  0.76388844896E+03  0.76388844896E+03  0.00000000000E+00 0.  1.
         -2   -1    0    0    0  501 -0.00000000000E+00 -0.00000000000E+00 -0.48895565251E+03  0.48895565251E+03  0.00000000000E+00 0. -1.
    9000007    1    1    2  502    0  0.20938871359E+03  0.27331831264E+03 -0.17839028076E+03  0.55710827105E+03  0.40000000000E+03 0. -1.
   -9000007    1    1    2    0  501 -0.20938871359E+03 -0.27331831264E+03  0.45332307721E+03  0.69573583042E+03  0.40000000000E+03 0.  1.
<mgrwt>
<rscale>  2 0.52777508E+03</rscale>
<asrwt>0</asrwt>
<pdfrwt beam="1">  1        2 0.11752130E+00 0.52777508E+03</pdfrwt>
<pdfrwt beam="2">  1       -2 0.75223946E-01 0.52777508E+03</pdfrwt>
<totfact> 0.60007043E+01</totfact>
</mgrwt>
</event>
<event>
 4    1  0.2338029E-002  0.4236628E+03  0.7818608E-02  0.1035881E+00
          2   -1    0    0  502    0  0.00000000000E+00  0.00000000000E+00  0.87430043243E+03  0.87430043243E+03  0.00000000000E+00 0. -1.
         -2   -1    0    0    0  501 -0.00000000000E+00 -0.00000000000E+00 -0.20877393362E+03  0.20877393362E+03  0.00000000000E+00 0.  1.
    9000007    1    1    2  502    0  0.11375714282E+03  0.80929095854E+02  0.26286547952E+03  0.49858646835E+03  0.40000000000E+03 0.  1.
   -9000007    1    1    2    0  501 -0.11375714282E+03 -0.80929095854E+02  0.40266101929E+03  0.58448789770E+03  0.40000000000E+03 0.  1.
<mgrwt>
<rscale>  2 0.42366284E+03</rscale>
<asrwt>0</asrwt>
<pdfrwt beam="1">  1        2 0.13450776E+00 0.42366284E+03</pdfrwt>
<pdfrwt beam="2">  1       -2 0.32119067E-01 0.42366284E+03</pdfrwt>
<totfact> 0.28307553E+02</totfact>
</mgrwt>
</event>
<event>
 4    1  0.2338029E-002  0.4284607E+03  0.7818608E-02  0.1034347E+00
          1   -1    0    0  502    0  0.00000000000E+00  0.00000000000E+00  0.13957400023E+04  0.13957400023E+04  0.00000000000E+00 0. -1.
         -1   -1    0    0    0  501 -0.00000000000E+00 -0.00000000000E+00 -0.14135547993E+03  0.14135547993E+03  0.00000000000E+00 0.  1.
    9000007    1    1    2  502    0 -0.74526910462E+02 -0.13425453769E+03  0.82983971216E+03  0.93392317091E+03  0.40000000000E+03 0. -1.
   -9000007    1    1    2    0  501  0.74526910462E+02  0.13425453769E+03  0.42454481023E+03  0.60317231134E+03  0.40000000000E+03 0.  1.
<mgrwt>
<rscale>  2 0.42846066E+03</rscale>
<asrwt>0</asrwt>
<pdfrwt beam="1">  1        1 0.21472922E+00 0.42846066E+03</pdfrwt>
<pdfrwt beam="2">  1       -1 0.21746998E-01 0.42846066E+03</pdfrwt>
<totfact> 0.14484919E+02</totfact>
</mgrwt>
</event>
<event>
 4    1  0.2338029E-002  0.4534851E+03  0.7818608E-02  0.1026688E+00
          2   -1    0    0  502    0  0.00000000000E+00  0.00000000000E+00  0.12670938661E+04  0.12670938661E+04  0.00000000000E+00 0.  1.
         -2   -1    0    0    0  501 -0.00000000000E+00 -0.00000000000E+00 -0.19305568557E+03  0.19305568557E+03  0.00000000000E+00 0. -1.
    9000007    1    1    2  502    0  0.21197532049E+03  0.26742533725E+02  0.24561725058E+03  0.51572912792E+03  0.40000000000E+03 0. -1.
   -9000007    1    1    2    0  501 -0.21197532049E+03 -0.26742533725E+02  0.82842092999E+03  0.94442042378E+03  0.40000000000E+03 0.  1.
<mgrwt>
<rscale>  2 0.45348506E+03</rscale>
<asrwt>0</asrwt>
<pdfrwt beam="1">  1        2 0.19493751E+00 0.45348506E+03</pdfrwt>
<pdfrwt beam="2">  1       -2 0.29700875E-01 0.45348506E+03</pdfrwt>
<totfact> 0.18760171E+02</totfact>
</mgrwt>
</event>
<event>
 4    1  0.2338029E-002  0.4182017E+03  0.7818608E-02  0.1037653E+00
          1   -1    0    0  502    0  0.00000000000E+00  0.00000000000E+00  0.28237564713E+04  0.28237564713E+04  0.00000000000E+00 0.  1.
         -1   -1    0    0    0  501 -0.00000000000E+00 -0.00000000000E+00 -0.62366573745E+02  0.62366573745E+02  0.00000000000E+00 0. -1.
    9000007    1    1    2  502    0 -0.65307257335E+02  0.10309026904E+03  0.12608139387E+04  0.13283615583E+04  0.40000000000E+03 0. -1.
   -9000007    1    1    2    0  501  0.65307257335E+02 -0.10309026904E+03  0.15005759589E+04  0.15577614868E+04  0.40000000000E+03 0. -1.
<mgrwt>
<rscale>  2 0.41820168E+03</rscale>
<asrwt>0</asrwt>
<pdfrwt beam="1">  1        1 0.43442397E+00 0.41820168E+03</pdfrwt>
<pdfrwt beam="2">  1       -1 0.95948597E-02 0.41820168E+03</pdfrwt>
<totfact> 0.59955247E+01</totfact>
</mgrwt>
</event>
<event>
 4    1  0.2338029E-002  0.4217734E+03  0.7818608E-02  0.1036491E+00
          2   -1    0    0  502    0  0.00000000000E+00  0.00000000000E+00  0.11523615359E+04  0.11523615359E+04  0.00000000000E+00 0. -1.
         -2   -1    0    0    0  501 -0.00000000000E+00 -0.00000000000E+00 -0.22673714830E+03  0.22673714830E+03  0.00000000000E+00 0.  1.
    9000007    1    1    2  502    0  0.96750100819E+02  0.92370141606E+02  0.73258333297E+02  0.42808831854E+03  0.40000000000E+03 0.  1.
   -9000007    1    1    2    0  501 -0.96750100819E+02 -0.92370141606E+02  0.85236605432E+03  0.95101036568E+03  0.40000000000E+03 0. -1.
<mgrwt>
<rscale>  2 0.42177343E+03</rscale>
<asrwt>0</asrwt>
<pdfrwt beam="1">  1        2 0.17728639E+00 0.42177343E+03</pdfrwt>
<pdfrwt beam="2">  1       -2 0.34882639E-01 0.42177343E+03</pdfrwt>
<totfact> 0.16267762E+02</totfact>
</mgrwt>
</event>
<event>
 4    1  0.2338029E-002  0.4164430E+03  0.7818608E-02  0.1038230E+00
         -1   -1    0    0    0  501 -0.00000000000E+00  0.00000000000E+00  0.96243312011E+03  0.96243312011E+03  0.00000000000E+00 0.  1.
          1   -1    0    0  502    0  0.00000000000E+00 -0.00000000000E+00 -0.31729019718E+03  0.31729019718E+03  0.00000000000E+00 0. -1.
    9000007    1    1    2  502    0 -0.66781644293E+01 -0.11567272254E+03  0.74317245561E+03  0.85189792546E+03  0.40000000000E+03 0.  1.
   -9000007    1    1    2    0  501  0.66781644293E+01  0.11567272254E+03 -0.98029532684E+02  0.42782539183E+03  0.40000000000E+03 0. -1.
<mgrwt>
<rscale>  2 0.41644301E+03</rscale>
<asrwt>0</asrwt>
<pdfrwt beam="1">  1        1 0.48813877E-01 0.41644301E+03</pdfrwt>
<pdfrwt beam="2">  1       -1 0.14806663E+00 0.41644301E+03</pdfrwt>
<totfact> 0.31356149E+01</totfact>
</mgrwt>
</event>
<event>
 4    1  0.2338029E-002  0.5094451E+03  0.7818608E-02  0.1011343E+00
         -2   -1    0    0    0  501 -0.00000000000E+00  0.00000000000E+00  0.93060477385E+03  0.93060477385E+03  0.00000000000E+00 0.  1.
          2   -1    0    0  502    0  0.00000000000E+00 -0.00000000000E+00 -0.30065398458E+03  0.30065398458E+03  0.00000000000E+00 0. -1.
    9000007    1    1    2  502    0  0.94340376868E+02  0.30105521583E+03  0.48061976100E+03  0.70037825805E+03  0.40000000000E+03 0.  1.
   -9000007    1    1    2    0  501 -0.94340376868E+02 -0.30105521583E+03  0.14933102827E+03  0.53088050039E+03  0.40000000000E+03 0. -1.
<mgrwt>
<rscale>  2 0.50944514E+03</rscale>
<asrwt>0</asrwt>
<pdfrwt beam="1">  1        2 0.46254460E-01 0.50944514E+03</pdfrwt>
<pdfrwt beam="2">  1       -2 0.14316996E+00 0.50944514E+03</pdfrwt>
<totfact> 0.38233815E+01</totfact>
</mgrwt>
</event>
<event>
 4    1  0.2338029E-002  0.4542327E+03  0.7818608E-02  0.1026467E+00
         -2   -1    0    0    0  501 -0.00000000000E+00  0.00000000000E+00  0.18789987531E+03  0.18789987531E+03  0.00000000000E+00 0. -1.
          2   -1    0    0  502    0  0.00000000000E+00 -0.00000000000E+00 -0.11361248024E+04  0.11361248024E+04  0.00000000000E+00 0.  1.
    9000007    1    1    2  502    0 -0.17020251380E+03  0.13175156001E+03 -0.59527075693E+03  0.74878210670E+03  0.40000000000E+03 0. -1.
   -9000007    1    1    2    0  501  0.17020251380E+03 -0.13175156001E+03 -0.35295417016E+03  0.57524257101E+03  0.40000000000E+03 0. -1.
<mgrwt>
<rscale>  2 0.45423273E+03</rscale>
<asrwt>0</asrwt>
<pdfrwt beam="1">  1        2 0.17478843E+00 0.45423273E+03</pdfrwt>
<pdfrwt beam="2">  1       -2 0.28907674E-01 0.45423273E+03</pdfrwt>
<totfact> 0.23491707E+02</totfact>
</mgrwt>
</event>
<event>
 4    1  0.2338029E-002  0.4153701E+03  0.7818608E-02  0.1038584E+00
          2   -1    0    0  502    0  0.00000000000E+00  0.00000000000E+00  0.20505922856E+04  0.20505922856E+04  0.00000000000E+00 0. -1.
         -2   -1    0    0    0  501 -0.00000000000E+00 -0.00000000000E+00 -0.98159420858E+02  0.98159420858E+02  0.00000000000E+00 0.  1.
    9000007    1    1    2  502    0 -0.92907049966E+02  0.62454958651E+02  0.57015736039E+03  0.70541601726E+03  0.40000000000E+03 0.  1.
   -9000007    1    1    2    0  501  0.92907049966E+02 -0.62454958651E+02  0.13822755043E+04  0.14433356892E+04  0.40000000000E+03 0.  1.
<mgrwt>
<rscale>  2 0.41537013E+03</rscale>
<asrwt>0</asrwt>
<pdfrwt beam="1">  1        2 0.31547571E+00 0.41537013E+03</pdfrwt>
<pdfrwt beam="2">  1       -2 0.15101451E-01 0.41537013E+03</pdfrwt>
<totfact> 0.23109825E+02</totfact>
</mgrwt>
</event>
<event>
 4    1  0.2338029E-002  0.4354075E+03  0.7818608E-02  0.1032165E+00
          2   -1    0    0  502    0  0.00000000000E+00  0.00000000000E+00  0.10306051181E+04  0.10306051181E+04  0.00000000000E+00 0.  1.
         -2   -1    0    0    0  501 -0.00000000000E+00 -0.00000000000E+00 -0.19073045236E+03  0.19073045236E+03  0.00000000000E+00 0. -1.
    9000007    1    1    2  502    0  0.61806674529E+02 -0.16049795299E+03  0.53507809418E+03  0.68984652264E+03  0.40000000000E+03 0.  1.
   -9000007    1    1    2    0  501 -0.61806674529E+02  0.16049795299E+03  0.30479657159E+03  0.53148904785E+03  0.40000000000E+03 0. -1.
<mgrwt>
<rscale>  2 0.43540746E+03</rscale>
<asrwt>0</asrwt>
<pdfrwt beam="1">  1        2 0.15855463E+00 0.43540746E+03</pdfrwt>
<pdfrwt beam="2">  1       -2 0.29343147E-01 0.43540746E+03</pdfrwt>
<totfact> 0.26522025E+02</totfact>
</mgrwt>
</event>
<event>
 4    1  0.2338029E-002  0.4066353E+03  0.7818608E-02  0.1041506E+00
         -2   -1    0    0    0  501 -0.00000000000E+00  0.00000000000E+00  0.12567817060E+03  0.12567817060E+03  0.00000000000E+00 0.  1.
          2   -1    0    0  502    0  0.00000000000E+00 -0.00000000000E+00 -0.13670380342E+04  0.13670380342E+04  0.00000000000E+00 0. -1.
    9000007    1    1    2  502    0 -0.19860206130E+02  0.70411751826E+02 -0.47601556066E+03  0.62605355727E+03  0.40000000000E+03 0.  1.
   -9000007    1    1    2    0  501  0.19860206130E+02 -0.70411751826E+02 -0.76534430296E+03  0.86666264755E+03  0.40000000000E+03 0. -1.
<mgrwt>
<rscale>  2 0.40663527E+03</rscale>
<asrwt>0</asrwt>
<pdfrwt beam="1">  1        2 0.21031354E+00 0.40663527E+03</pdfrwt>
<pdfrwt beam="2">  1       -2 0.19335104E-01 0.40663527E+03</pdfrwt>
<totfact> 0.35525251E+02</totfact>
</mgrwt>
</event>
<event>
 4    1  0.2338029E-002  0.4219156E+03  0.7818608E-02  0.1036445E+00
         -1   -1    0    0    0  501 -0.00000000000E+00  0.00000000000E+00  0.19275798831E+03  0.19275798831E+03  0.00000000000E+00 0.  1.
          1   -1    0    0  502    0  0.00000000000E+00 -0.00000000000E+00 -0.94092651620E+03  0.94092651620E+03  0.00000000000E+00 0. -1.
    9000007    1    1    2  502    0 -0.10917944256E+03  0.78055256872E+02 -0.29695134569E+03  0.51593882923E+03  0.40000000000E+03 0.  1.
   -9000007    1    1    2    0  501  0.10917944256E+03 -0.78055256872E+02 -0.45121718220E+03  0.61774567527E+03  0.40000000000E+03 0.  1.
<mgrwt>
<rscale>  2 0.42191560E+03</rscale>
<asrwt>0</asrwt>
<pdfrwt beam="1">  1        1 0.14475793E+00 0.42191560E+03</pdfrwt>
<pdfrwt beam="2">  1       -1 0.29655075E-01 0.42191560E+03</pdfrwt>
<totfact> 0.18298810E+02</totfact>
</mgrwt>
</event>
<event>
 4    1  0.2338029E-002  0.4481156E+03  0.7818608E-02  0.1028285E+00
          2   -1    0    0  502    0  0.00000000000E+00  0.00000000000E+00  0.19538358194E+04  0.19538358194E+04  0.00000000000E+00 0.  1.
         -2   -1    0    0    0  501 -0.00000000000E+00 -0.00000000000E+00 -0.14536314980E+03  0.14536314980E+03  0.00000000000E+00 0. -1.
    9000007    1    1    2  502    0  0.15804828048E+03 -0.12581077249E+03  0.14723500398E+04  0.15390328941E+04  0.40000000000E+03 0.  1.
   -9000007    1    1    2    0  501 -0.15804828048E+03  0.12581077249E+03  0.33612262981E+03  0.56016607511E+03  0.40000000000E+03 0. -1.
<mgrwt>
<rscale>  2 0.44811562E+03</rscale>
<asrwt>0</asrwt>
<pdfrwt beam="1">  1        2 0.30059011E+00 0.44811562E+03</pdfrwt>
<pdfrwt beam="2">  1       -2 0.22363563E-01 0.44811562E+03</pdfrwt>
<totfact> 0.13208146E+02</totfact>
</mgrwt>
</event>
<event>
 4    1  0.2338029E-002  0.4081538E+03  0.7818608E-02  0.1040992E+00
         -1   -1    0    0    0  501 -0.00000000000E+00  0.00000000000E+00  0.66979281808E+03  0.66979281808E+03  0.00000000000E+00 0. -1.
          1   -1    0    0  502    0  0.00000000000E+00 -0.00000000000E+00 -0.28744779318E+03  0.28744779318E+03  0.00000000000E+00 0.  1.
    9000007    1    1    2  502    0  0.80086459143E+02  0.13255865211E+02  0.36685722742E+03  0.54879302493E+03  0.40000000000E+03 0. -1.
   -9000007    1    1    2    0  501 -0.80086459143E+02 -0.13255865211E+02  0.15487797478E+02  0.40844758632E+03  0.40000000000E+03 0.  1.
<mgrwt>
<rscale>  2 0.40815384E+03</rscale>
<asrwt>0</asrwt>
<pdfrwt beam="1">  1        1 0.44222737E-01 0.40815384E+03</pdfrwt>
<pdfrwt beam="2">  1       -1 0.10304505E+00 0.40815384E+03</pdfrwt>
<totfact> 0.86368186E+01</totfact>
</mgrwt>
</event>
<event>
 4    1  0.2338029E-002  0.4679321E+03  0.7818608E-02  0.1022505E+00
          1   -1    0    0  502    0  0.00000000000E+00  0.00000000000E+00  0.22940469945E+03  0.22940469945E+03  0.00000000000E+00 0. -1.
         -1   -1    0    0    0  501 -0.00000000000E+00 -0.00000000000E+00 -0.11888760371E+04  0.11888760371E+04  0.00000000000E+00 0.  1.
    9000007    1    1    2  502    0 -0.24223670906E+03  0.16788756828E+02 -0.79461631468E+03  0.92215810636E+03  0.40000000000E+03 0.  1.
   -9000007    1    1    2    0  501  0.24223670906E+03 -0.16788756828E+02 -0.16485502296E+03  0.49612263017E+03  0.40000000000E+03 0. -1.
<mgrwt>
<rscale>  2 0.46793214E+03</rscale>
<asrwt>0</asrwt>
<pdfrwt beam="1">  1        1 0.35293031E-01 0.46793214E+03</pdfrwt>
<pdfrwt beam="2">  1       -1 0.18290401E+00 0.46793214E+03</pdfrwt>
<totfact> 0.26129329E+01</totfact>
</mgrwt>
</event>
<event>
 4    1  0.2338029E-002  0.4505892E+03  0.7818608E-02  0.1027546E+00
         -2   -1    0    0    0  501 -0.00000000000E+00  0.00000000000E+00  0.55849524478E+03  0.55849524478E+03  0.00000000000E+00 0. -1.
          2   -1    0    0  502    0  0.00000000000E+00 -0.00000000000E+00 -0.36780884517E+03  0.36780884517E+03  0.00000000000E+00 0.  1.
    9000007    1    1    2  502    0  0.12221254340E+03 -0.16761470066E+03  0.45397108342E+02  0.45287028064E+03  0.40000000000E+03 0.  1.
   -9000007    1    1    2    0  501 -0.12221254340E+03  0.16761470066E+03  0.14528929126E+03  0.47343380931E+03  0.40000000000E+03 0.  1.
<mgrwt>
<rscale>  2 0.45058916E+03</rscale>
<asrwt>0</asrwt>
<pdfrwt beam="1">  1        2 0.56585976E-01 0.45058916E+03</pdfrwt>
<pdfrwt beam="2">  1       -2 0.85922346E-01 0.45058916E+03</pdfrwt>
<totfact> 0.10561125E+02</totfact>
</mgrwt>
</event>
<event>
 4    1  0.2338029E-002  0.7667127E+03  0.7818608E-02  0.9609490E-01
         -1   -1    0    0    0  501 -0.00000000000E+00  0.00000000000E+00  0.52906462420E+03  0.52906462420E+03  0.00000000000E+00 0.  1.
          1   -1    0    0  502    0  0.00000000000E+00 -0.00000000000E+00 -0.11127356997E+04  0.11127356997E+04  0.00000000000E+00 0. -1.
    9000007    1    1    2  502    0  0.60463323105E+03  0.24953371322E+03 -0.26044780179E+03  0.80974161038E+03  0.40000000000E+03 0.  1.
   -9000007    1    1    2    0  501 -0.60463323105E+03 -0.24953371322E+03 -0.32322327375E+03  0.83205871356E+03  0.40000000000E+03 0. -1.
<mgrwt>
<rscale>  2 0.76671274E+03</rscale>
<asrwt>0</asrwt>
<pdfrwt beam="1">  1        1 0.17119011E+00 0.76671274E+03</pdfrwt>
<pdfrwt beam="2">  1       -1 0.81394558E-01 0.76671274E+03</pdfrwt>
<totfact> 0.19171991E+01</totfact>
</mgrwt>
</event>
<event>
 4    1  0.2338029E-002  0.4487133E+03  0.7818608E-02  0.1028106E+00
         -2   -1    0    0    0  501 -0.00000000000E+00  0.00000000000E+00  0.97026837183E+02  0.97026837183E+02  0.00000000000E+00 0. -1.
          2   -1    0    0  502    0  0.00000000000E+00 -0.00000000000E+00 -0.25273589558E+04  0.25273589558E+04  0.00000000000E+00 0.  1.
    9000007    1    1    2  502    0 -0.19603329163E+03  0.53987001043E+02 -0.17702282991E+04  0.18262124407E+04  0.40000000000E+03 0. -1.
   -9000007    1    1    2    0  501  0.19603329163E+03 -0.53987001043E+02 -0.66010381949E+03  0.79817335223E+03  0.40000000000E+03 0. -1.
<mgrwt>
<rscale>  2 0.44871332E+03</rscale>
<asrwt>0</asrwt>
<pdfrwt beam="1">  1        2 0.38882448E+00 0.44871332E+03</pdfrwt>
<pdfrwt beam="2">  1       -2 0.14927205E-01 0.44871332E+03</pdfrwt>
<totfact> 0.12866095E+02</totfact>
</mgrwt>
</event>
<event>
 4    1  0.2338029E-002  0.4076471E+03  0.7818608E-02  0.1041163E+00
         -1   -1    0    0    0  501 -0.00000000000E+00  0.00000000000E+00  0.80268390479E+03  0.80268390479E+03  0.00000000000E+00 0.  1.
          1   -1    0    0  502    0  0.00000000000E+00 -0.00000000000E+00 -0.20762457801E+03  0.20762457801E+03  0.00000000000E+00 0. -1.
    9000007    1    1    2  502    0  0.48901254119E+02  0.61520918614E+02  0.32466107618E+03  0.52113431135E+03  0.40000000000E+03 0. -1.
   -9000007    1    1    2    0  501 -0.48901254119E+02 -0.61520918614E+02  0.27039825061E+03  0.48917417145E+03  0.40000000000E+03 0.  1.
<mgrwt>
<rscale>  2 0.40764710E+03</rscale>
<asrwt>0</asrwt>
<pdfrwt beam="1">  1        1 0.31942243E-01 0.40764710E+03</pdfrwt>
<pdfrwt beam="2">  1       -1 0.12348983E+00 0.40764710E+03</pdfrwt>
<totfact> 0.85453400E+01</totfact>
</mgrwt>
</event>
<event>
 4    1  0.2338029E-002  0.4684456E+03  0.7818608E-02  0.1022360E+00
          4   -1    0    0  502    0  0.00000000000E+00  0.00000000000E+00  0.28622174793E+03  0.28622174793E+03  0.00000000000E+00 0. -1.
         -4   -1    0    0    0  501 -0.00000000000E+00 -0.00000000000E+00 -0.91845110182E+03  0.91845110182E+03  0.00000000000E+00 0.  1.
    9000007    1    1    2  502    0 -0.20069881152E+02  0.24297825909E+03 -0.71263651359E+02  0.47383514277E+03  0.40000000000E+03 0. -1.
   -9000007    1    1    2    0  501  0.20069881152E+02 -0.24297825909E+03 -0.56096570254E+03  0.73083770698E+03  0.40000000000E+03 0.  1.
<mgrwt>
<rscale>  2 0.46844555E+03</rscale>
<asrwt>0</asrwt>
<pdfrwt beam="1">  1        4 0.44034115E-01 0.46844555E+03</pdfrwt>
<pdfrwt beam="2">  1       -4 0.14130017E+00 0.46844555E+03</pdfrwt>
<totfact> 0.34188260E+00</totfact>
</mgrwt>
</event>
<event>
 4    1  0.2338029E-002  0.4312314E+03  0.7818608E-02  0.1033472E+00
         -2   -1    0    0    0  501 -0.00000000000E+00  0.00000000000E+00  0.42766262495E+03  0.42766262495E+03  0.00000000000E+00 0.  1.
          2   -1    0    0  502    0  0.00000000000E+00 -0.00000000000E+00 -0.43505752341E+03  0.43505752341E+03  0.00000000000E+00 0. -1.
    9000007    1    1    2  502    0 -0.99700343209E+02 -0.12657141071E+03 -0.13565031197E+02  0.43144465522E+03  0.40000000000E+03 0.  1.
   -9000007    1    1    2    0  501  0.99700343209E+02  0.12657141071E+03  0.61701327387E+01  0.43127549314E+03  0.40000000000E+03 0.  1.
<mgrwt>
<rscale>  2 0.43123135E+03</rscale>
<asrwt>0</asrwt>
<pdfrwt beam="1">  1        2 0.66931927E-01 0.43123135E+03</pdfrwt>
<pdfrwt beam="2">  1       -2 0.65794250E-01 0.43123135E+03</pdfrwt>
<totfact> 0.15790178E+02</totfact>
</mgrwt>
</event>
<event>
 4    1  0.2338029E-002  0.4500663E+03  0.7818608E-02  0.1027702E+00
         -2   -1    0    0    0  501 -0.00000000000E+00  0.00000000000E+00  0.60113373761E+02  0.60113373761E+02  0.00000000000E+00 0.  1.
          2   -1    0    0  502    0  0.00000000000E+00 -0.00000000000E+00 -0.34723021418E+04  0.34723021418E+04  0.00000000000E+00 0. -1.
    9000007    1    1    2  502    0  0.59256641779E+02 -0.19760652106E+03 -0.14023807413E+04  0.14728310936E+04  0.40000000000E+03 0.  1.
   -9000007    1    1    2    0  501 -0.59256641779E+02  0.19760652106E+03 -0.20098080267E+04  0.20595844219E+04  0.40000000000E+03 0. -1.
<mgrwt>
<rscale>  2 0.45006631E+03</rscale>
<asrwt>0</asrwt>
<pdfrwt beam="1">  1        2 0.53420042E+00 0.45006631E+03</pdfrwt>
<pdfrwt beam="2">  1       -2 0.92482098E-02 0.45006631E+03</pdfrwt>
<totfact> 0.75299537E+01</totfact>
</mgrwt>
</event>
<event>
 4    1  0.2338029E-002  0.5312881E+03  0.7818608E-02  0.1005920E+00
          2   -1    0    0  502    0  0.00000000000E+00  0.00000000000E+00  0.42639557371E+03  0.42639557371E+03  0.00000000000E+00 0. -1.
         -2   -1    0    0    0  501 -0.00000000000E+00 -0.00000000000E+00 -0.66477098324E+03  0.66477098324E+03  0.00000000000E+00 0.  1.
    9000007    1    1    2  502    0  0.44645843684E+02 -0.34680509714E+03 -0.83861580989E+02  0.53786596055E+03  0.40000000000E+03 0.  1.
   -9000007    1    1    2    0  501 -0.44645843684E+02  0.34680509714E+03 -0.15451382855E+03  0.55330059639E+03  0.40000000000E+03 0. -1.
<mgrwt>
<rscale>  2 0.53128808E+03</rscale>
<asrwt>0</asrwt>
<pdfrwt beam="1">  1        2 0.65599319E-01 0.53128808E+03</pdfrwt>
<pdfrwt beam="2">  1       -2 0.10227246E+00 0.53128808E+03</pdfrwt>
<totfact> 0.59467555E+01</totfact>
</mgrwt>
</event>
<event>
 4    1  0.2338029E-002  0.4357135E+03  0.7818608E-02  0.1032070E+00
         -1   -1    0    0    0  501 -0.00000000000E+00  0.00000000000E+00  0.35671028039E+03  0.35671028039E+03  0.00000000000E+00 0.  1.
          1   -1    0    0  502    0  0.00000000000E+00 -0.00000000000E+00 -0.14674997473E+04  0.14674997473E+04  0.00000000000E+00 0. -1.
    9000007    1    1    2  502    0  0.10548455913E+03 -0.13681842790E+03 -0.12835566119E+04  0.13554939507E+04  0.40000000000E+03 0. -1.
   -9000007    1    1    2    0  501 -0.10548455913E+03  0.13681842790E+03  0.17276714500E+03  0.46871607698E+03  0.40000000000E+03 0.  1.
<mgrwt>
<rscale>  2 0.43571352E+03</rscale>
<asrwt>0</asrwt>
<pdfrwt beam="1">  1        1 0.22576919E+00 0.43571352E+03</pdfrwt>
<pdfrwt beam="2">  1       -1 0.54878504E-01 0.43571352E+03</pdfrwt>
<totfact> 0.25169645E+01</totfact>
</mgrwt>
</event>
<event>
 4    1  0.2338029E-002  0.5272281E+03  0.7818608E-02  0.1006907E+00
         -2   -1    0    0    0  501 -0.00000000000E+00  0.00000000000E+00  0.26203028458E+03  0.26203028458E+03  0.00000000000E+00 0.  1.
          2   -1    0    0  502    0  0.00000000000E+00 -0.00000000000E+00 -0.12878179493E+04  0.12878179493E+04  0.00000000000E+00 0. -1.
    9000007    1    1    2  502    0  0.28152614117E+03 -0.19675497694E+03 -0.18755665275E+03  0.55959537802E+03  0.40000000000E+03 0. -1.
   -9000007    1    1    2    0  501 -0.28152614117E+03  0.19675497694E+03 -0.83823101200E+03  0.99025285588E+03  0.40000000000E+03 0. -1.
<mgrwt>
<rscale>  2 0.52722812E+03</rscale>
<asrwt>0</asrwt>
<pdfrwt beam="1">  1        2 0.19812584E+00 0.52722812E+03</pdfrwt>
<pdfrwt beam="2">  1       -2 0.40312351E-01 0.52722812E+03</pdfrwt>
<totfact> 0.10166337E+02</totfact>
</mgrwt>
</event>
<event>
 4    1  0.2338029E-002  0.4088799E+03  0.7818608E-02  0.1040748E+00
         -2   -1    0    0    0  501 -0.00000000000E+00  0.00000000000E+00  0.23876926175E+03  0.23876926175E+03  0.00000000000E+00 0.  1.
          2   -1    0    0  502    0  0.00000000000E+00 -0.00000000000E+00 -0.74748827262E+03  0.74748827262E+03  0.00000000000E+00 0. -1.
    9000007    1    1    2  502    0 -0.60317832019E+02 -0.59535806149E+02 -0.37841096128E+03  0.55711543570E+03  0.40000000000E+03 0. -1.
   -9000007    1    1    2    0  501  0.60317832019E+02  0.59535806149E+02 -0.13030804959E+03  0.42914209868E+03  0.40000000000E+03 0.  1.
<mgrwt>
<rscale>  2 0.40887988E+03</rscale>
<asrwt>0</asrwt>
<pdfrwt beam="1">  1        2 0.11499819E+00 0.40887988E+03</pdfrwt>
<pdfrwt beam="2">  1       -2 0.36733733E-01 0.40887988E+03</pdfrwt>
<totfact> 0.27017086E+02</totfact>
</mgrwt>
</event>
<event>
 4    1  0.2338029E-002  0.6236992E+03  0.7818608E-02  0.9857422E-01
         -2   -1    0    0    0  501 -0.00000000000E+00  0.00000000000E+00  0.20715083823E+03  0.20715083823E+03  0.00000000000E+00 0. -1.
          2   -1    0    0  502    0  0.00000000000E+00 -0.00000000000E+00 -0.19420356360E+04  0.19420356360E+04  0.00000000000E+00 0.  1.
    9000007    1    1    2  502    0 -0.44168483155E+03  0.18416073008E+03 -0.10627837538E+04  0.12322783664E+04  0.40000000000E+03 0.  1.
   -9000007    1    1    2    0  501  0.44168483155E+03 -0.18416073008E+03 -0.67210104403E+03  0.91690810789E+03  0.40000000000E+03 0.  1.
<mgrwt>
<rscale>  2 0.62369918E+03</rscale>
<asrwt>0</asrwt>
<pdfrwt beam="1">  1        2 0.29877472E+00 0.62369918E+03</pdfrwt>
<pdfrwt beam="2">  1       -2 0.31869359E-01 0.62369918E+03</pdfrwt>
<totfact> 0.68708312E+01</totfact>
</mgrwt>
</event>
<event>
 4    1  0.2338029E-002  0.4242720E+03  0.7818608E-02  0.1035685E+00
          2   -1    0    0  502    0  0.00000000000E+00  0.00000000000E+00  0.68163252353E+03  0.68163252353E+03  0.00000000000E+00 0.  1.
         -2   -1    0    0    0  501 -0.00000000000E+00 -0.00000000000E+00 -0.33917374189E+03  0.33917374189E+03  0.00000000000E+00 0. -1.
    9000007    1    1    2  502    0  0.93376407606E+02 -0.10624308785E+03  0.41138839436E+03  0.59097136837E+03  0.40000000000E+03 0.  1.
   -9000007    1    1    2    0  501 -0.93376407606E+02  0.10624308785E+03 -0.68929612725E+02  0.42983489705E+03  0.40000000000E+03 0. -1.
<mgrwt>
<rscale>  2 0.42427202E+03</rscale>
<asrwt>0</asrwt>
<pdfrwt beam="1">  1        2 0.10486654E+00 0.42427202E+03</pdfrwt>
<pdfrwt beam="2">  1       -2 0.52180576E-01 0.42427202E+03</pdfrwt>
<totfact> 0.15180827E+02</totfact>
</mgrwt>
</event>
<event>
 4    1  0.2338029E-002  0.4636223E+03  0.7818608E-02  0.1023736E+00
          2   -1    0    0  502    0  0.00000000000E+00  0.00000000000E+00  0.87388635977E+03  0.87388635977E+03  0.00000000000E+00 0.  1.
         -2   -1    0    0    0  501 -0.00000000000E+00 -0.00000000000E+00 -0.24627906556E+03  0.24627906556E+03  0.00000000000E+00 0. -1.
    9000007    1    1    2  502    0  0.50544334926E+02 -0.22889068815E+03  0.33379654199E+03  0.57128434983E+03  0.40000000000E+03 0.  1.
   -9000007    1    1    2    0  501 -0.50544334926E+02  0.22889068815E+03  0.29381075222E+03  0.54888107549E+03  0.40000000000E+03 0. -1.
<mgrwt>
<rscale>  2 0.46362234E+03</rscale>
<asrwt>0</asrwt>
<pdfrwt beam="1">  1        2 0.13444405E+00 0.46362234E+03</pdfrwt>
<pdfrwt beam="2">  1       -2 0.37889087E-01 0.46362234E+03</pdfrwt>
<totfact> 0.20670557E+02</totfact>
</mgrwt>
</event>
<event>
 4    1  0.2338029E-002  0.4895252E+03  0.7818608E-02  0.1016550E+00
          2   -1    0    0  502    0  0.00000000000E+00  0.00000000000E+00  0.21550949743E+03  0.21550949743E+03  0.00000000000E+00 0.  1.
         -2   -1    0    0    0  501 -0.00000000000E+00 -0.00000000000E+00 -0.11119505768E+04  0.11119505768E+04  0.00000000000E+00 0. -1.
    9000007    1    1    2  502    0  0.12370250513E+03 -0.25363881777E+03 -0.44689878552E+03  0.66283744927E+03  0.40000000000E+03 0. -1.
   -9000007    1    1    2    0  501 -0.12370250513E+03  0.25363881777E+03 -0.44954229390E+03  0.66462262500E+03  0.40000000000E+03 0. -1.
<mgrwt>
<rscale>  2 0.48952524E+03</rscale>
<asrwt>0</asrwt>
<pdfrwt beam="1">  1        2 0.33155307E-01 0.48952524E+03</pdfrwt>
<pdfrwt beam="2">  1       -2 0.17106932E+00 0.48952524E+03</pdfrwt>
<totfact> 0.34425425E+01</totfact>
</mgrwt>
</event>
<event>
 4    1  0.2338029E-002  0.1232655E+04  0.7818608E-02  0.9084745E-01
          1   -1    0    0  502    0  0.00000000000E+00  0.00000000000E+00  0.16223255924E+04  0.16223255924E+04  0.00000000000E+00 0. -1.
         -1   -1    0    0    0  501 -0.00000000000E+00 -0.00000000000E+00 -0.10390383674E+04  0.10390383674E+04  0.00000000000E+00 0.  1.
    9000007    1    1    2  502    0 -0.11381390885E+04  0.25313398891E+03 -0.12621811362E+03  0.12390998399E+04  0.40000000000E+03 0.  1.
   -9000007    1    1    2    0  501  0.11381390885E+04 -0.25313398891E+03  0.70950533859E+03  0.14222641198E+04  0.40000000000E+03 0. -1.
<mgrwt>
<rscale>  2 0.12326546E+04</rscale>
<asrwt>0</asrwt>
<pdfrwt beam="1">  1        1 0.24958855E+00 0.12326546E+04</pdfrwt>
<pdfrwt beam="2">  1       -1 0.15985206E+00 0.12326546E+04</pdfrwt>
<totfact> 0.15420484E+00</totfact>
</mgrwt>
</event>
<event>
 4    1  0.2338029E-002  0.4795897E+03  0.7818608E-02  0.1019248E+00
         -1   -1    0    0    0  501 -0.00000000000E+00  0.00000000000E+00  0.43929210827E+03  0.43929210827E+03  0.00000000000E+00 0.  1.
          1   -1    0    0  502    0  0.00000000000E+00 -0.00000000000E+00 -0.67085180785E+03  0.67085180785E+03  0.00000000000E+00 0. -1.
    9000007    1    1    2  502    0 -0.13860369366E+02 -0.26422363380E+03 -0.37584979871E+03  0.60931872586E+03  0.40000000000E+03 0. -1.
   -9000007    1    1    2    0  501  0.13860369366E+02  0.26422363380E+03  0.14429009912E+03  0.50082519026E+03  0.40000000000E+03 0.  1.
<mgrwt>
<rscale>  2 0.47958966E+03</rscale>
<asrwt>0</asrwt>
<pdfrwt beam="1">  1        1 0.10320797E+00 0.47958966E+03</pdfrwt>
<pdfrwt beam="2">  1       -1 0.67583402E-01 0.47958966E+03</pdfrwt>
<totfact> 0.67589479E+01</totfact>
</mgrwt>
</event>
<event>
 4    1  0.2338029E-002  0.4749668E+03  0.7818608E-02  0.1020528E+00
          2   -1    0    0  502    0  0.00000000000E+00  0.00000000000E+00  0.12961836013E+04  0.12961836013E+04  0.00000000000E+00 0. -1.
         -2   -1    0    0    0  501 -0.00000000000E+00 -0.00000000000E+00 -0.17437034964E+03  0.17437034964E+03  0.00000000000E+00 0.  1.
    9000007    1    1    2  502    0  0.20644623273E+03  0.15156984430E+03  0.52911545040E+03  0.71102505199E+03  0.40000000000E+03 0.  1.
   -9000007    1    1    2    0  501 -0.20644623273E+03 -0.15156984430E+03  0.59269780121E+03  0.75952889891E+03  0.40000000000E+03 0. -1.
<mgrwt>
<rscale>  2 0.47496680E+03</rscale>
<asrwt>0</asrwt>
<pdfrwt beam="1">  1        2 0.19941286E+00 0.47496680E+03</pdfrwt>
<pdfrwt beam="2">  1       -2 0.26826208E-01 0.47496680E+03</pdfrwt>
<totfact> 0.21690689E+02</totfact>
</mgrwt>
</event>
<event>
 4    1  0.2338029E-002  0.6027779E+03  0.7818608E-02  0.9899659E-01
         -1   -1    0    0    0  501 -0.00000000000E+00  0.00000000000E+00  0.26798702930E+03  0.26798702930E+03  0.00000000000E+00 0. -1.
          1   -1    0    0  502    0  0.00000000000E+00 -0.00000000000E+00 -0.15947847623E+04  0.15947847623E+04  0.00000000000E+00 0.  1.
    9000007    1    1    2  502    0 -0.32827871065E+03 -0.30915100252E+03 -0.30286283865E+03  0.67458665363E+03  0.40000000000E+03 0. -1.
   -9000007    1    1    2    0  501  0.32827871065E+03  0.30915100252E+03 -0.10239348944E+04  0.11881851380E+04  0.40000000000E+03 0.  1.
<mgrwt>
<rscale>  2 0.60277795E+03</rscale>
<asrwt>0</asrwt>
<pdfrwt beam="1">  1        1 0.24535150E+00 0.60277795E+03</pdfrwt>
<pdfrwt beam="2">  1       -1 0.41228774E-01 0.60277795E+03</pdfrwt>
<totfact> 0.34126327E+01</totfact>
</mgrwt>
</event>
<event>
 4    1  0.2338029E-002  0.4344092E+03  0.7818608E-02  0.1032476E+00
          2   -1    0    0  502    0  0.00000000000E+00  0.00000000000E+00  0.10319631471E+03  0.10319631471E+03  0.00000000000E+00 0. -1.
         -2   -1    0    0    0  501 -0.00000000000E+00 -0.00000000000E+00 -0.19626227791E+04  0.19626227791E+04  0.00000000000E+00 0.  1.
    9000007    1    1    2  502    0  0.15260404426E+03  0.73643217114E+02 -0.11995682704E+04  0.12758038066E+04  0.40000000000E+03 0.  1.
   -9000007    1    1    2    0  501 -0.15260404426E+03 -0.73643217114E+02 -0.65985819403E+03  0.79001528718E+03  0.40000000000E+03 0. -1.
<mgrwt>
<rscale>  2 0.43440916E+03</rscale>
<asrwt>0</asrwt>
<pdfrwt beam="1">  1        2 0.15876357E-01 0.43440916E+03</pdfrwt>
<pdfrwt beam="2">  1       -2 0.30194195E+00 0.43440916E+03</pdfrwt>
<totfact> 0.12547170E+01</totfact>
</mgrwt>
</event>
<event>
 4    1  0.2338029E-002  0.4321325E+03  0.7818608E-02  0.1033188E+00
         -2   -1    0    0    0  501 -0.00000000000E+00  0.00000000000E+00  0.53368835137E+03  0.53368835137E+03  0.00000000000E+00 0.  1.
          2   -1    0    0  502    0  0.00000000000E+00 -0.00000000000E+00 -0.10364499956E+04  0.10364499956E+04  0.00000000000E+00 0. -1.
    9000007    1    1    2  502    0 -0.15711852305E+03  0.45302381482E+02  0.38757267301E+03  0.58047490292E+03  0.40000000000E+03 0.  1.
   -9000007    1    1    2    0  501  0.15711852305E+03 -0.45302381482E+02 -0.89033431728E+03  0.98966344410E+03  0.40000000000E+03 0. -1.
<mgrwt>
<rscale>  2 0.43213254E+03</rscale>
<asrwt>0</asrwt>
<pdfrwt beam="1">  1        2 0.15945384E+00 0.43213254E+03</pdfrwt>
<pdfrwt beam="2">  1       -2 0.82105902E-01 0.43213254E+03</pdfrwt>
<totfact> 0.32932409E+01</totfact>
</mgrwt>
</event>
<event>
 4    1  0.2338029E-002  0.4046915E+03  0.7818608E-02  0.1042167E+00
          2   -1    0    0  502    0  0.00000000000E+00  0.00000000000E+00  0.96313662736E+03  0.96313662736E+03  0.00000000000E+00 0. -1.
         -2   -1    0    0    0  501 -0.00000000000E+00 -0.00000000000E+00 -0.18530801787E+03  0.18530801787E+03  0.00000000000E+00 0.  1.
    9000007    1    1    2  502    0  0.26998164592E+02 -0.55193589154E+02  0.55372025437E+03  0.68584353411E+03  0.40000000000E+03 0. -1.
   -9000007    1    1    2    0  501 -0.26998164592E+02  0.55193589154E+02  0.22410835512E+03  0.46260111112E+03  0.40000000000E+03 0.  1.
<mgrwt>
<rscale>  2 0.40469153E+03</rscale>
<asrwt>0</asrwt>
<pdfrwt beam="1">  1        2 0.14817486E+00 0.40469153E+03</pdfrwt>
<pdfrwt beam="2">  1       -2 0.28508926E-01 0.40469153E+03</pdfrwt>
<totfact> 0.30897277E+02</totfact>
</mgrwt>
</event>
<event>
 4    1  0.2338029E-002  0.4469511E+03  0.7818608E-02  0.1028635E+00
          1   -1    0    0  502    0  0.00000000000E+00  0.00000000000E+00  0.39077629736E+03  0.39077629736E+03  0.00000000000E+00 0. -1.
         -1   -1    0    0    0  501 -0.00000000000E+00 -0.00000000000E+00 -0.52955257316E+03  0.52955257316E+03  0.00000000000E+00 0.  1.
    9000007    1    1    2  502    0  0.85313608612E+02  0.18024113601E+03  0.16274964323E+02  0.44724730674E+03  0.40000000000E+03 0.  1.
   -9000007    1    1    2    0  501 -0.85313608612E+02 -0.18024113601E+03 -0.15505124012E+03  0.47308156378E+03  0.40000000000E+03 0. -1.
<mgrwt>
<rscale>  2 0.44695109E+03</rscale>
<asrwt>0</asrwt>
<pdfrwt beam="1">  1        1 0.60119431E-01 0.44695109E+03</pdfrwt>
<pdfrwt beam="2">  1       -1 0.81469626E-01 0.44695109E+03</pdfrwt>
<totfact> 0.96879354E+01</totfact>
</mgrwt>
</event>
<event>
 4    1  0.2338029E-002  0.4447541E+03  0.7818608E-02  0.1029298E+00
          2   -1    0    0  502    0  0.00000000000E+00  0.00000000000E+00  0.28569631986E+04  0.28569631986E+04  0.00000000000E+00 0.  1.
         -2   -1    0    0    0  501 -0.00000000000E+00 -0.00000000000E+00 -0.13564547104E+03  0.13564547104E+03  0.00000000000E+00 0. -1.
    9000007    1    1    2  502    0 -0.18876102941E+03  0.46642297644E+02  0.24076199715E+04  0.24483545816E+04  0.40000000000E+03 0.  1.
   -9000007    1    1    2    0  501  0.18876102941E+03 -0.46642297644E+02  0.31369775600E+03  0.54425408797E+03  0.40000000000E+03 0. -1.
<mgrwt>
<rscale>  2 0.44475412E+03</rscale>
<asrwt>0</asrwt>
<pdfrwt beam="1">  1        2 0.43953275E+00 0.44475412E+03</pdfrwt>
<pdfrwt beam="2">  1       -2 0.20868536E-01 0.44475412E+03</pdfrwt>
<totfact> 0.47054269E+01</totfact>
</mgrwt>
</event>
<event>
 4    1  0.2338029E-002  0.4209334E+03  0.7818608E-02  0.1036763E+00
          1   -1    0    0  502    0  0.00000000000E+00  0.00000000000E+00  0.23477244107E+04  0.23477244107E+04  0.00000000000E+00 0.  1.
         -1   -1    0    0    0  501 -0.00000000000E+00 -0.00000000000E+00 -0.83729929726E+02  0.83729929726E+02  0.00000000000E+00 0. -1.
    9000007    1    1    2  502    0  0.11894692768E+02 -0.13055058827E+03  0.75017647884E+03  0.86020328366E+03  0.40000000000E+03 0.  1.
   -9000007    1    1    2    0  501 -0.11894692768E+02  0.13055058827E+03  0.15138180022E+04  0.15712510568E+04  0.40000000000E+03 0.  1.
<mgrwt>
<rscale>  2 0.42093341E+03</rscale>
<asrwt>0</asrwt>
<pdfrwt beam="1">  1        1 0.36118832E+00 0.42093341E+03</pdfrwt>
<pdfrwt beam="2">  1       -1 0.12881529E-01 0.42093341E+03</pdfrwt>
<totfact> 0.79223810E+01</totfact>
</mgrwt>
</event>
<event>
 4    1  0.2338029E-002  0.6357772E+03  0.7818608E-02  0.9833839E-01
          1   -1    0    0  502    0  0.00000000000E+00  0.00000000000E+00  0.15797798827E+04  0.15797798827E+04  0.00000000000E+00 0. -1.
         -1   -1    0    0    0  501 -0.00000000000E+00 -0.00000000000E+00 -0.26674473670E+03  0.26674473670E+03  0.00000000000E+00 0.  1.
    9000007    1    1    2  502    0  0.35720763727E+02  0.49288613107E+03  0.47006992374E+03  0.79068226512E+03  0.40000000000E+03 0.  1.
   -9000007    1    1    2    0  501 -0.35720763727E+02 -0.49288613107E+03  0.84296522224E+03  0.10558423543E+04  0.40000000000E+03 0. -1.
<mgrwt>
<rscale>  2 0.63577725E+03</rscale>
<asrwt>0</asrwt>
<pdfrwt beam="1">  1        1 0.24304305E+00 0.63577725E+03</pdfrwt>
<pdfrwt beam="2">  1       -1 0.41037653E-01 0.63577725E+03</pdfrwt>
<totfact> 0.35059443E+01</totfact>
</mgrwt>
</event>
<event>
 4    1  0.2338029E-002  0.4060369E+03  0.7818608E-02  0.1041709E+00
          1   -1    0    0  502    0  0.00000000000E+00  0.00000000000E+00  0.84421276773E+03  0.84421276773E+03  0.00000000000E+00 0. -1.
         -1   -1    0    0    0  501 -0.00000000000E+00 -0.00000000000E+00 -0.49955370737E+03  0.49955370737E+03  0.00000000000E+00 0.  1.
    9000007    1    1    2  502    0  0.61114523194E+02 -0.33629539246E+02  0.69668778714E+03  0.80637448100E+03  0.40000000000E+03 0. -1.
   -9000007    1    1    2    0  501 -0.61114523194E+02  0.33629539246E+02 -0.35202872677E+03  0.53739199410E+03  0.40000000000E+03 0.  1.
<mgrwt>
<rscale>  2 0.40603686E+03</rscale>
<asrwt>0</asrwt>
<pdfrwt beam="1">  1        1 0.12987889E+00 0.40603686E+03</pdfrwt>
<pdfrwt beam="2">  1       -1 0.76854417E-01 0.40603686E+03</pdfrwt>
<totfact> 0.36979450E+01</totfact>
</mgrwt>
</event>
<event>
 4    1  0.2338029E-002  0.6637010E+03  0.7818608E-02  0.9781404E-01
          2   -1    0    0  502    0  0.00000000000E+00  0.00000000000E+00  0.20943866591E+04  0.20943866591E+04  0.00000000000E+00 0.  1.
         -2   -1    0    0    0  501 -0.00000000000E+00 -0.00000000000E+00 -0.22952330789E+03  0.22952330789E+03  0.00000000000E+00 0. -1.
    9000007    1    1    2  502    0  0.59333068135E+02  0.52628758545E+03  0.12684962316E+04  0.14316360310E+04  0.40000000000E+03 0. -1.
   -9000007    1    1    2    0  501 -0.59333068135E+02 -0.52628758545E+03  0.59636711961E+03  0.89227393603E+03  0.40000000000E+03 0.  1.
<mgrwt>
<rscale>  2 0.66370101E+03</rscale>
<asrwt>0</asrwt>
<pdfrwt beam="1">  1        2 0.32221332E+00 0.66370101E+03</pdfrwt>
<pdfrwt beam="2">  1       -2 0.35311279E-01 0.66370101E+03</pdfrwt>
<totfact> 0.46537859E+01</totfact>
</mgrwt>
</event>
<event>
 4    1  0.2338029E-002  0.4769279E+03  0.7818608E-02  0.1019983E+00
         -1   -1    0    0    0  501 -0.00000000000E+00  0.00000000000E+00  0.11585338307E+03  0.11585338307E+03  0.00000000000E+00 0. -1.
          1   -1    0    0  502    0  0.00000000000E+00 -0.00000000000E+00 -0.19860805661E+04  0.19860805661E+04  0.00000000000E+00 0.  1.
    9000007    1    1    2  502    0  0.12901453845E+03  0.22542289826E+03 -0.82266929323E+03  0.95091797764E+03  0.40000000000E+03 0.  1.
   -9000007    1    1    2    0  501 -0.12901453845E+03 -0.22542289826E+03 -0.10475578898E+04  0.11510159715E+04  0.40000000000E+03 0.  1.
<mgrwt>
<rscale>  2 0.47692791E+03</rscale>
<asrwt>0</asrwt>
<pdfrwt beam="1">  1        1 0.30555083E+00 0.47692791E+03</pdfrwt>
<pdfrwt beam="2">  1       -1 0.17823599E-01 0.47692791E+03</pdfrwt>
<totfact> 0.80641282E+01</totfact>
</mgrwt>
</event>
<event>
 4    1  0.2338029E-002  0.5491614E+03  0.7818608E-02  0.1001688E+00
         -1   -1    0    0    0  501 -0.00000000000E+00  0.00000000000E+00  0.23031650102E+03  0.23031650102E+03  0.00000000000E+00 0.  1.
          1   -1    0    0  502    0  0.00000000000E+00 -0.00000000000E+00 -0.13125989311E+04  0.13125989311E+04  0.00000000000E+00 0. -1.
    9000007    1    1    2  502    0 -0.25532803507E+03  0.27637980758E+03 -0.57917978251E+03  0.79813997770E+03  0.40000000000E+03 0. -1.
   -9000007    1    1    2    0  501  0.25532803507E+03 -0.27637980758E+03 -0.50310264755E+03  0.74477545442E+03  0.40000000000E+03 0.  1.
<mgrwt>
<rscale>  2 0.54916136E+03</rscale>
<asrwt>0</asrwt>
<pdfrwt beam="1">  1        1 0.20193829E+00 0.54916136E+03</pdfrwt>
<pdfrwt beam="2">  1       -1 0.35433308E-01 0.54916136E+03</pdfrwt>
<totfact> 0.70438095E+01</totfact>
</mgrwt>
</event>
<event>
 4    1  0.2338029E-002  0.4689233E+03  0.7818608E-02  0.1022225E+00
          1   -1    0    0  502    0  0.00000000000E+00  0.00000000000E+00  0.44173025621E+03  0.44173025621E+03  0.00000000000E+00 0.  1.
         -1   -1    0    0    0  501 -0.00000000000E+00 -0.00000000000E+00 -0.51040351721E+03  0.51040351721E+03  0.00000000000E+00 0. -1.
    9000007    1    1    2  502    0 -0.14577607388E+03 -0.19656655497E+03  0.40501446877E+02  0.47066914223E+03  0.40000000000E+03 0. -1.
   -9000007    1    1    2    0  501  0.14577607388E+03  0.19656655497E+03 -0.10917470789E+03  0.48146463119E+03  0.40000000000E+03 0. -1.
<mgrwt>
<rscale>  2 0.46892331E+03</rscale>
<asrwt>0</asrwt>
<pdfrwt beam="1">  1        1 0.67958501E-01 0.46892331E+03</pdfrwt>
<pdfrwt beam="2">  1       -1 0.78523618E-01 0.46892331E+03</pdfrwt>
<totfact> 0.88883420E+01</totfact>
</mgrwt>
</event>
<event>
 4    1  0.2338029E-002  0.5480559E+03  0.7818608E-02  0.1001945E+00
          2   -1    0    0  502    0  0.00000000000E+00  0.00000000000E+00  0.40265223705E+04  0.40265223705E+04  0.00000000000E+00 0. -1.
         -2   -1    0    0    0  501 -0.00000000000E+00 -0.00000000000E+00 -0.91562725252E+02  0.91562725252E+02  0.00000000000E+00 0.  1.
    9000007    1    1    2  502    0 -0.12897895726E+03 -0.35175232986E+03  0.10811486033E+04  0.12121252309E+04  0.40000000000E+03 0.  1.
   -9000007    1    1    2    0  501  0.12897895726E+03  0.35175232986E+03  0.28538110419E+04  0.29059598648E+04  0.40000000000E+03 0. -1.
<mgrwt>
<rscale>  2 0.54805590E+03</rscale>
<asrwt>0</asrwt>
<pdfrwt beam="1">  1        2 0.61946484E+00 0.54805590E+03</pdfrwt>
<pdfrwt beam="2">  1       -2 0.14086576E-01 0.54805590E+03</pdfrwt>
<totfact> 0.14644208E+01</totfact>
</mgrwt>
</event>
<event>
 4    1  0.2338029E-002  0.4443679E+03  0.7818608E-02  0.1029415E+00
          2   -1    0    0  502    0  0.00000000000E+00  0.00000000000E+00  0.20366796156E+04  0.20366796156E+04  0.00000000000E+00 0. -1.
         -2   -1    0    0    0  501 -0.00000000000E+00 -0.00000000000E+00 -0.99971887086E+02  0.99971887086E+02  0.00000000000E+00 0.  1.
    9000007    1    1    2  502    0  0.43936866701E+02  0.18850035430E+03  0.11539914141E+04  0.12365916932E+04  0.40000000000E+03 0.  1.
   -9000007    1    1    2    0  501 -0.43936866701E+02 -0.18850035430E+03  0.78271631436E+03  0.90005980946E+03  0.40000000000E+03 0. -1.
<mgrwt>
<rscale>  2 0.44436790E+03</rscale>
<asrwt>0</asrwt>
<pdfrwt beam="1">  1        2 0.31333529E+00 0.44436790E+03</pdfrwt>
<pdfrwt beam="2">  1       -2 0.15380292E-01 0.44436790E+03</pdfrwt>
<totfact> 0.22700070E+02</totfact>
</mgrwt>
</event>
<event>
 4    1  0.2338029E-002  0.7193625E+03  0.7818608E-02  0.9684681E-01
         -2   -1    0    0    0  501 -0.00000000000E+00  0.00000000000E+00  0.22358888262E+03  0.22358888262E+03  0.00000000000E+00 0. -1.
          2   -1    0    0  502    0  0.00000000000E+00 -0.00000000000E+00 -0.24532393065E+04  0.24532393065E+04  0.00000000000E+00 0.  1.
    9000007    1    1    2  502    0 -0.44278522709E+03 -0.40177565559E+03 -0.14331852306E+04  0.16035904527E+04  0.40000000000E+03 0. -1.
   -9000007    1    1    2    0  501  0.44278522709E+03  0.40177565559E+03 -0.79646519323E+03  0.10732377364E+04  0.40000000000E+03 0.  1.
<mgrwt>
<rscale>  2 0.71936252E+03</rscale>
<asrwt>0</asrwt>
<pdfrwt beam="1">  1        2 0.37742142E+00 0.71936252E+03</pdfrwt>
<pdfrwt beam="2">  1       -2 0.34398291E-01 0.71936252E+03</pdfrwt>
<totfact> 0.30712105E+01</totfact>
</mgrwt>
</event>
<event>
 4    1  0.2338029E-002  0.4527849E+03  0.7818608E-02  0.1026895E+00
          1   -1    0    0  502    0  0.00000000000E+00  0.00000000000E+00  0.13319172834E+04  0.13319172834E+04  0.00000000000E+00 0.  1.
         -1   -1    0    0    0  501 -0.00000000000E+00 -0.00000000000E+00 -0.21775340421E+03  0.21775340421E+03  0.00000000000E+00 0. -1.
    9000007    1    1    2  502    0 -0.42213494431E+02 -0.20792356775E+03  0.13757712446E+03  0.47322473975E+03  0.40000000000E+03 0. -1.
   -9000007    1    1    2    0  501  0.42213494431E+02  0.20792356775E+03  0.97658675470E+03  0.10764459478E+04  0.40000000000E+03 0.  1.
<mgrwt>
<rscale>  2 0.45278493E+03</rscale>
<asrwt>0</asrwt>
<pdfrwt beam="1">  1        1 0.20491035E+00 0.45278493E+03</pdfrwt>
<pdfrwt beam="2">  1       -1 0.33500525E-01 0.45278493E+03</pdfrwt>
<totfact> 0.76456757E+01</totfact>
</mgrwt>
</event>
<event>
 4    1  0.2338029E-002  0.5572042E+03  0.7818608E-02  0.9998401E-01
          2   -1    0    0  502    0  0.00000000000E+00  0.00000000000E+00  0.55034025048E+03  0.55034025048E+03  0.00000000000E+00 0.  1.
         -2   -1    0    0    0  501 -0.00000000000E+00 -0.00000000000E+00 -0.98749821036E+03  0.98749821036E+03  0.00000000000E+00 0. -1.
    9000007    1    1    2  502    0  0.56798048493E+01 -0.38787141480E+03 -0.72203266566E+03  0.91203490332E+03  0.40000000000E+03 0. -1.
   -9000007    1    1    2    0  501 -0.56798048493E+01  0.38787141480E+03  0.28487470578E+03  0.62580355751E+03  0.40000000000E+03 0.  1.
<mgrwt>
<rscale>  2 0.55720418E+03</rscale>
<asrwt>0</asrwt>
<pdfrwt beam="1">  1        2 0.84667732E-01 0.55720418E+03</pdfrwt>
<pdfrwt beam="2">  1       -2 0.15192280E+00 0.55720418E+03</pdfrwt>
<totfact> 0.16500136E+01</totfact>
</mgrwt>
</event>
<event>
 4    1  0.2338029E-002  0.4050621E+03  0.7818608E-02  0.1042041E+00
         -2   -1    0    0    0  501 -0.00000000000E+00  0.00000000000E+00  0.21154238950E+03  0.21154238950E+03  0.00000000000E+00 0. -1.
          2   -1    0    0  502    0  0.00000000000E+00 -0.00000000000E+00 -0.89200563337E+03  0.89200563337E+03  0.00000000000E+00 0.  1.
    9000007    1    1    2  502    0 -0.24205425663E+02  0.59071214672E+02 -0.14091767567E+03  0.42887422673E+03  0.40000000000E+03 0. -1.
   -9000007    1    1    2    0  501  0.24205425663E+02 -0.59071214672E+02 -0.53954556820E+03  0.67467379614E+03  0.40000000000E+03 0.  1.
<mgrwt>
<rscale>  2 0.40506211E+03</rscale>
<asrwt>0</asrwt>
<pdfrwt beam="1">  1        2 0.13723164E+00 0.40506211E+03</pdfrwt>
<pdfrwt beam="2">  1       -2 0.32544983E-01 0.40506211E+03</pdfrwt>
<totfact> 0.26923564E+02</totfact>
</mgrwt>
</event>
<event>
 4    1  0.2338029E-002  0.4779690E+03  0.7818608E-02  0.1019695E+00
         -2   -1    0    0    0  501 -0.00000000000E+00  0.00000000000E+00  0.47973231579E+03  0.47973231579E+03  0.00000000000E+00 0. -1.
          2   -1    0    0  502    0  0.00000000000E+00 -0.00000000000E+00 -0.51469621681E+03  0.51469621681E+03  0.00000000000E+00 0.  1.
    9000007    1    1    2  502    0  0.25617543258E+03  0.53184025575E+02 -0.15344101191E+03  0.50199455871E+03  0.40000000000E+03 0.  1.
   -9000007    1    1    2    0  501 -0.25617543258E+03 -0.53184025575E+02  0.11847711089E+03  0.49243397389E+03  0.40000000000E+03 0. -1.
<mgrwt>
<rscale>  2 0.47796903E+03</rscale>
<asrwt>0</asrwt>
<pdfrwt beam="1">  1        2 0.79184033E-01 0.47796903E+03</pdfrwt>
<pdfrwt beam="2">  1       -2 0.73804972E-01 0.47796903E+03</pdfrwt>
<totfact> 0.10139609E+02</totfact>
</mgrwt>
</event>
<event>
 4    1  0.2338029E-002  0.4380298E+03  0.7818608E-02  0.1031353E+00
         -2   -1    0    0    0  501 -0.00000000000E+00  0.00000000000E+00  0.11309925760E+04  0.11309925760E+04  0.00000000000E+00 0.  1.
          2   -1    0    0  502    0  0.00000000000E+00 -0.00000000000E+00 -0.16967514249E+03  0.16967514249E+03  0.00000000000E+00 0. -1.
    9000007    1    1    2  502    0 -0.16966353796E+03  0.55537362245E+02  0.47236485965E+03  0.64420390821E+03  0.40000000000E+03 0. -1.
   -9000007    1    1    2    0  501  0.16966353796E+03 -0.55537362245E+02  0.48895257382E+03  0.65646381025E+03  0.40000000000E+03 0. -1.
<mgrwt>
<rscale>  2 0.43802981E+03</rscale>
<asrwt>0</asrwt>
<pdfrwt beam="1">  1        2 0.26103869E-01 0.43802981E+03</pdfrwt>
<pdfrwt beam="2">  1       -2 0.17399885E+00 0.43802981E+03</pdfrwt>
<totfact> 0.43174731E+01</totfact>
</mgrwt>
</event>
<event>
 4    1  0.2338029E-002  0.4072277E+03  0.7818608E-02  0.1041305E+00
          2   -1    0    0  502    0  0.00000000000E+00  0.00000000000E+00  0.50029989346E+03  0.50029989346E+03  0.00000000000E+00 0. -1.
         -2   -1    0    0    0  501 -0.00000000000E+00 -0.00000000000E+00 -0.34784763886E+03  0.34784763886E+03  0.00000000000E+00 0.  1.
    9000007    1    1    2  502    0  0.28509875472E+02  0.70863163581E+02  0.16824409727E+03  0.44061375060E+03  0.40000000000E+03 0. -1.
   -9000007    1    1    2    0  501 -0.28509875472E+02 -0.70863163581E+02 -0.15791842676E+02  0.40753378173E+03  0.40000000000E+03 0.  1.
<mgrwt>
<rscale>  2 0.40722770E+03</rscale>
<asrwt>0</asrwt>
<pdfrwt beam="1">  1        2 0.76969214E-01 0.40722770E+03</pdfrwt>
<pdfrwt beam="2">  1       -2 0.53515021E-01 0.40722770E+03</pdfrwt>
<totfact> 0.20796379E+02</totfact>
</mgrwt>
</event>
<event>
 4    1  0.2338029E-002  0.6331235E+03  0.7818608E-02  0.9838972E-01
         -2   -1    0    0    0  501 -0.00000000000E+00  0.00000000000E+00  0.29155058509E+03  0.29155058509E+03  0.00000000000E+00 0. -1.
          2   -1    0    0  502    0  0.00000000000E+00 -0.00000000000E+00 -0.14607668630E+04  0.14607668630E+04  0.00000000000E+00 0.  1.
    9000007    1    1    2  502    0 -0.44742537820E+03  0.20163298763E+03 -0.79706500651E+03  0.10179184424E+04  0.40000000000E+03 0.  1.
   -9000007    1    1    2    0  501  0.44742537820E+03 -0.20163298763E+03 -0.37215127137E+03  0.73439900568E+03  0.40000000000E+03 0.  1.
<mgrwt>
<rscale>  2 0.63312347E+03</rscale>
<asrwt>0</asrwt>
<pdfrwt beam="1">  1        2 0.22473336E+00 0.63312347E+03</pdfrwt>
<pdfrwt beam="2">  1       -2 0.44853937E-01 0.63312347E+03</pdfrwt>
<totfact> 0.65051904E+01</totfact>
</mgrwt>
</event>
<event>
 4    1  0.2338029E-002  0.5428203E+03  0.7818608E-02  0.1003170E+00
          1   -1    0    0  502    0  0.00000000000E+00  0.00000000000E+00  0.64832897211E+03  0.64832897211E+03  0.00000000000E+00 0.  1.
         -1   -1    0    0    0  501 -0.00000000000E+00 -0.00000000000E+00 -0.46633523141E+03  0.46633523141E+03  0.00000000000E+00 0. -1.
    9000007    1    1    2  502    0 -0.36562522062E+03  0.31177582681E+02  0.21415478103E+01  0.54282449267E+03  0.40000000000E+03 0. -1.
   -9000007    1    1    2    0  501  0.36562522062E+03 -0.31177582681E+02  0.17985219289E+03  0.57183971085E+03  0.40000000000E+03 0.  1.
<mgrwt>
<rscale>  2 0.54282027E+03</rscale>
<asrwt>0</asrwt>
<pdfrwt beam="1">  1        1 0.99742919E-01 0.54282027E+03</pdfrwt>
<pdfrwt beam="2">  1       -1 0.71743882E-01 0.54282027E+03</pdfrwt>
<totfact> 0.62465128E+01</totfact>
</mgrwt>
</event>
<event>
 4    1  0.2338029E-002  0.4433359E+03  0.7818608E-02  0.1029728E+00
         -3   -1    0    0    0  501 -0.00000000000E+00  0.00000000000E+00  0.32305867148E+03  0.32305867148E+03  0.00000000000E+00 0.  1.
          3   -1    0    0  502    0  0.00000000000E+00 -0.00000000000E+00 -0.72338878107E+03  0.72338878107E+03  0.00000000000E+00 0. -1.
    9000007    1    1    2  502    0 -0.40667348919E+01 -0.19112880355E+03  0.84481410745E+01  0.44341642839E+03  0.40000000000E+03 0.  1.
   -9000007    1    1    2    0  501  0.40667348919E+01  0.19112880355E+03 -0.40877825066E+03  0.60303102416E+03  0.40000000000E+03 0. -1.
<mgrwt>
<rscale>  2 0.44333594E+03</rscale>
<asrwt>0</asrwt>
<pdfrwt beam="1">  1        3 0.11129058E+00 0.44333594E+03</pdfrwt>
<pdfrwt beam="2">  1       -3 0.49701335E-01 0.44333594E+03</pdfrwt>
<totfact> 0.71210789E+00</totfact>
</mgrwt>
</event>
<event>
 4    1  0.2338029E-002  0.4173001E+03  0.7818608E-02  0.1037949E+00
          2   -1    0    0  502    0  0.00000000000E+00  0.00000000000E+00  0.37610089327E+03  0.37610089327E+03  0.00000000000E+00 0.  1.
         -2   -1    0    0    0  501 -0.00000000000E+00 -0.00000000000E+00 -0.47840841783E+03  0.47840841783E+03  0.00000000000E+00 0. -1.
    9000007    1    1    2  502    0 -0.70230055034E+02 -0.95953642966E+02  0.25492708565E+02  0.41807803149E+03  0.40000000000E+03 0.  1.
   -9000007    1    1    2    0  501  0.70230055034E+02  0.95953642966E+02 -0.12780023313E+03  0.43643127960E+03  0.40000000000E+03 0. -1.
<mgrwt>
<rscale>  2 0.41730009E+03</rscale>
<asrwt>0</asrwt>
<pdfrwt beam="1">  1        2 0.57861676E-01 0.41730009E+03</pdfrwt>
<pdfrwt beam="2">  1       -2 0.73601294E-01 0.41730009E+03</pdfrwt>
<totfact> 0.14579422E+02</totfact>
</mgrwt>
</event>
<event>
 4    1  0.2338029E-002  0.4562854E+03  0.7818608E-02  0.1025864E+00
          2   -1    0    0  502    0  0.00000000000E+00  0.00000000000E+00  0.59690832771E+03  0.59690832771E+03  0.00000000000E+00 0.  1.
         -2   -1    0    0    0  501 -0.00000000000E+00 -0.00000000000E+00 -0.43343891995E+03  0.43343891995E+03  0.00000000000E+00 0. -1.
    9000007    1    1    2  502    0 -0.69435797546E+02 -0.20826674027E+03  0.30940025897E+03  0.55129382849E+03  0.40000000000E+03 0.  1.
   -9000007    1    1    2    0  501  0.69435797546E+02  0.20826674027E+03 -0.14593085121E+03  0.47905341917E+03  0.40000000000E+03 0. -1.
<mgrwt>
<rscale>  2 0.45628540E+03</rscale>
<asrwt>0</asrwt>
<pdfrwt beam="1">  1        2 0.91832051E-01 0.45628540E+03</pdfrwt>
<pdfrwt beam="2">  1       -2 0.66682911E-01 0.45628540E+03</pdfrwt>
<totfact> 0.10646486E+02</totfact>
</mgrwt>
</event>
<event>
 4    1  0.2338029E-002  0.4201784E+03  0.7818608E-02  0.1037008E+00
         -1   -1    0    0    0  501 -0.00000000000E+00  0.00000000000E+00  0.13144480008E+03  0.13144480008E+03  0.00000000000E+00 0.  1.
          1   -1    0    0  502    0  0.00000000000E+00 -0.00000000000E+00 -0.14508614587E+04  0.14508614587E+04  0.00000000000E+00 0. -1.
    9000007    1    1    2  502    0 -0.10713979064E+03 -0.71210376921E+02 -0.44414143225E+03  0.61140123026E+03  0.40000000000E+03 0.  1.
   -9000007    1    1    2    0  501  0.10713979064E+03  0.71210376921E+02 -0.87527522638E+03  0.97090502854E+03  0.40000000000E+03 0. -1.
<mgrwt>
<rscale>  2 0.42017836E+03</rscale>
<asrwt>0</asrwt>
<pdfrwt beam="1">  1        1 0.22320946E+00 0.42017836E+03</pdfrwt>
<pdfrwt beam="2">  1       -1 0.20222276E-01 0.42017836E+03</pdfrwt>
<totfact> 0.15003533E+02</totfact>
</mgrwt>
</event>
<event>
 4    1  0.2338029E-002  0.4419347E+03  0.7818608E-02  0.1030155E+00
         -2   -1    0    0    0  501 -0.00000000000E+00  0.00000000000E+00  0.15343781657E+03  0.15343781657E+03  0.00000000000E+00 0.  1.
          2   -1    0    0  502    0  0.00000000000E+00 -0.00000000000E+00 -0.21702907374E+04  0.21702907374E+04  0.00000000000E+00 0. -1.
    9000007    1    1    2  502    0 -0.16986359899E+03  0.80328060439E+02 -0.17555539807E+04  0.18103248379E+04  0.40000000000E+03 0. -1.
   -9000007    1    1    2    0  501  0.16986359899E+03 -0.80328060439E+02 -0.26129894012E+03  0.51340371606E+03  0.40000000000E+03 0.  1.
<mgrwt>
<rscale>  2 0.44193466E+03</rscale>
<asrwt>0</asrwt>
<pdfrwt beam="1">  1        2 0.33389087E+00 0.44193466E+03</pdfrwt>
<pdfrwt beam="2">  1       -2 0.23605819E-01 0.44193466E+03</pdfrwt>
<totfact> 0.91930017E+01</totfact>
</mgrwt>
</event>
<event>
 4    1  0.2338029E-002  0.4506938E+03  0.7818608E-02  0.1027515E+00
          1   -1    0    0  502    0  0.00000000000E+00  0.00000000000E+00  0.11153794129E+04  0.11153794129E+04  0.00000000000E+00 0.  1.
         -1   -1    0    0    0  501 -0.00000000000E+00 -0.00000000000E+00 -0.18211830592E+03  0.18211830592E+03  0.00000000000E+00 0. -1.
    9000007    1    1    2  502    0 -0.15441889311E+03  0.13885146815E+03  0.46307999576E+03  0.64619502260E+03  0.40000000000E+03 0. -1.
   -9000007    1    1    2    0  501  0.15441889311E+03 -0.13885146815E+03  0.47018111121E+03  0.65130269621E+03  0.40000000000E+03 0.  1.
<mgrwt>
<rscale>  2 0.45069383E+03</rscale>
<asrwt>0</asrwt>
<pdfrwt beam="1">  1        1 0.17159683E+00 0.45069383E+03</pdfrwt>
<pdfrwt beam="2">  1       -1 0.28018202E-01 0.45069383E+03</pdfrwt>
<totfact> 0.14845921E+02</totfact>
</mgrwt>
</event>
<event>
 4    1  0.2338029E-002  0.4865137E+03  0.7818608E-02  0.1017360E+00
         -2   -1    0    0    0  501 -0.00000000000E+00  0.00000000000E+00  0.10452305396E+03  0.10452305396E+03  0.00000000000E+00 0. -1.
          2   -1    0    0  502    0  0.00000000000E+00 -0.00000000000E+00 -0.27007490651E+04  0.27007490651E+04  0.00000000000E+00 0.  1.
    9000007    1    1    2  502    0 -0.16998757528E+03 -0.21863177368E+03 -0.73440392804E+03  0.88093402576E+03  0.40000000000E+03 0. -1.
   -9000007    1    1    2    0  501  0.16998757528E+03  0.21863177368E+03 -0.18618220831E+04  0.19243380933E+04  0.40000000000E+03 0.  1.
<mgrwt>
<rscale>  2 0.48651375E+03</rscale>
<asrwt>0</asrwt>
<pdfrwt beam="1">  1        2 0.41549979E+00 0.48651375E+03</pdfrwt>
<pdfrwt beam="2">  1       -2 0.16080472E-01 0.48651375E+03</pdfrwt>
<totfact> 0.89861281E+01</totfact>
</mgrwt>
</event>
<event>
 4    1  0.2338029E-002  0.4604879E+03  0.7818608E-02  0.1024640E+00
         -2   -1    0    0    0  501 -0.00000000000E+00  0.00000000000E+00  0.15462711079E+03  0.15462711079E+03  0.00000000000E+00 0. -1.
          2   -1    0    0  502    0  0.00000000000E+00 -0.00000000000E+00 -0.15670519618E+04  0.15670519618E+04  0.00000000000E+00 0.  1.
    9000007    1    1    2  502    0 -0.56407172603E+02  0.22105955121E+03 -0.40200525821E+03  0.61127516057E+03  0.40000000000E+03 0.  1.
   -9000007    1    1    2    0  501  0.56407172603E+02 -0.22105955121E+03 -0.10104195928E+04  0.11104039120E+04  0.40000000000E+03 0.  1.
<mgrwt>
<rscale>  2 0.46048789E+03</rscale>
<asrwt>0</asrwt>
<pdfrwt beam="1">  1        2 0.24108492E+00 0.46048789E+03</pdfrwt>
<pdfrwt beam="2">  1       -2 0.23788786E-01 0.46048789E+03</pdfrwt>
<totfact> 0.19077248E+02</totfact>
</mgrwt>
</event>
<event>
 4    1  0.2338029E-002  0.4055621E+03  0.7818608E-02  0.1041871E+00
          1   -1    0    0  502    0  0.00000000000E+00  0.00000000000E+00  0.15048221015E+04  0.15048221015E+04  0.00000000000E+00 0.  1.
         -1   -1    0    0    0  501 -0.00000000000E+00 -0.00000000000E+00 -0.12978434041E+03  0.12978434041E+03  0.00000000000E+00 0. -1.
    9000007    1    1    2  502    0  0.17123492660E+02 -0.64710234594E+02  0.10122006363E+04  0.10904268690E+04  0.40000000000E+03 0.  1.
   -9000007    1    1    2    0  501 -0.17123492660E+02  0.64710234594E+02  0.36283712475E+03  0.54417957289E+03  0.40000000000E+03 0. -1.
<mgrwt>
<rscale>  2 0.40556211E+03</rscale>
<asrwt>0</asrwt>
<pdfrwt beam="1">  1        1 0.23151108E+00 0.40556211E+03</pdfrwt>
<pdfrwt beam="2">  1       -1 0.19966823E-01 0.40556211E+03</pdfrwt>
<totfact> 0.14119652E+02</totfact>
</mgrwt>
</event>
<event>
 4    1  0.2338029E-002  0.5459880E+03  0.7818608E-02  0.1002427E+00
          1   -1    0    0  502    0  0.00000000000E+00  0.00000000000E+00  0.31507402408E+04  0.31507402408E+04  0.00000000000E+00 0.  1.
         -1   -1    0    0    0  501 -0.00000000000E+00 -0.00000000000E+00 -0.14021603595E+03  0.14021603595E+03  0.00000000000E+00 0. -1.
    9000007    1    1    2  502    0  0.10526622148E+03  0.35640127481E+03  0.56686352286E+03  0.78704326414E+03  0.40000000000E+03 0. -1.
   -9000007    1    1    2    0  501 -0.10526622148E+03 -0.35640127481E+03  0.24436606820E+04  0.25039130127E+04  0.40000000000E+03 0.  1.
<mgrwt>
<rscale>  2 0.54598795E+03</rscale>
<asrwt>0</asrwt>
<pdfrwt beam="1">  1        1 0.48472921E+00 0.54598795E+03</pdfrwt>
<pdfrwt beam="2">  1       -1 0.21571700E-01 0.54598795E+03</pdfrwt>
<totfact> 0.92558276E+00</totfact>
</mgrwt>
</event>
<event>
 4    1  0.2338029E-002  0.6371038E+03  0.7818608E-02  0.9831283E-01
         -2   -1    0    0    0  501 -0.00000000000E+00  0.00000000000E+00  0.31156659534E+03  0.31156659534E+03  0.00000000000E+00 0. -1.
          2   -1    0    0  502    0  0.00000000000E+00 -0.00000000000E+00 -0.13112646260E+04  0.13112646260E+04  0.00000000000E+00 0.  1.
    9000007    1    1    2  502    0  0.21683083872E+03  0.44596594933E+03 -0.56513752781E+03  0.85163470216E+03  0.40000000000E+03 0. -1.
   -9000007    1    1    2    0  501 -0.21683083872E+03 -0.44596594933E+03 -0.43456050290E+03  0.77119651922E+03  0.40000000000E+03 0.  1.
<mgrwt>
<rscale>  2 0.63710379E+03</rscale>
<asrwt>0</asrwt>
<pdfrwt beam="1">  1        2 0.20173302E+00 0.63710379E+03</pdfrwt>
<pdfrwt beam="2">  1       -2 0.47933323E-01 0.63710379E+03</pdfrwt>
<totfact> 0.69128717E+01</totfact>
</mgrwt>
</event>
<event>
 4    1  0.2338029E-002  0.4825254E+03  0.7818608E-02  0.1018443E+00
          2   -1    0    0  502    0  0.00000000000E+00  0.00000000000E+00  0.49971503722E+03  0.49971503722E+03  0.00000000000E+00 0.  1.
         -2   -1    0    0    0  501 -0.00000000000E+00 -0.00000000000E+00 -0.66898892352E+03  0.66898892352E+03  0.00000000000E+00 0. -1.
    9000007    1    1    2  502    0 -0.60104412312E+01 -0.26980480028E+03 -0.40658013511E+03  0.63098190301E+03  0.40000000000E+03 0. -1.
   -9000007    1    1    2    0  501  0.60104412312E+01  0.26980480028E+03  0.23730624881E+03  0.53772205774E+03  0.40000000000E+03 0.  1.
<mgrwt>
<rscale>  2 0.48252539E+03</rscale>
<asrwt>0</asrwt>
<pdfrwt beam="1">  1        2 0.76879237E-01 0.48252539E+03</pdfrwt>
<pdfrwt beam="2">  1       -2 0.10292137E+00 0.48252539E+03</pdfrwt>
<totfact> 0.49156515E+01</totfact>
</mgrwt>
</event>
<event>
 4    1  0.2338029E-002  0.8458185E+03  0.7818608E-02  0.9495966E-01
          2   -1    0    0  502    0  0.00000000000E+00  0.00000000000E+00  0.15187822895E+04  0.15187822895E+04  0.00000000000E+00 0. -1.
         -2   -1    0    0    0  501 -0.00000000000E+00 -0.00000000000E+00 -0.50608840217E+03  0.50608840217E+03  0.00000000000E+00 0.  1.
    9000007    1    1    2  502    0 -0.31792502062E+03 -0.67404198971E+03  0.77277578141E+03  0.11456837831E+04  0.40000000000E+03 0.  1.
   -9000007    1    1    2    0  501  0.31792502062E+03  0.67404198971E+03  0.23991810595E+03  0.87918690856E+03  0.40000000000E+03 0. -1.
<mgrwt>
<rscale>  2 0.84581849E+03</rscale>
<asrwt>0</asrwt>
<pdfrwt beam="1">  1        2 0.23365881E+00 0.84581849E+03</pdfrwt>
<pdfrwt beam="2">  1       -2 0.77859754E-01 0.84581849E+03</pdfrwt>
<totfact> 0.18434378E+01</totfact>
</mgrwt>
</event>
<event>
 4    1  0.2338029E-002  0.4203522E+03  0.7818608E-02  0.1036952E+00
         -2   -1    0    0    0  501 -0.00000000000E+00  0.00000000000E+00  0.19921420371E+03  0.19921420371E+03  0.00000000000E+00 0.  1.
          2   -1    0    0  502    0  0.00000000000E+00 -0.00000000000E+00 -0.11375630769E+04  0.11375630769E+04  0.00000000000E+00 0. -1.
    9000007    1    1    2  502    0  0.11420347296E+03  0.60444549848E+02 -0.78288590688E+03  0.88859795185E+03  0.40000000000E+03 0. -1.
   -9000007    1    1    2    0  501 -0.11420347296E+03 -0.60444549848E+02 -0.15546296633E+03  0.44817932877E+03  0.40000000000E+03 0.  1.
<mgrwt>
<rscale>  2 0.42035221E+03</rscale>
<asrwt>0</asrwt>
<pdfrwt beam="1">  1        2 0.17500971E+00 0.42035221E+03</pdfrwt>
<pdfrwt beam="2">  1       -2 0.30648338E-01 0.42035221E+03</pdfrwt>
<totfact> 0.21131290E+02</totfact>
</mgrwt>
</event>
