<event>
11    0  0.3448258E-009  0.9118800E+02  0.7816531E-02  0.1126479E+00
         25   -1    0    0    0    0  0.00000000000E+00  0.00000000000E+00  0.99999998245E-14  0.12500000000E+03  0.12500000000E+03 0.  0.
    3000001    1    3    3    0    0  0.30248695605E+02  0.11959793851E+02 -0.15865795188E+02  0.36204194670E+02  0.10000000000E+01 0.  1.
    1000022    2    1    0    0    0  0.47439226525E+02  0.19544622916E+02 -0.34260437106E+02  0.62499999671E+02  0.99999954979E+01 0.  0.
    3000022    2    3    3    0    0  0.17190530920E+02  0.75848290649E+01 -0.18394641919E+02  0.26295805001E+02  0.25004817939E+00 0.  0.
    1000022    2    1    0    0    0 -0.47439226525E+02 -0.19544622916E+02  0.34260437106E+02  0.62500000329E+02  0.99999996092E+01 0.  0.
    3000022    2    5    5    0    0 -0.19503468418E+02 -0.11306932437E+02  0.10365798467E+02  0.24814195559E+02  0.25004384540E+00 0.  0.
        -13    1    4    4    0    0  0.13079887586E+02  0.57905275771E+01 -0.13996193343E+02  0.20012948857E+02  0.10500000000E+00 0. -1.
         13    1    4    4    0    0  0.41106433343E+01  0.17943014878E+01 -0.43984485760E+01  0.62828561440E+01  0.10500000000E+00 0.  1.
    3000001    1    5    5    0    0 -0.27935758107E+02 -0.82376904797E+01  0.23894638640E+02  0.37685804770E+02  0.10000000000E+01 0.  1.
        -13    1    6    6    0    0 -0.11821140608E+02 -0.67851320251E+01  0.62434374959E+01  0.14992295309E+02  0.10500000000E+00 0.  1.
         13    1    6    6    0    0 -0.76823278095E+01 -0.45218004116E+01  0.41223609707E+01  0.98219002493E+01  0.10500000000E+00 0. -1.
</event>
<event>
11    0  0.3448258E-009  0.9118800E+02  0.7816531E-02  0.1126479E+00
         25   -1    0    0    0    0  0.00000000000E+00  0.00000000000E+00  0.99999998245E-14  0.12500000000E+03  0.12500000000E+03 0.  0.
    3000001    1    3    3    0    0 -0.42988425428E+01 -0.68036547274E+01  0.75539765031E+01  0.11082974595E+02  0.10000000000E+01 0.  1.
    1000022    2    1    0    0    0 -0.20047661322E+02 -0.21505592664E+02  0.54238831183E+02  0.62499999264E+02  0.99999929738E+01 0.  0.
    3000022    2    3    3    0    0 -0.15748818780E+02 -0.14701937937E+02  0.46684854680E+02  0.51417024669E+02  0.24999446922E+00 0.  0.
    1000022    2    1    0    0    0  0.20047661322E+02  0.21505592664E+02 -0.54238831183E+02  0.62500000736E+02  0.10000002178E+02 0.  0.
    3000022    2    5    5    0    0  0.16932706175E+02  0.11589676422E+02 -0.38173518486E+02  0.43339556781E+02  0.25006081213E+00 0.  0.
        -13    1    4    4    0    0 -0.66780431879E+01 -0.63234350992E+01  0.19932934237E+02  0.21952562141E+02  0.10500000000E+00 0. -1.
         13    1    4    4    0    0 -0.90707755917E+01 -0.83785028376E+01  0.26751920444E+02  0.29464462528E+02  0.10500000000E+00 0.  1.
    3000001    1    5    5    0    0  0.31149551469E+01  0.99159162420E+01 -0.16065312698E+02  0.19160443955E+02  0.10000000000E+01 0. -1.
        -13    1    6    6    0    0  0.10027869597E+02  0.68063892530E+01 -0.22637582692E+02  0.25677933687E+02  0.10500000000E+00 0. -1.
         13    1    6    6    0    0  0.69048365789E+01  0.47832871692E+01 -0.15535935794E+02  0.17661623094E+02  0.10500000000E+00 0.  1.
</event>
<event>
11    0  0.3448258E-009  0.9118800E+02  0.7816531E-02  0.1126479E+00
         25   -1    0    0    0    0  0.00000000000E+00  0.00000000000E+00  0.99999998245E-14  0.12500000000E+03  0.12500000000E+03 0.  0.
    3000001    1    3    3    0    0 -0.45175348345E+02  0.17378299915E+02  0.83272466165E+01  0.49123929426E+02  0.10000000000E+01 0.  1.
    1000022    2    1    0    0    0 -0.58438555113E+02  0.18490434452E+02  0.70206257029E+01  0.62499999738E+02  0.99999946016E+01 0.  0.
    3000022    2    3    3    0    0 -0.13263206768E+02  0.11121345376E+01 -0.13066209136E+01  0.13376070312E+02  0.25000356007E+00 0.  0.
    1000022    2    1    0    0    0  0.58438555113E+02 -0.18490434452E+02 -0.70206257029E+01  0.62500000262E+02  0.99999978784E+01 0.  0.
    3000022    2    5    5    0    0  0.14801626192E+02 -0.26761074879E+01 -0.56036568678E+01  0.16053447067E+02  0.25000647229E+00 0.  0.
        -13    1    4    4    0    0 -0.58440367418E+01  0.53099828654E+00 -0.62844562248E+00  0.59026005726E+01  0.10500000000E+00 0.  1.
         13    1    4    4    0    0 -0.74191700259E+01  0.58113625108E+00 -0.67817529113E+00  0.74734697390E+01  0.10500000000E+00 0. -1.
    3000001    1    5    5    0    0  0.43636928921E+02 -0.15814326964E+02 -0.14169688351E+01  0.46446553195E+02  0.10000000000E+01 0.  1.
        -13    1    6    6    0    0  0.10967643550E+02 -0.20025467552E+01 -0.41271206524E+01  0.11888799284E+02  0.10500000000E+00 0.  1.
         13    1    6    6    0    0  0.38339826422E+01 -0.67356073270E+00 -0.14765362154E+01  0.41646477830E+01  0.10500000000E+00 0. -1.
</event>
<event>
11    0  0.3448258E-009  0.9118800E+02  0.7816531E-02  0.1126479E+00
         25   -1    0    0    0    0  0.00000000000E+00  0.00000000000E+00  0.99999998245E-14  0.12500000000E+03  0.12500000000E+03 0.  0.
    3000001    1    3    3    0    0  0.27407955663E+02 -0.12954337574E+02 -0.40702718344E+02  0.50761424096E+02  0.10000000000E+01 0. -1.
    1000022    2    1    0    0    0  0.29767587478E+02 -0.14249237943E+02 -0.52125810124E+02  0.62499999649E+02  0.99999914402E+01 0.  0.
    3000022    2    3    3    0    0  0.23596318156E+01 -0.12949003689E+01 -0.11423091779E+02  0.11738575553E+02  0.25000189451E+00 0.  0.
    1000022    2    1    0    0    0 -0.29767587478E+02  0.14249237943E+02  0.52125810124E+02  0.62500000351E+02  0.99999958319E+01 0.  0.
    3000022    2    5    5    0    0 -0.60757403617E+01  0.70251446655E+01  0.18746385589E+02  0.20922637210E+02  0.24999335540E+00 0.  0.
        -13    1    4    4    0    0  0.14265173295E+01 -0.85181204532E+00 -0.69925155557E+01  0.71879645414E+01  0.10500000000E+00 0.  1.
         13    1    4    4    0    0  0.93311448610E+00 -0.44308832354E+00 -0.44305762236E+01  0.45506110117E+01  0.10500000000E+00 0. -1.
    3000001    1    5    5    0    0 -0.23691847117E+02  0.72240932770E+01  0.33379424535E+02  0.41577363141E+02  0.10000000000E+01 0. -1.
        -13    1    6    6    0    0 -0.42539501148E+01  0.48462954027E+01  0.13013803254E+02  0.14524213261E+02  0.10500000000E+00 0. -1.
         13    1    6    6    0    0 -0.18217902469E+01  0.21788492628E+01  0.57325823349E+01  0.63984239497E+01  0.10500000000E+00 0. -1.
</event>
<event>
11    0  0.3448258E-009  0.9118800E+02  0.7816531E-02  0.1126479E+00
         25   -1    0    0    0    0  0.00000000000E+00  0.00000000000E+00  0.99999998245E-14  0.12500000000E+03  0.12500000000E+03 0.  0.
    3000001    1    3    3    0    0 -0.18577374490E+01 -0.40228546308E+01  0.13139706432E+02  0.13902749114E+02  0.10000000000E+01 0. -1.
    1000022    2    1    0    0    0 -0.40126710287E+01 -0.52007198661E+00  0.61561984106E+02  0.62499999132E+02  0.10000000039E+02 0.  0.
    3000022    2    3    3    0    0 -0.21549335797E+01  0.35027826442E+01  0.48422277673E+02  0.48597250017E+02  0.25001838026E+00 0.  0.
    1000022    2    1    0    0    0  0.40126710287E+01  0.52007198661E+00 -0.61561984106E+02  0.62500000868E+02  0.10000010893E+02 0.  0.
    3000022    2    5    5    0    0  0.22260854606E+01 -0.46043558143E+01 -0.24489820991E+02  0.25019380192E+02  0.25000815555E+00 0.  0.
        -13    1    4    4    0    0 -0.96034955196E+00  0.15100735146E+01  0.21790497778E+02  0.21864112415E+02  0.10500000000E+00 0. -1.
         13    1    4    4    0    0 -0.11945840277E+01  0.19927091297E+01  0.26631779896E+02  0.26733137603E+02  0.10500000000E+00 0.  1.
    3000001    1    5    5    0    0  0.17865855681E+01  0.51244278009E+01 -0.37072163115E+02  0.37480620677E+02  0.10000000000E+01 0.  1.
        -13    1    6    6    0    0  0.10278347161E+01 -0.19825934347E+01 -0.10797659026E+02  0.11026676126E+02  0.10500000000E+00 0. -1.
         13    1    6    6    0    0  0.11982507445E+01 -0.26217623796E+01 -0.13692161964E+02  0.13992704066E+02  0.10500000000E+00 0.  1.
</event>
<event>
11    0  0.3448258E-009  0.9118800E+02  0.7816531E-02  0.1126479E+00
         25   -1    0    0    0    0  0.00000000000E+00  0.00000000000E+00  0.99999998245E-14  0.12500000000E+03  0.12500000000E+03 0.  0.
    3000001    1    3    3    0    0  0.53309062035E+01 -0.93537246343E+01  0.32892495322E+01  0.11301764817E+02  0.10000000000E+01 0.  1.
    1000022    2    1    0    0    0  0.44227275967E+02 -0.42429249786E+02  0.70680106113E+01  0.62500001637E+02  0.10000012685E+02 0.  0.
    3000022    2    3    3    0    0  0.38896369764E+02 -0.33075525152E+02  0.37787610791E+01  0.51198236820E+02  0.24994666312E+00 0.  0.
    1000022    2    1    0    0    0 -0.44227275967E+02  0.42429249786E+02 -0.70680106113E+01  0.62499998363E+02  0.99999922233E+01 0.  0.
    3000022    2    5    5    0    0 -0.27644568691E+02  0.30106988169E+02 -0.78153892961E+00  0.40881856949E+02  0.25001962296E+00 0.  0.
        -13    1    4    4    0    0  0.16291875922E+02 -0.13790939902E+02  0.16232296401E+01  0.21407034916E+02  0.10500000000E+00 0. -1.
         13    1    4    4    0    0  0.22604493842E+02 -0.19284585250E+02  0.21555314390E+01  0.29791201904E+02  0.10500000000E+00 0.  1.
    3000001    1    5    5    0    0 -0.16582707276E+02  0.12322261617E+02 -0.62864716817E+01  0.21618141414E+02  0.10000000000E+01 0. -1.
        -13    1    6    6    0    0 -0.20557807575E+02  0.22354410240E+02 -0.56161118972E+00  0.30375475989E+02  0.10500000000E+00 0.  1.
         13    1    6    6    0    0 -0.70867611161E+01  0.77525779296E+01 -0.21992773989E+00  0.10506380960E+02  0.10500000000E+00 0. -1.
</event>
<event>
11    0  0.3448258E-009  0.9118800E+02  0.7816531E-02  0.1126479E+00
         25   -1    0    0    0    0  0.00000000000E+00  0.00000000000E+00  0.99999998245E-14  0.12500000000E+03  0.12500000000E+03 0.  0.
    3000001    1    3    3    0    0 -0.10642107550E+01 -0.83108469726E+01  0.30754274145E+01  0.89811455681E+01  0.10000000000E+01 0. -1.
    1000022    2    1    0    0    0 -0.14969300928E+00 -0.46404601463E+02  0.40655141041E+02  0.62500000666E+02  0.10000007257E+02 0.  0.
    3000022    2    3    3    0    0  0.91451774574E+00 -0.38093754491E+02  0.37579713627E+02  0.53518855097E+02  0.25000152492E+00 0.  0.
    1000022    2    1    0    0    0  0.14969300928E+00  0.46404601463E+02 -0.40655141041E+02  0.62499999334E+02  0.99999989379E+01 0.  0.
    3000022    2    5    5    0    0  0.32939618455E+01  0.79717947724E+01 -0.50095822304E+01  0.99778809500E+01  0.24999519186E+00 0.  0.
        -13    1    4    4    0    0  0.43275215213E+00 -0.20607425397E+02  0.20291804755E+02  0.28924412201E+02  0.10500000000E+00 0.  1.
         13    1    4    4    0    0  0.48176559361E+00 -0.17486329094E+02  0.17287908871E+02  0.24594442897E+02  0.10500000000E+00 0. -1.
    3000001    1    5    5    0    0 -0.31442688362E+01  0.38432806691E+02 -0.35645558811E+02  0.52522118385E+02  0.10000000000E+01 0.  1.
        -13    1    6    6    0    0  0.19939655163E+01  0.46986837359E+01 -0.29159653706E+01  0.58794052737E+01  0.10500000000E+00 0.  1.
         13    1    6    6    0    0  0.12999963292E+01  0.32731110365E+01 -0.20936168598E+01  0.40984756763E+01  0.10500000000E+00 0. -1.
</event>
<event>
11    0  0.3448258E-009  0.9118800E+02  0.7816531E-02  0.1126479E+00
         25   -1    0    0    0    0  0.00000000000E+00  0.00000000000E+00  0.99999998245E-14  0.12500000000E+03  0.12500000000E+03 0.  0.
    3000001    1    3    3    0    0  0.34808529074E+01  0.37599423135E+01  0.63635923108E+01  0.82309665448E+01  0.10000000000E+01 0. -1.
    1000022    2    1    0    0    0  0.28428535986E+02  0.47590353988E+01  0.54547411045E+02  0.62499999770E+02  0.99999921619E+01 0.  0.
    3000022    2    3    3    0    0  0.24947683078E+02  0.99909308526E+00  0.48183818734E+02  0.54269033225E+02  0.25000269083E+00 0.  0.
    1000022    2    1    0    0    0 -0.28428535986E+02 -0.47590353988E+01 -0.54547411045E+02  0.62500000230E+02  0.99999950423E+01 0.  0.
    3000022    2    5    5    0    0 -0.11084644176E+02 -0.53513816131E+01 -0.29937809490E+02  0.32370381151E+02  0.25003427744E+00 0.  0.
        -13    1    4    4    0    0  0.86494782933E+01  0.37244652445E+00  0.16815991436E+02  0.18914036696E+02  0.10500000000E+00 0. -1.
         13    1    4    4    0    0  0.16298204785E+02  0.62664656081E+00  0.31367827298E+02  0.35354996529E+02  0.10500000000E+00 0.  1.
    3000001    1    5    5    0    0 -0.17343891810E+02  0.59234621433E+00 -0.24609601556E+02  0.30129619080E+02  0.10000000000E+01 0.  1.
        -13    1    6    6    0    0 -0.77667854186E+01 -0.37378333588E+01 -0.21079059926E+02  0.22773496577E+02  0.10500000000E+00 0. -1.
         13    1    6    6    0    0 -0.33178587570E+01 -0.16135482543E+01 -0.88587495633E+01  0.95968845739E+01  0.10500000000E+00 0.  1.
</event>
<event>
11    0  0.3448258E-009  0.9118800E+02  0.7816531E-02  0.1126479E+00
         25   -1    0    0    0    0  0.00000000000E+00  0.00000000000E+00  0.99999998245E-14  0.12500000000E+03  0.12500000000E+03 0.  0.
    3000001    1    3    3    0    0  0.47143101328E+01  0.57371999346E+00  0.15966317242E+02  0.16687634971E+02  0.10000000000E+01 0. -1.
    1000022    2    1    0    0    0  0.81292412174E+01 -0.11008589465E+02  0.60157931168E+02  0.62500001093E+02  0.99999924699E+01 0.  0.
    3000022    2    3    3    0    0  0.34149310846E+01 -0.11582309459E+02  0.44191613926E+02  0.45812366122E+02  0.25000312746E+00 0.  0.
    1000022    2    1    0    0    0 -0.81292412174E+01  0.11008589465E+02 -0.60157931168E+02  0.62499998907E+02  0.99999788121E+01 0.  0.
    3000022    2    5    5    0    0  0.16914982934E+00  0.47845823396E+01 -0.34102069314E+02  0.34437399320E+02  0.25000117415E+00 0.  0.
        -13    1    4    4    0    0  0.97158868113E+00 -0.31626353679E+01  0.12107899002E+02  0.12552230490E+02  0.10500000000E+00 0.  1.
         13    1    4    4    0    0  0.24433424035E+01 -0.84196740909E+01  0.32083714924E+02  0.33260135631E+02  0.10500000000E+00 0. -1.
    3000001    1    5    5    0    0 -0.82983910467E+01  0.62240071258E+01 -0.26055861854E+02  0.28062599588E+02  0.10000000000E+01 0. -1.
        -13    1    6    6    0    0  0.16088325268E+00  0.33426413107E+01 -0.23690206647E+02  0.23925635839E+02  0.10500000000E+00 0.  1.
         13    1    6    6    0    0  0.82665766557E-02  0.14419410289E+01 -0.10411862667E+02  0.10511763480E+02  0.10500000000E+00 0. -1.
</event>
<event>
11    0  0.3448258E-009  0.9118800E+02  0.7816531E-02  0.1126479E+00
         25   -1    0    0    0    0  0.00000000000E+00  0.00000000000E+00  0.99999998245E-14  0.12500000000E+03  0.12500000000E+03 0.  0.
    3000001    1    3    3    0    0 -0.10755007767E+01  0.17310164565E+02 -0.39588255538E+01  0.17817710262E+02  0.10000000000E+01 0.  1.
    1000022    2    1    0    0    0 -0.14379705550E+02  0.55088982690E+02 -0.23762956232E+02  0.62500000503E+02  0.10000001423E+02 0.  0.
    3000022    2    3    3    0    0 -0.13304204773E+02  0.37778818124E+02 -0.19804130678E+02  0.44682290241E+02  0.25001149733E+00 0.  0.
    1000022    2    1    0    0    0  0.14379705550E+02 -0.55088982690E+02  0.23762956232E+02  0.62499999497E+02  0.99999951376E+01 0.  0.
    3000022    2    5    5    0    0  0.56920474089E+01 -0.13054038243E+02  0.10036674095E+02  0.17424254579E+02  0.25000516267E+00 0.  0.
        -13    1    4    4    0    0 -0.69967372183E+01  0.19987185578E+02 -0.10409685419E+02  0.23596917056E+02  0.10500000000E+00 0. -1.
         13    1    4    4    0    0 -0.63074675551E+01  0.17791632546E+02 -0.93944452591E+01  0.21085373185E+02  0.10500000000E+00 0.  1.
    3000001    1    5    5    0    0  0.86876581412E+01 -0.42034944447E+02  0.13726282137E+02  0.45075744918E+02  0.10000000000E+01 0. -1.
        -13    1    6    6    0    0  0.39431662344E+01 -0.89744045369E+01  0.68585168582E+01  0.11964061820E+02  0.10500000000E+00 0. -1.
         13    1    6    6    0    0  0.17488811746E+01 -0.40796337057E+01  0.31781572373E+01  0.54601927585E+01  0.10500000000E+00 0.  1.
</event>
<event>
11    0  0.3448258E-009  0.9118800E+02  0.7816531E-02  0.1126479E+00
         25   -1    0    0    0    0  0.00000000000E+00  0.00000000000E+00  0.99999998245E-14  0.12500000000E+03  0.12500000000E+03 0.  0.
    3000001    1    3    3    0    0  0.72650603113E+01  0.13088901802E+02  0.45905380581E+01  0.15689916869E+02  0.10000000000E+01 0.  1.
    1000022    2    1    0    0    0  0.21962828190E+02  0.47325304286E+02  0.32927183563E+02  0.62499997111E+02  0.99999986798E+01 0.  0.
    3000022    2    3    3    0    0  0.14697767879E+02  0.34236402484E+02  0.28336645504E+02  0.46810080242E+02  0.24999614344E+00 0.  0.
    1000022    2    1    0    0    0 -0.21962828190E+02 -0.47325304286E+02 -0.32927183563E+02  0.62500002889E+02  0.10000034791E+02 0.  0.
    3000022    2    5    5    0    0 -0.62610911791E+01 -0.19027978704E+02 -0.17651073535E+02  0.26699964930E+02  0.24998800658E+00 0.  0.
        -13    1    4    4    0    0  0.68089777792E+01  0.15841468773E+02  0.13030241238E+02  0.21612786100E+02  0.10500000000E+00 0. -1.
         13    1    4    4    0    0  0.78887901000E+01  0.18394933711E+02  0.15306404266E+02  0.25197294141E+02  0.10500000000E+00 0.  1.
    3000001    1    5    5    0    0 -0.15701737011E+02 -0.28297325582E+02 -0.15276110027E+02  0.35800037959E+02  0.10000000000E+01 0. -1.
        -13    1    6    6    0    0 -0.21978009220E+01 -0.67916902273E+01 -0.62297244784E+01  0.94751188442E+01  0.10500000000E+00 0. -1.
         13    1    6    6    0    0 -0.40632902571E+01 -0.12236288477E+02 -0.11421349057E+02  0.17224846086E+02  0.10500000000E+00 0.  1.
</event>
<event>
11    0  0.3448258E-009  0.9118800E+02  0.7816531E-02  0.1126479E+00
         25   -1    0    0    0    0  0.00000000000E+00  0.00000000000E+00  0.99999998245E-14  0.12500000000E+03  0.12500000000E+03 0.  0.
    3000001    1    3    3    0    0  0.62731312003E+01 -0.93695674528E+01  0.61295793107E+01  0.12872944956E+02  0.10000000000E+01 0. -1.
    1000022    2    1    0    0    0  0.44114418438E+02 -0.32110214756E+02  0.28794134422E+02  0.62500000262E+02  0.10000002489E+02 0.  0.
    3000022    2    3    3    0    0  0.37841287238E+02 -0.22740647304E+02  0.22664555112E+02  0.49627055306E+02  0.25000069448E+00 0.  0.
    1000022    2    1    0    0    0 -0.44114418438E+02  0.32110214756E+02 -0.28794134422E+02  0.62499999738E+02  0.99999992121E+01 0.  0.
    3000022    2    5    5    0    0 -0.13801725372E+02  0.92802388947E+01 -0.14059075197E+02  0.21779131266E+02  0.25001219147E+00 0.  0.
        -13    1    4    4    0    0  0.16364451145E+02 -0.98064751510E+01  0.97251833944E+01  0.21413837424E+02  0.10500000000E+00 0. -1.
         13    1    4    4    0    0  0.21476836093E+02 -0.12934172153E+02  0.12939371717E+02  0.28213217882E+02  0.10500000000E+00 0.  1.
    3000001    1    5    5    0    0 -0.30312693066E+02  0.22829975862E+02 -0.14735059226E+02  0.40720868472E+02  0.10000000000E+01 0.  1.
        -13    1    6    6    0    0 -0.37018898761E+01  0.24696312992E+01 -0.38030899404E+01  0.58547062696E+01  0.10500000000E+00 0.  1.
         13    1    6    6    0    0 -0.10099835496E+02  0.68106075955E+01 -0.10255985256E+02  0.15924424996E+02  0.10500000000E+00 0. -1.
</event>
<event>
11    0  0.3448258E-009  0.9118800E+02  0.7816531E-02  0.1126479E+00
         25   -1    0    0    0    0  0.00000000000E+00  0.00000000000E+00  0.99999998245E-14  0.12500000000E+03  0.12500000000E+03 0.  0.
    3000001    1    3    3    0    0 -0.82973765373E+01  0.12567675449E+01  0.41756008737E+01  0.94266412215E+01  0.10000000000E+01 0. -1.
    1000022    2    1    0    0    0 -0.60308154012E+02 -0.66557888818E+01  0.11174831501E+02  0.62499998510E+02  0.99999994373E+01 0.  0.
    3000022    2    3    3    0    0 -0.52010777475E+02 -0.79125564268E+01  0.69992306276E+01  0.53073357289E+02  0.25000360665E+00 0.  0.
    1000022    2    1    0    0    0  0.60308154012E+02  0.66557888818E+01 -0.11174831501E+02  0.62500001490E+02  0.10000018060E+02 0.  0.
    3000022    2    5    5    0    0  0.32723525573E+02  0.17663632886E+01 -0.13645628921E+01  0.32800513634E+02  0.24999509071E+00 0.  0.
        -13    1    4    4    0    0 -0.24598972454E+02 -0.37011636314E+01  0.32552127107E+01  0.25088154433E+02  0.10500000000E+00 0. -1.
         13    1    4    4    0    0 -0.27411805020E+02 -0.42113927954E+01  0.37440179168E+01  0.27985202856E+02  0.10500000000E+00 0.  1.
    3000001    1    5    5    0    0  0.27584628439E+02  0.48894255932E+01 -0.98102686092E+01  0.29699487856E+02  0.10000000000E+01 0.  1.
        -13    1    6    6    0    0  0.23481388280E+02  0.12327450185E+01 -0.10000474064E+01  0.23535215649E+02  0.10500000000E+00 0.  1.
         13    1    6    6    0    0  0.92421372932E+01  0.53361827013E+00 -0.36451548570E+00  0.92652979846E+01  0.10500000000E+00 0. -1.
</event>
<event>
11    0  0.3448258E-009  0.9118800E+02  0.7816531E-02  0.1126479E+00
         25   -1    0    0    0    0  0.00000000000E+00  0.00000000000E+00  0.99999998245E-14  0.12500000000E+03  0.12500000000E+03 0.  0.
    3000001    1    3    3    0    0 -0.60769462609E+01  0.83195030868E+00 -0.10388329803E+02  0.12105321692E+02  0.10000000000E+01 0.  1.
    1000022    2    1    0    0    0 -0.13372987764E+02  0.10475681040E+02 -0.59309969969E+02  0.62499995557E+02  0.10000010595E+02 0.  0.
    3000022    2    3    3    0    0 -0.72960415032E+01  0.96437307311E+01 -0.48921640166E+02  0.50394673865E+02  0.25002675213E+00 0.  0.
    1000022    2    1    0    0    0  0.13372987764E+02 -0.10475681040E+02  0.59309969969E+02  0.62500004443E+02  0.10000066130E+02 0.  0.
    3000022    2    5    5    0    0  0.10682323204E+02 -0.11907245381E+02  0.53756792884E+02  0.56086984251E+02  0.24999923439E+00 0.  0.
        -13    1    4    4    0    0 -0.53368729514E+01  0.70394960424E+01 -0.35877500650E+02  0.36949192079E+02  0.10500000000E+00 0. -1.
         13    1    4    4    0    0 -0.19591685518E+01  0.26042346887E+01 -0.13044139517E+02  0.13445481786E+02  0.10500000000E+00 0.  1.
    3000001    1    5    5    0    0  0.26906645604E+01  0.14315643408E+01  0.55531770852E+01  0.64130201916E+01  0.10000000000E+01 0. -1.
        -13    1    6    6    0    0  0.68669041940E+01 -0.76364624826E+01  0.34311633078E+02  0.35815766387E+02  0.10500000000E+00 0.  1.
         13    1    6    6    0    0  0.38154190097E+01 -0.42707828980E+01  0.19445159807E+02  0.20271217864E+02  0.10500000000E+00 0. -1.
</event>
<event>
11    0  0.3448258E-009  0.9118800E+02  0.7816531E-02  0.1126479E+00
         25   -1    0    0    0    0  0.00000000000E+00  0.00000000000E+00  0.99999998245E-14  0.12500000000E+03  0.12500000000E+03 0.  0.
    3000001    1    3    3    0    0 -0.72378165307E+01 -0.50749536010E+00  0.17807673056E+02  0.19255045036E+02  0.10000000000E+01 0.  1.
    1000022    2    1    0    0    0 -0.93351894918E+01  0.91439808912E+00  0.60977602996E+02  0.62499999751E+02  0.10000000748E+02 0.  0.
    3000022    2    3    3    0    0 -0.20973729611E+01  0.14218934492E+01  0.43169929941E+02  0.43244954715E+02  0.25000580365E+00 0.  0.
    1000022    2    1    0    0    0  0.93351894918E+01 -0.91439808912E+00 -0.60977602996E+02  0.62500000249E+02  0.10000003863E+02 0.  0.
    3000022    2    5    5    0    0  0.39950045520E+01 -0.20634184637E+01 -0.75980056700E+01  0.88323262384E+01  0.25007897501E+00 0.  0.
        -13    1    4    4    0    0 -0.11406352452E+01  0.84680151144E+00  0.23714467416E+02  0.23757211776E+02  0.10500000000E+00 0.  1.
         13    1    4    4    0    0 -0.95673771596E+00  0.57509193778E+00  0.19455462525E+02  0.19487742939E+02  0.10500000000E+00 0. -1.
    3000001    1    5    5    0    0  0.53401849399E+01  0.11490203746E+01 -0.53379597326E+02  0.53667674011E+02  0.10000000000E+01 0.  1.
        -13    1    6    6    0    0  0.28579206655E+01 -0.14293081530E+01 -0.53731270558E+01  0.62523716848E+01  0.10500000000E+00 0. -1.
         13    1    6    6    0    0  0.11370838864E+01 -0.63411031069E+00 -0.22248786143E+01  0.25799545537E+01  0.10500000000E+00 0.  1.
</event>
<event>
11    0  0.3448258E-009  0.9118800E+02  0.7816531E-02  0.1126479E+00
         25   -1    0    0    0    0  0.00000000000E+00  0.00000000000E+00  0.99999998245E-14  0.12500000000E+03  0.12500000000E+03 0.  0.
    3000001    1    3    3    0    0  0.39853724739E+02  0.16084767367E+02 -0.25426249466E+02  0.49945302869E+02  0.10000000000E+01 0. -1.
    1000022    2    1    0    0    0  0.52022701478E+02  0.17759760899E+02 -0.28008561361E+02  0.62500001238E+02  0.10000003447E+02 0.  0.
    3000022    2    3    3    0    0  0.12168976738E+02  0.16749935323E+01 -0.25823118959E+01  0.12554698368E+02  0.25003638948E+00 0.  0.
    1000022    2    1    0    0    0 -0.52022701478E+02 -0.17759760899E+02  0.28008561361E+02  0.62499998762E+02  0.99999879777E+01 0.  0.
    3000022    2    5    5    0    0 -0.86625218435E+00 -0.47079668477E+00  0.26425489875E+01  0.28315383194E+01  0.25000347523E+00 0.  0.
        -13    1    4    4    0    0  0.47256898998E+01  0.71137600817E+00 -0.99045607715E+00  0.48816215641E+01  0.10500000000E+00 0. -1.
         13    1    4    4    0    0  0.74432868387E+01  0.96361752418E+00 -0.15918558187E+01  0.76730768042E+01  0.10500000000E+00 0.  1.
    3000001    1    5    5    0    0 -0.51156449293E+02 -0.17288964214E+02  0.25366012374E+02  0.59668460443E+02  0.10000000000E+01 0. -1.
        -13    1    6    6    0    0 -0.45036564353E+00 -0.31134633603E+00  0.15396094319E+01  0.16374333442E+01  0.10500000000E+00 0. -1.
         13    1    6    6    0    0 -0.41588654082E+00 -0.15945034874E+00  0.11029395556E+01  0.11941049752E+01  0.10500000000E+00 0.  1.
</event>
<event>
11    0  0.3448258E-009  0.9118800E+02  0.7816531E-02  0.1126479E+00
         25   -1    0    0    0    0  0.00000000000E+00  0.00000000000E+00  0.99999998245E-14  0.12500000000E+03  0.12500000000E+03 0.  0.
    3000001    1    3    3    0    0 -0.23090618826E+02 -0.39634372467E+01 -0.36135212795E+02  0.43077129852E+02  0.10000000000E+01 0. -1.
    1000022    2    1    0    0    0 -0.30938280121E+02  0.32187048178E+00 -0.53375738074E+02  0.62500001113E+02  0.99999973371E+01 0.  0.
    3000022    2    3    3    0    0 -0.78476612957E+01  0.42853077284E+01 -0.17240525279E+02  0.19422871261E+02  0.25013194692E+00 0.  0.
    1000022    2    1    0    0    0  0.30938280121E+02 -0.32187048178E+00  0.53375738074E+02  0.62499998887E+02  0.99999834258E+01 0.  0.
    3000022    2    5    5    0    0  0.13859425159E+02  0.46734528553E+01  0.26037921308E+02  0.29865710668E+02  0.25000065577E+00 0.  0.
        -13    1    4    4    0    0 -0.56344837486E+01  0.30658323235E+01 -0.12279325568E+02  0.13854226660E+02  0.10500000000E+00 0.  1.
         13    1    4    4    0    0 -0.22131775472E+01  0.12194754049E+01 -0.49611997111E+01  0.55686446010E+01  0.10500000000E+00 0. -1.
    3000001    1    5    5    0    0  0.17078854963E+02 -0.49953233371E+01  0.27337816766E+02  0.32634288220E+02  0.10000000000E+01 0. -1.
        -13    1    6    6    0    0  0.76715771069E+01  0.25406626071E+01  0.14488291782E+02  0.16590047786E+02  0.10500000000E+00 0.  1.
         13    1    6    6    0    0  0.61878480519E+01  0.21327902482E+01  0.11549629526E+02  0.13275662882E+02  0.10500000000E+00 0. -1.
</event>
<event>
11    0  0.3448258E-009  0.9118800E+02  0.7816531E-02  0.1126479E+00
         25   -1    0    0    0    0  0.00000000000E+00  0.00000000000E+00  0.99999998245E-14  0.12500000000E+03  0.12500000000E+03 0.  0.
    3000001    1    3    3    0    0 -0.42603554817E+01 -0.89397771053E-01  0.67990178813E+00  0.44295470686E+01  0.10000000000E+01 0. -1.
    1000022    2    1    0    0    0 -0.46848109809E+02 -0.14260447472E+02  0.37525248403E+02  0.62500000335E+02  0.10000000971E+02 0.  0.
    3000022    2    3    3    0    0 -0.42587754327E+02 -0.14171049701E+02  0.36845346615E+02  0.58070453267E+02  0.25001428711E+00 0.  0.
    1000022    2    1    0    0    0  0.46848109809E+02  0.14260447472E+02 -0.37525248403E+02  0.62499999665E+02  0.99999967815E+01 0.  0.
    3000022    2    5    5    0    0  0.15412885161E+01  0.15983908882E+01 -0.44663537571E+01  0.49941195498E+01  0.24998094582E+00 0.  0.
        -13    1    4    4    0    0 -0.21817072211E+02 -0.72387507453E+01  0.18786047839E+02  0.29686878762E+02  0.10500000000E+00 0.  1.
         13    1    4    4    0    0 -0.20770682116E+02 -0.69322989557E+01  0.18059298776E+02  0.28383574505E+02  0.10500000000E+00 0. -1.
    3000001    1    5    5    0    0  0.45306821293E+02  0.12662056584E+02 -0.33058894646E+02  0.57505880115E+02  0.10000000000E+01 0.  1.
        -13    1    6    6    0    0  0.44592396441E+00  0.40914272484E+00 -0.12172894304E+01  0.13634751589E+01  0.10500000000E+00 0.  1.
         13    1    6    6    0    0  0.10953645517E+01  0.11892481634E+01 -0.32490643266E+01  0.36306443910E+01  0.10500000000E+00 0. -1.
</event>
<event>
11    0  0.3448258E-009  0.9118800E+02  0.7816531E-02  0.1126479E+00
         25   -1    0    0    0    0  0.00000000000E+00  0.00000000000E+00  0.99999998245E-14  0.12500000000E+03  0.12500000000E+03 0.  0.
    3000001    1    3    3    0    0  0.13314435614E+02 -0.16678168649E+02 -0.36683596103E+01  0.21677000887E+02  0.10000000000E+01 0. -1.
    1000022    2    1    0    0    0  0.40384235044E+02 -0.41129974203E+02 -0.21992937941E+02  0.62500003029E+02  0.99999920670E+01 0.  0.
    3000022    2    3    3    0    0  0.27069799430E+02 -0.24451805554E+02 -0.18324578331E+02  0.40823002143E+02  0.24999381597E+00 0.  0.
    1000022    2    1    0    0    0 -0.40384235044E+02  0.41129974203E+02  0.21992937941E+02  0.62499996971E+02  0.99999542025E+01 0.  0.
    3000022    2    5    5    0    0 -0.23527344607E+02  0.23826596460E+02  0.75145627658E+01  0.34318709132E+02  0.24999964471E+00 0.  0.
        -13    1    4    4    0    0  0.10661723977E+02 -0.96771399789E+01 -0.72913855078E+01  0.16139848945E+02  0.10500000000E+00 0.  1.
         13    1    4    4    0    0  0.16408075452E+02 -0.14774665575E+02 -0.11033192823E+02  0.24683153198E+02  0.10500000000E+00 0. -1.
    3000001    1    5    5    0    0 -0.16856890437E+02  0.17303377743E+02  0.14478375176E+02  0.28181287839E+02  0.10000000000E+01 0. -1.
        -13    1    6    6    0    0 -0.14379229840E+02  0.14479823712E+02  0.46025898352E+01  0.20919426467E+02  0.10500000000E+00 0. -1.
         13    1    6    6    0    0 -0.91481147668E+01  0.93467727478E+01  0.29119729306E+01  0.13399282665E+02  0.10500000000E+00 0.  1.
</event>
<event>
11    0  0.3448258E-009  0.9118800E+02  0.7816531E-02  0.1126479E+00
         25   -1    0    0    0    0  0.00000000000E+00  0.00000000000E+00  0.99999998245E-14  0.12500000000E+03  0.12500000000E+03 0.  0.
    3000001    1    3    3    0    0  0.62600931145E+01  0.31767231158E+02  0.19802227518E+01  0.32454075606E+02  0.10000000000E+01 0.  1.
    1000022    2    1    0    0    0  0.11803184073E+02  0.60289742640E+02 -0.56640827461E+01  0.62499997547E+02  0.99999819100E+01 0.  0.
    3000022    2    3    3    0    0  0.55430909584E+01  0.28522511481E+02 -0.76443054979E+01  0.30045921941E+02  0.25000036928E+00 0.  0.
    1000022    2    1    0    0    0 -0.11803184073E+02 -0.60289742640E+02  0.56640827461E+01  0.62500002453E+02  0.10000012570E+02 0.  0.
    3000022    2    5    5    0    0 -0.11747945014E+01 -0.30369347379E+02  0.11670424099E+01  0.30415487664E+02  0.24999901099E+00 0.  0.
        -13    1    4    4    0    0  0.20799265929E+01  0.11022044140E+02 -0.29422321098E+01  0.11596521308E+02  0.10500000000E+00 0. -1.
         13    1    4    4    0    0  0.34631643656E+01  0.17500467341E+02 -0.47020733881E+01  0.18449400633E+02  0.10500000000E+00 0.  1.
    3000001    1    5    5    0    0 -0.10628389571E+02 -0.29920395261E+02  0.44970403362E+01  0.32084514789E+02  0.10000000000E+01 0.  1.
        -13    1    6    6    0    0 -0.70417033247E+00 -0.17121225338E+02  0.70898187671E+00  0.17150682005E+02  0.10500000000E+00 0. -1.
         13    1    6    6    0    0 -0.47062416897E+00 -0.13248122040E+02  0.45806053318E+00  0.13264805658E+02  0.10500000000E+00 0.  1.
</event>
<event>
11    0  0.3448258E-009  0.9118800E+02  0.7816531E-02  0.1126479E+00
         25   -1    0    0    0    0  0.00000000000E+00  0.00000000000E+00  0.99999998245E-14  0.12500000000E+03  0.12500000000E+03 0.  0.
    3000001    1    3    3    0    0  0.25316834943E+02 -0.50046971352E+02  0.14623886480E+02  0.57969815671E+02  0.10000000000E+01 0. -1.
    1000022    2    1    0    0    0  0.28457303741E+02 -0.53070092799E+02  0.13416300471E+02  0.62499999854E+02  0.99999988756E+01 0.  0.
    3000022    2    3    3    0    0  0.31404687978E+01 -0.30231214462E+01 -0.12075860090E+01  0.45301841831E+01  0.24999443080E+00 0.  0.
    1000022    2    1    0    0    0 -0.28457303741E+02  0.53070092799E+02 -0.13416300471E+02  0.62500000146E+02  0.10000000704E+02 0.  0.
    3000022    2    5    5    0    0 -0.25001895780E+02  0.40524942729E+02 -0.13333397624E+02  0.49449042047E+02  0.24998264094E+00 0.  0.
        -13    1    4    4    0    0  0.20913564660E+01 -0.19413500385E+01 -0.76819352643E+00  0.29569846354E+01  0.10500000000E+00 0.  1.
         13    1    4    4    0    0  0.10491123318E+01 -0.10817714077E+01 -0.43939248259E+00  0.15731995478E+01  0.10500000000E+00 0. -1.
    3000001    1    5    5    0    0 -0.34554079611E+01  0.12545150069E+02 -0.82902847801E-01  0.13050958100E+02  0.10000000000E+01 0.  1.
        -13    1    6    6    0    0 -0.11353122167E+02  0.18289150149E+02 -0.60596014690E+01  0.22363277735E+02  0.10500000000E+00 0. -1.
         13    1    6    6    0    0 -0.13648773613E+02  0.22235792581E+02 -0.72737961545E+01  0.27085764311E+02  0.10500000000E+00 0.  1.
</event>
<event>
11    0  0.3448258E-009  0.9118800E+02  0.7816531E-02  0.1126479E+00
         25   -1    0    0    0    0  0.00000000000E+00  0.00000000000E+00  0.99999998245E-14  0.12500000000E+03  0.12500000000E+03 0.  0.
    3000001    1    3    3    0    0 -0.11727643308E+02  0.35318714707E+00  0.39616066853E+02  0.41329107317E+02  0.10000000000E+01 0. -1.
    1000022    2    1    0    0    0 -0.15955534576E+02 -0.63046476802E+01  0.59261478694E+02  0.62499996178E+02  0.99999499671E+01 0.  0.
    3000022    2    3    3    0    0 -0.42278912686E+01 -0.66578348273E+01  0.19645411841E+02  0.21170888861E+02  0.24999925197E+00 0.  0.
    1000022    2    1    0    0    0  0.15955534576E+02  0.63046476802E+01 -0.59261478694E+02  0.62500003822E+02  0.99999977397E+01 0.  0.
    3000022    2    5    5    0    0  0.14553731851E+02  0.67020217157E+01 -0.58352292920E+02  0.60512649858E+02  0.24999606519E+00 0.  0.
        -13    1    4    4    0    0 -0.28650332840E+01 -0.44120131364E+01  0.13105225178E+02  0.14122047571E+02  0.10500000000E+00 0. -1.
         13    1    4    4    0    0 -0.13628579846E+01 -0.22458216908E+01  0.65401866630E+01  0.70488412906E+01  0.10500000000E+00 0.  1.
    3000001    1    5    5    0    0  0.14018027253E+01 -0.39737403554E+00 -0.90918577398E+00  0.19873539635E+01  0.10000000000E+01 0.  1.
        -13    1    6    6    0    0  0.68678269753E+01  0.31332594454E+01 -0.27257925700E+02  0.28284092713E+02  0.10500000000E+00 0. -1.
         13    1    6    6    0    0  0.76859048758E+01  0.35687622704E+01 -0.31094367220E+02  0.32228557146E+02  0.10500000000E+00 0.  1.
</event>
<event>
11    0  0.3448258E-009  0.9118800E+02  0.7816531E-02  0.1126479E+00
         25   -1    0    0    0    0  0.00000000000E+00  0.00000000000E+00  0.99999998245E-14  0.12500000000E+03  0.12500000000E+03 0.  0.
    3000001    1    3    3    0    0  0.45076402590E+02 -0.40853335866E+01 -0.18617987143E+02  0.48951010881E+02  0.10000000000E+01 0. -1.
    1000022    2    1    0    0    0  0.58129205246E+02 -0.10784608822E+01 -0.20641764212E+02  0.62500000149E+02  0.10000000421E+02 0.  0.
    3000022    2    3    3    0    0  0.13052802655E+02  0.30068727044E+01 -0.20237770693E+01  0.13548989268E+02  0.24999186684E+00 0.  0.
    1000022    2    1    0    0    0 -0.58129205246E+02  0.10784608822E+01  0.20641764212E+02  0.62499999851E+02  0.99999985639E+01 0.  0.
    3000022    2    5    5    0    0 -0.30095151496E+02  0.37874211235E+01  0.67309132551E+01  0.31071375803E+02  0.24999742618E+00 0.  0.
        -13    1    4    4    0    0  0.36082348510E+01  0.86571111248E+00 -0.54153603851E+00  0.37514131672E+01  0.10500000000E+00 0.  1.
         13    1    4    4    0    0  0.94445678042E+01  0.21411615919E+01 -0.14822410308E+01  0.97975761005E+01  0.10500000000E+00 0. -1.
    3000001    1    5    5    0    0 -0.28034053750E+02 -0.27089602413E+01  0.13910850957E+02  0.31428624048E+02  0.10000000000E+01 0. -1.
        -13    1    6    6    0    0 -0.12309381928E+02  0.14954089796E+01  0.27876798196E+01  0.12709811770E+02  0.10500000000E+00 0.  1.
         13    1    6    6    0    0 -0.17785769568E+02  0.22920121439E+01  0.39432334355E+01  0.18361564033E+02  0.10500000000E+00 0. -1.
</event>
<event>
11    0  0.3448258E-009  0.9118800E+02  0.7816531E-02  0.1126479E+00
         25   -1    0    0    0    0  0.00000000000E+00  0.00000000000E+00  0.99999998245E-14  0.12500000000E+03  0.12500000000E+03 0.  0.
    3000001    1    3    3    0    0 -0.31732030092E+01  0.85773271005E+01 -0.87916149646E+01  0.12725260359E+02  0.10000000000E+01 0.  1.
    1000022    2    1    0    0    0 -0.24038052579E+02  0.26350329547E+02 -0.50339668226E+02  0.62500000902E+02  0.10000003832E+02 0.  0.
    3000022    2    3    3    0    0 -0.20864849570E+02  0.17773002447E+02 -0.41548053261E+02  0.49774740543E+02  0.25000552052E+00 0.  0.
    1000022    2    1    0    0    0  0.24038052579E+02 -0.26350329547E+02  0.50339668226E+02  0.62499999098E+02  0.99999925526E+01 0.  0.
    3000022    2    5    5    0    0  0.40469360297E+01 -0.86843641088E+01  0.81903304053E+01  0.12607136337E+02  0.25000651772E+00 0.  0.
        -13    1    4    4    0    0 -0.11649775022E+02  0.98847447230E+01 -0.23052043184E+02  0.27655617084E+02  0.10500000000E+00 0. -1.
         13    1    4    4    0    0 -0.92150745476E+01  0.78882577236E+01 -0.18496010077E+02  0.22119123459E+02  0.10500000000E+00 0.  1.
    3000001    1    5    5    0    0  0.19991116549E+02 -0.17665965438E+02  0.42149337821E+02  0.49892862761E+02  0.10000000000E+01 0.  1.
        -13    1    6    6    0    0  0.17891265210E+01 -0.38031440257E+01  0.35086577738E+01  0.54760005992E+01  0.10500000000E+00 0. -1.
         13    1    6    6    0    0  0.22578095087E+01 -0.48812200831E+01  0.46816726314E+01  0.71311357374E+01  0.10500000000E+00 0.  1.
</event>
<event>
11    0  0.3448258E-009  0.9118800E+02  0.7816531E-02  0.1126479E+00
         25   -1    0    0    0    0  0.00000000000E+00  0.00000000000E+00  0.99999998245E-14  0.12500000000E+03  0.12500000000E+03 0.  0.
    3000001    1    3    3    0    0 -0.77269026805E+01  0.20716546591E+02 -0.13782262180E+02  0.26073570497E+02  0.10000000000E+01 0. -1.
    1000022    2    1    0    0    0 -0.18716054961E+02  0.54368786263E+02 -0.22360532735E+02  0.62499988532E+02  0.99999754606E+01 0.  0.
    3000022    2    3    3    0    0 -0.10989152280E+02  0.33652239673E+02 -0.85782705548E+01  0.36426418034E+02  0.25000452985E+00 0.  0.
    1000022    2    1    0    0    0  0.18716054961E+02 -0.54368786263E+02  0.22360532735E+02  0.62500011468E+02  0.10000118816E+02 0.  0.
    3000022    2    5    5    0    0  0.29884041169E+00 -0.64018885048E+00  0.20321705886E+01  0.21659557516E+01  0.24999932140E+00 0.  0.
        -13    1    4    4    0    0 -0.52852696618E+01  0.16181669328E+02 -0.40553451888E+01  0.17499638489E+02  0.10500000000E+00 0.  1.
         13    1    4    4    0    0 -0.57038826183E+01  0.17470570345E+02 -0.45229253659E+01  0.18926779546E+02  0.10500000000E+00 0. -1.
    3000001    1    5    5    0    0  0.18417214549E+02 -0.53728597413E+02  0.20328362146E+02  0.60334055717E+02  0.10000000000E+01 0. -1.
        -13    1    6    6    0    0  0.98618549031E-01 -0.24576810518E+00  0.96018321960E+00  0.10015509947E+01  0.10500000000E+00 0. -1.
         13    1    6    6    0    0  0.20022186266E+00 -0.39442074530E+00  0.10719873690E+01  0.11644047569E+01  0.10500000000E+00 0.  1.
</event>
<event>
11    0  0.3448258E-009  0.9118800E+02  0.7816531E-02  0.1126479E+00
         25   -1    0    0    0    0  0.00000000000E+00  0.00000000000E+00  0.99999998245E-14  0.12500000000E+03  0.12500000000E+03 0.  0.
    3000001    1    3    3    0    0  0.20651569143E+01  0.60855227196E+02  0.15746645331E+01  0.60918824009E+02  0.10000000000E+01 0. -1.
    1000022    2    1    0    0    0  0.81389734333E+00  0.61655170931E+02  0.20563490626E+01  0.62499989922E+02  0.99998818704E+01 0.  0.
    3000022    2    3    3    0    0 -0.12512595710E+01  0.79994373472E+00  0.48168452954E+00  0.15811659139E+01  0.25001033712E+00 0.  0.
    1000022    2    1    0    0    0 -0.81389734333E+00 -0.61655170931E+02 -0.20563490626E+01  0.62500010078E+02  0.10000007840E+02 0.  0.
    3000022    2    5    5    0    0 -0.45161559175E+00  0.21569410615E+00  0.15493440518E+00  0.58050617863E+00  0.25000432671E+00 0.  0.
        -13    1    4    4    0    0 -0.56921589589E+00  0.44254673536E+00  0.24772761479E+00  0.76957671498E+00  0.10500000000E+00 0. -1.
         13    1    4    4    0    0 -0.68204367507E+00  0.35739699936E+00  0.23395691475E+00  0.81158919893E+00  0.10500000000E+00 0.  1.
    3000001    1    5    5    0    0 -0.36228175158E+00 -0.61870865037E+02 -0.22112834678E+01  0.61919503899E+02  0.10000000000E+01 0. -1.
        -13    1    6    6    0    0 -0.91327070444E-01  0.74753371109E-01  0.31654547612E-01  0.16110776106E+00  0.10500000000E+00 0. -1.
         13    1    6    6    0    0 -0.36028852130E+00  0.14094073504E+00  0.12327985757E+00  0.41939841757E+00  0.10500000000E+00 0.  1.
</event>
<event>
11    0  0.3448258E-009  0.9118800E+02  0.7816531E-02  0.1126479E+00
         25   -1    0    0    0    0  0.00000000000E+00  0.00000000000E+00  0.99999998245E-14  0.12500000000E+03  0.12500000000E+03 0.  0.
    3000001    1    3    3    0    0 -0.25995930855E+02 -0.42701639450E+02 -0.61926542087E+00  0.50006018862E+02  0.10000000000E+01 0. -1.
    1000022    2    1    0    0    0 -0.32587169488E+02 -0.52229433594E+02  0.40512565070E+01  0.62499999891E+02  0.99999979216E+01 0.  0.
    3000022    2    3    3    0    0 -0.65912386329E+01 -0.95277941436E+01  0.46705219279E+01  0.12493981030E+02  0.24999787974E+00 0.  0.
    1000022    2    1    0    0    0  0.32587169488E+02  0.52229433594E+02 -0.40512565070E+01  0.62500000109E+02  0.99999992782E+01 0.  0.
    3000022    2    5    5    0    0  0.67815355342E+01  0.18691103093E+02 -0.33500805085E+01  0.20165120821E+02  0.24999855723E+00 0.  0.
        -13    1    4    4    0    0 -0.50135531789E+01 -0.72111801686E+01  0.35447307791E+01  0.94716934176E+01  0.10500000000E+00 0. -1.
         13    1    4    4    0    0 -0.15776854540E+01 -0.23166139750E+01  0.11257911488E+01  0.30222876123E+01  0.10500000000E+00 0.  1.
    3000001    1    5    5    0    0  0.25805633953E+02  0.33538330500E+02 -0.70117599848E+00  0.42334879287E+02  0.10000000000E+01 0.  1.
        -13    1    6    6    0    0  0.45455126851E+01  0.12613191295E+02 -0.23026054283E+01  0.13603944170E+02  0.10500000000E+00 0. -1.
         13    1    6    6    0    0  0.22360228491E+01  0.60779117984E+01 -0.10474750802E+01  0.65611766517E+01  0.10500000000E+00 0.  1.
</event>
<event>
11    0  0.3448258E-009  0.9118800E+02  0.7816531E-02  0.1126479E+00
         25   -1    0    0    0    0  0.00000000000E+00  0.00000000000E+00  0.99999998245E-14  0.12500000000E+03  0.12500000000E+03 0.  0.
    3000001    1    3    3    0    0  0.36735394552E+01  0.57491236725E+01 -0.81493400721E+01  0.10675160830E+02  0.10000000000E+01 0. -1.
    1000022    2    1    0    0    0  0.34379557944E+01  0.44068232752E+02 -0.43039759479E+02  0.62499995405E+02  0.99999925830E+01 0.  0.
    3000022    2    3    3    0    0 -0.23558366083E+00  0.38319109080E+02 -0.34890419407E+02  0.51824834575E+02  0.24998406198E+00 0.  0.
    1000022    2    1    0    0    0 -0.34379557944E+01 -0.44068232752E+02  0.43039759479E+02  0.62500004595E+02  0.10000050019E+02 0.  0.
    3000022    2    5    5    0    0 -0.33814796651E+01 -0.39956264879E+02  0.42145722483E+02  0.58174409665E+02  0.25001689714E+00 0.  0.
        -13    1    4    4    0    0 -0.53030682976E-01  0.11574987864E+02 -0.10597193763E+02  0.15693778925E+02  0.10500000000E+00 0. -1.
         13    1    4    4    0    0 -0.18255297786E+00  0.26744121216E+02 -0.24293225644E+02  0.36131055650E+02  0.10500000000E+00 0.  1.
    3000001    1    5    5    0    0 -0.56476129226E-01 -0.41119678739E+01  0.89403699568E+00  0.43255949300E+01  0.10000000000E+01 0. -1.
        -13    1    6    6    0    0 -0.11995254624E+01 -0.14616752699E+02  0.15480765102E+02  0.21324948627E+02  0.10500000000E+00 0. -1.
         13    1    6    6    0    0 -0.21819542027E+01 -0.25339512180E+02  0.26664957381E+02  0.36849461038E+02  0.10500000000E+00 0.  1.
</event>
<event>
11    0  0.3448258E-009  0.9118800E+02  0.7816531E-02  0.1126479E+00
         25   -1    0    0    0    0  0.00000000000E+00  0.00000000000E+00  0.99999998245E-14  0.12500000000E+03  0.12500000000E+03 0.  0.
    3000001    1    3    3    0    0  0.34219422689E+01 -0.62685918955E+01  0.43576007519E+01  0.84257710363E+01  0.10000000000E+01 0.  1.
    1000022    2    1    0    0    0  0.27282344938E+01 -0.54630303588E+02  0.28536585423E+02  0.62499999549E+02  0.99999951247E+01 0.  0.
    3000022    2    3    3    0    0 -0.69370777512E+00 -0.48361711692E+02  0.24178984671E+02  0.54074228513E+02  0.25000249225E+00 0.  0.
    1000022    2    1    0    0    0 -0.27282344938E+01  0.54630303588E+02 -0.28536585423E+02  0.62500000451E+02  0.10000000759E+02 0.  0.
    3000022    2    5    5    0    0 -0.50108067583E+01  0.17609790743E+02 -0.70320350593E+01  0.19614406205E+02  0.24999866367E+00 0.  0.
        -13    1    4    4    0    0 -0.19359405947E+00 -0.12381704191E+02  0.62185857219E+01  0.13857341402E+02  0.10500000000E+00 0. -1.
         13    1    4    4    0    0 -0.50011371565E+00 -0.35980007501E+02  0.17960398949E+02  0.40216887111E+02  0.10500000000E+00 0.  1.
    3000001    1    5    5    0    0  0.22825722645E+01  0.37020512845E+02 -0.21504550363E+02  0.42885594245E+02  0.10000000000E+01 0. -1.
        -13    1    6    6    0    0 -0.28937381691E+01  0.10074777055E+02 -0.40901028236E+01  0.11252325067E+02  0.10500000000E+00 0. -1.
         13    1    6    6    0    0 -0.21170685892E+01  0.75350136879E+01 -0.29419322358E+01  0.83620811386E+01  0.10500000000E+00 0.  1.
</event>
<event>
11    0  0.3448258E-009  0.9118800E+02  0.7816531E-02  0.1126479E+00
         25   -1    0    0    0    0  0.00000000000E+00  0.00000000000E+00  0.99999998245E-14  0.12500000000E+03  0.12500000000E+03 0.  0.
    3000001    1    3    3    0    0 -0.28316693262E+02  0.21316785533E+01  0.14632281321E+02  0.31960644978E+02  0.10000000000E+01 0. -1.
    1000022    2    1    0    0    0 -0.58190261786E+02  0.61090393572E+01  0.19565866113E+02  0.62500000738E+02  0.10000002345E+02 0.  0.
    3000022    2    3    3    0    0 -0.29873568524E+02  0.39773608040E+01  0.49335847925E+01  0.30539355760E+02  0.24999203615E+00 0.  0.
    1000022    2    1    0    0    0  0.58190261786E+02 -0.61090393572E+01 -0.19565866113E+02  0.62499999262E+02  0.99999931224E+01 0.  0.
    3000022    2    5    5    0    0  0.57913029461E+02 -0.58234426174E+01 -0.19617021092E+02  0.61422483559E+02  0.25000946634E+00 0.  0.
        -13    1    4    4    0    0 -0.13041207773E+02  0.17662867121E+01  0.20947607363E+01  0.13326361712E+02  0.10500000000E+00 0. -1.
         13    1    4    4    0    0 -0.16832360751E+02  0.22110740918E+01  0.28388240562E+01  0.17212994048E+02  0.10500000000E+00 0.  1.
    3000001    1    5    5    0    0  0.27723232513E+00 -0.28559673978E+00  0.51154978940E-01  0.10775157037E+01  0.10000000000E+01 0. -1.
        -13    1    6    6    0    0  0.15917580304E+02 -0.16350167556E+01 -0.54100995613E+01  0.16891502147E+02  0.10500000000E+00 0.  1.
         13    1    6    6    0    0  0.41995449157E+02 -0.41884258619E+01 -0.14206921531E+02  0.44530981411E+02  0.10500000000E+00 0. -1.
</event>
<event>
11    0  0.3448258E-009  0.9118800E+02  0.7816531E-02  0.1126479E+00
         25   -1    0    0    0    0  0.00000000000E+00  0.00000000000E+00  0.99999998245E-14  0.12500000000E+03  0.12500000000E+03 0.  0.
    3000001    1    3    3    0    0 -0.15064692158E+02 -0.22212619626E+02  0.13698520758E+02  0.30149542143E+02  0.10000000000E+01 0.  1.
    1000022    2    1    0    0    0 -0.24962378230E+02 -0.51699358168E+02  0.22589959809E+02  0.62500000062E+02  0.99999880863E+01 0.  0.
    3000022    2    3    3    0    0 -0.98976860728E+01 -0.29486738543E+02  0.88914390502E+01  0.32350457920E+02  0.24999953848E+00 0.  0.
    1000022    2    1    0    0    0  0.24962378230E+02  0.51699358168E+02 -0.22589959809E+02  0.62499999938E+02  0.99999873053E+01 0.  0.
    3000022    2    5    5    0    0  0.39220143802E+01  0.24850134780E+01 -0.27925059630E+01  0.54238419290E+01  0.24996586347E+00 0.  0.
        -13    1    4    4    0    0 -0.67640798517E+01 -0.20121908972E+02  0.61196386488E+01  0.22093098450E+02  0.10500000000E+00 0. -1.
         13    1    4    4    0    0 -0.31336062211E+01 -0.93648295708E+01  0.27718004014E+01  0.10257359470E+02  0.10500000000E+00 0.  1.
    3000001    1    5    5    0    0  0.21040363850E+02  0.49214344690E+02 -0.19797453846E+02  0.57076158009E+02  0.10000000000E+01 0.  1.
        -13    1    6    6    0    0  0.14997572170E+01  0.10071670882E+01 -0.11324793461E+01  0.21347580010E+01  0.10500000000E+00 0.  1.
         13    1    6    6    0    0  0.24222571632E+01  0.14778463898E+01 -0.16600266169E+01  0.32890839280E+01  0.10500000000E+00 0. -1.
</event>
<event>
11    0  0.3448258E-009  0.9118800E+02  0.7816531E-02  0.1126479E+00
         25   -1    0    0    0    0  0.00000000000E+00  0.00000000000E+00  0.99999998245E-14  0.12500000000E+03  0.12500000000E+03 0.  0.
    3000001    1    3    3    0    0  0.17724645777E+01  0.19155603546E+02 -0.37590940673E+02  0.42239289750E+02  0.10000000000E+01 0.  1.
    1000022    2    1    0    0    0 -0.40029425078E+01  0.29347990571E+02 -0.54119515434E+02  0.62499999588E+02  0.99999949209E+01 0.  0.
    3000022    2    3    3    0    0 -0.57754070855E+01  0.10192387025E+02 -0.16528574762E+02  0.20260709839E+02  0.24999849531E+00 0.  0.
    1000022    2    1    0    0    0  0.40029425078E+01 -0.29347990571E+02  0.54119515434E+02  0.62500000412E+02  0.10000000066E+02 0.  0.
    3000022    2    5    5    0    0  0.16816636459E+01 -0.24615853366E+02  0.36313275418E+02  0.43903128588E+02  0.24999744240E+00 0.  0.
        -13    1    4    4    0    0 -0.19947042202E+01  0.35594582799E+01 -0.56666094640E+01  0.69835575455E+01  0.10500000000E+00 0.  1.
         13    1    4    4    0    0 -0.37807028654E+01  0.66329287452E+01 -0.10861965298E+02  0.13277152293E+02  0.10500000000E+00 0. -1.
    3000001    1    5    5    0    0  0.23212788619E+01 -0.47321372051E+01  0.17806240017E+02  0.18596871823E+02  0.10000000000E+01 0.  1.
        -13    1    6    6    0    0  0.11866951923E+01 -0.16610082633E+02  0.24509337746E+02  0.29631431830E+02  0.10500000000E+00 0. -1.
         13    1    6    6    0    0  0.49496845358E+00 -0.80057707332E+01  0.11803937672E+02  0.14271696759E+02  0.10500000000E+00 0.  1.
</event>
<event>
11    0  0.3448258E-009  0.9118800E+02  0.7816531E-02  0.1126479E+00
         25   -1    0    0    0    0  0.00000000000E+00  0.00000000000E+00  0.99999998245E-14  0.12500000000E+03  0.12500000000E+03 0.  0.
    3000001    1    3    3    0    0 -0.26637687253E+02 -0.11786136774E+02  0.29545244848E+02  0.41501817976E+02  0.10000000000E+01 0. -1.
    1000022    2    1    0    0    0 -0.42437424456E+02 -0.21729967630E+02  0.39155120104E+02  0.62500000486E+02  0.10000007134E+02 0.  0.
    3000022    2    3    3    0    0 -0.15799737204E+02 -0.99438308560E+01  0.96098752567E+01  0.20998182510E+02  0.24999693144E+00 0.  0.
    1000022    2    1    0    0    0  0.42437424456E+02  0.21729967630E+02 -0.39155120104E+02  0.62499999514E+02  0.10000001058E+02 0.  0.
    3000022    2    5    5    0    0  0.91798695486E+01  0.61477278818E+01 -0.43048349878E+01  0.11859960743E+02  0.25000303319E+00 0.  0.
        -13    1    4    4    0    0 -0.10042563165E+02 -0.63802543585E+01  0.60913659152E+01  0.13366992343E+02  0.10500000000E+00 0. -1.
         13    1    4    4    0    0 -0.57571740389E+01 -0.35635764975E+01  0.35185093415E+01  0.76311901663E+01  0.10500000000E+00 0.  1.
    3000001    1    5    5    0    0  0.33257554908E+02  0.15582239748E+02 -0.34850285117E+02  0.50640038771E+02  0.10000000000E+01 0.  1.
        -13    1    6    6    0    0  0.37471192948E+01  0.24546602609E+01 -0.16978786066E+01  0.47916674310E+01  0.10500000000E+00 0. -1.
         13    1    6    6    0    0  0.54327502538E+01  0.36930676208E+01 -0.26069563812E+01  0.70682933121E+01  0.10500000000E+00 0.  1.
</event>
<event>
11    0  0.3448258E-009  0.9118800E+02  0.7816531E-02  0.1126479E+00
         25   -1    0    0    0    0  0.00000000000E+00  0.00000000000E+00  0.99999998245E-14  0.12500000000E+03  0.12500000000E+03 0.  0.
    3000001    1    3    3    0    0  0.26366757741E+02  0.46347990062E+02  0.28626021879E+01  0.53409143298E+02  0.10000000000E+01 0. -1.
    1000022    2    1    0    0    0  0.28948001283E+02  0.54481135750E+02 -0.26314335098E+00  0.62499999286E+02  0.99999867672E+01 0.  0.
    3000022    2    3    3    0    0  0.25812435422E+01  0.81331456883E+01 -0.31257455389E+01  0.90908559874E+01  0.25000079823E+00 0.  0.
    1000022    2    1    0    0    0 -0.28948001283E+02 -0.54481135750E+02  0.26314335098E+00  0.62500000714E+02  0.99999956957E+01 0.  0.
    3000022    2    5    5    0    0 -0.25367917528E+02 -0.42010191038E+02 -0.27129721053E+01  0.49150891197E+02  0.24999395986E+00 0.  0.
        -13    1    4    4    0    0  0.12898952205E+01  0.41346477717E+01 -0.15179915277E+01  0.45906933195E+01  0.10500000000E+00 0.  1.
         13    1    4    4    0    0  0.12913483217E+01  0.39984979166E+01 -0.16077540112E+01  0.45001626679E+01  0.10500000000E+00 0. -1.
    3000001    1    5    5    0    0 -0.35800837548E+01 -0.12470944712E+02  0.29761154563E+01  0.13349109518E+02  0.10000000000E+01 0. -1.
        -13    1    6    6    0    0 -0.11004029724E+02 -0.18337568633E+02 -0.11532468094E+01  0.21417191617E+02  0.10500000000E+00 0. -1.
         13    1    6    6    0    0 -0.14363887804E+02 -0.23672622405E+02 -0.15597252959E+01  0.27733699580E+02  0.10500000000E+00 0.  1.
</event>
<event>
11    0  0.3448258E-009  0.9118800E+02  0.7816531E-02  0.1126479E+00
         25   -1    0    0    0    0  0.00000000000E+00  0.00000000000E+00  0.99999998245E-14  0.12500000000E+03  0.12500000000E+03 0.  0.
    3000001    1    3    3    0    0 -0.20490304922E+01 -0.71004344928E+01 -0.31484606236E+02  0.32355758773E+02  0.10000000000E+01 0.  1.
    1000022    2    1    0    0    0  0.55513374030E+01 -0.13594917686E+02 -0.59921708540E+02  0.62499998563E+02  0.99999766082E+01 0.  0.
    3000022    2    3    3    0    0  0.76003678953E+01 -0.64944831928E+01 -0.28437102304E+02  0.30144239790E+02  0.25000194384E+00 0.  0.
    1000022    2    1    0    0    0 -0.55513374030E+01  0.13594917686E+02  0.59921708540E+02  0.62500001437E+02  0.99999945668E+01 0.  0.
    3000022    2    5    5    0    0  0.19271936569E+01  0.64923025625E+01  0.32188144584E+02  0.32893817317E+02  0.24999593964E+00 0.  0.
        -13    1    4    4    0    0  0.45463526938E+01 -0.38049672574E+01 -0.16919334282E+02  0.17928245765E+02  0.10500000000E+00 0. -1.
         13    1    4    4    0    0  0.30540152015E+01 -0.26895159354E+01 -0.11517768022E+02  0.12215994025E+02  0.10500000000E+00 0.  1.
    3000001    1    5    5    0    0 -0.74785310599E+01  0.71026151231E+01  0.27733563957E+02  0.29606184120E+02  0.10000000000E+01 0.  1.
        -13    1    6    6    0    0  0.14678609019E+01  0.49798821675E+01  0.24702881562E+02  0.25242765786E+02  0.10500000000E+00 0.  1.
         13    1    6    6    0    0  0.45933275495E+00  0.15124203950E+01  0.74852630214E+01  0.76510515311E+01  0.10500000000E+00 0. -1.
</event>
<event>
11    0  0.3448258E-009  0.9118800E+02  0.7816531E-02  0.1126479E+00
         25   -1    0    0    0    0  0.00000000000E+00  0.00000000000E+00  0.99999998245E-14  0.12500000000E+03  0.12500000000E+03 0.  0.
    3000001    1    3    3    0    0  0.28106975045E+01 -0.19406080247E+01  0.54959942987E+00  0.36011164242E+01  0.10000000000E+01 0. -1.
    1000022    2    1    0    0    0  0.54079718330E+02 -0.32879970331E+01  0.29509713003E+02  0.62500001247E+02  0.10000006759E+02 0.  0.
    3000022    2    3    3    0    0  0.51269020825E+02 -0.13473890084E+01  0.28960113574E+02  0.58898884822E+02  0.25000323266E+00 0.  0.
    1000022    2    1    0    0    0 -0.54079718330E+02  0.32879970331E+01 -0.29509713003E+02  0.62499998753E+02  0.99999911763E+01 0.  0.
    3000022    2    5    5    0    0 -0.15294588829E+02 -0.25759316793E+01 -0.11587314067E+02  0.19362030396E+02  0.25000464649E+00 0.  0.
        -13    1    4    4    0    0  0.33758616176E+02 -0.84137536616E+00  0.19103372602E+02  0.38798220943E+02  0.10500000000E+00 0. -1.
         13    1    4    4    0    0  0.17510404650E+02 -0.50601364222E+00  0.98567409720E+01  0.20100663879E+02  0.10500000000E+00 0.  1.
    3000001    1    5    5    0    0 -0.38785129501E+02  0.58639287124E+01 -0.17922398937E+02  0.43137968357E+02  0.10000000000E+01 0.  1.
        -13    1    6    6    0    0 -0.73750845234E+01 -0.12698996714E+01 -0.55136705892E+01  0.92960263160E+01  0.10500000000E+00 0.  1.
         13    1    6    6    0    0 -0.79195043056E+01 -0.13060320079E+01 -0.60736434776E+01  0.10066004080E+02  0.10500000000E+00 0. -1.
</event>
<event>
11    0  0.3448258E-009  0.9118800E+02  0.7816531E-02  0.1126479E+00
         25   -1    0    0    0    0  0.00000000000E+00  0.00000000000E+00  0.99999998245E-14  0.12500000000E+03  0.12500000000E+03 0.  0.
    3000001    1    3    3    0    0 -0.14271582260E+01 -0.96155630843E+00  0.23158748001E+01  0.30536285344E+01  0.10000000000E+01 0.  1.
    1000022    2    1    0    0    0 -0.53714260016E+02  0.55765776995E+01  0.29831695122E+02  0.62499999797E+02  0.99999996424E+01 0.  0.
    3000022    2    3    3    0    0 -0.52287101790E+02  0.65381340079E+01  0.27515820322E+02  0.59446371262E+02  0.24995675885E+00 0.  0.
    1000022    2    1    0    0    0  0.53714260016E+02 -0.55765776995E+01 -0.29831695122E+02  0.62500000203E+02  0.10000002183E+02 0.  0.
    3000022    2    5    5    0    0  0.54395356212E+01  0.92946806187E+00 -0.63458835196E+01  0.84133937885E+01  0.24999748709E+00 0.  0.
        -13    1    4    4    0    0 -0.23033884884E+02  0.28484566237E+01  0.12185023230E+02  0.26213724918E+02  0.10500000000E+00 0.  1.
         13    1    4    4    0    0 -0.29253216906E+02  0.36896773842E+01  0.15330797092E+02  0.33232646344E+02  0.10500000000E+00 0. -1.
    3000001    1    5    5    0    0  0.48274724395E+02 -0.65060457614E+01 -0.23485811602E+02  0.54086606415E+02  0.10000000000E+01 0. -1.
        -13    1    6    6    0    0  0.20308438760E+01  0.40447787614E+00 -0.23508226415E+01  0.31345368546E+01  0.10500000000E+00 0.  1.
         13    1    6    6    0    0  0.34086917451E+01  0.52499018573E+00 -0.39950608781E+01  0.52788569338E+01  0.10500000000E+00 0. -1.
</event>
<event>
11    0  0.3448258E-009  0.9118800E+02  0.7816531E-02  0.1126479E+00
         25   -1    0    0    0    0  0.00000000000E+00  0.00000000000E+00  0.99999998245E-14  0.12500000000E+03  0.12500000000E+03 0.  0.
    3000001    1    3    3    0    0  0.19236634122E+02  0.26822180184E+02 -0.84308624718E+01  0.34081620915E+02  0.10000000000E+01 0. -1.
    1000022    2    1    0    0    0  0.27106244027E+02  0.52785660321E+02 -0.16887145118E+02  0.62500000104E+02  0.99999970950E+01 0.  0.
    3000022    2    3    3    0    0  0.78696099048E+01  0.25963480137E+02 -0.84562826466E+01  0.28418379189E+02  0.24999724473E+00 0.  0.
    1000022    2    1    0    0    0 -0.27106244027E+02 -0.52785660321E+02  0.16887145118E+02  0.62499999896E+02  0.99999958003E+01 0.  0.
    3000022    2    5    5    0    0 -0.20843306769E+02 -0.47402981759E+02  0.15600539582E+02  0.54082579543E+02  0.24991611861E+00 0.  0.
        -13    1    4    4    0    0  0.25242806043E+01  0.82586594376E+01 -0.26435227473E+01  0.90319812771E+01  0.10500000000E+00 0.  1.
         13    1    4    4    0    0  0.53453293005E+01  0.17704820700E+02 -0.58127598993E+01  0.19386397912E+02  0.10500000000E+00 0. -1.
    3000001    1    5    5    0    0 -0.62629372576E+01 -0.53826785622E+01  0.12866055365E+01  0.84174203532E+01  0.10000000000E+01 0.  1.
        -13    1    6    6    0    0 -0.91274637388E+01 -0.20594773597E+02  0.67866326838E+01  0.23527105687E+02  0.10500000000E+00 0.  1.
         13    1    6    6    0    0 -0.11715843030E+02 -0.26808208162E+02  0.88139068981E+01  0.30555473857E+02  0.10500000000E+00 0. -1.
</event>
<event>
11    0  0.3448258E-009  0.9118800E+02  0.7816531E-02  0.1126479E+00
         25   -1    0    0    0    0  0.00000000000E+00  0.00000000000E+00  0.99999998245E-14  0.12500000000E+03  0.12500000000E+03 0.  0.
    3000001    1    3    3    0    0 -0.10465373702E+02  0.95387421281E+01  0.32818975288E+02  0.35757471766E+02  0.10000000000E+01 0.  1.
    1000022    2    1    0    0    0 -0.10610033861E+02  0.20459043799E+02  0.57228532075E+02  0.62500001129E+02  0.99999982984E+01 0.  0.
    3000022    2    3    3    0    0 -0.14466015917E+00  0.10920301671E+02  0.24409556787E+02  0.26742529363E+02  0.24999814830E+00 0.  0.
    1000022    2    1    0    0    0  0.10610033861E+02 -0.20459043799E+02 -0.57228532075E+02  0.62499998871E+02  0.99999841858E+01 0.  0.
    3000022    2    5    5    0    0  0.90237239394E+01 -0.11342502629E+02 -0.24437270958E+02  0.28413425154E+02  0.25011502366E+00 0.  0.
        -13    1    4    4    0    0 -0.27445584684E-01  0.53710153402E+01  0.12131219759E+02  0.13267481935E+02  0.10500000000E+00 0.  1.
         13    1    4    4    0    0 -0.11721457448E+00  0.55492863311E+01  0.12278337028E+02  0.13475047429E+02  0.10500000000E+00 0. -1.
    3000001    1    5    5    0    0  0.15863099216E+01 -0.91165411704E+01 -0.32791261117E+02  0.34086573717E+02  0.10000000000E+01 0. -1.
        -13    1    6    6    0    0  0.65935054147E+01 -0.83193138254E+01 -0.17953065464E+02  0.20856866513E+02  0.10500000000E+00 0.  1.
         13    1    6    6    0    0  0.24302185248E+01 -0.30231888036E+01 -0.64842054933E+01  0.75565586413E+01  0.10500000000E+00 0. -1.
</event>
<event>
11    0  0.3448258E-009  0.9118800E+02  0.7816531E-02  0.1126479E+00
         25   -1    0    0    0    0  0.00000000000E+00  0.00000000000E+00  0.99999998245E-14  0.12500000000E+03  0.12500000000E+03 0.  0.
    3000001    1    3    3    0    0 -0.15575030032E+01  0.15423521717E+01 -0.50497421231E+01  0.55950479298E+01  0.10000000000E+01 0. -1.
    1000022    2    1    0    0    0 -0.41567863073E+02  0.31151726666E+01 -0.45482510944E+02  0.62500003518E+02  0.10000004838E+02 0.  0.
    3000022    2    3    3    0    0 -0.40010360070E+02  0.15728204948E+01 -0.40432768821E+02  0.56904955588E+02  0.24999745314E+00 0.  0.
    1000022    2    1    0    0    0  0.41567863073E+02 -0.31151726666E+01  0.45482510944E+02  0.62499996482E+02  0.99999608653E+01 0.  0.
    3000022    2    5    5    0    0  0.55033262349E+00  0.12694395707E+01  0.59053502633E+00  0.15249841375E+01  0.25000436405E+00 0.  0.
        -13    1    4    4    0    0 -0.26240426064E+02  0.10409755904E+01 -0.26439848260E+02  0.37265536239E+02  0.10500000000E+00 0.  1.
         13    1    4    4    0    0 -0.13769934006E+02  0.53184490442E+00 -0.13992920561E+02  0.19639419349E+02  0.10500000000E+00 0. -1.
    3000001    1    5    5    0    0  0.41017530450E+02 -0.43846122373E+01  0.44891975917E+02  0.60975012345E+02  0.10000000000E+01 0.  1.
        -13    1    6    6    0    0  0.14961427479E+00  0.40393841234E+00  0.23423988360E+00  0.50144191614E+00  0.10500000000E+00 0.  1.
         13    1    6    6    0    0  0.40071834869E+00  0.86550115838E+00  0.35629514272E+00  0.10235422213E+01  0.10500000000E+00 0. -1.
</event>
<event>
11    0  0.3448258E-009  0.9118800E+02  0.7816531E-02  0.1126479E+00
         25   -1    0    0    0    0  0.00000000000E+00  0.00000000000E+00  0.99999998245E-14  0.12500000000E+03  0.12500000000E+03 0.  0.
    3000001    1    3    3    0    0 -0.19899846417E+02  0.24274593721E+02 -0.16074815578E+02  0.35279731909E+02  0.10000000000E+01 0. -1.
    1000022    2    1    0    0    0 -0.37300135400E+02  0.36093591290E+02 -0.33349702869E+02  0.62499999920E+02  0.99999937735E+01 0.  0.
    3000022    2    3    3    0    0 -0.17400288983E+02  0.11818997569E+02 -0.17274887291E+02  0.27220268011E+02  0.24999883949E+00 0.  0.
    1000022    2    1    0    0    0  0.37300135400E+02 -0.36093591290E+02  0.33349702869E+02  0.62500000080E+02  0.99999947737E+01 0.  0.
    3000022    2    5    5    0    0  0.17854885669E+01 -0.90696555644E-01  0.30308321466E+01  0.35276973369E+01  0.25001942374E+00 0.  0.
        -13    1    4    4    0    0 -0.71856171024E+01  0.49524267610E+01 -0.71345418090E+01  0.11272636594E+02  0.10500000000E+00 0.  1.
         13    1    4    4    0    0 -0.10214671881E+02  0.68665708083E+01 -0.10140345482E+02  0.15947631416E+02  0.10500000000E+00 0. -1.
    3000001    1    5    5    0    0  0.35514646833E+02 -0.36002894734E+02  0.30318870722E+02  0.58972302743E+02  0.10000000000E+01 0.  1.
        -13    1    6    6    0    0  0.11263066235E+01 -0.72283037851E-01  0.17929516408E+01  0.21212006114E+01  0.10500000000E+00 0.  1.
         13    1    6    6    0    0  0.65918194344E+00 -0.18413517793E-01  0.12378805058E+01  0.14064967255E+01  0.10500000000E+00 0. -1.
</event>
<event>
11    0  0.3448258E-009  0.9118800E+02  0.7816531E-02  0.1126479E+00
         25   -1    0    0    0    0  0.00000000000E+00  0.00000000000E+00  0.99999998245E-14  0.12500000000E+03  0.12500000000E+03 0.  0.
    3000001    1    3    3    0    0 -0.17237369576E+02 -0.87934890638E-01 -0.18561483369E+02  0.25350804865E+02  0.10000000000E+01 0. -1.
    1000022    2    1    0    0    0 -0.44549109738E+02  0.10684935530E+02 -0.41321410057E+02  0.62499999377E+02  0.99999983680E+01 0.  0.
    3000022    2    3    3    0    0 -0.27311740162E+02  0.10772870420E+02 -0.22759926688E+02  0.37149194513E+02  0.25000463667E+00 0.  0.
    1000022    2    1    0    0    0  0.44549109738E+02 -0.10684935530E+02  0.41321410057E+02  0.62500000623E+02  0.10000006151E+02 0.  0.
    3000022    2    5    5    0    0  0.36104464497E+01  0.15606119405E+01  0.52888993562E+01  0.65958915422E+01  0.24999128458E+00 0.  0.
        -13    1    4    4    0    0 -0.12092401448E+02  0.47908270975E+01 -0.10003006160E+02  0.16408819406E+02  0.10500000000E+00 0.  1.
         13    1    4    4    0    0 -0.15219338713E+02  0.59820433228E+01 -0.12756920528E+02  0.20740375106E+02  0.10500000000E+00 0. -1.
    3000001    1    5    5    0    0  0.40938663288E+02 -0.12245547470E+02  0.36032510701E+02  0.55904109080E+02  0.10000000000E+01 0. -1.
        -13    1    6    6    0    0  0.12758279169E+01  0.53411615796E+00  0.17715650493E+01  0.22499965928E+01  0.10500000000E+00 0.  1.
         13    1    6    6    0    0  0.23346185328E+01  0.10264957826E+01  0.35173343069E+01  0.43458949495E+01  0.10500000000E+00 0. -1.
</event>
<event>
11    0  0.3448258E-009  0.9118800E+02  0.7816531E-02  0.1126479E+00
         25   -1    0    0    0    0  0.00000000000E+00  0.00000000000E+00  0.99999998245E-14  0.12500000000E+03  0.12500000000E+03 0.  0.
    3000001    1    3    3    0    0  0.12806235385E+02  0.90729027902E+01  0.11840879619E+02  0.19685620639E+02  0.10000000000E+01 0. -1.
    1000022    2    1    0    0    0  0.39520854597E+02  0.16126283708E+02  0.44545427982E+02  0.62499999599E+02  0.99999910716E+01 0.  0.
    3000022    2    3    3    0    0  0.26714619212E+02  0.70533809178E+01  0.32704548363E+02  0.42814378960E+02  0.25000018253E+00 0.  0.
    1000022    2    1    0    0    0 -0.39520854597E+02 -0.16126283708E+02 -0.44545427982E+02  0.62500000401E+02  0.99999960895E+01 0.  0.
    3000022    2    5    5    0    0 -0.38641973809E+02 -0.17016014029E+02 -0.43215820684E+02  0.60418677012E+02  0.25000245482E+00 0.  0.
        -13    1    4    4    0    0  0.18695158712E+02  0.49816403223E+01  0.22881276954E+02  0.29964805349E+02  0.10500000000E+00 0. -1.
         13    1    4    4    0    0  0.80194604999E+01  0.20717405955E+01  0.98232714097E+01  0.12849573611E+02  0.10500000000E+00 0.  1.
    3000001    1    5    5    0    0 -0.87888078794E+00  0.88973032120E+00 -0.13296072984E+01  0.20813233895E+01  0.10000000000E+01 0. -1.
        -13    1    6    6    0    0 -0.24344450741E+02 -0.10662161856E+02 -0.27240866374E+02  0.38057979494E+02  0.10500000000E+00 0.  1.
         13    1    6    6    0    0 -0.14297523068E+02 -0.63538521730E+01 -0.15974954310E+02  0.22360697518E+02  0.10500000000E+00 0. -1.
</event>
<event>
11    0  0.3448258E-009  0.9118800E+02  0.7816531E-02  0.1126479E+00
         25   -1    0    0    0    0  0.00000000000E+00  0.00000000000E+00  0.99999998245E-14  0.12500000000E+03  0.12500000000E+03 0.  0.
    3000001    1    3    3    0    0 -0.93237561413E+01 -0.54863755152E+01 -0.39597708386E+02  0.41061067379E+02  0.10000000000E+01 0. -1.
    1000022    2    1    0    0    0 -0.20707064104E+02 -0.68252386143E+01 -0.57713809681E+02  0.62500001273E+02  0.99999972608E+01 0.  0.
    3000022    2    3    3    0    0 -0.11383307963E+02 -0.13388630991E+01 -0.18116101295E+02  0.21438933894E+02  0.25001157994E+00 0.  0.
    1000022    2    1    0    0    0  0.20707064104E+02  0.68252386143E+01  0.57713809681E+02  0.62499998727E+02  0.99999813532E+01 0.  0.
    3000022    2    5    5    0    0  0.85892039552E+01  0.45045586933E+01  0.38025255724E+02  0.39243445956E+02  0.25000805580E+00 0.  0.
        -13    1    4    4    0    0 -0.67164438933E+01 -0.83053851080E+00 -0.10788551208E+02  0.12735944212E+02  0.10500000000E+00 0.  1.
         13    1    4    4    0    0 -0.46668640692E+01 -0.50832458830E+00 -0.73275500868E+01  0.87029896818E+01  0.10500000000E+00 0. -1.
    3000001    1    5    5    0    0  0.12117860149E+02  0.23206799209E+01  0.19688553957E+02  0.23256552771E+02  0.10000000000E+01 0. -1.
        -13    1    6    6    0    0  0.38632423345E+01  0.20686776428E+01  0.16959087000E+02  0.17516441573E+02  0.10500000000E+00 0.  1.
         13    1    6    6    0    0  0.47259616207E+01  0.24358810506E+01  0.21066168724E+02  0.21727004383E+02  0.10500000000E+00 0. -1.
</event>
<event>
11    0  0.3448258E-009  0.9118800E+02  0.7816531E-02  0.1126479E+00
         25   -1    0    0    0    0  0.00000000000E+00  0.00000000000E+00  0.99999998245E-14  0.12500000000E+03  0.12500000000E+03 0.  0.
    3000001    1    3    3    0    0  0.15102318344E+02 -0.19088962183E+02  0.26434708316E+02  0.35948050021E+02  0.10000000000E+01 0.  1.
    1000022    2    1    0    0    0  0.20094312023E+02 -0.38616264185E+02  0.43717884099E+02  0.62500002700E+02  0.99999856076E+01 0.  0.
    3000022    2    3    3    0    0  0.49919936782E+01 -0.19527302002E+02  0.17283175783E+02  0.26551952679E+02  0.25000307114E+00 0.  0.
    1000022    2    1    0    0    0 -0.20094312023E+02  0.38616264185E+02 -0.43717884099E+02  0.62499997300E+02  0.99999518585E+01 0.  0.
    3000022    2    5    5    0    0 -0.14887435972E+02  0.23607704600E+02 -0.21818657394E+02  0.35427048637E+02  0.24999679065E+00 0.  0.
        -13    1    4    4    0    0  0.37079845137E+01 -0.14383775708E+02  0.12755092094E+02  0.19579212244E+02  0.10500000000E+00 0. -1.
         13    1    4    4    0    0  0.12840091645E+01 -0.51435262941E+01  0.45280836893E+01  0.69727404347E+01  0.10500000000E+00 0.  1.
    3000001    1    5    5    0    0 -0.52068760512E+01  0.15008559585E+02 -0.21899226705E+02  0.27072948663E+02  0.10000000000E+01 0.  1.
        -13    1    6    6    0    0 -0.95028810926E+01  0.15010617041E+02 -0.13951178759E+02  0.22589151971E+02  0.10500000000E+00 0. -1.
         13    1    6    6    0    0 -0.53845548789E+01  0.85970875582E+01 -0.78674786351E+01  0.12837896666E+02  0.10500000000E+00 0.  1.
</event>
<event>
11    0  0.3448258E-009  0.9118800E+02  0.7816531E-02  0.1126479E+00
         25   -1    0    0    0    0  0.00000000000E+00  0.00000000000E+00  0.99999998245E-14  0.12500000000E+03  0.12500000000E+03 0.  0.
    3000001    1    3    3    0    0  0.33138176909E+02  0.15941879563E+01  0.55576314487E+00  0.33196220820E+02  0.10000000000E+01 0.  1.
    1000022    2    1    0    0    0  0.61124176126E+02  0.20466934194E+01 -0.81176474588E+01  0.62499999849E+02  0.99999959900E+01 0.  0.
    3000022    2    3    3    0    0  0.27985999217E+02  0.45250546310E+00 -0.86734106037E+01  0.29303779028E+02  0.25000094000E+00 0.  0.
    1000022    2    1    0    0    0 -0.61124176126E+02 -0.20466934194E+01  0.81176474588E+01  0.62500000151E+02  0.99999978829E+01 0.  0.
    3000022    2    5    5    0    0 -0.45878645676E+02 -0.20330099326E+01  0.10303875794E+02  0.47066077116E+02  0.25000050350E+00 0.  0.
        -13    1    4    4    0    0  0.12654524133E+02  0.16355225753E+00 -0.38665968515E+01  0.13233492607E+02  0.10500000000E+00 0. -1.
         13    1    4    4    0    0  0.15331475084E+02  0.28895320557E+00 -0.48068137522E+01  0.16070286421E+02  0.10500000000E+00 0.  1.
    3000001    1    5    5    0    0 -0.15245530449E+02 -0.13683486799E-01 -0.21862283353E+01  0.15433923035E+02  0.10000000000E+01 0. -1.
        -13    1    6    6    0    0 -0.32326088155E+02 -0.14205002328E+01  0.73039065560E+01  0.33171552154E+02  0.10500000000E+00 0.  1.
         13    1    6    6    0    0 -0.13552557521E+02 -0.61250969978E+00  0.29999692380E+01  0.13894524962E+02  0.10500000000E+00 0. -1.
</event>
<event>
11    0  0.3448258E-009  0.9118800E+02  0.7816531E-02  0.1126479E+00
         25   -1    0    0    0    0  0.00000000000E+00  0.00000000000E+00  0.99999998245E-14  0.12500000000E+03  0.12500000000E+03 0.  0.
    3000001    1    3    3    0    0  0.10269776014E+02  0.51661346327E+02  0.27930147785E+02  0.59627645929E+02  0.10000000000E+01 0. -1.
    1000022    2    1    0    0    0  0.10883361363E+02  0.52446988847E+02  0.30612348946E+02  0.62500000938E+02  0.10000000780E+02 0.  0.
    3000022    2    3    3    0    0  0.61358534863E+00  0.78564251980E+00  0.26822011610E+01  0.28723550093E+01  0.24999816381E+00 0.  0.
    1000022    2    1    0    0    0 -0.10883361363E+02 -0.52446988847E+02 -0.30612348946E+02  0.62499999062E+02  0.99999890501E+01 0.  0.
    3000022    2    5    5    0    0 -0.23952137826E+01 -0.14755214984E+02 -0.13825166831E+02  0.20362985052E+02  0.25000805887E+00 0.  0.
        -13    1    4    4    0    0  0.15396711688E+00  0.19047298064E+00  0.62125998115E+00  0.67599910770E+00  0.10500000000E+00 0. -1.
         13    1    4    4    0    0  0.45961823175E+00  0.59516953916E+00  0.20609411799E+01  0.21963559016E+01  0.10500000000E+00 0.  1.
    3000001    1    5    5    0    0 -0.84881475804E+01 -0.37691773863E+02 -0.16787182116E+02  0.42137014010E+02  0.10000000000E+01 0. -1.
        -13    1    6    6    0    0 -0.55577708274E+00 -0.34215970414E+01 -0.32212565781E+01  0.47332582246E+01  0.10500000000E+00 0. -1.
         13    1    6    6    0    0 -0.18394366998E+01 -0.11333617943E+02 -0.10603910253E+02  0.15629726827E+02  0.10500000000E+00 0.  1.
</event>
<event>
11    0  0.3448258E-009  0.9118800E+02  0.7816531E-02  0.1126479E+00
         25   -1    0    0    0    0  0.00000000000E+00  0.00000000000E+00  0.99999998245E-14  0.12500000000E+03  0.12500000000E+03 0.  0.
    3000001    1    3    3    0    0  0.32155435742E+02  0.33156052208E+02  0.10634662918E+02  0.47406665155E+02  0.10000000000E+01 0. -1.
    1000022    2    1    0    0    0  0.41365134239E+02  0.44946771855E+02  0.86580885110E+01  0.62500006927E+02  0.10000086925E+02 0.  0.
    3000022    2    3    3    0    0  0.92096984964E+01  0.11790719647E+02 -0.19765744074E+01  0.15093341772E+02  0.25000652503E+00 0.  0.
    1000022    2    1    0    0    0 -0.41365134239E+02 -0.44946771855E+02 -0.86580885110E+01  0.62499993073E+02  0.10000000335E+02 0.  0.
    3000022    2    5    5    0    0 -0.20943078074E+02 -0.27328329542E+02 -0.10057054066E+01  0.34445958520E+02  0.25000044039E+00 0.  0.
        -13    1    4    4    0    0  0.24838314355E+01  0.32393502796E+01 -0.54560825425E+00  0.41196507378E+01  0.10500000000E+00 0.  1.
         13    1    4    4    0    0  0.67258670609E+01  0.85513693675E+01 -0.14309661531E+01  0.10973691034E+02  0.10500000000E+00 0. -1.
    3000001    1    5    5    0    0 -0.20422056165E+02 -0.17618442312E+02 -0.76523831044E+01  0.28054034553E+02  0.10000000000E+01 0.  1.
        -13    1    6    6    0    0 -0.11661111100E+02 -0.15312054711E+02 -0.59380412294E+00  0.19256275857E+02  0.10500000000E+00 0. -1.
         13    1    6    6    0    0 -0.92819669745E+01 -0.12016274832E+02 -0.41190128370E+00  0.15189682663E+02  0.10500000000E+00 0.  1.
</event>
<event>
11    0  0.3448258E-009  0.9118800E+02  0.7816531E-02  0.1126479E+00
         25   -1    0    0    0    0  0.00000000000E+00  0.00000000000E+00  0.99999998245E-14  0.12500000000E+03  0.12500000000E+03 0.  0.
    3000001    1    3    3    0    0 -0.56698472467E+01  0.83336747015E+01 -0.11790729671E+02  0.15544085950E+02  0.10000000000E+01 0.  1.
    1000022    2    1    0    0    0 -0.14175872553E+02  0.21622881798E+02 -0.56015595955E+02  0.62499988550E+02  0.99998599300E+01 0.  0.
    3000022    2    3    3    0    0 -0.85060253067E+01  0.13289207096E+02 -0.44224866284E+02  0.46955902600E+02  0.24999877771E+00 0.  0.
    1000022    2    1    0    0    0  0.14175872553E+02 -0.21622881798E+02  0.56015595955E+02  0.62500011450E+02  0.10000003057E+02 0.  0.
    3000022    2    5    5    0    0  0.12946094663E+02 -0.11638576007E+02  0.31695617020E+02  0.36162583876E+02  0.25003167642E+00 0.  0.
        -13    1    4    4    0    0 -0.40714989175E+01  0.62972214643E+01 -0.21191326848E+02  0.22479222855E+02  0.10500000000E+00 0. -1.
         13    1    4    4    0    0 -0.44345263892E+01  0.69919856321E+01 -0.23033539436E+02  0.24476679745E+02  0.10500000000E+00 0.  1.
    3000001    1    5    5    0    0  0.12297778903E+01 -0.99843057910E+01  0.24319978935E+02  0.26337427574E+02  0.10000000000E+01 0.  1.
        -13    1    6    6    0    0  0.77661985296E+01 -0.69064532412E+01  0.18982794653E+02  0.21641868076E+02  0.10500000000E+00 0.  1.
         13    1    6    6    0    0  0.51798961335E+01 -0.47321227657E+01  0.12712822367E+02  0.14520715800E+02  0.10500000000E+00 0. -1.
</event>
<event>
11    0  0.3448258E-009  0.9118800E+02  0.7816531E-02  0.1126479E+00
         25   -1    0    0    0    0  0.00000000000E+00  0.00000000000E+00  0.99999998245E-14  0.12500000000E+03  0.12500000000E+03 0.  0.
    3000001    1    3    3    0    0  0.12587597587E+02 -0.94145976086E+01 -0.13486782889E+02  0.20735852378E+02  0.10000000000E+01 0. -1.
    1000022    2    1    0    0    0  0.28073936328E+02 -0.23896651984E+02 -0.49467693002E+02  0.62500011498E+02  0.10000145465E+02 0.  0.
    3000022    2    3    3    0    0  0.15486338740E+02 -0.14482054375E+02 -0.35980910113E+02  0.41764159120E+02  0.25001579387E+00 0.  0.
    1000022    2    1    0    0    0 -0.28073936328E+02  0.23896651984E+02  0.49467693002E+02  0.62499988502E+02  0.10000001747E+02 0.  0.
    3000022    2    5    5    0    0 -0.39162637559E+01 -0.34035008741E+00  0.58273936985E+01  0.70337723276E+01  0.24995169897E+00 0.  0.
        -13    1    4    4    0    0  0.63343281450E+01 -0.59819420754E+01 -0.14691097103E+02  0.17080594343E+02  0.10500000000E+00 0. -1.
         13    1    4    4    0    0  0.91520105954E+01 -0.85001122997E+01 -0.21289813011E+02  0.24683564777E+02  0.10500000000E+00 0.  1.
    3000001    1    5    5    0    0 -0.24157672572E+02  0.24237002071E+02  0.43640299303E+02  0.55466216175E+02  0.10000000000E+01 0.  1.
        -13    1    6    6    0    0 -0.25664481526E+01 -0.19801246232E+00  0.37230724570E+01  0.45274892131E+01  0.10500000000E+00 0. -1.
         13    1    6    6    0    0 -0.13498156033E+01 -0.14233762509E+00  0.21043212416E+01  0.25062831145E+01  0.10500000000E+00 0.  1.
</event>
<event>
11    0  0.3448258E-009  0.9118800E+02  0.7816531E-02  0.1126479E+00
         25   -1    0    0    0    0  0.00000000000E+00  0.00000000000E+00  0.99999998245E-14  0.12500000000E+03  0.12500000000E+03 0.  0.
    3000001    1    3    3    0    0 -0.15318098821E+02 -0.19044636896E+01 -0.30460113029E+02  0.34162693383E+02  0.10000000000E+01 0.  1.
    1000022    2    1    0    0    0 -0.19527168671E+02 -0.22455065044E+01 -0.58479883306E+02  0.62499993919E+02  0.99999936289E+01 0.  0.
    3000022    2    3    3    0    0 -0.42090698507E+01 -0.34104281480E+00 -0.28019770277E+02  0.28337300536E+02  0.24999216124E+00 0.  0.
    1000022    2    1    0    0    0  0.19527168671E+02  0.22455065044E+01  0.58479883306E+02  0.62500006081E+02  0.10000069641E+02 0.  0.
    3000022    2    5    5    0    0  0.16316566111E+01  0.28295028912E+01  0.16951192488E+02  0.17264814418E+02  0.25000045317E+00 0.  0.
        -13    1    4    4    0    0 -0.11884096253E+01 -0.11208060134E+00 -0.81924363889E+01  0.82796085949E+01  0.10500000000E+00 0.  1.
         13    1    4    4    0    0 -0.30206602255E+01 -0.22896221346E+00 -0.19827333888E+02  0.20057691941E+02  0.10500000000E+00 0. -1.
    3000001    1    5    5    0    0  0.17895512060E+02 -0.58399638678E+00  0.41528690818E+02  0.45235191663E+02  0.10000000000E+01 0.  1.
        -13    1    6    6    0    0  0.52722143623E+00  0.82473665023E+00  0.50422271583E+01  0.51374344474E+01  0.10500000000E+00 0. -1.
         13    1    6    6    0    0  0.11044351748E+01  0.20047662409E+01  0.11908965330E+02  0.12127379971E+02  0.10500000000E+00 0.  1.
</event>
<event>
11    0  0.3448258E-009  0.9118800E+02  0.7816531E-02  0.1126479E+00
         25   -1    0    0    0    0  0.00000000000E+00  0.00000000000E+00  0.99999998245E-14  0.12500000000E+03  0.12500000000E+03 0.  0.
    3000001    1    3    3    0    0 -0.12181682203E+01 -0.19134483163E+02 -0.18047236020E+02  0.26349859728E+02  0.10000000000E+01 0.  1.
    1000022    2    1    0    0    0  0.86018292850E+01 -0.44272555935E+02 -0.42097497807E+02  0.62500000060E+02  0.10000000494E+02 0.  0.
    3000022    2    3    3    0    0  0.98199975053E+01 -0.25138072772E+02 -0.24050261786E+02  0.36150140332E+02  0.25000065735E+00 0.  0.
    1000022    2    1    0    0    0 -0.86018292850E+01  0.44272555935E+02  0.42097497807E+02  0.62499999940E+02  0.99999997391E+01 0.  0.
    3000022    2    5    5    0    0  0.74251869049E+00  0.22579408199E+01  0.54896522020E+01  0.59873546096E+01  0.25000634113E+00 0.  0.
        -13    1    4    4    0    0  0.41191112293E+01 -0.10446457657E+02 -0.10078976845E+02  0.15089478260E+02  0.10500000000E+00 0. -1.
         13    1    4    4    0    0  0.57008862761E+01 -0.14691615115E+02 -0.13971284941E+02  0.21060662072E+02  0.10500000000E+00 0.  1.
    3000001    1    5    5    0    0 -0.93443479755E+01  0.42014615115E+02  0.36607845605E+02  0.56512645330E+02  0.10000000000E+01 0. -1.
        -13    1    6    6    0    0  0.39122805920E+00  0.13891008349E+01  0.33342038492E+01  0.36346390236E+01  0.10500000000E+00 0.  1.
         13    1    6    6    0    0  0.35129063129E+00  0.86883998498E+00  0.21554483528E+01  0.23527155860E+01  0.10500000000E+00 0. -1.
</event>
<event>
11    0  0.3448258E-009  0.9118800E+02  0.7816531E-02  0.1126479E+00
         25   -1    0    0    0    0  0.00000000000E+00  0.00000000000E+00  0.99999998245E-14  0.12500000000E+03  0.12500000000E+03 0.  0.
    3000001    1    3    3    0    0  0.41744838500E+01 -0.32485992012E+01 -0.44080365323E+01  0.69577653204E+01  0.10000000000E+01 0.  1.
    1000022    2    1    0    0    0  0.37745749089E+02 -0.45344195224E+02 -0.18039191464E+02  0.62500000926E+02  0.10000003618E+02 0.  0.
    3000022    2    3    3    0    0  0.33571265239E+02 -0.42095596022E+02 -0.13631154932E+02  0.55542235606E+02  0.24999420362E+00 0.  0.
    1000022    2    1    0    0    0 -0.37745749089E+02  0.45344195224E+02  0.18039191464E+02  0.62499999074E+02  0.99999920393E+01 0.  0.
    3000022    2    5    5    0    0 -0.18711592641E+02  0.26108450652E+02  0.14306897352E+02  0.35164253241E+02  0.24999908862E+00 0.  0.
        -13    1    4    4    0    0  0.14179648847E+02 -0.17819521159E+02 -0.57031745658E+01  0.23476264628E+02  0.10500000000E+00 0.  1.
         13    1    4    4    0    0  0.19391616392E+02 -0.24276074863E+02 -0.79279803662E+01  0.32065970978E+02  0.10500000000E+00 0. -1.
    3000001    1    5    5    0    0 -0.19034156448E+02  0.19235744572E+02  0.37322941127E+01  0.27335745833E+02  0.10000000000E+01 0.  1.
        -13    1    6    6    0    0 -0.12957466520E+02  0.18040578008E+02  0.98466603094E+01  0.24296628114E+02  0.10500000000E+00 0. -1.
         13    1    6    6    0    0 -0.57541261212E+01  0.80678726441E+01  0.44602370422E+01  0.10867625127E+02  0.10500000000E+00 0.  1.
</event>
<event>
11    0  0.3448258E-009  0.9118800E+02  0.7816531E-02  0.1126479E+00
         25   -1    0    0    0    0  0.00000000000E+00  0.00000000000E+00  0.99999998245E-14  0.12500000000E+03  0.12500000000E+03 0.  0.
    3000001    1    3    3    0    0  0.46551361413E+02  0.19353336011E+01  0.18022022098E+02  0.49965668674E+02  0.10000000000E+01 0.  1.
    1000022    2    1    0    0    0  0.56255802386E+02 -0.12125561234E+01  0.25299494446E+02  0.62500001008E+02  0.10000005617E+02 0.  0.
    3000022    2    3    3    0    0  0.97044409729E+01 -0.31478897246E+01  0.72774723480E+01  0.12534332334E+02  0.24999792860E+00 0.  0.
    1000022    2    1    0    0    0 -0.56255802386E+02  0.12125561234E+01 -0.25299494446E+02  0.62499998992E+02  0.99999930145E+01 0.  0.
    3000022    2    5    5    0    0 -0.38982339056E+02  0.45369723980E+01 -0.14525549251E+02  0.41848069928E+02  0.24999768980E+00 0.  0.
        -13    1    4    4    0    0  0.60566850113E+01 -0.19103922050E+01  0.44906680926E+01  0.77788274580E+01  0.10500000000E+00 0.  1.
         13    1    4    4    0    0  0.36477559616E+01 -0.12374975196E+01  0.27868042554E+01  0.47555048759E+01  0.10500000000E+00 0. -1.
    3000001    1    5    5    0    0 -0.17273463330E+02 -0.33244162746E+01 -0.10773945195E+02  0.20651929064E+02  0.10000000000E+01 0. -1.
        -13    1    6    6    0    0 -0.19207904391E+02  0.21674437949E+01 -0.71490901840E+01  0.20609753011E+02  0.10500000000E+00 0. -1.
         13    1    6    6    0    0 -0.19774434665E+02  0.23695286031E+01 -0.73764590666E+01  0.21238316918E+02  0.10500000000E+00 0.  1.
</event>
<event>
11    0  0.3448258E-009  0.9118800E+02  0.7816531E-02  0.1126479E+00
         25   -1    0    0    0    0  0.00000000000E+00  0.00000000000E+00  0.99999998245E-14  0.12500000000E+03  0.12500000000E+03 0.  0.
    3000001    1    3    3    0    0 -0.54768057413E+00 -0.33405497898E+01 -0.26891695061E+02  0.27122361442E+02  0.10000000000E+01 0.  1.
    1000022    2    1    0    0    0  0.18447082542E+01 -0.18114410289E+02 -0.58946714890E+02  0.62499999541E+02  0.99999968853E+01 0.  0.
    3000022    2    3    3    0    0  0.23923888284E+01 -0.14773860499E+02 -0.32055019829E+02  0.35377638100E+02  0.25000589272E+00 0.  0.
    1000022    2    1    0    0    0 -0.18447082542E+01  0.18114410289E+02  0.58946714890E+02  0.62500000459E+02  0.10000002618E+02 0.  0.
    3000022    2    5    5    0    0 -0.47448983185E+01  0.67737880540E+01  0.16512629291E+02  0.18469642344E+02  0.24999511819E+00 0.  0.
        -13    1    4    4    0    0  0.12452794902E+01 -0.81044670610E+01 -0.17580614109E+02  0.19399023811E+02  0.10500000000E+00 0. -1.
         13    1    4    4    0    0  0.11471093381E+01 -0.66693934378E+01 -0.14474405720E+02  0.15978614289E+02  0.10500000000E+00 0.  1.
    3000001    1    5    5    0    0  0.29001900642E+01  0.11340622235E+02  0.42434085599E+02  0.44030358115E+02  0.10000000000E+01 0. -1.
        -13    1    6    6    0    0 -0.35999932497E+01  0.51101620870E+01  0.12510790714E+02  0.13985872058E+02  0.10500000000E+00 0.  1.
         13    1    6    6    0    0 -0.11449050688E+01  0.16636259670E+01  0.40018385771E+01  0.44837702854E+01  0.10500000000E+00 0. -1.
</event>
<event>
11    0  0.3448258E-009  0.9118800E+02  0.7816531E-02  0.1126479E+00
         25   -1    0    0    0    0  0.00000000000E+00  0.00000000000E+00  0.99999998245E-14  0.12500000000E+03  0.12500000000E+03 0.  0.
    3000001    1    3    3    0    0 -0.79696818848E+01 -0.10170700821E+02  0.58788274897E+00  0.12973225915E+02  0.10000000000E+01 0. -1.
    1000022    2    1    0    0    0 -0.49296725674E+02 -0.36510445481E+02 -0.65627999038E+01  0.62500001105E+02  0.10000000206E+02 0.  0.
    3000022    2    3    3    0    0 -0.41327043789E+02 -0.26339744661E+02 -0.71506826528E+01  0.49526775190E+02  0.25000225076E+00 0.  0.
    1000022    2    1    0    0    0  0.49296725674E+02  0.36510445481E+02  0.65627999038E+01  0.62499998895E+02  0.99999863906E+01 0.  0.
    3000022    2    5    5    0    0  0.45210006461E+02  0.35433575650E+02  0.78374689213E+01  0.57973885367E+02  0.24999585060E+00 0.  0.
        -13    1    4    4    0    0 -0.10256271919E+02 -0.65587838485E+01 -0.17588334253E+01  0.12300946275E+02  0.10500000000E+00 0. -1.
         13    1    4    4    0    0 -0.31070771870E+02 -0.19780960812E+02 -0.53918492275E+01  0.37225828914E+02  0.10500000000E+00 0.  1.
    3000001    1    5    5    0    0  0.40867192132E+01  0.10768698318E+01 -0.12746690175E+01  0.45261135278E+01  0.10000000000E+01 0. -1.
        -13    1    6    6    0    0  0.30230198490E+02  0.23650238228E+02  0.51954369934E+01  0.38732444533E+02  0.10500000000E+00 0. -1.
         13    1    6    6    0    0  0.14979807971E+02  0.11783337421E+02  0.26420319279E+01  0.19241440834E+02  0.10500000000E+00 0.  1.
</event>
<event>
11    0  0.3448258E-009  0.9118800E+02  0.7816531E-02  0.1126479E+00
         25   -1    0    0    0    0  0.00000000000E+00  0.00000000000E+00  0.99999998245E-14  0.12500000000E+03  0.12500000000E+03 0.  0.
    3000001    1    3    3    0    0  0.14855310594E+02 -0.25498030492E+02  0.32776166125E+02  0.44114701379E+02  0.10000000000E+01 0. -1.
    1000022    2    1    0    0    0  0.24772676308E+02 -0.38179742787E+02  0.41651790767E+02  0.62499999123E+02  0.99999982782E+01 0.  0.
    3000022    2    3    3    0    0  0.99173657138E+01 -0.12681712295E+02  0.88756246412E+01  0.18385297745E+02  0.24998190512E+00 0.  0.
    1000022    2    1    0    0    0 -0.24772676308E+02  0.38179742787E+02 -0.41651790767E+02  0.62500000877E+02  0.10000009238E+02 0.  0.
    3000022    2    5    5    0    0 -0.16102591999E+02  0.24439287193E+02 -0.20160174678E+02  0.35539658817E+02  0.24995642507E+00 0.  0.
        -13    1    4    4    0    0  0.67660184429E+01 -0.85728238589E+01  0.60031100625E+01  0.12462771357E+02  0.10500000000E+00 0. -1.
         13    1    4    4    0    0  0.31513472709E+01 -0.41088884360E+01  0.28725145787E+01  0.59225263871E+01  0.10500000000E+00 0.  1.
    3000001    1    5    5    0    0 -0.86700843095E+01  0.13740455595E+02 -0.21491616089E+02  0.26960342060E+02  0.10000000000E+01 0. -1.
        -13    1    6    6    0    0 -0.73281668423E+01  0.11240276109E+02 -0.92623988192E+01  0.16304873295E+02  0.10500000000E+00 0.  1.
         13    1    6    6    0    0 -0.87744251564E+01  0.13199011084E+02 -0.10897775859E+02  0.19234785522E+02  0.10500000000E+00 0. -1.
</event>
<event>
11    0  0.3448258E-009  0.9118800E+02  0.7816531E-02  0.1126479E+00
         25   -1    0    0    0    0  0.00000000000E+00  0.00000000000E+00  0.99999998245E-14  0.12500000000E+03  0.12500000000E+03 0.  0.
    3000001    1    3    3    0    0 -0.35918523784E+02 -0.26079423178E+02 -0.21065045890E+00  0.44399561233E+02  0.10000000000E+01 0.  1.
    1000022    2    1    0    0    0 -0.48204469478E+02 -0.38030028375E+02 -0.60246028397E+01  0.62500002318E+02  0.10000025727E+02 0.  0.
    3000022    2    3    3    0    0 -0.12285945694E+02 -0.11950605197E+02 -0.58139523808E+01  0.18100441084E+02  0.24999800274E+00 0.  0.
    1000022    2    1    0    0    0  0.48204469478E+02  0.38030028375E+02  0.60246028397E+01  0.62499997682E+02  0.99999967543E+01 0.  0.
    3000022    2    5    5    0    0  0.41425781455E+02  0.28967710293E+02  0.25283447529E+01  0.50613028307E+02  0.24999679251E+00 0.  0.
        -13    1    4    4    0    0 -0.50455943570E+01 -0.48290482799E+01 -0.24003248593E+01  0.73858184472E+01  0.10500000000E+00 0.  1.
         13    1    4    4    0    0 -0.72403513368E+01 -0.71215569169E+01 -0.34136275215E+01  0.10714622637E+02  0.10500000000E+00 0. -1.
    3000001    1    5    5    0    0  0.67786880221E+01  0.90623180818E+01  0.34962580868E+01  0.11886969375E+02  0.10000000000E+01 0. -1.
        -13    1    6    6    0    0  0.29582267455E+02  0.20727031644E+02  0.18309284908E+01  0.36167439952E+02  0.10500000000E+00 0. -1.
         13    1    6    6    0    0  0.11843514000E+02  0.82406786492E+01  0.69741626206E+00  0.14445588355E+02  0.10500000000E+00 0.  1.
</event>
<event>
11    0  0.3448258E-009  0.9118800E+02  0.7816531E-02  0.1126479E+00
         25   -1    0    0    0    0  0.00000000000E+00  0.00000000000E+00  0.99999998245E-14  0.12500000000E+03  0.12500000000E+03 0.  0.
    3000001    1    3    3    0    0  0.88721026236E+00  0.14498418345E+02 -0.14321674962E+02  0.20423066622E+02  0.10000000000E+01 0. -1.
    1000022    2    1    0    0    0  0.15629423552E+02  0.45785885217E+02 -0.38283466388E+02  0.62500000761E+02  0.10000006539E+02 0.  0.
    3000022    2    3    3    0    0  0.14742213290E+02  0.31287466872E+02 -0.23961791426E+02  0.42076934139E+02  0.25000441610E+00 0.  0.
    1000022    2    1    0    0    0 -0.15629423552E+02 -0.45785885217E+02  0.38283466388E+02  0.62499999239E+02  0.99999970261E+01 0.  0.
    3000022    2    5    5    0    0 -0.12883515672E+02 -0.22943109068E+02  0.21944381022E+02  0.34263530924E+02  0.24992637568E+00 0.  0.
        -13    1    4    4    0    0  0.69073687910E+01  0.14778653811E+02 -0.11247796410E+02  0.19815254254E+02  0.10500000000E+00 0. -1.
         13    1    4    4    0    0  0.78348444989E+01  0.16508813061E+02 -0.12713995016E+02  0.22261679884E+02  0.10500000000E+00 0.  1.
    3000001    1    5    5    0    0 -0.27459078800E+01 -0.22842776149E+02  0.16339085366E+02  0.28236468315E+02  0.10000000000E+01 0.  1.
        -13    1    6    6    0    0 -0.66287229974E+01 -0.11860397020E+02  0.11250726226E+02  0.17640829109E+02  0.10500000000E+00 0.  1.
         13    1    6    6    0    0 -0.62547926749E+01 -0.11082712048E+02  0.10693654796E+02  0.16622701815E+02  0.10500000000E+00 0. -1.
</event>
<event>
11    0  0.3448258E-009  0.9118800E+02  0.7816531E-02  0.1126479E+00
         25   -1    0    0    0    0  0.00000000000E+00  0.00000000000E+00  0.99999998245E-14  0.12500000000E+03  0.12500000000E+03 0.  0.
    3000001    1    3    3    0    0  0.97263714664E+01  0.41113603832E+02  0.21588680664E+01  0.42315380576E+02  0.10000000000E+01 0.  1.
    1000022    2    1    0    0    0  0.19124719439E+02  0.58185931678E+02  0.74089252372E+01  0.62500001586E+02  0.10000024309E+02 0.  0.
    3000022    2    3    3    0    0  0.93983479729E+01  0.17072327847E+02  0.52500571708E+01  0.20184621010E+02  0.25000462952E+00 0.  0.
    1000022    2    1    0    0    0 -0.19124719439E+02 -0.58185931678E+02 -0.74089252372E+01  0.62499998414E+02  0.10000004485E+02 0.  0.
    3000022    2    5    5    0    0 -0.72905792840E+01 -0.21604425320E+02 -0.76078494049E+01  0.24038419514E+02  0.25000093773E+00 0.  0.
        -13    1    4    4    0    0  0.46026862976E+01  0.82218467874E+01  0.25479955797E+01  0.97614953887E+01  0.10500000000E+00 0.  1.
         13    1    4    4    0    0  0.47956616753E+01  0.88504810592E+01  0.27020615911E+01  0.10423125622E+02  0.10500000000E+00 0. -1.
    3000001    1    5    5    0    0 -0.11834140155E+02 -0.36581506358E+02  0.19892416765E+00  0.38461578900E+02  0.10000000000E+01 0.  1.
        -13    1    6    6    0    0 -0.34580357674E+01 -0.10264124012E+02 -0.35428883932E+01  0.11396198325E+02  0.10500000000E+00 0.  1.
         13    1    6    6    0    0 -0.38325435166E+01 -0.11340301308E+02 -0.40649610117E+01  0.12642221189E+02  0.10500000000E+00 0. -1.
</event>
<event>
11    0  0.3448258E-009  0.9118800E+02  0.7816531E-02  0.1126479E+00
         25   -1    0    0    0    0  0.00000000000E+00  0.00000000000E+00  0.99999998245E-14  0.12500000000E+03  0.12500000000E+03 0.  0.
    3000001    1    3    3    0    0 -0.13862652592E+02 -0.47911986722E+02 -0.30533680566E+02  0.58489633760E+02  0.10000000000E+01 0.  1.
    1000022    2    1    0    0    0 -0.16667704632E+02 -0.50746857483E+02 -0.30873846401E+02  0.62499997933E+02  0.99999713972E+01 0.  0.
    3000022    2    3    3    0    0 -0.28050520409E+01 -0.28348707608E+01 -0.34016583538E+00  0.40103641729E+01  0.24999764063E+00 0.  0.
    1000022    2    1    0    0    0  0.16667704632E+02  0.50746857483E+02  0.30873846401E+02  0.62500002067E+02  0.99999972341E+01 0.  0.
    3000022    2    5    5    0    0  0.11918678381E+02  0.43761482981E+02  0.28858506846E+02  0.53758703491E+02  0.24999327811E+00 0.  0.
        -13    1    4    4    0    0 -0.16128934056E+01 -0.16891359728E+01 -0.14972707293E+00  0.23426584618E+01  0.10500000000E+00 0.  1.
         13    1    4    4    0    0 -0.11921586353E+01 -0.11457347881E+01 -0.19043876245E+00  0.16677057110E+01  0.10500000000E+00 0. -1.
    3000001    1    5    5    0    0  0.47490262513E+01  0.69853745016E+01  0.20153395551E+01  0.87412985755E+01  0.10000000000E+01 0. -1.
        -13    1    6    6    0    0  0.58985088082E+01  0.21559068016E+02  0.14147322217E+02  0.26452666610E+02  0.10500000000E+00 0.  1.
         13    1    6    6    0    0  0.60201695729E+01  0.22202414965E+02  0.14711184630E+02  0.27306036881E+02  0.10500000000E+00 0. -1.
</event>
<event>
11    0  0.3448258E-009  0.9118800E+02  0.7816531E-02  0.1126479E+00
         25   -1    0    0    0    0  0.00000000000E+00  0.00000000000E+00  0.99999998245E-14  0.12500000000E+03  0.12500000000E+03 0.  0.
    3000001    1    3    3    0    0  0.27257315573E+01  0.23496284116E+01 -0.17470513625E+01  0.41234154118E+01  0.10000000000E+01 0.  1.
    1000022    2    1    0    0    0  0.13341397863E+02  0.55729002282E+02 -0.22859003795E+02  0.62500011435E+02  0.10000139130E+02 0.  0.
    3000022    2    3    3    0    0  0.10615666306E+02  0.53379373870E+02 -0.21111952433E+02  0.58376596023E+02  0.25000371457E+00 0.  0.
    1000022    2    1    0    0    0 -0.13341397863E+02 -0.55729002282E+02  0.22859003795E+02  0.62499988565E+02  0.99999961901E+01 0.  0.
    3000022    2    5    5    0    0 -0.18320554244E+01 -0.11278652595E+02  0.55294568463E+00  0.11442581863E+02  0.24999865564E+00 0.  0.
        -13    1    4    4    0    0  0.70074273941E+01  0.35368111074E+02 -0.14037567892E+02  0.38692010247E+02  0.10500000000E+00 0.  1.
         13    1    4    4    0    0  0.36082389119E+01  0.18011262796E+02 -0.70743845405E+01  0.19684585776E+02  0.10500000000E+00 0. -1.
    3000001    1    5    5    0    0 -0.11509342439E+02 -0.44450349687E+02  0.22306058111E+02  0.51057406702E+02  0.10000000000E+01 0. -1.
        -13    1    6    6    0    0 -0.86249707960E+00 -0.52635209347E+01  0.19113523102E+00  0.53381749240E+01  0.10500000000E+00 0. -1.
         13    1    6    6    0    0 -0.96955834478E+00 -0.60151316600E+01  0.36181045361E+00  0.61044069389E+01  0.10500000000E+00 0.  1.
</event>
<event>
11    0  0.3448258E-009  0.9118800E+02  0.7816531E-02  0.1126479E+00
         25   -1    0    0    0    0  0.00000000000E+00  0.00000000000E+00  0.99999998245E-14  0.12500000000E+03  0.12500000000E+03 0.  0.
    3000001    1    3    3    0    0  0.19853621018E+01  0.50049892722E+02 -0.77558697697E+01  0.50696024894E+02  0.10000000000E+01 0.  1.
    1000022    2    1    0    0    0 -0.58682133720E+00  0.60308508655E+02 -0.12991898265E+02  0.62499999872E+02  0.99999994014E+01 0.  0.
    3000022    2    3    3    0    0 -0.25721834390E+01  0.10258615933E+02 -0.52360284954E+01  0.11803974978E+02  0.25000475913E+00 0.  0.
    1000022    2    1    0    0    0  0.58682133720E+00 -0.60308508655E+02  0.12991898265E+02  0.62500000128E+02  0.10000000999E+02 0.  0.
    3000022    2    5    5    0    0 -0.28034278861E+01 -0.35961020187E+02  0.11468022308E+02  0.37850128273E+02  0.24998773731E+00 0.  0.
        -13    1    4    4    0    0 -0.16865600320E+01  0.68315091637E+01 -0.35359881345E+01  0.78758008661E+01  0.10500000000E+00 0. -1.
         13    1    4    4    0    0 -0.88562340691E+00  0.34271067691E+01 -0.17000403609E+01  0.39281741120E+01  0.10500000000E+00 0.  1.
    3000001    1    5    5    0    0  0.33902492233E+01 -0.24347488468E+02  0.15238759570E+01  0.24649871854E+02  0.10000000000E+01 0.  1.
        -13    1    6    6    0    0 -0.17164548521E+01 -0.21457707307E+02  0.68922086768E+01  0.22602941967E+02  0.10500000000E+00 0. -1.
         13    1    6    6    0    0 -0.10869730340E+01 -0.14503312880E+02  0.45758136313E+01  0.15247186307E+02  0.10500000000E+00 0.  1.
</event>
<event>
11    0  0.3448258E-009  0.9118800E+02  0.7816531E-02  0.1126479E+00
         25   -1    0    0    0    0  0.00000000000E+00  0.00000000000E+00  0.99999998245E-14  0.12500000000E+03  0.12500000000E+03 0.  0.
    3000001    1    3    3    0    0 -0.55917931900E+01  0.70885068943E+01 -0.49729605032E+01  0.10355936328E+02  0.10000000000E+01 0. -1.
    1000022    2    1    0    0    0 -0.36180699731E+02  0.25496668068E+02 -0.42978214478E+02  0.62500000472E+02  0.10000001184E+02 0.  0.
    3000022    2    3    3    0    0 -0.30588906541E+02  0.18408161174E+02 -0.38005253975E+02  0.52144064144E+02  0.24998910992E+00 0.  0.
    1000022    2    1    0    0    0  0.36180699731E+02 -0.25496668068E+02  0.42978214478E+02  0.62499999528E+02  0.99999952818E+01 0.  0.
    3000022    2    5    5    0    0  0.98121537694E+01 -0.46156409471E+01  0.56013473045E+01  0.12207378703E+02  0.25000042526E+00 0.  0.
        -13    1    4    4    0    0 -0.14672959794E+02  0.89028340615E+01 -0.18308753505E+02  0.25095371752E+02  0.10500000000E+00 0. -1.
         13    1    4    4    0    0 -0.15915946747E+02  0.95053271124E+01 -0.19696500470E+02  0.27048692392E+02  0.10500000000E+00 0.  1.
    3000001    1    5    5    0    0  0.26368545961E+02 -0.20881027121E+02  0.37376867174E+02  0.50292620825E+02  0.10000000000E+01 0.  1.
        -13    1    6    6    0    0  0.49791255191E+01 -0.23790546936E+01  0.27840434649E+01  0.61817081122E+01  0.10500000000E+00 0. -1.
         13    1    6    6    0    0  0.48330282504E+01 -0.22365862535E+01  0.28173038396E+01  0.60256705903E+01  0.10500000000E+00 0.  1.
</event>
<event>
11    0  0.3448258E-009  0.9118800E+02  0.7816531E-02  0.1126479E+00
         25   -1    0    0    0    0  0.00000000000E+00  0.00000000000E+00  0.99999998245E-14  0.12500000000E+03  0.12500000000E+03 0.  0.
    3000001    1    3    3    0    0 -0.33266370660E+02 -0.13771410992E+02 -0.14108928999E+02  0.38682878061E+02  0.10000000000E+01 0.  1.
    1000022    2    1    0    0    0 -0.48904951758E+02 -0.24695922866E+02 -0.28366651620E+02  0.62500000701E+02  0.10000012543E+02 0.  0.
    3000022    2    3    3    0    0 -0.15638581098E+02 -0.10924511873E+02 -0.14257722621E+02  0.23817122640E+02  0.24999615326E+00 0.  0.
    1000022    2    1    0    0    0  0.48904951758E+02  0.24695922866E+02  0.28366651620E+02  0.62499999299E+02  0.10000003778E+02 0.  0.
    3000022    2    5    5    0    0  0.68192773034E+01  0.32738384880E+01  0.33957187849E+00  0.75761712071E+01  0.24999942518E+00 0.  0.
        -13    1    4    4    0    0 -0.75179291711E+01 -0.53203598707E+01 -0.69305042845E+01  0.11526855721E+02  0.10500000000E+00 0.  1.
         13    1    4    4    0    0 -0.81206519274E+01 -0.56041520023E+01 -0.73272183367E+01  0.12290266919E+02  0.10500000000E+00 0. -1.
    3000001    1    5    5    0    0  0.42085674455E+02  0.21422084378E+02  0.28027079742E+02  0.54923828092E+02  0.10000000000E+01 0.  1.
        -13    1    6    6    0    0  0.16908597931E+01  0.78648392964E+00  0.75483692093E-01  0.18693010991E+01  0.10500000000E+00 0.  1.
         13    1    6    6    0    0  0.51284175103E+01  0.24873545583E+01  0.26408818640E+00  0.57068701080E+01  0.10500000000E+00 0. -1.
</event>
<event>
11    0  0.3448258E-009  0.9118800E+02  0.7816531E-02  0.1126479E+00
         25   -1    0    0    0    0  0.00000000000E+00  0.00000000000E+00  0.99999998245E-14  0.12500000000E+03  0.12500000000E+03 0.  0.
    3000001    1    3    3    0    0  0.82655505033E+01 -0.62904836833E+01 -0.39100526068E+02  0.40469008499E+02  0.10000000000E+01 0. -1.
    1000022    2    1    0    0    0  0.19470599932E+02 -0.10544620441E+02 -0.57584340914E+02  0.62500003142E+02  0.10000039609E+02 0.  0.
    3000022    2    3    3    0    0  0.11205049429E+02 -0.42541367578E+01 -0.18483814846E+02  0.22030994643E+02  0.25000281115E+00 0.  0.
    1000022    2    1    0    0    0 -0.19470599932E+02  0.10544620441E+02  0.57584340914E+02  0.62499996858E+02  0.10000000339E+02 0.  0.
    3000022    2    5    5    0    0 -0.10282402112E+00  0.48952072543E+00  0.11358671370E+02  0.11372427985E+02  0.24999934161E+00 0.  0.
        -13    1    4    4    0    0  0.58004670412E+01 -0.21321428400E+01 -0.95614096073E+01  0.11385211007E+02  0.10500000000E+00 0. -1.
         13    1    4    4    0    0  0.54045823879E+01 -0.21219939178E+01 -0.89224052391E+01  0.10645783636E+02  0.10500000000E+00 0.  1.
    3000001    1    5    5    0    0 -0.19367775911E+02  0.10055099716E+02  0.46225669545E+02  0.51127568874E+02  0.10000000000E+01 0. -1.
        -13    1    6    6    0    0 -0.26850288232E-01  0.24142633709E+00  0.68210831594E+01  0.68262147696E+01  0.10500000000E+00 0.  1.
         13    1    6    6    0    0 -0.75973732886E-01  0.24809438834E+00  0.45375882102E+01  0.45462132153E+01  0.10500000000E+00 0. -1.
</event>
<event>
11    0  0.3448258E-009  0.9118800E+02  0.7816531E-02  0.1126479E+00
         25   -1    0    0    0    0  0.00000000000E+00  0.00000000000E+00  0.99999998245E-14  0.12500000000E+03  0.12500000000E+03 0.  0.
    3000001    1    3    3    0    0 -0.67599606846E+01 -0.30579053337E+02  0.40039034350E+01  0.31588080254E+02  0.10000000000E+01 0.  1.
    1000022    2    1    0    0    0 -0.13148407915E+02 -0.60248741804E+02 -0.18596868122E+01  0.62500000965E+02  0.10000008297E+02 0.  0.
    3000022    2    3    3    0    0 -0.63884472300E+01 -0.29669688467E+02 -0.58635902472E+01  0.30911920711E+02  0.24995939410E+00 0.  0.
    1000022    2    1    0    0    0  0.13148407915E+02  0.60248741804E+02  0.18596868122E+01  0.62499999035E+02  0.99999962370E+01 0.  0.
    3000022    2    5    5    0    0  0.10818936660E+02  0.55508487064E+02 -0.67332540879E+00  0.56557558271E+02  0.25000778428E+00 0.  0.
        -13    1    4    4    0    0 -0.34673693407E+01 -0.16312457528E+02 -0.32729452159E+01  0.16995355723E+02  0.10500000000E+00 0.  1.
         13    1    4    4    0    0 -0.29210778893E+01 -0.13357230939E+02 -0.25906450313E+01  0.13916564988E+02  0.10500000000E+00 0. -1.
    3000001    1    5    5    0    0  0.23294712548E+01  0.47402547399E+01  0.25330122210E+01  0.59424407643E+01  0.10000000000E+01 0. -1.
        -13    1    6    6    0    0  0.44608681270E+01  0.23206579091E+02 -0.30252735463E+00  0.23633603308E+02  0.10500000000E+00 0.  1.
         13    1    6    6    0    0  0.63580685328E+01  0.32301907973E+02 -0.37079805416E+00  0.32923954963E+02  0.10500000000E+00 0. -1.
</event>
<event>
11    0  0.3448258E-009  0.9118800E+02  0.7816531E-02  0.1126479E+00
         25   -1    0    0    0    0  0.00000000000E+00  0.00000000000E+00  0.99999998245E-14  0.12500000000E+03  0.12500000000E+03 0.  0.
    3000001    1    3    3    0    0  0.32289116672E+01  0.26280373004E+01  0.85745146982E+01  0.95840885282E+01  0.10000000000E+01 0. -1.
    1000022    2    1    0    0    0  0.14980493250E+02 -0.44162690615E+01  0.59685271746E+02  0.62500002167E+02  0.99999998529E+01 0.  0.
    3000022    2    3    3    0    0  0.11751581582E+02 -0.70443063619E+01  0.51110757048E+02  0.52915913639E+02  0.25001684222E+00 0.  0.
    1000022    2    1    0    0    0 -0.14980493250E+02  0.44162690615E+01 -0.59685271746E+02  0.62499997833E+02  0.99999727651E+01 0.  0.
    3000022    2    5    5    0    0 -0.14608069318E+02  0.97963176959E+00 -0.42801379722E+02  0.45236887298E+02  0.24999743148E+00 0.  0.
        -13    1    4    4    0    0  0.60498218425E+01 -0.36107790153E+01  0.26538326634E+02  0.27457819923E+02  0.10500000000E+00 0.  1.
         13    1    4    4    0    0  0.57017597399E+01 -0.34335273466E+01  0.24572430414E+02  0.25458093716E+02  0.10500000000E+00 0. -1.
    3000001    1    5    5    0    0 -0.37242393172E+00  0.34366372919E+01 -0.16883892024E+02  0.17263110535E+02  0.10000000000E+01 0. -1.
        -13    1    6    6    0    0 -0.66883228700E+01  0.51303878268E+00 -0.19667347438E+02  0.20780097494E+02  0.10500000000E+00 0. -1.
         13    1    6    6    0    0 -0.79197464478E+01  0.46659298691E+00 -0.23134032284E+02  0.24456789804E+02  0.10500000000E+00 0.  1.
</event>
<event>
11    0  0.3448258E-009  0.9118800E+02  0.7816531E-02  0.1126479E+00
         25   -1    0    0    0    0  0.00000000000E+00  0.00000000000E+00  0.99999998245E-14  0.12500000000E+03  0.12500000000E+03 0.  0.
    3000001    1    3    3    0    0 -0.23473623079E+02  0.10316018025E+02  0.29288777900E+01  0.25826527708E+02  0.10000000000E+01 0. -1.
    1000022    2    1    0    0    0 -0.54964164600E+02  0.21361565258E+02  0.18134886358E+02  0.62499999219E+02  0.99999969377E+01 0.  0.
    3000022    2    3    3    0    0 -0.31490541521E+02  0.11045547233E+02  0.15206008568E+02  0.36673471511E+02  0.24999431798E+00 0.  0.
    1000022    2    1    0    0    0  0.54964164600E+02 -0.21361565258E+02 -0.18134886358E+02  0.62500000781E+02  0.10000006702E+02 0.  0.
    3000022    2    5    5    0    0  0.39565769212E+02 -0.12343995025E+02 -0.16285450425E+02  0.44532041334E+02  0.25000669345E+00 0.  0.
        -13    1    4    4    0    0 -0.91634087706E+01  0.32329648814E+01  0.43844216114E+01  0.10660877079E+02  0.10500000000E+00 0. -1.
         13    1    4    4    0    0 -0.22327132750E+02  0.78125823516E+01  0.10821586957E+02  0.26012594432E+02  0.10500000000E+00 0.  1.
    3000001    1    5    5    0    0  0.15398395388E+02 -0.90175702328E+01 -0.18494359332E+01  0.17967959447E+02  0.10000000000E+01 0.  1.
        -13    1    6    6    0    0  0.28416568356E+02 -0.88246246167E+01 -0.11702387095E+02  0.31973930717E+02  0.10500000000E+00 0. -1.
         13    1    6    6    0    0  0.11149200856E+02 -0.35193704081E+01 -0.45830633299E+01  0.12558110617E+02  0.10500000000E+00 0.  1.
</event>
<event>
11    0  0.3448258E-009  0.9118800E+02  0.7816531E-02  0.1126479E+00
         25   -1    0    0    0    0  0.00000000000E+00  0.00000000000E+00  0.99999998245E-14  0.12500000000E+03  0.12500000000E+03 0.  0.
    3000001    1    3    3    0    0  0.13591554677E+02  0.20422636930E+02  0.42741617474E+02  0.49291584698E+02  0.10000000000E+01 0. -1.
    1000022    2    1    0    0    0  0.18352763613E+02  0.20955840657E+02  0.55047970118E+02  0.62499999979E+02  0.99999896661E+01 0.  0.
    3000022    2    3    3    0    0  0.47612089365E+01  0.53320372673E+00  0.12306352644E+02  0.13208415281E+02  0.25000416477E+00 0.  0.
    1000022    2    1    0    0    0 -0.18352763613E+02 -0.20955840657E+02 -0.55047970118E+02  0.62500000021E+02  0.99999899329E+01 0.  0.
    3000022    2    5    5    0    0 -0.12028665850E+02 -0.19570720285E+02 -0.40934965727E+02  0.46940769196E+02  0.24999790678E+00 0.  0.
        -13    1    4    4    0    0  0.15924734828E+01  0.22975121774E+00  0.40880560678E+01  0.43945403433E+01  0.10500000000E+00 0.  1.
         13    1    4    4    0    0  0.31687354537E+01  0.30345250899E+00  0.82182965759E+01  0.88138749373E+01  0.10500000000E+00 0. -1.
    3000001    1    5    5    0    0 -0.63240977630E+01 -0.13851203722E+01 -0.14113004391E+02  0.15559230826E+02  0.10000000000E+01 0. -1.
        -13    1    6    6    0    0 -0.78960589714E+01 -0.12946086575E+02 -0.27056495202E+02  0.31016348311E+02  0.10500000000E+00 0.  1.
         13    1    6    6    0    0 -0.41326068789E+01 -0.66246337099E+01 -0.13878470525E+02  0.15924420885E+02  0.10500000000E+00 0. -1.
</event>
<event>
11    0  0.3448258E-009  0.9118800E+02  0.7816531E-02  0.1126479E+00
         25   -1    0    0    0    0  0.00000000000E+00  0.00000000000E+00  0.99999998245E-14  0.12500000000E+03  0.12500000000E+03 0.  0.
    3000001    1    3    3    0    0 -0.34241646036E+01 -0.15618147191E+01  0.30037224068E+01  0.49179789290E+01  0.10000000000E+01 0.  1.
    1000022    2    1    0    0    0 -0.51878443101E+02  0.10320111259E+02  0.31754881966E+02  0.62499998173E+02  0.99999844010E+01 0.  0.
    3000022    2    3    3    0    0 -0.48454278498E+02  0.11881925978E+02  0.28751159559E+02  0.57582019244E+02  0.24998921604E+00 0.  0.
    1000022    2    1    0    0    0  0.51878443101E+02 -0.10320111259E+02 -0.31754881966E+02  0.62500001827E+02  0.10000007234E+02 0.  0.
    3000022    2    5    5    0    0  0.20285973653E+02  0.84599463697E+00 -0.11602164127E+02  0.23386090197E+02  0.25013652416E+00 0.  0.
        -13    1    4    4    0    0 -0.28928995363E+02  0.71432564059E+01  0.17219985938E+02  0.34415865898E+02  0.10500000000E+00 0. -1.
         13    1    4    4    0    0 -0.19525283134E+02  0.47386695720E+01  0.11531173621E+02  0.23166153346E+02  0.10500000000E+00 0.  1.
    3000001    1    5    5    0    0  0.31592469448E+02 -0.11166105896E+02 -0.20152717839E+02  0.39113911630E+02  0.10000000000E+01 0.  1.
        -13    1    6    6    0    0  0.50143817239E+01  0.19966879175E+00 -0.28416109107E+01  0.57679865869E+01  0.10500000000E+00 0. -1.
         13    1    6    6    0    0  0.15271591929E+02  0.64632584522E+00 -0.87605532166E+01  0.17618103610E+02  0.10500000000E+00 0.  1.
</event>
<event>
11    0  0.3448258E-009  0.9118800E+02  0.7816531E-02  0.1126479E+00
         25   -1    0    0    0    0  0.00000000000E+00  0.00000000000E+00  0.99999998245E-14  0.12500000000E+03  0.12500000000E+03 0.  0.
    3000001    1    3    3    0    0 -0.18906319159E+02 -0.11382944091E+02 -0.72233724977E+01  0.23242147719E+02  0.10000000000E+01 0.  1.
    1000022    2    1    0    0    0 -0.41867817957E+02 -0.37488481448E+02 -0.25454854623E+02  0.62499999892E+02  0.99999970471E+01 0.  0.
    3000022    2    3    3    0    0 -0.22961498797E+02 -0.26105537356E+02 -0.18231482125E+02  0.39257852173E+02  0.25001821689E+00 0.  0.
    1000022    2    1    0    0    0  0.41867817957E+02  0.37488481448E+02  0.25454854623E+02  0.62500000108E+02  0.99999983980E+01 0.  0.
    3000022    2    5    5    0    0 -0.46405458303E+00  0.42732618008E+00  0.84061366362E+00  0.10803166144E+01  0.24999667146E+00 0.  0.
        -13    1    4    4    0    0 -0.13150813190E+02 -0.14978466822E+02 -0.10523280877E+02  0.22539938360E+02  0.10500000000E+00 0.  1.
         13    1    4    4    0    0 -0.98106856078E+01 -0.11127070534E+02 -0.77082012479E+01  0.16717913813E+02  0.10500000000E+00 0. -1.
    3000001    1    5    5    0    0  0.42331872540E+02  0.37061155268E+02  0.24614240959E+02  0.61419683494E+02  0.10000000000E+01 0. -1.
        -13    1    6    6    0    0 -0.26773141425E+00  0.19038751695E+00  0.34698343620E+00  0.48923411756E+00  0.10500000000E+00 0. -1.
         13    1    6    6    0    0 -0.19632316878E+00  0.23693866312E+00  0.49363022742E+00  0.59108249687E+00  0.10500000000E+00 0.  1.
</event>
<event>
11    0  0.3448258E-009  0.9118800E+02  0.7816531E-02  0.1126479E+00
         25   -1    0    0    0    0  0.00000000000E+00  0.00000000000E+00  0.99999998245E-14  0.12500000000E+03  0.12500000000E+03 0.  0.
    3000001    1    3    3    0    0 -0.24882788154E+02  0.16956987309E+02  0.18741032986E+02  0.35481246910E+02  0.10000000000E+01 0.  1.
    1000022    2    1    0    0    0 -0.47444852406E+02  0.30354428748E+02  0.25176271412E+02  0.62499999198E+02  0.99999946543E+01 0.  0.
    3000022    2    3    3    0    0 -0.22562064252E+02  0.13397441439E+02  0.64352384261E+01  0.27018752288E+02  0.25000234155E+00 0.  0.
    1000022    2    1    0    0    0  0.47444852406E+02 -0.30354428748E+02 -0.25176271412E+02  0.62500000802E+02  0.10000004674E+02 0.  0.
    3000022    2    5    5    0    0  0.37170841497E+02 -0.25974340435E+02 -0.23767115684E+02  0.51198399426E+02  0.24999429661E+00 0.  0.
        -13    1    4    4    0    0 -0.12131418687E+02  0.71390575389E+01  0.34131262827E+01  0.14484402574E+02  0.10500000000E+00 0. -1.
         13    1    4    4    0    0 -0.10430645565E+02  0.62583839004E+01  0.30221121434E+01  0.12534349714E+02  0.10500000000E+00 0.  1.
    3000001    1    5    5    0    0  0.10274010909E+02 -0.43800883134E+01 -0.14091557273E+01  0.11301601376E+02  0.10000000000E+01 0.  1.
        -13    1    6    6    0    0  0.16729301412E+02 -0.11694858055E+02 -0.10623065250E+02  0.23010862021E+02  0.10500000000E+00 0.  1.
         13    1    6    6    0    0  0.20441540085E+02 -0.14279482379E+02 -0.13144050435E+02  0.28187537404E+02  0.10500000000E+00 0. -1.
</event>
<event>
11    0  0.3448258E-009  0.9118800E+02  0.7816531E-02  0.1126479E+00
         25   -1    0    0    0    0  0.00000000000E+00  0.00000000000E+00  0.99999998245E-14  0.12500000000E+03  0.12500000000E+03 0.  0.
    3000001    1    3    3    0    0  0.20636642382E+02 -0.22609258244E+02 -0.28729258966E+02  0.41993093336E+02  0.10000000000E+01 0. -1.
    1000022    2    1    0    0    0  0.36038428852E+02 -0.31660806708E+02 -0.38795284808E+02  0.62499993195E+02  0.99999995281E+01 0.  0.
    3000022    2    3    3    0    0  0.15401786469E+02 -0.90515484644E+01 -0.10066025841E+02  0.20506899859E+02  0.25001910080E+00 0.  0.
    1000022    2    1    0    0    0 -0.36038428852E+02  0.31660806708E+02  0.38795284808E+02  0.62500006805E+02  0.10000084588E+02 0.  0.
    3000022    2    5    5    0    0 -0.14787586808E+02  0.11527420035E+02  0.21317226802E+02  0.28390857619E+02  0.25000310853E+00 0.  0.
        -13    1    4    4    0    0  0.66548321460E+01 -0.38449823496E+01 -0.42933078734E+01  0.88042147666E+01  0.10500000000E+00 0. -1.
         13    1    4    4    0    0  0.87469543234E+01 -0.52065661148E+01 -0.57727179680E+01  0.11702685093E+02  0.10500000000E+00 0.  1.
    3000001    1    5    5    0    0 -0.21250842044E+02  0.20133386674E+02  0.17478058005E+02  0.34109149185E+02  0.10000000000E+01 0. -1.
        -13    1    6    6    0    0 -0.53632650194E+01  0.42409540439E+01  0.77213787219E+01  0.10314117376E+02  0.10500000000E+00 0.  1.
         13    1    6    6    0    0 -0.94243217887E+01  0.72864659907E+01  0.13595848081E+02  0.18076740244E+02  0.10500000000E+00 0. -1.
</event>
<event>
11    0  0.3448258E-009  0.9118800E+02  0.7816531E-02  0.1126479E+00
         25   -1    0    0    0    0  0.00000000000E+00  0.00000000000E+00  0.99999998245E-14  0.12500000000E+03  0.12500000000E+03 0.  0.
    3000001    1    3    3    0    0 -0.21527743174E+02 -0.29719826810E+02 -0.27794935626E+02  0.46046392674E+02  0.10000000000E+01 0. -1.
    1000022    2    1    0    0    0 -0.27005512519E+02 -0.44071036189E+02 -0.33685241263E+02  0.62500005278E+02  0.10000062180E+02 0.  0.
    3000022    2    3    3    0    0 -0.54777693450E+01 -0.14351209379E+02 -0.58903056365E+01  0.16453612604E+02  0.24999919881E+00 0.  0.
    1000022    2    1    0    0    0  0.27005512519E+02  0.44071036189E+02  0.33685241263E+02  0.62499994722E+02  0.99999962061E+01 0.  0.
    3000022    2    5    5    0    0  0.51703080124E+00  0.22911579079E+01  0.44262749999E+01  0.50170842209E+01  0.24999659214E+00 0.  0.
        -13    1    4    4    0    0 -0.40126827729E+01 -0.10603802342E+02 -0.43497289330E+01  0.12143863222E+02  0.10500000000E+00 0.  1.
         13    1    4    4    0    0 -0.14650865722E+01 -0.37474070367E+01 -0.15405767035E+01  0.43097493828E+01  0.10500000000E+00 0. -1.
    3000001    1    5    5    0    0  0.26488481718E+02  0.41779878281E+02  0.29258966263E+02  0.57482910501E+02  0.10000000000E+01 0. -1.
        -13    1    6    6    0    0  0.13371662546E+00  0.83859199899E+00  0.15579475479E+01  0.17774538640E+01  0.10500000000E+00 0.  1.
         13    1    6    6    0    0  0.38331417578E+00  0.14525659089E+01  0.28683274520E+01  0.32396303569E+01  0.10500000000E+00 0. -1.
</event>
<event>
11    0  0.3448258E-009  0.9118800E+02  0.7816531E-02  0.1126479E+00
         25   -1    0    0    0    0  0.00000000000E+00  0.00000000000E+00  0.99999998245E-14  0.12500000000E+03  0.12500000000E+03 0.  0.
    3000001    1    3    3    0    0 -0.33738132199E+02  0.42650017360E+02 -0.26923919874E+02  0.60689233036E+02  0.10000000000E+01 0.  1.
    1000022    2    1    0    0    0 -0.34117867929E+02  0.44236626617E+02 -0.26179032084E+02  0.62500001634E+02  0.10000021843E+02 0.  0.
    3000022    2    3    3    0    0 -0.37973573033E+00  0.15866092579E+01  0.74488779002E+00  0.18107685986E+01  0.24999387170E+00 0.  0.
    1000022    2    1    0    0    0  0.34117867929E+02 -0.44236626617E+02  0.26179032084E+02  0.62499998366E+02  0.10000001416E+02 0.  0.
    3000022    2    5    5    0    0  0.13098667666E+02 -0.96929288098E+01  0.79854530113E+01  0.18148220978E+02  0.25000269235E+00 0.  0.
        -13    1    4    4    0    0 -0.78652252319E-01  0.43797612385E+00  0.23748590693E+00  0.51520269588E+00  0.10500000000E+00 0. -1.
         13    1    4    4    0    0 -0.30108347802E+00  0.11486331340E+01  0.50740188309E+00  0.12955659027E+01  0.10500000000E+00 0.  1.
    3000001    1    5    5    0    0  0.21019200263E+02 -0.34543697808E+02  0.18193579073E+02  0.44351777387E+02  0.10000000000E+01 0.  1.
        -13    1    6    6    0    0  0.98653209679E+01 -0.73295884526E+01  0.60195059292E+01  0.13685499674E+02  0.10500000000E+00 0. -1.
         13    1    6    6    0    0  0.32333466983E+01 -0.23633403572E+01  0.19659470821E+01  0.44627213048E+01  0.10500000000E+00 0.  1.
</event>
<event>
11    0  0.3448258E-009  0.9118800E+02  0.7816531E-02  0.1126479E+00
         25   -1    0    0    0    0  0.00000000000E+00  0.00000000000E+00  0.99999998245E-14  0.12500000000E+03  0.12500000000E+03 0.  0.
    3000001    1    3    3    0    0  0.71374348774E+01  0.99922569321E+00 -0.76149987983E+01  0.10532313863E+02  0.10000000000E+01 0. -1.
    1000022    2    1    0    0    0  0.52018087399E+02  0.16228657047E+02 -0.28930940270E+02  0.62500000108E+02  0.99999991181E+01 0.  0.
    3000022    2    3    3    0    0  0.44880652522E+02  0.15229431354E+02 -0.21315941472E+02  0.51967686245E+02  0.25000532077E+00 0.  0.
    1000022    2    1    0    0    0 -0.52018087399E+02 -0.16228657047E+02  0.28930940270E+02  0.62499999892E+02  0.99999977668E+01 0.  0.
    3000022    2    5    5    0    0 -0.19166403387E+02 -0.54966653420E+01  0.16072916703E+02  0.25611823488E+02  0.25000466292E+00 0.  0.
        -13    1    4    4    0    0  0.13769725402E+02  0.46241392483E+01 -0.65469851014E+01  0.15933048684E+02  0.10500000000E+00 0. -1.
         13    1    4    4    0    0  0.31110927120E+02  0.10605292106E+02 -0.14768956371E+02  0.36034637561E+02  0.10500000000E+00 0.  1.
    3000001    1    5    5    0    0 -0.32851684012E+02 -0.10731991705E+02  0.12858023567E+02  0.36888176404E+02  0.10000000000E+01 0. -1.
        -13    1    6    6    0    0 -0.49666682805E+01 -0.14179869747E+01  0.42034969639E+01  0.66602471872E+01  0.10500000000E+00 0.  1.
         13    1    6    6    0    0 -0.14199735107E+02 -0.40786783673E+01  0.11869419739E+02  0.18951576300E+02  0.10500000000E+00 0. -1.
</event>
<event>
11    0  0.3448258E-009  0.9118800E+02  0.7816531E-02  0.1126479E+00
         25   -1    0    0    0    0  0.00000000000E+00  0.00000000000E+00  0.99999998245E-14  0.12500000000E+03  0.12500000000E+03 0.  0.
    3000001    1    3    3    0    0  0.10410580920E+02  0.25164658538E+01  0.41152991317E+01  0.11517312292E+02  0.10000000000E+01 0. -1.
    1000022    2    1    0    0    0  0.46712670226E+02  0.82245773768E+01  0.39452920504E+02  0.62499997710E+02  0.99999772333E+01 0.  0.
    3000022    2    3    3    0    0  0.36302089306E+02  0.57081115230E+01  0.35337621373E+02  0.50982685418E+02  0.25000589472E+00 0.  0.
    1000022    2    1    0    0    0 -0.46712670226E+02 -0.82245773768E+01 -0.39452920504E+02  0.62500002290E+02  0.10000005863E+02 0.  0.
    3000022    2    5    5    0    0 -0.19850071005E+02 -0.74776513929E+01 -0.21255443557E+02  0.30029934496E+02  0.24999147722E+00 0.  0.
        -13    1    4    4    0    0  0.10600698248E+02  0.16455943649E+01  0.10369127965E+02  0.14920208575E+02  0.10500000000E+00 0.  1.
         13    1    4    4    0    0  0.25701391058E+02  0.40625171581E+01  0.24968493407E+02  0.36062476843E+02  0.10500000000E+00 0. -1.
    3000001    1    5    5    0    0 -0.26862599221E+02 -0.74692598393E+00 -0.18197476947E+02  0.32470067795E+02  0.10000000000E+01 0.  1.
        -13    1    6    6    0    0 -0.13388095626E+02 -0.50391404799E+01 -0.14407274226E+02  0.20303069150E+02  0.10500000000E+00 0.  1.
         13    1    6    6    0    0 -0.64619753795E+01 -0.24385109130E+01 -0.68481693308E+01  0.97268653461E+01  0.10500000000E+00 0. -1.
</event>
<event>
11    0  0.3448258E-009  0.9118800E+02  0.7816531E-02  0.1126479E+00
         25   -1    0    0    0    0  0.00000000000E+00  0.00000000000E+00  0.99999998245E-14  0.12500000000E+03  0.12500000000E+03 0.  0.
    3000001    1    3    3    0    0 -0.11446713491E+02  0.12426018638E+02  0.88289531294E+00  0.16947350621E+02  0.10000000000E+01 0. -1.
    1000022    2    1    0    0    0 -0.42980334655E+02  0.40283974680E+02  0.18334175593E+02  0.62500009001E+02  0.10000067369E+02 0.  0.
    3000022    2    3    3    0    0 -0.31533621164E+02  0.27857956043E+02  0.17451280280E+02  0.45552658380E+02  0.25004705974E+00 0.  0.
    1000022    2    1    0    0    0  0.42980334655E+02 -0.40283974680E+02 -0.18334175593E+02  0.62499990999E+02  0.99999548539E+01 0.  0.
    3000022    2    5    5    0    0  0.82675208899E+01 -0.12066557099E+02 -0.75950445656E+01  0.16483352381E+02  0.25000375639E+00 0.  0.
        -13    1    4    4    0    0 -0.19598892138E+02  0.17362163970E+02  0.10912340531E+02  0.28366379953E+02  0.10500000000E+00 0. -1.
         13    1    4    4    0    0 -0.11934729025E+02  0.10495792072E+02  0.65389397485E+01  0.17186278427E+02  0.10500000000E+00 0.  1.
    3000001    1    5    5    0    0  0.34712813765E+02 -0.28217417581E+02 -0.10739131027E+02  0.46016638617E+02  0.10000000000E+01 0.  1.
        -13    1    6    6    0    0  0.37155789601E+01 -0.55004718202E+01 -0.33898111364E+01  0.74540299029E+01  0.10500000000E+00 0.  1.
         13    1    6    6    0    0  0.45519419299E+01 -0.65660852792E+01 -0.42052334292E+01  0.90293224785E+01  0.10500000000E+00 0. -1.
</event>
<event>
11    0  0.3448258E-009  0.9118800E+02  0.7816531E-02  0.1126479E+00
         25   -1    0    0    0    0  0.00000000000E+00  0.00000000000E+00  0.99999998245E-14  0.12500000000E+03  0.12500000000E+03 0.  0.
    3000001    1    3    3    0    0 -0.31720374477E+01  0.13792139709E+02  0.97091229589E+01  0.17191626100E+02  0.10000000000E+01 0.  1.
    1000022    2    1    0    0    0 -0.13663709994E+02  0.56443816592E+02  0.20824229034E+02  0.62500000755E+02  0.10000008863E+02 0.  0.
    3000022    2    3    3    0    0 -0.10491672546E+02  0.42651676883E+02  0.11115106076E+02  0.45308374655E+02  0.24999420510E+00 0.  0.
    1000022    2    1    0    0    0  0.13663709994E+02 -0.56443816592E+02 -0.20824229034E+02  0.62499999245E+02  0.99999994271E+01 0.  0.
    3000022    2    5    5    0    0  0.60496088453E+01 -0.38968679112E+02 -0.17412909828E+02  0.43109484426E+02  0.24999971163E+00 0.  0.
        -13    1    4    4    0    0 -0.26687217765E+01  0.10883255292E+02  0.28646823332E+01  0.11566535849E+02  0.10500000000E+00 0. -1.
         13    1    4    4    0    0 -0.78229507698E+01  0.31768421590E+02  0.82504237424E+01  0.33741838806E+02  0.10500000000E+00 0.  1.
    3000001    1    5    5    0    0  0.76141011487E+01 -0.17475137480E+02 -0.34113192062E+01  0.19390514819E+02  0.10000000000E+01 0.  1.
        -13    1    6    6    0    0  0.18876372068E+01 -0.12489240447E+02 -0.55726140046E+01  0.13806134615E+02  0.10500000000E+00 0.  1.
         13    1    6    6    0    0  0.41619716385E+01 -0.26479438665E+02 -0.11840295824E+02  0.29303349810E+02  0.10500000000E+00 0. -1.
</event>
<event>
11    0  0.3448258E-009  0.9118800E+02  0.7816531E-02  0.1126479E+00
         25   -1    0    0    0    0  0.00000000000E+00  0.00000000000E+00  0.99999998245E-14  0.12500000000E+03  0.12500000000E+03 0.  0.
    3000001    1    3    3    0    0  0.13174538379E+02 -0.61029876206E+01 -0.25133200448E+02  0.29042945514E+02  0.10000000000E+01 0.  1.
    1000022    2    1    0    0    0  0.18757694759E+02 -0.10560130418E+02 -0.57817663934E+02  0.62499998718E+02  0.10000005492E+02 0.  0.
    3000022    2    3    3    0    0  0.55831563804E+01 -0.44571427974E+01 -0.32684463486E+02  0.33457053204E+02  0.24999723677E+00 0.  0.
    1000022    2    1    0    0    0 -0.18757694759E+02  0.10560130418E+02  0.57817663934E+02  0.62500001282E+02  0.10000021516E+02 0.  0.
    3000022    2    5    5    0    0 -0.81023994805E+01  0.73002218683E+01  0.40002647300E+02  0.41463434573E+02  0.24999781091E+00 0.  0.
        -13    1    4    4    0    0  0.24129598944E+01 -0.19384374785E+01 -0.14467493344E+02  0.14795245992E+02  0.10500000000E+00 0. -1.
         13    1    4    4    0    0  0.31701964859E+01 -0.25187053189E+01 -0.18216970142E+02  0.18661807212E+02  0.10500000000E+00 0.  1.
    3000001    1    5    5    0    0 -0.10655295279E+02  0.32599085496E+01  0.17815016634E+02  0.21036566709E+02  0.10000000000E+01 0.  1.
        -13    1    6    6    0    0 -0.52191648676E+01  0.46495214265E+01  0.25472960354E+02  0.26414777410E+02  0.10500000000E+00 0. -1.
         13    1    6    6    0    0 -0.28832346129E+01  0.26507004418E+01  0.14529686946E+02  0.15048657163E+02  0.10500000000E+00 0.  1.
</event>
<event>
11    0  0.3448258E-009  0.9118800E+02  0.7816531E-02  0.1126479E+00
         25   -1    0    0    0    0  0.00000000000E+00  0.00000000000E+00  0.99999998245E-14  0.12500000000E+03  0.12500000000E+03 0.  0.
    3000001    1    3    3    0    0  0.22235376279E+02  0.38697366664E+01  0.22171761878E+02  0.31653970445E+02  0.10000000000E+01 0.  1.
    1000022    2    1    0    0    0  0.38807014521E+02  0.15838304015E+02  0.45270456374E+02  0.62500007199E+02  0.10000021471E+02 0.  0.
    3000022    2    3    3    0    0  0.16571638242E+02  0.11968567349E+02  0.23098694496E+02  0.30846036754E+02  0.24999522513E+00 0.  0.
    1000022    2    1    0    0    0 -0.38807014521E+02 -0.15838304015E+02 -0.45270456374E+02  0.62499992801E+02  0.99999314858E+01 0.  0.
    3000022    2    5    5    0    0 -0.34725254300E+00  0.84497128913E+00 -0.25971785182E+00  0.98209663589E+00  0.24999926319E+00 0.  0.
        -13    1    4    4    0    0  0.94555269159E+01  0.67521078287E+01  0.13097935563E+02  0.17508994557E+02  0.10500000000E+00 0. -1.
         13    1    4    4    0    0  0.71161113263E+01  0.52164595202E+01  0.10000758933E+02  0.13337042197E+02  0.10500000000E+00 0.  1.
    3000001    1    5    5    0    0 -0.38459761978E+02 -0.16683275304E+02 -0.45010738522E+02  0.61517896165E+02  0.10000000000E+01 0.  1.
        -13    1    6    6    0    0 -0.21625100163E+00  0.42971061738E+00 -0.77089553783E-01  0.49838088817E+00  0.10500000000E+00 0.  1.
         13    1    6    6    0    0 -0.13100154138E+00  0.41526067176E+00 -0.18262829804E+00  0.48371574772E+00  0.10500000000E+00 0. -1.
</event>
<event>
11    0  0.3448258E-009  0.9118800E+02  0.7816531E-02  0.1126479E+00
         25   -1    0    0    0    0  0.00000000000E+00  0.00000000000E+00  0.99999998245E-14  0.12500000000E+03  0.12500000000E+03 0.  0.
    3000001    1    3    3    0    0 -0.30205974835E+01  0.38626241238E+01  0.37083683407E+02  0.37419826954E+02  0.10000000000E+01 0.  1.
    1000022    2    1    0    0    0 -0.92635453231E+01  0.12973359781E+02  0.59599737175E+02  0.62500000077E+02  0.10000000113E+02 0.  0.
    3000022    2    3    3    0    0 -0.62429478396E+01  0.91107356574E+01  0.22516053769E+02  0.25080173123E+02  0.25000919153E+00 0.  0.
    1000022    2    1    0    0    0  0.92635453231E+01 -0.12973359781E+02 -0.59599737175E+02  0.62499999923E+02  0.99999991532E+01 0.  0.
    3000022    2    5    5    0    0  0.15634478288E+01  0.95287651575E+00 -0.15434017571E+02  0.15544251106E+02  0.25000258928E+00 0.  0.
        -13    1    4    4    0    0 -0.14904281903E+01  0.21872327878E+01  0.54394448373E+01  0.60501197175E+01  0.10500000000E+00 0. -1.
         13    1    4    4    0    0 -0.47525196493E+01  0.69235028697E+01  0.17076608932E+02  0.19030053405E+02  0.10500000000E+00 0.  1.
    3000001    1    5    5    0    0  0.77000974942E+01 -0.13926236297E+02 -0.44165719604E+02  0.46955748817E+02  0.10000000000E+01 0.  1.
        -13    1    6    6    0    0  0.90950088280E+00  0.62395312504E+00 -0.90804076050E+01  0.91477503591E+01  0.10500000000E+00 0. -1.
         13    1    6    6    0    0  0.65394694605E+00  0.32892339071E+00 -0.63536099659E+01  0.63965007468E+01  0.10500000000E+00 0.  1.
</event>
<event>
11    0  0.3448258E-009  0.9118800E+02  0.7816531E-02  0.1126479E+00
         25   -1    0    0    0    0  0.00000000000E+00  0.00000000000E+00  0.99999998245E-14  0.12500000000E+03  0.12500000000E+03 0.  0.
    3000001    1    3    3    0    0  0.16665239084E+02  0.16072934154E+02  0.35040465282E+02  0.42010755923E+02  0.10000000000E+01 0.  1.
    1000022    2    1    0    0    0  0.30231990536E+02  0.24485446034E+02  0.47882564404E+02  0.62499999530E+02  0.99999824037E+01 0.  0.
    3000022    2    3    3    0    0  0.13566751452E+02  0.84125118800E+01  0.12842099122E+02  0.20489243607E+02  0.24998525846E+00 0.  0.
    1000022    2    1    0    0    0 -0.30231990536E+02 -0.24485446034E+02 -0.47882564404E+02  0.62500000470E+02  0.99999882766E+01 0.  0.
    3000022    2    5    5    0    0 -0.11070449121E+02 -0.15147193585E+02 -0.24196019482E+02  0.30618657359E+02  0.25000487828E+00 0.  0.
        -13    1    4    4    0    0  0.74325232843E+01  0.46596407818E+01  0.71220733579E+01  0.11299982677E+02  0.10500000000E+00 0. -1.
         13    1    4    4    0    0  0.61342281677E+01  0.37528710982E+01  0.57200257644E+01  0.91892609300E+01  0.10500000000E+00 0.  1.
    3000001    1    5    5    0    0 -0.19161541415E+02 -0.93382524491E+01 -0.23686544922E+02  0.31881343111E+02  0.10000000000E+01 0.  1.
        -13    1    6    6    0    0 -0.41202422363E+01 -0.57386226901E+01 -0.91266698615E+01  0.11541893875E+02  0.10500000000E+00 0.  1.
         13    1    6    6    0    0 -0.69502068844E+01 -0.94085708945E+01 -0.15069349621E+02  0.19076763483E+02  0.10500000000E+00 0. -1.
</event>
<event>
11    0  0.3448258E-009  0.9118800E+02  0.7816531E-02  0.1126479E+00
         25   -1    0    0    0    0  0.00000000000E+00  0.00000000000E+00  0.99999998245E-14  0.12500000000E+03  0.12500000000E+03 0.  0.
    3000001    1    3    3    0    0 -0.34888172369E+01  0.10674675132E+02 -0.53400601555E+01  0.12475446980E+02  0.10000000000E+01 0. -1.
    1000022    2    1    0    0    0 -0.54473930649E+01  0.60086721817E+02 -0.12890423971E+02  0.62500009970E+02  0.99999993139E+01 0.  0.
    3000022    2    3    3    0    0 -0.19585758280E+01  0.49412046685E+02 -0.75503638153E+01  0.50024562991E+02  0.25006357068E+00 0.  0.
    1000022    2    1    0    0    0  0.54473930649E+01 -0.60086721817E+02  0.12890423971E+02  0.62499990030E+02  0.99998746819E+01 0.  0.
    3000022    2    5    5    0    0  0.54554112357E+01 -0.26311374534E+02  0.17837332427E+01  0.26931285705E+02  0.25000769958E+00 0.  0.
        -13    1    4    4    0    0 -0.71724686486E+00  0.17658376349E+02 -0.27541516307E+01  0.17886561284E+02  0.10500000000E+00 0. -1.
         13    1    4    4    0    0 -0.12413289631E+01  0.31753670336E+02 -0.47962121845E+01  0.32138001707E+02  0.10500000000E+00 0.  1.
    3000001    1    5    5    0    0 -0.80181707955E-02 -0.33775347283E+02  0.11106690728E+02  0.35568704324E+02  0.10000000000E+01 0.  1.
        -13    1    6    6    0    0  0.35005072406E+01 -0.16969977840E+02  0.12048701324E+01  0.17369410925E+02  0.10500000000E+00 0.  1.
         13    1    6    6    0    0  0.19549039950E+01 -0.93413966933E+01  0.57886311026E+00  0.95618747801E+01  0.10500000000E+00 0. -1.
</event>
<event>
11    0  0.3448258E-009  0.9118800E+02  0.7816531E-02  0.1126479E+00
         25   -1    0    0    0    0  0.00000000000E+00  0.00000000000E+00  0.99999998245E-14  0.12500000000E+03  0.12500000000E+03 0.  0.
    3000001    1    3    3    0    0  0.20935843923E+02  0.22317131786E+02  0.91061627840E+01  0.31941918110E+02  0.10000000000E+01 0. -1.
    1000022    2    1    0    0    0  0.32754534980E+02  0.48504984386E+02  0.19510430358E+02  0.62499999933E+02  0.10000001338E+02 0.  0.
    3000022    2    3    3    0    0  0.11818691057E+02  0.26187852601E+02  0.10404267574E+02  0.30558081823E+02  0.24999758040E+00 0.  0.
    1000022    2    1    0    0    0 -0.32754534980E+02 -0.48504984386E+02 -0.19510430358E+02  0.62500000067E+02  0.10000002176E+02 0.  0.
    3000022    2    5    5    0    0 -0.14594562108E+01 -0.58536079161E+01  0.18983887626E+00  0.60409664417E+01  0.24999736753E+00 0.  0.
        -13    1    4    4    0    0  0.46576919760E+01  0.10278281400E+02  0.40227919961E+01  0.11980444212E+02  0.10500000000E+00 0.  1.
         13    1    4    4    0    0  0.71609990813E+01  0.15909571201E+02  0.63814755777E+01  0.18577637610E+02  0.10500000000E+00 0. -1.
    3000001    1    5    5    0    0 -0.31295078770E+02 -0.42651376470E+02 -0.19700269234E+02  0.56459033625E+02  0.10000000000E+01 0.  1.
        -13    1    6    6    0    0 -0.89813733850E+00 -0.37360073349E+01  0.16970874258E+00  0.38476262218E+01  0.10500000000E+00 0. -1.
         13    1    6    6    0    0 -0.56131887227E+00 -0.21176005812E+01  0.20130133686E-01  0.21933402199E+01  0.10500000000E+00 0.  1.
</event>
<event>
11    0  0.3448258E-009  0.9118800E+02  0.7816531E-02  0.1126479E+00
         25   -1    0    0    0    0  0.00000000000E+00  0.00000000000E+00  0.99999998245E-14  0.12500000000E+03  0.12500000000E+03 0.  0.
    3000001    1    3    3    0    0  0.68649435846E+01  0.19592110125E+01 -0.64865759914E+01  0.96975061899E+01  0.10000000000E+01 0. -1.
    1000022    2    1    0    0    0  0.36462870621E+02 -0.72006988484E+01 -0.49242857244E+02  0.62499999713E+02  0.99999988352E+01 0.  0.
    3000022    2    3    3    0    0  0.29597927037E+02 -0.91599098608E+01 -0.42756281253E+02  0.52802493523E+02  0.25000432261E+00 0.  0.
    1000022    2    1    0    0    0 -0.36462870621E+02  0.72006988484E+01  0.49242857244E+02  0.62500000287E+02  0.10000002419E+02 0.  0.
    3000022    2    5    5    0    0 -0.11447538081E+02  0.60153961163E+01  0.21684883715E+02  0.25249312914E+02  0.25000470910E+00 0.  0.
        -13    1    4    4    0    0  0.13184207417E+02 -0.40607218435E+01 -0.19146378694E+02  0.23598890423E+02  0.10500000000E+00 0. -1.
         13    1    4    4    0    0  0.16413719620E+02 -0.50991880174E+01 -0.23609902559E+02  0.29203603100E+02  0.10500000000E+00 0.  1.
    3000001    1    5    5    0    0 -0.25015332540E+02  0.11853027321E+01  0.27557973529E+02  0.37250687372E+02  0.10000000000E+01 0.  1.
        -13    1    6    6    0    0 -0.57512470966E+01  0.29628998746E+01  0.10932267825E+02  0.12703587038E+02  0.10500000000E+00 0.  1.
         13    1    6    6    0    0 -0.56962909844E+01  0.30524962418E+01  0.10752615891E+02  0.12545725877E+02  0.10500000000E+00 0. -1.
</event>
<event>
11    0  0.3448258E-009  0.9118800E+02  0.7816531E-02  0.1126479E+00
         25   -1    0    0    0    0  0.00000000000E+00  0.00000000000E+00  0.99999998245E-14  0.12500000000E+03  0.12500000000E+03 0.  0.
    3000001    1    3    3    0    0  0.41651217239E+02  0.25463932734E+02  0.31619008716E+02  0.58172136629E+02  0.10000000000E+01 0.  1.
    1000022    2    1    0    0    0  0.44652889747E+02  0.24744352395E+02  0.34642263499E+02  0.62500000158E+02  0.10000003061E+02 0.  0.
    3000022    2    3    3    0    0  0.30016725086E+01 -0.71958033890E+00  0.30232547823E+01  0.43278635294E+01  0.24999907417E+00 0.  0.
    1000022    2    1    0    0    0 -0.44652889747E+02 -0.24744352395E+02 -0.34642263499E+02  0.62499999842E+02  0.10000001084E+02 0.  0.
    3000022    2    5    5    0    0 -0.24843772681E+02 -0.98916371060E+01 -0.22287398377E+02  0.34811609449E+02  0.25000060624E+00 0.  0.
        -13    1    4    4    0    0  0.18170944529E+01 -0.38349965092E+00  0.18684354800E+01  0.26364711977E+01  0.10500000000E+00 0.  1.
         13    1    4    4    0    0  0.11845780557E+01 -0.33608068798E+00  0.11548193022E+01  0.16913923317E+01  0.10500000000E+00 0. -1.
    3000001    1    5    5    0    0 -0.19809117066E+02 -0.14852715289E+02 -0.12354865121E+02  0.27688390393E+02  0.10000000000E+01 0. -1.
        -13    1    6    6    0    0 -0.92094939529E+01 -0.36644088256E+01 -0.81838130834E+01  0.12854123560E+02  0.10500000000E+00 0.  1.
         13    1    6    6    0    0 -0.15634278729E+02 -0.62272282804E+01 -0.14103585294E+02  0.21957485889E+02  0.10500000000E+00 0. -1.
</event>
<event>
11    0  0.3448258E-009  0.9118800E+02  0.7816531E-02  0.1126479E+00
         25   -1    0    0    0    0  0.00000000000E+00  0.00000000000E+00  0.99999998245E-14  0.12500000000E+03  0.12500000000E+03 0.  0.
    3000001    1    3    3    0    0  0.22834678428E+01  0.84104340332E+00 -0.15171042833E+00  0.26352600345E+01  0.10000000000E+01 0. -1.
    1000022    2    1    0    0    0  0.29871037439E+02  0.52344794282E+02 -0.13190656877E+02  0.62499998792E+02  0.10000002705E+02 0.  0.
    3000022    2    3    3    0    0  0.27587569596E+02  0.51503750879E+02 -0.13038946449E+02  0.59864738758E+02  0.24994250152E+00 0.  0.
    1000022    2    1    0    0    0 -0.29871037439E+02 -0.52344794282E+02  0.13190656877E+02  0.62500001208E+02  0.10000017799E+02 0.  0.
    3000022    2    5    5    0    0 -0.22510562101E+02 -0.39109570725E+02  0.54231326423E+01  0.45450597331E+02  0.25000336403E+00 0.  0.
        -13    1    4    4    0    0  0.11058945094E+02  0.20776689811E+02 -0.52672204009E+01  0.24118991311E+02  0.10500000000E+00 0. -1.
         13    1    4    4    0    0  0.16528624502E+02  0.30727061067E+02 -0.77717260480E+01  0.35745747447E+02  0.10500000000E+00 0.  1.
    3000001    1    5    5    0    0 -0.73604753378E+01 -0.13235223557E+02  0.77675242349E+01  0.17049403876E+02  0.10000000000E+01 0.  1.
        -13    1    6    6    0    0 -0.11464335687E+02 -0.19789074213E+02  0.27268626995E+01  0.23032265545E+02  0.10500000000E+00 0. -1.
         13    1    6    6    0    0 -0.11046226415E+02 -0.19320496512E+02  0.26962699428E+01  0.22418331786E+02  0.10500000000E+00 0.  1.
</event>
<event>
11    0  0.3448258E-009  0.9118800E+02  0.7816531E-02  0.1126479E+00
         25   -1    0    0    0    0  0.00000000000E+00  0.00000000000E+00  0.99999998245E-14  0.12500000000E+03  0.12500000000E+03 0.  0.
    3000001    1    3    3    0    0 -0.86357473178E+00 -0.55565181199E+01  0.41539705706E+01  0.70623031962E+01  0.10000000000E+01 0. -1.
    1000022    2    1    0    0    0 -0.31693576870E+02 -0.46437386985E+02  0.25403476197E+02  0.62500002126E+02  0.99999969003E+01 0.  0.
    3000022    2    3    3    0    0 -0.30830002138E+02 -0.40880868865E+02  0.21249505626E+02  0.55437698929E+02  0.25000442752E+00 0.  0.
    1000022    2    1    0    0    0  0.31693576870E+02  0.46437386985E+02 -0.25403476197E+02  0.62499997874E+02  0.99999703293E+01 0.  0.
    3000022    2    5    5    0    0  0.25925617371E+02  0.38154215336E+02 -0.24715877640E+02  0.52333726133E+02  0.24999886023E+00 0.  0.
        -13    1    4    4    0    0 -0.71106625224E+01 -0.94164690813E+01  0.48948336250E+01  0.12775047267E+02  0.10500000000E+00 0. -1.
         13    1    4    4    0    0 -0.23719339616E+02 -0.31464399784E+02  0.16354672001E+02  0.42662651662E+02  0.10500000000E+00 0.  1.
    3000001    1    5    5    0    0  0.57679594986E+01  0.82831716494E+01 -0.68759855673E+00  0.10166271742E+02  0.10000000000E+01 0. -1.
        -13    1    6    6    0    0  0.62422721301E+01  0.91556443343E+01 -0.59475343397E+01  0.12576803022E+02  0.10500000000E+00 0. -1.
         13    1    6    6    0    0  0.19683345241E+02  0.28998571001E+02 -0.18768343300E+02  0.39756923111E+02  0.10500000000E+00 0.  1.
</event>
<event>
11    0  0.3448258E-009  0.9118800E+02  0.7816531E-02  0.1126479E+00
         25   -1    0    0    0    0  0.00000000000E+00  0.00000000000E+00  0.99999998245E-14  0.12500000000E+03  0.12500000000E+03 0.  0.
    3000001    1    3    3    0    0  0.51679052620E+02  0.41457701618E+00 -0.20207323369E+02  0.55499840284E+02  0.10000000000E+01 0. -1.
    1000022    2    1    0    0    0  0.58608763130E+02  0.56106517924E+00 -0.19260016286E+02  0.62500000030E+02  0.99999933351E+01 0.  0.
    3000022    2    3    3    0    0  0.69297105096E+01  0.14648816306E+00  0.94730708324E+00  0.70001597461E+01  0.24999846297E+00 0.  0.
    1000022    2    1    0    0    0 -0.58608763130E+02 -0.56106517924E+00  0.19260016286E+02  0.62499999970E+02  0.99999929620E+01 0.  0.
    3000022    2    5    5    0    0 -0.10235824374E+02  0.10649143411E+01 -0.27189152533E+00  0.10297696994E+02  0.24999043251E+00 0.  0.
        -13    1    4    4    0    0  0.38474894059E+01  0.13878053520E+00  0.49243971959E+00  0.38827769241E+01  0.10500000000E+00 0.  1.
         13    1    4    4    0    0  0.30822211038E+01  0.77076278617E-02  0.45486736365E+00  0.31173828219E+01  0.10500000000E+00 0. -1.
    3000001    1    5    5    0    0 -0.48372938756E+02 -0.16259795203E+01  0.19531907811E+02  0.52202302976E+02  0.10000000000E+01 0.  1.
        -13    1    6    6    0    0 -0.25462486603E+01  0.24927442421E+00 -0.47387038964E-01  0.25610135708E+01  0.10500000000E+00 0. -1.
         13    1    6    6    0    0 -0.76895757134E+01  0.81563991689E+00 -0.22450448637E+00  0.77366834232E+01  0.10500000000E+00 0.  1.
</event>
<event>
11    0  0.3448258E-009  0.9118800E+02  0.7816531E-02  0.1126479E+00
         25   -1    0    0    0    0  0.00000000000E+00  0.00000000000E+00  0.99999998245E-14  0.12500000000E+03  0.12500000000E+03 0.  0.
    3000001    1    3    3    0    0  0.75518098529E+01  0.22174918778E+02 -0.17501401059E+02  0.29258432869E+02  0.10000000000E+01 0. -1.
    1000022    2    1    0    0    0  0.67793249493E+01  0.45019367515E+02 -0.41635894281E+02  0.62500000735E+02  0.99999850542E+01 0.  0.
    3000022    2    3    3    0    0 -0.77248490369E+00  0.22844448737E+02 -0.24134493221E+02  0.33241567866E+02  0.25000030508E+00 0.  0.
    1000022    2    1    0    0    0 -0.67793249493E+01 -0.45019367515E+02  0.41635894281E+02  0.62499999265E+02  0.99999758691E+01 0.  0.
    3000022    2    5    5    0    0 -0.41984570669E+01 -0.39127527416E+02  0.31289263287E+02  0.50275947904E+02  0.24999420460E+00 0.  0.
        -13    1    4    4    0    0 -0.44791633227E+00  0.12807388913E+02 -0.13437302535E+02  0.18568843912E+02  0.10500000000E+00 0.  1.
         13    1    4    4    0    0 -0.32456857142E+00  0.10037059823E+02 -0.10697190686E+02  0.14672723954E+02  0.10500000000E+00 0. -1.
    3000001    1    5    5    0    0 -0.25808678824E+01 -0.58918400987E+01  0.10346630993E+02  0.12224051361E+02  0.10000000000E+01 0. -1.
        -13    1    6    6    0    0 -0.20821782248E+01 -0.19494150265E+02  0.15502372172E+02  0.24993837814E+02  0.10500000000E+00 0.  1.
         13    1    6    6    0    0 -0.21162788420E+01 -0.19633377151E+02  0.15786891115E+02  0.25282110090E+02  0.10500000000E+00 0. -1.
</event>
<event>
11    0  0.3448258E-009  0.9118800E+02  0.7816531E-02  0.1126479E+00
         25   -1    0    0    0    0  0.00000000000E+00  0.00000000000E+00  0.99999998245E-14  0.12500000000E+03  0.12500000000E+03 0.  0.
    3000001    1    3    3    0    0 -0.21192094196E+02  0.39406898270E+01  0.95706971729E+01  0.23605764912E+02  0.10000000000E+01 0.  1.
    1000022    2    1    0    0    0 -0.59557427889E+02  0.91797436080E+01  0.13224785465E+02  0.62499998058E+02  0.99999948637E+01 0.  0.
    3000022    2    3    3    0    0 -0.38365333693E+02  0.52390537810E+01  0.36540882917E+01  0.38894233146E+02  0.24999377338E+00 0.  0.
    1000022    2    1    0    0    0  0.59557427889E+02 -0.91797436080E+01 -0.13224785465E+02  0.62500001942E+02  0.10000019137E+02 0.  0.
    3000022    2    5    5    0    0  0.87287726576E+01 -0.20182252816E+01 -0.56731578700E+01  0.10607164125E+02  0.25001033642E+00 0.  0.
        -13    1    4    4    0    0 -0.16438748829E+02  0.22171052776E+01  0.15057281495E+01  0.16656117829E+02  0.10500000000E+00 0. -1.
         13    1    4    4    0    0 -0.21926584864E+02  0.30219485033E+01  0.21483601422E+01  0.22238115317E+02  0.10500000000E+00 0.  1.
    3000001    1    5    5    0    0  0.50828655231E+02 -0.71615183264E+01 -0.75516275946E+01  0.51892837817E+02  0.10000000000E+01 0.  1.
        -13    1    6    6    0    0  0.48467640690E+01 -0.10564334478E+01 -0.31673608537E+01  0.58864567736E+01  0.10500000000E+00 0. -1.
         13    1    6    6    0    0  0.38820085886E+01 -0.96179183381E+00 -0.25057970163E+01  0.47207073517E+01  0.10500000000E+00 0.  1.
</event>
<event>
11    0  0.3448258E-009  0.9118800E+02  0.7816531E-02  0.1126479E+00
         25   -1    0    0    0    0  0.00000000000E+00  0.00000000000E+00  0.99999998245E-14  0.12500000000E+03  0.12500000000E+03 0.  0.
    3000001    1    3    3    0    0 -0.16563394727E+02  0.87603259545E+00 -0.14708868267E+02  0.22191536307E+02  0.10000000000E+01 0. -1.
    1000022    2    1    0    0    0 -0.49211910151E+02 -0.93818725108E+01 -0.36005807711E+02  0.62500000803E+02  0.10000013944E+02 0.  0.
    3000022    2    3    3    0    0 -0.32648515424E+02 -0.10257905106E+02 -0.21296939444E+02  0.40308464495E+02  0.25000741947E+00 0.  0.
    1000022    2    1    0    0    0  0.49211910151E+02  0.93818725108E+01  0.36005807711E+02  0.62499999197E+02  0.10000003911E+02 0.  0.
    3000022    2    5    5    0    0  0.74275538973E+01  0.15905825231E+01  0.15075629985E+01  0.77481452062E+01  0.24999656461E+00 0.  0.
        -13    1    4    4    0    0 -0.92702865853E+01 -0.28766838504E+01 -0.60143640751E+01  0.11419155992E+02  0.10500000000E+00 0. -1.
         13    1    4    4    0    0 -0.23378228839E+02 -0.73812212559E+01 -0.15282575369E+02  0.28889308503E+02  0.10500000000E+00 0.  1.
    3000001    1    5    5    0    0  0.41784356254E+02  0.77912899877E+01  0.34498244712E+02  0.54751853991E+02  0.10000000000E+01 0. -1.
        -13    1    6    6    0    0  0.36584828096E+01  0.79688714823E+00  0.81093612561E+00  0.38325145786E+01  0.10500000000E+00 0. -1.
         13    1    6    6    0    0  0.37690710877E+01  0.79369537488E+00  0.69662687288E+00  0.39156306276E+01  0.10500000000E+00 0.  1.
</event>
<event>
11    0  0.3448258E-009  0.9118800E+02  0.7816531E-02  0.1126479E+00
         25   -1    0    0    0    0  0.00000000000E+00  0.00000000000E+00  0.99999998245E-14  0.12500000000E+03  0.12500000000E+03 0.  0.
    3000001    1    3    3    0    0  0.16641455186E+02 -0.75628407906E+00  0.18475958398E+02  0.24897209383E+02  0.10000000000E+01 0.  1.
    1000022    2    1    0    0    0  0.43092533703E+02 -0.13182919002E+02  0.42136612675E+02  0.62500000115E+02  0.10000003618E+02 0.  0.
    3000022    2    3    3    0    0  0.26451078516E+02 -0.12426634923E+02  0.23660654277E+02  0.37602790733E+02  0.24999973219E+00 0.  0.
    1000022    2    1    0    0    0 -0.43092533703E+02  0.13182919002E+02 -0.42136612675E+02  0.62499999885E+02  0.10000002179E+02 0.  0.
    3000022    2    5    5    0    0 -0.39750502704E+02  0.91139939752E+01 -0.36673514586E+02  0.54846846104E+02  0.25000808382E+00 0.  0.
        -13    1    4    4    0    0  0.17512383385E+02 -0.82753486140E+01  0.15639512742E+02  0.24895187292E+02  0.10500000000E+00 0. -1.
         13    1    4    4    0    0  0.89386951314E+01 -0.41512863089E+01  0.80211415352E+01  0.12707603440E+02  0.10500000000E+00 0.  1.
    3000001    1    5    5    0    0 -0.33420309985E+01  0.40689250268E+01 -0.54630980887E+01  0.76531537810E+01  0.10000000000E+01 0.  1.
        -13    1    6    6    0    0 -0.23846023543E+02  0.54268757504E+01 -0.21925736692E+02  0.32845589867E+02  0.10500000000E+00 0. -1.
         13    1    6    6    0    0 -0.15904479161E+02  0.36871182248E+01 -0.14747777894E+02  0.22001256237E+02  0.10500000000E+00 0.  1.
</event>
<event>
11    0  0.3448258E-009  0.9118800E+02  0.7816531E-02  0.1126479E+00
         25   -1    0    0    0    0  0.00000000000E+00  0.00000000000E+00  0.99999998245E-14  0.12500000000E+03  0.12500000000E+03 0.  0.
    3000001    1    3    3    0    0  0.13963899368E+02 -0.13093815170E+02 -0.72332794868E+01  0.20488016336E+02  0.10000000000E+01 0. -1.
    1000022    2    1    0    0    0  0.31022925781E+02 -0.45409202461E+02 -0.27961266794E+02  0.62499997843E+02  0.99999848716E+01 0.  0.
    3000022    2    3    3    0    0  0.17059026413E+02 -0.32315387291E+02 -0.20727987307E+02  0.42011981506E+02  0.24998866425E+00 0.  0.
    1000022    2    1    0    0    0 -0.31022925781E+02  0.45409202461E+02  0.27961266794E+02  0.62500002157E+02  0.10000011838E+02 0.  0.
    3000022    2    5    5    0    0 -0.25030611936E+02  0.29887759972E+02  0.16870065404E+02  0.42479069352E+02  0.24999228445E+00 0.  0.
        -13    1    4    4    0    0  0.11549291951E+02 -0.21802156549E+02 -0.13951601343E+02  0.28343930211E+02  0.10500000000E+00 0. -1.
         13    1    4    4    0    0  0.55097344613E+01 -0.10513230742E+02 -0.67763859644E+01  0.13668051295E+02  0.10500000000E+00 0.  1.
    3000001    1    5    5    0    0 -0.59923138443E+01  0.15521442489E+02  0.11091201390E+02  0.20020932806E+02  0.10000000000E+01 0. -1.
        -13    1    6    6    0    0 -0.17982961935E+02  0.21515446227E+02  0.12102717909E+02  0.30541580707E+02  0.10500000000E+00 0. -1.
         13    1    6    6    0    0 -0.70476500014E+01  0.83723137458E+01  0.47673474952E+01  0.11937488645E+02  0.10500000000E+00 0.  1.
</event>
<event>
11    0  0.3448258E-009  0.9118800E+02  0.7816531E-02  0.1126479E+00
         25   -1    0    0    0    0  0.00000000000E+00  0.00000000000E+00  0.99999998245E-14  0.12500000000E+03  0.12500000000E+03 0.  0.
    3000001    1    3    3    0    0  0.23504562760E+01 -0.28682733940E+01 -0.10160854454E+01  0.39729166365E+01  0.10000000000E+01 0.  1.
    1000022    2    1    0    0    0  0.36472334019E+02 -0.45896611997E+02  0.19222896320E+02  0.62499998925E+02  0.99999990520E+01 0.  0.
    3000022    2    3    3    0    0  0.34121877743E+02 -0.43028338603E+02  0.20238981766E+02  0.58527082288E+02  0.25002920855E+00 0.  0.
    1000022    2    1    0    0    0 -0.36472334019E+02  0.45896611997E+02 -0.19222896320E+02  0.62500001075E+02  0.10000012493E+02 0.  0.
    3000022    2    5    5    0    0 -0.32425626285E+02  0.43677016211E+02 -0.19453048380E+02  0.57771849332E+02  0.24999772400E+00 0.  0.
        -13    1    4    4    0    0  0.11770716405E+02 -0.14843854584E+02  0.69225945135E+01  0.20169856802E+02  0.10500000000E+00 0.  1.
         13    1    4    4    0    0  0.22351161338E+02 -0.28184484019E+02  0.13316387252E+02  0.38357225487E+02  0.10500000000E+00 0. -1.
    3000001    1    5    5    0    0 -0.40467077337E+01  0.22195957857E+01  0.23015205980E+00  0.47281517429E+01  0.10000000000E+01 0. -1.
        -13    1    6    6    0    0 -0.19678028786E+02  0.26406094608E+02 -0.11756758622E+02  0.34967685763E+02  0.10500000000E+00 0.  1.
         13    1    6    6    0    0 -0.12747597500E+02  0.17270921603E+02 -0.76962897578E+01  0.22804163569E+02  0.10500000000E+00 0. -1.
</event>
<event>
11    0  0.3448258E-009  0.9118800E+02  0.7816531E-02  0.1126479E+00
         25   -1    0    0    0    0  0.00000000000E+00  0.00000000000E+00  0.99999998245E-14  0.12500000000E+03  0.12500000000E+03 0.  0.
    3000001    1    3    3    0    0  0.30389667699E+02  0.34623584443E+02 -0.83150487883E+01  0.46823760409E+02  0.10000000000E+01 0.  1.
    1000022    2    1    0    0    0  0.42261596942E+02  0.44561649222E+02 -0.58708396579E+01  0.62500000355E+02  0.10000006432E+02 0.  0.
    3000022    2    3    3    0    0  0.11871929244E+02  0.99380647790E+01  0.24442091305E+01  0.15676239946E+02  0.25001011436E+00 0.  0.
    1000022    2    1    0    0    0 -0.42261596942E+02 -0.44561649222E+02  0.58708396579E+01  0.62499999645E+02  0.10000001991E+02 0.  0.
    3000022    2    5    5    0    0 -0.18659891152E+02 -0.19820519557E+02 -0.23307544629E+01  0.27322874131E+02  0.25000216197E+00 0.  0.
        -13    1    4    4    0    0  0.27770567204E+01  0.23167387032E+01  0.58260318334E+00  0.36646655668E+01  0.10500000000E+00 0. -1.
         13    1    4    4    0    0  0.90948725232E+01  0.76213260758E+01  0.18616059471E+01  0.12011574379E+02  0.10500000000E+00 0.  1.
    3000001    1    5    5    0    0 -0.23601705790E+02 -0.24741129665E+02  0.82015941208E+01  0.35177125514E+02  0.10000000000E+01 0. -1.
        -13    1    6    6    0    0 -0.62348309976E+01 -0.65904265097E+01 -0.82571861786E+00  0.91104157635E+01  0.10500000000E+00 0. -1.
         13    1    6    6    0    0 -0.12425060154E+02 -0.13230093048E+02 -0.15050358451E+01  0.18212458367E+02  0.10500000000E+00 0.  1.
</event>
<event>
11    0  0.3448258E-009  0.9118800E+02  0.7816531E-02  0.1126479E+00
         25   -1    0    0    0    0  0.00000000000E+00  0.00000000000E+00  0.99999998245E-14  0.12500000000E+03  0.12500000000E+03 0.  0.
    3000001    1    3    3    0    0  0.21119594566E+02 -0.15080064159E+02 -0.37567830749E+02  0.45670422779E+02  0.10000000000E+01 0. -1.
    1000022    2    1    0    0    0  0.33470152516E+02 -0.20753678932E+02 -0.47489826486E+02  0.62500000413E+02  0.10000006664E+02 0.  0.
    3000022    2    3    3    0    0  0.12350557951E+02 -0.56736147732E+01 -0.99219957377E+01  0.16829577634E+02  0.24999528595E+00 0.  0.
    1000022    2    1    0    0    0 -0.33470152516E+02  0.20753678932E+02  0.47489826486E+02  0.62499999587E+02  0.10000001498E+02 0.  0.
    3000022    2    5    5    0    0 -0.30647599860E+02  0.21331107028E+02  0.41840758319E+02  0.56080326865E+02  0.25000059446E+00 0.  0.
        -13    1    4    4    0    0  0.43475181205E+01 -0.20391370558E+01 -0.35584536508E+01  0.59776760639E+01  0.10500000000E+00 0.  1.
         13    1    4    4    0    0  0.80030398301E+01 -0.36344777175E+01 -0.63635420869E+01  0.10851901570E+02  0.10500000000E+00 0. -1.
    3000001    1    5    5    0    0 -0.28225526566E+01 -0.57742809581E+00  0.56490681670E+01  0.64196727222E+01  0.10000000000E+01 0.  1.
        -13    1    6    6    0    0 -0.14874079204E+02  0.10432810123E+02  0.20334144103E+02  0.27268483651E+02  0.10500000000E+00 0. -1.
         13    1    6    6    0    0 -0.15773520655E+02  0.10898296905E+02  0.21506614216E+02  0.28811843213E+02  0.10500000000E+00 0.  1.
</event>
<event>
11    0  0.3448258E-009  0.9118800E+02  0.7816531E-02  0.1126479E+00
         25   -1    0    0    0    0  0.00000000000E+00  0.00000000000E+00  0.99999998245E-14  0.12500000000E+03  0.12500000000E+03 0.  0.
    3000001    1    3    3    0    0  0.28562118333E+01  0.38621869304E+02 -0.13510138415E+02  0.41028411796E+02  0.10000000000E+01 0. -1.
    1000022    2    1    0    0    0  0.37631249260E+00  0.56019010081E+02 -0.25845294359E+02  0.62499997481E+02  0.99999671527E+01 0.  0.
    3000022    2    3    3    0    0 -0.24798993407E+01  0.17397140778E+02 -0.12335155945E+02  0.21471585685E+02  0.25002333104E+00 0.  0.
    1000022    2    1    0    0    0 -0.37631249260E+00 -0.56019010081E+02  0.25845294359E+02  0.62500002519E+02  0.99999986358E+01 0.  0.
    3000022    2    5    5    0    0 -0.46711309848E+01 -0.26019377373E+02  0.14284254872E+02  0.30048792024E+02  0.25000262411E+00 0.  0.
        -13    1    4    4    0    0 -0.12916500089E+01  0.91957211734E+01 -0.65972100929E+01  0.11391393842E+02  0.10500000000E+00 0. -1.
         13    1    4    4    0    0 -0.11882493318E+01  0.82014196041E+01 -0.57379458520E+01  0.10080191843E+02  0.10500000000E+00 0.  1.
    3000001    1    5    5    0    0  0.42948184922E+01 -0.29999632709E+02  0.11561039487E+02  0.32451210494E+02  0.10000000000E+01 0.  1.
        -13    1    6    6    0    0 -0.22474289787E+01 -0.12146182036E+02  0.66905560059E+01  0.14048318039E+02  0.10500000000E+00 0. -1.
         13    1    6    6    0    0 -0.24237020061E+01 -0.13873195337E+02  0.75936988665E+01  0.16000473985E+02  0.10500000000E+00 0.  1.
</event>
<event>
11    0  0.3448258E-009  0.9118800E+02  0.7816531E-02  0.1126479E+00
         25   -1    0    0    0    0  0.00000000000E+00  0.00000000000E+00  0.99999998245E-14  0.12500000000E+03  0.12500000000E+03 0.  0.
    3000001    1    3    3    0    0 -0.43167730258E+01  0.13960192298E+01 -0.20438111706E+01  0.50754864937E+01  0.10000000000E+01 0. -1.
    1000022    2    1    0    0    0 -0.61570078154E+02  0.34418238287E+01  0.18786570602E+01  0.62499997998E+02  0.99999861157E+01 0.  0.
    3000022    2    3    3    0    0 -0.57253305128E+02  0.20458045990E+01  0.39224682309E+01  0.57424511505E+02  0.24999998983E+00 0.  0.
    1000022    2    1    0    0    0  0.61570078154E+02 -0.34418238287E+01 -0.18786570602E+01  0.62500002002E+02  0.10000011138E+02 0.  0.
    3000022    2    5    5    0    0  0.19672405357E+02  0.32484800848E+01 -0.21755854026E+01  0.20058709389E+02  0.24999021638E+00 0.  0.
        -13    1    4    4    0    0 -0.31018669668E+02  0.11378321691E+01  0.21855241894E+01  0.31116556220E+02  0.10500000000E+00 0. -1.
         13    1    4    4    0    0 -0.26234635460E+02  0.90797242988E+00  0.17369440414E+01  0.26307955285E+02  0.10500000000E+00 0.  1.
    3000001    1    5    5    0    0  0.41897672796E+02 -0.66903039135E+01  0.29692834235E+00  0.42441292613E+02  0.10000000000E+01 0.  1.
        -13    1    6    6    0    0  0.13283129514E+02  0.22392698802E+01 -0.14445688406E+01  0.13548197792E+02  0.10500000000E+00 0. -1.
         13    1    6    6    0    0  0.63892758431E+01  0.10092102046E+01 -0.73101656195E+00  0.65105115967E+01  0.10500000000E+00 0.  1.
</event>
<event>
11    0  0.3448258E-009  0.9118800E+02  0.7816531E-02  0.1126479E+00
         25   -1    0    0    0    0  0.00000000000E+00  0.00000000000E+00  0.99999998245E-14  0.12500000000E+03  0.12500000000E+03 0.  0.
    3000001    1    3    3    0    0  0.76592907110E+01  0.62473220564E+01  0.99281648827E+01  0.14045007120E+02  0.10000000000E+01 0.  1.
    1000022    2    1    0    0    0  0.19754833722E+02  0.38923192413E+02  0.43600247544E+02  0.62499999813E+02  0.10000001390E+02 0.  0.
    3000022    2    3    3    0    0  0.12095543011E+02  0.32675870357E+02  0.33672082661E+02  0.48454992693E+02  0.25000373078E+00 0.  0.
    1000022    2    1    0    0    0 -0.19754833722E+02 -0.38923192413E+02 -0.43600247544E+02  0.62500000187E+02  0.10000003721E+02 0.  0.
    3000022    2    5    5    0    0 -0.27826073948E+01 -0.15460350812E+02 -0.17292091688E+02  0.23363310661E+02  0.24999788859E+00 0.  0.
        -13    1    4    4    0    0  0.55584158185E+01  0.14824961702E+02  0.15312754921E+02  0.22026505945E+02  0.10500000000E+00 0. -1.
         13    1    4    4    0    0  0.65371271924E+01  0.17850908655E+02  0.18359327740E+02  0.26428486748E+02  0.10500000000E+00 0.  1.
    3000001    1    5    5    0    0 -0.16972226327E+02 -0.23462841601E+02 -0.26308155856E+02  0.39136689526E+02  0.10000000000E+01 0. -1.
        -13    1    6    6    0    0 -0.12966537317E+01 -0.75864458021E+01 -0.84768541979E+01  0.11450045978E+02  0.10500000000E+00 0. -1.
         13    1    6    6    0    0 -0.14859536631E+01 -0.78739050099E+01 -0.88152374903E+01  0.11913264683E+02  0.10500000000E+00 0.  1.
</event>
<event>
11    0  0.3448258E-009  0.9118800E+02  0.7816531E-02  0.1126479E+00
         25   -1    0    0    0    0  0.00000000000E+00  0.00000000000E+00  0.99999998245E-14  0.12500000000E+03  0.12500000000E+03 0.  0.
    3000001    1    3    3    0    0  0.78269288944E+01  0.16546073915E+02 -0.18881117544E+02  0.26315964311E+02  0.10000000000E+01 0.  1.
    1000022    2    1    0    0    0  0.27466631234E+02  0.40552198809E+02 -0.37514699972E+02  0.62500005519E+02  0.10000065813E+02 0.  0.
    3000022    2    3    3    0    0  0.19639702340E+02  0.24006124894E+02 -0.18633582428E+02  0.36184041208E+02  0.25000717288E+00 0.  0.
    1000022    2    1    0    0    0 -0.27466631234E+02 -0.40552198809E+02  0.37514699972E+02  0.62499994481E+02  0.99999968301E+01 0.  0.
    3000022    2    5    5    0    0 -0.23085272040E+02 -0.26627369574E+02  0.24545112591E+02  0.42947312455E+02  0.24999879772E+00 0.  0.
        -13    1    4    4    0    0  0.66875059252E+01  0.80900099098E+01 -0.62931703718E+01  0.12238709661E+02  0.10500000000E+00 0.  1.
         13    1    4    4    0    0  0.12952196415E+02  0.15916114984E+02 -0.12340412056E+02  0.23945331546E+02  0.10500000000E+00 0. -1.
    3000001    1    5    5    0    0 -0.43813591948E+01 -0.13924829234E+02  0.12969587381E+02  0.19552682026E+02  0.10000000000E+01 0. -1.
        -13    1    6    6    0    0 -0.15451301116E+02 -0.17793267173E+02  0.16473528750E+02  0.28752934413E+02  0.10500000000E+00 0. -1.
         13    1    6    6    0    0 -0.76339709241E+01 -0.88341024009E+01  0.80715838415E+01  0.14194378042E+02  0.10500000000E+00 0.  1.
</event>
<event>
11    0  0.3448258E-009  0.9118800E+02  0.7816531E-02  0.1126479E+00
         25   -1    0    0    0    0  0.00000000000E+00  0.00000000000E+00  0.99999998245E-14  0.12500000000E+03  0.12500000000E+03 0.  0.
    3000001    1    3    3    0    0  0.19460443149E+02 -0.48284460265E+02  0.16259363175E+02  0.54547821602E+02  0.10000000000E+01 0. -1.
    1000022    2    1    0    0    0  0.19550204007E+02 -0.54569228732E+02  0.21124367195E+02  0.62499999811E+02  0.99999942978E+01 0.  0.
    3000022    2    3    3    0    0  0.89760857862E-01 -0.62847684661E+01  0.48650040199E+01  0.79521782091E+01  0.25000494346E+00 0.  0.
    1000022    2    1    0    0    0 -0.19550204007E+02  0.54569228732E+02 -0.21124367195E+02  0.62500000189E+02  0.99999966574E+01 0.  0.
    3000022    2    5    5    0    0 -0.18897606235E+02  0.43564000035E+02 -0.19399359092E+02  0.51296581270E+02  0.24999270488E+00 0.  0.
        -13    1    4    4    0    0 -0.88858041491E-02 -0.17494021100E+01  0.13307008510E+01  0.22005173153E+01  0.10500000000E+00 0. -1.
         13    1    4    4    0    0  0.98646662011E-01 -0.45353663561E+01  0.35343031688E+01  0.57516608938E+01  0.10500000000E+00 0.  1.
    3000001    1    5    5    0    0 -0.65259777255E+00  0.11005228696E+02 -0.17250081021E+01  0.11203418918E+02  0.10000000000E+01 0. -1.
        -13    1    6    6    0    0 -0.14202403781E+02  0.32739886915E+02 -0.14551765462E+02  0.38540541920E+02  0.10500000000E+00 0. -1.
         13    1    6    6    0    0 -0.46952024533E+01  0.10824113120E+02 -0.48475936305E+01  0.12756039351E+02  0.10500000000E+00 0.  1.
</event>
<event>
11    0  0.3448258E-009  0.9118800E+02  0.7816531E-02  0.1126479E+00
         25   -1    0    0    0    0  0.00000000000E+00  0.00000000000E+00  0.99999998245E-14  0.12500000000E+03  0.12500000000E+03 0.  0.
    3000001    1    3    3    0    0 -0.15636414339E+00 -0.84714932314E+01 -0.14927080651E+01  0.86613408132E+01  0.10000000000E+01 0. -1.
    1000022    2    1    0    0    0 -0.16866625145E+02 -0.58903832854E+02  0.72184566102E+01  0.62499994125E+02  0.99999290544E+01 0.  0.
    3000022    2    3    3    0    0 -0.16710261002E+02 -0.50432339623E+02  0.87111646752E+01  0.53838653312E+02  0.24999571220E+00 0.  0.
    1000022    2    1    0    0    0  0.16866625145E+02  0.58903832854E+02 -0.72184566102E+01  0.62500005875E+02  0.10000002490E+02 0.  0.
    3000022    2    5    5    0    0  0.10131897435E+01  0.19620345975E+02 -0.10104690777E+01  0.19674045703E+02  0.24999386846E+00 0.  0.
        -13    1    4    4    0    0 -0.97943568225E+01 -0.29375052849E+02  0.50485418522E+01  0.31373905642E+02  0.10500000000E+00 0. -1.
         13    1    4    4    0    0 -0.69159041792E+01 -0.21057286774E+02  0.36626228231E+01  0.22464747670E+02  0.10500000000E+00 0.  1.
    3000001    1    5    5    0    0  0.15853435402E+02  0.39283486879E+02 -0.62079875325E+01  0.42825960171E+02  0.10000000000E+01 0. -1.
        -13    1    6    6    0    0  0.67227516482E+00  0.12443554198E+02 -0.58992510239E+00  0.12476098413E+02  0.10500000000E+00 0.  1.
         13    1    6    6    0    0  0.34091457871E+00  0.71767917773E+01 -0.42054397528E+00  0.71979472907E+01  0.10500000000E+00 0. -1.
</event>
<event>
11    0  0.3448258E-009  0.9118800E+02  0.7816531E-02  0.1126479E+00
         25   -1    0    0    0    0  0.00000000000E+00  0.00000000000E+00  0.99999998245E-14  0.12500000000E+03  0.12500000000E+03 0.  0.
    3000001    1    3    3    0    0  0.27753093783E+02 -0.19476366788E+02  0.38435317260E+00  0.33922128547E+02  0.10000000000E+01 0.  1.
    1000022    2    1    0    0    0  0.52757221036E+02 -0.30927531276E+02  0.81494473037E+01  0.62499999895E+02  0.99999966622E+01 0.  0.
    3000022    2    3    3    0    0  0.25004127253E+02 -0.11451164489E+02  0.77650941311E+01  0.28577871348E+02  0.24999222763E+00 0.  0.
    1000022    2    1    0    0    0 -0.52757221036E+02  0.30927531276E+02 -0.81494473037E+01  0.62500000105E+02  0.99999979701E+01 0.  0.
    3000022    2    5    5    0    0 -0.50067925006E+02  0.26425641929E+02 -0.78144267260E+01  0.57151022667E+02  0.24992226872E+00 0.  0.
        -13    1    4    4    0    0  0.65639227916E+01 -0.30381812426E+01  0.20263559877E+01  0.75121748692E+01  0.10500000000E+00 0. -1.
         13    1    4    4    0    0  0.18440204461E+02 -0.84129832461E+01  0.57387381434E+01  0.21065696479E+02  0.10500000000E+00 0.  1.
    3000001    1    5    5    0    0 -0.26892960305E+01  0.45018893474E+01 -0.33502057770E+00  0.53489774371E+01  0.10000000000E+01 0. -1.
        -13    1    6    6    0    0 -0.34861847247E+02  0.18440339437E+02 -0.54739533636E+01  0.39816701301E+02  0.10500000000E+00 0. -1.
         13    1    6    6    0    0 -0.15206077758E+02  0.79853024921E+01 -0.23404733623E+01  0.17334321367E+02  0.10500000000E+00 0.  1.
</event>
<event>
11    0  0.3448258E-009  0.9118800E+02  0.7816531E-02  0.1126479E+00
         25   -1    0    0    0    0  0.00000000000E+00  0.00000000000E+00  0.99999998245E-14  0.12500000000E+03  0.12500000000E+03 0.  0.
    3000001    1    3    3    0    0 -0.27487216729E+02  0.44594342406E+01 -0.23398509689E+02  0.36385764976E+02  0.10000000000E+01 0. -1.
    1000022    2    1    0    0    0 -0.50952885038E+02  0.25392451642E+01 -0.34693022837E+02  0.62499999485E+02  0.99999921196E+01 0.  0.
    3000022    2    3    3    0    0 -0.23465668309E+02 -0.19201890764E+01 -0.11294513148E+02  0.26114234509E+02  0.25000290360E+00 0.  0.
    1000022    2    1    0    0    0  0.50952885038E+02 -0.25392451642E+01  0.34693022837E+02  0.62500000515E+02  0.99999985580E+01 0.  0.
    3000022    2    5    5    0    0  0.23549811463E+02 -0.51754544150E+01  0.12720459697E+02  0.27262640065E+02  0.25000013083E+00 0.  0.
        -13    1    4    4    0    0 -0.71971263399E+01 -0.54183629834E+00 -0.34709503796E+01  0.80094154384E+01  0.10500000000E+00 0.  1.
         13    1    4    4    0    0 -0.16268541969E+02 -0.13783527781E+01 -0.78235627679E+01  0.18104819070E+02  0.10500000000E+00 0. -1.
    3000001    1    5    5    0    0  0.27403073574E+02  0.26362092508E+01  0.21972563140E+02  0.35237360450E+02  0.10000000000E+01 0. -1.
        -13    1    6    6    0    0  0.16222364118E+02 -0.35858477297E+01  0.87145977527E+01  0.18761093798E+02  0.10500000000E+00 0.  1.
         13    1    6    6    0    0  0.73274473454E+01 -0.15896066853E+01  0.40058619442E+01  0.85015462670E+01  0.10500000000E+00 0. -1.
</event>
<event>
11    0  0.3448258E-009  0.9118800E+02  0.7816531E-02  0.1126479E+00
         25   -1    0    0    0    0  0.00000000000E+00  0.00000000000E+00  0.99999998245E-14  0.12500000000E+03  0.12500000000E+03 0.  0.
    3000001    1    3    3    0    0 -0.14987643227E+02 -0.55990004009E+01 -0.16258590078E+02  0.22832433211E+02  0.10000000000E+01 0. -1.
    1000022    2    1    0    0    0 -0.30201011298E+02 -0.14944459401E+02 -0.51679899583E+02  0.62499999796E+02  0.10000000172E+02 0.  0.
    3000022    2    3    3    0    0 -0.15213368070E+02 -0.93454590002E+01 -0.35421309505E+02  0.39667566585E+02  0.24999961222E+00 0.  0.
    1000022    2    1    0    0    0  0.30201011298E+02  0.14944459401E+02  0.51679899583E+02  0.62500000204E+02  0.10000002715E+02 0.  0.
    3000022    2    5    5    0    0  0.15537805519E+01 -0.14303733678E+01  0.27843916365E+01  0.35036471383E+01  0.25000901960E+00 0.  0.
        -13    1    4    4    0    0 -0.95010498289E+01 -0.57736837269E+01 -0.22118201693E+02  0.24755428551E+02  0.10500000000E+00 0.  1.
         13    1    4    4    0    0 -0.57123182416E+01 -0.35717752733E+01 -0.13303107812E+02  0.14912138034E+02  0.10500000000E+00 0. -1.
    3000001    1    5    5    0    0  0.28647230746E+02  0.16374832769E+02  0.48895507947E+02  0.58996353065E+02  0.10000000000E+01 0.  1.
        -13    1    6    6    0    0  0.10584500162E+01 -0.10060802170E+01  0.19875854637E+01  0.24686098954E+01  0.10500000000E+00 0.  1.
         13    1    6    6    0    0  0.49533053569E+00 -0.42429315081E+00  0.79680617276E+00  0.10350372430E+01  0.10500000000E+00 0. -1.
</event>
<event>
11    0  0.3448258E-009  0.9118800E+02  0.7816531E-02  0.1126479E+00
         25   -1    0    0    0    0  0.00000000000E+00  0.00000000000E+00  0.99999998245E-14  0.12500000000E+03  0.12500000000E+03 0.  0.
    3000001    1    3    3    0    0 -0.37125860408E+01 -0.52669202367E+01 -0.29576829309E+01  0.71604212313E+01  0.10000000000E+01 0.  1.
    1000022    2    1    0    0    0 -0.26539982114E+02 -0.55665230072E+02 -0.18061974300E+01  0.62499991781E+02  0.99999066963E+01 0.  0.
    3000022    2    3    3    0    0 -0.22827396074E+02 -0.50398309835E+02  0.11514855009E+01  0.55339570550E+02  0.25000814242E+00 0.  0.
    1000022    2    1    0    0    0  0.26539982114E+02  0.55665230072E+02  0.18061974300E+01  0.62500008219E+02  0.10000009431E+02 0.  0.
    3000022    2    5    5    0    0  0.19249797065E+01  0.13395506037E+02  0.93222408032E+00  0.13567485875E+02  0.25000474947E+00 0.  0.
        -13    1    4    4    0    0 -0.16496123285E+02 -0.36408730426E+02  0.87044905424E+00  0.39981076038E+02  0.10500000000E+00 0.  1.
         13    1    4    4    0    0 -0.63312727885E+01 -0.13989579409E+02  0.28103644661E+00  0.15358494512E+02  0.10500000000E+00 0. -1.
    3000001    1    5    5    0    0  0.24615002408E+02  0.42269724035E+02  0.87397334969E+00  0.48932522344E+02  0.10000000000E+01 0. -1.
        -13    1    6    6    0    0  0.49980506494E+00  0.37160699314E+01  0.27705785452E+00  0.37612188041E+01  0.10500000000E+00 0. -1.
         13    1    6    6    0    0  0.14251746415E+01  0.96794361053E+01  0.65516622580E+00  0.98062670705E+01  0.10500000000E+00 0.  1.
</event>
<event>
11    0  0.3448258E-009  0.9118800E+02  0.7816531E-02  0.1126479E+00
         25   -1    0    0    0    0  0.00000000000E+00  0.00000000000E+00  0.99999998245E-14  0.12500000000E+03  0.12500000000E+03 0.  0.
    3000001    1    3    3    0    0 -0.20285343109E+01  0.43507886056E+02  0.36840711404E+02  0.57055141024E+02  0.10000000000E+01 0. -1.
    1000022    2    1    0    0    0 -0.43130926005E+01  0.45631561283E+02  0.41296582834E+02  0.62499999640E+02  0.10000002414E+02 0.  0.
    3000022    2    3    3    0    0 -0.22845582896E+01  0.21236752273E+01  0.44558714293E+01  0.54448586154E+01  0.24998419387E+00 0.  0.
    1000022    2    1    0    0    0  0.43130926005E+01 -0.45631561283E+02 -0.41296582834E+02  0.62500000360E+02  0.10000006918E+02 0.  0.
    3000022    2    5    5    0    0 -0.27661767520E+01 -0.57206068527E+01 -0.52172551157E+01  0.82255291357E+01  0.25000406740E+00 0.  0.
        -13    1    4    4    0    0 -0.13760948822E+01  0.13130468682E+01  0.26148163048E+01  0.32351226423E+01  0.10500000000E+00 0.  1.
         13    1    4    4    0    0 -0.90846340739E+00  0.81062835908E+00  0.18410551245E+01  0.22097359731E+01  0.10500000000E+00 0. -1.
    3000001    1    5    5    0    0  0.70792693524E+01 -0.39910954431E+02 -0.36079327718E+02  0.54274471225E+02  0.10000000000E+01 0. -1.
        -13    1    6    6    0    0 -0.72239919642E+00 -0.15351673656E+01 -0.14334475026E+01  0.22235998251E+01  0.10500000000E+00 0.  1.
         13    1    6    6    0    0 -0.20437775556E+01 -0.41854394871E+01 -0.37838076131E+01  0.60019293106E+01  0.10500000000E+00 0. -1.
</event>
<event>
11    0  0.3448258E-009  0.9118800E+02  0.7816531E-02  0.1126479E+00
         25   -1    0    0    0    0  0.00000000000E+00  0.00000000000E+00  0.99999998245E-14  0.12500000000E+03  0.12500000000E+03 0.  0.
    3000001    1    3    3    0    0  0.43869308406E+02 -0.12350971193E+01  0.39329328258E+02  0.58939271680E+02  0.10000000000E+01 0.  1.
    1000022    2    1    0    0    0  0.44674811499E+02  0.30491564198E-01  0.42548914403E+02  0.62499998552E+02  0.99999994960E+01 0.  0.
    3000022    2    3    3    0    0  0.80550309346E+00  0.12655886835E+01  0.32195861449E+01  0.35607268725E+01  0.24998193292E+00 0.  0.
    1000022    2    1    0    0    0 -0.44674811499E+02 -0.30491564198E-01 -0.42548914403E+02  0.62500001448E+02  0.10000017595E+02 0.  0.
    3000022    2    5    5    0    0 -0.28366911800E+02  0.47120430825E+01 -0.27384713632E+02  0.39709823465E+02  0.25000766713E+00 0.  0.
        -13    1    4    4    0    0  0.58778123970E+00  0.87466605852E+00  0.23316520054E+01  0.25608892154E+01  0.10500000000E+00 0.  1.
         13    1    4    4    0    0  0.21772185376E+00  0.39092262497E+00  0.88793413954E+00  0.99983765706E+00  0.10500000000E+00 0. -1.
    3000001    1    5    5    0    0 -0.16307899699E+02 -0.47425346466E+01 -0.15164200771E+02  0.22790177983E+02  0.10000000000E+01 0.  1.
        -13    1    6    6    0    0 -0.16291825105E+02  0.27645424393E+01 -0.15694214268E+02  0.22790033932E+02  0.10500000000E+00 0. -1.
         13    1    6    6    0    0 -0.12075086696E+02  0.19475006432E+01 -0.11690499364E+02  0.16919789533E+02  0.10500000000E+00 0.  1.
</event>
<event>
11    0  0.3448258E-009  0.9118800E+02  0.7816531E-02  0.1126479E+00
         25   -1    0    0    0    0  0.00000000000E+00  0.00000000000E+00  0.99999998245E-14  0.12500000000E+03  0.12500000000E+03 0.  0.
    3000001    1    3    3    0    0 -0.31413817839E+02  0.11277924419E+02 -0.10956810295E+02  0.35143580100E+02  0.10000000000E+01 0.  1.
    1000022    2    1    0    0    0 -0.52474180177E+02  0.27687481609E+02 -0.16914893307E+02  0.62499999469E+02  0.10000004747E+02 0.  0.
    3000022    2    3    3    0    0 -0.21060362337E+02  0.16409557190E+02 -0.59580830117E+01  0.27356419368E+02  0.24999702181E+00 0.  0.
    1000022    2    1    0    0    0  0.52474180177E+02 -0.27687481609E+02  0.16914893307E+02  0.62500000531E+02  0.10000011388E+02 0.  0.
    3000022    2    5    5    0    0  0.65798117897E+01 -0.52397516936E+01  0.57579933121E+01  0.10196367335E+02  0.24999771753E+00 0.  0.
        -13    1    4    4    0    0 -0.10056344025E+02  0.78774491796E+01 -0.27903035314E+01  0.13075973368E+02  0.10500000000E+00 0.  1.
         13    1    4    4    0    0 -0.11004018312E+02  0.85321080105E+01 -0.31677794803E+01  0.14280446000E+02  0.10500000000E+00 0. -1.
    3000001    1    5    5    0    0  0.45894368387E+02 -0.22447729915E+02  0.11156899995E+02  0.52303633196E+02  0.10000000000E+01 0. -1.
        -13    1    6    6    0    0  0.45367999218E+01 -0.35505063646E+01  0.39312278755E+01  0.69752581733E+01  0.10500000000E+00 0.  1.
         13    1    6    6    0    0  0.20430118679E+01 -0.16892453290E+01  0.18267654366E+01  0.32211091621E+01  0.10500000000E+00 0. -1.
</event>
<event>
11    0  0.3448258E-009  0.9118800E+02  0.7816531E-02  0.1126479E+00
         25   -1    0    0    0    0  0.00000000000E+00  0.00000000000E+00  0.99999998245E-14  0.12500000000E+03  0.12500000000E+03 0.  0.
    3000001    1    3    3    0    0  0.12226915899E+02  0.48087099704E+01  0.22522217965E+01  0.13367635056E+02  0.10000000000E+01 0. -1.
    1000022    2    1    0    0    0  0.48855790663E+02  0.26465075121E+02  0.26813456224E+02  0.62500000705E+02  0.10000008546E+02 0.  0.
    3000022    2    3    3    0    0  0.36628874765E+02  0.21656365151E+02  0.24561234428E+02  0.49132365649E+02  0.24999914256E+00 0.  0.
    1000022    2    1    0    0    0 -0.48855790663E+02 -0.26465075121E+02 -0.26813456224E+02  0.62499999295E+02  0.99999997328E+01 0.  0.
    3000022    2    5    5    0    0 -0.23497855506E+02 -0.13304716958E+02 -0.18483257394E+02  0.32723966736E+02  0.24997659711E+00 0.  0.
        -13    1    4    4    0    0  0.10970390193E+02  0.64381844704E+01  0.73199574670E+01  0.14676255741E+02  0.10500000000E+00 0. -1.
         13    1    4    4    0    0  0.25658484572E+02  0.15218180680E+02  0.17241276961E+02  0.34456109908E+02  0.10500000000E+00 0.  1.
    3000001    1    5    5    0    0 -0.25357935157E+02 -0.13160358163E+02 -0.83301988304E+01  0.29776032559E+02  0.10000000000E+01 0.  1.
        -13    1    6    6    0    0 -0.89909200728E+01 -0.50375407008E+01 -0.71025837876E+01  0.12516835923E+02  0.10500000000E+00 0. -1.
         13    1    6    6    0    0 -0.14506935433E+02 -0.82671762577E+01 -0.11380673606E+02  0.20207130812E+02  0.10500000000E+00 0.  1.
</event>
<event>
11    0  0.3448258E-009  0.9118800E+02  0.7816531E-02  0.1126479E+00
         25   -1    0    0    0    0  0.00000000000E+00  0.00000000000E+00  0.99999998245E-14  0.12500000000E+03  0.12500000000E+03 0.  0.
    3000001    1    3    3    0    0 -0.37115940698E+02  0.26037298417E+02 -0.29266751008E+01  0.45443364641E+02  0.10000000000E+01 0.  1.
    1000022    2    1    0    0    0 -0.51115250477E+02  0.33209905506E+02 -0.95175285188E+01  0.62500000119E+02  0.10000000536E+02 0.  0.
    3000022    2    3    3    0    0 -0.13999309779E+02  0.71726070886E+01 -0.65908534180E+01  0.17056635478E+02  0.24999661305E+00 0.  0.
    1000022    2    1    0    0    0  0.51115250477E+02 -0.33209905506E+02  0.95175285188E+01  0.62499999881E+02  0.99999990463E+01 0.  0.
    3000022    2    5    5    0    0  0.34277390195E+02 -0.24790300944E+02  0.10619217854E+02  0.43615694247E+02  0.24999477037E+00 0.  0.
        -13    1    4    4    0    0 -0.44063263870E+01  0.22027621803E+01 -0.20708743898E+01  0.53448497818E+01  0.10500000000E+00 0.  1.
         13    1    4    4    0    0 -0.95929833920E+01  0.49698449083E+01 -0.45199790282E+01  0.11711785696E+02  0.10500000000E+00 0. -1.
    3000001    1    5    5    0    0  0.16837860283E+02 -0.84196045620E+01 -0.11016893347E+01  0.18884305634E+02  0.10000000000E+01 0. -1.
        -13    1    6    6    0    0  0.20249121784E+02 -0.14597282830E+02  0.62134807615E+01  0.25724034816E+02  0.10500000000E+00 0.  1.
         13    1    6    6    0    0  0.14028268411E+02 -0.10193018114E+02  0.44057370920E+01  0.17891659431E+02  0.10500000000E+00 0. -1.
</event>
<event>
11    0  0.3448258E-009  0.9118800E+02  0.7816531E-02  0.1126479E+00
         25   -1    0    0    0    0  0.00000000000E+00  0.00000000000E+00  0.99999998245E-14  0.12500000000E+03  0.12500000000E+03 0.  0.
    3000001    1    3    3    0    0 -0.15929665931E+02  0.25569807961E+02 -0.49207133710E+01  0.30541492365E+02  0.10000000000E+01 0.  1.
    1000022    2    1    0    0    0 -0.39421603800E+02  0.47233414779E+02 -0.46034378734E+01  0.62499999405E+02  0.99999983761E+01 0.  0.
    3000022    2    3    3    0    0 -0.23491937869E+02  0.21663606819E+02  0.31727549765E+00  0.31958507040E+02  0.25000648897E+00 0.  0.
    1000022    2    1    0    0    0  0.39421603800E+02 -0.47233414779E+02  0.46034378734E+01  0.62500000595E+02  0.10000005815E+02 0.  0.
    3000022    2    5    5    0    0  0.58017915735E+01 -0.33217086059E+01  0.25162345995E+01  0.71476191589E+01  0.24997910964E+00 0.  0.
        -13    1    4    4    0    0 -0.10303982554E+02  0.95814853177E+01  0.17080487878E+00  0.14071855481E+02  0.10500000000E+00 0. -1.
         13    1    4    4    0    0 -0.13187955315E+02  0.12082121501E+02  0.14647061886E+00  0.17886651559E+02  0.10500000000E+00 0.  1.
    3000001    1    5    5    0    0  0.33619812226E+02 -0.43911706173E+02  0.20872032739E+01  0.55352381436E+02  0.10000000000E+01 0.  1.
        -13    1    6    6    0    0  0.43821801702E+01 -0.25135250170E+01  0.18765501473E+01  0.53901555182E+01  0.10500000000E+00 0.  1.
         13    1    6    6    0    0  0.14196114034E+01 -0.80818358892E+00  0.63968445218E+00  0.17574636407E+01  0.10500000000E+00 0. -1.
</event>
<event>
11    0  0.3448258E-009  0.9118800E+02  0.7816531E-02  0.1126479E+00
         25   -1    0    0    0    0  0.00000000000E+00  0.00000000000E+00  0.99999998245E-14  0.12500000000E+03  0.12500000000E+03 0.  0.
    3000001    1    3    3    0    0  0.29806906381E+02 -0.63053316016E+01  0.70957231376E+01  0.31297893882E+02  0.10000000000E+01 0.  1.
    1000022    2    1    0    0    0  0.60994390584E+02 -0.54695085037E+01  0.74845608383E+01  0.62500000628E+02  0.10000011082E+02 0.  0.
    3000022    2    3    3    0    0  0.31187484203E+02  0.83582309790E+00  0.38883770074E+00  0.31202106746E+02  0.24999899710E+00 0.  0.
    1000022    2    1    0    0    0 -0.60994390584E+02  0.54695085037E+01 -0.74845608383E+01  0.62499999372E+02  0.10000003229E+02 0.  0.
    3000022    2    5    5    0    0 -0.35005174096E+02  0.73638050082E+01 -0.18445989439E+01  0.35819727577E+02  0.25000141159E+00 0.  0.
        -13    1    4    4    0    0  0.71358838125E+01  0.19223352578E+00  0.90592894007E-01  0.71398195766E+01  0.10500000000E+00 0.  1.
         13    1    4    4    0    0  0.24051600390E+02  0.64358957212E+00  0.29824480674E+00  0.24062287170E+02  0.10500000000E+00 0. -1.
    3000001    1    5    5    0    0 -0.25989216487E+02 -0.18942965045E+01 -0.56399618944E+01  0.26680271795E+02  0.10000000000E+01 0.  1.
        -13    1    6    6    0    0 -0.15060094051E+02  0.32225807344E+01 -0.75597676439E+00  0.15419921701E+02  0.10500000000E+00 0.  1.
         13    1    6    6    0    0 -0.19945080046E+02  0.41412242738E+01 -0.10886221795E+01  0.20399805876E+02  0.10500000000E+00 0. -1.
</event>
<event>
11    0  0.3448258E-009  0.9118800E+02  0.7816531E-02  0.1126479E+00
         25   -1    0    0    0    0  0.00000000000E+00  0.00000000000E+00  0.99999998245E-14  0.12500000000E+03  0.12500000000E+03 0.  0.
    3000001    1    3    3    0    0 -0.19658608864E+02 -0.30633249385E+02 -0.22786447975E+02  0.42954383731E+02  0.10000000000E+01 0. -1.
    1000022    2    1    0    0    0 -0.24718346010E+02 -0.41925854574E+02 -0.37914062630E+02  0.62499999588E+02  0.99999946147E+01 0.  0.
    3000022    2    3    3    0    0 -0.50597371455E+01 -0.11292605189E+02 -0.15127614654E+02  0.19545615858E+02  0.25000440162E+00 0.  0.
    1000022    2    1    0    0    0  0.24718346010E+02  0.41925854574E+02  0.37914062630E+02  0.62500000412E+02  0.99999997585E+01 0.  0.
    3000022    2    5    5    0    0  0.20392420202E+02  0.28251560246E+02  0.30584272916E+02  0.46362287541E+02  0.24999639165E+00 0.  0.
        -13    1    4    4    0    0 -0.16340812153E+01 -0.37726955559E+01 -0.50492441352E+01  0.65122457350E+01  0.10500000000E+00 0.  1.
         13    1    4    4    0    0 -0.34256559302E+01 -0.75199096328E+01 -0.10078370519E+02  0.13033370123E+02  0.10500000000E+00 0. -1.
    3000001    1    5    5    0    0  0.43259258080E+01  0.13674294328E+02  0.73297897140E+01  0.16137712871E+02  0.10000000000E+01 0.  1.
        -13    1    6    6    0    0  0.97326322697E+01  0.13447690770E+02  0.14656843573E+02  0.22144945393E+02  0.10500000000E+00 0.  1.
         13    1    6    6    0    0  0.10659787932E+02  0.14803869476E+02  0.15927429343E+02  0.24217342148E+02  0.10500000000E+00 0. -1.
</event>
<event>
11    0  0.3448258E-009  0.9118800E+02  0.7816531E-02  0.1126479E+00
         25   -1    0    0    0    0  0.00000000000E+00  0.00000000000E+00  0.99999998245E-14  0.12500000000E+03  0.12500000000E+03 0.  0.
    3000001    1    3    3    0    0  0.10311644807E+01 -0.27399435316E+02 -0.17499744887E+02  0.32542793779E+02  0.10000000000E+01 0. -1.
    1000022    2    1    0    0    0 -0.34693107850E+00 -0.56321701366E+02 -0.25179267964E+02  0.62499999924E+02  0.10000002468E+02 0.  0.
    3000022    2    3    3    0    0 -0.13780955592E+01 -0.28922266050E+02 -0.76795230772E+01  0.29957206145E+02  0.25000898525E+00 0.  0.
    1000022    2    1    0    0    0  0.34693107850E+00  0.56321701366E+02  0.25179267964E+02  0.62500000076E+02  0.10000003414E+02 0.  0.
    3000022    2    5    5    0    0  0.27844830527E+01  0.51196015124E+02  0.21125415516E+02  0.55453863634E+02  0.25000154817E+00 0.  0.
        -13    1    4    4    0    0 -0.66647152790E+00 -0.15393120884E+02 -0.40783482802E+01  0.15938516385E+02  0.10500000000E+00 0. -1.
         13    1    4    4    0    0 -0.71162403133E+00 -0.13529145165E+02 -0.36011747969E+01  0.14018689760E+02  0.10500000000E+00 0. -1.
    3000001    1    5    5    0    0 -0.24375519742E+01  0.51256862422E+01  0.40538524481E+01  0.70461364414E+01  0.10000000000E+01 0.  1.
        -13    1    6    6    0    0  0.83508331126E+00  0.15558151227E+02  0.64689809060E+01  0.16870452652E+02  0.10500000000E+00 0.  1.
         13    1    6    6    0    0  0.19493997415E+01  0.35637863897E+02  0.14656434610E+02  0.38583410982E+02  0.10500000000E+00 0. -1.
</event>
<event>
11    0  0.3448258E-009  0.9118800E+02  0.7816531E-02  0.1126479E+00
         25   -1    0    0    0    0  0.00000000000E+00  0.00000000000E+00  0.99999998245E-14  0.12500000000E+03  0.12500000000E+03 0.  0.
    3000001    1    3    3    0    0 -0.72990394300E+00  0.18246131931E+01  0.31234281783E+01  0.38233201090E+01  0.10000000000E+01 0.  1.
    1000022    2    1    0    0    0  0.18274254142E+02  0.11777039952E+02  0.57737361073E+02  0.62500001918E+02  0.10000017081E+02 0.  0.
    3000022    2    3    3    0    0  0.19004158085E+02  0.99524267592E+01  0.54613932895E+02  0.58676681809E+02  0.24999799611E+00 0.  0.
    1000022    2    1    0    0    0 -0.18274254142E+02 -0.11777039952E+02 -0.57737361073E+02  0.62499998082E+02  0.99999931008E+01 0.  0.
    3000022    2    5    5    0    0 -0.13149463196E+02 -0.89316649220E+01 -0.28223648400E+02  0.32393206870E+02  0.25000337687E+00 0.  0.
        -13    1    4    4    0    0  0.59451247804E+01  0.31312113578E+01  0.16979937719E+02  0.18261388314E+02  0.10500000000E+00 0. -1.
         13    1    4    4    0    0  0.13059033305E+02  0.68212154014E+01  0.37633995176E+02  0.40415293496E+02  0.10500000000E+00 0.  1.
    3000001    1    5    5    0    0 -0.51247909457E+01 -0.28453750303E+01 -0.29513712673E+02  0.30106791211E+02  0.10000000000E+01 0. -1.
        -13    1    6    6    0    0 -0.79975473144E+01 -0.54776308816E+01 -0.17310831144E+02  0.19840390697E+02  0.10500000000E+00 0.  1.
         13    1    6    6    0    0 -0.51519158820E+01 -0.34540340404E+01 -0.10912817257E+02  0.12552816173E+02  0.10500000000E+00 0. -1.
</event>
<event>
11    0  0.3448258E-009  0.9118800E+02  0.7816531E-02  0.1126479E+00
         25   -1    0    0    0    0  0.00000000000E+00  0.00000000000E+00  0.99999998245E-14  0.12500000000E+03  0.12500000000E+03 0.  0.
    3000001    1    3    3    0    0 -0.21622464230E+02 -0.21963225546E+02  0.20364617004E+02  0.36954456585E+02  0.10000000000E+01 0. -1.
    1000022    2    1    0    0    0 -0.32924286168E+02 -0.42857127526E+02  0.29757487674E+02  0.62500000913E+02  0.10000002105E+02 0.  0.
    3000022    2    3    3    0    0 -0.11301821938E+02 -0.20893901979E+02  0.93928706694E+01  0.25545544328E+02  0.24999312799E+00 0.  0.
    1000022    2    1    0    0    0  0.32924286168E+02  0.42857127526E+02 -0.29757487674E+02  0.62499999087E+02  0.99999906892E+01 0.  0.
    3000022    2    5    5    0    0  0.96091044542E+01  0.60022431542E+01 -0.57404055710E+01  0.12703408510E+02  0.25004069848E+00 0.  0.
        -13    1    4    4    0    0 -0.47884576080E+01 -0.89445370981E+01  0.40638670226E+01  0.10929780892E+02  0.10500000000E+00 0. -1.
         13    1    4    4    0    0 -0.65133643296E+01 -0.11949364881E+02  0.53290036468E+01  0.14615763436E+02  0.10500000000E+00 0.  1.
    3000001    1    5    5    0    0  0.23315181714E+02  0.36854884371E+02 -0.24017082103E+02  0.49796590577E+02  0.10000000000E+01 0. -1.
        -13    1    6    6    0    0  0.62650440359E+01  0.38560453000E+01 -0.37594667697E+01  0.82622319938E+01  0.10500000000E+00 0.  1.
         13    1    6    6    0    0  0.33440604183E+01  0.21461978542E+01 -0.19809388013E+01  0.44411765158E+01  0.10500000000E+00 0. -1.
</event>
<event>
11    0  0.3448258E-009  0.9118800E+02  0.7816531E-02  0.1126479E+00
         25   -1    0    0    0    0  0.00000000000E+00  0.00000000000E+00  0.99999998245E-14  0.12500000000E+03  0.12500000000E+03 0.  0.
    3000001    1    3    3    0    0  0.18750402483E+01 -0.23835734276E+00 -0.19994903444E+01  0.29275504766E+01  0.10000000000E+01 0.  1.
    1000022    2    1    0    0    0  0.48519442399E+02  0.29377395563E+02 -0.24271020552E+02  0.62499999058E+02  0.99999891381E+01 0.  0.
    3000022    2    3    3    0    0  0.46644402151E+02  0.29615752906E+02 -0.22271530207E+02  0.59572448581E+02  0.24999989859E+00 0.  0.
    1000022    2    1    0    0    0 -0.48519442399E+02 -0.29377395563E+02  0.24271020552E+02  0.62500000942E+02  0.10000000917E+02 0.  0.
    3000022    2    5    5    0    0 -0.35726529170E+02 -0.16289153650E+02  0.16501222986E+02  0.42591950825E+02  0.25000368280E+00 0.  0.
        -13    1    4    4    0    0  0.28062378939E+02  0.17891573554E+02 -0.13408288394E+02  0.35880339165E+02  0.10500000000E+00 0. -1.
         13    1    4    4    0    0  0.18582023212E+02  0.11724179352E+02 -0.88632418134E+01  0.23692109416E+02  0.10500000000E+00 0.  1.
    3000001    1    5    5    0    0 -0.12792913229E+02 -0.13088241913E+02  0.77697975659E+01  0.19908050117E+02  0.10000000000E+01 0.  1.
        -13    1    6    6    0    0 -0.11046185472E+02 -0.50886675096E+01  0.51206714776E+01  0.13196402991E+02  0.10500000000E+00 0.  1.
         13    1    6    6    0    0 -0.24680343698E+02 -0.11200486141E+02  0.11380551508E+02  0.29395547834E+02  0.10500000000E+00 0. -1.
</event>
<event>
11    0  0.3448258E-009  0.9118800E+02  0.7816531E-02  0.1126479E+00
         25   -1    0    0    0    0  0.00000000000E+00  0.00000000000E+00  0.99999998245E-14  0.12500000000E+03  0.12500000000E+03 0.  0.
    3000001    1    3    3    0    0  0.87286866048E+01 -0.16993852156E+02 -0.99487171195E+01  0.21562883696E+02  0.10000000000E+01 0. -1.
    1000022    2    1    0    0    0  0.19231444289E+02 -0.43362426698E+02 -0.39447452245E+02  0.62500000278E+02  0.10000002378E+02 0.  0.
    3000022    2    3    3    0    0  0.10502757684E+02 -0.26368574542E+02 -0.29498735125E+02  0.40937116582E+02  0.24999547681E+00 0.  0.
    1000022    2    1    0    0    0 -0.19231444289E+02  0.43362426698E+02  0.39447452245E+02  0.62499999722E+02  0.99999989045E+01 0.  0.
    3000022    2    5    5    0    0 -0.86578507446E+01  0.22922976440E+02  0.26429810155E+02  0.36041900530E+02  0.25000119755E+00 0.  0.
        -13    1    4    4    0    0  0.67700701788E+01 -0.16879530050E+02 -0.18956196268E+02  0.26269769449E+02  0.10500000000E+00 0.  1.
         13    1    4    4    0    0  0.37326875053E+01 -0.94890444912E+01 -0.10542538858E+02  0.14667347133E+02  0.10500000000E+00 0. -1.
    3000001    1    5    5    0    0 -0.10573593544E+02  0.20439450258E+02  0.13017642090E+02  0.26458099192E+02  0.10000000000E+01 0.  1.
        -13    1    6    6    0    0 -0.35849070382E+01  0.96238366921E+01  0.11143213759E+02  0.15154274282E+02  0.10500000000E+00 0. -1.
         13    1    6    6    0    0 -0.50729437064E+01  0.13299139748E+02  0.15286596396E+02  0.20887626248E+02  0.10500000000E+00 0.  1.
</event>
<event>
11    0  0.3448258E-009  0.9118800E+02  0.7816531E-02  0.1126479E+00
         25   -1    0    0    0    0  0.00000000000E+00  0.00000000000E+00  0.99999998245E-14  0.12500000000E+03  0.12500000000E+03 0.  0.
    3000001    1    3    3    0    0 -0.15503205381E+02 -0.29777802044E+02  0.16917194506E+02  0.37606626299E+02  0.10000000000E+01 0.  1.
    1000022    2    1    0    0    0 -0.31933613841E+02 -0.44327253028E+02  0.28663373247E+02  0.62500000183E+02  0.10000000154E+02 0.  0.
    3000022    2    3    3    0    0 -0.16430408460E+02 -0.14549450983E+02  0.11746178741E+02  0.24893373884E+02  0.25000441960E+00 0.  0.
    1000022    2    1    0    0    0  0.31933613841E+02  0.44327253028E+02 -0.28663373247E+02  0.62499999817E+02  0.99999978646E+01 0.  0.
    3000022    2    5    5    0    0  0.97554345841E+01  0.17555421537E+02 -0.59020074302E+01  0.20934601101E+02  0.25000462588E+00 0.  0.
        -13    1    4    4    0    0 -0.93482313222E+01 -0.82476276812E+01  0.66023497895E+01  0.14107261923E+02  0.10500000000E+00 0. -1.
         13    1    4    4    0    0 -0.70821771381E+01 -0.63018233019E+01  0.51438289516E+01  0.10786111961E+02  0.10500000000E+00 0.  1.
    3000001    1    5    5    0    0  0.22178179257E+02  0.26771831491E+02 -0.22761365817E+02  0.41565398715E+02  0.10000000000E+01 0.  1.
        -13    1    6    6    0    0  0.50593699133E+01  0.91343230564E+01 -0.31373991563E+01  0.10903548967E+02  0.10500000000E+00 0.  1.
         13    1    6    6    0    0  0.46960646709E+01  0.84210984803E+01 -0.27646082739E+01  0.10031052134E+02  0.10500000000E+00 0. -1.
</event>
<event>
11    0  0.3448258E-009  0.9118800E+02  0.7816531E-02  0.1126479E+00
         25   -1    0    0    0    0  0.00000000000E+00  0.00000000000E+00  0.99999998245E-14  0.12500000000E+03  0.12500000000E+03 0.  0.
    3000001    1    3    3    0    0 -0.13138621605E+02  0.84240307304E+01 -0.83288604614E+01  0.17718848383E+02  0.10000000000E+01 0. -1.
    1000022    2    1    0    0    0 -0.54453323432E+02  0.22720397566E+02 -0.18024129289E+02  0.62499998878E+02  0.99999862366E+01 0.  0.
    3000022    2    3    3    0    0 -0.41314701827E+02  0.14296366836E+02 -0.96952688275E+01  0.44781150495E+02  0.25002050133E+00 0.  0.
    1000022    2    1    0    0    0  0.54453323432E+02 -0.22720397566E+02  0.18024129289E+02  0.62500001122E+02  0.10000000261E+02 0.  0.
    3000022    2    5    5    0    0  0.48209554331E+02 -0.20794329606E+02  0.12713880606E+02  0.54021019375E+02  0.25000351959E+00 0.  0.
        -13    1    4    4    0    0 -0.16657899345E+02  0.58281660096E+01 -0.38940028201E+01  0.18072836319E+02  0.10500000000E+00 0. -1.
         13    1    4    4    0    0 -0.24656802482E+02  0.84682008261E+01 -0.58012660074E+01  0.26708314177E+02  0.10500000000E+00 0.  1.
    3000001    1    5    5    0    0  0.62437691014E+01 -0.19260679604E+01  0.53102486834E+01  0.84789817466E+01  0.10000000000E+01 0. -1.
        -13    1    6    6    0    0  0.24823190392E+02 -0.10779145546E+02  0.65386950810E+01  0.27841449645E+02  0.10500000000E+00 0.  1.
         13    1    6    6    0    0  0.23386363939E+02 -0.10015184059E+02  0.61751855246E+01  0.26179569731E+02  0.10500000000E+00 0. -1.
</event>
<event>
11    0  0.3448258E-009  0.9118800E+02  0.7816531E-02  0.1126479E+00
         25   -1    0    0    0    0  0.00000000000E+00  0.00000000000E+00  0.99999998245E-14  0.12500000000E+03  0.12500000000E+03 0.  0.
    3000001    1    3    3    0    0 -0.21870304190E+02  0.14302991522E+01  0.46029187674E+01  0.22417466900E+02  0.10000000000E+01 0.  1.
    1000022    2    1    0    0    0 -0.58346983831E+02  0.16767790052E+02  0.10987295060E+02  0.62500000782E+02  0.10000006983E+02 0.  0.
    3000022    2    3    3    0    0 -0.36476679641E+02  0.15337490899E+02  0.63843762926E+01  0.40082533882E+02  0.24995414233E+00 0.  0.
    1000022    2    1    0    0    0  0.58346983831E+02 -0.16767790052E+02 -0.10987295060E+02  0.62499999218E+02  0.99999972058E+01 0.  0.
    3000022    2    5    5    0    0  0.30536530518E+02 -0.69375091229E+01 -0.10342286851E+02  0.32979298478E+02  0.25000370650E+00 0.  0.
        -13    1    4    4    0    0 -0.16016599300E+02  0.67520180236E+01  0.28693300348E+01  0.17617187073E+02  0.10500000000E+00 0.  1.
         13    1    4    4    0    0 -0.20460080341E+02  0.85854728758E+01  0.35150462577E+01  0.22465346809E+02  0.10500000000E+00 0. -1.
    3000001    1    5    5    0    0  0.27810453313E+02 -0.98302809286E+01 -0.64500820874E+00  0.29520700740E+02  0.10000000000E+01 0.  1.
        -13    1    6    6    0    0  0.79409959134E+01 -0.17856295353E+01 -0.26609689267E+01  0.85638583339E+01  0.10500000000E+00 0.  1.
         13    1    6    6    0    0  0.22595534605E+02 -0.51518795877E+01 -0.76813179245E+01  0.24415440144E+02  0.10500000000E+00 0. -1.
</event>
<event>
11    0  0.3448258E-009  0.9118800E+02  0.7816531E-02  0.1126479E+00
         25   -1    0    0    0    0  0.00000000000E+00  0.00000000000E+00  0.99999998245E-14  0.12500000000E+03  0.12500000000E+03 0.  0.
    3000001    1    3    3    0    0  0.12177559929E+02 -0.97689135721E+01  0.13435998220E+02  0.20621607269E+02  0.10000000000E+01 0. -1.
    1000022    2    1    0    0    0  0.43388940765E+02 -0.33094857705E+02  0.28781595021E+02  0.62500000545E+02  0.10000003448E+02 0.  0.
    3000022    2    3    3    0    0  0.31211380836E+02 -0.23325944133E+02  0.15345596800E+02  0.41878393275E+02  0.25003756279E+00 0.  0.
    1000022    2    1    0    0    0 -0.43388940765E+02  0.33094857705E+02 -0.28781595021E+02  0.62499999455E+02  0.99999966368E+01 0.  0.
    3000022    2    5    5    0    0 -0.21471658177E+00 -0.26328849098E+00  0.43151849096E+00  0.60342804364E+00  0.24998631130E+00 0.  0.
        -13    1    4    4    0    0  0.73617357436E+01 -0.54829556075E+01  0.36176990180E+01  0.98669512281E+01  0.10500000000E+00 0. -1.
         13    1    4    4    0    0  0.23849645092E+02 -0.17842988526E+02  0.11727897782E+02  0.32011442047E+02  0.10500000000E+00 0.  1.
    3000001    1    5    5    0    0 -0.43174224183E+02  0.33358146196E+02 -0.29213113511E+02  0.61896571411E+02  0.10000000000E+01 0. -1.
        -13    1    6    6    0    0 -0.12843296262E+00 -0.12203374501E+00  0.31202278854E+00  0.37385890571E+00  0.10500000000E+00 0.  1.
         13    1    6    6    0    0 -0.86283619157E-01 -0.14125474597E+00  0.11949570242E+00  0.22956913793E+00  0.10500000000E+00 0. -1.
</event>
<event>
11    0  0.3448258E-009  0.9118800E+02  0.7816531E-02  0.1126479E+00
         25   -1    0    0    0    0  0.00000000000E+00  0.00000000000E+00  0.99999998245E-14  0.12500000000E+03  0.12500000000E+03 0.  0.
    3000001    1    3    3    0    0  0.56715900029E+00 -0.77452403641E+01  0.45477587976E+02  0.46146737975E+02  0.10000000000E+01 0.  1.
    1000022    2    1    0    0    0  0.31910239298E+01 -0.15504394569E+02  0.59629532525E+02  0.62500000204E+02  0.99999995793E+01 0.  0.
    3000022    2    3    3    0    0  0.26238649295E+01 -0.77591542053E+01  0.14151944549E+02  0.16353262229E+02  0.25001967736E+00 0.  0.
    1000022    2    1    0    0    0 -0.31910239298E+01  0.15504394569E+02 -0.59629532525E+02  0.62499999796E+02  0.99999970345E+01 0.  0.
    3000022    2    5    5    0    0 -0.42037366222E+01  0.26567933339E+01 -0.25985738288E+02  0.26458477421E+02  0.24996124812E+00 0.  0.
        -13    1    4    4    0    0  0.70340669925E+00 -0.21207596207E+01  0.37940652713E+01  0.44043567790E+01  0.10500000000E+00 0.  1.
         13    1    4    4    0    0  0.19204582303E+01 -0.56383945846E+01  0.10357879278E+02  0.11948905450E+02  0.10500000000E+00 0. -1.
    3000001    1    5    5    0    0  0.10127126924E+01  0.12847601236E+02 -0.33643794237E+02  0.36041522376E+02  0.10000000000E+01 0.  1.
        -13    1    6    6    0    0 -0.23023666773E+01  0.15241198825E+01 -0.14589603210E+02  0.14848952171E+02  0.10500000000E+00 0.  1.
         13    1    6    6    0    0 -0.19013699448E+01  0.11326734514E+01 -0.11396135078E+02  0.11609525250E+02  0.10500000000E+00 0. -1.
</event>
<event>
11    0  0.3448258E-009  0.9118800E+02  0.7816531E-02  0.1126479E+00
         25   -1    0    0    0    0  0.00000000000E+00  0.00000000000E+00  0.99999998245E-14  0.12500000000E+03  0.12500000000E+03 0.  0.
    3000001    1    3    3    0    0 -0.35994832010E+01  0.20800661831E+02  0.15035659523E+02  0.25936361912E+02  0.10000000000E+01 0. -1.
    1000022    2    1    0    0    0 -0.38372776013E+01  0.42939883857E+02  0.44132658884E+02  0.62499999305E+02  0.10000000397E+02 0.  0.
    3000022    2    3    3    0    0 -0.23779440034E+00  0.22139222025E+02  0.29096999361E+02  0.36563637393E+02  0.25001907328E+00 0.  0.
    1000022    2    1    0    0    0  0.38372776013E+01 -0.42939883857E+02 -0.44132658884E+02  0.62500000695E+02  0.10000009080E+02 0.  0.
    3000022    2    5    5    0    0 -0.26155820626E+01 -0.15342432675E+02 -0.19383329686E+02  0.24859756203E+02  0.24999775000E+00 0.  0.
        -13    1    4    4    0    0 -0.18586477657E+00  0.15496591001E+02  0.20297689902E+02  0.25537934896E+02  0.10500000000E+00 0.  1.
         13    1    4    4    0    0 -0.51929623770E-01  0.66426310242E+01  0.87993094589E+01  0.11025702497E+02  0.10500000000E+00 0. -1.
    3000001    1    5    5    0    0  0.64528596639E+01 -0.27597451182E+02 -0.24749329198E+02  0.37640244491E+02  0.10000000000E+01 0.  1.
        -13    1    6    6    0    0 -0.13932333122E+01 -0.77939165760E+01 -0.98975706019E+01  0.12675139584E+02  0.10500000000E+00 0.  1.
         13    1    6    6    0    0 -0.12223487504E+01 -0.75485160986E+01 -0.94857590841E+01  0.12184616619E+02  0.10500000000E+00 0. -1.
</event>
<event>
11    0  0.3448258E-009  0.9118800E+02  0.7816531E-02  0.1126479E+00
         25   -1    0    0    0    0  0.00000000000E+00  0.00000000000E+00  0.99999998245E-14  0.12500000000E+03  0.12500000000E+03 0.  0.
    3000001    1    3    3    0    0  0.43971047906E+02 -0.17440147729E+02  0.20292312953E+01  0.47357466005E+02  0.10000000000E+01 0.  1.
    1000022    2    1    0    0    0  0.56367719334E+02 -0.23774343715E+02  0.79819050655E+01  0.62499999572E+02  0.99999967995E+01 0.  0.
    3000022    2    3    3    0    0  0.12396671428E+02 -0.63341959863E+01  0.59526737702E+01  0.15142533567E+02  0.24999304031E+00 0.  0.
    1000022    2    1    0    0    0 -0.56367719334E+02  0.23774343715E+02 -0.79819050655E+01  0.62500000428E+02  0.10000002150E+02 0.  0.
    3000022    2    5    5    0    0 -0.30528620747E+02  0.18147268692E+02 -0.40571046521E+01  0.35746924952E+02  0.24999938606E+00 0.  0.
        -13    1    4    4    0    0  0.74778749757E+01 -0.38030549703E+01  0.36531362618E+01  0.91508617521E+01  0.10500000000E+00 0. -1.
         13    1    4    4    0    0  0.49187964520E+01 -0.25311410160E+01  0.22995375085E+01  0.59916718144E+01  0.10500000000E+00 0.  1.
    3000001    1    5    5    0    0 -0.25839098588E+02  0.56270750230E+01 -0.39248004134E+01  0.26753075476E+02  0.10000000000E+01 0. -1.
        -13    1    6    6    0    0 -0.20111314587E+02  0.11962089983E+02 -0.26181055925E+01  0.23546168968E+02  0.10500000000E+00 0. -1.
         13    1    6    6    0    0 -0.10417306160E+02  0.61851787091E+01 -0.14389990595E+01  0.12200755984E+02  0.10500000000E+00 0.  1.
</event>
<event>
11    0  0.3448258E-009  0.9118800E+02  0.7816531E-02  0.1126479E+00
         25   -1    0    0    0    0  0.00000000000E+00  0.00000000000E+00  0.99999998245E-14  0.12500000000E+03  0.12500000000E+03 0.  0.
    3000001    1    3    3    0    0 -0.39202791455E+02  0.76292098098E+01 -0.51924343244E+01  0.40286785357E+02  0.10000000000E+01 0.  1.
    1000022    2    1    0    0    0 -0.60796306684E+02  0.10458466628E+02 -0.82438710516E+00  0.62500000498E+02  0.10000000881E+02 0.  0.
    3000022    2    3    3    0    0 -0.21593515229E+02  0.28292568186E+01  0.43680472192E+01  0.22213215142E+02  0.24999267854E+00 0.  0.
    1000022    2    1    0    0    0  0.60796306684E+02 -0.10458466628E+02  0.82438710516E+00  0.62499999502E+02  0.99999946512E+01 0.  0.
    3000022    2    5    5    0    0  0.11214245915E+02  0.89825567463E+00 -0.24582560331E+01  0.11518320072E+02  0.24999969910E+00 0.  0.
        -13    1    4    4    0    0 -0.13751859419E+02  0.18596781076E+01  0.27715358335E+01  0.14151483174E+02  0.10500000000E+00 0. -1.
         13    1    4    4    0    0 -0.78416558101E+01  0.96957871108E+00  0.15965113857E+01  0.80617319682E+01  0.10500000000E+00 0.  1.
    3000001    1    5    5    0    0  0.49582060768E+02 -0.11356722303E+02  0.32826431383E+01  0.50981679430E+02  0.10000000000E+01 0.  1.
        -13    1    6    6    0    0  0.77282180392E+01  0.66159631381E+00 -0.17187676154E+01  0.79453288704E+01  0.10500000000E+00 0. -1.
         13    1    6    6    0    0  0.34860278762E+01  0.23665936083E+00 -0.73948841777E+00  0.35729912016E+01  0.10500000000E+00 0.  1.
</event>
<event>
11    0  0.3448258E-009  0.9118800E+02  0.7816531E-02  0.1126479E+00
         25   -1    0    0    0    0  0.00000000000E+00  0.00000000000E+00  0.99999998245E-14  0.12500000000E+03  0.12500000000E+03 0.  0.
    3000001    1    3    3    0    0  0.59193083225E+02  0.81299161035E+01 -0.10506879243E+02  0.60673809415E+02  0.10000000000E+01 0. -1.
    1000022    2    1    0    0    0  0.60459441992E+02  0.81233118965E+01 -0.92150787508E+01  0.62500000639E+02  0.10000004068E+02 0.  0.
    3000022    2    3    3    0    0  0.12663587676E+01 -0.66042070155E-02  0.12918004922E+01  0.18261912244E+01  0.25003546297E+00 0.  0.
    1000022    2    1    0    0    0 -0.60459441992E+02 -0.81233118965E+01  0.92150787508E+01  0.62499999361E+02  0.99999960742E+01 0.  0.
    3000022    2    5    5    0    0 -0.40824062228E+02 -0.15735516361E+01  0.35084542196E+01  0.41005510265E+02  0.24999898719E+00 0.  0.
        -13    1    4    4    0    0  0.46163590334E+00 -0.29438491850E-01  0.40313583543E+00  0.62250930424E+00  0.10500000000E+00 0. -1.
         13    1    4    4    0    0  0.80472286426E+00  0.22834284834E-01  0.88866465676E+00  0.12036819202E+01  0.10500000000E+00 0. -1.
    3000001    1    5    5    0    0 -0.19635379764E+02 -0.65497602603E+01  0.57066245312E+01  0.21494489096E+02  0.10000000000E+01 0. -1.
        -13    1    6    6    0    0 -0.16027696402E+02 -0.65183297605E+00  0.13251977021E+01  0.16095934646E+02  0.10500000000E+00 0. -1.
         13    1    6    6    0    0 -0.24796365826E+02 -0.92171866007E+00  0.21832565175E+01  0.24909575618E+02  0.10500000000E+00 0.  1.
</event>
<event>
11    0  0.3448258E-009  0.9118800E+02  0.7816531E-02  0.1126479E+00
         25   -1    0    0    0    0  0.00000000000E+00  0.00000000000E+00  0.99999998245E-14  0.12500000000E+03  0.12500000000E+03 0.  0.
    3000001    1    3    3    0    0  0.34442261887E+02 -0.13847670979E+02 -0.25784771840E+02  0.45209311588E+02  0.10000000000E+01 0.  1.
    1000022    2    1    0    0    0  0.45446376393E+02 -0.14561510056E+02 -0.39100375161E+02  0.62499999844E+02  0.99999970202E+01 0.  0.
    3000022    2    3    3    0    0  0.11004114506E+02 -0.71383907700E+00 -0.13315603321E+02  0.17290688256E+02  0.25001253468E+00 0.  0.
    1000022    2    1    0    0    0 -0.45446376393E+02  0.14561510056E+02  0.39100375161E+02  0.62500000156E+02  0.99999989715E+01 0.  0.
    3000022    2    5    5    0    0 -0.33368052486E+02  0.10326161465E+02  0.33813818776E+02  0.48615772972E+02  0.25000832288E+00 0.  0.
        -13    1    4    4    0    0  0.32979776863E+01 -0.23432250713E+00 -0.40580412600E+01  0.52354835235E+01  0.10500000000E+00 0.  1.
         13    1    4    4    0    0  0.77061368199E+01 -0.47951656987E+00 -0.92575620613E+01  0.12055204733E+02  0.10500000000E+00 0.  1.
    3000001    1    5    5    0    0 -0.12078323907E+02  0.42353485906E+01  0.52865563854E+01  0.13884227184E+02  0.10000000000E+01 0. -1.
        -13    1    6    6    0    0 -0.13808454150E+02  0.42059299554E+01  0.13975270673E+02  0.20091850790E+02  0.10500000000E+00 0.  1.
         13    1    6    6    0    0 -0.19559598336E+02  0.61202315100E+01  0.19838548102E+02  0.28523922182E+02  0.10500000000E+00 0. -1.
</event>
<event>
11    0  0.3448258E-009  0.9118800E+02  0.7816531E-02  0.1126479E+00
         25   -1    0    0    0    0  0.00000000000E+00  0.00000000000E+00  0.99999998245E-14  0.12500000000E+03  0.12500000000E+03 0.  0.
    3000001    1    3    3    0    0 -0.10642547101E+01 -0.21219341363E+01 -0.82516815711E+00  0.27048373434E+01  0.10000000000E+01 0.  1.
    1000022    2    1    0    0    0  0.12486965251E+02 -0.60212705382E+02 -0.49754422781E+01  0.62499992159E+02  0.99999901742E+01 0.  0.
    3000022    2    3    3    0    0  0.13551219961E+02 -0.58090771246E+02 -0.41502741210E+01  0.59795154816E+02  0.24999571061E+00 0.  0.
    1000022    2    1    0    0    0 -0.12486965251E+02  0.60212705382E+02  0.49754422781E+01  0.62500007841E+02  0.10000088181E+02 0.  0.
    3000022    2    5    5    0    0 -0.37654165459E+01  0.35767807633E+02  0.62042929430E+01  0.36497536579E+02  0.25000151614E+00 0.  0.
        -13    1    4    4    0    0  0.98598088760E+01 -0.42103370536E+02 -0.30165732580E+01  0.43347668689E+02  0.10500000000E+00 0. -1.
         13    1    4    4    0    0  0.36914110846E+01 -0.15987400710E+02 -0.11337008629E+01  0.16447486127E+02  0.10500000000E+00 0.  1.
    3000001    1    5    5    0    0 -0.87215487047E+01  0.24444897748E+02 -0.12288506649E+01  0.26002471261E+02  0.10000000000E+01 0.  1.
        -13    1    6    6    0    0 -0.19796333915E+01  0.18900918730E+02  0.33460454013E+01  0.19296909650E+02  0.10500000000E+00 0.  1.
         13    1    6    6    0    0 -0.17857831544E+01  0.16866888903E+02  0.28582475417E+01  0.17200626929E+02  0.10500000000E+00 0. -1.
</event>
<event>
11    0  0.3448258E-009  0.9118800E+02  0.7816531E-02  0.1126479E+00
         25   -1    0    0    0    0  0.00000000000E+00  0.00000000000E+00  0.99999998245E-14  0.12500000000E+03  0.12500000000E+03 0.  0.
    3000001    1    3    3    0    0 -0.45061191850E+02  0.33147176219E+02 -0.23350729164E+02  0.60625925599E+02  0.10000000000E+01 0.  1.
    1000022    2    1    0    0    0 -0.45076462526E+02  0.35002538243E+02 -0.23434692192E+02  0.62499999109E+02  0.99999966592E+01 0.  0.
    3000022    2    3    3    0    0 -0.15270676257E-01  0.18553620239E+01 -0.83963027735E-01  0.18740735102E+01  0.25000059604E+00 0.  0.
    1000022    2    1    0    0    0  0.45076462526E+02 -0.35002538243E+02  0.23434692192E+02  0.62500000891E+02  0.10000007794E+02 0.  0.
    3000022    2    5    5    0    0  0.37240180231E+02 -0.31332303409E+02  0.16578126485E+02  0.51414404955E+02  0.24999721436E+00 0.  0.
        -13    1    4    4    0    0 -0.64078368151E-01  0.10404715038E+01 -0.11066555225E-01  0.10477759570E+01  0.10500000000E+00 0. -1.
         13    1    4    4    0    0  0.48807691895E-01  0.81489052012E+00 -0.72896472509E-01  0.82629755311E+00  0.10500000000E+00 0.  1.
    3000001    1    5    5    0    0  0.78362822955E+01 -0.36702348336E+01  0.68565657070E+01  0.11085595935E+02  0.10000000000E+01 0. -1.
        -13    1    6    6    0    0  0.21812733148E+02 -0.18360238459E+02  0.97796904673E+01  0.30142114297E+02  0.10500000000E+00 0. -1.
         13    1    6    6    0    0  0.15427447083E+02 -0.12972064951E+02  0.67984360177E+01  0.21272290659E+02  0.10500000000E+00 0.  1.
</event>
<event>
11    0  0.3448258E-009  0.9118800E+02  0.7816531E-02  0.1126479E+00
         25   -1    0    0    0    0  0.00000000000E+00  0.00000000000E+00  0.99999998245E-14  0.12500000000E+03  0.12500000000E+03 0.  0.
    3000001    1    3    3    0    0 -0.19994378695E+01  0.25236442975E+00  0.10368782347E+01  0.24772073133E+01  0.10000000000E+01 0. -1.
    1000022    2    1    0    0    0 -0.41420700541E+02 -0.35090137394E+02  0.29313113145E+02  0.62500005883E+02  0.99999978737E+01 0.  0.
    3000022    2    3    3    0    0 -0.39421262672E+02 -0.35342501824E+02  0.28276234911E+02  0.60022798570E+02  0.25000329767E+00 0.  0.
    1000022    2    1    0    0    0  0.41420700541E+02  0.35090137394E+02 -0.29313113145E+02  0.62499994117E+02  0.99999243335E+01 0.  0.
    3000022    2    5    5    0    0  0.34602835969E+02  0.33409391054E+02 -0.25870953919E+02  0.54616045504E+02  0.25000427582E+00 0.  0.
        -13    1    4    4    0    0 -0.24244612630E+02 -0.21688142622E+02  0.17429847247E+02  0.36905113088E+02  0.10500000000E+00 0.  1.
         13    1    4    4    0    0 -0.15176650042E+02 -0.13654359202E+02  0.10846387663E+02  0.23117685482E+02  0.10500000000E+00 0. -1.
    3000001    1    5    5    0    0  0.68178645725E+01  0.16807463397E+01 -0.34421592266E+01  0.78839486128E+01  0.10000000000E+01 0.  1.
        -13    1    6    6    0    0  0.22642544721E+02  0.21827542340E+02 -0.16972961943E+02  0.35738199425E+02  0.10500000000E+00 0.  1.
         13    1    6    6    0    0  0.11960291248E+02  0.11581848714E+02 -0.88979919762E+01  0.18877846079E+02  0.10500000000E+00 0. -1.
</event>
<event>
11    0  0.3448258E-009  0.9118800E+02  0.7816531E-02  0.1126479E+00
         25   -1    0    0    0    0  0.00000000000E+00  0.00000000000E+00  0.99999998245E-14  0.12500000000E+03  0.12500000000E+03 0.  0.
    3000001    1    3    3    0    0  0.12755703673E+02 -0.28621407338E+01  0.65038241547E+01  0.14635557878E+02  0.10000000000E+01 0.  1.
    1000022    2    1    0    0    0  0.50890129771E+02 -0.28046443492E+02  0.20732620348E+02  0.62499998563E+02  0.99999986586E+01 0.  0.
    3000022    2    3    3    0    0  0.38134426098E+02 -0.25184302758E+02  0.14228796193E+02  0.47864440684E+02  0.24996333905E+00 0.  0.
    1000022    2    1    0    0    0 -0.50890129771E+02  0.28046443492E+02 -0.20732620348E+02  0.62500001437E+02  0.10000016622E+02 0.  0.
    3000022    2    5    5    0    0 -0.50840717586E+02  0.27546538645E+02 -0.20542587437E+02  0.61364898390E+02  0.24999966593E+00 0.  0.
        -13    1    4    4    0    0  0.24634519539E+02 -0.16290521430E+02  0.92520503003E+01  0.30949185791E+02  0.10500000000E+00 0. -1.
         13    1    4    4    0    0  0.13499906559E+02 -0.88937813286E+01  0.49767458931E+01  0.16915254893E+02  0.10500000000E+00 0.  1.
    3000001    1    5    5    0    0 -0.49412185413E-01  0.49990484741E+00 -0.19003291061E+00  0.11351030471E+01  0.10000000000E+01 0.  1.
        -13    1    6    6    0    0 -0.37189747984E+02  0.20190219956E+02 -0.15034435803E+02  0.44908435977E+02  0.10500000000E+00 0.  1.
         13    1    6    6    0    0 -0.13650969602E+02  0.73563186890E+01 -0.55081516341E+01  0.16456462413E+02  0.10500000000E+00 0. -1.
</event>
<event>
11    0  0.3448258E-009  0.9118800E+02  0.7816531E-02  0.1126479E+00
         25   -1    0    0    0    0  0.00000000000E+00  0.00000000000E+00  0.99999998245E-14  0.12500000000E+03  0.12500000000E+03 0.  0.
    3000001    1    3    3    0    0  0.55577332259E+02  0.22139961483E+02  0.13181047539E+02  0.61267917948E+02  0.10000000000E+01 0. -1.
    1000022    2    1    0    0    0  0.56199048736E+02  0.22356372150E+02  0.12170028194E+02  0.62500000789E+02  0.10000002891E+02 0.  0.
    3000022    2    3    3    0    0  0.62171647679E+00  0.21641066719E+00 -0.10110193449E+01  0.12320828405E+01  0.25000611154E+00 0.  0.
    1000022    2    1    0    0    0 -0.56199048736E+02 -0.22356372150E+02 -0.12170028194E+02  0.62499999211E+02  0.99999930332E+01 0.  0.
    3000022    2    5    5    0    0 -0.20169655003E+02 -0.10152385305E+02 -0.90189237848E+01  0.24316442978E+02  0.25000504835E+00 0.  0.
        -13    1    4    4    0    0  0.26550689160E+00  0.53213929065E-01 -0.51571454642E+00  0.59187171340E+00  0.10500000000E+00 0. -1.
         13    1    4    4    0    0  0.35620958518E+00  0.16319673812E+00 -0.49530479844E+00  0.64021112710E+00  0.10500000000E+00 0. -1.
    3000001    1    5    5    0    0 -0.36029393732E+02 -0.12203986845E+02 -0.31511044093E+01  0.38183556233E+02  0.10000000000E+01 0.  1.
        -13    1    6    6    0    0 -0.54750685734E+01 -0.27337491850E+01 -0.24773671896E+01  0.66028882833E+01  0.10500000000E+00 0.  1.
         13    1    6    6    0    0 -0.14694586430E+02 -0.74186361202E+01 -0.65415565952E+01  0.17713554695E+02  0.10500000000E+00 0. -1.
</event>
<event>
11    0  0.3448258E-009  0.9118800E+02  0.7816531E-02  0.1126479E+00
         25   -1    0    0    0    0  0.00000000000E+00  0.00000000000E+00  0.99999998245E-14  0.12500000000E+03  0.12500000000E+03 0.  0.
    3000001    1    3    3    0    0 -0.38117184363E+02  0.83256415363E+01  0.29565868335E+02  0.48963012787E+02  0.10000000000E+01 0. -1.
    1000022    2    1    0    0    0 -0.49382815491E+02  0.55995068260E+01  0.36554520694E+02  0.62499999845E+02  0.10000002744E+02 0.  0.
    3000022    2    3    3    0    0 -0.11265631128E+02 -0.27261347102E+01  0.69886523593E+01  0.13536987058E+02  0.25000327113E+00 0.  0.
    1000022    2    1    0    0    0  0.49382815491E+02 -0.55995068260E+01 -0.36554520694E+02  0.62500000155E+02  0.10000004687E+02 0.  0.
    3000022    2    5    5    0    0  0.32876314982E+02 -0.66885654609E+01 -0.28740221124E+02  0.44177503449E+02  0.25001210631E+00 0.  0.
        -13    1    4    4    0    0 -0.35365789049E+01 -0.86903744499E+00  0.21406702593E+01  0.42256491325E+01  0.10500000000E+00 0.  1.
         13    1    4    4    0    0 -0.77290522232E+01 -0.18570972653E+01  0.48479820999E+01  0.93113379255E+01  0.10500000000E+00 0. -1.
    3000001    1    5    5    0    0  0.16506500510E+02  0.10890586349E+01 -0.78142995699E+01  0.18322496706E+02  0.10000000000E+01 0. -1.
        -13    1    6    6    0    0  0.23002919709E+02 -0.46406711189E+01 -0.20135288458E+02  0.30921044773E+02  0.10500000000E+00 0. -1.
         13    1    6    6    0    0  0.98733952726E+01 -0.20478943420E+01 -0.86049326662E+01  0.13256458676E+02  0.10500000000E+00 0.  1.
</event>
<event>
11    0  0.3448258E-009  0.9118800E+02  0.7816531E-02  0.1126479E+00
         25   -1    0    0    0    0  0.00000000000E+00  0.00000000000E+00  0.99999998245E-14  0.12500000000E+03  0.12500000000E+03 0.  0.
    3000001    1    3    3    0    0  0.12078572353E+02  0.46526527933E+02  0.96035766317E+01  0.49028954667E+02  0.10000000000E+01 0.  1.
    1000022    2    1    0    0    0  0.11514996171E+02  0.58563124622E+02  0.15620990152E+02  0.62499999100E+02  0.99999925956E+01 0.  0.
    3000022    2    3    3    0    0 -0.56357618220E+00  0.12036596688E+02  0.60174135204E+01  0.13471044433E+02  0.24998938422E+00 0.  0.
    1000022    2    1    0    0    0 -0.11514996171E+02 -0.58563124622E+02 -0.15620990152E+02  0.62500000900E+02  0.10000003847E+02 0.  0.
    3000022    2    5    5    0    0 -0.42920541215E+01 -0.12614548632E+02 -0.74381848775E+01  0.15262295310E+02  0.24999614211E+00 0.  0.
        -13    1    4    4    0    0 -0.20363954713E+00  0.37617876135E+01  0.19271576076E+01  0.42329040337E+01  0.10500000000E+00 0.  1.
         13    1    4    4    0    0 -0.35993663507E+00  0.82748090749E+01  0.40902559129E+01  0.92381403995E+01  0.10500000000E+00 0. -1.
    3000001    1    5    5    0    0 -0.72229420491E+01 -0.45948575989E+02 -0.81828052746E+01  0.47237705590E+02  0.10000000000E+01 0.  1.
        -13    1    6    6    0    0 -0.23813789905E+01 -0.67945581122E+01 -0.40333979733E+01  0.82532605707E+01  0.10500000000E+00 0. -1.
         13    1    6    6    0    0 -0.19106751310E+01 -0.58199905202E+01 -0.34047869042E+01  0.70090347392E+01  0.10500000000E+00 0.  1.
</event>
<event>
11    0  0.3448258E-009  0.9118800E+02  0.7816531E-02  0.1126479E+00
         25   -1    0    0    0    0  0.00000000000E+00  0.00000000000E+00  0.99999998245E-14  0.12500000000E+03  0.12500000000E+03 0.  0.
    3000001    1    3    3    0    0 -0.43482332353E+02 -0.18656992435E+02  0.38108858082E+02  0.60762502070E+02  0.10000000000E+01 0. -1.
    1000022    2    1    0    0    0 -0.43155835252E+02 -0.19095156707E+02  0.39739136361E+02  0.62499999739E+02  0.99999941342E+01 0.  0.
    3000022    2    3    3    0    0  0.32649710048E+00 -0.43816427254E+00  0.16302782794E+01  0.17374976690E+01  0.25000519035E+00 0.  0.
    1000022    2    1    0    0    0  0.43155835252E+02  0.19095156707E+02 -0.39739136361E+02  0.62500000261E+02  0.99999973921E+01 0.  0.
    3000022    2    5    5    0    0  0.36178629036E+02  0.15373295827E+02 -0.37233874831E+02  0.54144762961E+02  0.24999533352E+00 0.  0.
        -13    1    4    4    0    0  0.20262822263E+00 -0.15995312472E+00  0.77077326866E+00  0.81960943771E+00  0.10500000000E+00 0.  1.
         13    1    4    4    0    0  0.12386887785E+00 -0.27821114781E+00  0.85950501076E+00  0.91788823132E+00  0.10500000000E+00 0. -1.
    3000001    1    5    5    0    0  0.69772062166E+01  0.37218608803E+01 -0.25052615303E+01  0.83552372998E+01  0.10000000000E+01 0. -1.
        -13    1    6    6    0    0  0.27829317975E+02  0.11833077404E+02 -0.28637629641E+02  0.41648739672E+02  0.10500000000E+00 0. -1.
         13    1    6    6    0    0  0.83493110604E+01  0.35402184225E+01 -0.85962451899E+01  0.12496023289E+02  0.10500000000E+00 0.  1.
</event>
<event>
11    0  0.3448258E-009  0.9118800E+02  0.7816531E-02  0.1126479E+00
         25   -1    0    0    0    0  0.00000000000E+00  0.00000000000E+00  0.99999998245E-14  0.12500000000E+03  0.12500000000E+03 0.  0.
    3000001    1    3    3    0    0  0.34304615118E+02 -0.10163376227E+02  0.42817343391E+01  0.36047664053E+02  0.10000000000E+01 0.  1.
    1000022    2    1    0    0    0  0.55628233884E+02 -0.24703643894E+02  0.10073733085E+02  0.62499995666E+02  0.99999466620E+01 0.  0.
    3000022    2    3    3    0    0  0.21323618766E+02 -0.14540267667E+02  0.57919987462E+01  0.26452331613E+02  0.24999434453E+00 0.  0.
    1000022    2    1    0    0    0 -0.55628233884E+02  0.24703643894E+02 -0.10073733085E+02  0.62500004334E+02  0.10000000840E+02 0.  0.
    3000022    2    5    5    0    0 -0.34233805540E+02  0.18324799312E+02 -0.25273754811E+01  0.38912746430E+02  0.24999260449E+00 0.  0.
        -13    1    4    4    0    0  0.66677834987E+01 -0.45213214496E+01  0.17627048663E+01  0.82474140118E+01  0.10500000000E+00 0. -1.
         13    1    4    4    0    0  0.14655835268E+02 -0.10018946217E+02  0.40292938799E+01  0.18204917601E+02  0.10500000000E+00 0.  1.
    3000001    1    5    5    0    0 -0.21394428344E+02  0.63788445823E+01 -0.75463576042E+01  0.23587257905E+02  0.10000000000E+01 0. -1.
        -13    1    6    6    0    0 -0.10037387902E+02  0.53269290953E+01 -0.72308516311E+00  0.11386799666E+02  0.10500000000E+00 0.  1.
         13    1    6    6    0    0 -0.24196417638E+02  0.12997870216E+02 -0.18042903180E+01  0.27525946764E+02  0.10500000000E+00 0. -1.
</event>
<event>
11    0  0.3448258E-009  0.9118800E+02  0.7816531E-02  0.1126479E+00
         25   -1    0    0    0    0  0.00000000000E+00  0.00000000000E+00  0.99999998245E-14  0.12500000000E+03  0.12500000000E+03 0.  0.
    3000001    1    3    3    0    0 -0.32194572591E+02  0.65801705676E+01  0.37365605192E+02  0.49769243518E+02  0.10000000000E+01 0.  1.
    1000022    2    1    0    0    0 -0.37992171180E+02  0.41448327068E+01  0.48432073950E+02  0.62500003622E+02  0.99999978282E+01 0.  0.
    3000022    2    3    3    0    0 -0.57975985895E+01 -0.24353378608E+01  0.11066468758E+02  0.12730760104E+02  0.25000432646E+00 0.  0.
    1000022    2    1    0    0    0  0.37992171180E+02 -0.41448327068E+01 -0.48432073950E+02  0.62499996378E+02  0.99999525489E+01 0.  0.
    3000022    2    5    5    0    0  0.19188229874E+00  0.11181808059E+01 -0.26145079524E+01  0.28609948378E+01  0.24998499364E+00 0.  0.
        -13    1    4    4    0    0 -0.30985421151E+01 -0.13298176016E+01  0.60584884183E+01  0.69343842558E+01  0.10500000000E+00 0.  1.
         13    1    4    4    0    0 -0.26990564744E+01 -0.11055202592E+01  0.50079803398E+01  0.57963758487E+01  0.10500000000E+00 0. -1.
    3000001    1    5    5    0    0  0.37800288881E+02 -0.52630135128E+01 -0.45817565997E+02  0.59639001540E+02  0.10000000000E+01 0. -1.
        -13    1    6    6    0    0  0.70879602444E-01  0.42570648416E+00 -0.11596358785E+01  0.12417851261E+01  0.10500000000E+00 0. -1.
         13    1    6    6    0    0  0.12100269629E+00  0.69247432179E+00 -0.14548720739E+01  0.16192097116E+01  0.10500000000E+00 0.  1.
</event>
<event>
11    0  0.3448258E-009  0.9118800E+02  0.7816531E-02  0.1126479E+00
         25   -1    0    0    0    0  0.00000000000E+00  0.00000000000E+00  0.99999998245E-14  0.12500000000E+03  0.12500000000E+03 0.  0.
    3000001    1    3    3    0    0 -0.25678177925E+02  0.15273811537E+02 -0.44433831172E+01  0.30222537848E+02  0.10000000000E+01 0.  1.
    1000022    2    1    0    0    0 -0.50318650279E+02  0.35696198435E+02 -0.25467561452E+00  0.62500000012E+02  0.99999996583E+01 0.  0.
    3000022    2    3    3    0    0 -0.24640472354E+02  0.20422386898E+02  0.41887075027E+01  0.32277462164E+02  0.25005754217E+00 0.  0.
    1000022    2    1    0    0    0  0.50318650279E+02 -0.35696198435E+02  0.25467561452E+00  0.62499999988E+02  0.99999995090E+01 0.  0.
    3000022    2    5    5    0    0  0.15667876259E+02 -0.83929124865E+01 -0.38331790045E+01  0.18184583718E+02  0.24999448198E+00 0.  0.
        -13    1    4    4    0    0 -0.10540401840E+02  0.87813691979E+01  0.18514884277E+01  0.13843827157E+02  0.10500000000E+00 0. -1.
         13    1    4    4    0    0 -0.14100070514E+02  0.11641017700E+02  0.23372190750E+01  0.18433635008E+02  0.10500000000E+00 0.  1.
    3000001    1    5    5    0    0  0.34650774020E+02 -0.27303285949E+02  0.40878546190E+01  0.44315416270E+02  0.10000000000E+01 0. -1.
        -13    1    6    6    0    0  0.61959987108E+01 -0.32519107351E+01 -0.14888990847E+01  0.71549401771E+01  0.10500000000E+00 0.  1.
         13    1    6    6    0    0  0.94718775485E+01 -0.51410017514E+01 -0.23442799199E+01  0.11029643541E+02  0.10500000000E+00 0. -1.
</event>
<event>
11    0  0.3448258E-009  0.9118800E+02  0.7816531E-02  0.1126479E+00
         25   -1    0    0    0    0  0.00000000000E+00  0.00000000000E+00  0.99999998245E-14  0.12500000000E+03  0.12500000000E+03 0.  0.
    3000001    1    3    3    0    0  0.23171200540E+02 -0.40660437629E+02 -0.14833452816E+02  0.49104043062E+02  0.10000000000E+01 0.  1.
    1000022    2    1    0    0    0  0.31115695525E+02 -0.48328537025E+02 -0.22414641150E+02  0.62500001371E+02  0.10000001729E+02 0.  0.
    3000022    2    3    3    0    0  0.79444949849E+01 -0.76680993963E+01 -0.75811883338E+01  0.13395958309E+02  0.25006709089E+00 0.  0.
    1000022    2    1    0    0    0 -0.31115695525E+02  0.48328537025E+02  0.22414641150E+02  0.62499998629E+02  0.99999845853E+01 0.  0.
    3000022    2    5    5    0    0 -0.30947899356E+02  0.46639169156E+02  0.22890048429E+02  0.60473146036E+02  0.25000064218E+00 0.  0.
        -13    1    4    4    0    0  0.56252572499E+01 -0.54598587529E+01 -0.54266582738E+01  0.95348425132E+01  0.10500000000E+00 0.  1.
         13    1    4    4    0    0  0.23192377349E+01 -0.22082406434E+01 -0.21545300600E+01  0.38611157959E+01  0.10500000000E+00 0. -1.
    3000001    1    5    5    0    0 -0.16779616950E+00  0.16893678694E+01 -0.47540727897E+00  0.20268525929E+01  0.10000000000E+01 0. -1.
        -13    1    6    6    0    0 -0.10150982001E+02  0.15212875067E+02  0.75038149970E+01  0.19768466503E+02  0.10500000000E+00 0. -1.
         13    1    6    6    0    0 -0.20796917355E+02  0.31426294089E+02  0.15386233432E+02  0.40704679532E+02  0.10500000000E+00 0.  1.
</event>
<event>
11    0  0.3448258E-009  0.9118800E+02  0.7816531E-02  0.1126479E+00
         25   -1    0    0    0    0  0.00000000000E+00  0.00000000000E+00  0.99999998245E-14  0.12500000000E+03  0.12500000000E+03 0.  0.
    3000001    1    3    3    0    0 -0.22290232622E+02 -0.29532600495E+01 -0.14810806960E+01  0.22555926389E+02  0.10000000000E+01 0. -1.
    1000022    2    1    0    0    0 -0.58101217258E+02 -0.14101169367E+02 -0.15220227694E+02  0.62500001928E+02  0.10000024278E+02 0.  0.
    3000022    2    3    3    0    0 -0.35810984636E+02 -0.11147909318E+02 -0.13739146998E+02  0.39944075538E+02  0.25001526743E+00 0.  0.
    1000022    2    1    0    0    0  0.58101217258E+02  0.14101169367E+02  0.15220227694E+02  0.62499998072E+02  0.10000000182E+02 0.  0.
    3000022    2    5    5    0    0  0.20789278131E+02  0.41079167116E+01  0.64510905205E+00  0.21202540723E+02  0.25000507420E+00 0.  0.
        -13    1    4    4    0    0 -0.18962945679E+02 -0.58601815706E+01 -0.73275958916E+01  0.21157498043E+02  0.10500000000E+00 0.  1.
         13    1    4    4    0    0 -0.16848038957E+02 -0.52877277471E+01 -0.64115511060E+01  0.18786577496E+02  0.10500000000E+00 0. -1.
    3000001    1    5    5    0    0  0.37311939127E+02  0.99932526556E+01  0.14575118642E+02  0.41297457349E+02  0.10000000000E+01 0. -1.
        -13    1    6    6    0    0  0.13745156802E+02  0.27436095494E+01  0.37932830087E+00  0.14021827407E+02  0.10500000000E+00 0.  1.
         13    1    6    6    0    0  0.70441213283E+01  0.13643071621E+01  0.26578075118E+00  0.71807133161E+01  0.10500000000E+00 0. -1.
</event>
<event>
11    0  0.3448258E-009  0.9118800E+02  0.7816531E-02  0.1126479E+00
         25   -1    0    0    0    0  0.00000000000E+00  0.00000000000E+00  0.99999998245E-14  0.12500000000E+03  0.12500000000E+03 0.  0.
    3000001    1    3    3    0    0  0.13721491773E+02  0.19335700326E+02  0.79356855403E+01  0.25022464878E+02  0.10000000000E+01 0.  1.
    1000022    2    1    0    0    0  0.34685356798E+02  0.41443673548E+02  0.29758998179E+02  0.62499999336E+02  0.99999945521E+01 0.  0.
    3000022    2    3    3    0    0  0.20963865026E+02  0.22107973222E+02  0.21823312638E+02  0.37477534458E+02  0.24999554207E+00 0.  0.
    1000022    2    1    0    0    0 -0.34685356798E+02 -0.41443673548E+02 -0.29758998179E+02  0.62500000664E+02  0.10000002852E+02 0.  0.
    3000022    2    5    5    0    0 -0.29995666617E+02 -0.31436549492E+02 -0.26660649435E+02  0.50978911705E+02  0.25010111869E+00 0.  0.
        -13    1    4    4    0    0  0.67167495773E+01  0.71185649730E+01  0.69554922645E+01  0.12007438936E+02  0.10500000000E+00 0. -1.
         13    1    4    4    0    0  0.14247115448E+02  0.14989408249E+02  0.14867820374E+02  0.25470095522E+02  0.10500000000E+00 0.  1.
    3000001    1    5    5    0    0 -0.46896901816E+01 -0.10007124056E+02 -0.30983487435E+01  0.11521088959E+02  0.10000000000E+01 0. -1.
        -13    1    6    6    0    0 -0.19693172210E+02 -0.20715726842E+02 -0.17556431372E+02  0.33544025963E+02  0.10500000000E+00 0. -1.
         13    1    6    6    0    0 -0.10302494407E+02 -0.10720822651E+02 -0.91042180629E+01  0.17434885742E+02  0.10500000000E+00 0.  1.
</event>
<event>
11    0  0.3448258E-009  0.9118800E+02  0.7816531E-02  0.1126479E+00
         25   -1    0    0    0    0  0.00000000000E+00  0.00000000000E+00  0.99999998245E-14  0.12500000000E+03  0.12500000000E+03 0.  0.
    3000001    1    3    3    0    0  0.20473298585E+02  0.19151184360E+02 -0.13391585134E+02  0.31084696713E+02  0.10000000000E+01 0.  1.
    1000022    2    1    0    0    0  0.46902267334E+02  0.30426256668E+02 -0.26089658225E+02  0.62499998754E+02  0.99999901069E+01 0.  0.
    3000022    2    3    3    0    0  0.26428968749E+02  0.11275072308E+02 -0.12698073092E+02  0.31415302042E+02  0.24999489523E+00 0.  0.
    1000022    2    1    0    0    0 -0.46902267334E+02 -0.30426256668E+02  0.26089658225E+02  0.62500001246E+02  0.10000005676E+02 0.  0.
    3000022    2    5    5    0    0 -0.18369707593E+02 -0.17773224962E+02  0.12125193599E+02  0.28291633132E+02  0.25000571260E+00 0.  0.
        -13    1    4    4    0    0  0.66757634630E+01  0.28754719286E+01 -0.32257091358E+01  0.79530108170E+01  0.10500000000E+00 0. -1.
         13    1    4    4    0    0  0.19753205286E+02  0.83996003790E+01 -0.94723639557E+01  0.23462291225E+02  0.10500000000E+00 0.  1.
    3000001    1    5    5    0    0 -0.28532559741E+02 -0.12653031706E+02  0.13964464626E+02  0.34208368114E+02  0.10000000000E+01 0.  1.
        -13    1    6    6    0    0 -0.91762620741E+01 -0.88101369232E+01  0.59825236345E+01  0.14057877233E+02  0.10500000000E+00 0. -1.
         13    1    6    6    0    0 -0.91934455191E+01 -0.89630880385E+01  0.61426699647E+01  0.14233755899E+02  0.10500000000E+00 0.  1.
</event>
<event>
11    0  0.3448258E-009  0.9118800E+02  0.7816531E-02  0.1126479E+00
         25   -1    0    0    0    0  0.00000000000E+00  0.00000000000E+00  0.99999998245E-14  0.12500000000E+03  0.12500000000E+03 0.  0.
    3000001    1    3    3    0    0 -0.80352526727E+01  0.50714043586E+01 -0.16085716421E+01  0.96887527789E+01  0.10000000000E+01 0. -1.
    1000022    2    1    0    0    0 -0.49770371462E+02  0.34413204957E+02  0.12037084020E+02  0.62499999892E+02  0.10000002195E+02 0.  0.
    3000022    2    3    3    0    0 -0.41735118789E+02  0.29341800598E+02  0.13645655662E+02  0.52811247113E+02  0.25000091689E+00 0.  0.
    1000022    2    1    0    0    0  0.49770371462E+02 -0.34413204957E+02 -0.12037084020E+02  0.62500000108E+02  0.10000003551E+02 0.  0.
    3000022    2    5    5    0    0  0.35057212416E+02 -0.24852839710E+02 -0.39533102661E+01  0.43155103343E+02  0.24999692437E+00 0.  0.
        -13    1    4    4    0    0 -0.26366989503E+02  0.18465278737E+02  0.86178392695E+01  0.33323607742E+02  0.10500000000E+00 0. -1.
         13    1    4    4    0    0 -0.15368129286E+02  0.10876521861E+02  0.50278163929E+01  0.19487639370E+02  0.10500000000E+00 0.  1.
    3000001    1    5    5    0    0  0.14713159046E+02 -0.95603652466E+01 -0.80837737541E+01  0.19344896766E+02  0.10000000000E+01 0. -1.
        -13    1    6    6    0    0  0.18598435729E+02 -0.13251261779E+02 -0.21410238224E+01  0.22936712020E+02  0.10500000000E+00 0.  1.
         13    1    6    6    0    0  0.16458776687E+02 -0.11601577931E+02 -0.18122864437E+01  0.20218391322E+02  0.10500000000E+00 0. -1.
</event>
<event>
11    0  0.3448258E-009  0.9118800E+02  0.7816531E-02  0.1126479E+00
         25   -1    0    0    0    0  0.00000000000E+00  0.00000000000E+00  0.99999998245E-14  0.12500000000E+03  0.12500000000E+03 0.  0.
    3000001    1    3    3    0    0  0.35933043455E+02 -0.26745143870E+02  0.79104104548E+01  0.45497922217E+02  0.10000000000E+01 0. -1.
    1000022    2    1    0    0    0  0.45076013679E+02 -0.39759044689E+02  0.13914793673E+02  0.62499999573E+02  0.99999909938E+01 0.  0.
    3000022    2    3    3    0    0  0.91429702245E+01 -0.13013900819E+02  0.60043832182E+01  0.17002077356E+02  0.24999503759E+00 0.  0.
    1000022    2    1    0    0    0 -0.45076013679E+02  0.39759044689E+02 -0.13914793673E+02  0.62500000427E+02  0.99999963317E+01 0.  0.
    3000022    2    5    5    0    0 -0.32218151899E+02  0.27698093327E+02 -0.51888394195E+01  0.42803974561E+02  0.24999577651E+00 0.  0.
        -13    1    4    4    0    0  0.65821678241E+01 -0.93339302278E+01  0.43488914683E+01  0.12221745733E+02  0.10500000000E+00 0.  1.
         13    1    4    4    0    0  0.25608024004E+01 -0.36799705912E+01  0.16554917499E+01  0.47803316224E+01  0.10500000000E+00 0. -1.
    3000001    1    5    5    0    0 -0.12857861780E+02  0.12060951361E+02 -0.87259542534E+01  0.19696025866E+02  0.10000000000E+01 0.  1.
        -13    1    6    6    0    0 -0.12838799289E+02  0.11004490831E+02 -0.20070699963E+01  0.17028591856E+02  0.10500000000E+00 0.  1.
         13    1    6    6    0    0 -0.19379352610E+02  0.16693602497E+02 -0.31817694232E+01  0.25775382705E+02  0.10500000000E+00 0. -1.
</event>
<event>
11    0  0.3448258E-009  0.9118800E+02  0.7816531E-02  0.1126479E+00
         25   -1    0    0    0    0  0.00000000000E+00  0.00000000000E+00  0.99999998245E-14  0.12500000000E+03  0.12500000000E+03 0.  0.
    3000001    1    3    3    0    0  0.56452644667E+02  0.10960233134E+02 -0.44926793294E+01  0.57690657544E+02  0.10000000000E+01 0.  1.
    1000022    2    1    0    0    0  0.60515934487E+02  0.11821194007E+02 -0.20811103341E+01  0.62500000405E+02  0.10000003795E+02 0.  0.
    3000022    2    3    3    0    0  0.40632898194E+01  0.86096087276E+00  0.24115689952E+01  0.48093428616E+01  0.25007191010E+00 0.  0.
    1000022    2    1    0    0    0 -0.60515934487E+02 -0.11821194007E+02  0.20811103341E+01  0.62499999595E+02  0.99999987298E+01 0.  0.
    3000022    2    5    5    0    0 -0.40995354685E+02 -0.12557987550E+02  0.23104935221E+01  0.42938595833E+02  0.24994936368E+00 0.  0.
        -13    1    4    4    0    0  0.96361322398E+00  0.20503370388E+00  0.55412242748E+00  0.11351942256E+01  0.10500000000E+00 0. -1.
         13    1    4    4    0    0  0.30996765954E+01  0.65592716888E+00  0.18574465677E+01  0.36741486360E+01  0.10500000000E+00 0.  1.
    3000001    1    5    5    0    0 -0.19520579801E+02  0.73679354281E+00 -0.22938318793E+00  0.19561403762E+02  0.10000000000E+01 0.  1.
        -13    1    6    6    0    0 -0.11741268113E+02 -0.36183096888E+01  0.69846932977E+00  0.12306438409E+02  0.10500000000E+00 0.  1.
         13    1    6    6    0    0 -0.29254086572E+02 -0.89396778609E+01  0.16120241923E+01  0.30632157424E+02  0.10500000000E+00 0. -1.
</event>
<event>
11    0  0.3448258E-009  0.9118800E+02  0.7816531E-02  0.1126479E+00
         25   -1    0    0    0    0  0.00000000000E+00  0.00000000000E+00  0.99999998245E-14  0.12500000000E+03  0.12500000000E+03 0.  0.
    3000001    1    3    3    0    0 -0.10115481214E+02 -0.51921673031E+01  0.19977422190E+02  0.23008236761E+02  0.10000000000E+01 0.  1.
    1000022    2    1    0    0    0 -0.37848459834E+02 -0.14311330391E+02  0.46571772296E+02  0.62499997878E+02  0.99999835287E+01 0.  0.
    3000022    2    3    3    0    0 -0.27732978620E+02 -0.91191630879E+01  0.26594350106E+02  0.39491761117E+02  0.24999997308E+00 0.  0.
    1000022    2    1    0    0    0  0.37848459834E+02  0.14311330391E+02 -0.46571772296E+02  0.62500002122E+02  0.10000010055E+02 0.  0.
    3000022    2    5    5    0    0  0.37375874907E+01  0.48334283979E+01 -0.50976597589E+01  0.79611696359E+01  0.24999325131E+00 0.  0.
        -13    1    4    4    0    0 -0.14178699147E+02 -0.46364149703E+01  0.13674646056E+02  0.20237065574E+02  0.10500000000E+00 0. -1.
         13    1    4    4    0    0 -0.13554279474E+02 -0.44827481176E+01  0.12919704050E+02  0.19254695543E+02  0.10500000000E+00 0.  1.
    3000001    1    5    5    0    0  0.34110872344E+02  0.94779019931E+01 -0.41474112537E+02  0.54538832486E+02  0.10000000000E+01 0. -1.
        -13    1    6    6    0    0  0.19260816855E+01  0.24235821220E+01 -0.25123658464E+01  0.39883014063E+01  0.10500000000E+00 0. -1.
         13    1    6    6    0    0  0.18115058052E+01  0.24098462759E+01 -0.25852939126E+01  0.39728682297E+01  0.10500000000E+00 0.  1.
</event>
<event>
11    0  0.3448258E-009  0.9118800E+02  0.7816531E-02  0.1126479E+00
         25   -1    0    0    0    0  0.00000000000E+00  0.00000000000E+00  0.99999998245E-14  0.12500000000E+03  0.12500000000E+03 0.  0.
    3000001    1    3    3    0    0  0.24284588475E+01  0.14823875362E+02  0.16650196299E+02  0.22447131886E+02  0.10000000000E+01 0. -1.
    1000022    2    1    0    0    0 -0.63712981976E+01  0.40384011768E+02  0.46203765054E+02  0.62499999729E+02  0.10000010690E+02 0.  0.
    3000022    2    3    3    0    0 -0.87997570450E+01  0.25560136406E+02  0.29553568755E+02  0.40052867843E+02  0.24999829961E+00 0.  0.
    1000022    2    1    0    0    0  0.63712981976E+01 -0.40384011768E+02 -0.46203765054E+02  0.62500000271E+02  0.10000014074E+02 0.  0.
    3000022    2    5    5    0    0  0.10955914548E+01 -0.34715677810E+01 -0.94671394372E+01  0.10146000763E+02  0.24999773795E+00 0.  0.
        -13    1    4    4    0    0 -0.58358030932E+01  0.17102949519E+02  0.19784739355E+02  0.26795791019E+02  0.10500000000E+00 0. -1.
         13    1    4    4    0    0 -0.29639539518E+01  0.84571868865E+01  0.97688293998E+01  0.13257076824E+02  0.10500000000E+00 0.  1.
    3000001    1    5    5    0    0  0.52757067428E+01 -0.36912443987E+02 -0.36736625617E+02  0.52353999508E+02  0.10000000000E+01 0.  1.
        -13    1    6    6    0    0  0.55192580845E+00 -0.16160810347E+01 -0.42904754510E+01  0.46190415244E+01  0.10500000000E+00 0. -1.
         13    1    6    6    0    0  0.54366564634E+00 -0.18554867463E+01 -0.51766639862E+01  0.55269592388E+01  0.10500000000E+00 0.  1.
</event>
<event>
11    0  0.3448258E-009  0.9118800E+02  0.7816531E-02  0.1126479E+00
         25   -1    0    0    0    0  0.00000000000E+00  0.00000000000E+00  0.99999998245E-14  0.12500000000E+03  0.12500000000E+03 0.  0.
    3000001    1    3    3    0    0 -0.13879067127E+02  0.30316538463E+02 -0.21908857858E+02  0.39908884491E+02  0.10000000000E+01 0.  1.
    1000022    2    1    0    0    0 -0.16745612484E+02  0.51149672001E+02 -0.30158672988E+02  0.62499999719E+02  0.99999962630E+01 0.  0.
    3000022    2    3    3    0    0 -0.28665453566E+01  0.20833133538E+02 -0.82498151300E+01  0.22591115228E+02  0.25000454934E+00 0.  0.
    1000022    2    1    0    0    0  0.16745612484E+02 -0.51149672001E+02  0.30158672988E+02  0.62500000281E+02  0.99999997733E+01 0.  0.
    3000022    2    5    5    0    0  0.17652110355E+02 -0.46815514106E+02  0.26206963861E+02  0.56481473212E+02  0.25000089259E+00 0.  0.
        -13    1    4    4    0    0 -0.14215554366E+01  0.10530551784E+02 -0.41018187431E+01  0.11390754266E+02  0.10500000000E+00 0.  1.
         13    1    4    4    0    0 -0.14449899200E+01  0.10302581754E+02 -0.41479963869E+01  0.11200360962E+02  0.10500000000E+00 0. -1.
    3000001    1    5    5    0    0 -0.90649787126E+00 -0.43341578947E+01  0.39517091274E+01  0.60185270685E+01  0.10000000000E+01 0. -1.
        -13    1    6    6    0    0  0.10630716953E+02 -0.28235667620E+02  0.15734280962E+02  0.34027102305E+02  0.10500000000E+00 0. -1.
         13    1    6    6    0    0  0.70213934020E+01 -0.18579846486E+02  0.10472682899E+02  0.22454370907E+02  0.10500000000E+00 0.  1.
</event>
<event>
11    0  0.3448258E-009  0.9118800E+02  0.7816531E-02  0.1126479E+00
         25   -1    0    0    0    0  0.00000000000E+00  0.00000000000E+00  0.99999998245E-14  0.12500000000E+03  0.12500000000E+03 0.  0.
    3000001    1    3    3    0    0  0.10532454301E+02  0.15054314571E+01 -0.17019966403E+01  0.10821077120E+02  0.10000000000E+01 0. -1.
    1000022    2    1    0    0    0  0.60112751912E+02 -0.12241313531E+02 -0.65465407270E+01  0.62499999460E+02  0.10000001879E+02 0.  0.
    3000022    2    3    3    0    0  0.49580297611E+02 -0.13746744988E+02 -0.48445440867E+01  0.51678922340E+02  0.24999563510E+00 0.  0.
    1000022    2    1    0    0    0 -0.60112751912E+02  0.12241313531E+02  0.65465407270E+01  0.62500000540E+02  0.10000008631E+02 0.  0.
    3000022    2    5    5    0    0 -0.44359774970E+02  0.49558773706E+01  0.65545062717E+01  0.45115124181E+02  0.25004292069E+00 0.  0.
        -13    1    4    4    0    0  0.15388627296E+02 -0.43153510644E+01 -0.15175511214E+01  0.16054472625E+02  0.10500000000E+00 0.  1.
         13    1    4    4    0    0  0.34191670315E+02 -0.94313939235E+01 -0.33269929653E+01  0.35624449715E+02  0.10500000000E+00 0. -1.
    3000001    1    5    5    0    0 -0.15752976942E+02  0.72854361603E+01 -0.79655446902E-02  0.17384876359E+02  0.10000000000E+01 0. -1.
        -13    1    6    6    0    0 -0.24648452163E+02  0.26880039727E+01  0.36531592436E+01  0.25062485049E+02  0.10500000000E+00 0.  1.
         13    1    6    6    0    0 -0.19711322808E+02  0.22678733979E+01  0.29013470281E+01  0.20052639132E+02  0.10500000000E+00 0. -1.
</event>
<event>
11    0  0.3448258E-009  0.9118800E+02  0.7816531E-02  0.1126479E+00
         25   -1    0    0    0    0  0.00000000000E+00  0.00000000000E+00  0.99999998245E-14  0.12500000000E+03  0.12500000000E+03 0.  0.
    3000001    1    3    3    0    0 -0.90821387064E+01  0.38814789188E+02  0.42683037377E+02  0.58411598017E+02  0.10000000000E+01 0.  1.
    1000022    2    1    0    0    0 -0.71855589186E+01  0.41582917543E+02  0.45005317213E+02  0.62500000544E+02  0.10000010105E+02 0.  0.
    3000022    2    3    3    0    0  0.18965797879E+01  0.27681283549E+01  0.23222798365E+01  0.40884025263E+01  0.25000419449E+00 0.  0.
    1000022    2    1    0    0    0  0.71855589186E+01 -0.41582917543E+02 -0.45005317213E+02  0.62499999456E+02  0.10000003310E+02 0.  0.
    3000022    2    5    5    0    0  0.89625003667E+01 -0.24541120608E+02 -0.25326535142E+02  0.36388032324E+02  0.25000125264E+00 0.  0.
        -13    1    4    4    0    0  0.14445390046E+01  0.20668022058E+01  0.17285611404E+01  0.30589725252E+01  0.10500000000E+00 0.  1.
         13    1    4    4    0    0  0.45204078328E+00  0.70132614905E+00  0.59371869618E+00  0.10294300012E+01  0.10500000000E+00 0. -1.
    3000001    1    5    5    0    0 -0.17769414481E+01 -0.17041796935E+02 -0.19678782072E+02  0.26111967132E+02  0.10000000000E+01 0.  1.
        -13    1    6    6    0    0  0.26090758289E+01 -0.72316488359E+01 -0.74077254511E+01  0.10676583860E+02  0.10500000000E+00 0. -1.
         13    1    6    6    0    0  0.63534245378E+01 -0.17309471772E+02 -0.17918809691E+02  0.25711448464E+02  0.10500000000E+00 0.  1.
</event>
<event>
11    0  0.3448258E-009  0.9118800E+02  0.7816531E-02  0.1126479E+00
         25   -1    0    0    0    0  0.00000000000E+00  0.00000000000E+00  0.99999998245E-14  0.12500000000E+03  0.12500000000E+03 0.  0.
    3000001    1    3    3    0    0 -0.17163356732E+02 -0.10994999510E+02 -0.20472570869E+02  0.28906694493E+02  0.10000000000E+01 0.  1.
    1000022    2    1    0    0    0 -0.30197581234E+02 -0.31834334746E+02 -0.43369706445E+02  0.62500000805E+02  0.99999941202E+01 0.  0.
    3000022    2    3    3    0    0 -0.13034224502E+02 -0.20839335236E+02 -0.22897135576E+02  0.33593306312E+02  0.25001986458E+00 0.  0.
    1000022    2    1    0    0    0  0.30197581234E+02  0.31834334746E+02  0.43369706445E+02  0.62499999195E+02  0.99999840534E+01 0.  0.
    3000022    2    5    5    0    0  0.30352451303E+02  0.29492509092E+02  0.39679542305E+02  0.58013860152E+02  0.24999903497E+00 0.  0.
        -13    1    4    4    0    0 -0.98219352165E+01 -0.15704181560E+02 -0.17287095411E+02  0.25336661631E+02  0.10500000000E+00 0.  1.
         13    1    4    4    0    0 -0.32122892856E+01 -0.51351536765E+01 -0.56100401642E+01  0.82566446805E+01  0.10500000000E+00 0. -1.
    3000001    1    5    5    0    0 -0.15487006864E+00  0.23418256540E+01  0.36901641403E+01  0.44861390431E+01  0.10000000000E+01 0.  1.
        -13    1    6    6    0    0  0.17950146210E+02  0.17414506219E+02  0.23531725868E+02  0.34339859102E+02  0.10500000000E+00 0. -1.
         13    1    6    6    0    0  0.12402305093E+02  0.12078002873E+02  0.16147816437E+02  0.23674001050E+02  0.10500000000E+00 0.  1.
</event>
<event>
11    0  0.3448258E-009  0.9118800E+02  0.7816531E-02  0.1126479E+00
         25   -1    0    0    0    0  0.00000000000E+00  0.00000000000E+00  0.99999998245E-14  0.12500000000E+03  0.12500000000E+03 0.  0.
    3000001    1    3    3    0    0  0.16763310891E+02  0.65279093951E+01  0.16452594245E+02  0.24398976423E+02  0.10000000000E+01 0.  1.
    1000022    2    1    0    0    0  0.49670563765E+02  0.87952248139E+01  0.35520820886E+02  0.62499997180E+02  0.10000002346E+02 0.  0.
    3000022    2    3    3    0    0  0.32907252874E+02  0.22673154188E+01  0.19068226640E+02  0.38101020757E+02  0.25000925809E+00 0.  0.
    1000022    2    1    0    0    0 -0.49670563765E+02 -0.87952248139E+01 -0.35520820886E+02  0.62500002820E+02  0.10000037590E+02 0.  0.
    3000022    2    5    5    0    0 -0.47229503317E+02 -0.81195232830E+01 -0.35718418248E+02  0.59769729319E+02  0.24999774744E+00 0.  0.
        -13    1    4    4    0    0  0.86197332730E+01  0.61575163997E+00  0.49679218058E+01  0.99684614585E+01  0.10500000000E+00 0.  1.
         13    1    4    4    0    0  0.24287519601E+02  0.16515637788E+01  0.14100304835E+02  0.28132559299E+02  0.10500000000E+00 0. -1.
    3000001    1    5    5    0    0 -0.24410604477E+01 -0.67570153086E+00  0.19759736197E+00  0.27302735001E+01  0.10000000000E+01 0.  1.
        -13    1    6    6    0    0 -0.17226387117E+02 -0.30175577564E+01 -0.13060233513E+02  0.21827386292E+02  0.10500000000E+00 0.  1.
         13    1    6    6    0    0 -0.30003116200E+02 -0.51019655266E+01 -0.22658184735E+02  0.37942343028E+02  0.10500000000E+00 0. -1.
</event>
<event>
11    0  0.3448258E-009  0.9118800E+02  0.7816531E-02  0.1126479E+00
         25   -1    0    0    0    0  0.00000000000E+00  0.00000000000E+00  0.99999998245E-14  0.12500000000E+03  0.12500000000E+03 0.  0.
    3000001    1    3    3    0    0  0.20906869766E+02  0.16895876918E+02 -0.92860007253E+01  0.28456944139E+02  0.10000000000E+01 0. -1.
    1000022    2    1    0    0    0  0.40710123332E+02  0.35558797474E+02 -0.29740673363E+02  0.62499999091E+02  0.10000000739E+02 0.  0.
    3000022    2    3    3    0    0  0.19803253565E+02  0.18662920556E+02 -0.20454672638E+02  0.34043054951E+02  0.25000456200E+00 0.  0.
    1000022    2    1    0    0    0 -0.40710123332E+02 -0.35558797474E+02  0.29740673363E+02  0.62500000909E+02  0.10000012107E+02 0.  0.
    3000022    2    5    5    0    0 -0.11912780000E+02 -0.12642212978E+02  0.14596073721E+02  0.22690256798E+02  0.25001834880E+00 0.  0.
        -13    1    4    4    0    0  0.91946578119E+01  0.87549313190E+01 -0.95230098649E+01  0.15871020653E+02  0.10500000000E+00 0.  1.
         13    1    4    4    0    0  0.10608595753E+02  0.99079892365E+01 -0.10931662773E+02  0.18172034298E+02  0.10500000000E+00 0. -1.
    3000001    1    5    5    0    0 -0.28797343331E+02 -0.22916584496E+02  0.15144599642E+02  0.39809744111E+02  0.10000000000E+01 0.  1.
        -13    1    6    6    0    0 -0.77142513694E+01 -0.82628860798E+01  0.94704862058E+01  0.14747409757E+02  0.10500000000E+00 0. -1.
         13    1    6    6    0    0 -0.41985286307E+01 -0.43793268986E+01  0.51255875153E+01  0.79428470415E+01  0.10500000000E+00 0.  1.
</event>
<event>
11    0  0.3448258E-009  0.9118800E+02  0.7816531E-02  0.1126479E+00
         25   -1    0    0    0    0  0.00000000000E+00  0.00000000000E+00  0.99999998245E-14  0.12500000000E+03  0.12500000000E+03 0.  0.
    3000001    1    3    3    0    0  0.12925033330E+02 -0.12620416412E+02 -0.32224381608E+02  0.36955949007E+02  0.10000000000E+01 0.  1.
    1000022    2    1    0    0    0  0.24102936031E+02 -0.27600588257E+02 -0.49633719048E+02  0.62500000218E+02  0.99999981627E+01 0.  0.
    3000022    2    3    3    0    0  0.11177902702E+02 -0.14980171845E+02 -0.17409337440E+02  0.25544051211E+02  0.24992971872E+00 0.  0.
    1000022    2    1    0    0    0 -0.24102936031E+02  0.27600588257E+02  0.49633719048E+02  0.62499999782E+02  0.99999954382E+01 0.  0.
    3000022    2    5    5    0    0 -0.10249584915E+02  0.17172584727E+02  0.20922409739E+02  0.28944107945E+02  0.24999657741E+00 0.  0.
        -13    1    4    4    0    0  0.44161201186E+01 -0.59664747335E+01 -0.68381965774E+01  0.10093210345E+02  0.10500000000E+00 0.  1.
         13    1    4    4    0    0  0.67617825831E+01 -0.90136971115E+01 -0.10571140863E+02  0.15450840866E+02  0.10500000000E+00 0. -1.
    3000001    1    5    5    0    0 -0.13853351116E+02  0.10428003530E+02  0.28711309309E+02  0.33555891837E+02  0.10000000000E+01 0. -1.
        -13    1    6    6    0    0 -0.39118658575E+01  0.64648577039E+01  0.79629203938E+01  0.10977987330E+02  0.10500000000E+00 0. -1.
         13    1    6    6    0    0 -0.63377190578E+01  0.10707727023E+02  0.12959489345E+02  0.17966120615E+02  0.10500000000E+00 0.  1.
</event>
<event>
11    0  0.3448258E-009  0.9118800E+02  0.7816531E-02  0.1126479E+00
         25   -1    0    0    0    0  0.00000000000E+00  0.00000000000E+00  0.99999998245E-14  0.12500000000E+03  0.12500000000E+03 0.  0.
    3000001    1    3    3    0    0  0.81292770289E+01 -0.17288356547E+02  0.23753766826E+02  0.30499407462E+02  0.10000000000E+01 0.  1.
    1000022    2    1    0    0    0  0.21453791883E+02 -0.40480222665E+02  0.41319928245E+02  0.62499999353E+02  0.99999917880E+01 0.  0.
    3000022    2    3    3    0    0  0.13324514854E+02 -0.23191866117E+02  0.17566161420E+02  0.32000591891E+02  0.25000848537E+00 0.  0.
    1000022    2    1    0    0    0 -0.21453791883E+02  0.40480222665E+02 -0.41319928245E+02  0.62500000647E+02  0.99999998795E+01 0.  0.
    3000022    2    5    5    0    0 -0.13306835200E+02  0.29819612467E+02 -0.34167104576E+02  0.47262402430E+02  0.24999532874E+00 0.  0.
        -13    1    4    4    0    0  0.57410300853E+01 -0.99181982429E+01  0.74618450009E+01  0.13675534309E+02  0.10500000000E+00 0.  1.
         13    1    4    4    0    0  0.75834847685E+01 -0.13273667875E+02  0.10104316419E+02  0.18325057582E+02  0.10500000000E+00 0. -1.
    3000001    1    5    5    0    0 -0.81469566828E+01  0.10660610197E+02 -0.71528236695E+01  0.15237598217E+02  0.10000000000E+01 0.  1.
        -13    1    6    6    0    0 -0.69387339730E+01  0.15386065777E+02 -0.17678746099E+02  0.24442302221E+02  0.10500000000E+00 0.  1.
         13    1    6    6    0    0 -0.63681012268E+01  0.14433546690E+02 -0.16488358477E+02  0.22820100209E+02  0.10500000000E+00 0. -1.
</event>
<event>
11    0  0.3448258E-009  0.9118800E+02  0.7816531E-02  0.1126479E+00
         25   -1    0    0    0    0  0.00000000000E+00  0.00000000000E+00  0.99999998245E-14  0.12500000000E+03  0.12500000000E+03 0.  0.
    3000001    1    3    3    0    0  0.32783189880E+01  0.64872653772E+01 -0.25821437477E+02  0.26843595527E+02  0.10000000000E+01 0. -1.
    1000022    2    1    0    0    0 -0.27608453047E+01  0.10501332635E+02 -0.60731787786E+02  0.62500001668E+02  0.99999953444E+01 0.  0.
    3000022    2    3    3    0    0 -0.60391642927E+01  0.40140672582E+01 -0.34910350310E+02  0.35656406141E+02  0.24999769903E+00 0.  0.
    1000022    2    1    0    0    0  0.27608453047E+01 -0.10501332635E+02  0.60731787786E+02  0.62499998332E+02  0.99999744925E+01 0.  0.
    3000022    2    5    5    0    0 -0.27094925715E+01  0.18344929783E-01  0.15044512681E+02  0.15288608614E+02  0.25001001926E+00 0.  0.
        -13    1    4    4    0    0 -0.22919849352E+01  0.15937672471E+01 -0.13350787023E+02  0.13639935048E+02  0.10500000000E+00 0.  1.
         13    1    4    4    0    0 -0.37471793575E+01  0.24203000111E+01 -0.21559563287E+02  0.22016471093E+02  0.10500000000E+00 0. -1.
    3000001    1    5    5    0    0  0.54703378761E+01 -0.10519677565E+02  0.45687275105E+02  0.47211389717E+02  0.10000000000E+01 0.  1.
        -13    1    6    6    0    0 -0.10809372927E+01 -0.34366490727E-01  0.57479123326E+01  0.58497117595E+01  0.10500000000E+00 0.  1.
         13    1    6    6    0    0 -0.16285552787E+01  0.52711420510E-01  0.92966003489E+01  0.94388968549E+01  0.10500000000E+00 0. -1.
</event>
<event>
11    0  0.3448258E-009  0.9118800E+02  0.7816531E-02  0.1126479E+00
         25   -1    0    0    0    0  0.00000000000E+00  0.00000000000E+00  0.99999998245E-14  0.12500000000E+03  0.12500000000E+03 0.  0.
    3000001    1    3    3    0    0  0.36868551337E+01 -0.22527418019E+00  0.36373870405E+01  0.52796054507E+01  0.10000000000E+01 0.  1.
    1000022    2    1    0    0    0  0.56631548572E+02  0.13692060704E+02  0.20289050880E+02  0.62499996746E+02  0.99999593856E+01 0.  0.
    3000022    2    3    3    0    0  0.52944693438E+02  0.13917334885E+02  0.16651663840E+02  0.57220391295E+02  0.24999571327E+00 0.  0.
    1000022    2    1    0    0    0 -0.56631548572E+02 -0.13692060704E+02 -0.20289050880E+02  0.62500003254E+02  0.10000000059E+02 0.  0.
    3000022    2    5    5    0    0 -0.31034042523E+02 -0.11403756186E+02 -0.81148400517E+01  0.34045125592E+02  0.24999404655E+00 0.  0.
        -13    1    4    4    0    0  0.24957577665E+02  0.65219300017E+01  0.79051795196E+01  0.26979976688E+02  0.10500000000E+00 0.  1.
         13    1    4    4    0    0  0.27987115773E+02  0.73954048829E+01  0.87464843199E+01  0.30240414608E+02  0.10500000000E+00 0. -1.
    3000001    1    5    5    0    0 -0.25597506048E+02 -0.22883045185E+01 -0.12174210828E+02  0.28454877662E+02  0.10000000000E+01 0. -1.
        -13    1    6    6    0    0 -0.19934840967E+02 -0.73785167056E+01 -0.52465818517E+01  0.21894703453E+02  0.10500000000E+00 0. -1.
         13    1    6    6    0    0 -0.11099201556E+02 -0.40252394803E+01 -0.28682582000E+01  0.12150422139E+02  0.10500000000E+00 0.  1.
</event>
<event>
11    0  0.3448258E-009  0.9118800E+02  0.7816531E-02  0.1126479E+00
         25   -1    0    0    0    0  0.00000000000E+00  0.00000000000E+00  0.99999998245E-14  0.12500000000E+03  0.12500000000E+03 0.  0.
    3000001    1    3    3    0    0 -0.36751255106E+01 -0.62513838723E+00  0.48479397293E+01  0.61967624725E+01  0.10000000000E+01 0. -1.
    1000022    2    1    0    0    0 -0.25155955383E+02 -0.32141521317E+02  0.46263922887E+02  0.62500000571E+02  0.10000001335E+02 0.  0.
    3000022    2    3    3    0    0 -0.21480829872E+02 -0.31516382930E+02  0.41415983158E+02  0.56303238099E+02  0.25002900069E+00 0.  0.
    1000022    2    1    0    0    0  0.25155955383E+02  0.32141521317E+02 -0.46263922887E+02  0.62499999429E+02  0.99999941935E+01 0.  0.
    3000022    2    5    5    0    0  0.35200708762E+01  0.24248763441E+01 -0.14285333392E+01  0.45137713848E+01  0.25000071031E+00 0.  0.
        -13    1    4    4    0    0 -0.13339378903E+02 -0.19539637914E+02  0.25604415338E+02  0.34861634918E+02  0.10500000000E+00 0. -1.
         13    1    4    4    0    0 -0.81414509695E+01 -0.11976745016E+02  0.15811567820E+02  0.21441603181E+02  0.10500000000E+00 0.  1.
    3000001    1    5    5    0    0  0.21635884507E+02  0.29716644973E+02 -0.44835389548E+02  0.57986228044E+02  0.10000000000E+01 0.  1.
        -13    1    6    6    0    0  0.82176027825E+00  0.55469583317E+00 -0.32628556784E+00  0.10490303590E+01  0.10500000000E+00 0.  1.
         13    1    6    6    0    0  0.26983105980E+01  0.18701805109E+01 -0.11022477713E+01  0.34647410258E+01  0.10500000000E+00 0. -1.
</event>
<event>
11    0  0.3448258E-009  0.9118800E+02  0.7816531E-02  0.1126479E+00
         25   -1    0    0    0    0  0.00000000000E+00  0.00000000000E+00  0.99999998245E-14  0.12500000000E+03  0.12500000000E+03 0.  0.
    3000001    1    3    3    0    0 -0.59876355232E+01  0.14157618865E+02 -0.38812879749E+01  0.15885664841E+02  0.10000000000E+01 0.  1.
    1000022    2    1    0    0    0 -0.22913127896E+02  0.48530884369E+02 -0.30430113445E+02  0.62500000707E+02  0.10000005825E+02 0.  0.
    3000022    2    3    3    0    0 -0.16925492373E+02  0.34373265503E+02 -0.26548825470E+02  0.46614335866E+02  0.25000192495E+00 0.  0.
    1000022    2    1    0    0    0  0.22913127896E+02 -0.48530884369E+02  0.30430113445E+02  0.62499999293E+02  0.99999969926E+01 0.  0.
    3000022    2    5    5    0    0  0.98090117636E+01 -0.10828481757E+02  0.93699347410E+01  0.17358885557E+02  0.25000360731E+00 0.  0.
        -13    1    4    4    0    0 -0.73141282188E+01  0.15002835523E+02 -0.11570160153E+02  0.20309140216E+02  0.10500000000E+00 0. -1.
         13    1    4    4    0    0 -0.96113641541E+01  0.19370429980E+02 -0.14978665316E+02  0.26305195650E+02  0.10500000000E+00 0.  1.
    3000001    1    5    5    0    0  0.13104116133E+02 -0.37702402612E+02  0.21060178704E+02  0.45141113736E+02  0.10000000000E+01 0. -1.
        -13    1    6    6    0    0  0.36803818713E+01 -0.39921364831E+01  0.34392978736E+01  0.64282314272E+01  0.10500000000E+00 0.  1.
         13    1    6    6    0    0  0.61286298922E+01 -0.68363452735E+01  0.59306368674E+01  0.10930654130E+02  0.10500000000E+00 0. -1.
</event>
<event>
11    0  0.3448258E-009  0.9118800E+02  0.7816531E-02  0.1126479E+00
         25   -1    0    0    0    0  0.00000000000E+00  0.00000000000E+00  0.99999998245E-14  0.12500000000E+03  0.12500000000E+03 0.  0.
    3000001    1    3    3    0    0 -0.24946912560E+02  0.44527502652E+02 -0.15934838841E+02  0.53478650204E+02  0.10000000000E+01 0. -1.
    1000022    2    1    0    0    0 -0.30444160667E+02  0.51583017703E+02 -0.14784972301E+02  0.62499998018E+02  0.99999856153E+01 0.  0.
    3000022    2    3    3    0    0 -0.54972481066E+01  0.70555150501E+01  0.11498665399E+01  0.90213478141E+01  0.24998791172E+00 0.  0.
    1000022    2    1    0    0    0  0.30444160667E+02 -0.51583017703E+02  0.14784972301E+02  0.62500001982E+02  0.10000010393E+02 0.  0.
    3000022    2    5    5    0    0  0.11276795289E+02 -0.10636797585E+02  0.39081810603E+01  0.15988869711E+02  0.25000117620E+00 0.  0.
        -13    1    4    4    0    0 -0.16758366429E+01  0.22294912722E+01  0.36592388229E+00  0.28149573840E+01  0.10500000000E+00 0.  1.
         13    1    4    4    0    0 -0.38214114638E+01  0.48260237779E+01  0.78394265760E+00  0.62063904301E+01  0.10500000000E+00 0. -1.
    3000001    1    5    5    0    0  0.19167365377E+02 -0.40946220118E+02  0.10876791240E+02  0.46511132271E+02  0.10000000000E+01 0. -1.
        -13    1    6    6    0    0  0.48929211210E+01 -0.45756996475E+01  0.16280776240E+01  0.68948797024E+01  0.10500000000E+00 0. -1.
         13    1    6    6    0    0  0.63838741684E+01 -0.60610979373E+01  0.22801034363E+01  0.90939900090E+01  0.10500000000E+00 0.  1.
</event>
<event>
11    0  0.3448258E-009  0.9118800E+02  0.7816531E-02  0.1126479E+00
         25   -1    0    0    0    0  0.00000000000E+00  0.00000000000E+00  0.99999998245E-14  0.12500000000E+03  0.12500000000E+03 0.  0.
    3000001    1    3    3    0    0  0.94487037005E+01 -0.38904473475E+01  0.74017875912E+01  0.12657015514E+02  0.10000000000E+01 0. -1.
    1000022    2    1    0    0    0  0.41235498167E+02 -0.35949938142E+02  0.28521691497E+02  0.62500009982E+02  0.10000000020E+02 0.  0.
    3000022    2    3    3    0    0  0.31786794466E+02 -0.32059490794E+02  0.21119903906E+02  0.49842994467E+02  0.25000809738E+00 0.  0.
    1000022    2    1    0    0    0 -0.41235498167E+02  0.35949938142E+02 -0.28521691497E+02  0.62499990018E+02  0.99998752482E+01 0.  0.
    3000022    2    5    5    0    0 -0.23261773526E+02  0.15149831754E+02 -0.17791410996E+02  0.32973084951E+02  0.25003246281E+00 0.  0.
        -13    1    4    4    0    0  0.21591184173E+02 -0.21822516848E+02  0.14403978367E+02  0.33909985157E+02  0.10500000000E+00 0. -1.
         13    1    4    4    0    0  0.10195610293E+02 -0.10236973946E+02  0.67159255385E+01  0.15933009310E+02  0.10500000000E+00 0.  1.
    3000001    1    5    5    0    0 -0.17973724641E+02  0.20800106388E+02 -0.10730280501E+02  0.29526905067E+02  0.10000000000E+01 0. -1.
        -13    1    6    6    0    0 -0.17582659511E+02  0.11423724432E+02 -0.13437092009E+02  0.24904173587E+02  0.10500000000E+00 0.  1.
         13    1    6    6    0    0 -0.56791140147E+01  0.37261073220E+01 -0.43543189867E+01  0.80689113643E+01  0.10500000000E+00 0. -1.
</event>
<event>
11    0  0.3448258E-009  0.9118800E+02  0.7816531E-02  0.1126479E+00
         25   -1    0    0    0    0  0.00000000000E+00  0.00000000000E+00  0.99999998245E-14  0.12500000000E+03  0.12500000000E+03 0.  0.
    3000001    1    3    3    0    0 -0.11384098603E+02  0.91334243737E+01 -0.26343799624E+02  0.30133252736E+02  0.10000000000E+01 0.  1.
    1000022    2    1    0    0    0 -0.22038817722E+02  0.28099089138E+02 -0.50308865310E+02  0.62500000477E+02  0.99999916909E+01 0.  0.
    3000022    2    3    3    0    0 -0.10654719119E+02  0.18965664765E+02 -0.23965065686E+02  0.32366747741E+02  0.25001307820E+00 0.  0.
    1000022    2    1    0    0    0  0.22038817722E+02 -0.28099089138E+02  0.50308865310E+02  0.62499999523E+02  0.99999857307E+01 0.  0.
    3000022    2    5    5    0    0  0.14975036756E+02 -0.11991862808E+02  0.30052372547E+02  0.35654790628E+02  0.24999907284E+00 0.  0.
        -13    1    4    4    0    0 -0.27475448897E+01  0.49427643066E+01 -0.62585067801E+01  0.84356300315E+01  0.10500000000E+00 0. -1.
         13    1    4    4    0    0 -0.79071742295E+01  0.14022900458E+02 -0.17706558906E+02  0.23931117710E+02  0.10500000000E+00 0.  1.
    3000001    1    5    5    0    0  0.70637809663E+01 -0.16107226330E+02  0.20256492763E+02  0.26845208896E+02  0.10000000000E+01 0.  1.
        -13    1    6    6    0    0  0.10276324653E+02 -0.82911334463E+01  0.20669830706E+02  0.24527508406E+02  0.10500000000E+00 0.  1.
         13    1    6    6    0    0  0.46987121031E+01 -0.37007293618E+01  0.93825418407E+01  0.11127282221E+02  0.10500000000E+00 0. -1.
</event>
<event>
11    0  0.3448258E-009  0.9118800E+02  0.7816531E-02  0.1126479E+00
         25   -1    0    0    0    0  0.00000000000E+00  0.00000000000E+00  0.99999998245E-14  0.12500000000E+03  0.12500000000E+03 0.  0.
    3000001    1    3    3    0    0 -0.54388336375E+00 -0.73352356503E+01  0.11371998782E+02  0.13580274204E+02  0.10000000000E+01 0.  1.
    1000022    2    1    0    0    0  0.10225712763E+02 -0.43253615579E+02  0.42787963687E+02  0.62499999987E+02  0.99999849853E+01 0.  0.
    3000022    2    3    3    0    0  0.10769596127E+02 -0.35918379929E+02  0.31415964904E+02  0.48919725783E+02  0.25000462021E+00 0.  0.
    1000022    2    1    0    0    0 -0.10225712763E+02  0.43253615579E+02 -0.42787963687E+02  0.62500000013E+02  0.99999851515E+01 0.  0.
    3000022    2    5    5    0    0 -0.71086352485E+01  0.13844420487E+02 -0.18803262161E+02  0.24409544050E+02  0.24999824944E+00 0.  0.
        -13    1    4    4    0    0  0.32825683040E+01 -0.11111411994E+02  0.97210304311E+01  0.15124423586E+02  0.10500000000E+00 0.  1.
         13    1    4    4    0    0  0.74870278232E+01 -0.24806967935E+02  0.21694934473E+02  0.33795302196E+02  0.10500000000E+00 0. -1.
    3000001    1    5    5    0    0 -0.31170775149E+01  0.29409195092E+02 -0.23984701525E+02  0.38090455963E+02  0.10000000000E+01 0.  1.
        -13    1    6    6    0    0 -0.33554663150E+01  0.63994863972E+01 -0.86889731439E+01  0.11301409630E+02  0.10500000000E+00 0. -1.
         13    1    6    6    0    0 -0.37531689335E+01  0.74449340895E+01 -0.10114289017E+02  0.13108134420E+02  0.10500000000E+00 0.  1.
</event>
<event>
11    0  0.3448258E-009  0.9118800E+02  0.7816531E-02  0.1126479E+00
         25   -1    0    0    0    0  0.00000000000E+00  0.00000000000E+00  0.99999998245E-14  0.12500000000E+03  0.12500000000E+03 0.  0.
    3000001    1    3    3    0    0  0.19837823323E+02  0.41756896103E+02 -0.15640647894E+02  0.48814008981E+02  0.10000000000E+01 0.  1.
    1000022    2    1    0    0    0  0.29695669514E+02  0.50725054189E+02 -0.18745295668E+02  0.62499999435E+02  0.99999954633E+01 0.  0.
    3000022    2    3    3    0    0  0.98578461912E+01  0.89681580868E+01 -0.31046477741E+01  0.13685990453E+02  0.25001177100E+00 0.  0.
    1000022    2    1    0    0    0 -0.29695669514E+02 -0.50725054189E+02  0.18745295668E+02  0.62500000565E+02  0.10000002531E+02 0.  0.
    3000022    2    5    5    0    0 -0.15138180083E+01  0.42600021402E-02  0.96981000393E-01  0.15373914304E+01  0.25000797221E+00 0.  0.
        -13    1    4    4    0    0  0.69373567754E+01  0.62499976609E+01 -0.21809603229E+01  0.95894213965E+01  0.10500000000E+00 0. -1.
         13    1    4    4    0    0  0.29204894158E+01  0.27181604259E+01 -0.92368745113E+00  0.40965690567E+01  0.10500000000E+00 0.  1.
    3000001    1    5    5    0    0 -0.28181851505E+02 -0.50729314191E+02  0.18648314667E+02  0.60962609135E+02  0.10000000000E+01 0.  1.
        -13    1    6    6    0    0 -0.11164478540E+01 -0.31073502252E-01  0.70784860964E-01  0.11240359735E+01  0.10500000000E+00 0.  1.
         13    1    6    6    0    0 -0.39737015427E+00  0.35333504392E-01  0.26196139429E-01  0.41335545691E+00  0.10500000000E+00 0.  1.
</event>
<event>
11    0  0.3448258E-009  0.9118800E+02  0.7816531E-02  0.1126479E+00
         25   -1    0    0    0    0  0.00000000000E+00  0.00000000000E+00  0.99999998245E-14  0.12500000000E+03  0.12500000000E+03 0.  0.
    3000001    1    3    3    0    0  0.41512536735E+02 -0.24088223793E+02  0.37336499482E+02  0.60815684040E+02  0.10000000000E+01 0.  1.
    1000022    2    1    0    0    0  0.42393062393E+02 -0.23141625777E+02  0.38386760932E+02  0.62499999463E+02  0.99999967676E+01 0.  0.
    3000022    2    3    3    0    0  0.88052565804E+00  0.94659801581E+00  0.10502614498E+01  0.16843154229E+01  0.24999218580E+00 0.  0.
    1000022    2    1    0    0    0 -0.42393062393E+02  0.23141625777E+02 -0.38386760932E+02  0.62500000537E+02  0.10000003480E+02 0.  0.
    3000022    2    5    5    0    0 -0.13040486734E+02  0.26803577555E+01 -0.13063838195E+02  0.18653819371E+02  0.24999358600E+00 0.  0.
        -13    1    4    4    0    0  0.25753725740E+00  0.34323089490E+00  0.31655109102E+00  0.54347261145E+00  0.10500000000E+00 0. -1.
         13    1    4    4    0    0  0.62298840064E+00  0.60336712091E+00  0.73371035879E+00  0.11408428115E+01  0.10500000000E+00 0.  1.
    3000001    1    5    5    0    0 -0.29352575660E+02  0.20461268022E+02 -0.25322922737E+02  0.43846181166E+02  0.10000000000E+01 0. -1.
        -13    1    6    6    0    0 -0.77195630817E+01  0.15331258189E+01 -0.77734242311E+01  0.11062516812E+02  0.10500000000E+00 0.  1.
         13    1    6    6    0    0 -0.53209236518E+01  0.11472319366E+01 -0.52904139640E+01  0.75913025586E+01  0.10500000000E+00 0. -1.
</event>
<event>
11    0  0.3448258E-009  0.9118800E+02  0.7816531E-02  0.1126479E+00
         25   -1    0    0    0    0  0.00000000000E+00  0.00000000000E+00  0.99999998245E-14  0.12500000000E+03  0.12500000000E+03 0.  0.
    3000001    1    3    3    0    0 -0.51948944982E+01  0.27388842718E+02  0.77544413954E+01  0.28952840891E+02  0.10000000000E+01 0. -1.
    1000022    2    1    0    0    0 -0.20885138275E+02  0.55035855566E+02  0.18469312393E+02  0.62500002173E+02  0.10000018637E+02 0.  0.
    3000022    2    3    3    0    0 -0.15690243777E+02  0.27647012848E+02  0.10714870998E+02  0.33547161283E+02  0.25000086599E+00 0.  0.
    1000022    2    1    0    0    0  0.20885138275E+02 -0.55035855566E+02 -0.18469312393E+02  0.62499997827E+02  0.99999914698E+01 0.  0.
    3000022    2    5    5    0    0  0.14927448350E+02 -0.32242848293E+02 -0.15384163912E+02  0.38719051863E+02  0.24999518449E+00 0.  0.
        -13    1    4    4    0    0 -0.82118114631E+01  0.14373422263E+02  0.55288213604E+01  0.17453022824E+02  0.10500000000E+00 0. -1.
         13    1    4    4    0    0 -0.74784323142E+01  0.13273590585E+02  0.51860496376E+01  0.16094138459E+02  0.10500000000E+00 0.  1.
    3000001    1    5    5    0    0  0.59576899257E+01 -0.22793007273E+02 -0.30851484814E+01  0.23780945964E+02  0.10000000000E+01 0.  1.
        -13    1    6    6    0    0  0.85730574285E+01 -0.18666346967E+02 -0.88745699664E+01  0.22376300853E+02  0.10500000000E+00 0.  1.
         13    1    6    6    0    0  0.63543909213E+01 -0.13576501326E+02 -0.65095939456E+01  0.16342751010E+02  0.10500000000E+00 0. -1.
</event>
<event>
11    0  0.3448258E-009  0.9118800E+02  0.7816531E-02  0.1126479E+00
         25   -1    0    0    0    0  0.00000000000E+00  0.00000000000E+00  0.99999998245E-14  0.12500000000E+03  0.12500000000E+03 0.  0.
    3000001    1    3    3    0    0 -0.65481757657E+01 -0.47231389038E+00  0.19425428760E+02  0.20529222313E+02  0.10000000000E+01 0. -1.
    1000022    2    1    0    0    0 -0.20465372765E+02 -0.15186440238E+02  0.56185323196E+02  0.62500000578E+02  0.10000004002E+02 0.  0.
    3000022    2    3    3    0    0 -0.13917197000E+02 -0.14714126348E+02  0.36759894437E+02  0.41970778265E+02  0.25000536896E+00 0.  0.
    1000022    2    1    0    0    0  0.20465372765E+02  0.15186440238E+02 -0.56185323196E+02  0.62499999422E+02  0.99999967760E+01 0.  0.
    3000022    2    5    5    0    0  0.15041613833E+02  0.10748391624E+02 -0.49180424787E+02  0.52540981489E+02  0.24996879442E+00 0.  0.
        -13    1    4    4    0    0 -0.10284686753E+02 -0.10917527112E+02  0.27204054295E+02  0.31065073232E+02  0.10500000000E+00 0.  1.
         13    1    4    4    0    0 -0.36325102461E+01 -0.37965992364E+01  0.95558401418E+01  0.10905705033E+02  0.10500000000E+00 0. -1.
    3000001    1    5    5    0    0  0.54237589321E+01  0.44380486149E+01 -0.70048984092E+01  0.99590179327E+01  0.10000000000E+01 0. -1.
        -13    1    6    6    0    0  0.73745324598E+01  0.52056736906E+01 -0.23889982010E+02  0.25538696776E+02  0.10500000000E+00 0. -1.
         13    1    6    6    0    0  0.76670813734E+01  0.55427179329E+01 -0.25290442777E+02  0.27002284713E+02  0.10500000000E+00 0.  1.
</event>
<event>
11    0  0.3448258E-009  0.9118800E+02  0.7816531E-02  0.1126479E+00
         25   -1    0    0    0    0  0.00000000000E+00  0.00000000000E+00  0.99999998245E-14  0.12500000000E+03  0.12500000000E+03 0.  0.
    3000001    1    3    3    0    0  0.29051447827E+02 -0.28239403753E+01 -0.25392868946E+02  0.38700892153E+02  0.10000000000E+01 0. -1.
    1000022    2    1    0    0    0  0.41004918631E+02 -0.35791457483E+01 -0.45956896553E+02  0.62499999968E+02  0.10000000948E+02 0.  0.
    3000022    2    3    3    0    0  0.11953470804E+02 -0.75520537296E+00 -0.20564027607E+02  0.23799107815E+02  0.25000392675E+00 0.  0.
    1000022    2    1    0    0    0 -0.41004918631E+02  0.35791457483E+01  0.45956896553E+02  0.62500000032E+02  0.10000001349E+02 0.  0.
    3000022    2    5    5    0    0 -0.14793482447E+02 -0.57810553969E+00  0.10289257536E+02  0.18030880431E+02  0.24999904525E+00 0.  0.
        -13    1    4    4    0    0  0.84401109763E+01 -0.50135615426E+00 -0.14575445617E+02  0.16850562935E+02  0.10500000000E+00 0. -1.
         13    1    4    4    0    0  0.35133598276E+01 -0.25384921870E+00 -0.59885819899E+01  0.69485448803E+01  0.10500000000E+00 0.  1.
    3000001    1    5    5    0    0 -0.26211436184E+02  0.41572512880E+01  0.35667639017E+02  0.44469119602E+02  0.10000000000E+01 0. -1.
        -13    1    6    6    0    0 -0.78611619604E+01 -0.37084868056E+00  0.54422459317E+01  0.95689321188E+01  0.10500000000E+00 0. -1.
         13    1    6    6    0    0 -0.69323204867E+01 -0.20725685913E+00  0.48470116046E+01  0.84619483118E+01  0.10500000000E+00 0.  1.
</event>
<event>
11    0  0.3448258E-009  0.9118800E+02  0.7816531E-02  0.1126479E+00
         25   -1    0    0    0    0  0.00000000000E+00  0.00000000000E+00  0.99999998245E-14  0.12500000000E+03  0.12500000000E+03 0.  0.
    3000001    1    3    3    0    0 -0.26132895935E+02  0.12791540779E+02 -0.17466662560E+02  0.33950494347E+02  0.10000000000E+01 0.  1.
    1000022    2    1    0    0    0 -0.52556650327E+02  0.17309424794E+02 -0.27284286094E+02  0.62500000709E+02  0.10000007032E+02 0.  0.
    3000022    2    3    3    0    0 -0.26423754392E+02  0.45178840149E+01 -0.98176235345E+01  0.28549506361E+02  0.25001894390E+00 0.  0.
    1000022    2    1    0    0    0  0.52556650327E+02 -0.17309424794E+02  0.27284286094E+02  0.62499999291E+02  0.99999981732E+01 0.  0.
    3000022    2    5    5    0    0  0.29354642428E+02 -0.53279089494E+01  0.11526322311E+02  0.31984375178E+02  0.25000722802E+00 0.  0.
        -13    1    4    4    0    0 -0.14538972448E+02  0.25274888836E+01 -0.54603445915E+01  0.15735193292E+02  0.10500000000E+00 0. -1.
         13    1    4    4    0    0 -0.11884781944E+02  0.19903951312E+01 -0.43572789430E+01  0.12814313069E+02  0.10500000000E+00 0.  1.
    3000001    1    5    5    0    0  0.23202007898E+02 -0.11981515845E+02  0.15757963783E+02  0.30515624114E+02  0.10000000000E+01 0. -1.
        -13    1    6    6    0    0  0.95977600068E+01 -0.17623311623E+01  0.37184037193E+01  0.10443196804E+02  0.10500000000E+00 0. -1.
         13    1    6    6    0    0  0.19756882422E+02 -0.35655777871E+01  0.78079185920E+01  0.21541178373E+02  0.10500000000E+00 0.  1.
</event>
<event>
11    0  0.3448258E-009  0.9118800E+02  0.7816531E-02  0.1126479E+00
         25   -1    0    0    0    0  0.00000000000E+00  0.00000000000E+00  0.99999998245E-14  0.12500000000E+03  0.12500000000E+03 0.  0.
    3000001    1    3    3    0    0  0.29717099424E+02 -0.34929676917E+02  0.31005995746E+02  0.55367500394E+02  0.10000000000E+01 0.  1.
    1000022    2    1    0    0    0  0.33114297191E+02 -0.41131430516E+02  0.31904524735E+02  0.62500000439E+02  0.10000005077E+02 0.  0.
    3000022    2    3    3    0    0  0.33971977671E+01 -0.62017535994E+01  0.89852898850E+00  0.71325000446E+01  0.25000433390E+00 0.  0.
    1000022    2    1    0    0    0 -0.33114297191E+02  0.41131430516E+02 -0.31904524735E+02  0.62499999561E+02  0.99999995886E+01 0.  0.
    3000022    2    5    5    0    0 -0.32666453577E+01  0.47830595453E+01 -0.25915621758E+00  0.58033000025E+01  0.24999693427E+00 0.  0.
        -13    1    4    4    0    0  0.11035052026E+01 -0.20237266368E+01  0.34537558648E+00  0.23331314855E+01  0.10500000000E+00 0. -1.
         13    1    4    4    0    0  0.22936925645E+01 -0.41780269625E+01  0.55315340202E+00  0.47993685591E+01  0.10500000000E+00 0.  1.
    3000001    1    5    5    0    0 -0.29847651833E+02  0.36348370971E+02 -0.31645368517E+02  0.56696699558E+02  0.10000000000E+01 0. -1.
        -13    1    6    6    0    0 -0.13623829179E+01  0.21105656630E+01 -0.10446312310E+00  0.25164483259E+01  0.10500000000E+00 0.  1.
         13    1    6    6    0    0 -0.19042624399E+01  0.26724938823E+01 -0.15469309448E+00  0.32868516766E+01  0.10500000000E+00 0. -1.
</event>
<event>
11    0  0.3448258E-009  0.9118800E+02  0.7816531E-02  0.1126479E+00
         25   -1    0    0    0    0  0.00000000000E+00  0.00000000000E+00  0.99999998245E-14  0.12500000000E+03  0.12500000000E+03 0.  0.
    3000001    1    3    3    0    0  0.45213974685E+02 -0.11979513480E+00  0.56289331250E+01  0.45574145585E+02  0.10000000000E+01 0.  1.
    1000022    2    1    0    0    0  0.60542550447E+02 -0.52482297072E+01  0.10644507918E+02  0.62500000496E+02  0.10000009177E+02 0.  0.
    3000022    2    3    3    0    0  0.15328575762E+02 -0.51284345724E+01  0.50155747933E+01  0.16925854911E+02  0.24999583607E+00 0.  0.
    1000022    2    1    0    0    0 -0.60542550447E+02  0.52482297072E+01 -0.10644507918E+02  0.62499999504E+02  0.10000002972E+02 0.  0.
    3000022    2    5    5    0    0 -0.22511925765E+02  0.67386072731E+01 -0.47049768113E+01  0.23966537827E+02  0.24999799053E+00 0.  0.
        -13    1    4    4    0    0  0.93106473155E+01 -0.30813124722E+01  0.30990762786E+01  0.10285812499E+02  0.10500000000E+00 0. -1.
         13    1    4    4    0    0  0.60179284466E+01 -0.20471221001E+01  0.19164985147E+01  0.66400424124E+01  0.10500000000E+00 0.  1.
    3000001    1    5    5    0    0 -0.38030624682E+02 -0.14903775660E+01 -0.59395311069E+01  0.38533461676E+02  0.10000000000E+01 0.  1.
        -13    1    6    6    0    0 -0.13998098818E+02  0.41351486421E+01 -0.29531248456E+01  0.14892219316E+02  0.10500000000E+00 0. -1.
         13    1    6    6    0    0 -0.85138269473E+01  0.26034586310E+01 -0.17518519657E+01  0.90743185111E+01  0.10500000000E+00 0.  1.
</event>
<event>
11    0  0.3448258E-009  0.9118800E+02  0.7816531E-02  0.1126479E+00
         25   -1    0    0    0    0  0.00000000000E+00  0.00000000000E+00  0.99999998245E-14  0.12500000000E+03  0.12500000000E+03 0.  0.
    3000001    1    3    3    0    0  0.25582449112E+02  0.41777592657E+00  0.21699331516E+02  0.33563331592E+02  0.10000000000E+01 0. -1.
    1000022    2    1    0    0    0  0.48000690949E+02  0.95142588690E+01  0.37572098340E+02  0.62500000274E+02  0.10000000359E+02 0.  0.
    3000022    2    3    3    0    0  0.22418241837E+02  0.90964829424E+01  0.15872766824E+02  0.28936668682E+02  0.24999759719E+00 0.  0.
    1000022    2    1    0    0    0 -0.48000690949E+02 -0.95142588690E+01 -0.37572098340E+02  0.62499999726E+02  0.99999969361E+01 0.  0.
    3000022    2    5    5    0    0 -0.41423972140E+02 -0.11508515353E+02 -0.31970918331E+02  0.53577919997E+02  0.24999745514E+00 0.  0.
        -13    1    4    4    0    0  0.52390490018E+01  0.21165980348E+01  0.37189406589E+01  0.67652912952E+01  0.10500000000E+00 0. -1.
         13    1    4    4    0    0  0.17179192835E+02  0.69798849076E+01  0.12153826165E+02  0.22171377387E+02  0.10500000000E+00 0.  1.
    3000001    1    5    5    0    0 -0.65767188088E+01  0.19942564838E+01 -0.56011800082E+01  0.89220797294E+01  0.10000000000E+01 0.  1.
        -13    1    6    6    0    0 -0.15298894407E+02 -0.42084077587E+01 -0.11745217302E+02  0.19741530346E+02  0.10500000000E+00 0.  1.
         13    1    6    6    0    0 -0.26125077733E+02 -0.73001075941E+01 -0.20225701029E+02  0.33836389651E+02  0.10500000000E+00 0. -1.
</event>
<event>
11    0  0.3448258E-009  0.9118800E+02  0.7816531E-02  0.1126479E+00
         25   -1    0    0    0    0  0.00000000000E+00  0.00000000000E+00  0.99999998245E-14  0.12500000000E+03  0.12500000000E+03 0.  0.
    3000001    1    3    3    0    0  0.25507821506E+01 -0.31049057720E+02  0.10994470133E+02  0.33051911418E+02  0.10000000000E+01 0. -1.
    1000022    2    1    0    0    0  0.13907431480E+02 -0.56601890740E+02  0.20225213429E+02  0.62499999652E+02  0.10000000630E+02 0.  0.
    3000022    2    3    3    0    0  0.11356649329E+02 -0.25552833019E+02  0.92307432966E+01  0.29448088234E+02  0.25003904424E+00 0.  0.
    1000022    2    1    0    0    0 -0.13907431480E+02  0.56601890740E+02 -0.20225213429E+02  0.62500000348E+02  0.10000004974E+02 0.  0.
    3000022    2    5    5    0    0 -0.48676385916E+01  0.19722158572E+02 -0.21344005474E+01  0.20427324999E+02  0.24999345521E+00 0.  0.
        -13    1    4    4    0    0  0.78250008450E+01 -0.17566059484E+02  0.63964908725E+01  0.20266307125E+02  0.10500000000E+00 0. -1.
         13    1    4    4    0    0  0.35316484844E+01 -0.79867735356E+01  0.28342524241E+01  0.91817811088E+01  0.10500000000E+00 0.  1.
    3000001    1    5    5    0    0 -0.90397928884E+01  0.36879732168E+02 -0.18090812882E+02  0.42072675349E+02  0.10000000000E+01 0. -1.
        -13    1    6    6    0    0 -0.23984424938E+01  0.97194360843E+01 -0.11200283384E+01  0.10073998842E+02  0.10500000000E+00 0. -1.
         13    1    6    6    0    0 -0.24691960978E+01  0.10002722487E+02 -0.10143722090E+01  0.10353326157E+02  0.10500000000E+00 0.  1.
</event>
<event>
11    0  0.3448258E-009  0.9118800E+02  0.7816531E-02  0.1126479E+00
         25   -1    0    0    0    0  0.00000000000E+00  0.00000000000E+00  0.99999998245E-14  0.12500000000E+03  0.12500000000E+03 0.  0.
    3000001    1    3    3    0    0 -0.22739704931E+01  0.12687621223E+02 -0.49763016451E+02  0.51415021933E+02  0.10000000000E+01 0. -1.
    1000022    2    1    0    0    0 -0.80342299066E+00  0.19157478721E+02 -0.58639538872E+02  0.62499999108E+02  0.99999944981E+01 0.  0.
    3000022    2    3    3    0    0  0.14705475024E+01  0.64698574984E+01 -0.88765224209E+01  0.11084977175E+02  0.25000534742E+00 0.  0.
    1000022    2    1    0    0    0  0.80342299066E+00 -0.19157478721E+02  0.58639538872E+02  0.62500000892E+02  0.10000005643E+02 0.  0.
    3000022    2    5    5    0    0 -0.36650216913E+01 -0.30533815520E+01  0.10601251293E+02  0.11627748955E+02  0.24998778932E+00 0.  0.
        -13    1    4    4    0    0  0.33821342337E+00  0.15069175170E+01 -0.20508104601E+01  0.25694429876E+01  0.10500000000E+00 0.  1.
         13    1    4    4    0    0  0.11323340791E+01  0.49629399814E+01 -0.68257119608E+01  0.85155341874E+01  0.10500000000E+00 0. -1.
    3000001    1    5    5    0    0  0.44684446820E+01 -0.16104097169E+02  0.48038287579E+02  0.50872251936E+02  0.10000000000E+01 0.  1.
        -13    1    6    6    0    0 -0.20646215334E+01 -0.18024481978E+01  0.60487609002E+01  0.66415370969E+01  0.10500000000E+00 0. -1.
         13    1    6    6    0    0 -0.16004001580E+01 -0.12509333542E+01  0.45524903925E+01  0.49862118583E+01  0.10500000000E+00 0.  1.
</event>
<event>
11    0  0.3448258E-009  0.9118800E+02  0.7816531E-02  0.1126479E+00
         25   -1    0    0    0    0  0.00000000000E+00  0.00000000000E+00  0.99999998245E-14  0.12500000000E+03  0.12500000000E+03 0.  0.
    3000001    1    3    3    0    0 -0.13439488189E+01  0.26665212013E+01 -0.15355183602E+01  0.35034768987E+01  0.10000000000E+01 0.  1.
    1000022    2    1    0    0    0 -0.39274750357E+01  0.30368960729E+02 -0.53558855680E+02  0.62500001083E+02  0.10000013886E+02 0.  0.
    3000022    2    3    3    0    0 -0.25835262168E+01  0.27702439528E+02 -0.52023337319E+02  0.58996524184E+02  0.24995291547E+00 0.  0.
    1000022    2    1    0    0    0  0.39274750357E+01 -0.30368960729E+02  0.53558855680E+02  0.62499998917E+02  0.10000000351E+02 0.  0.
    3000022    2    5    5    0    0  0.34075463449E+01 -0.53412482146E+01  0.59175673578E+01  0.86729697170E+01  0.24999139194E+00 0.  0.
        -13    1    4    4    0    0 -0.13792508487E+01  0.15500180944E+02 -0.29105390900E+02  0.33004435258E+02  0.10500000000E+00 0. -1.
         13    1    4    4    0    0 -0.12042753681E+01  0.12202258584E+02 -0.22917946419E+02  0.25992088927E+02  0.10500000000E+00 0.  1.
    3000001    1    5    5    0    0  0.51992869083E+00 -0.25027712514E+02  0.47641288322E+02  0.53827029200E+02  0.10000000000E+01 0.  1.
        -13    1    6    6    0    0  0.16007341027E+01 -0.26349194142E+01  0.28748837607E+01  0.42167679121E+01  0.10500000000E+00 0. -1.
         13    1    6    6    0    0  0.18068122422E+01 -0.27063288004E+01  0.30426835971E+01  0.44562018050E+01  0.10500000000E+00 0.  1.
</event>
<event>
11    0  0.3448258E-009  0.9118800E+02  0.7816531E-02  0.1126479E+00
         25   -1    0    0    0    0  0.00000000000E+00  0.00000000000E+00  0.99999998245E-14  0.12500000000E+03  0.12500000000E+03 0.  0.
    3000001    1    3    3    0    0  0.23666538600E+02  0.82999328852E+01 -0.29345015586E+02  0.38615073157E+02  0.10000000000E+01 0. -1.
    1000022    2    1    0    0    0  0.43601062943E+02  0.12155354803E+02 -0.41921887156E+02  0.62500000164E+02  0.10000002881E+02 0.  0.
    3000022    2    3    3    0    0  0.19934524343E+02  0.38554219180E+01 -0.12576871570E+02  0.23884927007E+02  0.25000133339E+00 0.  0.
    1000022    2    1    0    0    0 -0.43601062943E+02 -0.12155354803E+02  0.41921887156E+02  0.62499999836E+02  0.10000000835E+02 0.  0.
    3000022    2    5    5    0    0 -0.41999408711E+02 -0.10694624904E+02  0.36827501662E+02  0.56874007330E+02  0.24999449787E+00 0.  0.
        -13    1    4    4    0    0  0.13921957521E+02  0.27330632617E+01 -0.87602759371E+01  0.16674651286E+02  0.10500000000E+00 0. -1.
         13    1    4    4    0    0  0.60125668221E+01  0.11223586563E+01 -0.38165956328E+01  0.72102757207E+01  0.10500000000E+00 0.  1.
    3000001    1    5    5    0    0 -0.16016542319E+01 -0.14607298995E+01  0.50943854938E+01  0.56259925059E+01  0.10000000000E+01 0.  1.
        -13    1    6    6    0    0 -0.27785659731E+02 -0.70483034737E+01  0.24420983957E+02  0.37657893608E+02  0.10500000000E+00 0. -1.
         13    1    6    6    0    0 -0.14213748980E+02 -0.36463214300E+01  0.12406517705E+02  0.19216113722E+02  0.10500000000E+00 0.  1.
</event>
<event>
11    0  0.3448258E-009  0.9118800E+02  0.7816531E-02  0.1126479E+00
         25   -1    0    0    0    0  0.00000000000E+00  0.00000000000E+00  0.99999998245E-14  0.12500000000E+03  0.12500000000E+03 0.  0.
    3000001    1    3    3    0    0  0.46609018847E+01  0.42461107235E+02 -0.25794268452E+01  0.42805643049E+02  0.10000000000E+01 0.  1.
    1000022    2    1    0    0    0  0.91753025658E-01  0.61582599457E+02 -0.37181323800E+01  0.62500001062E+02  0.10000032493E+02 0.  0.
    3000022    2    3    3    0    0 -0.45691488590E+01  0.19121492222E+02 -0.11387055348E+01  0.19694358013E+02  0.25000230330E+00 0.  0.
    1000022    2    1    0    0    0 -0.91753025658E-01 -0.61582599457E+02  0.37181323800E+01  0.62499998938E+02  0.10000019221E+02 0.  0.
    3000022    2    5    5    0    0  0.41121242092E+01 -0.46689099942E+02  0.22839673213E+01  0.46926118849E+02  0.25000932521E+00 0.  0.
        -13    1    4    4    0    0 -0.14239358972E+01  0.60385460622E+01 -0.31311377623E+00  0.62129459375E+01  0.10500000000E+00 0.  1.
         13    1    4    4    0    0 -0.31452129618E+01  0.13082946160E+02 -0.82559175862E+00  0.13481412076E+02  0.10500000000E+00 0. -1.
    3000001    1    5    5    0    0 -0.42038772348E+01 -0.14893499515E+02  0.14341650588E+01  0.15573880089E+02  0.10000000000E+01 0. -1.
        -13    1    6    6    0    0  0.26302998950E+01 -0.29464967999E+02  0.13935378405E+01  0.29615127713E+02  0.10500000000E+00 0. -1.
         13    1    6    6    0    0  0.14818243142E+01 -0.17224131943E+02  0.89042948078E+00  0.17310991137E+02  0.10500000000E+00 0.  1.
</event>
<event>
11    0  0.3448258E-009  0.9118800E+02  0.7816531E-02  0.1126479E+00
         25   -1    0    0    0    0  0.00000000000E+00  0.00000000000E+00  0.99999998245E-14  0.12500000000E+03  0.12500000000E+03 0.  0.
    3000001    1    3    3    0    0 -0.15836894348E+02 -0.34095448521E+01  0.19776456948E+02  0.25583988510E+02  0.10000000000E+01 0.  1.
    1000022    2    1    0    0    0 -0.42348932463E+02  0.23890936237E+01  0.44800780477E+02  0.62499996799E+02  0.99999909685E+01 0.  0.
    3000022    2    3    3    0    0 -0.26512038116E+02  0.57986384758E+01  0.25024323529E+02  0.36916008288E+02  0.25005329628E+00 0.  0.
    1000022    2    1    0    0    0  0.42348932463E+02 -0.23890936237E+01 -0.44800780477E+02  0.62500003201E+02  0.10000030986E+02 0.  0.
    3000022    2    5    5    0    0  0.21913831690E+01 -0.19172432728E+01 -0.58760853566E+01  0.65626874070E+01  0.25000984666E+00 0.  0.
        -13    1    4    4    0    0 -0.15708261150E+02  0.33904923429E+01  0.14880452611E+02  0.21901684903E+02  0.10500000000E+00 0. -1.
         13    1    4    4    0    0 -0.10803776966E+02  0.24081461330E+01  0.10143870918E+02  0.15014323385E+02  0.10500000000E+00 0.  1.
    3000001    1    5    5    0    0  0.40157549294E+02 -0.47185035089E+00 -0.38924695120E+02  0.55937315794E+02  0.10000000000E+01 0.  1.
        -13    1    6    6    0    0  0.15982638792E+01 -0.14395792058E+01 -0.43529795367E+01  0.48565719972E+01  0.10500000000E+00 0. -1.
         13    1    6    6    0    0  0.59311928981E+00 -0.47766406702E+00 -0.15231058198E+01  0.17061154097E+01  0.10500000000E+00 0.  1.
</event>
<event>
11    0  0.3448258E-009  0.9118800E+02  0.7816531E-02  0.1126479E+00
         25   -1    0    0    0    0  0.00000000000E+00  0.00000000000E+00  0.99999998245E-14  0.12500000000E+03  0.12500000000E+03 0.  0.
    3000001    1    3    3    0    0  0.13231366847E+01 -0.37609707802E+01  0.32182190163E+01  0.52203951510E+01  0.10000000000E+01 0.  1.
    1000022    2    1    0    0    0 -0.11463696404E+01 -0.59347772747E+02  0.16815998217E+02  0.62499999851E+02  0.99999945983E+01 0.  0.
    3000022    2    3    3    0    0 -0.24695063251E+01 -0.55586801967E+02  0.13597779200E+02  0.57279604700E+02  0.25000203268E+00 0.  0.
    1000022    2    1    0    0    0  0.11463696404E+01  0.59347772747E+02 -0.16815998217E+02  0.62500000149E+02  0.99999964607E+01 0.  0.
    3000022    2    5    5    0    0  0.37973928174E+01  0.10892254643E+02 -0.47996606000E+01  0.12496424994E+02  0.24998464922E+00 0.  0.
        -13    1    4    4    0    0 -0.12301047546E+01 -0.27264000324E+02  0.66025684891E+01  0.28079241567E+02  0.10500000000E+00 0.  1.
         13    1    4    4    0    0 -0.12394015705E+01 -0.28322801643E+02  0.69952107113E+01  0.29200363133E+02  0.10500000000E+00 0. -1.
    3000001    1    5    5    0    0 -0.26510231771E+01  0.48455518104E+02 -0.12016337617E+02  0.50003575155E+02  0.10000000000E+01 0. -1.
        -13    1    6    6    0    0  0.11917840927E+01  0.33602656246E+01 -0.14360263565E+01  0.38451178250E+01  0.10500000000E+00 0. -1.
         13    1    6    6    0    0  0.26056087247E+01  0.75319890186E+01 -0.33636342435E+01  0.86513071687E+01  0.10500000000E+00 0.  1.
</event>
<event>
11    0  0.3448258E-009  0.9118800E+02  0.7816531E-02  0.1126479E+00
         25   -1    0    0    0    0  0.00000000000E+00  0.00000000000E+00  0.99999998245E-14  0.12500000000E+03  0.12500000000E+03 0.  0.
    3000001    1    3    3    0    0 -0.42435277040E+02 -0.20917479231E+02  0.21638611040E+01  0.47370623488E+02  0.10000000000E+01 0.  1.
    1000022    2    1    0    0    0 -0.53189513433E+02 -0.30525491981E+02  0.67320126527E+01  0.62499999547E+02  0.99999974536E+01 0.  0.
    3000022    2    3    3    0    0 -0.10754236393E+02 -0.96080127502E+01  0.45681515487E+01  0.15129376059E+02  0.25000386688E+00 0.  0.
    1000022    2    1    0    0    0  0.53189513433E+02  0.30525491981E+02 -0.67320126527E+01  0.62500000453E+02  0.10000003116E+02 0.  0.
    3000022    2    5    5    0    0  0.20302754646E+02  0.62613561807E+01 -0.18510503602E+01  0.21328274930E+02  0.24999319361E+00 0.  0.
        -13    1    4    4    0    0 -0.39955292869E+01 -0.36072407552E+01  0.17609359219E+01  0.56646589014E+01  0.10500000000E+00 0.  1.
         13    1    4    4    0    0 -0.67587071066E+01 -0.60007719950E+01  0.28072156268E+01  0.94647171571E+01  0.10500000000E+00 0. -1.
    3000001    1    5    5    0    0  0.32886758787E+02  0.24264135801E+02 -0.48809622924E+01  0.41171725523E+02  0.10000000000E+01 0.  1.
        -13    1    6    6    0    0  0.13211336747E+02  0.41325164460E+01 -0.11971637139E+01  0.13894651373E+02  0.10500000000E+00 0.  1.
         13    1    6    6    0    0  0.70914178990E+01  0.21288397347E+01 -0.65388664631E+00  0.74336235566E+01  0.10500000000E+00 0. -1.
</event>
<event>
11    0  0.3448258E-009  0.9118800E+02  0.7816531E-02  0.1126479E+00
         25   -1    0    0    0    0  0.00000000000E+00  0.00000000000E+00  0.99999998245E-14  0.12500000000E+03  0.12500000000E+03 0.  0.
    3000001    1    3    3    0    0  0.12296850106E+02  0.11164082076E+02  0.31232114606E-01  0.16638816862E+02  0.10000000000E+01 0.  1.
    1000022    2    1    0    0    0  0.38329645868E+02  0.46447364879E+02 -0.13406368405E+02  0.62499999939E+02  0.99999911008E+01 0.  0.
    3000022    2    3    3    0    0  0.26032795762E+02  0.35283282803E+02 -0.13437600519E+02  0.45861183077E+02  0.25000990891E+00 0.  0.
    1000022    2    1    0    0    0 -0.38329645868E+02 -0.46447364879E+02  0.13406368405E+02  0.62500000061E+02  0.99999918620E+01 0.  0.
    3000022    2    5    5    0    0 -0.16260310561E+02 -0.17620591702E+02  0.10143077399E+02  0.26035119958E+02  0.25000133392E+00 0.  0.
        -13    1    4    4    0    0  0.10997381186E+02  0.14799539662E+02 -0.56678527718E+01  0.19290006407E+02  0.10500000000E+00 0.  1.
         13    1    4    4    0    0  0.15035414576E+02  0.20483743141E+02 -0.77697477476E+01  0.26571176669E+02  0.10500000000E+00 0. -1.
    3000001    1    5    5    0    0 -0.22069335308E+02 -0.28826773177E+02  0.32632910058E+01  0.36464880103E+02  0.10000000000E+01 0.  1.
        -13    1    6    6    0    0 -0.60422861324E+01 -0.65830624803E+01  0.37206441080E+01  0.96798838269E+01  0.10500000000E+00 0. -1.
         13    1    6    6    0    0 -0.10218024428E+02 -0.11037529222E+02  0.64224332909E+01  0.16355236131E+02  0.10500000000E+00 0.  1.
</event>
<event>
11    0  0.3448258E-009  0.9118800E+02  0.7816531E-02  0.1126479E+00
         25   -1    0    0    0    0  0.00000000000E+00  0.00000000000E+00  0.99999998245E-14  0.12500000000E+03  0.12500000000E+03 0.  0.
    3000001    1    3    3    0    0 -0.90678695789E+01  0.10149506705E+02 -0.30736645389E+01  0.13988786893E+02  0.10000000000E+01 0.  1.
    1000022    2    1    0    0    0 -0.38335331173E+02  0.37792029467E+02 -0.30139914084E+02  0.62499999366E+02  0.10000019618E+02 0.  0.
    3000022    2    3    3    0    0 -0.29267461594E+02  0.27642522762E+02 -0.27066249545E+02  0.48511212473E+02  0.24999657825E+00 0.  0.
    1000022    2    1    0    0    0  0.38335331173E+02 -0.37792029467E+02  0.30139914084E+02  0.62500000634E+02  0.10000027546E+02 0.  0.
    3000022    2    5    5    0    0  0.31959046471E+02 -0.35750981179E+02  0.27073501695E+02  0.55068596348E+02  0.25000643553E+00 0.  0.
        -13    1    4    4    0    0 -0.14661552129E+02  0.13915848910E+02 -0.13646038019E+02  0.24389287409E+02  0.10500000000E+00 0. -1.
         13    1    4    4    0    0 -0.14605909465E+02  0.13726673853E+02 -0.13420211526E+02  0.24121925064E+02  0.10500000000E+00 0.  1.
    3000001    1    5    5    0    0  0.63762847022E+01 -0.20410482883E+01  0.30664123893E+01  0.74314042859E+01  0.10000000000E+01 0.  1.
        -13    1    6    6    0    0  0.24428234697E+02 -0.27306342001E+02  0.20676268083E+02  0.42070108756E+02  0.10500000000E+00 0. -1.
         13    1    6    6    0    0  0.75308117741E+01 -0.84446391774E+01  0.63972336121E+01  0.12998487593E+02  0.10500000000E+00 0.  1.
</event>
<event>
11    0  0.3448258E-009  0.9118800E+02  0.7816531E-02  0.1126479E+00
         25   -1    0    0    0    0  0.00000000000E+00  0.00000000000E+00  0.99999998245E-14  0.12500000000E+03  0.12500000000E+03 0.  0.
    3000001    1    3    3    0    0  0.33053714800E+02 -0.35313392640E+02 -0.10639264573E+02  0.49535620643E+02  0.10000000000E+01 0.  1.
    1000022    2    1    0    0    0  0.44378636645E+02 -0.41608218191E+02 -0.10273382080E+02  0.62499997223E+02  0.10000003104E+02 0.  0.
    3000022    2    3    3    0    0  0.11324921845E+02 -0.62948255506E+01  0.36588249257E+00  0.12964376580E+02  0.25001321967E+00 0.  0.
    1000022    2    1    0    0    0 -0.44378636645E+02  0.41608218191E+02  0.10273382080E+02  0.62500002777E+02  0.10000037816E+02 0.  0.
    3000022    2    5    5    0    0 -0.52066727848E+01  0.97539100747E+01  0.54693355389E+00  0.11072933065E+02  0.25001425182E+00 0.  0.
        -13    1    4    4    0    0  0.76337151967E+01 -0.42922537512E+01  0.21857396935E+00  0.87610415790E+01  0.10500000000E+00 0.  1.
         13    1    4    4    0    0  0.36912066484E+01 -0.20025717994E+01  0.14730852322E+00  0.42033350014E+01  0.10500000000E+00 0. -1.
    3000001    1    5    5    0    0 -0.39171963860E+02  0.31854308116E+02  0.97264485265E+01  0.51427069712E+02  0.10000000000E+01 0.  1.
        -13    1    6    6    0    0 -0.38887304796E+01  0.72204194392E+01  0.41090092802E+00  0.82119757789E+01  0.10500000000E+00 0.  1.
         13    1    6    6    0    0 -0.13179423052E+01  0.25334906355E+01  0.13603262587E+00  0.28609572866E+01  0.10500000000E+00 0.  1.
</event>
<event>
11    0  0.3448258E-009  0.9118800E+02  0.7816531E-02  0.1126479E+00
         25   -1    0    0    0    0  0.00000000000E+00  0.00000000000E+00  0.99999998245E-14  0.12500000000E+03  0.12500000000E+03 0.  0.
    3000001    1    3    3    0    0  0.23992844668E+02 -0.13503249891E+02  0.13628930008E+01  0.27583542742E+02  0.10000000000E+01 0. -1.
    1000022    2    1    0    0    0  0.48476019350E+02 -0.38068849703E+02 -0.26622934724E+01  0.62500002248E+02  0.10000035235E+02 0.  0.
    3000022    2    3    3    0    0  0.24483174682E+02 -0.24565599812E+02 -0.40251864732E+01  0.34916459505E+02  0.24996324282E+00 0.  0.
    1000022    2    1    0    0    0 -0.48476019350E+02  0.38068849703E+02  0.26622934724E+01  0.62499997752E+02  0.10000007139E+02 0.  0.
    3000022    2    5    5    0    0 -0.95572547632E+01  0.73405175856E+01 -0.34244661549E+01  0.12530514321E+02  0.25000732007E+00 0.  0.
        -13    1    4    4    0    0  0.16859217882E+02 -0.16888741880E+02 -0.28146885326E+01  0.24029072526E+02  0.10500000000E+00 0.  1.
         13    1    4    4    0    0  0.76239567995E+01 -0.76768579318E+01 -0.12104979406E+01  0.10887386980E+02  0.10500000000E+00 0. -1.
    3000001    1    5    5    0    0 -0.38918764587E+02  0.30728332117E+02  0.60867596273E+01  0.49969483432E+02  0.10000000000E+01 0. -1.
        -13    1    6    6    0    0 -0.64991109572E+01  0.49377295056E+01 -0.22895884590E+01  0.84777860445E+01  0.10500000000E+00 0.  1.
         13    1    6    6    0    0 -0.30581438060E+01  0.24027880800E+01 -0.11348776959E+01  0.40527282761E+01  0.10500000000E+00 0. -1.
</event>
<event>
11    0  0.3448258E-009  0.9118800E+02  0.7816531E-02  0.1126479E+00
         25   -1    0    0    0    0  0.00000000000E+00  0.00000000000E+00  0.99999998245E-14  0.12500000000E+03  0.12500000000E+03 0.  0.
    3000001    1    3    3    0    0  0.18488116977E+02  0.32776489021E+02  0.12016236461E+02  0.39515802417E+02  0.10000000000E+01 0.  1.
    1000022    2    1    0    0    0  0.29626296846E+02  0.52874057747E+02  0.11526781695E+02  0.62500001027E+02  0.99999992336E+01 0.  0.
    3000022    2    3    3    0    0  0.11138179868E+02  0.20097568726E+02 -0.48945476599E+00  0.22984198610E+02  0.25000064363E+00 0.  0.
    1000022    2    1    0    0    0 -0.29626296846E+02 -0.52874057747E+02 -0.11526781695E+02  0.62499998973E+02  0.99999863983E+01 0.  0.
    3000022    2    5    5    0    0 -0.52985442500E+01 -0.17093292196E+02 -0.82129589786E+00  0.17916255793E+02  0.24997086012E+00 0.  0.
        -13    1    4    4    0    0  0.37522700800E+01  0.66798835789E+01 -0.19379514533E+00  0.76647868163E+01  0.10500000000E+00 0.  1.
         13    1    4    4    0    0  0.73859097885E+01  0.13417685147E+02 -0.29565962066E+00  0.15319411794E+02  0.10500000000E+00 0. -1.
    3000001    1    5    5    0    0 -0.24327752596E+02 -0.35780765551E+02 -0.10705485797E+02  0.44583743180E+02  0.10000000000E+01 0. -1.
        -13    1    6    6    0    0 -0.22917621072E+01 -0.73825592696E+01 -0.28915207588E+00  0.77362128233E+01  0.10500000000E+00 0. -1.
         13    1    6    6    0    0 -0.30067821429E+01 -0.97107329260E+01 -0.53214382198E+00  0.10180042970E+02  0.10500000000E+00 0.  1.
</event>
<event>
11    0  0.3448258E-009  0.9118800E+02  0.7816531E-02  0.1126479E+00
         25   -1    0    0    0    0  0.00000000000E+00  0.00000000000E+00  0.99999998245E-14  0.12500000000E+03  0.12500000000E+03 0.  0.
    3000001    1    3    3    0    0 -0.20272955959E+02  0.20218021829E+02 -0.83063415037E+01  0.29828785747E+02  0.10000000000E+01 0.  1.
    1000022    2    1    0    0    0 -0.35418785480E+02  0.48729195580E+02 -0.13312604285E+02  0.62500001983E+02  0.99999974171E+01 0.  0.
    3000022    2    3    3    0    0 -0.15145829521E+02  0.28511173750E+02 -0.50062627817E+01  0.32671216236E+02  0.25004555615E+00 0.  0.
    1000022    2    1    0    0    0  0.35418785480E+02 -0.48729195580E+02  0.13312604285E+02  0.62499998017E+02  0.99999726284E+01 0.  0.
    3000022    2    5    5    0    0  0.23823771041E+02 -0.35898933264E+02  0.13582065845E+02  0.45175662519E+02  0.24999055512E+00 0.  0.
        -13    1    4    4    0    0 -0.78688176860E+01  0.14832392119E+02 -0.25358006870E+01  0.16981150075E+02  0.10500000000E+00 0.  1.
         13    1    4    4    0    0 -0.72770118351E+01  0.13678781631E+02 -0.24704620946E+01  0.15690066161E+02  0.10500000000E+00 0. -1.
    3000001    1    5    5    0    0  0.11595014438E+02 -0.12830262316E+02 -0.26946156010E+00  0.17324335498E+02  0.10000000000E+01 0.  1.
        -13    1    6    6    0    0  0.16251401450E+02 -0.24502235954E+02  0.92165248797E+01  0.30812707958E+02  0.10500000000E+00 0.  1.
         13    1    6    6    0    0  0.75723695916E+01 -0.11396697310E+02  0.43655409657E+01  0.14362954561E+02  0.10500000000E+00 0. -1.
</event>
<event>
11    0  0.3448258E-009  0.9118800E+02  0.7816531E-02  0.1126479E+00
         25   -1    0    0    0    0  0.00000000000E+00  0.00000000000E+00  0.99999998245E-14  0.12500000000E+03  0.12500000000E+03 0.  0.
    3000001    1    3    3    0    0  0.17048580373E+02 -0.49501369391E+02 -0.12216976322E+02  0.53770755758E+02  0.10000000000E+01 0. -1.
    1000022    2    1    0    0    0  0.16655374728E+02 -0.57039144534E+02 -0.16594708083E+02  0.62499999493E+02  0.10000004188E+02 0.  0.
    3000022    2    3    3    0    0 -0.39320564551E+00 -0.75377751434E+01 -0.43777317603E+01  0.87292437353E+01  0.24999206367E+00 0.  0.
    1000022    2    1    0    0    0 -0.16655374728E+02  0.57039144534E+02  0.16594708083E+02  0.62500000507E+02  0.10000010524E+02 0.  0.
    3000022    2    5    5    0    0  0.88539210906E+00  0.57043299742E+01  0.59790605904E-01  0.57783539942E+01  0.25000064986E+00 0.  0.
        -13    1    4    4    0    0 -0.10284250295E+00 -0.21152116855E+01 -0.12745964038E+01  0.24739276560E+01  0.10500000000E+00 0.  1.
         13    1    4    4    0    0 -0.29036314256E+00 -0.54225634580E+01 -0.31031353565E+01  0.62553160793E+01  0.10500000000E+00 0. -1.
    3000001    1    5    5    0    0 -0.17540766837E+02  0.51334814560E+02  0.16534917477E+02  0.56721646513E+02  0.10000000000E+01 0. -1.
        -13    1    6    6    0    0  0.36657593619E+00  0.27760543569E+01  0.55889216546E-02  0.28021263258E+01  0.10500000000E+00 0.  1.
         13    1    6    6    0    0  0.51881617287E+00  0.29282756172E+01  0.54201684250E-01  0.29762276684E+01  0.10500000000E+00 0. -1.
</event>
<event>
11    0  0.3448258E-009  0.9118800E+02  0.7816531E-02  0.1126479E+00
         25   -1    0    0    0    0  0.00000000000E+00  0.00000000000E+00  0.99999998245E-14  0.12500000000E+03  0.12500000000E+03 0.  0.
    3000001    1    3    3    0    0 -0.33461513847E+01 -0.27342644147E+01  0.20317700957E+02  0.20796199248E+02  0.10000000000E+01 0. -1.
    1000022    2    1    0    0    0 -0.23240941159E+02 -0.68982906542E+01  0.56732020476E+02  0.62499999335E+02  0.10000000484E+02 0.  0.
    3000022    2    3    3    0    0 -0.19894789774E+02 -0.41640262395E+01  0.36414319518E+02  0.41703800087E+02  0.25000197427E+00 0.  0.
    1000022    2    1    0    0    0  0.23240941159E+02  0.68982906542E+01 -0.56732020476E+02  0.62500000665E+02  0.10000008800E+02 0.  0.
    3000022    2    5    5    0    0  0.80318053891E+01  0.30756852018E+01 -0.32493561620E+02  0.33613446509E+02  0.25000443296E+00 0.  0.
        -13    1    4    4    0    0 -0.81716164014E+01 -0.17391554915E+01  0.14849904953E+02  0.17039092656E+02  0.10500000000E+00 0.  1.
         13    1    4    4    0    0 -0.11723173373E+02 -0.24248707480E+01  0.21564414565E+02  0.24664707430E+02  0.10500000000E+00 0. -1.
    3000001    1    5    5    0    0  0.15209135770E+02  0.38226054524E+01 -0.24238458856E+02  0.28886554156E+02  0.10000000000E+01 0. -1.
        -13    1    6    6    0    0  0.59178920098E+01  0.23008954647E+01 -0.23990676398E+02  0.24816912476E+02  0.10500000000E+00 0. -1.
         13    1    6    6    0    0  0.21139133793E+01  0.77478973711E+00 -0.85028852210E+01  0.87965340330E+01  0.10500000000E+00 0.  1.
</event>
<event>
11    0  0.3448258E-009  0.9118800E+02  0.7816531E-02  0.1126479E+00
         25   -1    0    0    0    0  0.00000000000E+00  0.00000000000E+00  0.99999998245E-14  0.12500000000E+03  0.12500000000E+03 0.  0.
    3000001    1    3    3    0    0 -0.19458337758E+02 -0.26465824491E+02  0.13257423279E+02  0.35437636014E+02  0.10000000000E+01 0. -1.
    1000022    2    1    0    0    0 -0.32814219239E+02 -0.42283341227E+02  0.30685437162E+02  0.62500000534E+02  0.10000004168E+02 0.  0.
    3000022    2    3    3    0    0 -0.13355881480E+02 -0.15817516736E+02  0.17428013883E+02  0.27062364520E+02  0.24999933256E+00 0.  0.
    1000022    2    1    0    0    0  0.32814219239E+02  0.42283341227E+02 -0.30685437162E+02  0.62499999466E+02  0.99999974924E+01 0.  0.
    3000022    2    5    5    0    0  0.72158435769E+01  0.15575396166E+02 -0.68688552402E+01  0.18490673860E+02  0.24996640668E+00 0.  0.
        -13    1    4    4    0    0 -0.42139709677E+01 -0.50616148351E+01  0.55722206634E+01  0.86277554542E+01  0.10500000000E+00 0.  1.
         13    1    4    4    0    0 -0.91419105128E+01 -0.10755901901E+02  0.11855793219E+02  0.18434609066E+02  0.10500000000E+00 0. -1.
    3000001    1    5    5    0    0  0.25598375662E+02  0.26707945061E+02 -0.23816581922E+02  0.44009325606E+02  0.10000000000E+01 0. -1.
        -13    1    6    6    0    0  0.43623834288E+01  0.92658080494E+01 -0.40935665172E+01  0.11029682671E+02  0.10500000000E+00 0.  1.
         13    1    6    6    0    0  0.28534601480E+01  0.63095881170E+01 -0.27752887231E+01  0.74609911887E+01  0.10500000000E+00 0. -1.
</event>
<event>
11    0  0.3448258E-009  0.9118800E+02  0.7816531E-02  0.1126479E+00
         25   -1    0    0    0    0  0.00000000000E+00  0.00000000000E+00  0.99999998245E-14  0.12500000000E+03  0.12500000000E+03 0.  0.
    3000001    1    3    3    0    0 -0.49714364916E-01  0.12114542551E+01  0.55837414654E+00  0.16678952658E+01  0.10000000000E+01 0. -1.
    1000022    2    1    0    0    0  0.98572303704E+01  0.55916514920E+02 -0.24133550861E+02  0.62499999190E+02  0.99999995115E+01 0.  0.
    3000022    2    3    3    0    0  0.99069447353E+01  0.54705060665E+02 -0.24691925007E+02  0.60832103924E+02  0.24998187520E+00 0.  0.
    1000022    2    1    0    0    0 -0.98572303704E+01 -0.55916514920E+02  0.24133550861E+02  0.62500000810E+02  0.10000009633E+02 0.  0.
    3000022    2    5    5    0    0 -0.11056357967E+02 -0.53965554995E+02  0.22445027473E+02  0.59484165460E+02  0.25000963933E+00 0.  0.
        -13    1    4    4    0    0  0.33760951207E+01  0.18436640304E+02 -0.82809703960E+01  0.20491296193E+02  0.10500000000E+00 0.  1.
         13    1    4    4    0    0  0.65308496146E+01  0.36268420361E+02 -0.16410954611E+02  0.40340807731E+02  0.10500000000E+00 0. -1.
    3000001    1    5    5    0    0  0.11991275970E+01 -0.19509599253E+01  0.16885233882E+01  0.30158353497E+01  0.10000000000E+01 0. -1.
        -13    1    6    6    0    0 -0.31441603568E+01 -0.15219159406E+02  0.63659094787E+01  0.16794177141E+02  0.10500000000E+00 0. -1.
         13    1    6    6    0    0 -0.79121976106E+01 -0.38746395589E+02  0.16079117994E+02  0.42689988319E+02  0.10500000000E+00 0.  1.
</event>
<event>
11    0  0.3448258E-009  0.9118800E+02  0.7816531E-02  0.1126479E+00
         25   -1    0    0    0    0  0.00000000000E+00  0.00000000000E+00  0.99999998245E-14  0.12500000000E+03  0.12500000000E+03 0.  0.
    3000001    1    3    3    0    0 -0.38559299710E+02  0.12827847265E+02 -0.33876123493E+02  0.52914695525E+02  0.10000000000E+01 0.  1.
    1000022    2    1    0    0    0 -0.43673383702E+02  0.18865256065E+02 -0.39280879526E+02  0.62499999184E+02  0.10000003568E+02 0.  0.
    3000022    2    3    3    0    0 -0.51140839917E+01  0.60374087992E+01 -0.54047560337E+01  0.95853036598E+01  0.24999676536E+00 0.  0.
    1000022    2    1    0    0    0  0.43673383702E+02 -0.18865256065E+02  0.39280879526E+02  0.62500000816E+02  0.10000013762E+02 0.  0.
    3000022    2    5    5    0    0  0.26378105322E+02 -0.81836714623E+01  0.17535029632E+02  0.32715694688E+02  0.24999151743E+00 0.  0.
        -13    1    4    4    0    0 -0.36791063907E+01  0.43538711924E+01 -0.39397178700E+01  0.69299653743E+01  0.10500000000E+00 0. -1.
         13    1    4    4    0    0 -0.14349776011E+01  0.16835376068E+01 -0.14650381637E+01  0.26553382855E+01  0.10500000000E+00 0.  1.
    3000001    1    5    5    0    0  0.17295278379E+02 -0.10681584602E+02  0.21745849895E+02  0.29784306127E+02  0.10000000000E+01 0.  1.
        -13    1    6    6    0    0  0.15667460818E+02 -0.48191974093E+01  0.10348143428E+02  0.19385280229E+02  0.10500000000E+00 0. -1.
         13    1    6    6    0    0  0.10710644504E+02 -0.33644740530E+01  0.71868862032E+01  0.13330414459E+02  0.10500000000E+00 0.  1.
</event>
<event>
11    0  0.3448258E-009  0.9118800E+02  0.7816531E-02  0.1126479E+00
         25   -1    0    0    0    0  0.00000000000E+00  0.00000000000E+00  0.99999998245E-14  0.12500000000E+03  0.12500000000E+03 0.  0.
    3000001    1    3    3    0    0 -0.21021660426E+02  0.31799667115E+02  0.39056350144E+02  0.54585048523E+02  0.10000000000E+01 0.  1.
    1000022    2    1    0    0    0 -0.21225076537E+02  0.34622602128E+02  0.46443746286E+02  0.62500000338E+02  0.10000001056E+02 0.  0.
    3000022    2    3    3    0    0 -0.20341611124E+00  0.28229350126E+01  0.73873961420E+01  0.79149518152E+01  0.25000055879E+00 0.  0.
    1000022    2    1    0    0    0  0.21225076537E+02 -0.34622602128E+02 -0.46443746286E+02  0.62499999662E+02  0.99999968273E+01 0.  0.
    3000022    2    5    5    0    0  0.17036414476E+01 -0.17817239257E+01 -0.76572746871E+01  0.80481852923E+01  0.24999307295E+00 0.  0.
        -13    1    4    4    0    0 -0.47911769014E-01  0.15847247705E+01  0.41230661864E+01  0.44186364314E+01  0.10500000000E+00 0.  1.
         13    1    4    4    0    0 -0.15550434223E+00  0.12382102421E+01  0.32643299556E+01  0.34963153838E+01  0.10500000000E+00 0. -1.
    3000001    1    5    5    0    0  0.19521435090E+02 -0.32840878202E+02 -0.38786471599E+02  0.54451814369E+02  0.10000000000E+01 0.  1.
        -13    1    6    6    0    0  0.98194618895E+00 -0.10996699694E+01 -0.44440615536E+01  0.46833962519E+01  0.10500000000E+00 0.  1.
         13    1    6    6    0    0  0.72169525860E+00 -0.68205395630E+00 -0.32132131334E+01  0.33647890404E+01  0.10500000000E+00 0. -1.
</event>
<event>
11    0  0.3448258E-009  0.9118800E+02  0.7816531E-02  0.1126479E+00
         25   -1    0    0    0    0  0.00000000000E+00  0.00000000000E+00  0.99999998245E-14  0.12500000000E+03  0.12500000000E+03 0.  0.
    3000001    1    3    3    0    0 -0.10280381231E+01 -0.39824957603E+01  0.15739338560E+02  0.16298586232E+02  0.10000000000E+01 0. -1.
    1000022    2    1    0    0    0 -0.22962045778E+01  0.10988950207E+01  0.61642275146E+02  0.62500002502E+02  0.10000005088E+02 0.  0.
    3000022    2    3    3    0    0 -0.12681664547E+01  0.50813907809E+01  0.45902936586E+02  0.46201416269E+02  0.24999926420E+00 0.  0.
    1000022    2    1    0    0    0  0.22962045778E+01 -0.10988950207E+01 -0.61642275146E+02  0.62499997498E+02  0.99999738167E+01 0.  0.
    3000022    2    5    5    0    0  0.18706441386E+01 -0.53716035957E+01 -0.40898155420E+02  0.41292554383E+02  0.24999210530E+00 0.  0.
        -13    1    4    4    0    0 -0.95100442970E+00  0.37842691415E+01  0.33922087612E+02  0.34145924432E+02  0.10500000000E+00 0.  1.
         13    1    4    4    0    0 -0.31716202501E+00  0.12971216394E+01  0.11980848974E+02  0.12055491838E+02  0.10500000000E+00 0. -1.
    3000001    1    5    5    0    0  0.42556043917E+00  0.42727085751E+01 -0.20744119727E+02  0.21207443115E+02  0.10000000000E+01 0.  1.
        -13    1    6    6    0    0  0.10239232421E+01 -0.29229842373E+01 -0.21782171502E+02  0.22001506221E+02  0.10500000000E+00 0. -1.
         13    1    6    6    0    0  0.84672089652E+00 -0.24486193584E+01 -0.19115983918E+02  0.19291048162E+02  0.10500000000E+00 0.  1.
</event>
<event>
11    0  0.3448258E-009  0.9118800E+02  0.7816531E-02  0.1126479E+00
         25   -1    0    0    0    0  0.00000000000E+00  0.00000000000E+00  0.99999998245E-14  0.12500000000E+03  0.12500000000E+03 0.  0.
    3000001    1    3    3    0    0  0.13490621266E+02  0.45897518627E+02  0.31451285952E+02  0.57260479096E+02  0.10000000000E+01 0. -1.
    1000022    2    1    0    0    0  0.16086885542E+02  0.47749819833E+02  0.35600797099E+02  0.62499997741E+02  0.99999891519E+01 0.  0.
    3000022    2    3    3    0    0  0.25962642758E+01  0.18523012063E+01  0.41495111469E+01  0.52395186453E+01  0.25000985718E+00 0.  0.
    1000022    2    1    0    0    0 -0.16086885542E+02 -0.47749819833E+02 -0.35600797099E+02  0.62500002259E+02  0.10000017391E+02 0.  0.
    3000022    2    5    5    0    0 -0.13524373371E+02 -0.27489952858E+02 -0.18084164183E+02  0.35576757522E+02  0.24999676751E+00 0.  0.
        -13    1    4    4    0    0  0.12092772907E+01  0.79524338814E+00  0.19451889583E+01  0.24268392397E+01  0.10500000000E+00 0.  1.
         13    1    4    4    0    0  0.13869869850E+01  0.10570578181E+01  0.22043221886E+01  0.28126794056E+01  0.10500000000E+00 0. -1.
    3000001    1    5    5    0    0 -0.25625121712E+01 -0.20259866975E+02 -0.17516632915E+02  0.26923244737E+02  0.10000000000E+01 0.  1.
        -13    1    6    6    0    0 -0.56423534832E+01 -0.11557534577E+02 -0.76517169035E+01  0.14965712643E+02  0.10500000000E+00 0.  1.
         13    1    6    6    0    0 -0.78820198876E+01 -0.15932418281E+02 -0.10432447280E+02  0.20611044879E+02  0.10500000000E+00 0. -1.
</event>
<event>
11    0  0.3448258E-009  0.9118800E+02  0.7816531E-02  0.1126479E+00
         25   -1    0    0    0    0  0.00000000000E+00  0.00000000000E+00  0.99999998245E-14  0.12500000000E+03  0.12500000000E+03 0.  0.
    3000001    1    3    3    0    0  0.21967708166E+02  0.21195229286E+02  0.58471073301E+01  0.31096729904E+02  0.10000000000E+01 0.  1.
    1000022    2    1    0    0    0  0.42313798883E+02  0.44841530210E+02  0.22426767783E+01  0.62499999991E+02  0.99999996086E+01 0.  0.
    3000022    2    3    3    0    0  0.20346090717E+02  0.23646300924E+02 -0.36044305517E+01  0.31403270087E+02  0.24999540398E+00 0.  0.
    1000022    2    1    0    0    0 -0.42313798883E+02 -0.44841530210E+02 -0.22426767783E+01  0.62500000009E+02  0.99999997274E+01 0.  0.
    3000022    2    5    5    0    0 -0.24834304234E+02 -0.19393891716E+02  0.23952617550E+00  0.31511673665E+02  0.25000341371E+00 0.  0.
        -13    1    4    4    0    0  0.52897701097E+01  0.61057137118E+01 -0.91870375911E+00  0.81312022076E+01  0.10500000000E+00 0.  1.
         13    1    4    4    0    0  0.15056320608E+02  0.17540587212E+02 -0.26857267926E+01  0.23272067879E+02  0.10500000000E+00 0. -1.
    3000001    1    5    5    0    0 -0.17479494649E+02 -0.25447638494E+02 -0.24822029538E+01  0.30988326344E+02  0.10000000000E+01 0.  1.
        -13    1    6    6    0    0 -0.16383737514E+02 -0.12727330093E+02  0.14276776516E+00  0.20747124954E+02  0.10500000000E+00 0.  1.
         13    1    6    6    0    0 -0.84505667208E+01 -0.66665616226E+01  0.96758410339E-01  0.10764548711E+02  0.10500000000E+00 0. -1.
</event>
<event>
11    0  0.3448258E-009  0.9118800E+02  0.7816531E-02  0.1126479E+00
         25   -1    0    0    0    0  0.00000000000E+00  0.00000000000E+00  0.99999998245E-14  0.12500000000E+03  0.12500000000E+03 0.  0.
    3000001    1    3    3    0    0 -0.26344175825E+02  0.11954718554E+02 -0.13886689530E+02  0.32105623210E+02  0.10000000000E+01 0.  1.
    1000022    2    1    0    0    0 -0.51061462328E+02  0.28831949518E+02 -0.19175396991E+02  0.62499999374E+02  0.99999911919E+01 0.  0.
    3000022    2    3    3    0    0 -0.24717286504E+02  0.16877230964E+02 -0.52887074618E+01  0.30394376164E+02  0.24999736634E+00 0.  0.
    1000022    2    1    0    0    0  0.51061462328E+02 -0.28831949518E+02  0.19175396991E+02  0.62500000626E+02  0.99999990200E+01 0.  0.
    3000022    2    5    5    0    0  0.60665966531E+01 -0.75819043361E+00  0.67477493762E-01  0.61192727684E+01  0.24999663495E+00 0.  0.
        -13    1    4    4    0    0 -0.11339113441E+02  0.77039233524E+01 -0.24822544612E+01  0.13931925239E+02  0.10500000000E+00 0. -1.
         13    1    4    4    0    0 -0.13378173062E+02  0.91733076112E+01 -0.28064530006E+01  0.16462450925E+02  0.10500000000E+00 0.  1.
    3000001    1    5    5    0    0  0.44994865675E+02 -0.28073759084E+02  0.19107919498E+02  0.56380727858E+02  0.10000000000E+01 0. -1.
        -13    1    6    6    0    0  0.36441162348E+01 -0.47165036836E+00  0.10140767334E+00  0.36774101918E+01  0.10500000000E+00 0.  1.
         13    1    6    6    0    0  0.24224804183E+01 -0.28654006526E+00 -0.33930179581E-01  0.24418625766E+01  0.10500000000E+00 0. -1.
</event>
<event>
11    0  0.3448258E-009  0.9118800E+02  0.7816531E-02  0.1126479E+00
         25   -1    0    0    0    0  0.00000000000E+00  0.00000000000E+00  0.99999998245E-14  0.12500000000E+03  0.12500000000E+03 0.  0.
    3000001    1    3    3    0    0  0.47915845981E-01  0.51344258583E+01  0.92778041614E+01  0.10650928358E+02  0.10000000000E+01 0. -1.
    1000022    2    1    0    0    0 -0.18623780944E+02  0.36128568275E+02  0.46412620780E+02  0.62500000014E+02  0.99999985958E+01 0.  0.
    3000022    2    3    3    0    0 -0.18671696790E+02  0.30994142417E+02  0.37134816618E+02  0.51849071657E+02  0.25000246981E+00 0.  0.
    1000022    2    1    0    0    0  0.18623780944E+02 -0.36128568275E+02 -0.46412620780E+02  0.62499999986E+02  0.99999984175E+01 0.  0.
    3000022    2    5    5    0    0  0.15113941880E+01 -0.58267608340E+00 -0.51479413584E+01  0.54025569615E+01  0.24999536637E+00 0.  0.
        -13    1    4    4    0    0 -0.63626772402E+01  0.10567345810E+02  0.12580870157E+02  0.17619358048E+02  0.10500000000E+00 0. -1.
         13    1    4    4    0    0 -0.12309019550E+02  0.20426796607E+02  0.24553946461E+02  0.34229713609E+02  0.10500000000E+00 0.  1.
    3000001    1    5    5    0    0  0.17112386756E+02 -0.35545892191E+02 -0.41264679421E+02  0.57097443024E+02  0.10000000000E+01 0.  1.
        -13    1    6    6    0    0  0.76577541126E+00 -0.26263020632E+00 -0.27709177642E+01  0.28886669697E+01  0.10500000000E+00 0. -1.
         13    1    6    6    0    0  0.74561877674E+00 -0.32004587708E+00 -0.23770235942E+01  0.25138899918E+01  0.10500000000E+00 0.  1.
</event>
<event>
11    0  0.3448258E-009  0.9118800E+02  0.7816531E-02  0.1126479E+00
         25   -1    0    0    0    0  0.00000000000E+00  0.00000000000E+00  0.99999998245E-14  0.12500000000E+03  0.12500000000E+03 0.  0.
    3000001    1    3    3    0    0 -0.18666562764E+02  0.32957115694E+02  0.29905380867E+02  0.48269491868E+02  0.10000000000E+01 0. -1.
    1000022    2    1    0    0    0 -0.21271778105E+02  0.39704621383E+02  0.42158089262E+02  0.62499999286E+02  0.99999958777E+01 0.  0.
    3000022    2    3    3    0    0 -0.26052153409E+01  0.67475056887E+01  0.12252708394E+02  0.14230507418E+02  0.24999676847E+00 0.  0.
    1000022    2    1    0    0    0  0.21271778105E+02 -0.39704621383E+02 -0.42158089262E+02  0.62500000714E+02  0.10000004808E+02 0.  0.
    3000022    2    5    5    0    0  0.61727778842E+01 -0.20076560393E+02 -0.23200678327E+02  0.31297051891E+02  0.25003647202E+00 0.  0.
        -13    1    4    4    0    0 -0.14933890784E+01  0.36938625495E+01  0.67922999050E+01  0.78753536094E+01  0.10500000000E+00 0. -1.
         13    1    4    4    0    0 -0.11118262626E+01  0.30536431393E+01  0.54604084893E+01  0.63551538085E+01  0.10500000000E+00 0.  1.
    3000001    1    5    5    0    0  0.15099000221E+02 -0.19628060990E+02 -0.18957410935E+02  0.31202948823E+02  0.10000000000E+01 0.  1.
        -13    1    6    6    0    0  0.31383715620E+01 -0.10002925615E+02 -0.11626892731E+02  0.15655783484E+02  0.10500000000E+00 0. -1.
         13    1    6    6    0    0  0.30344063222E+01 -0.10073634778E+02 -0.11573785596E+02  0.15641268407E+02  0.10500000000E+00 0.  1.
</event>
<event>
11    0  0.3448258E-009  0.9118800E+02  0.7816531E-02  0.1126479E+00
         25   -1    0    0    0    0  0.00000000000E+00  0.00000000000E+00  0.99999998245E-14  0.12500000000E+03  0.12500000000E+03 0.  0.
    3000001    1    3    3    0    0 -0.66494077050E+01 -0.50840164596E+01 -0.59569065877E+01  0.10322140393E+02  0.10000000000E+01 0.  1.
    1000022    2    1    0    0    0 -0.27567691459E+02 -0.46991233796E+02 -0.28949887206E+02  0.62500000821E+02  0.10000023364E+02 0.  0.
    3000022    2    3    3    0    0 -0.20918283754E+02 -0.41907217337E+02 -0.22992980618E+02  0.52177860428E+02  0.25000205829E+00 0.  0.
    1000022    2    1    0    0    0  0.27567691459E+02  0.46991233796E+02  0.28949887206E+02  0.62499999179E+02  0.10000013103E+02 0.  0.
    3000022    2    5    5    0    0  0.11097481529E+02  0.10334906944E+02  0.87797011867E+01  0.17524555685E+02  0.25000239101E+00 0.  0.
        -13    1    4    4    0    0 -0.10744492192E+02 -0.21578258639E+02 -0.11762713813E+02  0.26822338071E+02  0.10500000000E+00 0.  1.
         13    1    4    4    0    0 -0.10173791562E+02 -0.20328958698E+02 -0.11230266805E+02  0.25355522357E+02  0.10500000000E+00 0. -1.
    3000001    1    5    5    0    0  0.16470209930E+02  0.36656326853E+02  0.20170186019E+02  0.44975443494E+02  0.10000000000E+01 0.  1.
        -13    1    6    6    0    0  0.48684455489E+01  0.45561547310E+01  0.39346201785E+01  0.77429044257E+01  0.10500000000E+00 0. -1.
         13    1    6    6    0    0  0.62290359804E+01  0.57787522127E+01  0.48450810082E+01  0.97816512592E+01  0.10500000000E+00 0.  1.
</event>
<event>
11    0  0.3448258E-009  0.9118800E+02  0.7816531E-02  0.1126479E+00
         25   -1    0    0    0    0  0.00000000000E+00  0.00000000000E+00  0.99999998245E-14  0.12500000000E+03  0.12500000000E+03 0.  0.
    3000001    1    3    3    0    0  0.92746188613E+00 -0.15129889170E+01  0.38436485114E+00  0.20729344785E+01  0.10000000000E+01 0.  1.
    1000022    2    1    0    0    0  0.31876038542E+02 -0.20350641377E+02  0.48744432250E+02  0.62499999375E+02  0.99999904404E+01 0.  0.
    3000022    2    3    3    0    0  0.30948576656E+02 -0.18837652460E+02  0.48360067399E+02  0.60427064896E+02  0.25001170975E+00 0.  0.
    1000022    2    1    0    0    0 -0.31876038542E+02  0.20350641377E+02 -0.48744432250E+02  0.62500000625E+02  0.99999982569E+01 0.  0.
    3000022    2    5    5    0    0 -0.13749900290E+02  0.12780071061E+02 -0.18043525481E+02  0.26038841849E+02  0.24999747964E+00 0.  0.
        -13    1    4    4    0    0  0.11287777421E+02 -0.68110316981E+01  0.17548444369E+02  0.21949100133E+02  0.10500000000E+00 0.  1.
         13    1    4    4    0    0  0.19660799235E+02 -0.12026620762E+02  0.30811623031E+02  0.38477964763E+02  0.10500000000E+00 0. -1.
    3000001    1    5    5    0    0 -0.18126138253E+02  0.75705703157E+01 -0.30700906769E+02  0.36461158776E+02  0.10000000000E+01 0.  1.
        -13    1    6    6    0    0 -0.41507964200E+01  0.37964353751E+01 -0.54176740805E+01  0.78105217444E+01  0.10500000000E+00 0. -1.
         13    1    6    6    0    0 -0.95991038695E+01  0.89836356860E+01 -0.12625851401E+02  0.18228320104E+02  0.10500000000E+00 0.  1.
</event>
<event>
11    0  0.3448258E-009  0.9118800E+02  0.7816531E-02  0.1126479E+00
         25   -1    0    0    0    0  0.00000000000E+00  0.00000000000E+00  0.99999998245E-14  0.12500000000E+03  0.12500000000E+03 0.  0.
    3000001    1    3    3    0    0  0.18944854212E+00 -0.79788601126E+00 -0.63283512132E+00  0.14397892651E+01  0.10000000000E+01 0.  1.
    1000022    2    1    0    0    0 -0.33960233853E+02 -0.19917516642E+02 -0.47499949271E+02  0.62500005010E+02  0.10000024652E+02 0.  0.
    3000022    2    3    3    0    0 -0.34149682395E+02 -0.19119630631E+02 -0.46867114149E+02  0.61060215745E+02  0.24995004224E+00 0.  0.
    1000022    2    1    0    0    0  0.33960233853E+02  0.19917516642E+02  0.47499949271E+02  0.62499994990E+02  0.99999620233E+01 0.  0.
    3000022    2    5    5    0    0  0.22924246716E+02  0.78575220712E+01  0.28933741581E+02  0.37742358812E+02  0.25001243740E+00 0.  0.
        -13    1    4    4    0    0 -0.15671892155E+02 -0.87568139071E+01 -0.21396227008E+02  0.27930262238E+02  0.10500000000E+00 0.  1.
         13    1    4    4    0    0 -0.18477790240E+02 -0.10362816723E+02 -0.25470887141E+02  0.33129953507E+02  0.10500000000E+00 0. -1.
    3000001    1    5    5    0    0  0.11035987137E+02  0.12059994571E+02  0.18566207690E+02  0.24757636178E+02  0.10000000000E+01 0. -1.
        -13    1    6    6    0    0  0.88937199748E+01  0.31064127623E+01  0.11292499709E+02  0.14706448582E+02  0.10500000000E+00 0.  1.
         13    1    6    6    0    0  0.14030526741E+02  0.47511093089E+01  0.17641241873E+02  0.23035910230E+02  0.10500000000E+00 0. -1.
</event>
<event>
11    0  0.3448258E-009  0.9118800E+02  0.7816531E-02  0.1126479E+00
         25   -1    0    0    0    0  0.00000000000E+00  0.00000000000E+00  0.99999998245E-14  0.12500000000E+03  0.12500000000E+03 0.  0.
    3000001    1    3    3    0    0 -0.36580786688E+02 -0.24618773105E+02 -0.16427568588E+02  0.47064880257E+02  0.10000000000E+01 0.  1.
    1000022    2    1    0    0    0 -0.44812189557E+02 -0.36860511256E+02 -0.20962355700E+02  0.62500000579E+02  0.10000004651E+02 0.  0.
    3000022    2    3    3    0    0 -0.82314028683E+01 -0.12241738152E+02 -0.45347871121E+01  0.15435120322E+02  0.24999811601E+00 0.  0.
    1000022    2    1    0    0    0  0.44812189557E+02  0.36860511256E+02  0.20962355700E+02  0.62499999421E+02  0.99999974084E+01 0.  0.
    3000022    2    5    5    0    0  0.54130803579E+01  0.92493166357E+01  0.29537089745E+01  0.11119271215E+02  0.24999693377E+00 0.  0.
        -13    1    4    4    0    0 -0.49481948998E+01 -0.74458252609E+01 -0.27892049819E+01  0.93656626041E+01  0.10500000000E+00 0. -1.
         13    1    4    4    0    0 -0.32832079685E+01 -0.47959128909E+01 -0.17455821301E+01  0.60694577183E+01  0.10500000000E+00 0.  1.
    3000001    1    5    5    0    0  0.39399109199E+02  0.27611194621E+02  0.18008646725E+02  0.51380728205E+02  0.10000000000E+01 0.  1.
        -13    1    6    6    0    0  0.37740128404E+01  0.65264372828E+01  0.20550284477E+01  0.78148399501E+01  0.10500000000E+00 0.  1.
         13    1    6    6    0    0  0.16390675175E+01  0.27228793530E+01  0.89868052677E+00  0.33044312653E+01  0.10500000000E+00 0. -1.
</event>
<event>
11    0  0.3448258E-009  0.9118800E+02  0.7816531E-02  0.1126479E+00
         25   -1    0    0    0    0  0.00000000000E+00  0.00000000000E+00  0.99999998245E-14  0.12500000000E+03  0.12500000000E+03 0.  0.
    3000001    1    3    3    0    0 -0.29928529989E+01 -0.49909817610E+01  0.31555501307E+01  0.66951149832E+01  0.10000000000E+01 0.  1.
    1000022    2    1    0    0    0 -0.44705574208E+02 -0.25331121180E+02  0.34146683284E+02  0.62500000264E+02  0.99999994112E+01 0.  0.
    3000022    2    3    3    0    0 -0.41712721209E+02 -0.20340139419E+02  0.30991133153E+02  0.55804885281E+02  0.25000968423E+00 0.  0.
    1000022    2    1    0    0    0  0.44705574208E+02  0.25331121180E+02 -0.34146683284E+02  0.62499999736E+02  0.99999961108E+01 0.  0.
    3000022    2    5    5    0    0  0.30789403000E+01 -0.79222003489E+00 -0.22547641138E+01  0.39056304239E+01  0.25000368921E+00 0.  0.
        -13    1    4    4    0    0 -0.11265632064E+02 -0.55223427537E+01  0.83485277870E+01  0.15070490254E+02  0.10500000000E+00 0.  1.
         13    1    4    4    0    0 -0.30447089145E+02 -0.14817796665E+02  0.22642605366E+02  0.40734395026E+02  0.10500000000E+00 0. -1.
    3000001    1    5    5    0    0  0.41626633908E+02  0.26123341215E+02 -0.31891919170E+02  0.58594369312E+02  0.10000000000E+01 0. -1.
        -13    1    6    6    0    0  0.14859113841E+01 -0.44185766818E+00 -0.10552669787E+01  0.18782396643E+01  0.10500000000E+00 0. -1.
         13    1    6    6    0    0  0.15930289159E+01 -0.35036236671E+00 -0.11994971351E+01  0.20273907596E+01  0.10500000000E+00 0.  1.
</event>
<event>
11    0  0.3448258E-009  0.9118800E+02  0.7816531E-02  0.1126479E+00
         25   -1    0    0    0    0  0.00000000000E+00  0.00000000000E+00  0.99999998245E-14  0.12500000000E+03  0.12500000000E+03 0.  0.
    3000001    1    3    3    0    0  0.70301923788E+00  0.78179058766E+01 -0.64732834213E+01  0.10223369630E+02  0.10000000000E+01 0.  1.
    1000022    2    1    0    0    0 -0.17221270589E+02  0.47417904527E+02 -0.35513662181E+02  0.62500000723E+02  0.10000002924E+02 0.  0.
    3000022    2    3    3    0    0 -0.17924289827E+02  0.39599998650E+02 -0.29040378760E+02  0.52276631093E+02  0.25000203784E+00 0.  0.
    1000022    2    1    0    0    0  0.17221270589E+02 -0.47417904527E+02  0.35513662181E+02  0.62499999277E+02  0.99999938841E+01 0.  0.
    3000022    2    5    5    0    0  0.89904139855E+01 -0.24794619163E+02  0.12526911824E+02  0.29199087381E+02  0.25000199568E+00 0.  0.
        -13    1    4    4    0    0 -0.51449643039E+01  0.11462658867E+02 -0.84134785850E+01  0.15121536062E+02  0.10500000000E+00 0.  1.
         13    1    4    4    0    0 -0.12779325523E+02  0.28137339783E+02 -0.20626900175E+02  0.37155095031E+02  0.10500000000E+00 0. -1.
    3000001    1    5    5    0    0  0.82308566036E+01 -0.22623285364E+02  0.22986750357E+02  0.33300911896E+02  0.10000000000E+01 0.  1.
        -13    1    6    6    0    0  0.34626599769E+01 -0.97272456860E+01  0.49197998121E+01  0.11437865970E+02  0.10500000000E+00 0.  1.
         13    1    6    6    0    0  0.55277540086E+01 -0.15067373477E+02  0.76071120118E+01  0.17761221412E+02  0.10500000000E+00 0. -1.
</event>
<event>
11    0  0.3448258E-009  0.9118800E+02  0.7816531E-02  0.1126479E+00
         25   -1    0    0    0    0  0.00000000000E+00  0.00000000000E+00  0.99999998245E-14  0.12500000000E+03  0.12500000000E+03 0.  0.
    3000001    1    3    3    0    0 -0.53169665455E+02  0.25432289896E+01 -0.26546890116E+02  0.59491333093E+02  0.10000000000E+01 0. -1.
    1000022    2    1    0    0    0 -0.54473902548E+02  0.12829149750E+01 -0.28934383909E+02  0.62499996784E+02  0.99999548067E+01 0.  0.
    3000022    2    3    3    0    0 -0.13042370935E+01 -0.12603140145E+01 -0.23874937926E+01  0.30086636915E+01  0.25000957535E+00 0.  0.
    1000022    2    1    0    0    0  0.54473902548E+02 -0.12829149750E+01  0.28934383909E+02  0.62500003216E+02  0.99999950061E+01 0.  0.
    3000022    2    5    5    0    0  0.50637182449E+02 -0.34298354582E+01  0.27720625461E+02  0.57830645846E+02  0.25001062934E+00 0.  0.
        -13    1    4    4    0    0 -0.91621364010E+00 -0.82917066892E+00 -0.15668219305E+01  0.19982310663E+01  0.10500000000E+00 0.  1.
         13    1    4    4    0    0 -0.38802345336E+00 -0.43114334562E+00 -0.82067186212E+00  0.10104326252E+01  0.10500000000E+00 0. -1.
    3000001    1    5    5    0    0  0.38367200989E+01  0.21469204832E+01  0.12137584476E+01  0.46693573698E+01  0.10000000000E+01 0.  1.
        -13    1    6    6    0    0  0.31322858712E+02 -0.20610723448E+01  0.17135025146E+02  0.35762964207E+02  0.10500000000E+00 0.  1.
         13    1    6    6    0    0  0.19314323737E+02 -0.13687631134E+01  0.10585600316E+02  0.22067681639E+02  0.10500000000E+00 0. -1.
</event>
<event>
11    0  0.3448258E-009  0.9118800E+02  0.7816531E-02  0.1126479E+00
         25   -1    0    0    0    0  0.00000000000E+00  0.00000000000E+00  0.99999998245E-14  0.12500000000E+03  0.12500000000E+03 0.  0.
    3000001    1    3    3    0    0  0.97923773619E+01  0.14242424659E+00 -0.19889200965E+02  0.22192143972E+02  0.10000000000E+01 0.  1.
    1000022    2    1    0    0    0  0.35945037317E+02 -0.76386880196E+01 -0.49556580606E+02  0.62499999856E+02  0.10000001918E+02 0.  0.
    3000022    2    3    3    0    0  0.26152659955E+02 -0.77811122661E+01 -0.29667379641E+02  0.40307855884E+02  0.25000082785E+00 0.  0.
    1000022    2    1    0    0    0 -0.35945037317E+02  0.76386880196E+01  0.49556580606E+02  0.62500000144E+02  0.10000003712E+02 0.  0.
    3000022    2    5    5    0    0 -0.16882874288E+02  0.58740857124E+01  0.31198796365E+02  0.35957805003E+02  0.25003768795E+00 0.  0.
        -13    1    4    4    0    0  0.10099539616E+02 -0.30675724266E+01 -0.11496880924E+02  0.15607690317E+02  0.10500000000E+00 0.  1.
         13    1    4    4    0    0  0.16053120339E+02 -0.47135398396E+01 -0.18170498717E+02  0.24700165567E+02  0.10500000000E+00 0. -1.
    3000001    1    5    5    0    0 -0.19062163029E+02  0.17646023071E+01  0.18357784241E+02  0.26542195141E+02  0.10000000000E+01 0.  1.
        -13    1    6    6    0    0 -0.91547521790E+01  0.32550495269E+01  0.16980945082E+02  0.19564466662E+02  0.10500000000E+00 0. -1.
         13    1    6    6    0    0 -0.77281221090E+01  0.26190361855E+01  0.14217851283E+02  0.16393338341E+02  0.10500000000E+00 0.  1.
</event>
<event>
11    0  0.3448258E-009  0.9118800E+02  0.7816531E-02  0.1126479E+00
         25   -1    0    0    0    0  0.00000000000E+00  0.00000000000E+00  0.99999998245E-14  0.12500000000E+03  0.12500000000E+03 0.  0.
    3000001    1    3    3    0    0  0.29495906605E+01  0.31275660577E+01  0.94644449428E+01  0.10443058584E+02  0.10000000000E+01 0. -1.
    1000022    2    1    0    0    0  0.32037268803E+02  0.30558128868E+01  0.52635783452E+02  0.62499999936E+02  0.99999853816E+01 0.  0.
    3000022    2    3    3    0    0  0.29087678143E+02 -0.71753170868E-01  0.43171338509E+02  0.52056941352E+02  0.25001204046E+00 0.  0.
    1000022    2    1    0    0    0 -0.32037268803E+02 -0.30558128868E+01 -0.52635783452E+02  0.62500000064E+02  0.99999861823E+01 0.  0.
    3000022    2    5    5    0    0 -0.14687391573E+01 -0.59837859572E+00 -0.90848882850E+01  0.92256679908E+01  0.25000614220E+00 0.  0.
        -13    1    4    4    0    0  0.14634520896E+02 -0.33842234871E-01  0.21598919065E+02  0.26090126043E+02  0.10500000000E+00 0.  1.
         13    1    4    4    0    0  0.14453157247E+02 -0.37910935998E-01  0.21572419444E+02  0.25966815309E+02  0.10500000000E+00 0. -1.
    3000001    1    5    5    0    0 -0.30568529646E+02 -0.24574342911E+01 -0.43550895167E+02  0.53274332073E+02  0.10000000000E+01 0. -1.
        -13    1    6    6    0    0 -0.69477902061E+00 -0.21848933713E+00 -0.39934367270E+01  0.40606671091E+01  0.10500000000E+00 0.  1.
         13    1    6    6    0    0 -0.77396013672E+00 -0.37988925859E+00 -0.50914515579E+01  0.51650008818E+01  0.10500000000E+00 0. -1.
</event>
<event>
11    0  0.3448258E-009  0.9118800E+02  0.7816531E-02  0.1126479E+00
         25   -1    0    0    0    0  0.00000000000E+00  0.00000000000E+00  0.99999998245E-14  0.12500000000E+03  0.12500000000E+03 0.  0.
    3000001    1    3    3    0    0  0.19415704544E+01 -0.22879864246E+02 -0.41244461427E+01  0.23350994406E+02  0.10000000000E+01 0. -1.
    1000022    2    1    0    0    0  0.17530481173E+02 -0.57995583295E+02 -0.11638059896E+02  0.62500001580E+02  0.10000015372E+02 0.  0.
    3000022    2    3    3    0    0  0.15588910718E+02 -0.35115719049E+02 -0.75136137530E+01  0.39149007174E+02  0.25001873669E+00 0.  0.
    1000022    2    1    0    0    0 -0.17530481173E+02  0.57995583295E+02  0.11638059896E+02  0.62499998420E+02  0.99999956238E+01 0.  0.
    3000022    2    5    5    0    0 -0.16283457666E+02  0.57438597099E+02  0.11116617725E+02  0.60728783248E+02  0.24998970784E+00 0.  0.
        -13    1    4    4    0    0  0.66122838523E+01 -0.14802476551E+02 -0.32245942830E+01  0.16530113220E+02  0.10500000000E+00 0. -1.
         13    1    4    4    0    0  0.89766268661E+01 -0.20313242498E+02 -0.42890194700E+01  0.22618893954E+02  0.10500000000E+00 0.  1.
    3000001    1    5    5    0    0 -0.12470235070E+01  0.55698619638E+00  0.52144217080E+00  0.17712151725E+01  0.10000000000E+01 0. -1.
        -13    1    6    6    0    0 -0.11774452399E+02  0.41552708345E+02  0.80805165278E+01  0.43938264332E+02  0.10500000000E+00 0.  1.
         13    1    6    6    0    0 -0.45090052666E+01  0.15885888754E+02  0.30361011972E+01  0.16790518916E+02  0.10500000000E+00 0. -1.
</event>
<event>
11    0  0.3448258E-009  0.9118800E+02  0.7816531E-02  0.1126479E+00
         25   -1    0    0    0    0  0.00000000000E+00  0.00000000000E+00  0.99999998245E-14  0.12500000000E+03  0.12500000000E+03 0.  0.
    3000001    1    3    3    0    0  0.36267331823E+01 -0.59760810046E+01  0.11579723463E+02  0.13563065038E+02  0.10000000000E+01 0. -1.
    1000022    2    1    0    0    0  0.33089668217E+02 -0.26704163810E+02  0.44701360664E+02  0.62499997049E+02  0.99999739221E+01 0.  0.
    3000022    2    3    3    0    0  0.29462935035E+02 -0.20728082806E+02  0.33121637201E+02  0.48936932011E+02  0.25001229524E+00 0.  0.
    1000022    2    1    0    0    0 -0.33089668217E+02  0.26704163810E+02 -0.44701360664E+02  0.62500002951E+02  0.10000010809E+02 0.  0.
    3000022    2    5    5    0    0 -0.17408627066E+02  0.93386152925E+01 -0.25220313213E+02  0.32037426949E+02  0.24999010289E+00 0.  0.
        -13    1    4    4    0    0  0.14289798254E+02 -0.99859193318E+01  0.16082107251E+02  0.23718391971E+02  0.10500000000E+00 0. -1.
         13    1    4    4    0    0  0.15173136781E+02 -0.10742163474E+02  0.17039529950E+02  0.25218540041E+02  0.10500000000E+00 0.  1.
    3000001    1    5    5    0    0 -0.15681041151E+02  0.17365548518E+02 -0.19481047451E+02  0.30462576002E+02  0.10000000000E+01 0.  1.
        -13    1    6    6    0    0 -0.63218649331E+01  0.33464923325E+01 -0.92019710009E+01  0.11655568732E+02  0.10500000000E+00 0.  1.
         13    1    6    6    0    0 -0.11086762133E+02  0.59921229599E+01 -0.16018342212E+02  0.20381858217E+02  0.10500000000E+00 0. -1.
</event>
<event>
11    0  0.3448258E-009  0.9118800E+02  0.7816531E-02  0.1126479E+00
         25   -1    0    0    0    0  0.00000000000E+00  0.00000000000E+00  0.99999998245E-14  0.12500000000E+03  0.12500000000E+03 0.  0.
    3000001    1    3    3    0    0 -0.44842866418E+01 -0.94756705250E+01 -0.19962133325E+02  0.22569535340E+02  0.10000000000E+01 0. -1.
    1000022    2    1    0    0    0 -0.97025672162E+00 -0.32079177855E+02 -0.52689987950E+02  0.62499998899E+02  0.99999991084E+01 0.  0.
    3000022    2    3    3    0    0  0.35140299202E+01 -0.22603507330E+02 -0.32727854625E+02  0.39930463559E+02  0.25000344461E+00 0.  0.
    1000022    2    1    0    0    0  0.97025672162E+00  0.32079177855E+02  0.52689987950E+02  0.62500001101E+02  0.10000012873E+02 0.  0.
    3000022    2    5    5    0    0 -0.13520090630E+01  0.56642378658E+01  0.17374855890E+02  0.18326473673E+02  0.25000195396E+00 0.  0.
        -13    1    4    4    0    0  0.24462604781E+01 -0.15634563053E+02 -0.22719407730E+02  0.27687655459E+02  0.10500000000E+00 0. -1.
         13    1    4    4    0    0  0.10677694420E+01 -0.69689442773E+01 -0.10008446895E+02  0.12242808100E+02  0.10500000000E+00 0.  1.
    3000001    1    5    5    0    0  0.23222657847E+01  0.26414939990E+02  0.35315132060E+02  0.44173527428E+02  0.10000000000E+01 0.  1.
        -13    1    6    6    0    0 -0.61520386484E+00  0.23156581206E+01  0.70851185101E+01  0.74800185580E+01  0.10500000000E+00 0.  1.
         13    1    6    6    0    0 -0.73680519821E+00  0.33485797452E+01  0.10289737380E+02  0.10846455115E+02  0.10500000000E+00 0. -1.
</event>
<event>
11    0  0.3448258E-009  0.9118800E+02  0.7816531E-02  0.1126479E+00
         25   -1    0    0    0    0  0.00000000000E+00  0.00000000000E+00  0.99999998245E-14  0.12500000000E+03  0.12500000000E+03 0.  0.
    3000001    1    3    3    0    0 -0.16158808853E+02 -0.36558441704E+02 -0.32171406995E+02  0.51318867792E+02  0.10000000000E+01 0.  1.
    1000022    2    1    0    0    0 -0.17103389448E+02 -0.41865830849E+02 -0.41963986738E+02  0.62500000554E+02  0.10000008147E+02 0.  0.
    3000022    2    3    3    0    0 -0.94458059541E+00 -0.53073891451E+01 -0.97925797424E+01  0.11181132762E+02  0.24999956580E+00 0.  0.
    1000022    2    1    0    0    0  0.17103389448E+02  0.41865830849E+02  0.41963986738E+02  0.62499999446E+02  0.10000001228E+02 0.  0.
    3000022    2    5    5    0    0 -0.75197317740E+00  0.88753921065E+00  0.12889376777E-01  0.11898948152E+01  0.24998805000E+00 0.  0.
        -13    1    4    4    0    0 -0.71243467342E+00 -0.39370546059E+01 -0.72039379946E+01  0.82410988202E+01  0.10500000000E+00 0. -1.
         13    1    4    4    0    0 -0.23214592199E+00 -0.13703345391E+01 -0.25886417477E+01  0.29400339414E+01  0.10500000000E+00 0.  1.
    3000001    1    5    5    0    0  0.17855362626E+02  0.40978291639E+02  0.41951097361E+02  0.61310104631E+02  0.10000000000E+01 0.  1.
        -13    1    6    6    0    0 -0.18443085001E+00  0.26066023985E+00  0.31236559272E-01  0.33757846749E+00  0.10500000000E+00 0.  1.
         13    1    6    6    0    0 -0.56754232740E+00  0.62687897080E+00 -0.18347182495E-01  0.85231634768E+00  0.10500000000E+00 0. -1.
</event>
<event>
11    0  0.3448258E-009  0.9118800E+02  0.7816531E-02  0.1126479E+00
         25   -1    0    0    0    0  0.00000000000E+00  0.00000000000E+00  0.99999998245E-14  0.12500000000E+03  0.12500000000E+03 0.  0.
    3000001    1    3    3    0    0 -0.46928438649E+01 -0.48714861261E+00 -0.24828543863E+02  0.25292621210E+02  0.10000000000E+01 0. -1.
    1000022    2    1    0    0    0 -0.11537429717E+00  0.21745106285E+01 -0.61656371685E+02  0.62500000241E+02  0.10000002648E+02 0.  0.
    3000022    2    3    3    0    0  0.45774695677E+01  0.26616592411E+01 -0.36827827822E+02  0.37207379030E+02  0.24998930903E+00 0.  0.
    1000022    2    1    0    0    0  0.11537429717E+00 -0.21745106285E+01  0.61656371685E+02  0.62499999759E+02  0.99999996414E+01 0.  0.
    3000022    2    5    5    0    0  0.13198741967E+01  0.35465035601E+01  0.34238872264E+02  0.34448260101E+02  0.24998933807E+00 0.  0.
        -13    1    4    4    0    0  0.20598232022E+01  0.11212848446E+01 -0.16272822287E+02  0.16441287101E+02  0.10500000000E+00 0.  1.
         13    1    4    4    0    0  0.25176463655E+01  0.15403743965E+01 -0.20555005535E+02  0.20766091930E+02  0.10500000000E+00 0. -1.
    3000001    1    5    5    0    0 -0.12044998995E+01 -0.57210141886E+01  0.27417499422E+02  0.28051739659E+02  0.10000000000E+01 0. -1.
        -13    1    6    6    0    0  0.40392794335E+00  0.10410641894E+01  0.10512854616E+02  0.10572516711E+02  0.10500000000E+00 0. -1.
         13    1    6    6    0    0  0.91594625333E+00  0.25054393707E+01  0.23726017647E+02  0.23875743389E+02  0.10500000000E+00 0.  1.
</event>
<event>
11    0  0.3448258E-009  0.9118800E+02  0.7816531E-02  0.1126479E+00
         25   -1    0    0    0    0  0.00000000000E+00  0.00000000000E+00  0.99999998245E-14  0.12500000000E+03  0.12500000000E+03 0.  0.
    3000001    1    3    3    0    0  0.62232118725E+00 -0.88041627671E+01 -0.19225710325E+01  0.90882806440E+01  0.10000000000E+01 0. -1.
    1000022    2    1    0    0    0 -0.18542663166E+02 -0.58196047911E+02 -0.86971046388E+01  0.62499999881E+02  0.10000000315E+02 0.  0.
    3000022    2    3    3    0    0 -0.19164984353E+02 -0.49391885144E+02 -0.67745336063E+01  0.53411719237E+02  0.25000591019E+00 0.  0.
    1000022    2    1    0    0    0  0.18542663166E+02  0.58196047911E+02  0.86971046388E+01  0.62500000119E+02  0.10000001797E+02 0.  0.
    3000022    2    5    5    0    0  0.11343971898E+02  0.22295133744E+02  0.62717124487E+01  0.25790610021E+02  0.25000232148E+00 0.  0.
        -13    1    4    4    0    0 -0.10596980141E+02 -0.27266995375E+02 -0.36754772705E+01  0.29483981805E+02  0.10500000000E+00 0.  1.
         13    1    4    4    0    0 -0.85680042129E+01 -0.22124889769E+02 -0.30990563358E+01  0.23927737433E+02  0.10500000000E+00 0. -1.
    3000001    1    5    5    0    0  0.71986912683E+01  0.35900914167E+02  0.24253921901E+01  0.36709390097E+02  0.10000000000E+01 0.  1.
        -13    1    6    6    0    0  0.40527484598E+01  0.80880959952E+01  0.22859264993E+01  0.93315889251E+01  0.10500000000E+00 0. -1.
         13    1    6    6    0    0  0.72912234380E+01  0.14207037749E+02  0.39857859494E+01  0.16459021096E+02  0.10500000000E+00 0.  1.
</event>
<event>
11    0  0.3448258E-009  0.9118800E+02  0.7816531E-02  0.1126479E+00
         25   -1    0    0    0    0  0.00000000000E+00  0.00000000000E+00  0.99999998245E-14  0.12500000000E+03  0.12500000000E+03 0.  0.
    3000001    1    3    3    0    0  0.19257674470E+02 -0.20380739475E+02 -0.14868785605E+02  0.31753950194E+02  0.10000000000E+01 0. -1.
    1000022    2    1    0    0    0  0.36536346819E+02 -0.45062770239E+02 -0.20992667655E+02  0.62500000323E+02  0.10000002233E+02 0.  0.
    3000022    2    3    3    0    0  0.17278672349E+02 -0.24682030763E+02 -0.61238820504E+01  0.30746050129E+02  0.25001287890E+00 0.  0.
    1000022    2    1    0    0    0 -0.36536346819E+02  0.45062770239E+02  0.20992667655E+02  0.62499999677E+02  0.99999981915E+01 0.  0.
    3000022    2    5    5    0    0 -0.30837402197E+02  0.32387443303E+02  0.13693142934E+02  0.46770252575E+02  0.25000906698E+00 0.  0.
        -13    1    4    4    0    0  0.62746602961E+01 -0.89683581653E+01 -0.21650649925E+01  0.11158016913E+02  0.10500000000E+00 0.  1.
         13    1    4    4    0    0  0.11004012053E+02 -0.15713672598E+02 -0.39588170579E+01  0.19588033216E+02  0.10500000000E+00 0. -1.
    3000001    1    5    5    0    0 -0.56989446220E+01  0.12675326935E+02  0.72995247216E+01  0.15729747102E+02  0.10000000000E+01 0. -1.
        -13    1    6    6    0    0 -0.21746087760E+02  0.22807219149E+02  0.96895139428E+01  0.32969065556E+02  0.10500000000E+00 0.  1.
         13    1    6    6    0    0 -0.90913144366E+01  0.95802241540E+01  0.40036289912E+01  0.13801187019E+02  0.10500000000E+00 0. -1.
</event>
<event>
11    0  0.3448258E-009  0.9118800E+02  0.7816531E-02  0.1126479E+00
         25   -1    0    0    0    0  0.00000000000E+00  0.00000000000E+00  0.99999998245E-14  0.12500000000E+03  0.12500000000E+03 0.  0.
    3000001    1    3    3    0    0  0.18100656920E+02 -0.13968819178E+02  0.37365372857E+02  0.43817037541E+02  0.10000000000E+01 0.  1.
    1000022    2    1    0    0    0  0.19953006421E+02 -0.18232439359E+02  0.55459044572E+02  0.62500000422E+02  0.10000005887E+02 0.  0.
    3000022    2    3    3    0    0  0.18523495013E+01 -0.42636201808E+01  0.18093671715E+02  0.18682962881E+02  0.24998031531E+00 0.  0.
    1000022    2    1    0    0    0 -0.19953006421E+02  0.18232439359E+02 -0.55459044572E+02  0.62499999578E+02  0.10000000613E+02 0.  0.
    3000022    2    5    5    0    0 -0.32462557380E+01 -0.16719284140E+00 -0.29452167435E+01  0.43935102965E+01  0.25000259202E+00 0.  0.
        -13    1    4    4    0    0  0.59586398945E+00 -0.12644541375E+01  0.53791872853E+01  0.55588289243E+01  0.10500000000E+00 0. -1.
         13    1    4    4    0    0  0.12564855118E+01 -0.29991660433E+01  0.12714484430E+02  0.13124133956E+02  0.10500000000E+00 0.  1.
    3000001    1    5    5    0    0 -0.16706750683E+02  0.18399632200E+02 -0.52513827828E+02  0.58106489282E+02  0.10000000000E+01 0.  1.
        -13    1    6    6    0    0 -0.90998272288E+00 -0.73223921284E-01 -0.87150360490E+00  0.12664808849E+01  0.10500000000E+00 0. -1.
         13    1    6    6    0    0 -0.23362730152E+01 -0.93968920118E-01 -0.20737131386E+01  0.31270294115E+01  0.10500000000E+00 0.  1.
</event>
<event>
11    0  0.3448258E-009  0.9118800E+02  0.7816531E-02  0.1126479E+00
         25   -1    0    0    0    0  0.00000000000E+00  0.00000000000E+00  0.99999998245E-14  0.12500000000E+03  0.12500000000E+03 0.  0.
    3000001    1    3    3    0    0  0.17048904157E+02  0.46578811479E+01  0.98448249065E+01  0.20255408344E+02  0.10000000000E+01 0. -1.
    1000022    2    1    0    0    0  0.48103315586E+02  0.35893348055E+01  0.38463445280E+02  0.62500007985E+02  0.10000104027E+02 0.  0.
    3000022    2    3    3    0    0  0.31054411428E+02 -0.10685463423E+01  0.28618620374E+02  0.42244599640E+02  0.25001243538E+00 0.  0.
    1000022    2    1    0    0    0 -0.48103315586E+02 -0.35893348055E+01 -0.38463445280E+02  0.62499992015E+02  0.10000004221E+02 0.  0.
    3000022    2    5    5    0    0 -0.25947252833E+01 -0.19312670954E+01 -0.50765482867E+01  0.60246357023E+01  0.25000189528E+00 0.  0.
        -13    1    4    4    0    0  0.20426723748E+02 -0.75201041382E+00  0.18859963475E+02  0.27812331977E+02  0.10500000000E+00 0. -1.
         13    1    4    4    0    0  0.10627687680E+02 -0.31653592849E+00  0.97586568988E+01  0.14432267663E+02  0.10500000000E+00 0.  1.
    3000001    1    5    5    0    0 -0.45508590302E+02 -0.16580677101E+01 -0.33386896993E+02  0.56475356313E+02  0.10000000000E+01 0.  1.
        -13    1    6    6    0    0 -0.90275051564E+00 -0.62108632602E+00 -0.16560460309E+01  0.19885221081E+01  0.10500000000E+00 0.  1.
         13    1    6    6    0    0 -0.16919747677E+01 -0.13101807694E+01 -0.34205022558E+01  0.40361135942E+01  0.10500000000E+00 0. -1.
</event>
<event>
11    0  0.3448258E-009  0.9118800E+02  0.7816531E-02  0.1126479E+00
         25   -1    0    0    0    0  0.00000000000E+00  0.00000000000E+00  0.99999998245E-14  0.12500000000E+03  0.12500000000E+03 0.  0.
    3000001    1    3    3    0    0  0.22715904654E+02  0.34737045744E+02  0.36040401576E+02  0.54978043044E+02  0.10000000000E+01 0.  1.
    1000022    2    1    0    0    0  0.23811976678E+02  0.37231578198E+02  0.43047059281E+02  0.62500000289E+02  0.10000003748E+02 0.  0.
    3000022    2    3    3    0    0  0.10960720240E+01  0.24945324539E+01  0.70066577051E+01  0.75219572444E+01  0.25004508569E+00 0.  0.
    1000022    2    1    0    0    0 -0.23811976678E+02 -0.37231578198E+02 -0.43047059281E+02  0.62499999711E+02  0.10000000137E+02 0.  0.
    3000022    2    5    5    0    0 -0.16914593717E+02 -0.31337534164E+02 -0.29925888186E+02  0.46516296208E+02  0.25000211180E+00 0.  0.
        -13    1    4    4    0    0  0.82876590122E+00  0.19192823415E+01  0.53610905865E+01  0.57552423843E+01  0.10500000000E+00 0.  1.
         13    1    4    4    0    0  0.26730612278E+00  0.57525011246E+00  0.16455671186E+01  0.17667148601E+01  0.10500000000E+00 0. -1.
    3000001    1    5    5    0    0 -0.68973829605E+01 -0.58940440335E+01 -0.13121171095E+02  0.15983703504E+02  0.10000000000E+01 0.  1.
        -13    1    6    6    0    0 -0.12219624672E+02 -0.22669266497E+02 -0.21594492622E+02  0.33608748968E+02  0.10500000000E+00 0. -1.
         13    1    6    6    0    0 -0.46949690455E+01 -0.86682676672E+01 -0.83313955639E+01  0.12907547239E+02  0.10500000000E+00 0.  1.
</event>
<event>
11    0  0.3448258E-009  0.9118800E+02  0.7816531E-02  0.1126479E+00
         25   -1    0    0    0    0  0.00000000000E+00  0.00000000000E+00  0.99999998245E-14  0.12500000000E+03  0.12500000000E+03 0.  0.
    3000001    1    3    3    0    0 -0.43544803506E+01  0.20795851993E+02  0.34047679428E+01  0.21541156050E+02  0.10000000000E+01 0.  1.
    1000022    2    1    0    0    0 -0.24565733604E+02  0.56395316974E+02  0.47268131430E+01  0.62500000885E+02  0.10000015200E+02 0.  0.
    3000022    2    3    3    0    0 -0.20211253254E+02  0.35599464981E+02  0.13220452002E+01  0.40958844835E+02  0.25000331079E+00 0.  0.
    1000022    2    1    0    0    0  0.24565733604E+02 -0.56395316974E+02 -0.47268131430E+01  0.62499999115E+02  0.10000004135E+02 0.  0.
    3000022    2    5    5    0    0  0.17153910814E+02 -0.39045324825E+02 -0.78085301104E+01  0.43357002376E+02  0.24993134578E+00 0.  0.
        -13    1    4    4    0    0 -0.93879501682E+01  0.16407312478E+02  0.58821940468E+00  0.18912708378E+02  0.10500000000E+00 0. -1.
         13    1    4    4    0    0 -0.10823303086E+02  0.19192152503E+02  0.73382579552E+00  0.22046136457E+02  0.10500000000E+00 0.  1.
    3000001    1    5    5    0    0  0.74118227904E+01 -0.17349992150E+02  0.30817169674E+01  0.19142996739E+02  0.10000000000E+01 0.  1.
        -13    1    6    6    0    0  0.43702365163E+01 -0.99970764952E+01 -0.20197463519E+01  0.11096436635E+02  0.10500000000E+00 0.  1.
         13    1    6    6    0    0  0.12783674298E+02 -0.29048248330E+02 -0.57887837584E+01  0.32260565742E+02  0.10500000000E+00 0. -1.
</event>
<event>
11    0  0.3448258E-009  0.9118800E+02  0.7816531E-02  0.1126479E+00
         25   -1    0    0    0    0  0.00000000000E+00  0.00000000000E+00  0.99999998245E-14  0.12500000000E+03  0.12500000000E+03 0.  0.
    3000001    1    3    3    0    0 -0.31268659135E+02  0.72672867666E+01  0.28753017971E+02  0.43107755027E+02  0.10000000000E+01 0.  1.
    1000022    2    1    0    0    0 -0.47391585731E+02  0.47128201253E+01  0.39218327579E+02  0.62500002615E+02  0.10000001855E+02 0.  0.
    3000022    2    3    3    0    0 -0.16122926596E+02 -0.25544666414E+01  0.10465309608E+02  0.19392247588E+02  0.24999891746E+00 0.  0.
    1000022    2    1    0    0    0  0.47391585731E+02 -0.47128201253E+01 -0.39218327579E+02  0.62499997385E+02  0.99999691686E+01 0.  0.
    3000022    2    5    5    0    0  0.13962488299E+02 -0.33232527549E+01 -0.17342487636E+02  0.22512651563E+02  0.25002931209E+00 0.  0.
        -13    1    4    4    0    0 -0.11136980510E+02 -0.17943825166E+01  0.71862735666E+01  0.13375563400E+02  0.10500000000E+00 0. -1.
         13    1    4    4    0    0 -0.49859460865E+01 -0.76008412481E+00  0.32790360416E+01  0.60166841879E+01  0.10500000000E+00 0.  1.
    3000001    1    5    5    0    0  0.33429097433E+02 -0.13895673704E+01 -0.21875839944E+02  0.39987345822E+02  0.10000000000E+01 0.  1.
        -13    1    6    6    0    0  0.81965196335E+01 -0.20093977783E+01 -0.10243113811E+02  0.13272265032E+02  0.10500000000E+00 0. -1.
         13    1    6    6    0    0  0.57659686651E+01 -0.13138549766E+01 -0.70993738246E+01  0.92403865313E+01  0.10500000000E+00 0.  1.
</event>
<event>
11    0  0.3448258E-009  0.9118800E+02  0.7816531E-02  0.1126479E+00
         25   -1    0    0    0    0  0.00000000000E+00  0.00000000000E+00  0.99999998245E-14  0.12500000000E+03  0.12500000000E+03 0.  0.
    3000001    1    3    3    0    0 -0.14452789529E+02 -0.10229385227E+02  0.57019786531E+01  0.18628902487E+02  0.10000000000E+01 0. -1.
    1000022    2    1    0    0    0 -0.52799667018E+02 -0.31526470501E+02  0.49524626053E+01  0.62499999113E+02  0.99999911942E+01 0.  0.
    3000022    2    3    3    0    0 -0.38346877489E+02 -0.21297085273E+02 -0.74951604786E+00  0.43871096626E+02  0.24998126408E+00 0.  0.
    1000022    2    1    0    0    0  0.52799667018E+02  0.31526470501E+02 -0.49524626053E+01  0.62500000887E+02  0.10000002277E+02 0.  0.
    3000022    2    5    5    0    0  0.40895512939E+02  0.28450936501E+02 -0.56852148949E+01  0.50142625776E+02  0.24996986187E+00 0.  0.
        -13    1    4    4    0    0 -0.21014690414E+02 -0.11696008973E+02 -0.47404136239E+00  0.24055136236E+02  0.10500000000E+00 0.  1.
         13    1    4    4    0    0 -0.17332187075E+02 -0.96010763002E+01 -0.27547468547E+00  0.19815960391E+02  0.10500000000E+00 0. -1.
    3000001    1    5    5    0    0  0.11904154079E+02  0.30755339992E+01  0.73275228961E+00  0.12357375111E+02  0.10000000000E+01 0. -1.
        -13    1    6    6    0    0  0.28465033577E+02  0.19752960650E+02 -0.39767360842E+01  0.34874963023E+02  0.10500000000E+00 0. -1.
         13    1    6    6    0    0  0.12430479362E+02  0.86979758513E+01 -0.17084788107E+01  0.15267662753E+02  0.10500000000E+00 0.  1.
</event>
<event>
11    0  0.3448258E-009  0.9118800E+02  0.7816531E-02  0.1126479E+00
         25   -1    0    0    0    0  0.00000000000E+00  0.00000000000E+00  0.99999998245E-14  0.12500000000E+03  0.12500000000E+03 0.  0.
    3000001    1    3    3    0    0 -0.32805785035E+02 -0.23319657883E+02  0.15554291244E+02  0.43162042950E+02  0.10000000000E+01 0.  1.
    1000022    2    1    0    0    0 -0.45662837579E+02 -0.30573400266E+02  0.28043226706E+02  0.62500000100E+02  0.99999954372E+01 0.  0.
    3000022    2    3    3    0    0 -0.12857052544E+02 -0.72537423834E+01  0.12488935462E+02  0.19337957149E+02  0.24999808964E+00 0.  0.
    1000022    2    1    0    0    0  0.45662837579E+02  0.30573400266E+02 -0.28043226706E+02  0.62499999900E+02  0.99999941931E+01 0.  0.
    3000022    2    5    5    0    0  0.32603120609E+02  0.26842324809E+02 -0.21543810210E+02  0.47409620641E+02  0.24999273134E+00 0.  0.
        -13    1    4    4    0    0 -0.71495740851E+01 -0.40041440986E+01  0.68522051709E+01  0.10682383641E+02  0.10500000000E+00 0. -1.
         13    1    4    4    0    0 -0.57074784590E+01 -0.32495982848E+01  0.56367302914E+01  0.86555735079E+01  0.10500000000E+00 0.  1.
    3000001    1    5    5    0    0  0.13059716970E+02  0.37310754572E+01 -0.64994164962E+01  0.15090379259E+02  0.10000000000E+01 0. -1.
        -13    1    6    6    0    0  0.13643004329E+02  0.11214293610E+02 -0.90802400404E+01  0.19858341635E+02  0.10500000000E+00 0.  1.
         13    1    6    6    0    0  0.18960116280E+02  0.15628031199E+02 -0.12463570170E+02  0.27551279006E+02  0.10500000000E+00 0. -1.
</event>
<event>
11    0  0.3448258E-009  0.9118800E+02  0.7816531E-02  0.1126479E+00
         25   -1    0    0    0    0  0.00000000000E+00  0.00000000000E+00  0.99999998245E-14  0.12500000000E+03  0.12500000000E+03 0.  0.
    3000001    1    3    3    0    0 -0.23784254440E+02 -0.38518470921E+02  0.25221900727E+02  0.51831531307E+02  0.10000000000E+01 0.  1.
    1000022    2    1    0    0    0 -0.25425495204E+02 -0.45287785803E+02  0.33298808412E+02  0.62500000381E+02  0.10000002831E+02 0.  0.
    3000022    2    3    3    0    0 -0.16412407643E+01 -0.67693148827E+01  0.80769076848E+01  0.10668469074E+02  0.24999881436E+00 0.  0.
    1000022    2    1    0    0    0  0.25425495204E+02  0.45287785803E+02 -0.33298808412E+02  0.62499999619E+02  0.99999980737E+01 0.  0.
    3000022    2    5    5    0    0  0.23323427457E+01  0.99911662440E+01 -0.98745858688E+01  0.14241951125E+02  0.25000033088E+00 0.  0.
        -13    1    4    4    0    0 -0.11581451741E+01 -0.46348816643E+01  0.55933806586E+01  0.73566541633E+01  0.10500000000E+00 0. -1.
         13    1    4    4    0    0 -0.48309559016E+00 -0.21344332183E+01  0.24835270262E+01  0.33118149107E+01  0.10500000000E+00 0.  1.
    3000001    1    5    5    0    0  0.23093152458E+02  0.35296619559E+02 -0.23424222543E+02  0.48258048495E+02  0.10000000000E+01 0. -1.
        -13    1    6    6    0    0  0.93016271601E+00  0.38866535144E+01 -0.39271757101E+01  0.56040175122E+01  0.10500000000E+00 0. -1.
         13    1    6    6    0    0  0.14021800297E+01  0.61045127296E+01 -0.59474101587E+01  0.86379336127E+01  0.10500000000E+00 0.  1.
</event>
<event>
11    0  0.3448258E-009  0.9118800E+02  0.7816531E-02  0.1126479E+00
         25   -1    0    0    0    0  0.00000000000E+00  0.00000000000E+00  0.99999998245E-14  0.12500000000E+03  0.12500000000E+03 0.  0.
    3000001    1    3    3    0    0  0.13325428983E+02  0.78214696335E+00 -0.10015785937E+02  0.16718097361E+02  0.10000000000E+01 0. -1.
    1000022    2    1    0    0    0  0.53772864051E+02 -0.10046021690E+02 -0.28527293557E+02  0.62500000487E+02  0.10000006157E+02 0.  0.
    3000022    2    3    3    0    0  0.40447435068E+02 -0.10828168653E+02 -0.18511507620E+02  0.45781903125E+02  0.24999891313E+00 0.  0.
    1000022    2    1    0    0    0 -0.53772864051E+02  0.10046021690E+02  0.28527293557E+02  0.62499999513E+02  0.10000000076E+02 0.  0.
    3000022    2    5    5    0    0 -0.12573403739E+02  0.10272846585E+01  0.11276279893E+02  0.16922256919E+02  0.24999130172E+00 0.  0.
        -13    1    4    4    0    0  0.28025476034E+02 -0.74840905016E+01 -0.12775778906E+02  0.31696537180E+02  0.10500000000E+00 0. -1.
         13    1    4    4    0    0  0.12421959034E+02 -0.33440781515E+01 -0.57357287141E+01  0.14085365945E+02  0.10500000000E+00 0.  1.
    3000001    1    5    5    0    0 -0.41199460311E+02  0.90187370311E+01  0.17251013664E+02  0.45577742594E+02  0.10000000000E+01 0.  1.
        -13    1    6    6    0    0 -0.52588936992E+01  0.39348618889E+00  0.46421370562E+01  0.70264682287E+01  0.10500000000E+00 0. -1.
         13    1    6    6    0    0 -0.73145100402E+01  0.63379846966E+00  0.66341428365E+01  0.98957886903E+01  0.10500000000E+00 0.  1.
</event>
<event>
11    0  0.3448258E-009  0.9118800E+02  0.7816531E-02  0.1126479E+00
         25   -1    0    0    0    0  0.00000000000E+00  0.00000000000E+00  0.99999998245E-14  0.12500000000E+03  0.12500000000E+03 0.  0.
    3000001    1    3    3    0    0  0.10574604074E+02  0.10040676782E+02 -0.16558074198E+02  0.22086359200E+02  0.10000000000E+01 0.  1.
    1000022    2    1    0    0    0  0.22658723935E+02  0.19728115682E+02 -0.53885376212E+02  0.62500000446E+02  0.99999983730E+01 0.  0.
    3000022    2    3    3    0    0  0.12084119861E+02  0.96874389000E+01 -0.37327302015E+02  0.40413641246E+02  0.24999563681E+00 0.  0.
    1000022    2    1    0    0    0 -0.22658723935E+02 -0.19728115682E+02  0.53885376212E+02  0.62499999554E+02  0.99999928012E+01 0.  0.
    3000022    2    5    5    0    0 -0.23026277044E+01 -0.63196490776E+01  0.74082650076E+01  0.10009243260E+02  0.25000280527E+00 0.  0.
        -13    1    4    4    0    0  0.72248722414E+01  0.57693591933E+01 -0.22441054484E+02  0.24271304781E+02  0.10500000000E+00 0.  1.
         13    1    4    4    0    0  0.48592476193E+01  0.39180797067E+01 -0.14886247530E+02  0.16142336465E+02  0.10500000000E+00 0. -1.
    3000001    1    5    5    0    0 -0.20356096231E+02 -0.13408466604E+02  0.46477111205E+02  0.52490756294E+02  0.10000000000E+01 0. -1.
        -13    1    6    6    0    0 -0.12100896197E+01 -0.32373107382E+01  0.38975884463E+01  0.52102512800E+01  0.10500000000E+00 0.  1.
         13    1    6    6    0    0 -0.10925380847E+01 -0.30823383394E+01  0.35106765613E+01  0.47989919799E+01  0.10500000000E+00 0. -1.
</event>
<event>
11    0  0.3448258E-009  0.9118800E+02  0.7816531E-02  0.1126479E+00
         25   -1    0    0    0    0  0.00000000000E+00  0.00000000000E+00  0.99999998245E-14  0.12500000000E+03  0.12500000000E+03 0.  0.
    3000001    1    3    3    0    0  0.38970735936E+02 -0.11362745334E+02  0.21295963748E+02  0.45851371985E+02  0.10000000000E+01 0.  1.
    1000022    2    1    0    0    0  0.55156925371E+02 -0.11388766185E+02  0.25184516549E+02  0.62499998134E+02  0.99999740652E+01 0.  0.
    3000022    2    3    3    0    0  0.16186189435E+02 -0.26020851459E-01  0.38885528016E+01  0.16648626149E+02  0.25000852413E+00 0.  0.
    1000022    2    1    0    0    0 -0.55156925371E+02  0.11388766185E+02 -0.25184516549E+02  0.62500001866E+02  0.99999973949E+01 0.  0.
    3000022    2    5    5    0    0 -0.79298734379E+01  0.29947319535E+01 -0.37773989454E+00  0.84886103554E+01  0.25001224643E+00 0.  0.
        -13    1    4    4    0    0  0.52238700991E+01 -0.20633464523E-01  0.13064429123E+01  0.53858205164E+01  0.10500000000E+00 0.  1.
         13    1    4    4    0    0  0.10962319335E+02 -0.53873869363E-02  0.25821098892E+01  0.11262805633E+02  0.10500000000E+00 0. -1.
    3000001    1    5    5    0    0 -0.47227051933E+02  0.83940342316E+01 -0.24806776655E+02  0.54011391511E+02  0.10000000000E+01 0.  1.
        -13    1    6    6    0    0 -0.47114690947E+01  0.17435184013E+01 -0.16951373369E+00  0.50276791218E+01  0.10500000000E+00 0. -1.
         13    1    6    6    0    0 -0.32184043432E+01  0.12512135522E+01 -0.20822616085E+00  0.34609312336E+01  0.10500000000E+00 0.  1.
</event>
<event>
11    0  0.3448258E-009  0.9118800E+02  0.7816531E-02  0.1126479E+00
         25   -1    0    0    0    0  0.00000000000E+00  0.00000000000E+00  0.99999998245E-14  0.12500000000E+03  0.12500000000E+03 0.  0.
    3000001    1    3    3    0    0  0.10768931120E+02  0.79951550800E+01 -0.12264941890E+02  0.18202230132E+02  0.10000000000E+01 0.  1.
    1000022    2    1    0    0    0  0.39922156880E+02  0.12751527539E+02 -0.45275489509E+02  0.62499999924E+02  0.99999987816E+01 0.  0.
    3000022    2    3    3    0    0  0.29153225760E+02  0.47563724586E+01 -0.33010547620E+02  0.44297769792E+02  0.25000637669E+00 0.  0.
    1000022    2    1    0    0    0 -0.39922156880E+02 -0.12751527539E+02  0.45275489509E+02  0.62500000076E+02  0.99999997323E+01 0.  0.
    3000022    2    5    5    0    0 -0.32005962855E+02 -0.10552136789E+02  0.41336419662E+02  0.53333773002E+02  0.25000608188E+00 0.  0.
        -13    1    4    4    0    0  0.17400383345E+02  0.28100291841E+01 -0.19782140398E+02  0.26495541290E+02  0.10500000000E+00 0.  1.
         13    1    4    4    0    0  0.11752842416E+02  0.19463432745E+01 -0.13228407222E+02  0.17802228502E+02  0.10500000000E+00 0. -1.
    3000001    1    5    5    0    0 -0.79161940250E+01 -0.21993907500E+01  0.39390698474E+01  0.91662270742E+01  0.10000000000E+01 0.  1.
        -13    1    6    6    0    0 -0.11538411339E+02 -0.38591119937E+01  0.14882676505E+02  0.19223235070E+02  0.10500000000E+00 0. -1.
         13    1    6    6    0    0 -0.20467551516E+02 -0.66930247950E+01  0.26453743157E+02  0.34110537932E+02  0.10500000000E+00 0.  1.
</event>
<event>
11    0  0.3448258E-009  0.9118800E+02  0.7816531E-02  0.1126479E+00
         25   -1    0    0    0    0  0.00000000000E+00  0.00000000000E+00  0.99999998245E-14  0.12500000000E+03  0.12500000000E+03 0.  0.
    3000001    1    3    3    0    0 -0.12750340639E+02  0.43031093205E+02 -0.16914477743E+02  0.47972343346E+02  0.10000000000E+01 0.  1.
    1000022    2    1    0    0    0 -0.13002772380E+02  0.57497439041E+02 -0.18199524966E+02  0.62499997285E+02  0.99999682932E+01 0.  0.
    3000022    2    3    3    0    0 -0.25243174062E+00  0.14466345836E+02 -0.12850472233E+01  0.14527653939E+02  0.24999795847E+00 0.  0.
    1000022    2    1    0    0    0  0.13002772380E+02 -0.57497439041E+02  0.18199524966E+02  0.62500002715E+02  0.10000002229E+02 0.  0.
    3000022    2    5    5    0    0  0.66014561792E+01 -0.37358505825E+02  0.16193672945E+02  0.41249663364E+02  0.25000618512E+00 0.  0.
        -13    1    4    4    0    0 -0.17033365917E+00  0.80469701033E+01 -0.77429098559E+00  0.80866119562E+01  0.10500000000E+00 0.  1.
         13    1    4    4    0    0 -0.82098081450E-01  0.64193757325E+01 -0.51075623775E+00  0.64410419828E+01  0.10500000000E+00 0. -1.
    3000001    1    5    5    0    0  0.64013162005E+01 -0.20138933216E+02  0.20058520209E+01  0.21250339350E+02  0.10000000000E+01 0.  1.
        -13    1    6    6    0    0  0.37186474183E+01 -0.21223185660E+02  0.91342821222E+01  0.23402950307E+02  0.10500000000E+00 0.  1.
         13    1    6    6    0    0  0.28828087609E+01 -0.16135320164E+02  0.70593908232E+01  0.17846713057E+02  0.10500000000E+00 0. -1.
</event>
<event>
11    0  0.3448258E-009  0.9118800E+02  0.7816531E-02  0.1126479E+00
         25   -1    0    0    0    0  0.00000000000E+00  0.00000000000E+00  0.99999998245E-14  0.12500000000E+03  0.12500000000E+03 0.  0.
    3000001    1    3    3    0    0  0.92246215274E-01  0.15538668061E+01 -0.13039609206E+01  0.22634764186E+01  0.10000000000E+01 0.  1.
    1000022    2    1    0    0    0 -0.38446319005E+02  0.43725967203E+02 -0.20400263852E+02  0.62499996470E+02  0.99999570343E+01 0.  0.
    3000022    2    3    3    0    0 -0.38538565220E+02  0.42172100397E+02 -0.19096302931E+02  0.60236520051E+02  0.25000233499E+00 0.  0.
    1000022    2    1    0    0    0  0.38446319005E+02 -0.43725967203E+02  0.20400263852E+02  0.62500003530E+02  0.10000001160E+02 0.  0.
    3000022    2    5    5    0    0  0.14609884055E+02 -0.21906219773E+02  0.54986333461E+01  0.26900346217E+02  0.24996225582E+00 0.  0.
        -13    1    4    4    0    0 -0.28149678303E+02  0.30750531548E+02 -0.13939256350E+02  0.43958087670E+02  0.10500000000E+00 0.  1.
         13    1    4    4    0    0 -0.10388886917E+02  0.11421568849E+02 -0.51570465809E+01  0.16278432381E+02  0.10500000000E+00 0. -1.
    3000001    1    5    5    0    0  0.23836434950E+02 -0.21819747431E+02  0.14901630506E+02  0.35599657313E+02  0.10000000000E+01 0.  1.
        -13    1    6    6    0    0  0.41877821119E+01 -0.62323809330E+01  0.15352098654E+01  0.76647234419E+01  0.10500000000E+00 0. -1.
         13    1    6    6    0    0  0.10422101943E+02 -0.15673838840E+02  0.39634234807E+01  0.19235622775E+02  0.10500000000E+00 0.  1.
</event>
<event>
11    0  0.3448258E-009  0.9118800E+02  0.7816531E-02  0.1126479E+00
         25   -1    0    0    0    0  0.00000000000E+00  0.00000000000E+00  0.99999998245E-14  0.12500000000E+03  0.12500000000E+03 0.  0.
    3000001    1    3    3    0    0  0.29785642093E+01  0.20640345819E+00  0.14139308213E+01  0.34516152022E+01  0.10000000000E+01 0. -1.
    1000022    2    1    0    0    0  0.60079260636E+02 -0.11519080442E+02 -0.80026743217E+01  0.62499997593E+02  0.10000006500E+02 0.  0.
    3000022    2    3    3    0    0  0.57100696427E+02 -0.11725483900E+02 -0.94166051429E+01  0.59048382391E+02  0.25001083415E+00 0.  0.
    1000022    2    1    0    0    0 -0.60079260636E+02  0.11519080442E+02  0.80026743217E+01  0.62500002407E+02  0.10000036588E+02 0.  0.
    3000022    2    5    5    0    0 -0.48126171336E+02  0.13069400151E+02  0.57927172320E+01  0.50205135781E+02  0.24999612964E+00 0.  0.
        -13    1    4    4    0    0  0.41819405957E+02 -0.85707699429E+01 -0.69273162890E+01  0.43247191214E+02  0.10500000000E+00 0. -1.
         13    1    4    4    0    0  0.15281290470E+02 -0.31547139569E+01 -0.24892888539E+01  0.15801191176E+02  0.10500000000E+00 0.  1.
    3000001    1    5    5    0    0 -0.11953089300E+02 -0.15503197095E+01  0.22099570896E+01  0.12294866626E+02  0.10000000000E+01 0.  1.
        -13    1    6    6    0    0 -0.28768740117E+02  0.77521503585E+01  0.34361694597E+01  0.29992574559E+02  0.10500000000E+00 0.  1.
         13    1    6    6    0    0 -0.19357431219E+02  0.53172497926E+01  0.23565477723E+01  0.20212561222E+02  0.10500000000E+00 0. -1.
</event>
<event>
11    0  0.3448258E-009  0.9118800E+02  0.7816531E-02  0.1126479E+00
         25   -1    0    0    0    0  0.00000000000E+00  0.00000000000E+00  0.99999998245E-14  0.12500000000E+03  0.12500000000E+03 0.  0.
    3000001    1    3    3    0    0  0.38245967797E+02  0.38433023655E+01 -0.25549438406E+01  0.38536382340E+02  0.10000000000E+01 0.  1.
    1000022    2    1    0    0    0  0.59877103104E+02  0.13362824664E+02 -0.65128614551E+01  0.62499999179E+02  0.99999986943E+01 0.  0.
    3000022    2    3    3    0    0  0.21631135307E+02  0.95195222986E+01 -0.39579176144E+01  0.23963616839E+02  0.25000141078E+00 0.  0.
    1000022    2    1    0    0    0 -0.59877103104E+02 -0.13362824664E+02  0.65128614551E+01  0.62500000821E+02  0.10000008955E+02 0.  0.
    3000022    2    5    5    0    0 -0.98728974750E+01  0.10671583789E+00 -0.18047934286E+01  0.10040183010E+02  0.25000547563E+00 0.  0.
        -13    1    4    4    0    0  0.16561263512E+02  0.72729189096E+01 -0.30295013255E+01  0.18340111828E+02  0.10500000000E+00 0. -1.
         13    1    4    4    0    0  0.50698717951E+01  0.22466033890E+01 -0.92841628894E+00  0.56235050112E+01  0.10500000000E+00 0.  1.
    3000001    1    5    5    0    0 -0.50004205629E+02 -0.13469540502E+02  0.83176548836E+01  0.52459817811E+02  0.10000000000E+01 0.  1.
        -13    1    6    6    0    0 -0.70410638731E+01  0.93121557065E-01 -0.13259192096E+01  0.71661941670E+01  0.10500000000E+00 0. -1.
         13    1    6    6    0    0 -0.28318336019E+01  0.13594280820E-01 -0.47887421896E+00  0.28739888432E+01  0.10500000000E+00 0.  1.
</event>
<event>
11    0  0.3448258E-009  0.9118800E+02  0.7816531E-02  0.1126479E+00
         25   -1    0    0    0    0  0.00000000000E+00  0.00000000000E+00  0.99999998245E-14  0.12500000000E+03  0.12500000000E+03 0.  0.
    3000001    1    3    3    0    0  0.32484413047E+02 -0.14311689919E+02 -0.16421945335E+02  0.39124696139E+02  0.10000000000E+01 0.  1.
    1000022    2    1    0    0    0  0.46652528345E+02 -0.26181848384E+02 -0.30729502604E+02  0.62500000440E+02  0.10000006948E+02 0.  0.
    3000022    2    3    3    0    0  0.14168115298E+02 -0.11870158465E+02 -0.14307557269E+02  0.23375304302E+02  0.25000624377E+00 0.  0.
    1000022    2    1    0    0    0 -0.46652528345E+02  0.26181848384E+02  0.30729502604E+02  0.62499999560E+02  0.10000001444E+02 0.  0.
    3000022    2    5    5    0    0 -0.26601187925E+02  0.97691263888E+01  0.13702979273E+02  0.31478455551E+02  0.24998701210E+00 0.  0.
        -13    1    4    4    0    0  0.66368559479E+01 -0.56479895958E+01 -0.67540971208E+01  0.11026173238E+02  0.10500000000E+00 0. -1.
         13    1    4    4    0    0  0.75312593503E+01 -0.62221688689E+01 -0.75534601481E+01  0.12349131064E+02  0.10500000000E+00 0.  1.
    3000001    1    5    5    0    0 -0.20051340420E+02  0.16412721995E+02  0.17026523331E+02  0.31021544009E+02  0.10000000000E+01 0.  1.
        -13    1    6    6    0    0 -0.14555764672E+02  0.53456875735E+01  0.74238655102E+01  0.17192191976E+02  0.10500000000E+00 0.  1.
         13    1    6    6    0    0 -0.12045423253E+02  0.44234388152E+01  0.62791137630E+01  0.14286263575E+02  0.10500000000E+00 0. -1.
</event>
<event>
11    0  0.3448258E-009  0.9118800E+02  0.7816531E-02  0.1126479E+00
         25   -1    0    0    0    0  0.00000000000E+00  0.00000000000E+00  0.99999998245E-14  0.12500000000E+03  0.12500000000E+03 0.  0.
    3000001    1    3    3    0    0  0.23759685069E+02 -0.28472459859E+02  0.10944143533E+02  0.38677873296E+02  0.10000000000E+01 0. -1.
    1000022    2    1    0    0    0  0.36603443745E+02 -0.48530187832E+02  0.10547971324E+02  0.62500006704E+02  0.99999956948E+01 0.  0.
    3000022    2    3    3    0    0  0.12843758676E+02 -0.20057727973E+02 -0.39617220958E+00  0.23822133408E+02  0.24999863535E+00 0.  0.
    1000022    2    1    0    0    0 -0.36603443745E+02  0.48530187832E+02 -0.10547971324E+02  0.62499993296E+02  0.99999118992E+01 0.  0.
    3000022    2    5    5    0    0 -0.19575757706E+02  0.20779525853E+02 -0.10446862893E+01  0.28568389170E+02  0.25001182626E+00 0.  0.
        -13    1    4    4    0    0  0.52306873020E+01 -0.80839425521E+01 -0.11608431319E+00  0.96298866767E+01  0.10500000000E+00 0.  1.
         13    1    4    4    0    0  0.76130713737E+01 -0.11973785421E+02 -0.28008789639E+00  0.14192246731E+02  0.10500000000E+00 0. -1.
    3000001    1    5    5    0    0 -0.17027686039E+02  0.27750661979E+02 -0.95032850342E+01  0.33931604126E+02  0.10000000000E+01 0. -1.
        -13    1    6    6    0    0 -0.57097877318E+01  0.61183285407E+01 -0.32566557373E+00  0.83757210520E+01  0.10500000000E+00 0. -1.
         13    1    6    6    0    0 -0.13865969974E+02  0.14661197313E+02 -0.71902071554E+00  0.20192668118E+02  0.10500000000E+00 0.  1.
</event>
<event>
11    0  0.3448258E-009  0.9118800E+02  0.7816531E-02  0.1126479E+00
         25   -1    0    0    0    0  0.00000000000E+00  0.00000000000E+00  0.99999998245E-14  0.12500000000E+03  0.12500000000E+03 0.  0.
    3000001    1    3    3    0    0  0.15199406190E+01 -0.10383657258E+01 -0.20087028595E+01  0.29022939278E+01  0.10000000000E+01 0.  1.
    1000022    2    1    0    0    0 -0.26148273833E+01 -0.41167661990E+02 -0.45876323710E+02  0.62500006835E+02  0.10000003062E+02 0.  0.
    3000022    2    3    3    0    0 -0.41347680023E+01 -0.40129296264E+02 -0.43867620851E+02  0.59597712907E+02  0.24999914083E+00 0.  0.
    1000022    2    1    0    0    0  0.26148273833E+01  0.41167661990E+02  0.45876323710E+02  0.62499993165E+02  0.99999176244E+01 0.  0.
    3000022    2    5    5    0    0  0.16739388537E+01  0.28974689756E+02  0.38388700985E+02  0.48125768414E+02  0.25000873650E+00 0.  0.
        -13    1    4    4    0    0 -0.22789876809E+01 -0.22758584640E+02 -0.24876655267E+02  0.33793578709E+02  0.10500000000E+00 0.  1.
         13    1    4    4    0    0 -0.18557803213E+01 -0.17370711624E+02 -0.18990965584E+02  0.25804134198E+02  0.10500000000E+00 0. -1.
    3000001    1    5    5    0    0  0.94088852953E+00  0.12192972234E+02  0.74876227256E+01  0.14374224751E+02  0.10000000000E+01 0.  1.
        -13    1    6    6    0    0  0.57744266221E+00  0.94076222451E+01  0.12532221602E+02  0.15681339216E+02  0.10500000000E+00 0. -1.
         13    1    6    6    0    0  0.10964961915E+01  0.19567067511E+02  0.25856479382E+02  0.32444429197E+02  0.10500000000E+00 0.  1.
</event>
<event>
11    0  0.3448258E-009  0.9118800E+02  0.7816531E-02  0.1126479E+00
         25   -1    0    0    0    0  0.00000000000E+00  0.00000000000E+00  0.99999998245E-14  0.12500000000E+03  0.12500000000E+03 0.  0.
    3000001    1    3    3    0    0  0.22094661611E+02 -0.19335389927E+02  0.42602135719E+00  0.29380484502E+02  0.10000000000E+01 0.  1.
    1000022    2    1    0    0    0  0.45217415266E+02 -0.40442143789E+02  0.11228015150E+02  0.62500000935E+02  0.10000007754E+02 0.  0.
    3000022    2    3    3    0    0  0.23122753655E+02 -0.21106753861E+02  0.10801993793E+02  0.33119516433E+02  0.25000744602E+00 0.  0.
    1000022    2    1    0    0    0 -0.45217415266E+02  0.40442143789E+02 -0.11228015150E+02  0.62499999065E+02  0.99999960698E+01 0.  0.
    3000022    2    5    5    0    0 -0.19483316077E+01  0.24222197905E+01 -0.29629688016E+01  0.43017240686E+01  0.25000215155E+00 0.  0.
        -13    1    4    4    0    0  0.54107769310E+01 -0.49376362722E+01  0.25416131484E+01  0.77541976600E+01  0.10500000000E+00 0.  1.
         13    1    4    4    0    0  0.17711976724E+02 -0.16169117589E+02  0.82603806444E+01  0.25365318773E+02  0.10500000000E+00 0. -1.
    3000001    1    5    5    0    0 -0.43269083658E+02  0.38019923998E+02 -0.82650463483E+01  0.58198274997E+02  0.10000000000E+01 0. -1.
        -13    1    6    6    0    0 -0.13293025690E+01  0.16054867523E+01 -0.19228223981E+01  0.28377639096E+01  0.10500000000E+00 0. -1.
         13    1    6    6    0    0 -0.61902903865E+00  0.81673303816E+00 -0.10401464035E+01  0.14639601590E+01  0.10500000000E+00 0.  1.
</event>
<event>
11    0  0.3448258E-009  0.9118800E+02  0.7816531E-02  0.1126479E+00
         25   -1    0    0    0    0  0.00000000000E+00  0.00000000000E+00  0.99999998245E-14  0.12500000000E+03  0.12500000000E+03 0.  0.
    3000001    1    3    3    0    0  0.26104114117E+02  0.40845962430E+02  0.68925344672E+01  0.48972690881E+02  0.10000000000E+01 0.  1.
    1000022    2    1    0    0    0  0.32078569302E+02  0.52565735754E+02  0.37495256449E+01  0.62500004059E+02  0.10000019052E+02 0.  0.
    3000022    2    3    3    0    0  0.59744551846E+01  0.11719773323E+02 -0.31430088223E+01  0.13527313178E+02  0.24999173221E+00 0.  0.
    1000022    2    1    0    0    0 -0.32078569302E+02 -0.52565735754E+02 -0.37495256449E+01  0.62499995941E+02  0.99999683164E+01 0.  0.
    3000022    2    5    5    0    0 -0.28230112732E+02 -0.38684306708E+02 -0.17470895791E+01  0.47922120907E+02  0.24999978011E+00 0.  0.
        -13    1    4    4    0    0  0.15469153915E+01  0.30810370204E+01 -0.84948050374E+00  0.35522357011E+01  0.10500000000E+00 0. -1.
         13    1    4    4    0    0  0.44275397930E+01  0.86387363028E+01 -0.22935283185E+01  0.99750774772E+01  0.10500000000E+00 0.  1.
    3000001    1    5    5    0    0 -0.38484565698E+01 -0.13881429045E+02 -0.20024360658E+01  0.14577875034E+02  0.10000000000E+01 0. -1.
        -13    1    6    6    0    0 -0.21700735467E+02 -0.29720281101E+02 -0.13426929382E+01  0.36824324540E+02  0.10500000000E+00 0. -1.
         13    1    6    6    0    0 -0.65293772645E+01 -0.89640256077E+01 -0.40439664093E+00  0.11097796367E+02  0.10500000000E+00 0.  1.
</event>
<event>
11    0  0.3448258E-009  0.9118800E+02  0.7816531E-02  0.1126479E+00
         25   -1    0    0    0    0  0.00000000000E+00  0.00000000000E+00  0.99999998245E-14  0.12500000000E+03  0.12500000000E+03 0.  0.
    3000001    1    3    3    0    0  0.15022463698E+01 -0.20945583961E+01  0.55001320734E+02  0.55070765398E+02  0.10000000000E+01 0. -1.
    1000022    2    1    0    0    0 -0.26854691220E+00 -0.52860747494E+01  0.61467350665E+02  0.62500000244E+02  0.10000006447E+02 0.  0.
    3000022    2    3    3    0    0 -0.17707932820E+01 -0.31915163533E+01  0.64660299311E+01  0.74292348455E+01  0.25000367607E+00 0.  0.
    1000022    2    1    0    0    0  0.26854691220E+00  0.52860747494E+01 -0.61467350665E+02  0.62499999756E+02  0.10000003401E+02 0.  0.
    3000022    2    5    5    0    0  0.34318185967E+01  0.14581988332E+01 -0.47423884975E+02  0.47570905665E+02  0.24995397566E+00 0.  0.
        -13    1    4    4    0    0 -0.11302567007E+01 -0.19870820741E+01  0.41574606635E+01  0.47456800932E+01  0.10500000000E+00 0. -1.
         13    1    4    4    0    0 -0.64053658136E+00 -0.12044342792E+01  0.23085692676E+01  0.26835547522E+01  0.10500000000E+00 0.  1.
    3000001    1    5    5    0    0 -0.31632716845E+01  0.38278759162E+01 -0.14043465691E+02  0.14929094091E+02  0.10000000000E+01 0. -1.
        -13    1    6    6    0    0  0.23470893007E+01  0.94327750116E+00 -0.32281809197E+02  0.32380933135E+02  0.10500000000E+00 0.  1.
         13    1    6    6    0    0  0.10847292960E+01  0.51492133201E+00 -0.15142075777E+02  0.15189972530E+02  0.10500000000E+00 0. -1.
</event>
<event>
11    0  0.3448258E-009  0.9118800E+02  0.7816531E-02  0.1126479E+00
         25   -1    0    0    0    0  0.00000000000E+00  0.00000000000E+00  0.99999998245E-14  0.12500000000E+03  0.12500000000E+03 0.  0.
    3000001    1    3    3    0    0 -0.27028177796E+01  0.13134025484E+01  0.17447409504E+00  0.31718592991E+01  0.10000000000E+01 0.  1.
    1000022    2    1    0    0    0 -0.28501517052E+02  0.54501934239E+02 -0.48428019673E+01  0.62500000579E+02  0.10000001571E+02 0.  0.
    3000022    2    3    3    0    0 -0.25798699273E+02  0.53188531690E+02 -0.50172760624E+01  0.59328141280E+02  0.25000217149E+00 0.  0.
    1000022    2    1    0    0    0  0.28501517052E+02 -0.54501934239E+02  0.48428019673E+01  0.62499999421E+02  0.99999943374E+01 0.  0.
    3000022    2    5    5    0    0  0.27249295298E+01 -0.71016002627E+01  0.38428162562E+01  0.85257083491E+01  0.24999768339E+00 0.  0.
        -13    1    4    4    0    0 -0.18485177474E+02  0.38153394348E+02 -0.35620208038E+01  0.42545062037E+02  0.10500000000E+00 0. -1.
         13    1    4    4    0    0 -0.73135217984E+01  0.15035137342E+02 -0.14552552586E+01  0.16783079242E+02  0.10500000000E+00 0.  1.
    3000001    1    5    5    0    0  0.25776587523E+02 -0.47400333976E+02  0.99998571111E+00  0.53974291072E+02  0.10000000000E+01 0. -1.
        -13    1    6    6    0    0  0.17378090084E+01 -0.44001845141E+01  0.24334539356E+01  0.53211208373E+01  0.10500000000E+00 0.  1.
         13    1    6    6    0    0  0.98712052141E+00 -0.27014157486E+01  0.14093623206E+01  0.32045875119E+01  0.10500000000E+00 0. -1.
</event>
<event>
11    0  0.3448258E-009  0.9118800E+02  0.7816531E-02  0.1126479E+00
         25   -1    0    0    0    0  0.00000000000E+00  0.00000000000E+00  0.99999998245E-14  0.12500000000E+03  0.12500000000E+03 0.  0.
    3000001    1    3    3    0    0 -0.20544687867E+00 -0.60825353001E+02  0.11254860574E+02  0.61866288580E+02  0.10000000000E+01 0. -1.
    1000022    2    1    0    0    0  0.35206821813E+00 -0.60670704255E+02  0.11188908853E+02  0.62499999790E+02  0.99999992830E+01 0.  0.
    3000022    2    3    3    0    0  0.55751509680E+00  0.15464874588E+00 -0.65951720814E-01  0.63371121069E+00  0.25000190263E+00 0.  0.
    1000022    2    1    0    0    0 -0.35206821813E+00  0.60670704255E+02 -0.11188908853E+02  0.62500000210E+02  0.10000001902E+02 0.  0.
    3000022    2    5    5    0    0 -0.25918118988E+01  0.42725811164E+01 -0.14968798458E+01  0.52226035196E+01  0.24999986911E+00 0.  0.
        -13    1    4    4    0    0  0.36920114358E+00  0.41742337994E-01 -0.25056896540E-01  0.38691698756E+00  0.10500000000E+00 0.  1.
         13    1    4    4    0    0  0.18831395322E+00  0.11290640788E+00 -0.40894824274E-01  0.24679422313E+00  0.10500000000E+00 0. -1.
    3000001    1    5    5    0    0  0.22397436806E+01  0.56398123138E+02 -0.96920290075E+01  0.57277396690E+02  0.10000000000E+01 0. -1.
        -13    1    6    6    0    0 -0.16614053988E+01  0.27513077124E+01 -0.90241403639E+00  0.33399607963E+01  0.10500000000E+00 0. -1.
         13    1    6    6    0    0 -0.93040649995E+00  0.15212734040E+01 -0.59446580940E+00  0.18826427233E+01  0.10500000000E+00 0.  1.
</event>
<event>
11    0  0.3448258E-009  0.9118800E+02  0.7816531E-02  0.1126479E+00
         25   -1    0    0    0    0  0.00000000000E+00  0.00000000000E+00  0.99999998245E-14  0.12500000000E+03  0.12500000000E+03 0.  0.
    3000001    1    3    3    0    0 -0.25658871972E+02 -0.21024166100E+02 -0.75448748845E+01  0.34034077160E+02  0.10000000000E+01 0. -1.
    1000022    2    1    0    0    0 -0.44008827162E+02 -0.37089740539E+02 -0.22222158766E+02  0.62499998893E+02  0.99999899988E+01 0.  0.
    3000022    2    3    3    0    0 -0.18349955190E+02 -0.16065574439E+02 -0.14677283881E+02  0.28465921733E+02  0.25000093567E+00 0.  0.
    1000022    2    1    0    0    0  0.44008827162E+02  0.37089740539E+02  0.22222158766E+02  0.62500001107E+02  0.10000003835E+02 0.  0.
    3000022    2    5    5    0    0  0.46206989122E+01  0.54194738141E+01  0.62687571580E+01  0.94911201121E+01  0.24997963310E+00 0.  0.
        -13    1    4    4    0    0 -0.10256935163E+02 -0.90212028491E+01 -0.81520572844E+01  0.15907667420E+02  0.10500000000E+00 0.  1.
         13    1    4    4    0    0 -0.80930200269E+01 -0.70443715900E+01 -0.65252265971E+01  0.12558254313E+02  0.10500000000E+00 0. -1.
    3000001    1    5    5    0    0  0.39388128250E+02  0.31670266725E+02  0.15953401608E+02  0.53008880995E+02  0.10000000000E+01 0.  1.
        -13    1    6    6    0    0  0.13096714307E+01  0.15640705518E+01  0.17469915760E+01  0.26878542583E+01  0.10500000000E+00 0. -1.
         13    1    6    6    0    0  0.33110274815E+01  0.38554032623E+01  0.45217655820E+01  0.68032658537E+01  0.10500000000E+00 0.  1.
</event>
<event>
11    0  0.3448258E-009  0.9118800E+02  0.7816531E-02  0.1126479E+00
         25   -1    0    0    0    0  0.00000000000E+00  0.00000000000E+00  0.99999998245E-14  0.12500000000E+03  0.12500000000E+03 0.  0.
    3000001    1    3    3    0    0  0.60832384921E+01  0.82016490447E+01  0.25294161746E+01  0.10567439793E+02  0.10000000000E+01 0. -1.
    1000022    2    1    0    0    0  0.49920219137E+02  0.32230155121E+02  0.16596345045E+02  0.62500001468E+02  0.10000016842E+02 0.  0.
    3000022    2    3    3    0    0  0.43836980645E+02  0.24028506076E+02  0.14066928871E+02  0.51932561675E+02  0.24999582468E+00 0.  0.
    1000022    2    1    0    0    0 -0.49920219137E+02 -0.32230155121E+02 -0.16596345045E+02  0.62499998532E+02  0.99999984861E+01 0.  0.
    3000022    2    5    5    0    0 -0.46242501667E+02 -0.30429682728E+02 -0.12778166001E+02  0.56812661910E+02  0.24995124008E+00 0.  0.
        -13    1    4    4    0    0  0.29217614100E+02  0.16015969669E+02  0.93201312084E+01  0.34598498940E+02  0.10500000000E+00 0. -1.
         13    1    4    4    0    0  0.14619366545E+02  0.80125364080E+01  0.47467976622E+01  0.17334062735E+02  0.10500000000E+00 0.  1.
    3000001    1    5    5    0    0 -0.36777174707E+01 -0.18004723933E+01 -0.38181790445E+01  0.56873366218E+01  0.10000000000E+01 0. -1.
        -13    1    6    6    0    0 -0.12438236680E+02 -0.82039678787E+01 -0.34721774274E+01  0.15299734042E+02  0.10500000000E+00 0. -1.
         13    1    6    6    0    0 -0.33804264986E+02 -0.22225714849E+02 -0.93059885734E+01  0.41512927868E+02  0.10500000000E+00 0.  1.
</event>
<event>
11    0  0.3448258E-009  0.9118800E+02  0.7816531E-02  0.1126479E+00
         25   -1    0    0    0    0  0.00000000000E+00  0.00000000000E+00  0.99999998245E-14  0.12500000000E+03  0.12500000000E+03 0.  0.
    3000001    1    3    3    0    0 -0.48593187582E+00 -0.43559290451E+01  0.13411894542E+01  0.46913789855E+01  0.10000000000E+01 0.  1.
    1000022    2    1    0    0    0 -0.31928418992E+01 -0.41290818480E+02  0.45728809844E+02  0.62500000889E+02  0.10000006557E+02 0.  0.
    3000022    2    3    3    0    0 -0.27069100234E+01 -0.36934889435E+02  0.44387620390E+02  0.57808621903E+02  0.25000596308E+00 0.  0.
    1000022    2    1    0    0    0  0.31928418992E+01  0.41290818480E+02 -0.45728809844E+02  0.62499999111E+02  0.99999954476E+01 0.  0.
    3000022    2    5    5    0    0  0.41826800406E+00  0.38253397793E+02 -0.39698861923E+02  0.55132200480E+02  0.25000198406E+00 0.  0.
        -13    1    4    4    0    0 -0.16808079019E+01 -0.23635340290E+02  0.28442491549E+02  0.37019464830E+02  0.10500000000E+00 0. -1.
         13    1    4    4    0    0 -0.10261021215E+01 -0.13299549146E+02  0.15945128841E+02  0.20789157073E+02  0.10500000000E+00 0.  1.
    3000001    1    5    5    0    0  0.27745738951E+01  0.30374206877E+01 -0.60299479218E+01  0.73677986314E+01  0.10000000000E+01 0.  1.
        -13    1    6    6    0    0  0.24868246658E+00  0.17756143916E+02 -0.18484438926E+02  0.25632557366E+02  0.10500000000E+00 0. -1.
         13    1    6    6    0    0  0.16958553748E+00  0.20497253877E+02 -0.21214422997E+02  0.29499643114E+02  0.10500000000E+00 0.  1.
</event>
<event>
11    0  0.3448258E-009  0.9118800E+02  0.7816531E-02  0.1126479E+00
         25   -1    0    0    0    0  0.00000000000E+00  0.00000000000E+00  0.99999998245E-14  0.12500000000E+03  0.12500000000E+03 0.  0.
    3000001    1    3    3    0    0  0.21330409956E+01 -0.20937499427E+02 -0.95362670932E+01  0.23127237972E+02  0.10000000000E+01 0. -1.
    1000022    2    1    0    0    0 -0.62561887523E+01 -0.57563374072E+02 -0.21297130538E+02  0.62499998521E+02  0.10000005686E+02 0.  0.
    3000022    2    3    3    0    0 -0.83892297480E+01 -0.36625874645E+02 -0.11760863445E+02  0.39372760549E+02  0.24999000370E+00 0.  0.
    1000022    2    1    0    0    0  0.62561887523E+01  0.57563374072E+02  0.21297130538E+02  0.62500001479E+02  0.10000024170E+02 0.  0.
    3000022    2    5    5    0    0 -0.24931674231E+01  0.15547724827E+02  0.71981336656E+01  0.17315405344E+02  0.25000577178E+00 0.  0.
        -13    1    4    4    0    0 -0.61800124719E+01 -0.26969678943E+02 -0.86950058076E+01  0.29002935842E+02  0.10500000000E+00 0.  1.
         13    1    4    4    0    0 -0.22092172760E+01 -0.96561957026E+01 -0.30658576370E+01  0.10369824708E+02  0.10500000000E+00 0. -1.
    3000001    1    5    5    0    0  0.87493561755E+01  0.42015649246E+02  0.14098996872E+02  0.45184596134E+02  0.10000000000E+01 0. -1.
        -13    1    6    6    0    0 -0.85394056846E+00  0.52645235504E+01  0.23792848791E+01  0.58409283717E+01  0.10500000000E+00 0.  1.
         13    1    6    6    0    0 -0.16392268547E+01  0.10283201276E+02  0.48188487864E+01  0.11474476973E+02  0.10500000000E+00 0. -1.
</event>
<event>
11    0  0.3448258E-009  0.9118800E+02  0.7816531E-02  0.1126479E+00
         25   -1    0    0    0    0  0.00000000000E+00  0.00000000000E+00  0.99999998245E-14  0.12500000000E+03  0.12500000000E+03 0.  0.
    3000001    1    3    3    0    0  0.47538297603E+01  0.19598133604E+01 -0.33171528308E+00  0.52487904156E+01  0.10000000000E+01 0.  1.
    1000022    2    1    0    0    0  0.60542874302E+02 -0.32900688439E+01  0.11401131538E+02  0.62499999532E+02  0.99999979687E+01 0.  0.
    3000022    2    3    3    0    0  0.55789044542E+02 -0.52498822043E+01  0.11732846822E+02  0.57251209116E+02  0.24999339263E+00 0.  0.
    1000022    2    1    0    0    0 -0.60542874302E+02  0.32900688439E+01 -0.11401131538E+02  0.62500000468E+02  0.10000003820E+02 0.  0.
    3000022    2    5    5    0    0 -0.18122526934E+01 -0.15517536189E+01 -0.12109756444E+01  0.26872222645E+01  0.25000473748E+00 0.  0.
        -13    1    4    4    0    0  0.21424510160E+02 -0.19624305731E+01  0.44740140315E+01  0.21974726299E+02  0.10500000000E+00 0.  1.
         13    1    4    4    0    0  0.34364534382E+02 -0.32874516312E+01  0.72588327901E+01  0.35276482818E+02  0.10500000000E+00 0. -1.
    3000001    1    5    5    0    0 -0.58730621609E+02  0.48418224628E+01 -0.10190155894E+02  0.59812778204E+02  0.10000000000E+01 0. -1.
        -13    1    6    6    0    0 -0.48391975496E+00 -0.37874912818E+00 -0.29788850086E+00  0.69093544581E+00  0.10500000000E+00 0. -1.
         13    1    6    6    0    0 -0.13283329385E+01 -0.11730044907E+01 -0.91308714356E+00  0.19962868187E+01  0.10500000000E+00 0.  1.
</event>
<event>
11    0  0.3448258E-009  0.9118800E+02  0.7816531E-02  0.1126479E+00
         25   -1    0    0    0    0  0.00000000000E+00  0.00000000000E+00  0.99999998245E-14  0.12500000000E+03  0.12500000000E+03 0.  0.
    3000001    1    3    3    0    0  0.13171849777E+02  0.79337361452E+00 -0.15446511670E+02  0.20340152188E+02  0.10000000000E+01 0. -1.
    1000022    2    1    0    0    0  0.38112744694E+02  0.16294832310E+02 -0.45696250212E+02  0.62499998508E+02  0.99999831006E+01 0.  0.
    3000022    2    3    3    0    0  0.24940894916E+02  0.15501458695E+02 -0.30249738542E+02  0.42159846320E+02  0.24999800898E+00 0.  0.
    1000022    2    1    0    0    0 -0.38112744694E+02 -0.16294832310E+02  0.45696250212E+02  0.62500001492E+02  0.10000001744E+02 0.  0.
    3000022    2    5    5    0    0 -0.27491219154E+02 -0.13094621057E+02  0.39085751913E+02  0.49547903414E+02  0.24999778921E+00 0.  0.
        -13    1    4    4    0    0  0.12600110187E+02  0.78053447744E+01 -0.15360054162E+02  0.21345455550E+02  0.10500000000E+00 0. -1.
         13    1    4    4    0    0  0.12340784729E+02  0.76961139208E+01 -0.14889684380E+02  0.20814390770E+02  0.10500000000E+00 0.  1.
    3000001    1    5    5    0    0 -0.10621525540E+02 -0.32002112525E+01  0.66104982992E+01  0.12952098078E+02  0.10000000000E+01 0. -1.
        -13    1    6    6    0    0 -0.16150802985E+02 -0.77406939311E+01  0.22911302474E+02  0.29081017617E+02  0.10500000000E+00 0.  1.
         13    1    6    6    0    0 -0.11340416169E+02 -0.53539271261E+01  0.16174449439E+02  0.20466885797E+02  0.10500000000E+00 0. -1.
</event>
<event>
11    0  0.3448258E-009  0.9118800E+02  0.7816531E-02  0.1126479E+00
         25   -1    0    0    0    0  0.00000000000E+00  0.00000000000E+00  0.99999998245E-14  0.12500000000E+03  0.12500000000E+03 0.  0.
    3000001    1    3    3    0    0  0.30891952547E+02  0.31277316291E+02 -0.41649223499E+02  0.60566005850E+02  0.10000000000E+01 0. -1.
    1000022    2    1    0    0    0  0.30282099758E+02  0.32866358798E+02 -0.42532890326E+02  0.62500001876E+02  0.10000018432E+02 0.  0.
    3000022    2    3    3    0    0 -0.60985278903E+00  0.15890425072E+01 -0.88366682703E+00  0.19339960264E+01  0.24999410957E+00 0.  0.
    1000022    2    1    0    0    0 -0.30282099758E+02 -0.32866358798E+02  0.42532890326E+02  0.62499998124E+02  0.99999949802E+01 0.  0.
    3000022    2    5    5    0    0 -0.19638421005E+02 -0.27533651820E+02  0.32375536356E+02  0.46818878879E+02  0.25000601442E+00 0.  0.
        -13    1    4    4    0    0 -0.31911448414E+00  0.10002211315E+01 -0.52951755232E+00  0.11805465701E+01  0.10500000000E+00 0. -1.
         13    1    4    4    0    0 -0.29073830490E+00  0.58882137570E+00 -0.35414927471E+00  0.75344945630E+00  0.10500000000E+00 0.  1.
    3000001    1    5    5    0    0 -0.10643678753E+02 -0.53327069780E+01  0.10157353970E+02  0.15681119245E+02  0.10000000000E+01 0.  1.
        -13    1    6    6    0    0 -0.92169971602E+01 -0.13036441150E+02  0.15265515624E+02  0.22089563752E+02  0.10500000000E+00 0.  1.
         13    1    6    6    0    0 -0.10421423845E+02 -0.14497210671E+02  0.17110020732E+02  0.24729315127E+02  0.10500000000E+00 0. -1.
</event>
<event>
11    0  0.3448258E-009  0.9118800E+02  0.7816531E-02  0.1126479E+00
         25   -1    0    0    0    0  0.00000000000E+00  0.00000000000E+00  0.99999998245E-14  0.12500000000E+03  0.12500000000E+03 0.  0.
    3000001    1    3    3    0    0  0.67872494777E+01 -0.78124958819E+01 -0.56079153513E+01  0.11813152076E+02  0.10000000000E+01 0. -1.
    1000022    2    1    0    0    0  0.17682038691E+02 -0.49523083833E+02 -0.32265456838E+02  0.62500000430E+02  0.10000001212E+02 0.  0.
    3000022    2    3    3    0    0  0.10894789213E+02 -0.41710587951E+02 -0.26657541486E+02  0.50686848354E+02  0.24999757366E+00 0.  0.
    1000022    2    1    0    0    0 -0.17682038691E+02  0.49523083833E+02  0.32265456838E+02  0.62499999570E+02  0.99999958345E+01 0.  0.
    3000022    2    5    5    0    0  0.87343744220E+00  0.86280785107E+00  0.16820520460E+01  0.20974102064E+01  0.25000026989E+00 0.  0.
        -13    1    4    4    0    0  0.65809725366E+01 -0.25214164862E+02 -0.16187062089E+02  0.30677276823E+02  0.10500000000E+00 0.  1.
         13    1    4    4    0    0  0.43138166765E+01 -0.16496423089E+02 -0.10470479397E+02  0.20009571531E+02  0.10500000000E+00 0. -1.
    3000001    1    5    5    0    0 -0.18555476133E+02  0.48660275982E+02  0.30583404792E+02  0.60402589363E+02  0.10000000000E+01 0. -1.
        -13    1    6    6    0    0  0.67676835916E+00  0.67175226667E+00  0.12863007134E+01  0.16046373562E+01  0.10500000000E+00 0.  1.
         13    1    6    6    0    0  0.19666908304E+00  0.19105558440E+00  0.39575133262E+00  0.49277285012E+00  0.10500000000E+00 0. -1.
</event>
<event>
11    0  0.3448258E-009  0.9118800E+02  0.7816531E-02  0.1126479E+00
         25   -1    0    0    0    0  0.00000000000E+00  0.00000000000E+00  0.99999998245E-14  0.12500000000E+03  0.12500000000E+03 0.  0.
    3000001    1    3    3    0    0  0.84230990905E+01 -0.26226372237E+00 -0.88168121290E+00  0.85319834922E+01  0.10000000000E+01 0.  1.
    1000022    2    1    0    0    0  0.54153011494E+02 -0.13905729923E+02 -0.26083174028E+02  0.62499999954E+02  0.10000002418E+02 0.  0.
    3000022    2    3    3    0    0  0.45729912404E+02 -0.13643466201E+02 -0.25201492815E+02  0.53968016462E+02  0.25000470690E+00 0.  0.
    1000022    2    1    0    0    0 -0.54153011494E+02  0.13905729923E+02  0.26083174028E+02  0.62500000046E+02  0.10000002989E+02 0.  0.
    3000022    2    5    5    0    0 -0.40057299071E+02  0.13394915128E+02  0.16155022735E+02  0.45222319977E+02  0.25000875763E+00 0.  0.
        -13    1    4    4    0    0  0.23699997494E+02 -0.70131172025E+01 -0.13008139275E+02  0.27930205988E+02  0.10500000000E+00 0.  1.
         13    1    4    4    0    0  0.22029914910E+02 -0.66303489985E+01 -0.12193353540E+02  0.26037810475E+02  0.10500000000E+00 0. -1.
    3000001    1    5    5    0    0 -0.14095712423E+02  0.51081479533E+00  0.99281512923E+01  0.17277680068E+02  0.10000000000E+01 0. -1.
        -13    1    6    6    0    0 -0.14582956318E+02  0.49102547631E+01  0.58327560419E+01  0.16456162519E+02  0.10500000000E+00 0. -1.
         13    1    6    6    0    0 -0.25474342753E+02  0.84846603650E+01  0.10322266694E+02  0.28766157458E+02  0.10500000000E+00 0.  1.
</event>
<event>
11    0  0.3448258E-009  0.9118800E+02  0.7816531E-02  0.1126479E+00
         25   -1    0    0    0    0  0.00000000000E+00  0.00000000000E+00  0.99999998245E-14  0.12500000000E+03  0.12500000000E+03 0.  0.
    3000001    1    3    3    0    0 -0.34270514965E+02 -0.28544279092E+02 -0.49832104388E+01  0.44889602929E+02  0.10000000000E+01 0.  1.
    1000022    2    1    0    0    0 -0.49028242585E+02 -0.35661343481E+02 -0.11434602438E+02  0.62500000265E+02  0.99999955210E+01 0.  0.
    3000022    2    3    3    0    0 -0.14757727620E+02 -0.71170643892E+01 -0.64513919988E+01  0.17610397336E+02  0.25001119871E+00 0.  0.
    1000022    2    1    0    0    0  0.49028242585E+02  0.35661343481E+02  0.11434602438E+02  0.62499999735E+02  0.99999922044E+01 0.  0.
    3000022    2    5    5    0    0  0.16429751930E+02  0.17283405493E+02  0.22452315213E+01  0.23953213416E+02  0.25002889859E+00 0.  0.
        -13    1    4    4    0    0 -0.68922019190E+01 -0.32564810355E+01 -0.29702342545E+01  0.81817133018E+01  0.10500000000E+00 0.  1.
         13    1    4    4    0    0 -0.78655257009E+01 -0.38605833537E+01 -0.34811577443E+01  0.94286840345E+01  0.10500000000E+00 0. -1.
    3000001    1    5    5    0    0  0.32598490654E+02  0.18377937988E+02  0.91893709163E+01  0.38546786319E+02  0.10000000000E+01 0.  1.
        -13    1    6    6    0    0  0.44100027994E+01  0.46434485433E+01  0.63846458971E+00  0.64364898118E+01  0.10500000000E+00 0.  1.
         13    1    6    6    0    0  0.12019749131E+02  0.12639956949E+02  0.16067669316E+01  0.17516723604E+02  0.10500000000E+00 0. -1.
</event>
<event>
11    0  0.3448258E-009  0.9118800E+02  0.7816531E-02  0.1126479E+00
         25   -1    0    0    0    0  0.00000000000E+00  0.00000000000E+00  0.99999998245E-14  0.12500000000E+03  0.12500000000E+03 0.  0.
    3000001    1    3    3    0    0  0.31112799717E+02  0.22066903310E+02  0.43752703928E+02  0.58053885563E+02  0.10000000000E+01 0.  1.
    1000022    2    1    0    0    0  0.32232017777E+02  0.21501074510E+02  0.48010945399E+02  0.62499999764E+02  0.99999958687E+01 0.  0.
    3000022    2    3    3    0    0  0.11192180601E+01 -0.56582880011E+00  0.42582414711E+01  0.44461142016E+01  0.24999954148E+00 0.  0.
    1000022    2    1    0    0    0 -0.32232017777E+02 -0.21501074510E+02 -0.48010945399E+02  0.62500000236E+02  0.99999988153E+01 0.  0.
    3000022    2    5    5    0    0 -0.25335447913E+02 -0.14768795370E+02 -0.41537185669E+02  0.50846853736E+02  0.25000775686E+00 0.  0.
        -13    1    4    4    0    0  0.55468339432E+00 -0.24227114651E+00  0.18515311227E+01  0.19507848356E+01  0.10500000000E+00 0.  1.
         13    1    4    4    0    0  0.56453466577E+00 -0.32355765360E+00  0.24067103484E+01  0.24953293660E+01  0.10500000000E+00 0. -1.
    3000001    1    5    5    0    0 -0.68965698641E+01 -0.67322791401E+01 -0.64737597293E+01  0.11653146500E+02  0.10000000000E+01 0. -1.
        -13    1    6    6    0    0 -0.18188475573E+02 -0.10606942772E+02 -0.29891961608E+02  0.36563209274E+02  0.10500000000E+00 0. -1.
         13    1    6    6    0    0 -0.71469723404E+01 -0.41618525984E+01 -0.11645224061E+02  0.14283644462E+02  0.10500000000E+00 0.  1.
</event>
<event>
11    0  0.3448258E-009  0.9118800E+02  0.7816531E-02  0.1126479E+00
         25   -1    0    0    0    0  0.00000000000E+00  0.00000000000E+00  0.99999998245E-14  0.12500000000E+03  0.12500000000E+03 0.  0.
    3000001    1    3    3    0    0  0.11092561997E+02  0.18400740728E+02  0.14055086155E+02  0.25693922196E+02  0.10000000000E+01 0. -1.
    1000022    2    1    0    0    0  0.24004486166E+02  0.37314929596E+02  0.42867594968E+02  0.62500001681E+02  0.10000009247E+02 0.  0.
    3000022    2    3    3    0    0  0.12911924169E+02  0.18914188869E+02  0.28812508814E+02  0.36806079486E+02  0.24999333634E+00 0.  0.
    1000022    2    1    0    0    0 -0.24004486166E+02 -0.37314929596E+02 -0.42867594968E+02  0.62499998319E+02  0.99999882302E+01 0.  0.
    3000022    2    5    5    0    0 -0.12574119846E+02 -0.25874236160E+02 -0.31774333556E+02  0.42863216778E+02  0.24998575269E+00 0.  0.
        -13    1    4    4    0    0  0.53139175430E+01  0.78657175426E+01  0.11870498533E+02  0.15199572117E+02  0.10500000000E+00 0. -1.
         13    1    4    4    0    0  0.75980066259E+01  0.11048471326E+02  0.16942010280E+02  0.21606507369E+02  0.10500000000E+00 0.  1.
    3000001    1    5    5    0    0 -0.11430366320E+02 -0.11440693436E+02 -0.11093261413E+02  0.19636781541E+02  0.10000000000E+01 0. -1.
        -13    1    6    6    0    0 -0.79154110559E+01 -0.16180328130E+02 -0.19950509717E+02  0.26879185508E+02  0.10500000000E+00 0. -1.
         13    1    6    6    0    0 -0.46587087898E+01 -0.96939080297E+01 -0.11823823838E+02  0.15984031270E+02  0.10500000000E+00 0.  1.
</event>
<event>
11    0  0.3448258E-009  0.9118800E+02  0.7816531E-02  0.1126479E+00
         25   -1    0    0    0    0  0.00000000000E+00  0.00000000000E+00  0.99999998245E-14  0.12500000000E+03  0.12500000000E+03 0.  0.
    3000001    1    3    3    0    0  0.76484367458E+01 -0.94542533629E+01 -0.13544436932E+02  0.18230009959E+02  0.10000000000E+01 0.  1.
    1000022    2    1    0    0    0  0.37882376045E+02 -0.32207970575E+02 -0.36521531067E+02  0.62500000816E+02  0.10000004357E+02 0.  0.
    3000022    2    3    3    0    0  0.30233939300E+02 -0.22753717212E+02 -0.22977094134E+02  0.44269990857E+02  0.25000610256E+00 0.  0.
    1000022    2    1    0    0    0 -0.37882376045E+02  0.32207970575E+02  0.36521531067E+02  0.62499999184E+02  0.99999941544E+01 0.  0.
    3000022    2    5    5    0    0 -0.22045779825E+02  0.23256232654E+02  0.19178899778E+02  0.37346505357E+02  0.25000070456E+00 0.  0.
        -13    1    4    4    0    0  0.20915626868E+02 -0.15697665633E+02 -0.15840154202E+02  0.30574526387E+02  0.10500000000E+00 0.  1.
         13    1    4    4    0    0  0.93183124316E+01 -0.70560515791E+01 -0.71369399323E+01  0.13695464470E+02  0.10500000000E+00 0. -1.
    3000001    1    5    5    0    0 -0.15836596220E+02  0.89517379211E+01  0.17342631289E+02  0.25153493827E+02  0.10000000000E+01 0. -1.
        -13    1    6    6    0    0 -0.10777603035E+02  0.11302682436E+02  0.92890082927E+01  0.18171517754E+02  0.10500000000E+00 0. -1.
         13    1    6    6    0    0 -0.11268176790E+02  0.11953550218E+02  0.98898914849E+01  0.19174987603E+02  0.10500000000E+00 0.  1.
</event>
<event>
11    0  0.3448258E-009  0.9118800E+02  0.7816531E-02  0.1126479E+00
         25   -1    0    0    0    0  0.00000000000E+00  0.00000000000E+00  0.99999998245E-14  0.12500000000E+03  0.12500000000E+03 0.  0.
    3000001    1    3    3    0    0 -0.43255742725E+02  0.29310932411E+01  0.12437045868E+01  0.43384298858E+02  0.10000000000E+01 0. -1.
    1000022    2    1    0    0    0 -0.60879140213E+02  0.60716830624E+01  0.79444668388E+01  0.62500003356E+02  0.10000040893E+02 0.  0.
    3000022    2    3    3    0    0 -0.17623397489E+02  0.31405898214E+01  0.67007622520E+01  0.19115704499E+02  0.25000051774E+00 0.  0.
    1000022    2    1    0    0    0  0.60879140213E+02 -0.60716830624E+01 -0.79444668388E+01  0.62499996644E+02  0.99999989380E+01 0.  0.
    3000022    2    5    5    0    0  0.92659908131E+01 -0.27445912902E+01  0.18724000720E+01  0.98468143406E+01  0.25000706236E+00 0.  0.
        -13    1    4    4    0    0 -0.66022262270E+01  0.11156332464E+01  0.25028618117E+01  0.71490818251E+01  0.10500000000E+00 0. -1.
         13    1    4    4    0    0 -0.11021171262E+02  0.20249565750E+01  0.41979004404E+01  0.11966622674E+02  0.10500000000E+00 0.  1.
    3000001    1    5    5    0    0  0.51613149400E+02 -0.33270917723E+01 -0.98168669109E+01  0.52653182303E+02  0.10000000000E+01 0.  1.
        -13    1    6    6    0    0  0.55711054371E+01 -0.16150681382E+01  0.11780032525E+01  0.59198291821E+01  0.10500000000E+00 0. -1.
         13    1    6    6    0    0  0.36948853760E+01 -0.11295231520E+01  0.69439681949E+00  0.39269851585E+01  0.10500000000E+00 0.  1.
</event>
<event>
11    0  0.3448258E-009  0.9118800E+02  0.7816531E-02  0.1126479E+00
         25   -1    0    0    0    0  0.00000000000E+00  0.00000000000E+00  0.99999998245E-14  0.12500000000E+03  0.12500000000E+03 0.  0.
    3000001    1    3    3    0    0 -0.85580283170E+00 -0.30618289382E+02 -0.34200446679E+01  0.30836808341E+02  0.10000000000E+01 0.  1.
    1000022    2    1    0    0    0 -0.62988631147E+01 -0.61341004876E+02  0.19635443398E+01  0.62499999826E+02  0.99999958094E+01 0.  0.
    3000022    2    3    3    0    0 -0.54430602830E+01 -0.30722715494E+02  0.53835890077E+01  0.31663191485E+02  0.25002365465E+00 0.  0.
    1000022    2    1    0    0    0  0.62988631147E+01  0.61341004876E+02 -0.19635443398E+01  0.62500000174E+02  0.99999979818E+01 0.  0.
    3000022    2    5    5    0    0  0.75454993057E+01  0.53062426414E+02  0.87388663914E+00  0.53603934881E+02  0.25000020936E+00 0.  0.
        -13    1    4    4    0    0 -0.41370323614E+01 -0.23242070525E+02  0.40618657823E+01  0.23954512261E+02  0.10500000000E+00 0.  1.
         13    1    4    4    0    0 -0.13060279216E+01 -0.74806449692E+01  0.13217232255E+01  0.77086792235E+01  0.10500000000E+00 0. -1.
    3000001    1    5    5    0    0 -0.12466361911E+01  0.82785784617E+01 -0.28374309790E+01  0.88960652932E+01  0.10000000000E+01 0.  1.
        -13    1    6    6    0    0  0.24967449600E+01  0.17917971379E+02  0.27544905714E+00  0.18093488634E+02  0.10500000000E+00 0. -1.
         13    1    6    6    0    0  0.50487543457E+01  0.35144455035E+02  0.59843758200E+00  0.35510446247E+02  0.10500000000E+00 0.  1.
</event>
<event>
11    0  0.3448258E-009  0.9118800E+02  0.7816531E-02  0.1126479E+00
         25   -1    0    0    0    0  0.00000000000E+00  0.00000000000E+00  0.99999998245E-14  0.12500000000E+03  0.12500000000E+03 0.  0.
    3000001    1    3    3    0    0  0.10718190648E+02  0.22728065660E+02 -0.29998711089E+02  0.39145462654E+02  0.10000000000E+01 0. -1.
    1000022    2    1    0    0    0  0.98341810143E+01  0.38543316063E+02 -0.47158791277E+02  0.62500001129E+02  0.10000010856E+02 0.  0.
    3000022    2    3    3    0    0 -0.88400963408E+00  0.15815250402E+02 -0.17160080188E+02  0.23354538475E+02  0.24999397981E+00 0.  0.
    1000022    2    1    0    0    0 -0.98341810143E+01 -0.38543316063E+02  0.47158791277E+02  0.62499998871E+02  0.99999967393E+01 0.  0.
    3000022    2    5    5    0    0 -0.69739420259E+01 -0.31194747886E+02  0.31184813029E+02  0.44657622280E+02  0.25000203855E+00 0.  0.
        -13    1    4    4    0    0 -0.25333082204E+00  0.54270524857E+01 -0.59212081609E+01  0.80367161374E+01  0.10500000000E+00 0.  1.
         13    1    4    4    0    0 -0.63067881204E+00  0.10388197917E+02 -0.11238872028E+02  0.15317822338E+02  0.10500000000E+00 0. -1.
    3000001    1    5    5    0    0 -0.28602389884E+01 -0.73485681761E+01  0.15973978248E+02  0.17842376590E+02  0.10000000000E+01 0. -1.
        -13    1    6    6    0    0 -0.39341783955E+01 -0.17653599259E+02  0.17554860569E+02  0.25205385953E+02  0.10500000000E+00 0. -1.
         13    1    6    6    0    0 -0.30397636304E+01 -0.13541148627E+02  0.13629952460E+02  0.19452236327E+02  0.10500000000E+00 0.  1.
</event>
<event>
11    0  0.3448258E-009  0.9118800E+02  0.7816531E-02  0.1126479E+00
         25   -1    0    0    0    0  0.00000000000E+00  0.00000000000E+00  0.99999998245E-14  0.12500000000E+03  0.12500000000E+03 0.  0.
    3000001    1    3    3    0    0  0.46798929553E+02 -0.25504992666E+02 -0.70836360413E+01  0.53775666967E+02  0.10000000000E+01 0.  1.
    1000022    2    1    0    0    0  0.51682045680E+02 -0.32401949341E+02 -0.92374000864E+01  0.62500002711E+02  0.10000030588E+02 0.  0.
    3000022    2    3    3    0    0  0.48831161267E+01 -0.68969566755E+01 -0.21537640451E+01  0.87243357439E+01  0.25000023867E+00 0.  0.
    1000022    2    1    0    0    0 -0.51682045680E+02  0.32401949341E+02  0.92374000864E+01  0.62499997289E+02  0.99999966985E+01 0.  0.
    3000022    2    5    5    0    0 -0.33378752192E+02  0.21407137196E+02  0.10706906125E+02  0.41074407575E+02  0.24999597470E+00 0.  0.
        -13    1    4    4    0    0  0.15055093050E+01 -0.21253679430E+01 -0.61465340638E+00  0.26781655981E+01  0.10500000000E+00 0.  1.
         13    1    4    4    0    0  0.33776068217E+01 -0.47715887324E+01 -0.15391106387E+01  0.60461701458E+01  0.10500000000E+00 0. -1.
    3000001    1    5    5    0    0 -0.18303293488E+02  0.10994812145E+02 -0.14695060388E+01  0.21425589714E+02  0.10000000000E+01 0. -1.
        -13    1    6    6    0    0 -0.22469381421E+02  0.14370472977E+02  0.72430408085E+01  0.27637949638E+02  0.10500000000E+00 0. -1.
         13    1    6    6    0    0 -0.10909370771E+02  0.70366642188E+01  0.34638653167E+01  0.13436457937E+02  0.10500000000E+00 0.  1.
</event>
<event>
11    0  0.3448258E-009  0.9118800E+02  0.7816531E-02  0.1126479E+00
         25   -1    0    0    0    0  0.00000000000E+00  0.00000000000E+00  0.99999998245E-14  0.12500000000E+03  0.12500000000E+03 0.  0.
    3000001    1    3    3    0    0 -0.10810053868E+02 -0.10847512535E+01  0.32771669928E+01  0.11391829239E+02  0.10000000000E+01 0.  1.
    1000022    2    1    0    0    0 -0.61643716739E+02 -0.15334498320E+01 -0.19877491261E+01  0.62499993447E+02  0.99999376250E+01 0.  0.
    3000022    2    3    3    0    0 -0.50833662872E+02 -0.44869857850E+00 -0.52649161189E+01  0.51108164209E+02  0.24999135634E+00 0.  0.
    1000022    2    1    0    0    0  0.61643716739E+02  0.15334498320E+01  0.19877491261E+01  0.62500006553E+02  0.10000019533E+02 0.  0.
    3000022    2    5    5    0    0  0.50290716845E+02  0.49341248293E+01  0.25094602492E+01  0.50595075661E+02  0.25000358334E+00 0.  0.
        -13    1    4    4    0    0 -0.29406581743E+02 -0.28533419058E+00 -0.29857956395E+01  0.29559338051E+02  0.10500000000E+00 0. -1.
         13    1    4    4    0    0 -0.21427081128E+02 -0.16336438792E+00 -0.22791204794E+01  0.21548826157E+02  0.10500000000E+00 0.  1.
    3000001    1    5    5    0    0  0.11352999894E+02 -0.34006749973E+01 -0.52171112310E+00  0.11904930891E+02  0.10000000000E+01 0.  1.
        -13    1    6    6    0    0  0.31538533556E+02  0.30555818429E+01  0.16194961591E+01  0.31727739788E+02  0.10500000000E+00 0.  1.
         13    1    6    6    0    0  0.18752183289E+02  0.18785429863E+01  0.88996409011E+00  0.18867335873E+02  0.10500000000E+00 0. -1.
</event>
<event>
11    0  0.3448258E-009  0.9118800E+02  0.7816531E-02  0.1126479E+00
         25   -1    0    0    0    0  0.00000000000E+00  0.00000000000E+00  0.99999998245E-14  0.12500000000E+03  0.12500000000E+03 0.  0.
    3000001    1    3    3    0    0  0.51790339944E+01 -0.36202655342E+01 -0.17139874914E+02  0.18294918084E+02  0.10000000000E+01 0.  1.
    1000022    2    1    0    0    0  0.28970707134E+02 -0.19293532199E+02 -0.50938273925E+02  0.62500000087E+02  0.10000000196E+02 0.  0.
    3000022    2    3    3    0    0  0.23791673139E+02 -0.15673266665E+02 -0.33798399011E+02  0.44205082003E+02  0.25000091928E+00 0.  0.
    1000022    2    1    0    0    0 -0.28970707134E+02  0.19293532199E+02  0.50938273925E+02  0.62499999913E+02  0.99999991079E+01 0.  0.
    3000022    2    5    5    0    0 -0.15033535159E+02  0.93980580433E+01  0.34369797232E+02  0.38673972310E+02  0.24999623256E+00 0.  0.
        -13    1    4    4    0    0  0.95165201415E+01 -0.62248135458E+01 -0.13569395706E+02  0.17704575231E+02  0.10500000000E+00 0.  1.
         13    1    4    4    0    0  0.14275152998E+02 -0.94484531193E+01 -0.20229003305E+02  0.26500506772E+02  0.10500000000E+00 0. -1.
    3000001    1    5    5    0    0 -0.13937171974E+02  0.98954741560E+01  0.16568476693E+02  0.23826027603E+02  0.10000000000E+01 0.  1.
        -13    1    6    6    0    0 -0.79267452919E+01  0.50023166477E+01  0.18288960294E+02  0.20551242211E+02  0.10500000000E+00 0.  1.
         13    1    6    6    0    0 -0.71067898673E+01  0.43957413956E+01  0.16080836938E+02  0.18122730099E+02  0.10500000000E+00 0. -1.
</event>
<event>
11    0  0.3448258E-009  0.9118800E+02  0.7816531E-02  0.1126479E+00
         25   -1    0    0    0    0  0.00000000000E+00  0.00000000000E+00  0.99999998245E-14  0.12500000000E+03  0.12500000000E+03 0.  0.
    3000001    1    3    3    0    0  0.95085317825E+01 -0.89234205325E+01  0.18596144541E+02  0.22734471677E+02  0.10000000000E+01 0. -1.
    1000022    2    1    0    0    0  0.35475959536E+02 -0.27298344553E+02  0.42455937040E+02  0.62500001079E+02  0.10000011231E+02 0.  0.
    3000022    2    3    3    0    0  0.25967427753E+02 -0.18374924021E+02  0.23859792499E+02  0.39765529402E+02  0.24998724146E+00 0.  0.
    1000022    2    1    0    0    0 -0.35475959536E+02  0.27298344553E+02 -0.42455937040E+02  0.62499998921E+02  0.99999977415E+01 0.  0.
    3000022    2    5    5    0    0 -0.20265197386E+02  0.93649586073E+01 -0.21085114233E+02  0.30708715774E+02  0.25001493703E+00 0.  0.
        -13    1    4    4    0    0  0.15899131888E+02 -0.11325532008E+02  0.14648485649E+02  0.24405721191E+02  0.10500000000E+00 0. -1.
         13    1    4    4    0    0  0.10068295865E+02 -0.70493920124E+01  0.92113068506E+01  0.15359808211E+02  0.10500000000E+00 0.  1.
    3000001    1    5    5    0    0 -0.15210762149E+02  0.17933385946E+02 -0.21370822807E+02  0.31791283146E+02  0.10000000000E+01 0.  1.
        -13    1    6    6    0    0 -0.10003330288E+02  0.46546573548E+01 -0.10505066510E+02  0.15234825215E+02  0.10500000000E+00 0. -1.
         13    1    6    6    0    0 -0.10261867098E+02  0.47103012525E+01 -0.10580047723E+02  0.15473890560E+02  0.10500000000E+00 0.  1.
</event>
<event>
11    0  0.3448258E-009  0.9118800E+02  0.7816531E-02  0.1126479E+00
         25   -1    0    0    0    0  0.00000000000E+00  0.00000000000E+00  0.99999998245E-14  0.12500000000E+03  0.12500000000E+03 0.  0.
    3000001    1    3    3    0    0 -0.14631980477E+02 -0.21835779933E+02  0.53885609578E+01  0.26850190449E+02  0.10000000000E+01 0. -1.
    1000022    2    1    0    0    0 -0.37248667315E+02 -0.49150114695E+02  0.17472743618E+01  0.62499999299E+02  0.99999976680E+01 0.  0.
    3000022    2    3    3    0    0 -0.22616686839E+02 -0.27314334763E+02 -0.36412865961E+01  0.35649808851E+02  0.24999181308E+00 0.  0.
    1000022    2    1    0    0    0  0.37248667315E+02  0.49150114695E+02 -0.17472743618E+01  0.62500000701E+02  0.10000006428E+02 0.  0.
    3000022    2    5    5    0    0  0.76928171213E+01  0.75510320545E+01  0.31312721817E+01  0.11227862325E+02  0.25001311891E+00 0.  0.
        -13    1    4    4    0    0 -0.11883135291E+02 -0.14250571278E+02 -0.19261631934E+01  0.18654994391E+02  0.10500000000E+00 0.  1.
         13    1    4    4    0    0 -0.10733551548E+02 -0.13063763485E+02 -0.17151234026E+01  0.16994814459E+02  0.10500000000E+00 0. -1.
    3000001    1    5    5    0    0  0.29555850194E+02  0.41599082641E+02 -0.48785465435E+01  0.51272138376E+02  0.10000000000E+01 0.  1.
        -13    1    6    6    0    0  0.51851303066E+01  0.51600997894E+01  0.21155919503E+01  0.76157048546E+01  0.10500000000E+00 0.  1.
         13    1    6    6    0    0  0.25076868147E+01  0.23909322651E+01  0.10156802314E+01  0.36121574702E+01  0.10500000000E+00 0. -1.
</event>
<event>
11    0  0.3448258E-009  0.9118800E+02  0.7816531E-02  0.1126479E+00
         25   -1    0    0    0    0  0.00000000000E+00  0.00000000000E+00  0.99999998245E-14  0.12500000000E+03  0.12500000000E+03 0.  0.
    3000001    1    3    3    0    0 -0.12698242492E+02 -0.60071146492E+01  0.10491925628E+02  0.17561642639E+02  0.10000000000E+01 0.  1.
    1000022    2    1    0    0    0 -0.47667925327E+02 -0.59340081441E+01  0.38714422591E+02  0.62499999180E+02  0.99999911690E+01 0.  0.
    3000022    2    3    3    0    0 -0.34969682834E+02  0.73106505081E-01  0.28222496963E+02  0.44938356541E+02  0.24998338385E+00 0.  0.
    1000022    2    1    0    0    0  0.47667925327E+02  0.59340081441E+01 -0.38714422591E+02  0.62500000820E+02  0.10000001418E+02 0.  0.
    3000022    2    5    5    0    0  0.39424838633E+02  0.10718343742E+01 -0.31402617259E+02  0.50414815293E+02  0.25000030969E+00 0.  0.
        -13    1    4    4    0    0 -0.91760089200E+01  0.50499736656E-01  0.73937922351E+01  0.11784773164E+02  0.10500000000E+00 0. -1.
         13    1    4    4    0    0 -0.25793673914E+02  0.22606768424E-01  0.20828704728E+02  0.33153583377E+02  0.10500000000E+00 0.  1.
    3000001    1    5    5    0    0  0.82430866935E+01  0.48621737700E+01 -0.73118053320E+01  0.12085185527E+02  0.10000000000E+01 0. -1.
        -13    1    6    6    0    0  0.16923774896E+02  0.39513595404E+00 -0.13489431067E+02  0.21645924897E+02  0.10500000000E+00 0.  1.
         13    1    6    6    0    0  0.22501063737E+02  0.67669842015E+00 -0.17913186192E+02  0.28768890396E+02  0.10500000000E+00 0. -1.
</event>
<event>
11    0  0.3448258E-009  0.9118800E+02  0.7816531E-02  0.1126479E+00
         25   -1    0    0    0    0  0.00000000000E+00  0.00000000000E+00  0.99999998245E-14  0.12500000000E+03  0.12500000000E+03 0.  0.
    3000001    1    3    3    0    0 -0.25790326987E+02 -0.29884701009E+02 -0.33305612501E+02  0.51657527472E+02  0.10000000000E+01 0.  1.
    1000022    2    1    0    0    0 -0.29130681189E+02 -0.33209959176E+02 -0.43066830305E+02  0.62499998684E+02  0.99999993974E+01 0.  0.
    3000022    2    3    3    0    0 -0.33403542019E+01 -0.33252581669E+01 -0.97612178049E+01  0.10842471212E+02  0.25000175131E+00 0.  0.
    1000022    2    1    0    0    0  0.29130681189E+02  0.33209959176E+02  0.43066830305E+02  0.62500001316E+02  0.10000015846E+02 0.  0.
    3000022    2    5    5    0    0  0.26834411463E+02  0.33313525860E+02  0.40390606105E+02  0.58833155712E+02  0.25001133068E+00 0.  0.
        -13    1    4    4    0    0 -0.25296515488E+01 -0.25359185666E+01 -0.73759787205E+01  0.82003723708E+01  0.10500000000E+00 0.  1.
         13    1    4    4    0    0 -0.81070265318E+00 -0.78933960027E+00 -0.23852390845E+01  0.26420988412E+01  0.10500000000E+00 0. -1.
    3000001    1    5    5    0    0  0.22962697258E+01 -0.10356668465E+00  0.26762242001E+01  0.36668456037E+01  0.10000000000E+01 0. -1.
        -13    1    6    6    0    0  0.75189215527E+01  0.93963821423E+01  0.11376882412E+02  0.16561118836E+02  0.10500000000E+00 0. -1.
         13    1    6    6    0    0  0.19315489911E+02  0.23917143718E+02  0.29013723693E+02  0.42272036876E+02  0.10500000000E+00 0.  1.
</event>
<event>
11    0  0.3448258E-009  0.9118800E+02  0.7816531E-02  0.1126479E+00
         25   -1    0    0    0    0  0.00000000000E+00  0.00000000000E+00  0.99999998245E-14  0.12500000000E+03  0.12500000000E+03 0.  0.
    3000001    1    3    3    0    0  0.33866413400E+01  0.57310709541E+01  0.34778305424E+01  0.75769267601E+01  0.10000000000E+01 0. -1.
    1000022    2    1    0    0    0  0.35713250792E+02  0.50125155530E+02  0.42758733098E+01  0.62499998365E+02  0.99999602028E+01 0.  0.
    3000022    2    3    3    0    0  0.32326609452E+02  0.44394084575E+02  0.79804276747E+00  0.54923071605E+02  0.24999658122E+00 0.  0.
    1000022    2    1    0    0    0 -0.35713250792E+02 -0.50125155530E+02 -0.42758733098E+01  0.62500001635E+02  0.99999806409E+01 0.  0.
    3000022    2    5    5    0    0 -0.17569601316E+02 -0.31845106194E+02 -0.50093031449E+01  0.36714537913E+02  0.24999455776E+00 0.  0.
        -13    1    4    4    0    0  0.10029129653E+02  0.13828604567E+02  0.21222923666E+00  0.17084197731E+02  0.10500000000E+00 0.  1.
         13    1    4    4    0    0  0.22297479799E+02  0.30565480009E+02  0.58581353080E+00  0.37838873874E+02  0.10500000000E+00 0. -1.
    3000001    1    5    5    0    0 -0.18143649476E+02 -0.18280049336E+02  0.73342983504E+00  0.25785463722E+02  0.10000000000E+01 0.  1.
        -13    1    6    6    0    0 -0.49970533051E+01 -0.90358058948E+01 -0.13821419686E+01  0.10418141453E+02  0.10500000000E+00 0.  1.
         13    1    6    6    0    0 -0.12572548010E+02 -0.22809300299E+02 -0.36271611763E+01  0.26296396460E+02  0.10500000000E+00 0. -1.
</event>
<event>
11    0  0.3448258E-009  0.9118800E+02  0.7816531E-02  0.1126479E+00
         25   -1    0    0    0    0  0.00000000000E+00  0.00000000000E+00  0.99999998245E-14  0.12500000000E+03  0.12500000000E+03 0.  0.
    3000001    1    3    3    0    0 -0.23422004578E+02  0.52663894320E+02  0.13828439396E+02  0.59281546872E+02  0.10000000000E+01 0.  1.
    1000022    2    1    0    0    0 -0.22392681895E+02  0.55584727610E+02  0.14668190226E+02  0.62500000772E+02  0.10000007297E+02 0.  0.
    3000022    2    3    3    0    0  0.10293226830E+01  0.29208332907E+01  0.83975083078E+00  0.32184538999E+01  0.24998349882E+00 0.  0.
    1000022    2    1    0    0    0  0.22392681895E+02 -0.55584727610E+02 -0.14668190226E+02  0.62499999228E+02  0.99999976515E+01 0.  0.
    3000022    2    5    5    0    0  0.68526847537E+01 -0.23463042444E+02 -0.16395397897E+01  0.24499474215E+02  0.24999404791E+00 0.  0.
        -13    1    4    4    0    0  0.48193489818E+00  0.12003111884E+01  0.38494902187E+00  0.13535948229E+01  0.10500000000E+00 0.  1.
         13    1    4    4    0    0  0.54738778485E+00  0.17205221023E+01  0.45480180891E+00  0.18648590770E+01  0.10500000000E+00 0. -1.
    3000001    1    5    5    0    0  0.15539997142E+02 -0.32121685167E+02 -0.13028650437E+02  0.38000525014E+02  0.10000000000E+01 0.  1.
        -13    1    6    6    0    0  0.38177767433E+01 -0.13255795904E+02 -0.88419874438E+00  0.13823327267E+02  0.10500000000E+00 0. -1.
         13    1    6    6    0    0  0.30349080104E+01 -0.10207246540E+02 -0.75534104531E+00  0.10676146948E+02  0.10500000000E+00 0.  1.
</event>
<event>
11    0  0.3448258E-009  0.9118800E+02  0.7816531E-02  0.1126479E+00
         25   -1    0    0    0    0  0.00000000000E+00  0.00000000000E+00  0.99999998245E-14  0.12500000000E+03  0.12500000000E+03 0.  0.
    3000001    1    3    3    0    0 -0.32688666419E+02  0.13700601387E+02  0.12248129017E+02  0.37513624925E+02  0.10000000000E+01 0. -1.
    1000022    2    1    0    0    0 -0.51555675019E+02  0.29442002438E+02  0.16775897436E+02  0.62499999387E+02  0.10000002719E+02 0.  0.
    3000022    2    3    3    0    0 -0.18867008601E+02  0.15741401050E+02  0.45277684198E+01  0.24986374462E+02  0.25000269132E+00 0.  0.
    1000022    2    1    0    0    0  0.51555675019E+02 -0.29442002438E+02 -0.16775897436E+02  0.62500000613E+02  0.10000010377E+02 0.  0.
    3000022    2    5    5    0    0  0.31266938479E+02 -0.18069751526E+02 -0.15151485979E+02  0.39163342031E+02  0.24993913474E+00 0.  0.
        -13    1    4    4    0    0 -0.68585768035E+01  0.56854165450E+01  0.15896449018E+01  0.90499741974E+01  0.10500000000E+00 0.  1.
         13    1    4    4    0    0 -0.12008431797E+02  0.10055984505E+02  0.29381235180E+01  0.15936400265E+02  0.10500000000E+00 0. -1.
    3000001    1    5    5    0    0  0.20288736540E+02 -0.11372250911E+02 -0.16244114579E+01  0.23336658582E+02  0.10000000000E+01 0. -1.
        -13    1    6    6    0    0  0.16121560812E+02 -0.92561954728E+01 -0.77533428624E+01  0.20142175359E+02  0.10500000000E+00 0. -1.
         13    1    6    6    0    0  0.15145377667E+02 -0.88135560537E+01 -0.73981431161E+01  0.19021166672E+02  0.10500000000E+00 0.  1.
</event>
<event>
11    0  0.3448258E-009  0.9118800E+02  0.7816531E-02  0.1126479E+00
         25   -1    0    0    0    0  0.00000000000E+00  0.00000000000E+00  0.99999998245E-14  0.12500000000E+03  0.12500000000E+03 0.  0.
    3000001    1    3    3    0    0  0.24888998590E+00 -0.24798661088E+00 -0.42589596346E+00  0.11422919749E+01  0.10000000000E+01 0.  1.
    1000022    2    1    0    0    0 -0.17306806312E+02 -0.46319229679E-01 -0.59217584651E+02  0.62499999729E+02  0.99999972026E+01 0.  0.
    3000022    2    3    3    0    0 -0.17555696298E+02  0.20166738120E+00 -0.58791688688E+02  0.61357707754E+02  0.24999976591E+00 0.  0.
    1000022    2    1    0    0    0  0.17306806312E+02  0.46319229679E-01  0.59217584651E+02  0.62500000271E+02  0.10000000588E+02 0.  0.
    3000022    2    5    5    0    0  0.39345651302E+01 -0.28138663911E+01  0.27829287986E+02  0.28247662197E+02  0.25000588720E+00 0.  0.
        -13    1    4    4    0    0 -0.82805833174E+01  0.46733087728E-01 -0.27893271453E+02  0.29096664094E+02  0.10500000000E+00 0. -1.
         13    1    4    4    0    0 -0.92751129806E+01  0.15493429347E+00 -0.30898417235E+02  0.32261043660E+02  0.10500000000E+00 0.  1.
    3000001    1    5    5    0    0  0.13372241182E+02  0.28601856207E+01  0.31388296665E+02  0.34252338074E+02  0.10000000000E+01 0. -1.
        -13    1    6    6    0    0  0.28454309057E+01 -0.20692347223E+01  0.20366812073E+02  0.20668726821E+02  0.10500000000E+00 0.  1.
         13    1    6    6    0    0  0.10891342245E+01 -0.74463166881E+00  0.74624759132E+01  0.75789353762E+01  0.10500000000E+00 0. -1.
</event>
<event>
11    0  0.3448258E-009  0.9118800E+02  0.7816531E-02  0.1126479E+00
         25   -1    0    0    0    0  0.00000000000E+00  0.00000000000E+00  0.99999998245E-14  0.12500000000E+03  0.12500000000E+03 0.  0.
    3000001    1    3    3    0    0 -0.55134072463E+01 -0.14821826329E+02  0.58792886076E+01  0.16901190186E+02  0.10000000000E+01 0.  1.
    1000022    2    1    0    0    0 -0.71334307219E+01 -0.59666271280E+02  0.13974986114E+02  0.62500000903E+02  0.10000005685E+02 0.  0.
    3000022    2    3    3    0    0 -0.16200234756E+01 -0.44844444951E+02  0.80956975060E+01  0.45598810717E+02  0.25000326237E+00 0.  0.
    1000022    2    1    0    0    0  0.71334307219E+01  0.59666271280E+02 -0.13974986114E+02  0.62499999097E+02  0.99999943968E+01 0.  0.
    3000022    2    5    5    0    0  0.96921637575E+00  0.71280068824E+01 -0.51747753464E+01  0.88650247429E+01  0.25000261862E+00 0.  0.
        -13    1    4    4    0    0 -0.94082533780E+00 -0.27012537445E+02  0.49292882605E+01  0.27474920187E+02  0.10500000000E+00 0. -1.
         13    1    4    4    0    0 -0.67919813781E+00 -0.17831907507E+02  0.31664092455E+01  0.18123890530E+02  0.10500000000E+00 0.  1.
    3000001    1    5    5    0    0  0.61642143461E+01  0.52538264398E+02 -0.88002107672E+01  0.53634974354E+02  0.10000000000E+01 0.  1.
        -13    1    6    6    0    0  0.56445522203E+00  0.40363236008E+01 -0.28526721498E+01  0.49758699040E+01  0.10500000000E+00 0.  1.
         13    1    6    6    0    0  0.40476115372E+00  0.30916832816E+01 -0.23221031966E+01  0.38891548389E+01  0.10500000000E+00 0. -1.
</event>
<event>
11    0  0.3448258E-009  0.9118800E+02  0.7816531E-02  0.1126479E+00
         25   -1    0    0    0    0  0.00000000000E+00  0.00000000000E+00  0.99999998245E-14  0.12500000000E+03  0.12500000000E+03 0.  0.
    3000001    1    3    3    0    0  0.66916574462E+01 -0.16165523345E+01 -0.94405450012E+01  0.11726696498E+02  0.10000000000E+01 0.  1.
    1000022    2    1    0    0    0  0.49703328561E+02 -0.49115080277E+01 -0.36217493656E+02  0.62499997211E+02  0.99999511755E+01 0.  0.
    3000022    2    3    3    0    0  0.43011671115E+02 -0.32949556932E+01 -0.26776948655E+02  0.50773300713E+02  0.25000193729E+00 0.  0.
    1000022    2    1    0    0    0 -0.49703328561E+02  0.49115080277E+01  0.36217493656E+02  0.62500002789E+02  0.99999860370E+01 0.  0.
    3000022    2    5    5    0    0 -0.34599351775E+02  0.20116275358E+01  0.19523295270E+02  0.39779182352E+02  0.25000345713E+00 0.  0.
        -13    1    4    4    0    0  0.20853723283E+02 -0.15777812992E+01 -0.12905316310E+02  0.24574893340E+02  0.10500000000E+00 0. -1.
         13    1    4    4    0    0  0.22157947831E+02 -0.17171743940E+01 -0.13871632345E+02  0.26198407374E+02  0.10500000000E+00 0.  1.
    3000001    1    5    5    0    0 -0.15103976786E+02  0.28998804919E+01  0.16694198385E+02  0.22720820437E+02  0.10000000000E+01 0. -1.
        -13    1    6    6    0    0 -0.13978693835E+02  0.77454549083E+00  0.78283806644E+01  0.16040522775E+02  0.10500000000E+00 0. -1.
         13    1    6    6    0    0 -0.20620657940E+02  0.12370820450E+01  0.11694914606E+02  0.23738659577E+02  0.10500000000E+00 0.  1.
</event>
<event>
11    0  0.3448258E-009  0.9118800E+02  0.7816531E-02  0.1126479E+00
         25   -1    0    0    0    0  0.00000000000E+00  0.00000000000E+00  0.99999998245E-14  0.12500000000E+03  0.12500000000E+03 0.  0.
    3000001    1    3    3    0    0  0.32059192077E+02  0.76285547766E-01 -0.25898222222E+02  0.41225180780E+02  0.10000000000E+01 0. -1.
    1000022    2    1    0    0    0  0.50555401449E+02  0.54300584286E+01 -0.34941608483E+02  0.62500001247E+02  0.10000000115E+02 0.  0.
    3000022    2    3    3    0    0  0.18496209372E+02  0.53537728808E+01 -0.90433862607E+01  0.21274820466E+02  0.25001126044E+00 0.  0.
    1000022    2    1    0    0    0 -0.50555401449E+02 -0.54300584286E+01  0.34941608483E+02  0.62499998753E+02  0.99999845289E+01 0.  0.
    3000022    2    5    5    0    0 -0.16186156685E+02 -0.60664429266E+01  0.95302363690E+01  0.19740347169E+02  0.25000620058E+00 0.  0.
        -13    1    4    4    0    0  0.92347937865E+01  0.26193142647E+01 -0.45568153059E+01  0.10626279416E+02  0.10500000000E+00 0. -1.
         13    1    4    4    0    0  0.92614155854E+01  0.27344586161E+01 -0.44865709547E+01  0.10648541050E+02  0.10500000000E+00 0.  1.
    3000001    1    5    5    0    0 -0.34369244764E+02  0.63638449799E+00  0.25411372114E+02  0.42759651584E+02  0.10000000000E+01 0. -1.
        -13    1    6    6    0    0 -0.57026568114E+01 -0.21756398339E+01  0.34159777363E+01  0.69952578431E+01  0.10500000000E+00 0.  1.
         13    1    6    6    0    0 -0.10483499873E+02 -0.38908030927E+01  0.61142586327E+01  0.12745089326E+02  0.10500000000E+00 0. -1.
</event>
<event>
11    0  0.3448258E-009  0.9118800E+02  0.7816531E-02  0.1126479E+00
         25   -1    0    0    0    0  0.00000000000E+00  0.00000000000E+00  0.99999998245E-14  0.12500000000E+03  0.12500000000E+03 0.  0.
    3000001    1    3    3    0    0 -0.32095712197E+01  0.55335193284E+01  0.36730943586E+01  0.74439778170E+01  0.10000000000E+01 0.  1.
    1000022    2    1    0    0    0 -0.16755391414E+01  0.50286002762E+02  0.35703786271E+02  0.62500001590E+02  0.10000016974E+02 0.  0.
    3000022    2    3    3    0    0  0.15340320783E+01  0.44752483433E+02  0.32030691912E+02  0.55056023773E+02  0.25000287270E+00 0.  0.
    1000022    2    1    0    0    0  0.16755391414E+01 -0.50286002762E+02 -0.35703786271E+02  0.62499998410E+02  0.99999971052E+01 0.  0.
    3000022    2    5    5    0    0 -0.12963477601E+01 -0.34554231717E+01 -0.56963089001E+01  0.67919739022E+01  0.25001518424E+00 0.  0.
        -13    1    4    4    0    0  0.11652449260E+01  0.33583056055E+02  0.24063506571E+02  0.41330894295E+02  0.10500000000E+00 0. -1.
         13    1    4    4    0    0  0.36878715231E+00  0.11169427378E+02  0.79671853407E+01  0.13725129477E+02  0.10500000000E+00 0.  1.
    3000001    1    5    5    0    0  0.29718869015E+01 -0.46830579590E+02 -0.30007477371E+02  0.55708024508E+02  0.10000000000E+01 0.  1.
        -13    1    6    6    0    0 -0.76189263222E+00 -0.20769256530E+01 -0.32998145134E+01  0.39741541709E+01  0.10500000000E+00 0.  1.
         13    1    6    6    0    0 -0.53445512784E+00 -0.13784975187E+01 -0.23964943866E+01  0.28178197313E+01  0.10500000000E+00 0. -1.
</event>
<event>
11    0  0.3448258E-009  0.9118800E+02  0.7816531E-02  0.1126479E+00
         25   -1    0    0    0    0  0.00000000000E+00  0.00000000000E+00  0.99999998245E-14  0.12500000000E+03  0.12500000000E+03 0.  0.
    3000001    1    3    3    0    0 -0.41454178258E+01  0.25537404642E+02 -0.17858850779E+02  0.31452854814E+02  0.10000000000E+01 0. -1.
    1000022    2    1    0    0    0 -0.15546885768E+02  0.45196849936E+02 -0.39010108470E+02  0.62500003748E+02  0.10000050216E+02 0.  0.
    3000022    2    3    3    0    0 -0.11401467943E+02  0.19659445295E+02 -0.21151257691E+02  0.31047148934E+02  0.24998893323E+00 0.  0.
    1000022    2    1    0    0    0  0.15546885768E+02 -0.45196849936E+02  0.39010108470E+02  0.62499996252E+02  0.10000003370E+02 0.  0.
    3000022    2    5    5    0    0  0.15545314136E+02 -0.45217485589E+02  0.38419787670E+02  0.61338571719E+02  0.25000250842E+00 0.  0.
        -13    1    4    4    0    0 -0.66460081624E+01  0.11526414276E+02 -0.12457848993E+02  0.18227360673E+02  0.10500000000E+00 0. -1.
         13    1    4    4    0    0 -0.47554597802E+01  0.81330310184E+01 -0.86934086980E+01  0.12819788261E+02  0.10500000000E+00 0.  1.
    3000001    1    5    5    0    0  0.15716321082E-02  0.20635652794E-01  0.59032079983E+00  0.11614245335E+01  0.10000000000E+01 0.  1.
        -13    1    6    6    0    0  0.10203323220E+02 -0.29543458129E+02  0.25069960703E+02  0.40067913317E+02  0.10500000000E+00 0. -1.
         13    1    6    6    0    0  0.53419909159E+01 -0.15674027460E+02  0.13349826967E+02  0.21270658401E+02  0.10500000000E+00 0.  1.
</event>
<event>
11    0  0.3448258E-009  0.9118800E+02  0.7816531E-02  0.1126479E+00
         25   -1    0    0    0    0  0.00000000000E+00  0.00000000000E+00  0.99999998245E-14  0.12500000000E+03  0.12500000000E+03 0.  0.
    3000001    1    3    3    0    0 -0.53002945537E+01 -0.56364041181E+00  0.88705344843E+01  0.10396980086E+02  0.10000000000E+01 0. -1.
    1000022    2    1    0    0    0 -0.30128586090E+02  0.18078189179E+02  0.50711905831E+02  0.62500000420E+02  0.10000001780E+02 0.  0.
    3000022    2    3    3    0    0 -0.24828291537E+02  0.18641829591E+02  0.41841371347E+02  0.52103020334E+02  0.25000114123E+00 0.  0.
    1000022    2    1    0    0    0  0.30128586090E+02 -0.18078189179E+02 -0.50711905831E+02  0.62499999580E+02  0.99999965354E+01 0.  0.
    3000022    2    5    5    0    0  0.29284562618E+01 -0.61010258460E+01 -0.10274789253E+02  0.12305777788E+02  0.25000063658E+00 0.  0.
        -13    1    4    4    0    0 -0.12955183204E+02  0.96748880161E+01  0.21700895085E+02  0.27062522101E+02  0.10500000000E+00 0. -1.
         13    1    4    4    0    0 -0.11873108333E+02  0.89669415747E+01  0.20140476262E+02  0.25040498233E+02  0.10500000000E+00 0.  1.
    3000001    1    5    5    0    0  0.27200129829E+02 -0.11977163333E+02 -0.40437116579E+02  0.50194221793E+02  0.10000000000E+01 0.  1.
        -13    1    6    6    0    0  0.19436077770E+01 -0.39449395172E+01 -0.66125374577E+01  0.79420926471E+01  0.10500000000E+00 0.  1.
         13    1    6    6    0    0  0.98484848485E+00 -0.21560863288E+01 -0.36622517949E+01  0.43636851404E+01  0.10500000000E+00 0. -1.
</event>
<event>
11    0  0.3448258E-009  0.9118800E+02  0.7816531E-02  0.1126479E+00
         25   -1    0    0    0    0  0.00000000000E+00  0.00000000000E+00  0.99999998245E-14  0.12500000000E+03  0.12500000000E+03 0.  0.
    3000001    1    3    3    0    0 -0.40090728206E+01  0.15303799513E+02  0.39225436450E+01  0.16329889561E+02  0.10000000000E+01 0.  1.
    1000022    2    1    0    0    0 -0.26755880329E+02  0.55478970857E+02  0.35293522578E+01  0.62499996155E+02  0.99999926271E+01 0.  0.
    3000022    2    3    3    0    0 -0.22746807508E+02  0.40175171344E+02 -0.39319138718E+00  0.46170106594E+02  0.24999834169E+00 0.  0.
    1000022    2    1    0    0    0  0.26755880329E+02 -0.55478970857E+02 -0.35293522578E+01  0.62500003845E+02  0.10000040690E+02 0.  0.
    3000022    2    5    5    0    0  0.18359296434E+01 -0.61049803165E+00 -0.96081414095E+00  0.21746307392E+01  0.25001907172E+00 0.  0.
        -13    1    4    4    0    0 -0.16716125693E+02  0.29523784347E+02 -0.32288679397E+00  0.33929308588E+02  0.10500000000E+00 0.  1.
         13    1    4    4    0    0 -0.60306818150E+01  0.10651386996E+02 -0.70304593216E-01  0.12240798006E+02  0.10500000000E+00 0. -1.
    3000001    1    5    5    0    0  0.24919950685E+02 -0.54868472825E+02 -0.25685381169E+01  0.60325373106E+02  0.10000000000E+01 0. -1.
        -13    1    6    6    0    0  0.10979552715E+01 -0.40352361468E+00 -0.63586245518E+00  0.13355460111E+01  0.10500000000E+00 0. -1.
         13    1    6    6    0    0  0.73797437186E+00 -0.20697441697E+00 -0.32495168578E+00  0.83908472808E+00  0.10500000000E+00 0.  1.
</event>
<event>
11    0  0.3448258E-009  0.9118800E+02  0.7816531E-02  0.1126479E+00
         25   -1    0    0    0    0  0.00000000000E+00  0.00000000000E+00  0.99999998245E-14  0.12500000000E+03  0.12500000000E+03 0.  0.
    3000001    1    3    3    0    0 -0.31766200255E+02 -0.11754858585E+02 -0.28315235531E+02  0.44159039189E+02  0.10000000000E+01 0. -1.
    1000022    2    1    0    0    0 -0.48094217985E+02 -0.17313702488E+02 -0.34546085029E+02  0.62500001365E+02  0.10000004115E+02 0.  0.
    3000022    2    3    3    0    0 -0.16328017731E+02 -0.55588439025E+01 -0.62308494984E+01  0.18340962175E+02  0.24999898715E+00 0.  0.
    1000022    2    1    0    0    0  0.48094217985E+02  0.17313702488E+02  0.34546085029E+02  0.62499998635E+02  0.99999870536E+01 0.  0.
    3000022    2    5    5    0    0  0.24948477519E+02  0.13964691848E+02  0.17217939468E+02  0.33376025648E+02  0.24999910166E+00 0.  0.
        -13    1    4    4    0    0 -0.10775722700E+02 -0.36405608609E+01 -0.41596802285E+01  0.12111310734E+02  0.10500000000E+00 0. -1.
         13    1    4    4    0    0 -0.55522950309E+01 -0.19182830416E+01 -0.20711692699E+01  0.62296514414E+01  0.10500000000E+00 0.  1.
    3000001    1    5    5    0    0  0.23145740466E+02  0.33490106396E+01  0.17328145561E+02  0.29123972988E+02  0.10000000000E+01 0.  1.
        -13    1    6    6    0    0  0.18882210961E+02  0.10587607033E+02  0.13053275434E+02  0.25279128506E+02  0.10500000000E+00 0. -1.
         13    1    6    6    0    0  0.60662665586E+01  0.33770848151E+01  0.41646640335E+01  0.80968971416E+01  0.10500000000E+00 0.  1.
</event>
<event>
11    0  0.3448258E-009  0.9118800E+02  0.7816531E-02  0.1126479E+00
         25   -1    0    0    0    0  0.00000000000E+00  0.00000000000E+00  0.99999998245E-14  0.12500000000E+03  0.12500000000E+03 0.  0.
    3000001    1    3    3    0    0  0.14149636643E+02 -0.23607722629E+02  0.32732653887E+02  0.42778071664E+02  0.10000000000E+01 0.  1.
    1000022    2    1    0    0    0  0.24994427600E+02 -0.29339778909E+02  0.48173705220E+02  0.62500001752E+02  0.10000015343E+02 0.  0.
    3000022    2    3    3    0    0  0.10844790957E+02 -0.57320562801E+01  0.15441051333E+02  0.19721930088E+02  0.24999998379E+00 0.  0.
    1000022    2    1    0    0    0 -0.24994427600E+02  0.29339778909E+02 -0.48173705220E+02  0.62499998248E+02  0.99999934429E+01 0.  0.
    3000022    2    5    5    0    0 -0.24059963556E+02  0.28227245445E+02 -0.41784797036E+02  0.55872094995E+02  0.25000796044E+00 0.  0.
        -13    1    4    4    0    0  0.79318454740E+01 -0.41898156172E+01  0.11347416211E+02  0.14465255172E+02  0.10500000000E+00 0.  1.
         13    1    4    4    0    0  0.29129454832E+01 -0.15422406630E+01  0.40936351227E+01  0.52566749156E+01  0.10500000000E+00 0. -1.
    3000001    1    5    5    0    0 -0.93446404433E+00  0.11125334646E+01 -0.63889081836E+01  0.66279032535E+01  0.10000000000E+01 0.  1.
        -13    1    6    6    0    0 -0.10060147647E+02  0.11726034837E+02 -0.17467990864E+02  0.23320553027E+02  0.10500000000E+00 0.  1.
         13    1    6    6    0    0 -0.13999815909E+02  0.16501210608E+02 -0.24316806173E+02  0.32551541967E+02  0.10500000000E+00 0. -1.
</event>
<event>
11    0  0.3448258E-009  0.9118800E+02  0.7816531E-02  0.1126479E+00
         25   -1    0    0    0    0  0.00000000000E+00  0.00000000000E+00  0.99999998245E-14  0.12500000000E+03  0.12500000000E+03 0.  0.
    3000001    1    3    3    0    0  0.39864463279E+02  0.26915223840E+02  0.16697037671E+02  0.50925394195E+02  0.10000000000E+01 0. -1.
    1000022    2    1    0    0    0  0.50400244893E+02  0.31676180299E+02  0.16207559862E+02  0.62499999500E+02  0.99999928625E+01 0.  0.
    3000022    2    3    3    0    0  0.10535781614E+02  0.47609564588E+01 -0.48947780895E+00  0.11574605305E+02  0.24999767508E+00 0.  0.
    1000022    2    1    0    0    0 -0.50400244893E+02 -0.31676180299E+02 -0.16207559862E+02  0.62500000500E+02  0.99999991112E+01 0.  0.
    3000022    2    5    5    0    0 -0.13635681614E+02 -0.48116080605E+01 -0.68570582204E+01  0.16005159543E+02  0.24999872484E+00 0.  0.
        -13    1    4    4    0    0  0.47519943724E+01  0.22174743963E+01 -0.20245328585E+00  0.52488718357E+01  0.10500000000E+00 0. -1.
         13    1    4    4    0    0  0.57837872412E+01  0.25434820625E+01 -0.28702452309E+00  0.63257334698E+01  0.10500000000E+00 0.  1.
    3000001    1    5    5    0    0 -0.36764563279E+02 -0.26864572238E+02 -0.93505016419E+01  0.46494840957E+02  0.10000000000E+01 0. -1.
        -13    1    6    6    0    0 -0.69281655834E+01 -0.24660984645E+01 -0.35589947449E+01  0.81705929149E+01  0.10500000000E+00 0. -1.
         13    1    6    6    0    0 -0.67075160305E+01 -0.23455095960E+01 -0.32980634755E+01  0.78345666283E+01  0.10500000000E+00 0.  1.
</event>
<event>
11    0  0.3448258E-009  0.9118800E+02  0.7816531E-02  0.1126479E+00
         25   -1    0    0    0    0  0.00000000000E+00  0.00000000000E+00  0.99999998245E-14  0.12500000000E+03  0.12500000000E+03 0.  0.
    3000001    1    3    3    0    0 -0.82993941276E+01  0.11987697752E+02 -0.27763616688E+02  0.31375201225E+02  0.10000000000E+01 0. -1.
    1000022    2    1    0    0    0 -0.99098851834E+01  0.17268739922E+02 -0.58393790956E+02  0.62500000557E+02  0.10000002229E+02 0.  0.
    3000022    2    3    3    0    0 -0.16104910558E+01  0.52810421699E+01 -0.30630174268E+02  0.31124799333E+02  0.24993991932E+00 0.  0.
    1000022    2    1    0    0    0  0.99098851834E+01 -0.17268739922E+02  0.58393790956E+02  0.62499999443E+02  0.99999952611E+01 0.  0.
    3000022    2    5    5    0    0 -0.12923743989E+00  0.79662151648E-01 -0.33043636235E+00  0.44126990566E+00  0.24996512917E+00 0.  0.
        -13    1    4    4    0    0 -0.37812309719E+00  0.12209488325E+01 -0.70614538524E+01  0.71769665346E+01  0.10500000000E+00 0. -1.
         13    1    4    4    0    0 -0.12323679586E+01  0.40600933375E+01 -0.23568720416E+02  0.23947832798E+02  0.10500000000E+00 0.  1.
    3000001    1    5    5    0    0  0.10039122623E+02 -0.17348402074E+02  0.58724227319E+02  0.62058729537E+02  0.10000000000E+01 0. -1.
        -13    1    6    6    0    0 -0.59542125066E-01  0.11840618893E-01 -0.60038347854E-01  0.13533317452E+00  0.10500000000E+00 0.  1.
         13    1    6    6    0    0 -0.69695314827E-01  0.67821532755E-01 -0.27039801450E+00  0.30593673114E+00  0.10500000000E+00 0. -1.
</event>
<event>
11    0  0.3448258E-009  0.9118800E+02  0.7816531E-02  0.1126479E+00
         25   -1    0    0    0    0  0.00000000000E+00  0.00000000000E+00  0.99999998245E-14  0.12500000000E+03  0.12500000000E+03 0.  0.
    3000001    1    3    3    0    0  0.27697800599E+01  0.91653244789E+01  0.16328112832E+02  0.18954738802E+02  0.10000000000E+01 0. -1.
    1000022    2    1    0    0    0 -0.33735763397E+01  0.22858095874E+02  0.57204688862E+02  0.62500000126E+02  0.10000001179E+02 0.  0.
    3000022    2    3    3    0    0 -0.61433563997E+01  0.13692771396E+02  0.40876576030E+02  0.43545261324E+02  0.24999898004E+00 0.  0.
    1000022    2    1    0    0    0  0.33735763397E+01 -0.22858095874E+02 -0.57204688862E+02  0.62499999874E+02  0.99999996071E+01 0.  0.
    3000022    2    5    5    0    0 -0.23223362345E+01 -0.16032287148E+02 -0.38272874086E+02  0.41560833330E+02  0.24999909956E+00 0.  0.
        -13    1    4    4    0    0 -0.37145789619E+01  0.83210815096E+01  0.24644725525E+02  0.26275692485E+02  0.10500000000E+00 0. -1.
         13    1    4    4    0    0 -0.24287774377E+01  0.53716898860E+01  0.16231850504E+02  0.17269568839E+02  0.10500000000E+00 0.  1.
    3000001    1    5    5    0    0  0.56959125743E+01 -0.68258087261E+01 -0.18931814777E+02  0.20939166544E+02  0.10000000000E+01 0. -1.
        -13    1    6    6    0    0 -0.10792632046E+01 -0.73642472687E+01 -0.17415754786E+02  0.18939812213E+02  0.10500000000E+00 0.  1.
         13    1    6    6    0    0 -0.12430730299E+01 -0.86680398797E+01 -0.20857119300E+02  0.22621021118E+02  0.10500000000E+00 0. -1.
</event>
<event>
11    0  0.3448258E-009  0.9118800E+02  0.7816531E-02  0.1126479E+00
         25   -1    0    0    0    0  0.00000000000E+00  0.00000000000E+00  0.99999998245E-14  0.12500000000E+03  0.12500000000E+03 0.  0.
    3000001    1    3    3    0    0  0.26347761967E+02  0.28599927686E+02  0.51254960825E+00  0.38902739381E+02  0.10000000000E+01 0.  1.
    1000022    2    1    0    0    0  0.38945370247E+02  0.47478273800E+02 -0.59431985669E+01  0.62500003457E+02  0.10000023811E+02 0.  0.
    3000022    2    3    3    0    0  0.12597608281E+02  0.18878346114E+02 -0.64557481752E+01  0.23597264076E+02  0.25000191081E+00 0.  0.
    1000022    2    1    0    0    0 -0.38945370247E+02 -0.47478273800E+02  0.59431985669E+01  0.62499996543E+02  0.99999805964E+01 0.  0.
    3000022    2    5    5    0    0 -0.38092118137E+02 -0.42855664803E+02  0.62863696600E+01  0.57681872478E+02  0.24999841147E+00 0.  0.
        -13    1    4    4    0    0  0.64781266790E+01  0.98219150744E+01 -0.33218252421E+01  0.12226270443E+02  0.10500000000E+00 0. -1.
         13    1    4    4    0    0  0.61194816017E+01  0.90564310397E+01 -0.31339229331E+01  0.11370993633E+02  0.10500000000E+00 0.  1.
    3000001    1    5    5    0    0 -0.85325210991E+00 -0.46226089969E+01 -0.34317109312E+00  0.48181240645E+01  0.10000000000E+01 0.  1.
        -13    1    6    6    0    0 -0.25648340007E+02 -0.28825238124E+02  0.42786977831E+01  0.38820741592E+02  0.10500000000E+00 0.  1.
         13    1    6    6    0    0 -0.12443778130E+02 -0.14030426679E+02  0.20076718769E+01  0.18861130886E+02  0.10500000000E+00 0. -1.
</event>
<event>
11    0  0.3448258E-009  0.9118800E+02  0.7816531E-02  0.1126479E+00
         25   -1    0    0    0    0  0.00000000000E+00  0.00000000000E+00  0.99999998245E-14  0.12500000000E+03  0.12500000000E+03 0.  0.
    3000001    1    3    3    0    0  0.18612991923E+02 -0.44473557930E+02 -0.20317206847E+02  0.52327141306E+02  0.10000000000E+01 0. -1.
    1000022    2    1    0    0    0  0.25450717028E+02 -0.50280052036E+02 -0.25108311685E+02  0.62499999295E+02  0.99999983089E+01 0.  0.
    3000022    2    3    3    0    0  0.68377251048E+01 -0.58064941061E+01 -0.47911048388E+01  0.10172857988E+02  0.24999131744E+00 0.  0.
    1000022    2    1    0    0    0 -0.25450717028E+02  0.50280052036E+02  0.25108311685E+02  0.62500000705E+02  0.10000007126E+02 0.  0.
    3000022    2    5    5    0    0 -0.22879570781E+02  0.48520421210E+02  0.25103126591E+02  0.59227827032E+02  0.24999341045E+00 0.  0.
        -13    1    4    4    0    0  0.47225171831E+01 -0.39577093763E+01 -0.32578307998E+01  0.69706612722E+01  0.10500000000E+00 0. -1.
         13    1    4    4    0    0  0.21152079217E+01 -0.18487847298E+01 -0.15332740390E+01  0.32021967160E+01  0.10500000000E+00 0.  1.
    3000001    1    5    5    0    0 -0.25711462467E+01  0.17596308253E+01  0.51850941481E-02  0.32721736734E+01  0.10000000000E+01 0. -1.
        -13    1    6    6    0    0 -0.13255352022E+02  0.28232164473E+02  0.14637671088E+02  0.34453329417E+02  0.10500000000E+00 0.  1.
         13    1    6    6    0    0 -0.96242187595E+01  0.20288256737E+02  0.10465455503E+02  0.24774497615E+02  0.10500000000E+00 0. -1.
</event>
<event>
11    0  0.3448258E-009  0.9118800E+02  0.7816531E-02  0.1126479E+00
         25   -1    0    0    0    0  0.00000000000E+00  0.00000000000E+00  0.99999998245E-14  0.12500000000E+03  0.12500000000E+03 0.  0.
    3000001    1    3    3    0    0  0.52406733673E+02 -0.10895326980E+02 -0.20086501475E+02  0.57180778464E+02  0.10000000000E+01 0.  1.
    1000022    2    1    0    0    0  0.57622849817E+02 -0.99811811092E+01 -0.19652814282E+02  0.62500000013E+02  0.10000004753E+02 0.  0.
    3000022    2    3    3    0    0  0.52161161439E+01  0.91414587056E+00  0.43368719237E+00  0.53192215490E+01  0.25000601421E+00 0.  0.
    1000022    2    1    0    0    0 -0.57622849817E+02  0.99811811092E+01  0.19652814282E+02  0.62499999987E+02  0.10000004590E+02 0.  0.
    3000022    2    5    5    0    0 -0.23268075894E+02  0.14914888969E+00  0.46423895566E+01  0.23728461466E+02  0.25000306335E+00 0.  0.
        -13    1    4    4    0    0  0.33821442856E+01  0.55687471717E+00  0.23567065631E+00  0.34373791001E+01  0.10500000000E+00 0.  1.
         13    1    4    4    0    0  0.18339718583E+01  0.35727115338E+00  0.19801653606E+00  0.18818424489E+01  0.10500000000E+00 0. -1.
    3000001    1    5    5    0    0 -0.34354773923E+02  0.98320322195E+01  0.15010424726E+02  0.38771538521E+02  0.10000000000E+01 0.  1.
        -13    1    6    6    0    0 -0.83824624309E+01  0.35555475852E-01  0.17288106930E+01  0.85595999912E+01  0.10500000000E+00 0.  1.
         13    1    6    6    0    0 -0.14885613463E+02  0.11359341384E+00  0.29135788636E+01  0.15168861475E+02  0.10500000000E+00 0. -1.
</event>
<event>
11    0  0.3448258E-009  0.9118800E+02  0.7816531E-02  0.1126479E+00
         25   -1    0    0    0    0  0.00000000000E+00  0.00000000000E+00  0.99999998245E-14  0.12500000000E+03  0.12500000000E+03 0.  0.
    3000001    1    3    3    0    0 -0.34487147035E+02 -0.99717321051E+01 -0.10826990831E+02  0.37510298350E+02  0.10000000000E+01 0.  1.
    1000022    2    1    0    0    0 -0.53548964437E+02 -0.23506211736E+02 -0.19652390575E+02  0.62500000315E+02  0.10000000076E+02 0.  0.
    3000022    2    3    3    0    0 -0.19061817402E+02 -0.13534479631E+02 -0.88253997439E+01  0.24989701965E+02  0.25000422582E+00 0.  0.
    1000022    2    1    0    0    0  0.53548964437E+02  0.23506211736E+02  0.19652390575E+02  0.62499999685E+02  0.99999961419E+01 0.  0.
    3000022    2    5    5    0    0  0.47919990860E+02  0.18246412972E+02  0.19075269150E+02  0.54710012797E+02  0.24999356408E+00 0.  0.
        -13    1    4    4    0    0 -0.64474656649E+01 -0.45375049758E+01 -0.30225372617E+01  0.84442596718E+01  0.10500000000E+00 0. -1.
         13    1    4    4    0    0 -0.12614351737E+02 -0.89969746553E+01 -0.58028624822E+01  0.16545442293E+02  0.10500000000E+00 0.  1.
    3000001    1    5    5    0    0  0.56289735775E+01  0.52597987639E+01  0.57712142500E+00  0.77899868878E+01  0.10000000000E+01 0.  1.
        -13    1    6    6    0    0  0.28420634431E+02  0.10753837424E+02  0.11311295267E+02  0.32424279582E+02  0.10500000000E+00 0. -1.
         13    1    6    6    0    0  0.19499356429E+02  0.74925755483E+01  0.77639738832E+01  0.22285733216E+02  0.10500000000E+00 0.  1.
</event>
<event>
11    0  0.3448258E-009  0.9118800E+02  0.7816531E-02  0.1126479E+00
         25   -1    0    0    0    0  0.00000000000E+00  0.00000000000E+00  0.99999998245E-14  0.12500000000E+03  0.12500000000E+03 0.  0.
    3000001    1    3    3    0    0 -0.67688329648E+01  0.44585949730E+01 -0.66161625465E+01  0.10510460298E+02  0.10000000000E+01 0.  1.
    1000022    2    1    0    0    0 -0.42213225455E+02  0.39224665254E+02 -0.22039040108E+02  0.62500000127E+02  0.99999979713E+01 0.  0.
    3000022    2    3    3    0    0 -0.35444392490E+02  0.34766070281E+02 -0.15422877562E+02  0.51989539829E+02  0.24999516094E+00 0.  0.
    1000022    2    1    0    0    0  0.42213225455E+02 -0.39224665254E+02  0.22039040108E+02  0.62499999873E+02  0.99999963800E+01 0.  0.
    3000022    2    5    5    0    0  0.60798554106E+01 -0.53175818197E+01  0.70437426810E+01  0.10719987487E+02  0.25000506500E+00 0.  0.
        -13    1    4    4    0    0 -0.13620776585E+02  0.13275854737E+02 -0.58966869657E+01  0.19913709246E+02  0.10500000000E+00 0. -1.
         13    1    4    4    0    0 -0.21823615905E+02  0.21490215545E+02 -0.95261905961E+01  0.32075830583E+02  0.10500000000E+00 0.  1.
    3000001    1    5    5    0    0  0.36133370044E+02 -0.33907083434E+02  0.14995297427E+02  0.51780012386E+02  0.10000000000E+01 0.  1.
        -13    1    6    6    0    0  0.36282774641E+01 -0.32554330217E+01  0.42642696986E+01  0.64774425954E+01  0.10500000000E+00 0. -1.
         13    1    6    6    0    0  0.24515779465E+01 -0.20621487980E+01  0.27794729824E+01  0.42425448911E+01  0.10500000000E+00 0.  1.
</event>
<event>
11    0  0.3448258E-009  0.9118800E+02  0.7816531E-02  0.1126479E+00
         25   -1    0    0    0    0  0.00000000000E+00  0.00000000000E+00  0.99999998245E-14  0.12500000000E+03  0.12500000000E+03 0.  0.
    3000001    1    3    3    0    0 -0.47603700136E+02 -0.25526972347E+02 -0.49560824116E+01  0.54252201215E+02  0.10000000000E+01 0.  1.
    1000022    2    1    0    0    0 -0.52851570510E+02 -0.30583264896E+02 -0.88105990192E+01  0.62499990776E+02  0.99998797438E+01 0.  0.
    3000022    2    3    3    0    0 -0.52478703735E+01 -0.50562925495E+01 -0.38545166077E+01  0.82477895608E+01  0.24999311353E+00 0.  0.
    1000022    2    1    0    0    0  0.52851570510E+02  0.30583264896E+02  0.88105990192E+01  0.62500009224E+02  0.99999950431E+01 0.  0.
    3000022    2    5    5    0    0  0.24548071737E+02  0.91745393335E+01  0.14852271471E+01  0.26249731348E+02  0.24999638864E+00 0.  0.
        -13    1    4    4    0    0 -0.13941163021E+01 -0.12987089414E+01 -0.10038751300E+01  0.21561529294E+01  0.10500000000E+00 0.  1.
         13    1    4    4    0    0 -0.38537540715E+01 -0.37575836081E+01 -0.28506414776E+01  0.60916366314E+01  0.10500000000E+00 0. -1.
    3000001    1    5    5    0    0  0.28303498773E+02  0.21408725563E+02  0.73253718721E+01  0.36250277876E+02  0.10000000000E+01 0. -1.
        -13    1    6    6    0    0  0.96821791981E+01  0.36851270041E+01  0.59267423867E+00  0.10377236762E+02  0.10500000000E+00 0.  1.
         13    1    6    6    0    0  0.14865892539E+02  0.54894123294E+01  0.89255290842E+00  0.15872494586E+02  0.10500000000E+00 0. -1.
</event>
<event>
11    0  0.3448258E-009  0.9118800E+02  0.7816531E-02  0.1126479E+00
         25   -1    0    0    0    0  0.00000000000E+00  0.00000000000E+00  0.99999998245E-14  0.12500000000E+03  0.12500000000E+03 0.  0.
    3000001    1    3    3    0    0 -0.15004225395E+02 -0.75877578136E+01 -0.47700233662E+02  0.50586689353E+02  0.10000000000E+01 0. -1.
    1000022    2    1    0    0    0 -0.22697466304E+02 -0.82885900178E+01 -0.56765958852E+02  0.62500000756E+02  0.10000015448E+02 0.  0.
    3000022    2    3    3    0    0 -0.76932409091E+01 -0.70083220415E+00 -0.90657251907E+01  0.11913311403E+02  0.24998776505E+00 0.  0.
    1000022    2    1    0    0    0  0.22697466304E+02  0.82885900178E+01  0.56765958852E+02  0.62499999244E+02  0.10000005998E+02 0.  0.
    3000022    2    5    5    0    0  0.18689010748E+02  0.84359764212E+01  0.53288623917E+02  0.57098027664E+02  0.25000641963E+00 0.  0.
        -13    1    4    4    0    0 -0.19699711496E+01 -0.20626521199E+00 -0.23472960049E+01  0.30731344263E+01  0.10500000000E+00 0.  1.
         13    1    4    4    0    0 -0.57232697595E+01 -0.49456699216E+00 -0.67184291858E+01  0.88401769765E+01  0.10500000000E+00 0. -1.
    3000001    1    5    5    0    0  0.40084555566E+01 -0.14738640342E+00  0.34773349353E+01  0.54019715803E+01  0.10000000000E+01 0.  1.
        -13    1    6    6    0    0  0.49753907838E+01  0.22539494548E+01  0.14290856928E+02  0.15299490787E+02  0.10500000000E+00 0.  1.
         13    1    6    6    0    0  0.13713619964E+02  0.61820269664E+01  0.38997766989E+02  0.41798536877E+02  0.10500000000E+00 0. -1.
</event>
<event>
11    0  0.3448258E-009  0.9118800E+02  0.7816531E-02  0.1126479E+00
         25   -1    0    0    0    0  0.00000000000E+00  0.00000000000E+00  0.99999998245E-14  0.12500000000E+03  0.12500000000E+03 0.  0.
    3000001    1    3    3    0    0  0.16178374966E+02 -0.14133291117E+02  0.73365709717E+01  0.22722566051E+02  0.10000000000E+01 0. -1.
    1000022    2    1    0    0    0  0.51667104309E+02 -0.31416507651E+02  0.12237785197E+02  0.62499995349E+02  0.99999705736E+01 0.  0.
    3000022    2    3    3    0    0  0.35488729342E+02 -0.17283216534E+02  0.49012142253E+01  0.39777429298E+02  0.24999307824E+00 0.  0.
    1000022    2    1    0    0    0 -0.51667104309E+02  0.31416507651E+02 -0.12237785197E+02  0.62500004651E+02  0.10000028710E+02 0.  0.
    3000022    2    5    5    0    0 -0.25269316812E+02  0.14302714861E+02 -0.92214406546E+00  0.29052002878E+02  0.24999400368E+00 0.  0.
        -13    1    4    4    0    0  0.26553973455E+02 -0.12961402543E+02  0.36748945412E+01  0.29776288168E+02  0.10500000000E+00 0. -1.
         13    1    4    4    0    0  0.89347558869E+01 -0.43218139910E+01  0.12263196842E+01  0.10001141130E+02  0.10500000000E+00 0.  1.
    3000001    1    5    5    0    0 -0.26397787496E+02  0.17113792790E+02 -0.11315641132E+02  0.33448001773E+02  0.10000000000E+01 0.  1.
        -13    1    6    6    0    0 -0.10071747908E+02  0.56374622616E+01 -0.39677592891E+00  0.11549439069E+02  0.10500000000E+00 0. -1.
         13    1    6    6    0    0 -0.15197568904E+02  0.86652525995E+01 -0.52536813655E+00  0.17502563809E+02  0.10500000000E+00 0.  1.
</event>
<event>
11    0  0.3448258E-009  0.9118800E+02  0.7816531E-02  0.1126479E+00
         25   -1    0    0    0    0  0.00000000000E+00  0.00000000000E+00  0.99999998245E-14  0.12500000000E+03  0.12500000000E+03 0.  0.
    3000001    1    3    3    0    0 -0.11348043362E+02  0.20452502892E+02 -0.14826654248E+02  0.27711236690E+02  0.10000000000E+01 0. -1.
    1000022    2    1    0    0    0 -0.34826985012E+02  0.40752134330E+02 -0.30538421211E+02  0.62499997485E+02  0.99999589042E+01 0.  0.
    3000022    2    3    3    0    0 -0.23478941650E+02  0.20299631438E+02 -0.15711766963E+02  0.34788760795E+02  0.25003805399E+00 0.  0.
    1000022    2    1    0    0    0  0.34826985012E+02 -0.40752134330E+02  0.30538421211E+02  0.62500002515E+02  0.99999903416E+01 0.  0.
    3000022    2    5    5    0    0  0.49414116620E+01 -0.92574899148E+01  0.98525204313E+01  0.14396295669E+02  0.25000278344E+00 0.  0.
        -13    1    4    4    0    0 -0.15683369211E+02  0.13615572758E+02 -0.10549346854E+02  0.23294884318E+02  0.10500000000E+00 0.  1.
         13    1    4    4    0    0 -0.77955724390E+01  0.66840586798E+01 -0.51624201087E+01  0.11493876477E+02  0.10500000000E+00 0. -1.
    3000001    1    5    5    0    0  0.29885573350E+02 -0.31494644415E+02  0.20685900780E+02  0.48103706846E+02  0.10000000000E+01 0. -1.
        -13    1    6    6    0    0  0.23005061878E+01 -0.41766586129E+01  0.45085205996E+01  0.65631234094E+01  0.10500000000E+00 0. -1.
         13    1    6    6    0    0  0.26409054742E+01 -0.50808313019E+01  0.53439998317E+01  0.78331722592E+01  0.10500000000E+00 0.  1.
</event>
<event>
11    0  0.3448258E-009  0.9118800E+02  0.7816531E-02  0.1126479E+00
         25   -1    0    0    0    0  0.00000000000E+00  0.00000000000E+00  0.99999998245E-14  0.12500000000E+03  0.12500000000E+03 0.  0.
    3000001    1    3    3    0    0  0.22396165960E+02  0.23572066918E+00 -0.79840495647E+01  0.23798925635E+02  0.10000000000E+01 0.  1.
    1000022    2    1    0    0    0  0.57710643239E+02 -0.11651416426E+02 -0.18438423168E+02  0.62499994817E+02  0.10000002769E+02 0.  0.
    3000022    2    3    3    0    0  0.35314477279E+02 -0.11887137095E+02 -0.10454373603E+02  0.38701069181E+02  0.24998910041E+00 0.  0.
    1000022    2    1    0    0    0 -0.57710643239E+02  0.11651416426E+02  0.18438423168E+02  0.62500005183E+02  0.10000067562E+02 0.  0.
    3000022    2    5    5    0    0 -0.26577687102E+02  0.93765784510E+01  0.56163530225E+01  0.28738468956E+02  0.25000303281E+00 0.  0.
        -13    1    4    4    0    0  0.23400911590E+02 -0.79262037234E+01 -0.69032881277E+01  0.25653338587E+02  0.10500000000E+00 0.  1.
         13    1    4    4    0    0  0.11913565689E+02 -0.39609333714E+01 -0.35510854755E+01  0.13047730594E+02  0.10500000000E+00 0. -1.
    3000001    1    5    5    0    0 -0.31132956137E+02  0.22748379746E+01  0.12822070146E+02  0.33761536227E+02  0.10000000000E+01 0. -1.
        -13    1    6    6    0    0 -0.63825360085E+01  0.22560906446E+01  0.13296612457E+01  0.68996909297E+01  0.10500000000E+00 0.  1.
         13    1    6    6    0    0 -0.20195151094E+02  0.71204878064E+01  0.42866917768E+01  0.21838778026E+02  0.10500000000E+00 0. -1.
</event>
<event>
11    0  0.3448258E-009  0.9118800E+02  0.7816531E-02  0.1126479E+00
         25   -1    0    0    0    0  0.00000000000E+00  0.00000000000E+00  0.99999998245E-14  0.12500000000E+03  0.12500000000E+03 0.  0.
    3000001    1    3    3    0    0  0.30602347650E+02  0.33012093736E+02 -0.20751041000E+02  0.49577290337E+02  0.10000000000E+01 0. -1.
    1000022    2    1    0    0    0  0.41865534411E+02  0.38194711932E+02 -0.24386286361E+02  0.62499999510E+02  0.99999992605E+01 0.  0.
    3000022    2    3    3    0    0  0.11263186761E+02  0.51826181961E+01 -0.36352453604E+01  0.12922709173E+02  0.24999234833E+00 0.  0.
    1000022    2    1    0    0    0 -0.41865534411E+02 -0.38194711932E+02  0.24386286361E+02  0.62500000490E+02  0.10000005384E+02 0.  0.
    3000022    2    5    5    0    0 -0.36656457695E+02 -0.29928568078E+02  0.22878579413E+02  0.52563361486E+02  0.24999366597E+00 0.  0.
        -13    1    4    4    0    0  0.33960232956E+01  0.15833414806E+01 -0.11431419120E+01  0.39188956224E+01  0.10500000000E+00 0. -1.
         13    1    4    4    0    0  0.78671634652E+01  0.35992767155E+01 -0.24921034484E+01  0.90038135510E+01  0.10500000000E+00 0.  1.
    3000001    1    5    5    0    0 -0.52090767163E+01 -0.82661438543E+01  0.15077069479E+01  0.99366390040E+01  0.10000000000E+01 0.  1.
        -13    1    6    6    0    0 -0.19625580533E+02 -0.16056235000E+02  0.12189833079E+02  0.28134838708E+02  0.10500000000E+00 0. -1.
         13    1    6    6    0    0 -0.17030877162E+02 -0.13872333078E+02  0.10688746334E+02  0.24428522778E+02  0.10500000000E+00 0.  1.
</event>
<event>
11    0  0.3448258E-009  0.9118800E+02  0.7816531E-02  0.1126479E+00
         25   -1    0    0    0    0  0.00000000000E+00  0.00000000000E+00  0.99999998245E-14  0.12500000000E+03  0.12500000000E+03 0.  0.
    3000001    1    3    3    0    0 -0.17548235490E+02 -0.27289224761E+02  0.46060072881E+02  0.56348670532E+02  0.10000000000E+01 0.  1.
    1000022    2    1    0    0    0 -0.17440970426E+02 -0.32340998439E+02  0.49559278520E+02  0.62500000567E+02  0.10000017701E+02 0.  0.
    3000022    2    3    3    0    0  0.10726506409E+00 -0.50517736772E+01  0.34992056389E+01  0.61513300350E+01  0.24999603288E+00 0.  0.
    1000022    2    1    0    0    0  0.17440970426E+02  0.32340998439E+02 -0.49559278520E+02  0.62499999433E+02  0.10000010613E+02 0.  0.
    3000022    2    5    5    0    0  0.38192457238E+01  0.11887447568E+02 -0.23845049988E+02  0.26917409925E+02  0.25000113990E+00 0.  0.
        -13    1    4    4    0    0  0.16651845431E-01 -0.11960663285E+01  0.84786615751E+00  0.14699503282E+01  0.10500000000E+00 0.  1.
         13    1    4    4    0    0  0.90613218663E-01 -0.38557073487E+01  0.26513394814E+01  0.46813797068E+01  0.10500000000E+00 0. -1.
    3000001    1    5    5    0    0  0.13621724702E+02  0.20453550870E+02 -0.25714228532E+02  0.35582589508E+02  0.10000000000E+01 0.  1.
        -13    1    6    6    0    0  0.22777273710E+01  0.72901267521E+01 -0.14568851329E+02  0.16449815929E+02  0.10500000000E+00 0.  1.
         13    1    6    6    0    0  0.15415183528E+01  0.45973208163E+01 -0.92761986584E+01  0.10467593996E+02  0.10500000000E+00 0. -1.
</event>
<event>
11    0  0.3448258E-009  0.9118800E+02  0.7816531E-02  0.1126479E+00
         25   -1    0    0    0    0  0.00000000000E+00  0.00000000000E+00  0.99999998245E-14  0.12500000000E+03  0.12500000000E+03 0.  0.
    3000001    1    3    3    0    0 -0.10465403914E+02  0.81759774773E-01  0.55140084483E+00  0.10527839600E+02  0.10000000000E+01 0.  1.
    1000022    2    1    0    0    0 -0.56935787173E+02 -0.80625342048E+01  0.22350873732E+02  0.62500001107E+02  0.10000013148E+02 0.  0.
    3000022    2    3    3    0    0 -0.46470383260E+02 -0.81442939796E+01  0.21799472888E+02  0.51972161508E+02  0.25001782319E+00 0.  0.
    1000022    2    1    0    0    0  0.56935787173E+02  0.80625342048E+01 -0.22350873732E+02  0.62499998893E+02  0.99999993051E+01 0.  0.
    3000022    2    5    5    0    0  0.93541838651E+01 -0.20191880162E+01 -0.20731156641E+01  0.97948040005E+01  0.25000164888E+00 0.  0.
        -13    1    4    4    0    0 -0.20473614008E+02 -0.35561023418E+01  0.95376691116E+01  0.22864664692E+02  0.10500000000E+00 0.  1.
         13    1    4    4    0    0 -0.25996769252E+02 -0.45881916378E+01  0.12261803776E+02  0.29107496816E+02  0.10500000000E+00 0. -1.
    3000001    1    5    5    0    0  0.47581603308E+02  0.10081722221E+02 -0.20277758068E+02  0.52705194892E+02  0.10000000000E+01 0. -1.
        -13    1    6    6    0    0  0.42504801080E+01 -0.88121393952E+00 -0.88247173927E+00  0.44309029019E+01  0.10500000000E+00 0.  1.
         13    1    6    6    0    0  0.51037037571E+01 -0.11379740766E+01 -0.11906439248E+01  0.53639010986E+01  0.10500000000E+00 0. -1.
</event>
<event>
11    0  0.3448258E-009  0.9118800E+02  0.7816531E-02  0.1126479E+00
         25   -1    0    0    0    0  0.00000000000E+00  0.00000000000E+00  0.99999998245E-14  0.12500000000E+03  0.12500000000E+03 0.  0.
    3000001    1    3    3    0    0 -0.19728498659E+02  0.37056056590E+02  0.29146999637E+02  0.51116656553E+02  0.10000000000E+01 0. -1.
    1000022    2    1    0    0    0 -0.19615324134E+02  0.46557112693E+02  0.35410794340E+02  0.62499999723E+02  0.99999963231E+01 0.  0.
    3000022    2    3    3    0    0  0.11317452502E+00  0.95010561029E+01  0.62637947032E+01  0.11383343170E+02  0.25000421390E+00 0.  0.
    1000022    2    1    0    0    0  0.19615324134E+02 -0.46557112693E+02 -0.35410794340E+02  0.62500000277E+02  0.99999997815E+01 0.  0.
    3000022    2    5    5    0    0  0.20537958434E+02 -0.43990698057E+02 -0.33998125220E+02  0.59269927185E+02  0.24999578380E+00 0.  0.
        -13    1    4    4    0    0  0.27159656462E-01  0.60545169745E+01  0.40355069230E+01  0.72769674018E+01  0.10500000000E+00 0.  1.
         13    1    4    4    0    0  0.86014868560E-01  0.34465391284E+01  0.22282877802E+01  0.41063757685E+01  0.10500000000E+00 0. -1.
    3000001    1    5    5    0    0 -0.92263429977E+00 -0.25664146357E+01 -0.14126691197E+01  0.32300730914E+01  0.10000000000E+01 0. -1.
        -13    1    6    6    0    0  0.73960016960E+01 -0.15938211843E+02 -0.12355501321E+02  0.21480150739E+02  0.10500000000E+00 0. -1.
         13    1    6    6    0    0  0.13141956738E+02 -0.28052486214E+02 -0.21642623899E+02  0.37789776447E+02  0.10500000000E+00 0.  1.
</event>
<event>
11    0  0.3448258E-009  0.9118800E+02  0.7816531E-02  0.1126479E+00
         25   -1    0    0    0    0  0.00000000000E+00  0.00000000000E+00  0.99999998245E-14  0.12500000000E+03  0.12500000000E+03 0.  0.
    3000001    1    3    3    0    0 -0.78482704305E+01  0.20784554340E+01  0.33340923471E+01  0.88335438823E+01  0.10000000000E+01 0.  1.
    1000022    2    1    0    0    0 -0.60486780830E+02  0.12138554550E+02  0.50425487902E+00  0.62500003163E+02  0.10000048034E+02 0.  0.
    3000022    2    3    3    0    0 -0.52638510399E+02  0.10060099116E+02 -0.28298374681E+01  0.53666459281E+02  0.25000072778E+00 0.  0.
    1000022    2    1    0    0    0  0.60486780830E+02 -0.12138554550E+02 -0.50425487902E+00  0.62499996837E+02  0.10000008493E+02 0.  0.
    3000022    2    5    5    0    0  0.51902798833E+02 -0.13584362514E+02 -0.15611603647E+01  0.53674343501E+02  0.24999401989E+00 0.  0.
        -13    1    4    4    0    0 -0.33050872717E+02  0.62578567873E+01 -0.17922107662E+01  0.33685961517E+02  0.10500000000E+00 0. -1.
         13    1    4    4    0    0 -0.19587637683E+02  0.38022423288E+01 -0.10376267019E+01  0.19980497764E+02  0.10500000000E+00 0.  1.
    3000001    1    5    5    0    0  0.85839819972E+01  0.14458079634E+01  0.10569054857E+01  0.88256533357E+01  0.10000000000E+01 0. -1.
        -13    1    6    6    0    0  0.33405316082E+02 -0.86926094275E+01 -0.10349369392E+01  0.34533443510E+02  0.10500000000E+00 0.  1.
         13    1    6    6    0    0  0.18497482751E+02 -0.48917530861E+01 -0.52622342554E+00  0.19140899991E+02  0.10500000000E+00 0. -1.
</event>
<event>
11    0  0.3448258E-009  0.9118800E+02  0.7816531E-02  0.1126479E+00
         25   -1    0    0    0    0  0.00000000000E+00  0.00000000000E+00  0.99999998245E-14  0.12500000000E+03  0.12500000000E+03 0.  0.
    3000001    1    3    3    0    0  0.64972281983E+01 -0.17434348881E+02 -0.11184177038E+02  0.21731459021E+02  0.10000000000E+01 0.  1.
    1000022    2    1    0    0    0  0.29667794007E+02 -0.42427875308E+02 -0.33555140100E+02  0.62500000482E+02  0.10000001435E+02 0.  0.
    3000022    2    3    3    0    0  0.23170565809E+02 -0.24993526426E+02 -0.22370963062E+02  0.40768541461E+02  0.25000270100E+00 0.  0.
    1000022    2    1    0    0    0 -0.29667794007E+02  0.42427875308E+02  0.33555140100E+02  0.62499999518E+02  0.99999954148E+01 0.  0.
    3000022    2    5    5    0    0 -0.39032298062E+01  0.12049764818E+02  0.57513549570E+01  0.13913037958E+02  0.25001258642E+00 0.  0.
        -13    1    4    4    0    0  0.15597102692E+02 -0.16821099572E+02 -0.14994720134E+02  0.27405686638E+02  0.10500000000E+00 0.  1.
         13    1    4    4    0    0  0.75734631167E+01 -0.81724268537E+01 -0.73762429287E+01  0.13362854822E+02  0.10500000000E+00 0. -1.
    3000001    1    5    5    0    0 -0.25764564201E+02  0.30378110490E+02  0.27803785143E+02  0.48586961561E+02  0.10000000000E+01 0.  1.
        -13    1    6    6    0    0 -0.26250032440E+01  0.82542814308E+01  0.39527043850E+01  0.95214862771E+01  0.10500000000E+00 0. -1.
         13    1    6    6    0    0 -0.12782265622E+01  0.37954833869E+01  0.17986505720E+01  0.43915516808E+01  0.10500000000E+00 0.  1.
</event>
<event>
11    0  0.3448258E-009  0.9118800E+02  0.7816531E-02  0.1126479E+00
         25   -1    0    0    0    0  0.00000000000E+00  0.00000000000E+00  0.99999998245E-14  0.12500000000E+03  0.12500000000E+03 0.  0.
    3000001    1    3    3    0    0  0.12137307170E+02  0.15175785509E+02  0.23713060311E+02  0.30674548415E+02  0.10000000000E+01 0.  1.
    1000022    2    1    0    0    0  0.30324225809E+02  0.22553553559E+02  0.48765035222E+02  0.62500000645E+02  0.99999985714E+01 0.  0.
    3000022    2    3    3    0    0  0.18186918638E+02  0.73777680500E+01  0.25051974911E+02  0.31825452230E+02  0.24998350160E+00 0.  0.
    1000022    2    1    0    0    0 -0.30324225809E+02 -0.22553553559E+02 -0.48765035222E+02  0.62499999355E+02  0.99999905042E+01 0.  0.
    3000022    2    5    5    0    0 -0.34139564242E+01 -0.57645471653E+01 -0.46588007005E+01  0.81640696423E+01  0.25001334002E+00 0.  0.
        -13    1    4    4    0    0  0.11005142797E+02  0.44016417147E+01  0.15166532089E+02  0.19248956812E+02  0.10500000000E+00 0.  1.
         13    1    4    4    0    0  0.71817758417E+01  0.29761263353E+01  0.98854428225E+01  0.12576495418E+02  0.10500000000E+00 0. -1.
    3000001    1    5    5    0    0 -0.26910269384E+02 -0.16789006394E+02 -0.44106234522E+02  0.54335929712E+02  0.10000000000E+01 0.  1.
        -13    1    6    6    0    0 -0.14999962623E+01 -0.25391832367E+01 -0.19706856354E+01  0.35485302830E+01  0.10500000000E+00 0.  1.
         13    1    6    6    0    0 -0.19139601619E+01 -0.32253639286E+01 -0.26881150651E+01  0.46155393593E+01  0.10500000000E+00 0. -1.
</event>
<event>
11    0  0.3448258E-009  0.9118800E+02  0.7816531E-02  0.1126479E+00
         25   -1    0    0    0    0  0.00000000000E+00  0.00000000000E+00  0.99999998245E-14  0.12500000000E+03  0.12500000000E+03 0.  0.
    3000001    1    3    3    0    0 -0.17947011464E+01  0.11237856330E+02 -0.65304199052E+01  0.13158903877E+02  0.10000000000E+01 0.  1.
    1000022    2    1    0    0    0 -0.83616867598E+01  0.59680939995E+02 -0.13210518036E+02  0.62500001067E+02  0.99999971210E+01 0.  0.
    3000022    2    3    3    0    0 -0.65669856133E+01  0.48443083665E+02 -0.66800981305E+01  0.49341097190E+02  0.25001172608E+00 0.  0.
    1000022    2    1    0    0    0  0.83616867598E+01 -0.59680939995E+02  0.13210518036E+02  0.62499998933E+02  0.99999837855E+01 0.  0.
    3000022    2    5    5    0    0  0.29230188609E+01 -0.18285676452E+02 -0.55218469953E+00  0.18527747013E+02  0.24999776635E+00 0.  0.
        -13    1    4    4    0    0 -0.46710961007E+01  0.34658174787E+02 -0.48102130930E+01  0.35300954567E+02  0.10500000000E+00 0. -1.
         13    1    4    4    0    0 -0.18958895126E+01  0.13784908878E+02 -0.18698850375E+01  0.14040142623E+02  0.10500000000E+00 0.  1.
    3000001    1    5    5    0    0  0.54386678988E+01 -0.41395263543E+02  0.13762702735E+02  0.43972251920E+02  0.10000000000E+01 0. -1.
        -13    1    6    6    0    0  0.10836219532E+01 -0.71709988968E+01 -0.21037944792E+00  0.72562212086E+01  0.10500000000E+00 0. -1.
         13    1    6    6    0    0  0.18393969078E+01 -0.11114677555E+02 -0.34180525161E+00  0.11271525805E+02  0.10500000000E+00 0.  1.
</event>
<event>
11    0  0.3448258E-009  0.9118800E+02  0.7816531E-02  0.1126479E+00
         25   -1    0    0    0    0  0.00000000000E+00  0.00000000000E+00  0.99999998245E-14  0.12500000000E+03  0.12500000000E+03 0.  0.
    3000001    1    3    3    0    0 -0.20501737502E+02  0.70403775037E+01 -0.75830967551E+01  0.22986768202E+02  0.10000000000E+01 0. -1.
    1000022    2    1    0    0    0 -0.48786734833E+02  0.29691139023E+02 -0.23335398081E+02  0.62500001039E+02  0.10000004704E+02 0.  0.
    3000022    2    3    3    0    0 -0.28284997331E+02  0.22650761519E+02 -0.15752301326E+02  0.39513232836E+02  0.25000137676E+00 0.  0.
    1000022    2    1    0    0    0  0.48786734833E+02 -0.29691139023E+02  0.23335398081E+02  0.62499998961E+02  0.99999917210E+01 0.  0.
    3000022    2    5    5    0    0  0.31203684702E+02 -0.13396253730E+02  0.12713949111E+02  0.36260675097E+02  0.25000706421E+00 0.  0.
        -13    1    4    4    0    0 -0.78929680803E+01  0.62900565876E+01 -0.44213430640E+01  0.11019213061E+02  0.10500000000E+00 0.  1.
         13    1    4    4    0    0 -0.20392029251E+02  0.16360704932E+02 -0.11330958262E+02  0.28494019776E+02  0.10500000000E+00 0. -1.
    3000001    1    5    5    0    0  0.17583050131E+02 -0.16294885293E+02  0.10621448971E+02  0.26239323864E+02  0.10000000000E+01 0. -1.
        -13    1    6    6    0    0  0.17339307431E+02 -0.75084527114E+01  0.70423529520E+01  0.20165173057E+02  0.10500000000E+00 0.  1.
         13    1    6    6    0    0  0.13864377270E+02 -0.58878010187E+01  0.56715961585E+01  0.16095502040E+02  0.10500000000E+00 0. -1.
</event>
<event>
11    0  0.3448258E-009  0.9118800E+02  0.7816531E-02  0.1126479E+00
         25   -1    0    0    0    0  0.00000000000E+00  0.00000000000E+00  0.99999998245E-14  0.12500000000E+03  0.12500000000E+03 0.  0.
    3000001    1    3    3    0    0  0.25991060364E+02  0.52456969191E+02  0.37016575721E+01  0.58668314313E+02  0.10000000000E+01 0.  1.
    1000022    2    1    0    0    0  0.28941295142E+02  0.54219272373E+02  0.53778691605E+01  0.62499995753E+02  0.99999965630E+01 0.  0.
    3000022    2    3    3    0    0  0.29502347779E+01  0.17623031821E+01  0.16762115884E+01  0.38316814400E+01  0.24999923642E+00 0.  0.
    1000022    2    1    0    0    0 -0.28941295142E+02 -0.54219272373E+02 -0.53778691605E+01  0.62500004247E+02  0.10000049654E+02 0.  0.
    3000022    2    5    5    0    0 -0.77834259685E+01 -0.21393039944E+02 -0.55488641262E+01  0.23432803135E+02  0.24998370049E+00 0.  0.
        -13    1    4    4    0    0  0.19560479248E+01  0.12295847846E+01  0.11264830390E+01  0.25725456777E+01  0.10500000000E+00 0. -1.
         13    1    4    4    0    0  0.99418685307E+00  0.53271839744E+00  0.54972854948E+00  0.12591357623E+01  0.10500000000E+00 0.  1.
    3000001    1    5    5    0    0 -0.21157869174E+02 -0.32826232429E+02  0.17099496573E+00  0.39067201112E+02  0.10000000000E+01 0.  1.
        -13    1    6    6    0    0 -0.48484662347E+01 -0.13453513390E+02 -0.35277289745E+01  0.14729580581E+02  0.10500000000E+00 0. -1.
         13    1    6    6    0    0 -0.29349597338E+01 -0.79395265535E+01 -0.20211351517E+01  0.87032225546E+01  0.10500000000E+00 0.  1.
</event>
<event>
11    0  0.3448258E-009  0.9118800E+02  0.7816531E-02  0.1126479E+00
         25   -1    0    0    0    0  0.00000000000E+00  0.00000000000E+00  0.99999998245E-14  0.12500000000E+03  0.12500000000E+03 0.  0.
    3000001    1    3    3    0    0  0.25160290128E+01  0.22801704381E+01 -0.16202216320E+02  0.16584371948E+02  0.10000000000E+01 0.  1.
    1000022    2    1    0    0    0  0.65214007133E+01 -0.74505951627E+01 -0.60895074313E+02  0.62499999537E+02  0.99999915497E+01 0.  0.
    3000022    2    3    3    0    0  0.40053717005E+01 -0.97307656009E+01 -0.44692857992E+02  0.45915627589E+02  0.24999938913E+00 0.  0.
    1000022    2    1    0    0    0 -0.65214007133E+01  0.74505951627E+01  0.60895074313E+02  0.62500000463E+02  0.99999973387E+01 0.  0.
    3000022    2    5    5    0    0 -0.84925361103E+01  0.40366317053E+01  0.49855527510E+02  0.50735132642E+02  0.24999151732E+00 0.  0.
        -13    1    4    4    0    0  0.18999299770E+01 -0.45402153443E+01 -0.21169665294E+02  0.21734512714E+02  0.10500000000E+00 0. -1.
         13    1    4    4    0    0  0.21054417235E+01 -0.51905502566E+01 -0.23523192699E+02  0.24181114874E+02  0.10500000000E+00 0.  1.
    3000001    1    5    5    0    0  0.19711353970E+01  0.34139634574E+01  0.11039546803E+02  0.11764867821E+02  0.10000000000E+01 0.  1.
        -13    1    6    6    0    0 -0.25489617247E+01  0.12159258473E+01  0.15227482211E+02  0.15487508548E+02  0.10500000000E+00 0. -1.
         13    1    6    6    0    0 -0.59435743856E+01  0.28207058580E+01  0.34628045299E+02  0.35247624094E+02  0.10500000000E+00 0.  1.
</event>
<event>
11    0  0.3448258E-009  0.9118800E+02  0.7816531E-02  0.1126479E+00
         25   -1    0    0    0    0  0.00000000000E+00  0.00000000000E+00  0.99999998245E-14  0.12500000000E+03  0.12500000000E+03 0.  0.
    3000001    1    3    3    0    0  0.76368731008E+01  0.63928158342E+01  0.38686395280E+01  0.10731090198E+02  0.10000000000E+01 0. -1.
    1000022    2    1    0    0    0  0.29641123938E+02  0.38767910333E+02  0.37745236552E+02  0.62500000998E+02  0.10000007128E+02 0.  0.
    3000022    2    3    3    0    0  0.22004250837E+02  0.32375094499E+02  0.33876597024E+02  0.51768910800E+02  0.25000160157E+00 0.  0.
    1000022    2    1    0    0    0 -0.29641123938E+02 -0.38767910333E+02 -0.37745236552E+02  0.62499999002E+02  0.99999946470E+01 0.  0.
    3000022    2    5    5    0    0 -0.19887971719E+02 -0.32727135506E+02 -0.29270580851E+02  0.48201931721E+02  0.25000145317E+00 0.  0.
        -13    1    4    4    0    0  0.93709448127E+01  0.13733214551E+02  0.14312103264E+02  0.21937709849E+02  0.10500000000E+00 0. -1.
         13    1    4    4    0    0  0.12633306025E+02  0.18641879947E+02  0.19564493760E+02  0.29831200951E+02  0.10500000000E+00 0.  1.
    3000001    1    5    5    0    0 -0.97531522191E+01 -0.60407748267E+01 -0.84746557013E+01  0.14298067281E+02  0.10000000000E+01 0.  1.
        -13    1    6    6    0    0 -0.11073946373E+02 -0.18319509785E+02 -0.16306856784E+02  0.26910245823E+02  0.10500000000E+00 0. -1.
         13    1    6    6    0    0 -0.88140253457E+01 -0.14407625721E+02 -0.12963724067E+02  0.21291685898E+02  0.10500000000E+00 0.  1.
</event>
<event>
11    0  0.3448258E-009  0.9118800E+02  0.7816531E-02  0.1126479E+00
         25   -1    0    0    0    0  0.00000000000E+00  0.00000000000E+00  0.99999998245E-14  0.12500000000E+03  0.12500000000E+03 0.  0.
    3000001    1    3    3    0    0 -0.40037580795E+02  0.30004958563E+00 -0.43450573107E+02  0.59093571639E+02  0.10000000000E+01 0.  1.
    1000022    2    1    0    0    0 -0.42312921484E+02 -0.17904052944E+01 -0.44862691746E+02  0.62500000353E+02  0.10000002886E+02 0.  0.
    3000022    2    3    3    0    0 -0.22753406893E+01 -0.20904548801E+01 -0.14121186391E+01  0.34064287141E+01  0.25000135055E+00 0.  0.
    1000022    2    1    0    0    0  0.42312921484E+02  0.17904052944E+01  0.44862691746E+02  0.62499999647E+02  0.99999984783E+01 0.  0.
    3000022    2    5    5    0    0  0.22516885859E+02 -0.78787302820E+00  0.17079319549E+02  0.28273601703E+02  0.25000862785E+00 0.  0.
        -13    1    4    4    0    0 -0.11560109732E+01 -0.10372004021E+01 -0.78148221474E+00  0.17418052406E+01  0.10500000000E+00 0. -1.
         13    1    4    4    0    0 -0.11193297161E+01 -0.10532544780E+01 -0.63063642433E+00  0.16646234735E+01  0.10500000000E+00 0.  1.
    3000001    1    5    5    0    0  0.19796035625E+02  0.25782783226E+01  0.27783372198E+02  0.34226397944E+02  0.10000000000E+01 0. -1.
        -13    1    6    6    0    0  0.80982318032E+01 -0.34058978271E+00  0.61569832095E+01  0.10179235088E+02  0.10500000000E+00 0.  1.
         13    1    6    6    0    0  0.14418654056E+02 -0.44728324548E+00  0.10922336339E+02  0.18094366615E+02  0.10500000000E+00 0. -1.
</event>
<event>
11    0  0.3448258E-009  0.9118800E+02  0.7816531E-02  0.1126479E+00
         25   -1    0    0    0    0  0.00000000000E+00  0.00000000000E+00  0.99999998245E-14  0.12500000000E+03  0.12500000000E+03 0.  0.
    3000001    1    3    3    0    0 -0.12492654346E+02  0.48146740172E+02 -0.16741634706E+02  0.52492450261E+02  0.10000000000E+01 0. -1.
    1000022    2    1    0    0    0 -0.17787827645E+02  0.54841827082E+02 -0.21959442444E+02  0.62500000991E+02  0.10000010068E+02 0.  0.
    3000022    2    3    3    0    0 -0.52951732993E+01  0.66950869104E+01 -0.52178077377E+01  0.10007550730E+02  0.25001002477E+00 0.  0.
    1000022    2    1    0    0    0  0.17787827645E+02 -0.54841827082E+02  0.21959442444E+02  0.62499999009E+02  0.99999976833E+01 0.  0.
    3000022    2    5    5    0    0  0.39428901780E+01 -0.16871942620E+02  0.11311886078E+02  0.20693721059E+02  0.24998775108E+00 0.  0.
        -13    1    4    4    0    0 -0.14322811846E+01  0.17659084447E+01 -0.14145816231E+01  0.26799119753E+01  0.10500000000E+00 0. -1.
         13    1    4    4    0    0 -0.38628921146E+01  0.49291784657E+01 -0.38032261146E+01  0.73276387544E+01  0.10500000000E+00 0.  1.
    3000001    1    5    5    0    0  0.13844937467E+02 -0.37969884462E+02  0.10647556366E+02  0.41806277951E+02  0.10000000000E+01 0. -1.
        -13    1    6    6    0    0  0.15794875211E+01 -0.68549723648E+01  0.46641573063E+01  0.84410198039E+01  0.10500000000E+00 0.  1.
         13    1    6    6    0    0  0.23634026569E+01 -0.10016970255E+02  0.66477287715E+01  0.12252701255E+02  0.10500000000E+00 0. -1.
</event>
<event>
11    0  0.3448258E-009  0.9118800E+02  0.7816531E-02  0.1126479E+00
         25   -1    0    0    0    0  0.00000000000E+00  0.00000000000E+00  0.99999998245E-14  0.12500000000E+03  0.12500000000E+03 0.  0.
    3000001    1    3    3    0    0 -0.45795781386E+01 -0.22776595502E+02 -0.48527343984E+02  0.53811234447E+02  0.10000000000E+01 0. -1.
    1000022    2    1    0    0    0 -0.85919645469E+01 -0.27694389771E+02 -0.54455935165E+02  0.62499999604E+02  0.99999998140E+01 0.  0.
    3000022    2    3    3    0    0 -0.40123864083E+01 -0.49177942694E+01 -0.59285911808E+01  0.86887651572E+01  0.25000280136E+00 0.  0.
    1000022    2    1    0    0    0  0.85919645469E+01  0.27694389771E+02  0.54455935165E+02  0.62500000396E+02  0.10000004764E+02 0.  0.
    3000022    2    5    5    0    0  0.57481932822E+01  0.58337285637E+01  0.10528620909E+02  0.13341232296E+02  0.25001191933E+00 0.  0.
        -13    1    4    4    0    0 -0.29353548478E+01 -0.36332418327E+01 -0.43265859800E+01  0.63676624863E+01  0.10500000000E+00 0. -1.
         13    1    4    4    0    0 -0.10770315605E+01 -0.12845524367E+01 -0.16020052009E+01  0.23211026708E+01  0.10500000000E+00 0.  1.
    3000001    1    5    5    0    0  0.28437712647E+01  0.21860661207E+02  0.43927314255E+02  0.49158768100E+02  0.10000000000E+01 0. -1.
        -13    1    6    6    0    0  0.44046624094E+01  0.44486245569E+01  0.80496377406E+01  0.10197990201E+02  0.10500000000E+00 0.  1.
         13    1    6    6    0    0  0.13435308728E+01  0.13851040068E+01  0.24789831688E+01  0.31432420949E+01  0.10500000000E+00 0. -1.
</event>
<event>
11    0  0.3448258E-009  0.9118800E+02  0.7816531E-02  0.1126479E+00
         25   -1    0    0    0    0  0.00000000000E+00  0.00000000000E+00  0.99999998245E-14  0.12500000000E+03  0.12500000000E+03 0.  0.
    3000001    1    3    3    0    0  0.12913806217E+01  0.28723552949E+01 -0.17122908226E+02  0.17438809448E+02  0.10000000000E+01 0.  1.
    1000022    2    1    0    0    0  0.18087218648E+02  0.24303662732E+01 -0.58933821689E+02  0.62499995778E+02  0.99999987382E+01 0.  0.
    3000022    2    3    3    0    0  0.16795838027E+02 -0.44198902170E+00 -0.41810913462E+02  0.45061186330E+02  0.24999912582E+00 0.  0.
    1000022    2    1    0    0    0 -0.18087218648E+02 -0.24303662732E+01  0.58933821689E+02  0.62500004222E+02  0.10000051514E+02 0.  0.
    3000022    2    5    5    0    0 -0.79336181992E+01  0.20226154923E+01  0.14117123420E+02  0.16321425938E+02  0.24999964200E+00 0.  0.
        -13    1    4    4    0    0  0.65226196295E+01 -0.16999082622E+00 -0.16403786138E+02  0.17654140828E+02  0.10500000000E+00 0.  1.
         13    1    4    4    0    0  0.10273218397E+02 -0.27199819547E+00 -0.25407127325E+02  0.27407045502E+02  0.10500000000E+00 0. -1.
    3000001    1    5    5    0    0 -0.10153600449E+02 -0.44529817655E+01  0.44816698268E+02  0.46178578284E+02  0.10000000000E+01 0. -1.
        -13    1    6    6    0    0 -0.26739997909E+01  0.66514333439E+00  0.48562529593E+01  0.55845240031E+01  0.10500000000E+00 0.  1.
         13    1    6    6    0    0 -0.52596184083E+01  0.13574721579E+01  0.92608704610E+01  0.10736901935E+02  0.10500000000E+00 0. -1.
</event>
<event>
11    0  0.3448258E-009  0.9118800E+02  0.7816531E-02  0.1126479E+00
         25   -1    0    0    0    0  0.00000000000E+00  0.00000000000E+00  0.99999998245E-14  0.12500000000E+03  0.12500000000E+03 0.  0.
    3000001    1    3    3    0    0  0.71573368274E+01  0.34700040188E+01  0.10702344157E+01  0.80878798245E+01  0.10000000000E+01 0.  1.
    1000022    2    1    0    0    0  0.61558769921E+02  0.40887751412E+01  0.22314104957E+00  0.62500000434E+02  0.10000001296E+02 0.  0.
    3000022    2    3    3    0    0  0.54401433094E+02  0.61877112244E+00 -0.84709336610E+00  0.54412120609E+02  0.25000333470E+00 0.  0.
    1000022    2    1    0    0    0 -0.61558769921E+02 -0.40887751412E+01 -0.22314104957E+00  0.62499999566E+02  0.99999958746E+01 0.  0.
    3000022    2    5    5    0    0 -0.59159357450E+02 -0.50515439266E+01  0.11930952047E+01  0.59387150539E+02  0.25000596968E+00 0.  0.
        -13    1    4    4    0    0  0.37962113996E+02  0.41294658346E+00 -0.63353763679E+00  0.37969790872E+02  0.10500000000E+00 0.  1.
         13    1    4    4    0    0  0.16439319098E+02  0.20582453897E+00 -0.21355572931E+00  0.16442329737E+02  0.10500000000E+00 0. -1.
    3000001    1    5    5    0    0 -0.23994124709E+01  0.96276878544E+00 -0.14162362542E+01  0.31128490274E+01  0.10000000000E+01 0.  1.
        -13    1    6    6    0    0 -0.38329892719E+02 -0.32862893429E+01  0.82833081275E+00  0.38479572899E+02  0.10500000000E+00 0. -1.
         13    1    6    6    0    0 -0.20829464731E+02 -0.17652545838E+01  0.36476439190E+00  0.20907577640E+02  0.10500000000E+00 0.  1.
</event>
<event>
11    0  0.3448258E-009  0.9118800E+02  0.7816531E-02  0.1126479E+00
         25   -1    0    0    0    0  0.00000000000E+00  0.00000000000E+00  0.99999998245E-14  0.12500000000E+03  0.12500000000E+03 0.  0.
    3000001    1    3    3    0    0  0.15855246227E+02 -0.70407019350E+01  0.34961256794E+02  0.39041641785E+02  0.10000000000E+01 0.  1.
    1000022    2    1    0    0    0  0.18097200278E+02 -0.10100857058E+02  0.58109500315E+02  0.62500000365E+02  0.10000002377E+02 0.  0.
    3000022    2    3    3    0    0  0.22419540514E+01 -0.30601551232E+01  0.23148243521E+02  0.23458358580E+02  0.25000361761E+00 0.  0.
    1000022    2    1    0    0    0 -0.18097200278E+02  0.10100857058E+02 -0.58109500315E+02  0.62499999635E+02  0.99999978140E+01 0.  0.
    3000022    2    5    5    0    0 -0.12828269795E+01  0.49320390017E+01 -0.92993414757E+01  0.10607115388E+02  0.24998240188E+00 0.  0.
        -13    1    4    4    0    0  0.12674877544E+01 -0.16890941351E+01  0.13260649276E+02  0.13428157298E+02  0.10500000000E+00 0.  1.
         13    1    4    4    0    0  0.97446629703E+00 -0.13710609881E+01  0.98875942451E+01  0.10030201282E+02  0.10500000000E+00 0. -1.
    3000001    1    5    5    0    0 -0.16814373299E+02  0.51688180564E+01 -0.48810158839E+02  0.51892884247E+02  0.10000000000E+01 0.  1.
        -13    1    6    6    0    0 -0.56813110454E+00  0.20485295698E+01 -0.39944625163E+01  0.45261465006E+01  0.10500000000E+00 0. -1.
         13    1    6    6    0    0 -0.71469587493E+00  0.28835094319E+01 -0.53048789594E+01  0.60809688875E+01  0.10500000000E+00 0.  1.
</event>
<event>
11    0  0.3448258E-009  0.9118800E+02  0.7816531E-02  0.1126479E+00
         25   -1    0    0    0    0  0.00000000000E+00  0.00000000000E+00  0.99999998245E-14  0.12500000000E+03  0.12500000000E+03 0.  0.
    3000001    1    3    3    0    0 -0.50711115633E+02  0.26079682121E+02 -0.69279230425E+01  0.57452268762E+02  0.10000000000E+01 0. -1.
    1000022    2    1    0    0    0 -0.54035547376E+02  0.29348228954E+02 -0.50091087834E+01  0.62499999914E+02  0.99999947727E+01 0.  0.
    3000022    2    3    3    0    0 -0.33244317434E+01  0.32685468338E+01  0.19188142591E+01  0.50477311520E+01  0.24999360063E+00 0.  0.
    1000022    2    1    0    0    0  0.54035547376E+02 -0.29348228954E+02  0.50091087834E+01  0.62500000086E+02  0.99999958489E+01 0.  0.
    3000022    2    5    5    0    0  0.52263016117E+02 -0.25985219435E+02  0.46071329960E+01  0.58548635180E+02  0.25004842726E+00 0.  0.
        -13    1    4    4    0    0 -0.21336352019E+01  0.21277672386E+01  0.11820689087E+01  0.32385343137E+01  0.10500000000E+00 0. -1.
         13    1    4    4    0    0 -0.11907965415E+01  0.11407795952E+01  0.73674535040E+00  0.18091968383E+01  0.10500000000E+00 0.  1.
    3000001    1    5    5    0    0  0.17725312589E+01 -0.33630095191E+01  0.40197578738E+00  0.39513649064E+01  0.10000000000E+01 0.  1.
        -13    1    6    6    0    0  0.30855176184E+02 -0.15412601132E+02  0.27244792481E+01  0.34598034383E+02  0.10500000000E+00 0.  1.
         13    1    6    6    0    0  0.21407839933E+02 -0.10572618303E+02  0.18826537479E+01  0.23950600796E+02  0.10500000000E+00 0. -1.
</event>
<event>
11    0  0.3448258E-009  0.9118800E+02  0.7816531E-02  0.1126479E+00
         25   -1    0    0    0    0  0.00000000000E+00  0.00000000000E+00  0.99999998245E-14  0.12500000000E+03  0.12500000000E+03 0.  0.
    3000001    1    3    3    0    0  0.31049721594E+02 -0.40378385696E+02 -0.11893393634E+02  0.52315887210E+02  0.10000000000E+01 0.  1.
    1000022    2    1    0    0    0  0.33677888433E+02 -0.48860276558E+02 -0.16873744046E+02  0.62499998823E+02  0.99999910046E+01 0.  0.
    3000022    2    3    3    0    0  0.26281668385E+01 -0.84818908622E+01 -0.49803504123E+01  0.10184111612E+02  0.25001114731E+00 0.  0.
    1000022    2    1    0    0    0 -0.33677888433E+02  0.48860276558E+02  0.16873744046E+02  0.62500001177E+02  0.10000005723E+02 0.  0.
    3000022    2    5    5    0    0 -0.24795746607E+01  0.93341551344E+01  0.11053799169E+01  0.97241509777E+01  0.25000981101E+00 0.  0.
        -13    1    4    4    0    0  0.16545429386E+01 -0.51338388381E+01 -0.30394940205E+01  0.61922017451E+01  0.10500000000E+00 0.  1.
         13    1    4    4    0    0  0.97362389987E+00 -0.33480520241E+01 -0.19408563917E+01  0.39919098672E+01  0.10500000000E+00 0. -1.
    3000001    1    5    5    0    0 -0.31198313772E+02  0.39526121423E+02  0.15768364129E+02  0.52775850200E+02  0.10000000000E+01 0.  1.
        -13    1    6    6    0    0 -0.89740957597E+00  0.33549932401E+01  0.45571421374E+00  0.35042865227E+01  0.10500000000E+00 0.  1.
         13    1    6    6    0    0 -0.15821650847E+01  0.59791618943E+01  0.64966570320E+00  0.62198644551E+01  0.10500000000E+00 0. -1.
</event>
<event>
11    0  0.3448258E-009  0.9118800E+02  0.7816531E-02  0.1126479E+00
         25   -1    0    0    0    0  0.00000000000E+00  0.00000000000E+00  0.99999998245E-14  0.12500000000E+03  0.12500000000E+03 0.  0.
    3000001    1    3    3    0    0 -0.47593884986E+02  0.22690215678E+02 -0.55962434902E+00  0.52738382180E+02  0.10000000000E+01 0. -1.
    1000022    2    1    0    0    0 -0.57051068532E+02  0.23418408434E+02  0.17333935301E+01  0.62499991227E+02  0.99998988003E+01 0.  0.
    3000022    2    3    3    0    0 -0.94571835460E+01  0.72819275561E+00  0.22930178792E+01  0.97616090466E+01  0.24998974450E+00 0.  0.
    1000022    2    1    0    0    0  0.57051068532E+02 -0.23418408434E+02 -0.17333935301E+01  0.62500008773E+02  0.10000008464E+02 0.  0.
    3000022    2    5    5    0    0  0.18467959228E+02 -0.71807096275E+01  0.40612427519E+01  0.20228304339E+02  0.24998989911E+00 0.  0.
        -13    1    4    4    0    0 -0.35594786079E+01  0.22699148616E+00  0.90133129467E+00  0.36803309903E+01  0.10500000000E+00 0. -1.
         13    1    4    4    0    0 -0.58977049381E+01  0.50120126945E+00  0.13916865845E+01  0.60812780563E+01  0.10500000000E+00 0.  1.
    3000001    1    5    5    0    0  0.38583109305E+02 -0.16237698806E+02 -0.57946362820E+01  0.42271704434E+02  0.10000000000E+01 0. -1.
        -13    1    6    6    0    0  0.10114012623E+02 -0.39626711484E+01  0.22881467497E+01  0.11101470827E+02  0.10500000000E+00 0.  1.
         13    1    6    6    0    0  0.83539466046E+01 -0.32180384791E+01  0.17730960022E+01  0.91268335121E+01  0.10500000000E+00 0. -1.
</event>
<event>
11    0  0.3448258E-009  0.9118800E+02  0.7816531E-02  0.1126479E+00
         25   -1    0    0    0    0  0.00000000000E+00  0.00000000000E+00  0.99999998245E-14  0.12500000000E+03  0.12500000000E+03 0.  0.
    3000001    1    3    3    0    0  0.24219324852E+02  0.92150788220E+01 -0.38948648257E+02  0.46791992638E+02  0.10000000000E+01 0. -1.
    1000022    2    1    0    0    0  0.34716355346E+02  0.73048909710E+01 -0.50474382116E+02  0.62500000392E+02  0.10000001920E+02 0.  0.
    3000022    2    3    3    0    0  0.10497030494E+02 -0.19101878510E+01 -0.11525733860E+02  0.15708007755E+02  0.24999959511E+00 0.  0.
    1000022    2    1    0    0    0 -0.34716355346E+02 -0.73048909710E+01  0.50474382116E+02  0.62499999608E+02  0.99999970163E+01 0.  0.
    3000022    2    5    5    0    0 -0.88500986037E+01  0.22515368997E+01  0.10371398052E+02  0.13821073137E+02  0.25000277925E+00 0.  0.
        -13    1    4    4    0    0  0.75252618490E+01 -0.13605431391E+01 -0.83183279308E+01  0.11299833985E+02  0.10500000000E+00 0.  1.
         13    1    4    4    0    0  0.29717686449E+01 -0.54964471196E+00 -0.32074059290E+01  0.44081737695E+01  0.10500000000E+00 0. -1.
    3000001    1    5    5    0    0 -0.25866256742E+02 -0.95564278708E+01  0.40102984064E+02  0.48678926471E+02  0.10000000000E+01 0.  1.
        -13    1    6    6    0    0 -0.46058835922E+01  0.11718704631E+01  0.52951634084E+01  0.71159837387E+01  0.10500000000E+00 0.  1.
         13    1    6    6    0    0 -0.42442150115E+01  0.10796664366E+01  0.50762346435E+01  0.67050893979E+01  0.10500000000E+00 0. -1.
</event>
<event>
11    0  0.3448258E-009  0.9118800E+02  0.7816531E-02  0.1126479E+00
         25   -1    0    0    0    0  0.00000000000E+00  0.00000000000E+00  0.99999998245E-14  0.12500000000E+03  0.12500000000E+03 0.  0.
    3000001    1    3    3    0    0  0.16529762726E+01  0.38325352217E+02 -0.38669532607E+02  0.54478415039E+02  0.10000000000E+01 0. -1.
    1000022    2    1    0    0    0 -0.39348872821E+00  0.45455445612E+02 -0.41712079577E+02  0.62500001184E+02  0.10000009811E+02 0.  0.
    3000022    2    3    3    0    0 -0.20464650008E+01  0.71300933945E+01 -0.30425469709E+01  0.80215861455E+01  0.25000281168E+00 0.  0.
    1000022    2    1    0    0    0  0.39348872821E+00 -0.45455445612E+02  0.41712079577E+02  0.62499998816E+02  0.99999950079E+01 0.  0.
    3000022    2    5    5    0    0 -0.30155663378E+01 -0.59166140799E+01  0.81491424827E+01  0.10515274119E+02  0.25000818423E+00 0.  0.
        -13    1    4    4    0    0 -0.12190262945E+01  0.43058417170E+01 -0.19006231853E+01  0.48630948470E+01  0.10500000000E+00 0. -1.
         13    1    4    4    0    0 -0.82743870629E+00  0.28242516774E+01 -0.11419237856E+01  0.31584912984E+01  0.10500000000E+00 0.  1.
    3000001    1    5    5    0    0  0.34090550660E+01 -0.39538831532E+02  0.33562937095E+02  0.51984724696E+02  0.10000000000E+01 0. -1.
        -13    1    6    6    0    0 -0.14896315403E+01 -0.30638482502E+01  0.42144371912E+01  0.54202097805E+01  0.10500000000E+00 0. -1.
         13    1    6    6    0    0 -0.15259347975E+01 -0.28527658297E+01  0.39347052915E+01  0.50950643388E+01  0.10500000000E+00 0.  1.
</event>
<event>
11    0  0.3448258E-009  0.9118800E+02  0.7816531E-02  0.1126479E+00
         25   -1    0    0    0    0  0.00000000000E+00  0.00000000000E+00  0.99999998245E-14  0.12500000000E+03  0.12500000000E+03 0.  0.
    3000001    1    3    3    0    0 -0.14102214589E+02  0.52329775970E+02  0.14390616818E+02  0.56083578361E+02  0.10000000000E+01 0. -1.
    1000022    2    1    0    0    0 -0.18310571947E+02  0.57164929456E+02  0.14252853570E+02  0.62499999192E+02  0.99999929665E+01 0.  0.
    3000022    2    3    3    0    0 -0.42083573582E+01  0.48351534863E+01 -0.13776324771E+00  0.64164208309E+01  0.24999335326E+00 0.  0.
    1000022    2    1    0    0    0  0.18310571947E+02 -0.57164929456E+02 -0.14252853570E+02  0.62500000808E+02  0.10000003066E+02 0.  0.
    3000022    2    5    5    0    0  0.17355015207E+02 -0.39856050339E+02 -0.10863432257E+02  0.44808235440E+02  0.25000282645E+00 0.  0.
        -13    1    4    4    0    0 -0.16289982075E+01  0.19671495354E+01 -0.50329171360E-01  0.25567304277E+01  0.10500000000E+00 0.  1.
         13    1    4    4    0    0 -0.25793591507E+01  0.28680039509E+01 -0.87434076352E-01  0.38596904032E+01  0.10500000000E+00 0.  1.
    3000001    1    5    5    0    0  0.95555674011E+00 -0.17308879117E+02 -0.33894213130E+01  0.17691765367E+02  0.10000000000E+01 0. -1.
        -13    1    6    6    0    0  0.61737287629E+01 -0.14035620541E+02 -0.38352973803E+01  0.15806141269E+02  0.10500000000E+00 0.  1.
         13    1    6    6    0    0  0.11181286444E+02 -0.25820429798E+02 -0.70281348770E+01  0.29002094172E+02  0.10500000000E+00 0. -1.
</event>
<event>
11    0  0.3448258E-009  0.9118800E+02  0.7816531E-02  0.1126479E+00
         25   -1    0    0    0    0  0.00000000000E+00  0.00000000000E+00  0.99999998245E-14  0.12500000000E+03  0.12500000000E+03 0.  0.
    3000001    1    3    3    0    0 -0.76843026695E+00  0.39337350550E+01  0.55297938179E+01  0.69024181434E+01  0.10000000000E+01 0.  1.
    1000022    2    1    0    0    0 -0.23246015396E+02  0.14643840233E+02  0.55239756452E+02  0.62499999690E+02  0.99999989913E+01 0.  0.
    3000022    2    3    3    0    0 -0.22477585129E+02  0.10710105178E+02  0.49709962634E+02  0.55597581547E+02  0.25000519876E+00 0.  0.
    1000022    2    1    0    0    0  0.23246015396E+02 -0.14643840233E+02 -0.55239756452E+02  0.62500000310E+02  0.10000002865E+02 0.  0.
    3000022    2    5    5    0    0  0.42323295708E+01 -0.13067779915E+01 -0.18491803476E+02  0.19016560637E+02  0.25000067236E+00 0.  0.
        -13    1    4    4    0    0 -0.15649621689E+02  0.74529567299E+01  0.34709818368E+02  0.38797419234E+02  0.10500000000E+00 0.  1.
         13    1    4    4    0    0 -0.68279634398E+01  0.32571484482E+01  0.15000144266E+02  0.16800162313E+02  0.10500000000E+00 0. -1.
    3000001    1    5    5    0    0  0.19013685825E+02 -0.13337062242E+02 -0.36747952976E+02  0.43483439673E+02  0.10000000000E+01 0. -1.
        -13    1    6    6    0    0  0.11523282540E+01 -0.33092288083E+00 -0.51355057370E+01  0.52746388059E+01  0.10500000000E+00 0. -1.
         13    1    6    6    0    0  0.30800013169E+01 -0.97585511064E+00 -0.13356297739E+02  0.13741921831E+02  0.10500000000E+00 0.  1.
</event>
<event>
11    0  0.3448258E-009  0.9118800E+02  0.7816531E-02  0.1126479E+00
         25   -1    0    0    0    0  0.00000000000E+00  0.00000000000E+00  0.99999998245E-14  0.12500000000E+03  0.12500000000E+03 0.  0.
    3000001    1    3    3    0    0  0.44810917560E+01 -0.47579703893E+01  0.72086858856E+01  0.97818003326E+01  0.10000000000E+01 0.  1.
    1000022    2    1    0    0    0  0.25616604500E+02 -0.10118574215E+02  0.55205561425E+02  0.62499999582E+02  0.99999982632E+01 0.  0.
    3000022    2    3    3    0    0  0.21135512744E+02 -0.53606038260E+01  0.47996875540E+02  0.52718199250E+02  0.24999647206E+00 0.  0.
    1000022    2    1    0    0    0 -0.25616604500E+02  0.10118574215E+02 -0.55205561425E+02  0.62500000418E+02  0.10000003484E+02 0.  0.
    3000022    2    5    5    0    0 -0.31130429669E+01  0.54418744024E+01 -0.12831311204E+02  0.14283209933E+02  0.25001051325E+00 0.  0.
        -13    1    4    4    0    0  0.83945961782E+01 -0.21010066090E+01  0.18912228912E+02  0.20798242743E+02  0.10500000000E+00 0.  1.
         13    1    4    4    0    0  0.12740916566E+02 -0.32595972170E+01  0.29084646627E+02  0.31919956507E+02  0.10500000000E+00 0. -1.
    3000001    1    5    5    0    0 -0.22503561533E+02  0.46766998129E+01 -0.42374250221E+02  0.48216790484E+02  0.10000000000E+01 0.  1.
        -13    1    6    6    0    0 -0.16599730496E+01  0.27690355461E+01 -0.65704552181E+01  0.73215418564E+01  0.10500000000E+00 0. -1.
         13    1    6    6    0    0 -0.14530699173E+01  0.26728388563E+01 -0.62608559859E+01  0.69616680769E+01  0.10500000000E+00 0.  1.
</event>
<event>
11    0  0.3448258E-009  0.9118800E+02  0.7816531E-02  0.1126479E+00
         25   -1    0    0    0    0  0.00000000000E+00  0.00000000000E+00  0.99999998245E-14  0.12500000000E+03  0.12500000000E+03 0.  0.
    3000001    1    3    3    0    0  0.62655624567E+01  0.71099649008E+01 -0.78563710513E+01  0.12350361933E+02  0.10000000000E+01 0. -1.
    1000022    2    1    0    0    0  0.34205576525E+02  0.18327103733E+02 -0.47961920946E+02  0.62500000188E+02  0.99999983022E+01 0.  0.
    3000022    2    3    3    0    0  0.27940014068E+02  0.11217138832E+02 -0.40105549894E+02  0.50149638254E+02  0.24999002879E+00 0.  0.
    1000022    2    1    0    0    0 -0.34205576525E+02 -0.18327103733E+02  0.47961920946E+02  0.62499999812E+02  0.99999959561E+01 0.  0.
    3000022    2    5    5    0    0 -0.77293523472E+01 -0.15528597085E+01  0.15345648233E+02  0.17254149672E+02  0.25000043822E+00 0.  0.
        -13    1    4    4    0    0  0.78219063403E+01  0.31224421300E+01 -0.11279339194E+02  0.14077158140E+02  0.10500000000E+00 0.  1.
         13    1    4    4    0    0  0.20118107728E+02  0.80946967022E+01 -0.28826210701E+02  0.36072480114E+02  0.10500000000E+00 0. -1.
    3000001    1    5    5    0    0 -0.26476224177E+02 -0.16774244025E+02  0.32616272713E+02  0.45245850141E+02  0.10000000000E+01 0.  1.
        -13    1    6    6    0    0 -0.42132281687E+01 -0.84909669618E+00  0.82189623998E+01  0.92754851479E+01  0.10500000000E+00 0.  1.
         13    1    6    6    0    0 -0.35161241786E+01 -0.70376301231E+00  0.71266858332E+01  0.79786645237E+01  0.10500000000E+00 0. -1.
</event>
<event>
11    0  0.3448258E-009  0.9118800E+02  0.7816531E-02  0.1126479E+00
         25   -1    0    0    0    0  0.00000000000E+00  0.00000000000E+00  0.99999998245E-14  0.12500000000E+03  0.12500000000E+03 0.  0.
    3000001    1    3    3    0    0 -0.61181181475E+01 -0.27778771344E+02 -0.37495505143E+02  0.47074456056E+02  0.10000000000E+01 0. -1.
    1000022    2    1    0    0    0 -0.10410882717E+02 -0.40108382488E+02 -0.45707560519E+02  0.62500002494E+02  0.10000019920E+02 0.  0.
    3000022    2    3    3    0    0 -0.42927645700E+01 -0.12329611144E+02 -0.82120553766E+01  0.15425546438E+02  0.24998159670E+00 0.  0.
    1000022    2    1    0    0    0  0.10410882717E+02  0.40108382488E+02  0.45707560519E+02  0.62499997506E+02  0.99999887388E+01 0.  0.
    3000022    2    5    5    0    0  0.29277986174E+01  0.22910349998E+02  0.30921564314E+02  0.38596136876E+02  0.25000079169E+00 0.  0.
        -13    1    4    4    0    0 -0.13084666221E+01 -0.39049409719E+01 -0.26048321061E+01  0.48740972699E+01  0.10500000000E+00 0. -1.
         13    1    4    4    0    0 -0.29842979479E+01 -0.84246701721E+01 -0.56072232705E+01  0.10551449169E+02  0.10500000000E+00 0.  1.
    3000001    1    5    5    0    0  0.74830841001E+01  0.17198032491E+02  0.14785996206E+02  0.23903860630E+02  0.10000000000E+01 0. -1.
        -13    1    6    6    0    0  0.20500414518E+01  0.16356938810E+02  0.22089400001E+02  0.27562741783E+02  0.10500000000E+00 0.  1.
         13    1    6    6    0    0  0.87775716562E+00  0.65534111872E+01  0.88321643127E+01  0.11033395093E+02  0.10500000000E+00 0. -1.
</event>
<event>
11    0  0.3448258E-009  0.9118800E+02  0.7816531E-02  0.1126479E+00
         25   -1    0    0    0    0  0.00000000000E+00  0.00000000000E+00  0.99999998245E-14  0.12500000000E+03  0.12500000000E+03 0.  0.
    3000001    1    3    3    0    0  0.44718641033E+02  0.15724220321E+01  0.27377626335E+01  0.44841105151E+02  0.10000000000E+01 0. -1.
    1000022    2    1    0    0    0  0.60807859138E+02  0.46629722646E+01  0.93225769063E+01  0.62500004309E+02  0.10000052755E+02 0.  0.
    3000022    2    3    3    0    0  0.16089218105E+02  0.30905502325E+01  0.65848142728E+01  0.17658899158E+02  0.25000099284E+00 0.  0.
    1000022    2    1    0    0    0 -0.60807859138E+02 -0.46629722646E+01 -0.93225769063E+01  0.62499995691E+02  0.99999988954E+01 0.  0.
    3000022    2    5    5    0    0 -0.15536541212E+02  0.28944802091E+01 -0.95236502387E+00  0.15834507784E+02  0.25001821064E+00 0.  0.
        -13    1    4    4    0    0  0.96271887097E+01  0.18496207348E+01  0.40081057037E+01  0.10591496384E+02  0.10500000000E+00 0. -1.
         13    1    4    4    0    0  0.64620293954E+01  0.12409294977E+01  0.25767085691E+01  0.70674027744E+01  0.10500000000E+00 0.  1.
    3000001    1    5    5    0    0 -0.45271317926E+02 -0.75574524737E+01 -0.83702118824E+01  0.46665487907E+02  0.10000000000E+01 0. -1.
        -13    1    6    6    0    0 -0.98263265261E+01  0.17757647878E+01 -0.62632009409E+00  0.10005665167E+02  0.10500000000E+00 0. -1.
         13    1    6    6    0    0 -0.57102146861E+01  0.11187154213E+01 -0.32604492977E+00  0.58288426168E+01  0.10500000000E+00 0.  1.
</event>
<event>
11    0  0.3448258E-009  0.9118800E+02  0.7816531E-02  0.1126479E+00
         25   -1    0    0    0    0  0.00000000000E+00  0.00000000000E+00  0.99999998245E-14  0.12500000000E+03  0.12500000000E+03 0.  0.
    3000001    1    3    3    0    0 -0.21654599693E+01  0.52534422349E+01  0.17724993688E+01  0.60356960002E+01  0.10000000000E+01 0. -1.
    1000022    2    1    0    0    0 -0.37673977370E+02  0.48540678725E+02 -0.55429145363E+01  0.62499998286E+02  0.99999911114E+01 0.  0.
    3000022    2    3    3    0    0 -0.35508517400E+02  0.43287236490E+02 -0.73154139051E+01  0.56464302286E+02  0.25000215118E+00 0.  0.
    1000022    2    1    0    0    0  0.37673977370E+02 -0.48540678725E+02  0.55429145363E+01  0.62500001714E+02  0.10000012539E+02 0.  0.
    3000022    2    5    5    0    0  0.19012323138E+02 -0.21329687572E+02 -0.19812232833E+01  0.28642830714E+02  0.25000519701E+00 0.  0.
        -13    1    4    4    0    0 -0.21237490059E+02  0.25961231838E+02 -0.44269338445E+01  0.33832311639E+02  0.10500000000E+00 0. -1.
         13    1    4    4    0    0 -0.14271027341E+02  0.17326004652E+02 -0.28884800605E+01  0.22631990647E+02  0.10500000000E+00 0.  1.
    3000001    1    5    5    0    0  0.18661654232E+02 -0.27210991154E+02  0.75241378196E+01  0.33857171000E+02  0.10000000000E+01 0. -1.
        -13    1    6    6    0    0  0.99127089282E+01 -0.11057771651E+02 -0.97657280318E+00  0.14882904005E+02  0.10500000000E+00 0. -1.
         13    1    6    6    0    0  0.90996142098E+01 -0.10271915920E+02 -0.10046504801E+01  0.13759926709E+02  0.10500000000E+00 0.  1.
</event>
<event>
11    0  0.3448258E-009  0.9118800E+02  0.7816531E-02  0.1126479E+00
         25   -1    0    0    0    0  0.00000000000E+00  0.00000000000E+00  0.99999998245E-14  0.12500000000E+03  0.12500000000E+03 0.  0.
    3000001    1    3    3    0    0  0.26301440374E+02 -0.35671567334E+00  0.93165830217E+01  0.27922960642E+02  0.10000000000E+01 0.  1.
    1000022    2    1    0    0    0  0.59626228879E+02 -0.86975168913E+01  0.13240698213E+02  0.62500000399E+02  0.99999995125E+01 0.  0.
    3000022    2    3    3    0    0  0.33324788505E+02 -0.83408012180E+01  0.39241151913E+01  0.34577039757E+02  0.25000885580E+00 0.  0.
    1000022    2    1    0    0    0 -0.59626228879E+02  0.86975168913E+01 -0.13240698213E+02  0.62499999601E+02  0.99999945283E+01 0.  0.
    3000022    2    5    5    0    0 -0.36576410568E+02  0.55594759993E+01 -0.12999937578E+02  0.39214824264E+02  0.24996314495E+00 0.  0.
        -13    1    4    4    0    0  0.20552473308E+02 -0.51097339489E+01  0.24709203022E+01  0.21322054597E+02  0.10500000000E+00 0. -1.
         13    1    4    4    0    0  0.12772315197E+02 -0.32310672692E+01  0.14531948891E+01  0.13254985159E+02  0.10500000000E+00 0.  1.
    3000001    1    5    5    0    0 -0.23049818311E+02  0.31380408921E+01 -0.24076063485E+00  0.23285175337E+02  0.10000000000E+01 0.  1.
        -13    1    6    6    0    0 -0.14812792781E+02  0.21894773423E+01 -0.52789338201E+01  0.15877367801E+02  0.10500000000E+00 0. -1.
         13    1    6    6    0    0 -0.21763617787E+02  0.33699986569E+01 -0.77210037580E+01  0.23337456463E+02  0.10500000000E+00 0.  1.
</event>
<event>
11    0  0.3448258E-009  0.9118800E+02  0.7816531E-02  0.1126479E+00
         25   -1    0    0    0    0  0.00000000000E+00  0.00000000000E+00  0.99999998245E-14  0.12500000000E+03  0.12500000000E+03 0.  0.
    3000001    1    3    3    0    0 -0.47462995719E+01  0.13344897123E+01 -0.19673321696E+01  0.54017236402E+01  0.10000000000E+01 0.  1.
    1000022    2    1    0    0    0 -0.37066843242E+02  0.13337069417E+02 -0.47480750623E+02  0.62500000491E+02  0.10000004656E+02 0.  0.
    3000022    2    3    3    0    0 -0.32320543670E+02  0.12002579705E+02 -0.45513418453E+02  0.57098276851E+02  0.24999470010E+00 0.  0.
    1000022    2    1    0    0    0  0.37066843242E+02 -0.13337069417E+02  0.47480750623E+02  0.62499999509E+02  0.99999985194E+01 0.  0.
    3000022    2    5    5    0    0  0.18631868078E+02 -0.31900177685E+01  0.16850249746E+02  0.25324220426E+02  0.25000452372E+00 0.  0.
        -13    1    4    4    0    0 -0.21567836046E+02  0.79721113106E+01 -0.30420940665E+02  0.38133591050E+02  0.10500000000E+00 0. -1.
         13    1    4    4    0    0 -0.10752707624E+02  0.40304683944E+01 -0.15092477788E+02  0.18964685801E+02  0.10500000000E+00 0.  1.
    3000001    1    5    5    0    0  0.18434975164E+02 -0.10147051649E+02  0.30630500877E+02  0.37175779083E+02  0.10000000000E+01 0. -1.
        -13    1    6    6    0    0  0.12405780331E+02 -0.21339276057E+01  0.11291206444E+02  0.16910334136E+02  0.10500000000E+00 0. -1.
         13    1    6    6    0    0  0.62260877469E+01 -0.10560901628E+01  0.55590433018E+01  0.84138862897E+01  0.10500000000E+00 0.  1.
</event>
<event>
11    0  0.3448258E-009  0.9118800E+02  0.7816531E-02  0.1126479E+00
         25   -1    0    0    0    0  0.00000000000E+00  0.00000000000E+00  0.99999998245E-14  0.12500000000E+03  0.12500000000E+03 0.  0.
    3000001    1    3    3    0    0  0.19178558782E+02 -0.18776474435E+02  0.19249377281E+02  0.33044086231E+02  0.10000000000E+01 0.  1.
    1000022    2    1    0    0    0  0.27928532913E+02 -0.38910235024E+02  0.38887546659E+02  0.62499994887E+02  0.99999367742E+01 0.  0.
    3000022    2    3    3    0    0  0.87499741305E+01 -0.20133760589E+02  0.19638169378E+02  0.29455908655E+02  0.24999096687E+00 0.  0.
    1000022    2    1    0    0    0 -0.27928532913E+02  0.38910235024E+02 -0.38887546659E+02  0.62500005113E+02  0.10000000688E+02 0.  0.
    3000022    2    5    5    0    0 -0.88678414960E+01  0.10137805817E+02 -0.16707603866E+02  0.21462065326E+02  0.25000301463E+00 0.  0.
        -13    1    4    4    0    0  0.34805058726E+01 -0.78668282834E+01  0.76606701152E+01  0.11519453111E+02  0.10500000000E+00 0.  1.
         13    1    4    4    0    0  0.52694682579E+01 -0.12266932305E+02  0.11977499263E+02  0.17936455544E+02  0.10500000000E+00 0. -1.
    3000001    1    5    5    0    0 -0.19060691417E+02  0.28772429206E+02 -0.22179942792E+02  0.41037939787E+02  0.10000000000E+01 0.  1.
        -13    1    6    6    0    0 -0.41409236835E+01  0.46585052135E+01 -0.76594803899E+01  0.98756055318E+01  0.10500000000E+00 0.  1.
         13    1    6    6    0    0 -0.47269178126E+01  0.54793006036E+01 -0.90481234764E+01  0.11586459794E+02  0.10500000000E+00 0. -1.
</event>
<event>
11    0  0.3448258E-009  0.9118800E+02  0.7816531E-02  0.1126479E+00
         25   -1    0    0    0    0  0.00000000000E+00  0.00000000000E+00  0.99999998245E-14  0.12500000000E+03  0.12500000000E+03 0.  0.
    3000001    1    3    3    0    0  0.15349120818E+01 -0.15592228505E+02  0.45133168275E+02  0.47785734517E+02  0.10000000000E+01 0.  1.
    1000022    2    1    0    0    0  0.20052356453E+01 -0.14945610326E+02  0.59823560536E+02  0.62499994500E+02  0.99999339630E+01 0.  0.
    3000022    2    3    3    0    0  0.47032356348E+00  0.64661817966E+00  0.14690392261E+02  0.14714259982E+02  0.25000542132E+00 0.  0.
    1000022    2    1    0    0    0 -0.20052356453E+01  0.14945610326E+02 -0.59823560536E+02  0.62500005500E+02  0.10000002715E+02 0.  0.
    3000022    2    5    5    0    0  0.49349331656E+00  0.13820237452E+02 -0.56044340533E+02  0.57725844384E+02  0.25001038903E+00 0.  0.
        -13    1    4    4    0    0  0.25728065741E+00  0.32358990539E+00  0.64188905964E+01  0.64330463430E+01  0.10500000000E+00 0. -1.
         13    1    4    4    0    0  0.21304290607E+00  0.32302827427E+00  0.82715016651E+01  0.82812136394E+01  0.10500000000E+00 0.  1.
    3000001    1    5    5    0    0 -0.24987289618E+01  0.11253728737E+01 -0.37792200029E+01  0.47741611159E+01  0.10000000000E+01 0. -1.
        -13    1    6    6    0    0  0.27209766717E+00  0.80341109898E+01 -0.32313628497E+02  0.33298687485E+02  0.10500000000E+00 0. -1.
         13    1    6    6    0    0  0.22139564939E+00  0.57861264619E+01 -0.23730712036E+02  0.24427156900E+02  0.10500000000E+00 0.  1.
</event>
<event>
11    0  0.3448258E-009  0.9118800E+02  0.7816531E-02  0.1126479E+00
         25   -1    0    0    0    0  0.00000000000E+00  0.00000000000E+00  0.99999998245E-14  0.12500000000E+03  0.12500000000E+03 0.  0.
    3000001    1    3    3    0    0 -0.33456981442E+01 -0.53585256211E+01 -0.10274162388E+02  0.12102309932E+02  0.10000000000E+01 0. -1.
    1000022    2    1    0    0    0 -0.33602835586E+02 -0.17185029620E+02 -0.48803424775E+02  0.62499999592E+02  0.99999938336E+01 0.  0.
    3000022    2    3    3    0    0 -0.30257137442E+02 -0.11826503999E+02 -0.38529262387E+02  0.50397689660E+02  0.24999987097E+00 0.  0.
    1000022    2    1    0    0    0  0.33602835586E+02  0.17185029620E+02  0.48803424775E+02  0.62500000408E+02  0.99999989365E+01 0.  0.
    3000022    2    5    5    0    0 -0.36529016988E+00  0.46213455953E+00 -0.97208488898E-01  0.64726627100E+00  0.24999775188E+00 0.  0.
        -13    1    4    4    0    0 -0.74930900463E+01 -0.29477767549E+01 -0.95229215017E+01  0.12471280815E+02  0.10500000000E+00 0. -1.
         13    1    4    4    0    0 -0.22764047396E+02 -0.88787272438E+01 -0.29006340886E+02  0.37926408845E+02  0.10500000000E+00 0.  1.
    3000001    1    5    5    0    0  0.33968125756E+02  0.16722895060E+02  0.48900633264E+02  0.61852734137E+02  0.10000000000E+01 0.  1.
        -13    1    6    6    0    0 -0.74163891197E-01  0.17823676788E+00 -0.40966656865E-01  0.22354394458E+00  0.10500000000E+00 0.  1.
         13    1    6    6    0    0 -0.29112627868E+00  0.28389779164E+00 -0.56241832033E-01  0.42372232643E+00  0.10500000000E+00 0. -1.
</event>
<event>
11    0  0.3448258E-009  0.9118800E+02  0.7816531E-02  0.1126479E+00
         25   -1    0    0    0    0  0.00000000000E+00  0.00000000000E+00  0.99999998245E-14  0.12500000000E+03  0.12500000000E+03 0.  0.
    3000001    1    3    3    0    0  0.16149251448E+02  0.30252076127E+00 -0.14143129314E+01  0.16244695202E+02  0.10000000000E+01 0.  1.
    1000022    2    1    0    0    0  0.57819353919E+02  0.34085993503E+01 -0.21249784248E+02  0.62500003880E+02  0.10000045858E+02 0.  0.
    3000022    2    3    3    0    0  0.41670102472E+02  0.31060785890E+01 -0.19835471317E+02  0.46255308678E+02  0.24998861836E+00 0.  0.
    1000022    2    1    0    0    0 -0.57819353919E+02 -0.34085993503E+01  0.21249784248E+02  0.62499996120E+02  0.99999973640E+01 0.  0.
    3000022    2    5    5    0    0 -0.57342574180E+02 -0.35464847109E+01  0.20024396843E+02  0.60842315335E+02  0.24999801816E+00 0.  0.
        -13    1    4    4    0    0  0.24633262995E+02  0.17838618895E+01 -0.11764653996E+02  0.27356862351E+02  0.10500000000E+00 0. -1.
         13    1    4    4    0    0  0.17036839476E+02  0.13222166995E+01 -0.80708173205E+01  0.18898446327E+02  0.10500000000E+00 0.  1.
    3000001    1    5    5    0    0 -0.47677973898E+00  0.13788536060E+00  0.12253874053E+01  0.16576807851E+01  0.10000000000E+01 0.  1.
        -13    1    6    6    0    0 -0.25532127903E+02 -0.16205798000E+01  0.88618880124E+01  0.27075079285E+02  0.10500000000E+00 0. -1.
         13    1    6    6    0    0 -0.31810446278E+02 -0.19259049109E+01  0.11162508830E+02  0.33767236051E+02  0.10500000000E+00 0.  1.
</event>
<event>
11    0  0.3448258E-009  0.9118800E+02  0.7816531E-02  0.1126479E+00
         25   -1    0    0    0    0  0.00000000000E+00  0.00000000000E+00  0.99999998245E-14  0.12500000000E+03  0.12500000000E+03 0.  0.
    3000001    1    3    3    0    0 -0.31808285892E+02 -0.14228405395E+01 -0.33338277108E+02  0.46111085946E+02  0.10000000000E+01 0. -1.
    1000022    2    1    0    0    0 -0.39757671894E+02 -0.65510554559E+01 -0.46718959575E+02  0.62499999534E+02  0.99999977983E+01 0.  0.
    3000022    2    3    3    0    0 -0.79493860018E+01 -0.51282149165E+01 -0.13380682467E+02  0.16388913588E+02  0.24999854798E+00 0.  0.
    1000022    2    1    0    0    0  0.39757671894E+02  0.65510554559E+01  0.46718959575E+02  0.62500000466E+02  0.10000003623E+02 0.  0.
    3000022    2    5    5    0    0  0.36874631856E+02  0.32571251850E+01  0.41305626305E+02  0.55466788285E+02  0.24999845401E+00 0.  0.
        -13    1    4    4    0    0 -0.52809349056E+01 -0.34487897536E+01 -0.88500670449E+01  0.10868170773E+02  0.10500000000E+00 0.  1.
         13    1    4    4    0    0 -0.26684510963E+01 -0.16794251629E+01 -0.45306154224E+01  0.55207428157E+01  0.10500000000E+00 0. -1.
    3000001    1    5    5    0    0  0.28830400380E+01  0.32939302710E+01  0.54133332703E+01  0.70332121812E+01  0.10000000000E+01 0. -1.
        -13    1    6    6    0    0  0.15528184852E+02  0.14364808500E+01  0.17391713306E+02  0.23359595861E+02  0.10500000000E+00 0. -1.
         13    1    6    6    0    0  0.21346447004E+02  0.18206443350E+01  0.23913912998E+02  0.32107192424E+02  0.10500000000E+00 0.  1.
</event>
<event>
11    0  0.3448258E-009  0.9118800E+02  0.7816531E-02  0.1126479E+00
         25   -1    0    0    0    0  0.00000000000E+00  0.00000000000E+00  0.99999998245E-14  0.12500000000E+03  0.12500000000E+03 0.  0.
    3000001    1    3    3    0    0 -0.27216833263E+02 -0.42092320554E+02  0.96732172097E+01  0.51059676788E+02  0.10000000000E+01 0. -1.
    1000022    2    1    0    0    0 -0.32702728573E+02 -0.51817301063E+02  0.71936580369E+01  0.62500001028E+02  0.10000013347E+02 0.  0.
    3000022    2    3    3    0    0 -0.54858953101E+01 -0.97249805092E+01 -0.24795591727E+01  0.11440324240E+02  0.25002354018E+00 0.  0.
    1000022    2    1    0    0    0  0.32702728573E+02  0.51817301063E+02 -0.71936580369E+01  0.62499998972E+02  0.10000000495E+02 0.  0.
    3000022    2    5    5    0    0  0.32473822661E+02  0.48653853136E+02 -0.54623817800E+01  0.58750716616E+02  0.25001001178E+00 0.  0.
        -13    1    4    4    0    0 -0.24886252169E+01 -0.44699273568E+01 -0.10740660185E+01  0.52285895667E+01  0.10500000000E+00 0.  1.
         13    1    4    4    0    0 -0.29972700932E+01 -0.52550531524E+01 -0.14054931543E+01  0.62117346734E+01  0.10500000000E+00 0. -1.
    3000001    1    5    5    0    0  0.22890591243E+00  0.31634479272E+01 -0.17312762569E+01  0.37492823557E+01  0.10000000000E+01 0.  1.
        -13    1    6    6    0    0  0.17283780978E+02  0.25966801278E+02 -0.28581759707E+01  0.31323857495E+02  0.10500000000E+00 0. -1.
         13    1    6    6    0    0  0.15190041683E+02  0.22687051858E+02 -0.26042058093E+01  0.27426859121E+02  0.10500000000E+00 0.  1.
</event>
<event>
11    0  0.3448258E-009  0.9118800E+02  0.7816531E-02  0.1126479E+00
         25   -1    0    0    0    0  0.00000000000E+00  0.00000000000E+00  0.99999998245E-14  0.12500000000E+03  0.12500000000E+03 0.  0.
    3000001    1    3    3    0    0  0.47621676437E+02  0.23278718136E+02 -0.82788956069E+01  0.53658763471E+02  0.10000000000E+01 0.  1.
    1000022    2    1    0    0    0  0.56422816542E+02  0.23757781262E+02 -0.76343680498E+01  0.62500001112E+02  0.10000008326E+02 0.  0.
    3000022    2    3    3    0    0  0.88011401047E+01  0.47906312641E+00  0.64452755711E+00  0.88412376417E+01  0.24999728776E+00 0.  0.
    1000022    2    1    0    0    0 -0.56422816542E+02 -0.23757781262E+02  0.76343680498E+01  0.62499998888E+02  0.99999944197E+01 0.  0.
    3000022    2    5    5    0    0 -0.44524988401E+02 -0.14340857978E+02  0.47078161498E+01  0.47014474530E+02  0.24996547052E+00 0.  0.
        -13    1    4    4    0    0  0.27731409576E+01  0.19266575045E+00  0.23052954839E+00  0.27913437149E+01  0.10500000000E+00 0. -1.
         13    1    4    4    0    0  0.60279991470E+01  0.28639737596E+00  0.41399800872E+00  0.60498939267E+01  0.10500000000E+00 0.  1.
    3000001    1    5    5    0    0 -0.11897828140E+02 -0.94169232846E+01  0.29265519000E+01  0.15485524358E+02  0.10000000000E+01 0. -1.
        -13    1    6    6    0    0 -0.29455341349E+02 -0.95440404616E+01  0.31112107243E+01  0.31119069708E+02  0.10500000000E+00 0. -1.
         13    1    6    6    0    0 -0.15069647052E+02 -0.47968175162E+01  0.15966054254E+01  0.15895404822E+02  0.10500000000E+00 0.  1.
</event>
<event>
11    0  0.3448258E-009  0.9118800E+02  0.7816531E-02  0.1126479E+00
         25   -1    0    0    0    0  0.00000000000E+00  0.00000000000E+00  0.99999998245E-14  0.12500000000E+03  0.12500000000E+03 0.  0.
    3000001    1    3    3    0    0  0.52558083181E+01 -0.92442398351E+01  0.57318087236E+02  0.58304739221E+02  0.10000000000E+01 0. -1.
    1000022    2    1    0    0    0  0.74356004218E+01 -0.81026485352E+01  0.60706745163E+02  0.62500001294E+02  0.10000009327E+02 0.  0.
    3000022    2    3    3    0    0  0.21797921037E+01  0.11415912999E+01  0.33886579265E+01  0.41952620727E+01  0.24999400891E+00 0.  0.
    1000022    2    1    0    0    0 -0.74356004218E+01  0.81026485352E+01 -0.60706745163E+02  0.62499998706E+02  0.99999931565E+01 0.  0.
    3000022    2    5    5    0    0 -0.52216734992E+01  0.23188948989E+01 -0.47891210827E+02  0.48231459929E+02  0.25000936210E+00 0.  0.
        -13    1    4    4    0    0  0.10613592527E+01  0.62310567053E+00  0.16379982563E+01  0.20515378202E+01  0.10500000000E+00 0. -1.
         13    1    4    4    0    0  0.11184328510E+01  0.51848562941E+00  0.17506596702E+01  0.21437242525E+01  0.10500000000E+00 0.  1.
    3000001    1    5    5    0    0 -0.22139269226E+01  0.57837536363E+01 -0.12815534336E+02  0.14268538778E+02  0.10000000000E+01 0.  1.
        -13    1    6    6    0    0 -0.36006574109E+01  0.15581564466E+01 -0.33138836281E+02  0.33370437222E+02  0.10500000000E+00 0. -1.
         13    1    6    6    0    0 -0.16210160883E+01  0.76073845227E+00 -0.14752374546E+02  0.14861022707E+02  0.10500000000E+00 0.  1.
</event>
<event>
11    0  0.3448258E-009  0.9118800E+02  0.7816531E-02  0.1126479E+00
         25   -1    0    0    0    0  0.00000000000E+00  0.00000000000E+00  0.99999998245E-14  0.12500000000E+03  0.12500000000E+03 0.  0.
    3000001    1    3    3    0    0 -0.87160174084E+01 -0.11219024706E+02  0.18132612665E+02  0.23057040505E+02  0.10000000000E+01 0.  1.
    1000022    2    1    0    0    0 -0.11143147220E+02 -0.30644996669E+02  0.52373310983E+02  0.62500002990E+02  0.10000055981E+02 0.  0.
    3000022    2    3    3    0    0 -0.24271298118E+01 -0.19425971963E+02  0.34240698318E+02  0.39442962485E+02  0.25004482935E+00 0.  0.
    1000022    2    1    0    0    0  0.11143147220E+02  0.30644996669E+02 -0.52373310983E+02  0.62499997010E+02  0.10000018606E+02 0.  0.
    3000022    2    5    5    0    0 -0.14580594169E+01  0.22998273576E+01 -0.22283359897E+01  0.35274818094E+01  0.25000698911E+00 0.  0.
        -13    1    4    4    0    0 -0.14771904143E+01 -0.12238689677E+02  0.21620589449E+02  0.24888321149E+02  0.10500000000E+00 0.  1.
         13    1    4    4    0    0 -0.94993939754E+00 -0.71872822860E+01  0.12620108870E+02  0.14554641336E+02  0.10500000000E+00 0. -1.
    3000001    1    5    5    0    0  0.12601206637E+02  0.28345169311E+02 -0.50144974993E+02  0.58972515201E+02  0.10000000000E+01 0. -1.
        -13    1    6    6    0    0 -0.94467009373E+00  0.13769353906E+01 -0.13789254395E+01  0.21681358407E+01  0.10500000000E+00 0.  1.
         13    1    6    6    0    0 -0.51338932320E+00  0.92289196701E+00 -0.84941055017E+00  0.13593459687E+01  0.10500000000E+00 0. -1.
</event>
<event>
11    0  0.3448258E-009  0.9118800E+02  0.7816531E-02  0.1126479E+00
         25   -1    0    0    0    0  0.00000000000E+00  0.00000000000E+00  0.99999998245E-14  0.12500000000E+03  0.12500000000E+03 0.  0.
    3000001    1    3    3    0    0  0.88714520396E+01  0.12872424852E+02 -0.19255647553E+02  0.24823012419E+02  0.10000000000E+01 0.  1.
    1000022    2    1    0    0    0  0.12207323959E+02  0.38798983546E+02 -0.46388253981E+02  0.62499999046E+02  0.99999945488E+01 0.  0.
    3000022    2    3    3    0    0  0.33358719190E+01  0.25926558693E+02 -0.27132606428E+02  0.37676986628E+02  0.25000519556E+00 0.  0.
    1000022    2    1    0    0    0 -0.12207323959E+02 -0.38798983546E+02  0.46388253981E+02  0.62500000954E+02  0.10000006468E+02 0.  0.
    3000022    2    5    5    0    0 -0.49086828818E+01 -0.18634914620E+02  0.29259993571E+02  0.35036622758E+02  0.25000000108E+00 0.  0.
        -13    1    4    4    0    0  0.21583103030E+01  0.16759459578E+02 -0.17456713735E+02  0.24295795277E+02  0.10500000000E+00 0. -1.
         13    1    4    4    0    0  0.11775616160E+01  0.91670991155E+01 -0.96758926931E+01  0.13381191351E+02  0.10500000000E+00 0.  1.
    3000001    1    5    5    0    0 -0.72986410767E+01 -0.20164068926E+02  0.17128260410E+02  0.27463378195E+02  0.10000000000E+01 0. -1.
        -13    1    6    6    0    0 -0.28576792395E+01 -0.11084740187E+02  0.17418171018E+02  0.20843260356E+02  0.10500000000E+00 0.  1.
         13    1    6    6    0    0 -0.20510036424E+01 -0.75501744321E+01  0.11841822553E+02  0.14193362402E+02  0.10500000000E+00 0. -1.
</event>
<event>
11    0  0.3448258E-009  0.9118800E+02  0.7816531E-02  0.1126479E+00
         25   -1    0    0    0    0  0.00000000000E+00  0.00000000000E+00  0.99999998245E-14  0.12500000000E+03  0.12500000000E+03 0.  0.
    3000001    1    3    3    0    0 -0.36696663303E+00 -0.25452503495E+02  0.28360381357E+02  0.38121855010E+02  0.10000000000E+01 0. -1.
    1000022    2    1    0    0    0  0.33998620156E+01 -0.35892969689E+02  0.50063816583E+02  0.62499999645E+02  0.99999945003E+01 0.  0.
    3000022    2    3    3    0    0  0.37668286486E+01 -0.10440466194E+02  0.21703435226E+02  0.24378144636E+02  0.25000571357E+00 0.  0.
    1000022    2    1    0    0    0 -0.33998620156E+01  0.35892969689E+02 -0.50063816583E+02  0.62500000355E+02  0.99999989354E+01 0.  0.
    3000022    2    5    5    0    0 -0.24038673901E+01  0.18753962642E+02 -0.17953075964E+02  0.26074223343E+02  0.24998630521E+00 0.  0.
        -13    1    4    4    0    0  0.21796337059E+01 -0.58585535996E+01  0.12271125075E+02  0.13771891263E+02  0.10500000000E+00 0.  1.
         13    1    4    4    0    0  0.15871949427E+01 -0.45819125947E+01  0.94323101509E+01  0.10606253372E+02  0.10500000000E+00 0. -1.
    3000001    1    5    5    0    0 -0.99599462553E+00  0.17139007047E+02 -0.32110740619E+02  0.36425777012E+02  0.10000000000E+01 0. -1.
        -13    1    6    6    0    0 -0.92291533081E+00  0.75854359915E+01 -0.73114297236E+01  0.10576324574E+02  0.10500000000E+00 0. -1.
         13    1    6    6    0    0 -0.14809520593E+01  0.11168526650E+02 -0.10641646240E+02  0.15497898769E+02  0.10500000000E+00 0.  1.
</event>
<event>
11    0  0.3448258E-009  0.9118800E+02  0.7816531E-02  0.1126479E+00
         25   -1    0    0    0    0  0.00000000000E+00  0.00000000000E+00  0.99999998245E-14  0.12500000000E+03  0.12500000000E+03 0.  0.
    3000001    1    3    3    0    0 -0.33363443390E+02  0.39507165777E+02 -0.12528822789E+02  0.53215664076E+02  0.10000000000E+01 0.  1.
    1000022    2    1    0    0    0 -0.36306151749E+02  0.46640418425E+02 -0.17685720410E+02  0.62500001393E+02  0.10000009103E+02 0.  0.
    3000022    2    3    3    0    0 -0.29427083585E+01  0.71332526482E+01 -0.51568976214E+01  0.92843373172E+01  0.25000103233E+00 0.  0.
    1000022    2    1    0    0    0  0.36306151749E+02 -0.46640418425E+02  0.17685720410E+02  0.62499998607E+02  0.99999916887E+01 0.  0.
    3000022    2    5    5    0    0  0.16707728213E+02 -0.25671545106E+02  0.47298838408E+01  0.30993720588E+02  0.25000920854E+00 0.  0.
        -13    1    4    4    0    0 -0.14329253050E+01  0.35516375603E+01 -0.24861596164E+01  0.45672112856E+01  0.10500000000E+00 0. -1.
         13    1    4    4    0    0 -0.15097830535E+01  0.35816150879E+01 -0.26707380050E+01  0.47171260316E+01  0.10500000000E+00 0.  1.
    3000001    1    5    5    0    0  0.19598423536E+02 -0.20968873319E+02  0.12955836569E+02  0.31506278018E+02  0.10000000000E+01 0. -1.
        -13    1    6    6    0    0  0.10590093128E+02 -0.16214415263E+02  0.29396570375E+01  0.19588515597E+02  0.10500000000E+00 0. -1.
         13    1    6    6    0    0  0.61176350843E+01 -0.94571298428E+01  0.17902268033E+01  0.11405204991E+02  0.10500000000E+00 0.  1.
</event>
<event>
11    0  0.3448258E-009  0.9118800E+02  0.7816531E-02  0.1126479E+00
         25   -1    0    0    0    0  0.00000000000E+00  0.00000000000E+00  0.99999998245E-14  0.12500000000E+03  0.12500000000E+03 0.  0.
    3000001    1    3    3    0    0 -0.50968563277E+01 -0.27616222310E+01 -0.11216368700E+01  0.59885366359E+01  0.10000000000E+01 0.  1.
    1000022    2    1    0    0    0 -0.47723889559E+02 -0.35674509690E+02  0.16000304784E+02  0.62500000178E+02  0.99999996456E+01 0.  0.
    3000022    2    3    3    0    0 -0.42627033231E+02 -0.32912887459E+02  0.17121941654E+02  0.56511463543E+02  0.25000553123E+00 0.  0.
    1000022    2    1    0    0    0  0.47723889559E+02  0.35674509690E+02 -0.16000304784E+02  0.62499999822E+02  0.99999974149E+01 0.  0.
    3000022    2    5    5    0    0  0.13904163281E+02  0.89892122175E+01 -0.72361081835E-01  0.16558968300E+02  0.25000440385E+00 0.  0.
        -13    1    4    4    0    0 -0.26863036014E+02 -0.20808147905E+02  0.10831317425E+02  0.35664130233E+02  0.10500000000E+00 0.  1.
         13    1    4    4    0    0 -0.15763997217E+02 -0.12104739554E+02  0.62906242292E+01  0.20847333310E+02  0.10500000000E+00 0. -1.
    3000001    1    5    5    0    0  0.33819726278E+02  0.26685297472E+02 -0.15927943702E+02  0.45941031522E+02  0.10000000000E+01 0. -1.
        -13    1    6    6    0    0  0.63736946217E+01  0.41224316881E+01  0.33836789468E-01  0.75914818107E+01  0.10500000000E+00 0. -1.
         13    1    6    6    0    0  0.75304686589E+01  0.48667805295E+01 -0.10619787130E+00  0.89674864891E+01  0.10500000000E+00 0.  1.
</event>
<event>
11    0  0.3448258E-009  0.9118800E+02  0.7816531E-02  0.1126479E+00
         25   -1    0    0    0    0  0.00000000000E+00  0.00000000000E+00  0.99999998245E-14  0.12500000000E+03  0.12500000000E+03 0.  0.
    3000001    1    3    3    0    0 -0.70306823290E+01  0.27331215481E+01  0.18300317387E+01  0.78262036501E+01  0.10000000000E+01 0.  1.
    1000022    2    1    0    0    0 -0.47123961062E+02  0.39811440460E+02 -0.79461679930E+00  0.62500000098E+02  0.10000004935E+02 0.  0.
    3000022    2    3    3    0    0 -0.40093278733E+02  0.37078318912E+02 -0.26246485380E+01  0.54673796448E+02  0.25001032348E+00 0.  0.
    1000022    2    1    0    0    0  0.47123961062E+02 -0.39811440460E+02  0.79461679930E+00  0.62499999902E+02  0.10000003705E+02 0.  0.
    3000022    2    5    5    0    0  0.91565447969E+01 -0.10387028834E+02  0.38006614867E+01  0.14361065534E+02  0.24998980937E+00 0.  0.
        -13    1    4    4    0    0 -0.18560852121E+02  0.17233823260E+02 -0.12617825278E+01  0.25359673022E+02  0.10500000000E+00 0.  1.
         13    1    4    4    0    0 -0.21532426612E+02  0.19844495652E+02 -0.13628660102E+01  0.29314123427E+02  0.10500000000E+00 0. -1.
    3000001    1    5    5    0    0  0.37967416265E+02 -0.29424411626E+02 -0.30060446874E+01  0.48138934368E+02  0.10000000000E+01 0. -1.
        -13    1    6    6    0    0  0.23534870485E+01 -0.26967544507E+01  0.95658184158E+00  0.37064079207E+01  0.10500000000E+00 0. -1.
         13    1    6    6    0    0  0.68030577484E+01 -0.76902743834E+01  0.28440796451E+01  0.10654657613E+02  0.10500000000E+00 0.  1.
</event>
<event>
11    0  0.3448258E-009  0.9118800E+02  0.7816531E-02  0.1126479E+00
         25   -1    0    0    0    0  0.00000000000E+00  0.00000000000E+00  0.99999998245E-14  0.12500000000E+03  0.12500000000E+03 0.  0.
    3000001    1    3    3    0    0  0.29431561736E+02 -0.95374694205E+01  0.35502023577E+02  0.47101739110E+02  0.10000000000E+01 0. -1.
    1000022    2    1    0    0    0  0.37729947936E+02 -0.17903574951E+02  0.45411052632E+02  0.62499995111E+02  0.99999360192E+01 0.  0.
    3000022    2    3    3    0    0  0.82983862005E+01 -0.83661055310E+01  0.99090290553E+01  0.15398256001E+02  0.24999151203E+00 0.  0.
    1000022    2    1    0    0    0 -0.37729947936E+02  0.17903574951E+02 -0.45411052632E+02  0.62500004889E+02  0.99999971322E+01 0.  0.
    3000022    2    5    5    0    0 -0.20838554633E+02  0.86363314541E+01 -0.17407502941E+02  0.28494126499E+02  0.25001226307E+00 0.  0.
        -13    1    4    4    0    0  0.19232706041E+01 -0.19283861094E+01  0.22982910193E+01  0.35652222109E+01  0.10500000000E+00 0.  1.
         13    1    4    4    0    0  0.63751155963E+01 -0.64377194217E+01  0.76107380360E+01  0.11833033790E+02  0.10500000000E+00 0. -1.
    3000001    1    5    5    0    0 -0.16891393303E+02  0.92672434974E+01 -0.28003549691E+02  0.34005878390E+02  0.10000000000E+01 0.  1.
        -13    1    6    6    0    0 -0.67123075238E+01  0.28188221411E+01 -0.56668804281E+01  0.92263421432E+01  0.10500000000E+00 0.  1.
         13    1    6    6    0    0 -0.14126247109E+02  0.58175093129E+01 -0.11740622513E+02  0.19267784356E+02  0.10500000000E+00 0. -1.
</event>
<event>
11    0  0.3448258E-009  0.9118800E+02  0.7816531E-02  0.1126479E+00
         25   -1    0    0    0    0  0.00000000000E+00  0.00000000000E+00  0.99999998245E-14  0.12500000000E+03  0.12500000000E+03 0.  0.
    3000001    1    3    3    0    0 -0.11998240644E+02  0.12301985972E+02 -0.16561195486E+02  0.23886603637E+02  0.10000000000E+01 0. -1.
    1000022    2    1    0    0    0 -0.22255593170E+02  0.27513218698E+02 -0.50536731396E+02  0.62500000611E+02  0.10000011286E+02 0.  0.
    3000022    2    3    3    0    0 -0.10257352526E+02  0.15211232726E+02 -0.33975535911E+02  0.38613396974E+02  0.25000715796E+00 0.  0.
    1000022    2    1    0    0    0  0.22255593170E+02 -0.27513218698E+02  0.50536731396E+02  0.62499999389E+02  0.10000003645E+02 0.  0.
    3000022    2    5    5    0    0  0.12321768238E+02 -0.75507132349E+01  0.19909430111E+02  0.24602584092E+02  0.24998759716E+00 0.  0.
        -13    1    4    4    0    0 -0.56087999051E+01  0.82460738951E+01 -0.18354978494E+02  0.20889534020E+02  0.10500000000E+00 0. -1.
         13    1    4    4    0    0 -0.46485526208E+01  0.69651588310E+01 -0.15620557416E+02  0.17723862954E+02  0.10500000000E+00 0.  1.
    3000001    1    5    5    0    0  0.99338249318E+01 -0.19962505463E+02  0.30627301286E+02  0.37897415297E+02  0.10000000000E+01 0. -1.
        -13    1    6    6    0    0  0.81219089394E+01 -0.49230688398E+01  0.13135577890E+02  0.16209763821E+02  0.10500000000E+00 0.  1.
         13    1    6    6    0    0  0.41998592984E+01 -0.26276443951E+01  0.67738522208E+01  0.83928202710E+01  0.10500000000E+00 0. -1.
</event>
<event>
11    0  0.3448258E-009  0.9118800E+02  0.7816531E-02  0.1126479E+00
         25   -1    0    0    0    0  0.00000000000E+00  0.00000000000E+00  0.99999998245E-14  0.12500000000E+03  0.12500000000E+03 0.  0.
    3000001    1    3    3    0    0 -0.23293958116E+02 -0.16907348136E+01  0.21284956149E+02  0.31615129720E+02  0.10000000000E+01 0.  1.
    1000022    2    1    0    0    0 -0.41417657123E+02 -0.11687976106E+02  0.44206548312E+02  0.62499999603E+02  0.99999964893E+01 0.  0.
    3000022    2    3    3    0    0 -0.18123699006E+02 -0.99972412920E+01  0.22921592163E+02  0.30884869884E+02  0.25000262804E+00 0.  0.
    1000022    2    1    0    0    0  0.41417657123E+02  0.11687976106E+02 -0.44206548312E+02  0.62500000397E+02  0.10000001450E+02 0.  0.
    3000022    2    5    5    0    0  0.13588973880E+02  0.73075982473E+01 -0.11047247219E+02  0.18978022384E+02  0.24991845478E+00 0.  0.
        -13    1    4    4    0    0 -0.90333319041E+01 -0.50549769610E+01  0.11500321692E+02  0.15473277009E+02  0.10500000000E+00 0.  1.
         13    1    4    4    0    0 -0.90903671023E+01 -0.49422643310E+01  0.11421270471E+02  0.15411592875E+02  0.10500000000E+00 0. -1.
    3000001    1    5    5    0    0  0.27828683243E+02  0.43803778583E+01 -0.33159301093E+02  0.43521978013E+02  0.10000000000E+01 0.  1.
        -13    1    6    6    0    0  0.74514556801E+01  0.39815559791E+01 -0.59716899572E+01  0.10346452808E+02  0.10500000000E+00 0.  1.
         13    1    6    6    0    0  0.61375182001E+01  0.33260422681E+01 -0.50755572618E+01  0.86315695759E+01  0.10500000000E+00 0. -1.
</event>
<event>
11    0  0.3448258E-009  0.9118800E+02  0.7816531E-02  0.1126479E+00
         25   -1    0    0    0    0  0.00000000000E+00  0.00000000000E+00  0.99999998245E-14  0.12500000000E+03  0.12500000000E+03 0.  0.
    3000001    1    3    3    0    0  0.36395647265E+02  0.26638611404E+02 -0.30093335786E+02  0.54229766882E+02  0.10000000000E+01 0. -1.
    1000022    2    1    0    0    0  0.41398959467E+02  0.33034621664E+02 -0.31640007802E+02  0.62500001027E+02  0.99999980657E+01 0.  0.
    3000022    2    3    3    0    0  0.50033122014E+01  0.63960102604E+01 -0.15466720156E+01  0.82702341450E+01  0.24999650758E+00 0.  0.
    1000022    2    1    0    0    0 -0.41398959467E+02 -0.33034621664E+02  0.31640007802E+02  0.62499998973E+02  0.99999852222E+01 0.  0.
    3000022    2    5    5    0    0 -0.39786766745E+02 -0.28400506473E+02  0.28379687108E+02  0.56524726594E+02  0.25000042565E+00 0.  0.
        -13    1    4    4    0    0  0.20498144100E+01  0.25439794365E+01 -0.66536816974E+00  0.33357623251E+01  0.10500000000E+00 0. -1.
         13    1    4    4    0    0  0.29534977914E+01  0.38520308240E+01 -0.88130384585E+00  0.49344718199E+01  0.10500000000E+00 0.  1.
    3000001    1    5    5    0    0 -0.16121927221E+01 -0.46341151906E+01  0.32603206938E+01  0.59752723787E+01  0.10000000000E+01 0. -1.
        -13    1    6    6    0    0 -0.13749620433E+02 -0.97501661875E+01  0.97647403533E+01  0.19480220273E+02  0.10500000000E+00 0. -1.
         13    1    6    6    0    0 -0.26037146312E+02 -0.18650340286E+02  0.18614946755E+02  0.37044506320E+02  0.10500000000E+00 0.  1.
</event>
<event>
11    0  0.3448258E-009  0.9118800E+02  0.7816531E-02  0.1126479E+00
         25   -1    0    0    0    0  0.00000000000E+00  0.00000000000E+00  0.99999998245E-14  0.12500000000E+03  0.12500000000E+03 0.  0.
    3000001    1    3    3    0    0  0.26640132801E+01 -0.45943656079E+01 -0.84575035405E+01  0.10036659217E+02  0.10000000000E+01 0.  1.
    1000022    2    1    0    0    0 -0.52774924428E+01 -0.32013674197E+02 -0.52474019263E+02  0.62500000279E+02  0.10000003761E+02 0.  0.
    3000022    2    3    3    0    0 -0.79415057229E+01 -0.27419308590E+02 -0.44016515722E+02  0.52463341063E+02  0.25000488719E+00 0.  0.
    1000022    2    1    0    0    0  0.52774924428E+01  0.32013674197E+02  0.52474019263E+02  0.62499999721E+02  0.10000000270E+02 0.  0.
    3000022    2    5    5    0    0  0.52621695571E+01  0.29693745546E+02  0.41875487476E+02  0.51604533702E+02  0.24998846962E+00 0.  0.
        -13    1    4    4    0    0 -0.59026688318E+01 -0.20464209106E+02 -0.32810187235E+02  0.39117064883E+02  0.10500000000E+00 0. -1.
         13    1    4    4    0    0 -0.20388368911E+01 -0.69550994837E+01 -0.11206328488E+02  0.13346276180E+02  0.10500000000E+00 0.  1.
    3000001    1    5    5    0    0  0.15322885696E-01  0.23199286519E+01  0.10598531787E+02  0.10895466019E+02  0.10000000000E+01 0.  1.
        -13    1    6    6    0    0  0.17064567066E+01  0.94324802500E+01  0.13373867889E+02  0.16454635987E+02  0.10500000000E+00 0.  1.
         13    1    6    6    0    0  0.35557128505E+01  0.20261265296E+02  0.28501619587E+02  0.35149897714E+02  0.10500000000E+00 0. -1.
</event>
<event>
11    0  0.3448258E-009  0.9118800E+02  0.7816531E-02  0.1126479E+00
         25   -1    0    0    0    0  0.00000000000E+00  0.00000000000E+00  0.99999998245E-14  0.12500000000E+03  0.12500000000E+03 0.  0.
    3000001    1    3    3    0    0 -0.20158613626E+02 -0.20789064013E+02  0.36577426888E+02  0.46663294393E+02  0.10000000000E+01 0.  1.
    1000022    2    1    0    0    0 -0.31309057174E+02 -0.28067795781E+02  0.45146341797E+02  0.62499996388E+02  0.99999574855E+01 0.  0.
    3000022    2    3    3    0    0 -0.11150443548E+02 -0.72787317684E+01  0.85689149084E+01  0.15836701995E+02  0.24999977668E+00 0.  0.
    1000022    2    1    0    0    0  0.31309057174E+02  0.28067795781E+02 -0.45146341797E+02  0.62500003612E+02  0.10000002638E+02 0.  0.
    3000022    2    5    5    0    0  0.17138433249E+02  0.88924361152E+01 -0.21648023644E+02  0.29008632235E+02  0.25000429189E+00 0.  0.
        -13    1    4    4    0    0 -0.72752129606E+01 -0.48084520071E+01  0.55814656332E+01  0.10354405726E+02  0.10500000000E+00 0.  1.
         13    1    4    4    0    0 -0.38752305872E+01 -0.24702797613E+01  0.29874492752E+01  0.54822962685E+01  0.10500000000E+00 0. -1.
    3000001    1    5    5    0    0  0.14170623925E+02  0.19175359666E+02 -0.23498318153E+02  0.33491371377E+02  0.10000000000E+01 0. -1.
        -13    1    6    6    0    0  0.98881617658E+01  0.50716104852E+01 -0.12517578934E+02  0.16739109396E+02  0.10500000000E+00 0. -1.
         13    1    6    6    0    0  0.72502714831E+01  0.38208256300E+01 -0.91304447107E+01  0.12269522839E+02  0.10500000000E+00 0.  1.
</event>
<event>
11    0  0.3448258E-009  0.9118800E+02  0.7816531E-02  0.1126479E+00
         25   -1    0    0    0    0  0.00000000000E+00  0.00000000000E+00  0.99999998245E-14  0.12500000000E+03  0.12500000000E+03 0.  0.
    3000001    1    3    3    0    0 -0.26846790866E+02  0.36502095277E+02  0.10638572245E+02  0.46554616944E+02  0.10000000000E+01 0.  1.
    1000022    2    1    0    0    0 -0.34892776283E+02  0.50129703057E+02  0.87038626304E+01  0.62499998337E+02  0.99999801043E+01 0.  0.
    3000022    2    3    3    0    0 -0.80459854168E+01  0.13627607781E+02 -0.19347096143E+01  0.15945381393E+02  0.25002264855E+00 0.  0.
    1000022    2    1    0    0    0  0.34892776283E+02 -0.50129703057E+02 -0.87038626304E+01  0.62500001663E+02  0.10000000891E+02 0.  0.
    3000022    2    5    5    0    0  0.24002153471E+02 -0.28223754178E+02 -0.19523788359E+01  0.37101993966E+02  0.25000401719E+00 0.  0.
        -13    1    4    4    0    0 -0.38463691258E+01  0.64450345756E+01 -0.85961954654E+00  0.75553290397E+01  0.10500000000E+00 0. -1.
         13    1    4    4    0    0 -0.41996162910E+01  0.71825732050E+01 -0.10750900677E+01  0.83900523533E+01  0.10500000000E+00 0.  1.
    3000001    1    5    5    0    0  0.10890622813E+02 -0.21905948879E+02 -0.67514837946E+01  0.25398007697E+02  0.10000000000E+01 0. -1.
        -13    1    6    6    0    0  0.17040646262E+02 -0.20064205344E+02 -0.13478730176E+01  0.26358750877E+02  0.10500000000E+00 0.  1.
         13    1    6    6    0    0  0.69615072090E+01 -0.81595488335E+01 -0.60450581830E+00  0.10743243089E+02  0.10500000000E+00 0. -1.
</event>
<event>
11    0  0.3448258E-009  0.9118800E+02  0.7816531E-02  0.1126479E+00
         25   -1    0    0    0    0  0.00000000000E+00  0.00000000000E+00  0.99999998245E-14  0.12500000000E+03  0.12500000000E+03 0.  0.
    3000001    1    3    3    0    0  0.19775395034E+02 -0.34514931853E+02 -0.21883381704E+02  0.45411773412E+02  0.10000000000E+01 0. -1.
    1000022    2    1    0    0    0  0.31888605887E+02 -0.45539079037E+02 -0.26749933501E+02  0.62500001291E+02  0.10000015707E+02 0.  0.
    3000022    2    3    3    0    0  0.12113210853E+02 -0.11024147183E+02 -0.48665517972E+01  0.17088227879E+02  0.25001474836E+00 0.  0.
    1000022    2    1    0    0    0 -0.31888605887E+02  0.45539079037E+02  0.26749933501E+02  0.62499998709E+02  0.99999995689E+01 0.  0.
    3000022    2    5    5    0    0 -0.18062860344E+02  0.33782577709E+02  0.17964114764E+02  0.42311953381E+02  0.24999838047E+00 0.  0.
        -13    1    4    4    0    0  0.33419891781E+01 -0.30059704117E+01 -0.13076047261E+01  0.46824784999E+01  0.10500000000E+00 0.  1.
         13    1    4    4    0    0  0.87712216750E+01 -0.80181767716E+01 -0.35589470711E+01  0.12405749379E+02  0.10500000000E+00 0. -1.
    3000001    1    5    5    0    0 -0.13825745543E+02  0.11756501328E+02  0.87858187369E+01  0.20188045328E+02  0.10000000000E+01 0. -1.
        -13    1    6    6    0    0 -0.98313180590E+01  0.18513904724E+02  0.97968096759E+01  0.23138884755E+02  0.10500000000E+00 0. -1.
         13    1    6    6    0    0 -0.82315422854E+01  0.15268672985E+02  0.81673050883E+01  0.19173068626E+02  0.10500000000E+00 0.  1.
</event>
<event>
11    0  0.3448258E-009  0.9118800E+02  0.7816531E-02  0.1126479E+00
         25   -1    0    0    0    0  0.00000000000E+00  0.00000000000E+00  0.99999998245E-14  0.12500000000E+03  0.12500000000E+03 0.  0.
    3000001    1    3    3    0    0  0.30141931172E+02 -0.43631174534E+02  0.80672472631E+01  0.53649751951E+02  0.10000000000E+01 0.  1.
    1000022    2    1    0    0    0  0.35405229192E+02 -0.50232437621E+02  0.54242432897E+01  0.62500003293E+02  0.99999976471E+01 0.  0.
    3000022    2    3    3    0    0  0.52632980197E+01 -0.66012630868E+01 -0.26430039733E+01  0.88502513422E+01  0.24999686589E+00 0.  0.
    1000022    2    1    0    0    0 -0.35405229192E+02  0.50232437621E+02 -0.54242432897E+01  0.62499996707E+02  0.99999564795E+01 0.  0.
    3000022    2    5    5    0    0 -0.26524544330E+01  0.97550883921E+01  0.23439289438E+00  0.10115073127E+02  0.25000054953E+00 0.  0.
        -13    1    4    4    0    0  0.33301714744E+01 -0.42527689913E+01 -0.16553005081E+01  0.56504098006E+01  0.10500000000E+00 0. -1.
         13    1    4    4    0    0  0.19331265453E+01 -0.23484940954E+01 -0.98770346521E+00  0.31998415416E+01  0.10500000000E+00 0.  1.
    3000001    1    5    5    0    0 -0.32752774759E+02  0.40477349229E+02 -0.56586361841E+01  0.52384923580E+02  0.10000000000E+01 0.  1.
        -13    1    6    6    0    0 -0.14859456509E+01  0.53223683727E+01  0.72737700733E-01  0.55273823230E+01  0.10500000000E+00 0. -1.
         13    1    6    6    0    0 -0.11665087820E+01  0.44327200194E+01  0.16165519365E+00  0.45876908038E+01  0.10500000000E+00 0.  1.
</event>
<event>
11    0  0.3448258E-009  0.9118800E+02  0.7816531E-02  0.1126479E+00
         25   -1    0    0    0    0  0.00000000000E+00  0.00000000000E+00  0.99999998245E-14  0.12500000000E+03  0.12500000000E+03 0.  0.
    3000001    1    3    3    0    0 -0.25353464902E+02 -0.29539741070E+01  0.39949901282E+02  0.47418548670E+02  0.10000000000E+01 0. -1.
    1000022    2    1    0    0    0 -0.33555346431E+02 -0.92183459173E+01  0.50944193675E+02  0.62500000252E+02  0.99999993363E+01 0.  0.
    3000022    2    3    3    0    0 -0.82018815294E+01 -0.62643718104E+01  0.10994292393E+02  0.15081451582E+02  0.25000357546E+00 0.  0.
    1000022    2    1    0    0    0  0.33555346431E+02  0.92183459173E+01 -0.50944193675E+02  0.62499999748E+02  0.99999961879E+01 0.  0.
    3000022    2    5    5    0    0  0.76761910400E+01  0.57550082397E+01 -0.94809354378E+01  0.13490539689E+02  0.24999121507E+00 0.  0.
        -13    1    4    4    0    0 -0.48658336935E+01 -0.36383886330E+01  0.64953029080E+01  0.88946160257E+01  0.10500000000E+00 0. -1.
         13    1    4    4    0    0 -0.33360478359E+01 -0.26259831773E+01  0.44989894853E+01  0.61868355562E+01  0.10500000000E+00 0.  1.
    3000001    1    5    5    0    0  0.25879155391E+02  0.34633376776E+01 -0.41463258237E+02  0.49009460059E+02  0.10000000000E+01 0.  1.
        -13    1    6    6    0    0  0.25053999780E+01  0.19425425834E+01 -0.31155404882E+01  0.44461352062E+01  0.10500000000E+00 0. -1.
         13    1    6    6    0    0  0.51707910620E+01  0.38124656564E+01 -0.63653949496E+01  0.90444044830E+01  0.10500000000E+00 0.  1.
</event>
<event>
11    0  0.3448258E-009  0.9118800E+02  0.7816531E-02  0.1126479E+00
         25   -1    0    0    0    0  0.00000000000E+00  0.00000000000E+00  0.99999998245E-14  0.12500000000E+03  0.12500000000E+03 0.  0.
    3000001    1    3    3    0    0 -0.18033760904E+01 -0.19720835825E+01 -0.24060798803E+01  0.37323584193E+01  0.10000000000E+01 0. -1.
    1000022    2    1    0    0    0 -0.20412450856E+01 -0.19431468465E+02 -0.58519237626E+02  0.62499999864E+02  0.10000008122E+02 0.  0.
    3000022    2    3    3    0    0 -0.23786899513E+00 -0.17459384882E+02 -0.56113157746E+02  0.58767641445E+02  0.25001323927E+00 0.  0.
    1000022    2    1    0    0    0  0.20412450856E+01  0.19431468465E+02  0.58519237626E+02  0.62500000136E+02  0.10000009822E+02 0.  0.
    3000022    2    5    5    0    0  0.54740528634E+00  0.57909667755E+00  0.15189941758E+02  0.15212883923E+02  0.25000222836E+00 0.  0.
        -13    1    4    4    0    0 -0.14992748432E+00 -0.12512385482E+02 -0.40329304196E+02  0.42226130188E+02  0.10500000000E+00 0.  1.
         13    1    4    4    0    0 -0.87941510810E-01 -0.49469994000E+01 -0.15783853550E+02  0.16541511257E+02  0.10500000000E+00 0. -1.
    3000001    1    5    5    0    0  0.14938397992E+01  0.18852371787E+02  0.43329295868E+02  0.47287116213E+02  0.10000000000E+01 0.  1.
        -13    1    6    6    0    0  0.39452551134E+00  0.34156914056E+00  0.92520971205E+01  0.92673969368E+01  0.10500000000E+00 0.  1.
         13    1    6    6    0    0  0.15287977500E+00  0.23752753699E+00  0.59378446379E+01  0.59454869860E+01  0.10500000000E+00 0. -1.
</event>
<event>
11    0  0.3448258E-009  0.9118800E+02  0.7816531E-02  0.1126479E+00
         25   -1    0    0    0    0  0.00000000000E+00  0.00000000000E+00  0.99999998245E-14  0.12500000000E+03  0.12500000000E+03 0.  0.
    3000001    1    3    3    0    0 -0.28948930718E+02  0.28097548653E+02  0.29097752220E+02  0.49751301634E+02  0.10000000000E+01 0. -1.
    1000022    2    1    0    0    0 -0.34141745703E+02  0.32331044560E+02  0.39941139273E+02  0.62500001797E+02  0.10000018811E+02 0.  0.
    3000022    2    3    3    0    0 -0.51928149844E+01  0.42334959069E+01  0.10843387053E+02  0.12748700163E+02  0.24999600705E+00 0.  0.
    1000022    2    1    0    0    0  0.34141745703E+02 -0.32331044560E+02 -0.39941139273E+02  0.62499998203E+02  0.99999963485E+01 0.  0.
    3000022    2    5    5    0    0  0.12126223264E+02 -0.67231138695E+01 -0.15517709639E+02  0.20811231639E+02  0.24999831484E+00 0.  0.
        -13    1    4    4    0    0 -0.19543609922E+01  0.16470128362E+01  0.40528894798E+01  0.47926105940E+01  0.10500000000E+00 0. -1.
         13    1    4    4    0    0 -0.32384539923E+01  0.25864830707E+01  0.67904975730E+01  0.79560895686E+01  0.10500000000E+00 0.  1.
    3000001    1    5    5    0    0  0.22015522438E+02 -0.25607930691E+02 -0.24423429634E+02  0.41688766564E+02  0.10000000000E+01 0. -1.
        -13    1    6    6    0    0  0.47024880625E+01 -0.26531606270E+01 -0.61138894438E+01  0.81574091733E+01  0.10500000000E+00 0.  1.
         13    1    6    6    0    0  0.74237352018E+01 -0.40699532426E+01 -0.94038201951E+01  0.12653822466E+02  0.10500000000E+00 0. -1.
</event>
<event>
11    0  0.3448258E-009  0.9118800E+02  0.7816531E-02  0.1126479E+00
         25   -1    0    0    0    0  0.00000000000E+00  0.00000000000E+00  0.99999998245E-14  0.12500000000E+03  0.12500000000E+03 0.  0.
    3000001    1    3    3    0    0  0.27736990554E+02 -0.91722489601E+01  0.22871763673E+01  0.29320674816E+02  0.10000000000E+01 0. -1.
    1000022    2    1    0    0    0  0.55578100408E+02 -0.22661004449E+02  0.14275963291E+02  0.62499997221E+02  0.10000007856E+02 0.  0.
    3000022    2    3    3    0    0  0.27841109855E+02 -0.13488755489E+02  0.11988786924E+02  0.33179322404E+02  0.25000149249E+00 0.  0.
    1000022    2    1    0    0    0 -0.55578100408E+02  0.22661004449E+02 -0.14275963291E+02  0.62500002779E+02  0.10000042595E+02 0.  0.
    3000022    2    5    5    0    0 -0.26646154897E+01  0.31681499089E+01  0.55416193521E+00  0.41841311956E+01  0.25001771580E+00 0.  0.
        -13    1    4    4    0    0  0.15562295247E+02 -0.74662486170E+01  0.66853540234E+01  0.18510399379E+02  0.10500000000E+00 0.  1.
         13    1    4    4    0    0  0.12278814608E+02 -0.60225068716E+01  0.53034329003E+01  0.14668923025E+02  0.10500000000E+00 0. -1.
    3000001    1    5    5    0    0 -0.52913484918E+02  0.19492854540E+02 -0.14830125226E+02  0.58315871584E+02  0.10000000000E+01 0.  1.
        -13    1    6    6    0    0 -0.16010272559E+01  0.19792124362E+01  0.30259171504E+00  0.25657663354E+01  0.10500000000E+00 0.  1.
         13    1    6    6    0    0 -0.10635882338E+01  0.11889374726E+01  0.25157022017E+00  0.16183648602E+01  0.10500000000E+00 0. -1.
</event>
<event>
11    0  0.3448258E-009  0.9118800E+02  0.7816531E-02  0.1126479E+00
         25   -1    0    0    0    0  0.00000000000E+00  0.00000000000E+00  0.99999998245E-14  0.12500000000E+03  0.12500000000E+03 0.  0.
    3000001    1    3    3    0    0 -0.39859252449E+02 -0.11952423290E+02  0.28048586050E+02  0.50193063342E+02  0.10000000000E+01 0.  1.
    1000022    2    1    0    0    0 -0.45960517577E+02 -0.16784569335E+02  0.37578703548E+02  0.62500000695E+02  0.10000009140E+02 0.  0.
    3000022    2    3    3    0    0 -0.61012651276E+01 -0.48321460446E+01  0.95301174988E+01  0.12306937352E+02  0.24999180456E+00 0.  0.
    1000022    2    1    0    0    0  0.45960517577E+02  0.16784569335E+02 -0.37578703548E+02  0.62499999305E+02  0.10000000455E+02 0.  0.
    3000022    2    5    5    0    0  0.35835209341E+02  0.13180270825E+02 -0.23786299734E+02  0.44985912472E+02  0.24999672870E+00 0.  0.
        -13    1    4    4    0    0 -0.46275079594E+01 -0.36560566956E+01  0.72505649587E+01  0.93467800710E+01  0.10500000000E+00 0. -1.
         13    1    4    4    0    0 -0.14737571681E+01 -0.11760893490E+01  0.22795525401E+01  0.29601572814E+01  0.10500000000E+00 0.  1.
    3000001    1    5    5    0    0  0.10125308236E+02  0.36042985092E+01 -0.13792403815E+02  0.17514086833E+02  0.10000000000E+01 0.  1.
        -13    1    6    6    0    0  0.24089797875E+02  0.88085692239E+01 -0.16002330385E+02  0.30232347845E+02  0.10500000000E+00 0. -1.
         13    1    6    6    0    0  0.11745411466E+02  0.43717016014E+01 -0.77839693487E+01  0.14753564628E+02  0.10500000000E+00 0.  1.
</event>
<event>
11    0  0.3448258E-009  0.9118800E+02  0.7816531E-02  0.1126479E+00
         25   -1    0    0    0    0  0.00000000000E+00  0.00000000000E+00  0.99999998245E-14  0.12500000000E+03  0.12500000000E+03 0.  0.
    3000001    1    3    3    0    0  0.36365215030E+01  0.47116773399E+02 -0.24799927274E+01  0.47332493999E+02  0.10000000000E+01 0. -1.
    1000022    2    1    0    0    0  0.10214953912E+02  0.60740952317E+02 -0.35272367298E+01  0.62499999958E+02  0.10000001202E+02 0.  0.
    3000022    2    3    3    0    0  0.65784324088E+01  0.13624178917E+02 -0.10472440024E+01  0.15167505959E+02  0.24998579052E+00 0.  0.
    1000022    2    1    0    0    0 -0.10214953912E+02 -0.60740952317E+02  0.35272367298E+01  0.62500000042E+02  0.10000001727E+02 0.  0.
    3000022    2    5    5    0    0 -0.24458658916E+01 -0.21415433623E+01  0.53114594660E+00  0.33034966110E+01  0.25001181925E+00 0.  0.
        -13    1    4    4    0    0  0.27090824449E+01  0.55909676140E+01 -0.49367550256E+00  0.62332003864E+01  0.10500000000E+00 0.  1.
         13    1    4    4    0    0  0.38693499639E+01  0.80332113033E+01 -0.55356849987E+00  0.89343055729E+01  0.10500000000E+00 0. -1.
    3000001    1    5    5    0    0 -0.77690880202E+01 -0.58599408954E+02  0.29960907832E+01  0.59196503431E+02  0.10000000000E+01 0. -1.
        -13    1    6    6    0    0 -0.14705942275E+01 -0.13429948424E+01  0.37116689393E+00  0.20285641207E+01  0.10500000000E+00 0. -1.
         13    1    6    6    0    0 -0.97527166406E+00 -0.79854851995E+00  0.15997905267E+00  0.12749324903E+01  0.10500000000E+00 0.  1.
</event>
<event>
11    0  0.3448258E-009  0.9118800E+02  0.7816531E-02  0.1126479E+00
         25   -1    0    0    0    0  0.00000000000E+00  0.00000000000E+00  0.99999998245E-14  0.12500000000E+03  0.12500000000E+03 0.  0.
    3000001    1    3    3    0    0 -0.64044960042E-01 -0.36035619049E+01  0.27894944842E+01  0.46659446671E+01  0.10000000000E+01 0.  1.
    1000022    2    1    0    0    0 -0.28012465945E+02 -0.31612909605E+02  0.44968606288E+02  0.62499998326E+02  0.99999968637E+01 0.  0.
    3000022    2    3    3    0    0 -0.27948420985E+02 -0.28009347700E+02  0.42179111804E+02  0.57834053659E+02  0.24999188470E+00 0.  0.
    1000022    2    1    0    0    0  0.28012465945E+02  0.31612909605E+02 -0.44968606288E+02  0.62500001674E+02  0.10000017790E+02 0.  0.
    3000022    2    5    5    0    0  0.72611615641E+01  0.28439224090E+01 -0.64131330847E+01  0.10099660342E+02  0.25000227898E+00 0.  0.
        -13    1    4    4    0    0 -0.82903641840E+01 -0.83029246098E+01  0.12442499176E+02  0.17102499996E+02  0.10500000000E+00 0.  1.
         13    1    4    4    0    0 -0.19658056801E+02 -0.19706423090E+02  0.29736612628E+02  0.40731553663E+02  0.10500000000E+00 0. -1.
    3000001    1    5    5    0    0  0.20751304381E+02  0.28768987196E+02 -0.38555473203E+02  0.52400341332E+02  0.10000000000E+01 0. -1.
        -13    1    6    6    0    0  0.43044233039E+01  0.16196729083E+01 -0.37589380550E+01  0.59407104466E+01  0.10500000000E+00 0.  1.
         13    1    6    6    0    0  0.29567382603E+01  0.12242495007E+01 -0.26541950297E+01  0.41589498958E+01  0.10500000000E+00 0. -1.
</event>
<event>
11    0  0.3448258E-009  0.9118800E+02  0.7816531E-02  0.1126479E+00
         25   -1    0    0    0    0  0.00000000000E+00  0.00000000000E+00  0.99999998245E-14  0.12500000000E+03  0.12500000000E+03 0.  0.
    3000001    1    3    3    0    0 -0.33192644275E+01 -0.85579340910E+01  0.25409991439E+02  0.27035595373E+02  0.10000000000E+01 0.  1.
    1000022    2    1    0    0    0 -0.84909641806E+01 -0.29720032579E+02  0.53393559603E+02  0.62499992663E+02  0.10000003331E+02 0.  0.
    3000022    2    3    3    0    0 -0.51716997531E+01 -0.21162098488E+02  0.27983568163E+02  0.35464397290E+02  0.24999442689E+00 0.  0.
    1000022    2    1    0    0    0  0.84909641806E+01  0.29720032579E+02 -0.53393559603E+02  0.62500007337E+02  0.10000095041E+02 0.  0.
    3000022    2    5    5    0    0  0.28105721987E+01  0.24299266571E+02 -0.38050628273E+02  0.45235677087E+02  0.24999519363E+00 0.  0.
        -13    1    4    4    0    0 -0.35558513159E+01 -0.14460115395E+02  0.19200745807E+02  0.24298532473E+02  0.10500000000E+00 0.  1.
         13    1    4    4    0    0 -0.16158484372E+01 -0.67019830936E+01  0.87828223569E+01  0.11165864817E+02  0.10500000000E+00 0. -1.
    3000001    1    5    5    0    0  0.56803919819E+01  0.54207660086E+01 -0.15342931329E+02  0.17264330249E+02  0.10000000000E+01 0.  1.
        -13    1    6    6    0    0  0.19582439428E+01  0.16771682059E+02 -0.26348363724E+02  0.31294909080E+02  0.10500000000E+00 0. -1.
         13    1    6    6    0    0  0.85232825587E+00  0.75275845119E+01 -0.11702264549E+02  0.13940768007E+02  0.10500000000E+00 0.  1.
</event>
<event>
11    0  0.3448258E-009  0.9118800E+02  0.7816531E-02  0.1126479E+00
         25   -1    0    0    0    0  0.00000000000E+00  0.00000000000E+00  0.99999998245E-14  0.12500000000E+03  0.12500000000E+03 0.  0.
    3000001    1    3    3    0    0  0.76765202475E+01 -0.29435182307E+01  0.25718979276E+02  0.27019606912E+02  0.10000000000E+01 0. -1.
    1000022    2    1    0    0    0  0.11600724495E+02 -0.16242271449E+02  0.58376895654E+02  0.62499998983E+02  0.99999868021E+01 0.  0.
    3000022    2    3    3    0    0  0.39242042471E+01 -0.13298753218E+02  0.32657916379E+02  0.35480392071E+02  0.25000642648E+00 0.  0.
    1000022    2    1    0    0    0 -0.11600724495E+02  0.16242271449E+02 -0.58376895654E+02  0.62500001017E+02  0.99999995136E+01 0.  0.
    3000022    2    5    5    0    0 -0.18998839476E+01  0.39705766231E+01 -0.27718213576E+02  0.28066651079E+02  0.25000235108E+00 0.  0.
        -13    1    4    4    0    0  0.12107710027E+01 -0.42740238782E+01  0.10423894178E+02  0.11331453630E+02  0.10500000000E+00 0.  1.
         13    1    4    4    0    0  0.27134332444E+01 -0.90247293401E+01  0.22234022200E+02  0.24148938441E+02  0.10500000000E+00 0. -1.
    3000001    1    5    5    0    0 -0.97008405469E+01  0.12271694826E+02 -0.30658682078E+02  0.34433349938E+02  0.10000000000E+01 0.  1.
        -13    1    6    6    0    0 -0.12498459551E+01  0.24789725204E+01 -0.17368650234E+02  0.17589441595E+02  0.10500000000E+00 0. -1.
         13    1    6    6    0    0 -0.65003799254E+00  0.14916041027E+01 -0.10349563342E+02  0.10477209484E+02  0.10500000000E+00 0.  1.
</event>
<event>
11    0  0.3448258E-009  0.9118800E+02  0.7816531E-02  0.1126479E+00
         25   -1    0    0    0    0  0.00000000000E+00  0.00000000000E+00  0.99999998245E-14  0.12500000000E+03  0.12500000000E+03 0.  0.
    3000001    1    3    3    0    0  0.24065224326E+02  0.77050016836E+01 -0.70668452490E+01  0.26257234709E+02  0.10000000000E+01 0.  1.
    1000022    2    1    0    0    0  0.58943357678E+02  0.68583194824E+01 -0.16878792285E+02  0.62499997599E+02  0.10000005520E+02 0.  0.
    3000022    2    3    3    0    0  0.34878133352E+02 -0.84668220122E+00 -0.98119470360E+01  0.36242762890E+02  0.25000075550E+00 0.  0.
    1000022    2    1    0    0    0 -0.58943357678E+02 -0.68583194824E+01  0.16878792285E+02  0.62500002401E+02  0.10000035535E+02 0.  0.
    3000022    2    5    5    0    0 -0.34796720477E+02 -0.71444697518E+01  0.61297349969E+01  0.36048457972E+02  0.24993414625E+00 0.  0.
        -13    1    4    4    0    0  0.94436331932E+01 -0.26513132135E+00 -0.26513883842E+01  0.98129194365E+01  0.10500000000E+00 0. -1.
         13    1    4    4    0    0  0.25434500159E+02 -0.58155087987E+00 -0.71605586518E+01  0.26429843453E+02  0.10500000000E+00 0.  1.
    3000001    1    5    5    0    0 -0.24146637201E+02  0.28615026936E+00  0.10749057288E+02  0.26451544429E+02  0.10000000000E+01 0.  1.
        -13    1    6    6    0    0 -0.18792083299E+02 -0.38837721794E+01  0.32481001080E+01  0.19462457717E+02  0.10500000000E+00 0. -1.
         13    1    6    6    0    0 -0.16004637177E+02 -0.32606975724E+01  0.28816348888E+01  0.16586000255E+02  0.10500000000E+00 0.  1.
</event>
<event>
11    0  0.3448258E-009  0.9118800E+02  0.7816531E-02  0.1126479E+00
         25   -1    0    0    0    0  0.00000000000E+00  0.00000000000E+00  0.99999998245E-14  0.12500000000E+03  0.12500000000E+03 0.  0.
    3000001    1    3    3    0    0 -0.50875384888E+02  0.57372569395E+01 -0.92377355104E+01  0.52034187435E+02  0.10000000000E+01 0.  1.
    1000022    2    1    0    0    0 -0.59495773778E+02  0.10901485147E+02 -0.12151547456E+02  0.62499996556E+02  0.99999994030E+01 0.  0.
    3000022    2    3    3    0    0 -0.86203888901E+01  0.51642282078E+01 -0.29138119459E+01  0.10465809121E+02  0.25000579598E+00 0.  0.
    1000022    2    1    0    0    0  0.59495773778E+02 -0.10901485147E+02  0.12151547456E+02  0.62500003444E+02  0.10000042450E+02 0.  0.
    3000022    2    5    5    0    0  0.41229415123E+02 -0.11981337258E+02  0.96217703147E+01  0.44000659902E+02  0.24998782359E+00 0.  0.
        -13    1    4    4    0    0 -0.55655900517E+01  0.33733721995E+01 -0.18390037027E+01  0.67637557790E+01  0.10500000000E+00 0. -1.
         13    1    4    4    0    0 -0.30547988384E+01  0.17908560084E+01 -0.10748082432E+01  0.37020533418E+01  0.10500000000E+00 0.  1.
    3000001    1    5    5    0    0  0.18266358655E+02  0.10798521110E+01  0.25297771417E+01  0.18499343542E+02  0.10000000000E+01 0. -1.
        -13    1    6    6    0    0  0.29975224793E+02 -0.87439394595E+01  0.69778699021E+01  0.31994878841E+02  0.10500000000E+00 0. -1.
         13    1    6    6    0    0  0.11254190330E+02 -0.32373977988E+01  0.26439004126E+01  0.12005781061E+02  0.10500000000E+00 0.  1.
</event>
<event>
11    0  0.3448258E-009  0.9118800E+02  0.7816531E-02  0.1126479E+00
         25   -1    0    0    0    0  0.00000000000E+00  0.00000000000E+00  0.99999998245E-14  0.12500000000E+03  0.12500000000E+03 0.  0.
    3000001    1    3    3    0    0  0.20546149837E+02 -0.49697146943E+02  0.26536643136E+02  0.59976196247E+02  0.10000000000E+01 0.  1.
    1000022    2    1    0    0    0  0.20396496494E+02 -0.52130764305E+02  0.25934829686E+02  0.62499992445E+02  0.10000000431E+02 0.  0.
    3000022    2    3    3    0    0 -0.14965334291E+00 -0.24336173620E+01 -0.60181345017E+00  0.25237961980E+01  0.24995646202E+00 0.  0.
    1000022    2    1    0    0    0 -0.20396496494E+02  0.52130764305E+02 -0.25934829686E+02  0.62500007555E+02  0.10000094862E+02 0.  0.
    3000022    2    5    5    0    0 -0.90298589891E+01  0.11858756573E+02 -0.84665807777E+01  0.17143918935E+02  0.25001114163E+00 0.  0.
        -13    1    4    4    0    0 -0.54890878243E-01 -0.97221188559E+00 -0.17630418281E+00  0.99514678509E+00  0.10500000000E+00 0. -1.
         13    1    4    4    0    0 -0.94762464665E-01 -0.14614054764E+01 -0.42550926736E+00  0.15286494130E+01  0.10500000000E+00 0.  1.
    3000001    1    5    5    0    0 -0.11366637505E+02  0.40272007732E+02 -0.17468248908E+02  0.45356088619E+02  0.10000000000E+01 0.  1.
        -13    1    6    6    0    0 -0.55387915000E+01  0.73692256054E+01 -0.52131455334E+01  0.10591109888E+02  0.10500000000E+00 0.  1.
         13    1    6    6    0    0 -0.34910674891E+01  0.44895309676E+01 -0.32534352443E+01  0.65528090474E+01  0.10500000000E+00 0. -1.
</event>
<event>
11    0  0.3448258E-009  0.9118800E+02  0.7816531E-02  0.1126479E+00
         25   -1    0    0    0    0  0.00000000000E+00  0.00000000000E+00  0.99999998245E-14  0.12500000000E+03  0.12500000000E+03 0.  0.
    3000001    1    3    3    0    0  0.31236871989E+01 -0.11822992324E+02 -0.99560318375E+01  0.15800732235E+02  0.10000000000E+01 0. -1.
    1000022    2    1    0    0    0  0.12317862573E+02 -0.55143949272E+02 -0.24772268730E+02  0.62499999330E+02  0.99999869286E+01 0.  0.
    3000022    2    3    3    0    0  0.91941753737E+01 -0.43320956948E+02 -0.14816236892E+02  0.46699267095E+02  0.24999976947E+00 0.  0.
    1000022    2    1    0    0    0 -0.12317862573E+02  0.55143949272E+02  0.24772268730E+02  0.62500000670E+02  0.99999953061E+01 0.  0.
    3000022    2    5    5    0    0 -0.64668556252E+01  0.10457819295E+02  0.50049131985E+01  0.13277720762E+02  0.25001288702E+00 0.  0.
        -13    1    4    4    0    0  0.36112722390E+01 -0.17090382784E+02 -0.57802317372E+01  0.18399580832E+02  0.10500000000E+00 0. -1.
         13    1    4    4    0    0  0.55829031347E+01 -0.26230574164E+02 -0.90360051550E+01  0.28299686263E+02  0.10500000000E+00 0.  1.
    3000001    1    5    5    0    0 -0.58510069474E+01  0.44686129977E+02  0.19767355531E+02  0.49222279908E+02  0.10000000000E+01 0.  1.
        -13    1    6    6    0    0 -0.16293400919E+01  0.26909678807E+01  0.12782235941E+01  0.33971955827E+01  0.10500000000E+00 0.  1.
         13    1    6    6    0    0 -0.48375155333E+01  0.77668514139E+01  0.37266896044E+01  0.98805251797E+01  0.10500000000E+00 0. -1.
</event>
<event>
11    0  0.3448258E-009  0.9118800E+02  0.7816531E-02  0.1126479E+00
         25   -1    0    0    0    0  0.00000000000E+00  0.00000000000E+00  0.99999998245E-14  0.12500000000E+03  0.12500000000E+03 0.  0.
    3000001    1    3    3    0    0  0.70536708752E+01 -0.32217162447E+02  0.50808918504E+02  0.60582555480E+02  0.10000000000E+01 0.  1.
    1000022    2    1    0    0    0  0.78646025213E+01 -0.33932945414E+02  0.50921050098E+02  0.62499999773E+02  0.99999935625E+01 0.  0.
    3000022    2    3    3    0    0  0.81093164605E+00 -0.17157829670E+01  0.11213159397E+00  0.19174442928E+01  0.24999559484E+00 0.  0.
    1000022    2    1    0    0    0 -0.78646025213E+01  0.33932945414E+02 -0.50921050098E+02  0.62500000227E+02  0.99999964010E+01 0.  0.
    3000022    2    5    5    0    0 -0.83895434791E+01  0.14583462363E+02 -0.22382939984E+02  0.28002148320E+02  0.24998781716E+00 0.  0.
        -13    1    4    4    0    0  0.36973835164E+00 -0.86200951726E+00  0.11412196644E+00  0.95069221083E+00  0.10500000000E+00 0.  1.
         13    1    4    4    0    0  0.44119329441E+00 -0.85377344971E+00 -0.19903724687E-02  0.96675208200E+00  0.10500000000E+00 0. -1.
    3000001    1    5    5    0    0  0.52494095783E+00  0.19349483050E+02 -0.28538110114E+02  0.34497851907E+02  0.10000000000E+01 0. -1.
        -13    1    6    6    0    0 -0.31980414237E+01  0.55199446281E+01 -0.83919842933E+01  0.10541996159E+02  0.10500000000E+00 0.  1.
         13    1    6    6    0    0 -0.51915020554E+01  0.90635177354E+01 -0.13990955691E+02  0.17460152160E+02  0.10500000000E+00 0. -1.
</event>
<event>
11    0  0.3448258E-009  0.9118800E+02  0.7816531E-02  0.1126479E+00
         25   -1    0    0    0    0  0.00000000000E+00  0.00000000000E+00  0.99999998245E-14  0.12500000000E+03  0.12500000000E+03 0.  0.
    3000001    1    3    3    0    0 -0.20673024142E+02  0.23759199800E+02  0.50301759429E+02  0.59356048588E+02  0.10000000000E+01 0.  1.
    1000022    2    1    0    0    0 -0.21084165518E+02  0.22870651133E+02  0.53278900797E+02  0.62500000005E+02  0.10000000581E+02 0.  0.
    3000022    2    3    3    0    0 -0.41114137616E+00 -0.88854866683E+00  0.29771413681E+01  0.31439514171E+01  0.25000764545E+00 0.  0.
    1000022    2    1    0    0    0  0.21084165518E+02 -0.22870651133E+02 -0.53278900797E+02  0.62499999995E+02  0.10000000520E+02 0.  0.
    3000022    2    5    5    0    0  0.33642928381E+01 -0.73976656488E+01 -0.76977564350E+01  0.11196511917E+02  0.25000326270E+00 0.  0.
        -13    1    4    4    0    0 -0.17060372053E+00 -0.32649899838E+00  0.13224674651E+01  0.13768269396E+01  0.10500000000E+00 0.  1.
         13    1    4    4    0    0 -0.24053765563E+00 -0.56204966845E+00  0.16546739030E+01  0.17671244774E+01  0.10500000000E+00 0. -1.
    3000001    1    5    5    0    0  0.17719872680E+02 -0.15472985484E+02 -0.45581144362E+02  0.51303488078E+02  0.10000000000E+01 0.  1.
        -13    1    6    6    0    0  0.21747531168E+01 -0.47498565919E+01 -0.50245153254E+01  0.72489632375E+01  0.10500000000E+00 0.  1.
         13    1    6    6    0    0  0.11895397212E+01 -0.26478090569E+01 -0.26732411096E+01  0.39475486799E+01  0.10500000000E+00 0. -1.
</event>
<event>
11    0  0.3448258E-009  0.9118800E+02  0.7816531E-02  0.1126479E+00
         25   -1    0    0    0    0  0.00000000000E+00  0.00000000000E+00  0.99999998245E-14  0.12500000000E+03  0.12500000000E+03 0.  0.
    3000001    1    3    3    0    0 -0.52411142900E+01  0.20195164059E+01  0.75205225509E+01  0.94395966520E+01  0.10000000000E+01 0.  1.
    1000022    2    1    0    0    0 -0.13606588263E+02  0.13213630931E+02  0.58706990260E+02  0.62499999317E+02  0.99999961340E+01 0.  0.
    3000022    2    3    3    0    0 -0.83654739731E+01  0.11194114526E+02  0.51186467709E+02  0.53060402665E+02  0.24999924553E+00 0.  0.
    1000022    2    1    0    0    0  0.13606588263E+02 -0.13213630931E+02 -0.58706990260E+02  0.62500000683E+02  0.10000004668E+02 0.  0.
    3000022    2    5    5    0    0 -0.11758632458E+01 -0.22104179211E+01 -0.12365247010E+02  0.12618654102E+02  0.24999197273E+00 0.  0.
        -13    1    4    4    0    0 -0.34744052913E+01  0.46993149581E+01  0.21624942827E+02  0.22400987266E+02  0.10500000000E+00 0.  1.
         13    1    4    4    0    0 -0.48910686818E+01  0.64947995675E+01  0.29561524882E+02  0.30659415399E+02  0.10500000000E+00 0. -1.
    3000001    1    5    5    0    0  0.14782451509E+02 -0.11003213010E+02 -0.46341743251E+02  0.49881346580E+02  0.10000000000E+01 0. -1.
        -13    1    6    6    0    0 -0.83793874377E+00 -0.15666370717E+01 -0.89653806136E+01  0.91403264493E+01  0.10500000000E+00 0. -1.
         13    1    6    6    0    0 -0.33792450202E+00 -0.64378084939E+00 -0.33998663960E+01  0.34783276530E+01  0.10500000000E+00 0.  1.
</event>
<event>
11    0  0.3448258E-009  0.9118800E+02  0.7816531E-02  0.1126479E+00
         25   -1    0    0    0    0  0.00000000000E+00  0.00000000000E+00  0.99999998245E-14  0.12500000000E+03  0.12500000000E+03 0.  0.
    3000001    1    3    3    0    0  0.15241576819E+02  0.44525045054E+02 -0.41334589155E+01  0.47253262148E+02  0.10000000000E+01 0. -1.
    1000022    2    1    0    0    0  0.14602627256E+02  0.59728974035E+02 -0.50460534252E+01  0.62500000828E+02  0.10000019315E+02 0.  0.
    3000022    2    3    3    0    0 -0.63894956296E+00  0.15203928981E+02 -0.91259450967E+00  0.15246738680E+02  0.24999729805E+00 0.  0.
    1000022    2    1    0    0    0 -0.14602627256E+02 -0.59728974035E+02  0.50460534252E+01  0.62499999172E+02  0.10000008964E+02 0.  0.
    3000022    2    5    5    0    0 -0.30544073953E+01 -0.22133603180E+02 -0.23537294111E+01  0.22468385694E+02  0.25003851467E+00 0.  0.
        -13    1    4    4    0    0 -0.42924367698E+00  0.10915231394E+02 -0.68279803497E+00  0.10945490609E+02  0.10500000000E+00 0.  1.
         13    1    4    4    0    0 -0.20970588598E+00  0.42886975867E+01 -0.22979647470E+00  0.43012480710E+01  0.10500000000E+00 0. -1.
    3000001    1    5    5    0    0 -0.11548219861E+02 -0.37595370855E+02  0.73997828363E+01  0.40031613478E+02  0.10000000000E+01 0. -1.
        -13    1    6    6    0    0 -0.16737627470E+01 -0.12009592686E+02 -0.13427080437E+01  0.12200233117E+02  0.10500000000E+00 0. -1.
         13    1    6    6    0    0 -0.13806446483E+01 -0.10124010494E+02 -0.10110213674E+01  0.10268152577E+02  0.10500000000E+00 0.  1.
</event>
<event>
11    0  0.3448258E-009  0.9118800E+02  0.7816531E-02  0.1126479E+00
         25   -1    0    0    0    0  0.00000000000E+00  0.00000000000E+00  0.99999998245E-14  0.12500000000E+03  0.12500000000E+03 0.  0.
    3000001    1    3    3    0    0 -0.37056983992E+01  0.20896356382E+01 -0.11420509812E+02  0.12228116048E+02  0.10000000000E+01 0. -1.
    1000022    2    1    0    0    0 -0.15983920844E+01  0.20115696406E+02 -0.58301414779E+02  0.62499990482E+02  0.99998872928E+01 0.  0.
    3000022    2    3    3    0    0  0.21073063148E+01  0.18026060768E+02 -0.46880904967E+02  0.50271874434E+02  0.25000368578E+00 0.  0.
    1000022    2    1    0    0    0  0.15983920844E+01 -0.20115696406E+02  0.58301414779E+02  0.62500009518E+02  0.10000006264E+02 0.  0.
    3000022    2    5    5    0    0 -0.89204334730E+00  0.89499554435E+00  0.44503074568E+01  0.46329791400E+01  0.25000178742E+00 0.  0.
        -13    1    4    4    0    0  0.10704424068E+01  0.88740889608E+01 -0.22924738534E+02  0.24605892865E+02  0.10500000000E+00 0.  1.
         13    1    4    4    0    0  0.10368639080E+01  0.91519718071E+01 -0.23956166434E+02  0.25665981569E+02  0.10500000000E+00 0. -1.
    3000001    1    5    5    0    0  0.24904354317E+01 -0.21010691950E+02  0.53851107322E+02  0.57867030378E+02  0.10000000000E+01 0.  1.
        -13    1    6    6    0    0 -0.69653789480E+00  0.68749636925E+00  0.34085590751E+01  0.35478326152E+01  0.10500000000E+00 0.  1.
         13    1    6    6    0    0 -0.19550545249E+00  0.20749917510E+00  0.10417483817E+01  0.10851465248E+01  0.10500000000E+00 0. -1.
</event>
<event>
11    0  0.3448258E-009  0.9118800E+02  0.7816531E-02  0.1126479E+00
         25   -1    0    0    0    0  0.00000000000E+00  0.00000000000E+00  0.99999998245E-14  0.12500000000E+03  0.12500000000E+03 0.  0.
    3000001    1    3    3    0    0 -0.68107067695E+01  0.27890124192E+02  0.66529101067E+01  0.29487386575E+02  0.10000000000E+01 0.  1.
    1000022    2    1    0    0    0 -0.23945196986E+02  0.55708227613E+02  0.11378571676E+02  0.62499990406E+02  0.99998912468E+01 0.  0.
    3000022    2    3    3    0    0 -0.17134490216E+02  0.27818103421E+02  0.47256615697E+01  0.33012603831E+02  0.25000308446E+00 0.  0.
    1000022    2    1    0    0    0  0.23945196986E+02 -0.55708227613E+02 -0.11378571676E+02  0.62500009594E+02  0.10000011167E+02 0.  0.
    3000022    2    5    5    0    0  0.23108135089E+02 -0.44596154385E+02 -0.10161224633E+02  0.51245642536E+02  0.24999931535E+00 0.  0.
        -13    1    4    4    0    0 -0.84279645919E+01  0.13801603995E+02  0.23118267176E+01  0.16336169311E+02  0.10500000000E+00 0. -1.
         13    1    4    4    0    0 -0.87065256243E+01  0.14016499426E+02  0.24138348521E+01  0.16676434520E+02  0.10500000000E+00 0.  1.
    3000001    1    5    5    0    0  0.83706189640E+00 -0.11112073228E+02 -0.12173470436E+01  0.11254367058E+02  0.10000000000E+01 0. -1.
        -13    1    6    6    0    0  0.16431802389E+02 -0.31766884206E+02 -0.72008830720E+01  0.36482911122E+02  0.10500000000E+00 0. -1.
         13    1    6    6    0    0  0.66763327000E+01 -0.12829270179E+02 -0.29603415608E+01  0.14762731414E+02  0.10500000000E+00 0.  1.
</event>
<event>
11    0  0.3448258E-009  0.9118800E+02  0.7816531E-02  0.1126479E+00
         25   -1    0    0    0    0  0.00000000000E+00  0.00000000000E+00  0.99999998245E-14  0.12500000000E+03  0.12500000000E+03 0.  0.
    3000001    1    3    3    0    0 -0.27098291173E+01 -0.18980330899E+02 -0.39566818196E+01  0.19602333175E+02  0.10000000000E+01 0.  1.
    1000022    2    1    0    0    0 -0.22396388571E+02 -0.55870774863E+02 -0.13531752056E+02  0.62500001491E+02  0.10000008396E+02 0.  0.
    3000022    2    3    3    0    0 -0.19686559453E+02 -0.36890443964E+02 -0.95750702363E+01  0.42897668317E+02  0.24999598103E+00 0.  0.
    1000022    2    1    0    0    0  0.22396388571E+02  0.55870774863E+02  0.13531752056E+02  0.62499998509E+02  0.99999897569E+01 0.  0.
    3000022    2    5    5    0    0  0.16633428779E+01  0.37322036947E+00  0.35142373394E-02  0.17229390464E+01  0.25000726813E+00 0.  0.
        -13    1    4    4    0    0 -0.97843154339E+01 -0.18473879372E+02 -0.48049602781E+01  0.21450308059E+02  0.10500000000E+00 0. -1.
         13    1    4    4    0    0 -0.99022440193E+01 -0.18416564592E+02 -0.47701099582E+01  0.21447360257E+02  0.10500000000E+00 0.  1.
    3000001    1    5    5    0    0  0.20733045693E+02  0.55497554493E+02  0.13528237819E+02  0.60777059462E+02  0.10000000000E+01 0.  1.
        -13    1    6    6    0    0  0.85220105361E+00  0.13915004760E+00  0.46698457041E-01  0.87109994686E+00  0.10500000000E+00 0. -1.
         13    1    6    6    0    0  0.81114182427E+00  0.23407032187E+00 -0.43184219701E-01  0.85183909954E+00  0.10500000000E+00 0. -1.
</event>
<event>
11    0  0.3448258E-009  0.9118800E+02  0.7816531E-02  0.1126479E+00
         25   -1    0    0    0    0  0.00000000000E+00  0.00000000000E+00  0.99999998245E-14  0.12500000000E+03  0.12500000000E+03 0.  0.
    3000001    1    3    3    0    0  0.24626765200E+02  0.14431933782E+02  0.25701499882E+01  0.28676888741E+02  0.10000000000E+01 0. -1.
    1000022    2    1    0    0    0  0.46979746240E+02  0.39752391692E+02  0.43475114669E+01  0.62500000134E+02  0.99999979450E+01 0.  0.
    3000022    2    3    3    0    0  0.22352981040E+02  0.25320457910E+02  0.17773614787E+01  0.33823111393E+02  0.25000077973E+00 0.  0.
    1000022    2    1    0    0    0 -0.46979746240E+02 -0.39752391692E+02 -0.43475114669E+01  0.62499999866E+02  0.99999962649E+01 0.  0.
    3000022    2    5    5    0    0 -0.12559841287E+02 -0.10196964598E+02  0.32119669584E+01  0.16495664834E+02  0.25005280747E+00 0.  0.
        -13    1    4    4    0    0  0.14706091071E+02  0.16574743561E+02  0.11696005795E+01  0.22189417054E+02  0.10500000000E+00 0.  1.
         13    1    4    4    0    0  0.76468899690E+01  0.87457143482E+01  0.60776089920E+00  0.11633694339E+02  0.10500000000E+00 0. -1.
    3000001    1    5    5    0    0 -0.34419904952E+02 -0.29555427093E+02 -0.75594784253E+01  0.46004335031E+02  0.10000000000E+01 0.  1.
        -13    1    6    6    0    0 -0.81165947863E+01 -0.65202448592E+01  0.20877241623E+01  0.10618960454E+02  0.10500000000E+00 0. -1.
         13    1    6    6    0    0 -0.44432465010E+01 -0.36767197389E+01  0.11242427960E+01  0.58767043801E+01  0.10500000000E+00 0.  1.
</event>
<event>
11    0  0.3448258E-009  0.9118800E+02  0.7816531E-02  0.1126479E+00
         25   -1    0    0    0    0  0.00000000000E+00  0.00000000000E+00  0.99999998245E-14  0.12500000000E+03  0.12500000000E+03 0.  0.
    3000001    1    3    3    0    0 -0.15694806874E+02  0.12368824699E+02 -0.33369341644E+02  0.38907939409E+02  0.10000000000E+01 0.  1.
    1000022    2    1    0    0    0 -0.22985027879E+02  0.12813721913E+02 -0.55800961328E+02  0.62499999924E+02  0.99999864754E+01 0.  0.
    3000022    2    3    3    0    0 -0.72902210050E+01  0.44489721427E+00 -0.22431619683E+02  0.23592060515E+02  0.25000380518E+00 0.  0.
    1000022    2    1    0    0    0  0.22985027879E+02 -0.12813721913E+02  0.55800961328E+02  0.62500000076E+02  0.99999874289E+01 0.  0.
    3000022    2    5    5    0    0  0.38027036878E+01  0.44778154918E+00  0.33654459559E+01  0.51038999669E+01  0.25000947525E+00 0.  0.
        -13    1    4    4    0    0 -0.29236631115E+01  0.19044739742E+00 -0.92010080862E+01  0.96567929978E+01  0.10500000000E+00 0.  1.
         13    1    4    4    0    0 -0.43665578935E+01  0.25444981685E+00 -0.13230611597E+02  0.13935267517E+02  0.10500000000E+00 0. -1.
    3000001    1    5    5    0    0  0.19182324191E+02 -0.13261503462E+02  0.52435515372E+02  0.57396100109E+02  0.10000000000E+01 0.  1.
        -13    1    6    6    0    0  0.27700278262E+01  0.29095531759E+00  0.24278183342E+01  0.36963544228E+01  0.10500000000E+00 0.  1.
         13    1    6    6    0    0  0.10326758615E+01  0.15682623159E+00  0.93762762163E+00  0.14075455441E+01  0.10500000000E+00 0. -1.
</event>
<event>
11    0  0.3448258E-009  0.9118800E+02  0.7816531E-02  0.1126479E+00
         25   -1    0    0    0    0  0.00000000000E+00  0.00000000000E+00  0.99999998245E-14  0.12500000000E+03  0.12500000000E+03 0.  0.
    3000001    1    3    3    0    0  0.19342334358E+02 -0.87344988294E+01 -0.98585355945E+01  0.23422384428E+02  0.10000000000E+01 0. -1.
    1000022    2    1    0    0    0  0.44332381005E+02 -0.22224786483E+02 -0.36700798777E+02  0.62499997986E+02  0.99999988758E+01 0.  0.
    3000022    2    3    3    0    0  0.24990046647E+02 -0.13490287653E+02 -0.26842263182E+02  0.39077613557E+02  0.24999239144E+00 0.  0.
    1000022    2    1    0    0    0 -0.44332381005E+02  0.22224786483E+02  0.36700798777E+02  0.62500002014E+02  0.10000024056E+02 0.  0.
    3000022    2    5    5    0    0 -0.18527571716E+02  0.41749056344E+01  0.15613176762E+02  0.24587284051E+02  0.24999533376E+00 0.  0.
        -13    1    4    4    0    0  0.10920998294E+02 -0.58321298163E+01 -0.11653721359E+02  0.17003005277E+02  0.10500000000E+00 0.  1.
         13    1    4    4    0    0  0.14069048353E+02 -0.76581578371E+01 -0.15188541824E+02  0.22074608280E+02  0.10500000000E+00 0. -1.
    3000001    1    5    5    0    0 -0.25804809289E+02  0.18049880848E+02  0.21087622015E+02  0.37912717963E+02  0.10000000000E+01 0. -1.
        -13    1    6    6    0    0 -0.13501888563E+02  0.30796389987E+01  0.11382891531E+02  0.17926695617E+02  0.10500000000E+00 0. -1.
         13    1    6    6    0    0 -0.50256831529E+01  0.10952666357E+01  0.42302852318E+01  0.66605884349E+01  0.10500000000E+00 0.  1.
</event>
<event>
11    0  0.3448258E-009  0.9118800E+02  0.7816531E-02  0.1126479E+00
         25   -1    0    0    0    0  0.00000000000E+00  0.00000000000E+00  0.99999998245E-14  0.12500000000E+03  0.12500000000E+03 0.  0.
    3000001    1    3    3    0    0 -0.20855028564E+01  0.10995414212E+02  0.55897715847E+02  0.57015814410E+02  0.10000000000E+01 0. -1.
    1000022    2    1    0    0    0 -0.76555868038E+00  0.93997481246E+01  0.60969735824E+02  0.62499999727E+02  0.99999967223E+01 0.  0.
    3000022    2    3    3    0    0  0.13199441761E+01 -0.15956660876E+01  0.50720199771E+01  0.54841853170E+01  0.24999810377E+00 0.  0.
    1000022    2    1    0    0    0  0.76555868038E+00 -0.93997481246E+01 -0.60969735824E+02  0.62500000273E+02  0.10000000137E+02 0.  0.
    3000022    2    5    5    0    0  0.14527998893E+01 -0.45667341371E+01 -0.52146964094E+02  0.52367299464E+02  0.25000143780E+00 0.  0.
        -13    1    4    4    0    0  0.94000374435E+00 -0.10634585186E+01  0.35088752681E+01  0.37865263379E+01  0.10500000000E+00 0. -1.
         13    1    4    4    0    0  0.37994043170E+00 -0.53220756899E+00  0.15631447090E+01  0.16976589791E+01  0.10500000000E+00 0.  1.
    3000001    1    5    5    0    0 -0.68724120897E+00 -0.48330139874E+01 -0.88227717302E+01  0.10132700809E+02  0.10000000000E+01 0.  1.
        -13    1    6    6    0    0  0.73172199841E+00 -0.21333011046E+01 -0.24052416877E+02  0.24158149211E+02  0.10500000000E+00 0. -1.
         13    1    6    6    0    0  0.72107789094E+00 -0.24334330326E+01 -0.28094547217E+02  0.28209150253E+02  0.10500000000E+00 0.  1.
</event>
<event>
11    0  0.3448258E-009  0.9118800E+02  0.7816531E-02  0.1126479E+00
         25   -1    0    0    0    0  0.00000000000E+00  0.00000000000E+00  0.99999998245E-14  0.12500000000E+03  0.12500000000E+03 0.  0.
    3000001    1    3    3    0    0  0.71251496376E+01  0.16563779322E+01  0.10859015833E+02  0.13131244041E+02  0.10000000000E+01 0.  1.
    1000022    2    1    0    0    0  0.26210480461E+02 -0.90482573581E+01  0.55112515910E+02  0.62499997844E+02  0.10000003669E+02 0.  0.
    3000022    2    3    3    0    0  0.19085330823E+02 -0.10704635290E+02  0.44253500078E+02  0.49368753803E+02  0.25002728764E+00 0.  0.
    1000022    2    1    0    0    0 -0.26210480461E+02  0.90482573581E+01 -0.55112515910E+02  0.62500002156E+02  0.10000030614E+02 0.  0.
    3000022    2    5    5    0    0 -0.13186140267E+02  0.32106113693E+01 -0.37044387225E+02  0.39452902070E+02  0.25007268639E+00 0.  0.
        -13    1    4    4    0    0  0.12635001686E+02 -0.70266842120E+01  0.29271923093E+02  0.32647726800E+02  0.10500000000E+00 0. -1.
         13    1    4    4    0    0  0.64503291376E+01 -0.36779510783E+01  0.14981576985E+02  0.16721027004E+02  0.10500000000E+00 0.  1.
    3000001    1    5    5    0    0 -0.13024340194E+02  0.58376459888E+01 -0.18068128685E+02  0.23047100085E+02  0.10000000000E+01 0. -1.
        -13    1    6    6    0    0 -0.91464026500E+01  0.22111778946E+01 -0.25551600589E+02  0.27229419876E+02  0.10500000000E+00 0. -1.
         13    1    6    6    0    0 -0.40397376172E+01  0.99943347464E+00 -0.11492786636E+02  0.12223482194E+02  0.10500000000E+00 0.  1.
</event>
<event>
11    0  0.3448258E-009  0.9118800E+02  0.7816531E-02  0.1126479E+00
         25   -1    0    0    0    0  0.00000000000E+00  0.00000000000E+00  0.99999998245E-14  0.12500000000E+03  0.12500000000E+03 0.  0.
    3000001    1    3    3    0    0  0.70605518220E+01 -0.18352646120E+02  0.54468795220E+00  0.19696895608E+02  0.10000000000E+01 0. -1.
    1000022    2    1    0    0    0  0.23490123459E+02 -0.55661837472E+02 -0.12498955993E+02  0.62499999798E+02  0.10000001143E+02 0.  0.
    3000022    2    3    3    0    0  0.16429571637E+02 -0.37309191353E+02 -0.13043643945E+02  0.42803104190E+02  0.24999465800E+00 0.  0.
    1000022    2    1    0    0    0 -0.23490123459E+02  0.55661837472E+02  0.12498955993E+02  0.62500000202E+02  0.10000003673E+02 0.  0.
    3000022    2    5    5    0    0 -0.66236035585E+01  0.67328959182E+01  0.12838717146E+01  0.95349274606E+01  0.25000710961E+00 0.  0.
        -13    1    4    4    0    0  0.92674209830E+01 -0.21188756192E+02 -0.73670818499E+01  0.24272070381E+02  0.10500000000E+00 0. -1.
         13    1    4    4    0    0  0.71621506542E+01 -0.16120435161E+02 -0.56765620949E+01  0.18531033808E+02  0.10500000000E+00 0.  1.
    3000001    1    5    5    0    0 -0.16866519901E+02  0.48928941554E+02  0.11215084278E+02  0.52965072742E+02  0.10000000000E+01 0. -1.
        -13    1    6    6    0    0 -0.45313491494E+01  0.45389962655E+01  0.89139755065E+00  0.64762046605E+01  0.10500000000E+00 0. -1.
         13    1    6    6    0    0 -0.20922544091E+01  0.21938996527E+01  0.39247416394E+00  0.30587228001E+01  0.10500000000E+00 0.  1.
</event>
<event>
11    0  0.3448258E-009  0.9118800E+02  0.7816531E-02  0.1126479E+00
         25   -1    0    0    0    0  0.00000000000E+00  0.00000000000E+00  0.99999998245E-14  0.12500000000E+03  0.12500000000E+03 0.  0.
    3000001    1    3    3    0    0  0.24438707780E+02  0.20819499183E+02  0.14221496055E+02  0.35127666222E+02  0.10000000000E+01 0. -1.
    1000022    2    1    0    0    0  0.36449356214E+02  0.42069717373E+02  0.26605140716E+02  0.62499999184E+02  0.99999848607E+01 0.  0.
    3000022    2    3    3    0    0  0.12010648435E+02  0.21250218190E+02  0.12383644661E+02  0.27372332962E+02  0.25001549711E+00 0.  0.
    1000022    2    1    0    0    0 -0.36449356214E+02 -0.42069717373E+02 -0.26605140716E+02  0.62500000816E+02  0.99999950638E+01 0.  0.
    3000022    2    5    5    0    0 -0.20028422316E+02 -0.30274323958E+02 -0.16489424860E+02  0.39870239811E+02  0.24999754732E+00 0.  0.
        -13    1    4    4    0    0  0.64693383668E+01  0.11487729751E+02  0.67602254155E+01  0.14816610490E+02  0.10500000000E+00 0. -1.
         13    1    4    4    0    0  0.55413100677E+01  0.97624884389E+01  0.56234192456E+01  0.12555722472E+02  0.10500000000E+00 0.  1.
    3000001    1    5    5    0    0 -0.16420933898E+02 -0.11795393415E+02 -0.10115715856E+02  0.22629761005E+02  0.10000000000E+01 0.  1.
        -13    1    6    6    0    0 -0.12443777243E+02 -0.18752144562E+02 -0.10166097527E+02  0.24695163123E+02  0.10500000000E+00 0.  1.
         13    1    6    6    0    0 -0.75846450732E+01 -0.11522179396E+02 -0.63233273336E+01  0.15175076688E+02  0.10500000000E+00 0. -1.
</event>
<event>
11    0  0.3448258E-009  0.9118800E+02  0.7816531E-02  0.1126479E+00
         25   -1    0    0    0    0  0.00000000000E+00  0.00000000000E+00  0.99999998245E-14  0.12500000000E+03  0.12500000000E+03 0.  0.
    3000001    1    3    3    0    0  0.28190685159E+00 -0.17644721658E+00 -0.45429167621E+00  0.11476001134E+01  0.10000000000E+01 0. -1.
    1000022    2    1    0    0    0  0.48486784909E+02 -0.38100633498E+02 -0.19035197892E+01  0.62499999756E+02  0.99999999064E+01 0.  0.
    3000022    2    3    3    0    0  0.48204878058E+02 -0.37924186282E+02 -0.14492281130E+01  0.61352399643E+02  0.25001223815E+00 0.  0.
    1000022    2    1    0    0    0 -0.48486784909E+02  0.38100633498E+02  0.19035197892E+01  0.62500000244E+02  0.10000002954E+02 0.  0.
    3000022    2    5    5    0    0 -0.18394019485E+02  0.10275503581E+02 -0.27055437285E+01  0.21244020649E+02  0.25003963828E+00 0.  0.
        -13    1    4    4    0    0  0.35404178377E+02 -0.27874677667E+02 -0.10349769736E+01  0.45072560432E+02  0.10500000000E+00 0.  1.
         13    1    4    4    0    0  0.12800699681E+02 -0.10049508615E+02 -0.41425113942E+00  0.16279839211E+02  0.10500000000E+00 0. -1.
    3000001    1    5    5    0    0 -0.30092765424E+02  0.27825129917E+02  0.46090635177E+01  0.41255979594E+02  0.10000000000E+01 0. -1.
        -13    1    6    6    0    0 -0.11727728105E+02  0.66056399813E+01 -0.16939282420E+01  0.13566668860E+02  0.10500000000E+00 0. -1.
         13    1    6    6    0    0 -0.66662913797E+01  0.36698635995E+01 -0.10116154865E+01  0.76773517889E+01  0.10500000000E+00 0.  1.
</event>
<event>
11    0  0.3448258E-009  0.9118800E+02  0.7816531E-02  0.1126479E+00
         25   -1    0    0    0    0  0.00000000000E+00  0.00000000000E+00  0.99999998245E-14  0.12500000000E+03  0.12500000000E+03 0.  0.
    3000001    1    3    3    0    0  0.16804149803E+01 -0.22700292208E+01 -0.24591551184E+01  0.38761154608E+01  0.10000000000E+01 0. -1.
    1000022    2    1    0    0    0  0.44715822345E+02 -0.57640385456E+01 -0.42113194615E+02  0.62499999139E+02  0.99999911649E+01 0.  0.
    3000022    2    3    3    0    0  0.43035407365E+02 -0.34940093249E+01 -0.39654039497E+02  0.58623883678E+02  0.25000172300E+00 0.  0.
    1000022    2    1    0    0    0 -0.44715822345E+02  0.57640385456E+01  0.42113194615E+02  0.62500000861E+02  0.10000001932E+02 0.  0.
    3000022    2    5    5    0    0 -0.26047511069E+02 -0.13584472039E+01  0.25771364639E+02  0.36668023466E+02  0.24999580625E+00 0.  0.
        -13    1    4    4    0    0  0.10956230220E+02 -0.90294943245E+00 -0.10131527566E+02  0.14950356990E+02  0.10500000000E+00 0. -1.
         13    1    4    4    0    0  0.32079177144E+02 -0.25910598924E+01 -0.29522511931E+02  0.43673526688E+02  0.10500000000E+00 0.  1.
    3000001    1    5    5    0    0 -0.18668311276E+02  0.71224857495E+01  0.16341829976E+02  0.25831977395E+02  0.10000000000E+01 0.  1.
        -13    1    6    6    0    0 -0.12496718394E+02 -0.59604614591E+00  0.12307324601E+02  0.17550057136E+02  0.10500000000E+00 0. -1.
         13    1    6    6    0    0 -0.13550792675E+02 -0.76240105801E+00  0.13464040038E+02  0.19117966331E+02  0.10500000000E+00 0.  1.
</event>
<event>
11    0  0.3448258E-009  0.9118800E+02  0.7816531E-02  0.1126479E+00
         25   -1    0    0    0    0  0.00000000000E+00  0.00000000000E+00  0.99999998245E-14  0.12500000000E+03  0.12500000000E+03 0.  0.
    3000001    1    3    3    0    0 -0.67648013852E+01 -0.17057152035E+02 -0.13584137430E+02  0.22852522028E+02  0.10000000000E+01 0.  1.
    1000022    2    1    0    0    0 -0.19953428448E+02 -0.36717539718E+02 -0.45386483479E+02  0.62499999118E+02  0.99999988684E+01 0.  0.
    3000022    2    3    3    0    0 -0.13188627062E+02 -0.19660387683E+02 -0.31802346049E+02  0.39647477090E+02  0.24999541790E+00 0.  0.
    1000022    2    1    0    0    0  0.19953428448E+02  0.36717539718E+02  0.45386483479E+02  0.62500000882E+02  0.10000009897E+02 0.  0.
    3000022    2    5    5    0    0  0.52679744467E+00  0.44557089204E+01  0.93176167809E+01  0.10344628547E+02  0.24999954372E+00 0.  0.
        -13    1    4    4    0    0 -0.35100421898E+01 -0.52636027279E+01 -0.84489244645E+01  0.10555626910E+02  0.10500000000E+00 0.  1.
         13    1    4    4    0    0 -0.96785848726E+01 -0.14396784955E+02 -0.23353421585E+02  0.29091850180E+02  0.10500000000E+00 0. -1.
    3000001    1    5    5    0    0  0.19426631003E+02  0.32261830797E+02  0.36068866698E+02  0.52155372335E+02  0.10000000000E+01 0.  1.
        -13    1    6    6    0    0  0.26085489860E+00  0.20614881208E+01  0.41665007824E+01  0.46570948369E+01  0.10500000000E+00 0.  1.
         13    1    6    6    0    0  0.26594254607E+00  0.23942207995E+01  0.51511159986E+01  0.56875337103E+01  0.10500000000E+00 0. -1.
</event>
<event>
11    0  0.3448258E-009  0.9118800E+02  0.7816531E-02  0.1126479E+00
         25   -1    0    0    0    0  0.00000000000E+00  0.00000000000E+00  0.99999998245E-14  0.12500000000E+03  0.12500000000E+03 0.  0.
    3000001    1    3    3    0    0  0.21202909296E+02  0.74695410626E+01 -0.72464711775E+01  0.23640405048E+02  0.10000000000E+01 0.  1.
    1000022    2    1    0    0    0  0.48749363595E+02  0.27668335792E+02 -0.25772321592E+02  0.62499999976E+02  0.10000009016E+02 0.  0.
    3000022    2    3    3    0    0  0.27546454299E+02  0.20198794730E+02 -0.18525850415E+02  0.38859594928E+02  0.25006282666E+00 0.  0.
    1000022    2    1    0    0    0 -0.48749363595E+02 -0.27668335792E+02  0.25772321592E+02  0.62500000024E+02  0.10000009315E+02 0.  0.
    3000022    2    5    5    0    0 -0.11360350564E+02 -0.11548112176E+02  0.68258441967E+01  0.17580417317E+02  0.24992852905E+00 0.  0.
        -13    1    4    4    0    0  0.19402838263E+02  0.14234027416E+02 -0.13101365561E+02  0.27399534188E+02  0.10500000000E+00 0.  1.
         13    1    4    4    0    0  0.81436160358E+01  0.59647673133E+01 -0.54244848540E+01  0.11460060740E+02  0.10500000000E+00 0. -1.
    3000001    1    5    5    0    0 -0.37389013031E+02 -0.16120223616E+02  0.18946477396E+02  0.44919582707E+02  0.10000000000E+01 0. -1.
        -13    1    6    6    0    0 -0.56596833415E+01 -0.57041100704E+01  0.34491703474E+01  0.87450950999E+01  0.10500000000E+00 0.  1.
         13    1    6    6    0    0 -0.57006672222E+01 -0.58440021058E+01  0.33766738493E+01  0.88353222168E+01  0.10500000000E+00 0. -1.
</event>
<event>
11    0  0.3448258E-009  0.9118800E+02  0.7816531E-02  0.1126479E+00
         25   -1    0    0    0    0  0.00000000000E+00  0.00000000000E+00  0.99999998245E-14  0.12500000000E+03  0.12500000000E+03 0.  0.
    3000001    1    3    3    0    0  0.10817992076E+02  0.15531992381E+01 -0.37925330799E+02  0.39481287931E+02  0.10000000000E+01 0.  1.
    1000022    2    1    0    0    0  0.11513832221E+02 -0.25934470372E+01 -0.60555392576E+02  0.62499999135E+02  0.10000001092E+02 0.  0.
    3000022    2    3    3    0    0  0.69584014553E+00 -0.41466462752E+01 -0.22630061777E+02  0.23018711204E+02  0.25000126557E+00 0.  0.
    1000022    2    1    0    0    0 -0.11513832221E+02  0.25934470372E+01  0.60555392576E+02  0.62500000865E+02  0.10000011903E+02 0.  0.
    3000022    2    5    5    0    0 -0.11737224003E+01  0.73457177044E+00  0.45306516837E+00  0.14781765047E+01  0.25003554445E+00 0.  0.
        -13    1    4    4    0    0  0.36659197295E+00 -0.19000336512E+01 -0.10676161979E+02  0.10850621049E+02  0.10500000000E+00 0.  1.
         13    1    4    4    0    0  0.32924817258E+00 -0.22466126240E+01 -0.11953899799E+02  0.12168090156E+02  0.10500000000E+00 0. -1.
    3000001    1    5    5    0    0 -0.10340109821E+02  0.18588752667E+01  0.60102327408E+02  0.61021824360E+02  0.10000000000E+01 0. -1.
        -13    1    6    6    0    0 -0.39597288074E+00  0.26465563612E+00  0.21481267513E+00  0.53292270866E+00  0.10500000000E+00 0.  1.
         13    1    6    6    0    0 -0.77774951953E+00  0.46991613433E+00  0.23825249324E+00  0.94525379606E+00  0.10500000000E+00 0. -1.
</event>
<event>
11    0  0.3448258E-009  0.9118800E+02  0.7816531E-02  0.1126479E+00
         25   -1    0    0    0    0  0.00000000000E+00  0.00000000000E+00  0.99999998245E-14  0.12500000000E+03  0.12500000000E+03 0.  0.
    3000001    1    3    3    0    0 -0.18652992450E+02  0.34126037775E+02  0.37277348075E+02  0.53880620459E+02  0.10000000000E+01 0.  1.
    1000022    2    1    0    0    0 -0.18174385667E+02  0.41200172740E+02  0.42172113505E+02  0.62499997587E+02  0.10000000636E+02 0.  0.
    3000022    2    3    3    0    0  0.47860678273E+00  0.70741349650E+01  0.48947654299E+01  0.86193771279E+01  0.24996700594E+00 0.  0.
    1000022    2    1    0    0    0  0.18174385667E+02 -0.41200172740E+02 -0.42172113505E+02  0.62500002413E+02  0.10000030794E+02 0.  0.
    3000022    2    5    5    0    0  0.19640274930E+01 -0.31514551983E+00 -0.29177976471E+01  0.35401645869E+01  0.25000300221E+00 0.  0.
        -13    1    4    4    0    0  0.18526779087E+00  0.37300499336E+01  0.25878430386E+01  0.45448380888E+01  0.10500000000E+00 0.  1.
         13    1    4    4    0    0  0.29333899186E+00  0.33440850314E+01  0.23069223913E+01  0.40745390391E+01  0.10500000000E+00 0. -1.
    3000001    1    5    5    0    0  0.16210358174E+02 -0.40885027220E+02 -0.39254315858E+02  0.58959837826E+02  0.10000000000E+01 0.  1.
        -13    1    6    6    0    0  0.97416223722E+00 -0.15417261107E+00 -0.13272279789E+01  0.16569008318E+01  0.10500000000E+00 0.  1.
         13    1    6    6    0    0  0.98986525577E+00 -0.16097290876E+00 -0.15905696682E+01  0.18832637551E+01  0.10500000000E+00 0. -1.
</event>
<event>
11    0  0.3448258E-009  0.9118800E+02  0.7816531E-02  0.1126479E+00
         25   -1    0    0    0    0  0.00000000000E+00  0.00000000000E+00  0.99999998245E-14  0.12500000000E+03  0.12500000000E+03 0.  0.
    3000001    1    3    3    0    0  0.54697263199E+02  0.78660440187E+01  0.55687697937E+01  0.55548865397E+02  0.10000000000E+01 0. -1.
    1000022    2    1    0    0    0  0.60989646799E+02  0.55897040064E+01  0.74342418272E+01  0.62500001894E+02  0.10000023882E+02 0.  0.
    3000022    2    3    3    0    0  0.62923836000E+01 -0.22763400123E+01  0.18654720334E+01  0.69511364961E+01  0.24999491873E+00 0.  0.
    1000022    2    1    0    0    0 -0.60989646799E+02 -0.55897040064E+01 -0.74342418272E+01  0.62499998106E+02  0.10000000213E+02 0.  0.
    3000022    2    5    5    0    0 -0.41134371748E+02  0.32208753253E+00 -0.26947201695E+01  0.41224559402E+02  0.25000318549E+00 0.  0.
        -13    1    4    4    0    0  0.23946497551E+01 -0.88831657097E+00  0.77193002808E+00  0.26702724108E+01  0.10500000000E+00 0.  1.
         13    1    4    4    0    0  0.38977338449E+01 -0.13880234413E+01  0.10935420054E+01  0.42808640853E+01  0.10500000000E+00 0. -1.
    3000001    1    5    5    0    0 -0.19855275050E+02 -0.59117915390E+01 -0.47395216577E+01  0.21275438704E+02  0.10000000000E+01 0.  1.
        -13    1    6    6    0    0 -0.28770859366E+02  0.26017619247E+00 -0.18547740683E+01  0.28831948463E+02  0.10500000000E+00 0.  1.
         13    1    6    6    0    0 -0.12363512383E+02  0.61911340065E-01 -0.83994610111E+00  0.12392610940E+02  0.10500000000E+00 0. -1.
</event>
<event>
11    0  0.3448258E-009  0.9118800E+02  0.7816531E-02  0.1126479E+00
         25   -1    0    0    0    0  0.00000000000E+00  0.00000000000E+00  0.99999998245E-14  0.12500000000E+03  0.12500000000E+03 0.  0.
    3000001    1    3    3    0    0 -0.47385915370E+01  0.66387939739E+00 -0.10472447205E+01  0.49991706425E+01  0.10000000000E+01 0.  1.
    1000022    2    1    0    0    0 -0.52683921696E+02 -0.20455741950E+02 -0.24743034681E+02  0.62500005831E+02  0.99999989838E+01 0.  0.
    3000022    2    3    3    0    0 -0.47945330159E+02 -0.21119621347E+02 -0.23695789960E+02  0.57500835188E+02  0.24999125240E+00 0.  0.
    1000022    2    1    0    0    0  0.52683921696E+02  0.20455741950E+02  0.24743034681E+02  0.62499994169E+02  0.99999260957E+01 0.  0.
    3000022    2    5    5    0    0  0.12382193749E+00 -0.31891697723E+00  0.11907387256E+01  0.12638840303E+01  0.25000843731E+00 0.  0.
        -13    1    4    4    0    0 -0.29076975041E+02 -0.12874375103E+02 -0.14398831292E+02  0.34907841230E+02  0.10500000000E+00 0. -1.
         13    1    4    4    0    0 -0.18868355119E+02 -0.82452462438E+01 -0.92969586686E+01  0.22592993958E+02  0.10500000000E+00 0.  1.
    3000001    1    5    5    0    0  0.52560099759E+02  0.20774658927E+02  0.23552295955E+02  0.61236110139E+02  0.10000000000E+01 0. -1.
        -13    1    6    6    0    0  0.11499001131E-01 -0.15927173785E+00  0.69602849307E+00  0.72178970391E+00  0.10500000000E+00 0. -1.
         13    1    6    6    0    0  0.11232293636E+00 -0.15964523938E+00  0.49471023256E+00  0.54209432637E+00  0.10500000000E+00 0.  1.
</event>
<event>
11    0  0.3448258E-009  0.9118800E+02  0.7816531E-02  0.1126479E+00
         25   -1    0    0    0    0  0.00000000000E+00  0.00000000000E+00  0.99999998245E-14  0.12500000000E+03  0.12500000000E+03 0.  0.
    3000001    1    3    3    0    0  0.85142087667E+01 -0.15885945110E+02 -0.40285326442E+01  0.18495515084E+02  0.10000000000E+01 0.  1.
    1000022    2    1    0    0    0  0.25287335468E+02 -0.49034986097E+02 -0.27611058664E+02  0.62500000551E+02  0.10000015585E+02 0.  0.
    3000022    2    3    3    0    0  0.16773126701E+02 -0.33149040987E+02 -0.23582526020E+02  0.44004485467E+02  0.25002004570E+00 0.  0.
    1000022    2    1    0    0    0 -0.25287335468E+02  0.49034986097E+02  0.27611058664E+02  0.62499999449E+02  0.10000008701E+02 0.  0.
    3000022    2    5    5    0    0 -0.18097856201E+02  0.38475765096E+02  0.25305349562E+02  0.49480703972E+02  0.24990047634E+00 0.  0.
        -13    1    4    4    0    0  0.12000630390E+02 -0.23780554200E+02 -0.16873979784E+02  0.31532080593E+02  0.10500000000E+00 0.  1.
         13    1    4    4    0    0  0.47724963112E+01 -0.93684867877E+01 -0.67085462358E+01  0.12472404874E+02  0.10500000000E+00 0. -1.
    3000001    1    5    5    0    0 -0.71894792671E+01  0.10559221001E+02  0.23057091019E+01  0.13019295478E+02  0.10000000000E+01 0. -1.
        -13    1    6    6    0    0 -0.93554984710E+01  0.19907548262E+02  0.13012806569E+02  0.25557386197E+02  0.10500000000E+00 0. -1.
         13    1    6    6    0    0 -0.87423577297E+01  0.18568216834E+02  0.12292542993E+02  0.23923317774E+02  0.10500000000E+00 0.  1.
</event>
<event>
11    0  0.3448258E-009  0.9118800E+02  0.7816531E-02  0.1126479E+00
         25   -1    0    0    0    0  0.00000000000E+00  0.00000000000E+00  0.99999998245E-14  0.12500000000E+03  0.12500000000E+03 0.  0.
    3000001    1    3    3    0    0  0.19289875587E+01 -0.81279729592E+01 -0.11387670314E+02  0.14158530030E+02  0.10000000000E+01 0.  1.
    1000022    2    1    0    0    0 -0.93018202992E+01 -0.33100215354E+02 -0.51225985959E+02  0.62500001120E+02  0.10000019253E+02 0.  0.
    3000022    2    3    3    0    0 -0.11230807858E+02 -0.24972242395E+02 -0.39838315645E+02  0.48341471089E+02  0.24999653940E+00 0.  0.
    1000022    2    1    0    0    0  0.93018202992E+01  0.33100215354E+02  0.51225985959E+02  0.62499998880E+02  0.10000005259E+02 0.  0.
    3000022    2    5    5    0    0  0.99072272352E+01  0.18688374282E+02  0.27180795713E+02  0.34442221801E+02  0.25000442557E+00 0.  0.
        -13    1    4    4    0    0 -0.58644231804E+01 -0.12879652107E+02 -0.20561116916E+02  0.24960918482E+02  0.10500000000E+00 0. -1.
         13    1    4    4    0    0 -0.53663846775E+01 -0.12092590288E+02 -0.19277198729E+02  0.23380552608E+02  0.10500000000E+00 0.  1.
    3000001    1    5    5    0    0 -0.60540693596E+00  0.14411841073E+02  0.24045190246E+02  0.28057777079E+02  0.10000000000E+01 0. -1.
        -13    1    6    6    0    0  0.59353334281E+01  0.11066373295E+02  0.16167245319E+02  0.20471532600E+02  0.10500000000E+00 0. -1.
         13    1    6    6    0    0  0.39718938071E+01  0.76220009868E+01  0.11013550395E+02  0.13970689201E+02  0.10500000000E+00 0.  1.
</event>
<event>
11    0  0.3448258E-009  0.9118800E+02  0.7816531E-02  0.1126479E+00
         25   -1    0    0    0    0  0.00000000000E+00  0.00000000000E+00  0.99999998245E-14  0.12500000000E+03  0.12500000000E+03 0.  0.
    3000001    1    3    3    0    0 -0.16663402321E+01  0.53216253001E+01 -0.28138710911E+01  0.63256822652E+01  0.10000000000E+01 0.  1.
    1000022    2    1    0    0    0 -0.39497407226E+02  0.45587406804E+02 -0.12961218892E+02  0.62499999853E+02  0.99999974861E+01 0.  0.
    3000022    2    3    3    0    0 -0.37831066994E+02  0.40265781504E+02 -0.10147347801E+02  0.56174317588E+02  0.24999799315E+00 0.  0.
    1000022    2    1    0    0    0  0.39497407226E+02 -0.45587406804E+02  0.12961218892E+02  0.62500000147E+02  0.99999993255E+01 0.  0.
    3000022    2    5    5    0    0  0.25805399882E+00 -0.15159726566E+00  0.12713441004E+01  0.13298047677E+01  0.24998260181E+00 0.  0.
        -13    1    4    4    0    0 -0.17217430069E+02  0.18401328576E+02 -0.46712929267E+01  0.25629685799E+02  0.10500000000E+00 0. -1.
         13    1    4    4    0    0 -0.20613636925E+02  0.21864452928E+02 -0.54760548738E+01  0.30544631789E+02  0.10500000000E+00 0.  1.
    3000001    1    5    5    0    0  0.39239353227E+02 -0.45435809539E+02  0.11689874791E+02  0.61170195379E+02  0.10000000000E+01 0. -1.
        -13    1    6    6    0    0  0.20430377150E+00 -0.65373712811E-01  0.68161691499E+00  0.72224675297E+00  0.10500000000E+00 0.  1.
         13    1    6    6    0    0  0.53750227322E-01 -0.86223552849E-01  0.58972718543E+00  0.60755801471E+00  0.10500000000E+00 0. -1.
</event>
<event>
11    0  0.3448258E-009  0.9118800E+02  0.7816531E-02  0.1126479E+00
         25   -1    0    0    0    0  0.00000000000E+00  0.00000000000E+00  0.99999998245E-14  0.12500000000E+03  0.12500000000E+03 0.  0.
    3000001    1    3    3    0    0  0.25607158283E+02 -0.35792270674E+02 -0.14010023168E+02  0.46196254659E+02  0.10000000000E+01 0.  1.
    1000022    2    1    0    0    0  0.31353683141E+02 -0.51026373633E+02 -0.14815725167E+02  0.62499999917E+02  0.10000001243E+02 0.  0.
    3000022    2    3    3    0    0  0.57465248572E+01 -0.15234102959E+02 -0.80570199916E+00  0.16303745259E+02  0.25002569175E+00 0.  0.
    1000022    2    1    0    0    0 -0.31353683141E+02  0.51026373633E+02  0.14815725167E+02  0.62500000083E+02  0.10000002274E+02 0.  0.
    3000022    2    5    5    0    0 -0.21957273955E+02  0.43151038305E+02  0.11935713842E+02  0.49866398960E+02  0.24998782744E+00 0.  0.
        -13    1    4    4    0    0  0.19826973638E+01 -0.52354970594E+01 -0.22198499828E+00  0.56037327412E+01  0.10500000000E+00 0.  1.
         13    1    4    4    0    0  0.37638274934E+01 -0.99986058997E+01 -0.58371700089E+00  0.10700012517E+02  0.10500000000E+00 0. -1.
    3000001    1    5    5    0    0 -0.93964091852E+01  0.78753353276E+01  0.28800113246E+01  0.12633601123E+02  0.10000000000E+01 0. -1.
        -13    1    6    6    0    0 -0.12642380391E+02  0.24713841681E+02  0.68709304056E+01  0.28597630361E+02  0.10500000000E+00 0.  1.
         13    1    6    6    0    0 -0.93148935644E+01  0.18437196624E+02  0.50647834368E+01  0.21268768599E+02  0.10500000000E+00 0. -1.
</event>
<event>
11    0  0.3448258E-009  0.9118800E+02  0.7816531E-02  0.1126479E+00
         25   -1    0    0    0    0  0.00000000000E+00  0.00000000000E+00  0.99999998245E-14  0.12500000000E+03  0.12500000000E+03 0.  0.
    3000001    1    3    3    0    0  0.62452561344E+00 -0.24349098260E+01  0.15987699765E+02  0.16214973385E+02  0.10000000000E+01 0. -1.
    1000022    2    1    0    0    0 -0.11914791968E+02 -0.11468955243E+01  0.60522494533E+02  0.62500002451E+02  0.10000016245E+02 0.  0.
    3000022    2    3    3    0    0 -0.12539317581E+02  0.12880143017E+01  0.44534794768E+02  0.46285029066E+02  0.25000874089E+00 0.  0.
    1000022    2    1    0    0    0  0.11914791968E+02  0.11468955243E+01 -0.60522494533E+02  0.62499997549E+02  0.99999856060E+01 0.  0.
    3000022    2    5    5    0    0  0.41951835775E+01 -0.43477417860E+01 -0.25149899090E+02  0.25866626133E+02  0.24999881985E+00 0.  0.
        -13    1    4    4    0    0 -0.73719320443E+01  0.77093243605E+00  0.25955468807E+02  0.26993278884E+02  0.10500000000E+00 0.  1.
         13    1    4    4    0    0 -0.51673855367E+01  0.51708186565E+00  0.18579325961E+02  0.19291750183E+02  0.10500000000E+00 0. -1.
    3000001    1    5    5    0    0  0.77196083900E+01  0.54946373103E+01 -0.35372595443E+02  0.36633371416E+02  0.10000000000E+01 0.  1.
        -13    1    6    6    0    0  0.19881726227E+01 -0.20834866076E+01 -0.12269778379E+02  0.12603659520E+02  0.10500000000E+00 0.  1.
         13    1    6    6    0    0  0.22070109548E+01 -0.22642551784E+01 -0.12880120711E+02  0.13262966614E+02  0.10500000000E+00 0. -1.
</event>
<event>
11    0  0.3448258E-009  0.9118800E+02  0.7816531E-02  0.1126479E+00
         25   -1    0    0    0    0  0.00000000000E+00  0.00000000000E+00  0.99999998245E-14  0.12500000000E+03  0.12500000000E+03 0.  0.
    3000001    1    3    3    0    0  0.69126820141E+01  0.13552228320E+02  0.47126461744E+01  0.15957979165E+02  0.10000000000E+01 0. -1.
    1000022    2    1    0    0    0  0.11696870121E+02  0.58691820018E+02  0.14990106359E+02  0.62500001989E+02  0.10000022615E+02 0.  0.
    3000022    2    3    3    0    0  0.47841881066E+01  0.45139591698E+02  0.10277460184E+02  0.46542022824E+02  0.25001234620E+00 0.  0.
    1000022    2    1    0    0    0 -0.11696870121E+02 -0.58691820018E+02 -0.14990106359E+02  0.62499998011E+02  0.99999977565E+01 0.  0.
    3000022    2    5    5    0    0 -0.35173870786E+01 -0.39813082660E+02 -0.81172784693E+01  0.40784878157E+02  0.25002764731E+00 0.  0.
        -13    1    4    4    0    0  0.22667104406E+01  0.21793554377E+02  0.49072537658E+01  0.22454156700E+02  0.10500000000E+00 0.  1.
         13    1    4    4    0    0  0.25174776660E+01  0.23346037321E+02  0.53702064186E+01  0.24087866124E+02  0.10500000000E+00 0. -1.
    3000001    1    5    5    0    0 -0.81794830421E+01 -0.18878737358E+02 -0.68728278895E+01  0.21715119854E+02  0.10000000000E+01 0.  1.
        -13    1    6    6    0    0 -0.20410235617E+01 -0.22696480215E+02 -0.46841674917E+01  0.23264746752E+02  0.10500000000E+00 0.  1.
         13    1    6    6    0    0 -0.14763635169E+01 -0.17116602445E+02 -0.34331109776E+01  0.17520131406E+02  0.10500000000E+00 0. -1.
</event>
<event>
11    0  0.3448258E-009  0.9118800E+02  0.7816531E-02  0.1126479E+00
         25   -1    0    0    0    0  0.00000000000E+00  0.00000000000E+00  0.99999998245E-14  0.12500000000E+03  0.12500000000E+03 0.  0.
    3000001    1    3    3    0    0 -0.79902869126E+00 -0.43615930725E+02 -0.29138140878E+01  0.43731889651E+02  0.10000000000E+01 0.  1.
    1000022    2    1    0    0    0 -0.52865064365E+01 -0.61463159848E+02  0.76289356556E+00  0.62499993498E+02  0.10000000598E+02 0.  0.
    3000022    2    3    3    0    0 -0.44874777452E+01 -0.17847229122E+02  0.36767076534E+01  0.18768103848E+02  0.24999802502E+00 0.  0.
    1000022    2    1    0    0    0  0.52865064365E+01  0.61463159848E+02 -0.76289356556E+00  0.62500006502E+02  0.10000081867E+02 0.  0.
    3000022    2    5    5    0    0  0.37573876571E+01  0.23075970162E+02  0.41828976904E+01  0.23752420934E+02  0.25001238538E+00 0.  0.
        -13    1    4    4    0    0 -0.19819902938E+01 -0.80338850990E+01  0.15966423034E+01  0.84280417033E+01  0.10500000000E+00 0.  1.
         13    1    4    4    0    0 -0.25054874514E+01 -0.98133440235E+01  0.20800653500E+01  0.10340062145E+02  0.10500000000E+00 0. -1.
    3000001    1    5    5    0    0  0.15291187793E+01  0.38387189685E+02 -0.49457912560E+01  0.38747585568E+02  0.10000000000E+01 0. -1.
        -13    1    6    6    0    0  0.13257063332E+01  0.78150756580E+01  0.14334489529E+01  0.80559732946E+01  0.10500000000E+00 0. -1.
         13    1    6    6    0    0  0.24316813239E+01  0.15260894504E+02  0.27494487375E+01  0.15696447639E+02  0.10500000000E+00 0.  1.
</event>
<event>
11    0  0.3448258E-009  0.9118800E+02  0.7816531E-02  0.1126479E+00
         25   -1    0    0    0    0  0.00000000000E+00  0.00000000000E+00  0.99999998245E-14  0.12500000000E+03  0.12500000000E+03 0.  0.
    3000001    1    3    3    0    0 -0.12741895168E+00 -0.83888516620E+00  0.26395962912E+01  0.29474450787E+01  0.10000000000E+01 0. -1.
    1000022    2    1    0    0    0  0.30118896877E+02 -0.34842493700E+02  0.41050002628E+02  0.62500000228E+02  0.99999998192E+01 0.  0.
    3000022    2    3    3    0    0  0.30246315829E+02 -0.34003608534E+02  0.38410406337E+02  0.59552555149E+02  0.24999058443E+00 0.  0.
    1000022    2    1    0    0    0 -0.30118896877E+02  0.34842493700E+02 -0.41050002628E+02  0.62499999772E+02  0.99999969695E+01 0.  0.
    3000022    2    5    5    0    0 -0.23312071877E+02  0.21861047569E+02 -0.23840386674E+02  0.39872103460E+02  0.25000304501E+00 0.  0.
        -13    1    4    4    0    0  0.93696868240E+01 -0.10472156261E+02  0.11826986015E+02  0.18366973380E+02  0.10500000000E+00 0. -1.
         13    1    4    4    0    0  0.20876629005E+02 -0.23531452273E+02  0.26583420322E+02  0.41185581770E+02  0.10500000000E+00 0.  1.
    3000001    1    5    5    0    0 -0.68068250006E+01  0.12981446131E+02 -0.17209615954E+02  0.22627896312E+02  0.10000000000E+01 0.  1.
        -13    1    6    6    0    0 -0.10636619824E+02  0.10006370299E+02 -0.10972340056E+02  0.18266592434E+02  0.10500000000E+00 0. -1.
         13    1    6    6    0    0 -0.12675452053E+02  0.11854677271E+02 -0.12868046618E+02  0.21605511026E+02  0.10500000000E+00 0.  1.
</event>
<event>
11    0  0.3448258E-009  0.9118800E+02  0.7816531E-02  0.1126479E+00
         25   -1    0    0    0    0  0.00000000000E+00  0.00000000000E+00  0.99999998245E-14  0.12500000000E+03  0.12500000000E+03 0.  0.
    3000001    1    3    3    0    0 -0.28462910267E+02  0.79721430328E+01 -0.10648262627E+02  0.31433705197E+02  0.10000000000E+01 0.  1.
    1000022    2    1    0    0    0 -0.57349994930E+02  0.60728521351E+01 -0.21916858146E+02  0.62500000642E+02  0.99999978848E+01 0.  0.
    3000022    2    3    3    0    0 -0.28887084662E+02 -0.18992908977E+01 -0.11268595519E+02  0.31066295445E+02  0.25000296306E+00 0.  0.
    1000022    2    1    0    0    0  0.57349994930E+02 -0.60728521351E+01  0.21916858146E+02  0.62499999358E+02  0.99999898657E+01 0.  0.
    3000022    2    5    5    0    0  0.55567456107E+02 -0.72229011581E+01  0.21876487015E+02  0.60154431786E+02  0.25000001855E+00 0.  0.
        -13    1    4    4    0    0 -0.10997675394E+02 -0.74148222820E+00 -0.42283284852E+01  0.11806288441E+02  0.10500000000E+00 0.  1.
         13    1    4    4    0    0 -0.17889409268E+02 -0.11578086695E+01 -0.70402670340E+01  0.19260007004E+02  0.10500000000E+00 0. -1.
    3000001    1    5    5    0    0  0.17825388231E+01  0.11500490230E+01  0.40371130994E-01  0.23455675730E+01  0.10000000000E+01 0.  1.
        -13    1    6    6    0    0  0.23355474242E+02 -0.30668509515E+01  0.91351890497E+01  0.25265519108E+02  0.10500000000E+00 0.  1.
         13    1    6    6    0    0  0.32211981865E+02 -0.41560502066E+01  0.12741297965E+02  0.34888912677E+02  0.10500000000E+00 0. -1.
</event>
<event>
11    0  0.3448258E-009  0.9118800E+02  0.7816531E-02  0.1126479E+00
         25   -1    0    0    0    0  0.00000000000E+00  0.00000000000E+00  0.99999998245E-14  0.12500000000E+03  0.12500000000E+03 0.  0.
    3000001    1    3    3    0    0  0.65105930138E+01  0.45606211432E+01 -0.27266379244E+01  0.84629569876E+01  0.10000000000E+01 0.  1.
    1000022    2    1    0    0    0  0.52017806241E+02  0.12214408522E+02 -0.30841627221E+02  0.62500000204E+02  0.10000005710E+02 0.  0.
    3000022    2    3    3    0    0  0.45507213227E+02  0.76537873783E+01 -0.28114989297E+02  0.54037043216E+02  0.24999896713E+00 0.  0.
    1000022    2    1    0    0    0 -0.52017806241E+02 -0.12214408522E+02  0.30841627221E+02  0.62499999796E+02  0.10000003163E+02 0.  0.
    3000022    2    5    5    0    0 -0.90117526841E+01 -0.44103274372E+01  0.23246750208E+01  0.10301907045E+02  0.25000053428E+00 0.  0.
        -13    1    4    4    0    0  0.20794605493E+02  0.34320101496E+01 -0.12819578016E+02  0.24668743721E+02  0.10500000000E+00 0.  1.
         13    1    4    4    0    0  0.24712607734E+02  0.42217772288E+01 -0.15295411281E+02  0.29368299495E+02  0.10500000000E+00 0. -1.
    3000001    1    5    5    0    0 -0.43006053557E+02 -0.78040810843E+01  0.28516952200E+02  0.52198092751E+02  0.10000000000E+01 0. -1.
        -13    1    6    6    0    0 -0.58460808135E+01 -0.29087840238E+01  0.15502998872E+01  0.67120891022E+01  0.10500000000E+00 0.  1.
         13    1    6    6    0    0 -0.31656718706E+01 -0.15015434135E+01  0.77437513362E+00  0.35898179428E+01  0.10500000000E+00 0. -1.
</event>
<event>
11    0  0.3448258E-009  0.9118800E+02  0.7816531E-02  0.1126479E+00
         25   -1    0    0    0    0  0.00000000000E+00  0.00000000000E+00  0.99999998245E-14  0.12500000000E+03  0.12500000000E+03 0.  0.
    3000001    1    3    3    0    0  0.44782890295E+02  0.17892931194E+02  0.59196235804E+01  0.48597388749E+02  0.10000000000E+01 0. -1.
    1000022    2    1    0    0    0  0.58388631851E+02  0.17893257232E+02  0.87663593816E+01  0.62500000292E+02  0.99999997936E+01 0.  0.
    3000022    2    3    3    0    0  0.13605741556E+02  0.32603760398E-03  0.28467358011E+01  0.13902611542E+02  0.24999918310E+00 0.  0.
    1000022    2    1    0    0    0 -0.58388631851E+02 -0.17893257232E+02 -0.87663593816E+01  0.62499999708E+02  0.99999961479E+01 0.  0.
    3000022    2    5    5    0    0 -0.47679156524E+02 -0.13848654422E+02 -0.10848169414E+02  0.50821574871E+02  0.24999327280E+00 0.  0.
        -13    1    4    4    0    0  0.42584673622E+01  0.37188847980E-01  0.85824284584E+00  0.43455187340E+01  0.10500000000E+00 0.  1.
         13    1    4    4    0    0  0.93472741935E+01 -0.36862810376E-01  0.19884929553E+01  0.95570928084E+01  0.10500000000E+00 0. -1.
    3000001    1    5    5    0    0 -0.10709475327E+02 -0.40446028096E+01  0.20818100319E+01  0.11678424837E+02  0.10000000000E+01 0. -1.
        -13    1    6    6    0    0 -0.30589008500E+02 -0.88271825644E+01 -0.69385257478E+01  0.32584670592E+02  0.10500000000E+00 0. -1.
         13    1    6    6    0    0 -0.17090148024E+02 -0.50214718579E+01 -0.39096436657E+01  0.18236904279E+02  0.10500000000E+00 0.  1.
</event>
<event>
11    0  0.3448258E-009  0.9118800E+02  0.7816531E-02  0.1126479E+00
         25   -1    0    0    0    0  0.00000000000E+00  0.00000000000E+00  0.99999998245E-14  0.12500000000E+03  0.12500000000E+03 0.  0.
    3000001    1    3    3    0    0  0.31770235146E+02 -0.69298457878E+01 -0.16383374145E+02  0.36425067635E+02  0.10000000000E+01 0.  1.
    1000022    2    1    0    0    0  0.55529313269E+02 -0.37043373585E+01 -0.26627489146E+02  0.62499999871E+02  0.10000002917E+02 0.  0.
    3000022    2    3    3    0    0  0.23759078123E+02  0.32255084293E+01 -0.10244115001E+02  0.26074932236E+02  0.25000215970E+00 0.  0.
    1000022    2    1    0    0    0 -0.55529313269E+02  0.37043373585E+01  0.26627489146E+02  0.62500000129E+02  0.10000004526E+02 0.  0.
    3000022    2    5    5    0    0 -0.14394525100E+02 -0.18796959564E+01  0.33646491102E+01  0.14903656233E+02  0.24999144477E+00 0.  0.
        -13    1    4    4    0    0  0.84773946035E+01  0.10988438696E+01 -0.36801587913E+01  0.93074309475E+01  0.10500000000E+00 0. -1.
         13    1    4    4    0    0  0.15281683520E+02  0.21266645597E+01 -0.65639562099E+01  0.16767501289E+02  0.10500000000E+00 0.  1.
    3000001    1    5    5    0    0 -0.41134788169E+02  0.55840333149E+01  0.23262840036E+02  0.47596343896E+02  0.10000000000E+01 0. -1.
        -13    1    6    6    0    0 -0.73401930337E+01 -0.10145901424E+01  0.17571646279E+01  0.76161984913E+01  0.10500000000E+00 0.  1.
         13    1    6    6    0    0 -0.70543320664E+01 -0.86510581398E+00  0.16074844823E+01  0.72874577415E+01  0.10500000000E+00 0. -1.
</event>
<event>
11    0  0.3448258E-009  0.9118800E+02  0.7816531E-02  0.1126479E+00
         25   -1    0    0    0    0  0.00000000000E+00  0.00000000000E+00  0.99999998245E-14  0.12500000000E+03  0.12500000000E+03 0.  0.
    3000001    1    3    3    0    0 -0.61983710456E+01 -0.32992147173E+02 -0.11074177874E+02  0.35362960768E+02  0.10000000000E+01 0.  1.
    1000022    2    1    0    0    0 -0.13141193350E+02 -0.59224388268E+02 -0.11226348695E+02  0.62500000244E+02  0.99999998515E+01 0.  0.
    3000022    2    3    3    0    0 -0.69428223048E+01 -0.26232241095E+02 -0.15217082136E+00  0.27137039475E+02  0.25000222317E+00 0.  0.
    1000022    2    1    0    0    0  0.13141193350E+02  0.59224388268E+02  0.11226348695E+02  0.62499999756E+02  0.99999968053E+01 0.  0.
    3000022    2    5    5    0    0  0.13868364455E+02  0.57335008012E+02  0.97168085171E+01  0.59783890937E+02  0.25014283862E+00 0.  0.
        -13    1    4    4    0    0 -0.46274563679E+01 -0.17602379828E+02 -0.58912671369E-01  0.18200868764E+02  0.10500000000E+00 0.  1.
         13    1    4    4    0    0 -0.23153659369E+01 -0.86298612665E+01 -0.93258149990E-01  0.89361707114E+01  0.10500000000E+00 0. -1.
    3000001    1    5    5    0    0 -0.72717110433E+00  0.18893802557E+01  0.15095401783E+01  0.27161088188E+01  0.10000000000E+01 0. -1.
        -13    1    6    6    0    0  0.37610143365E+01  0.15447305214E+02  0.25916509345E+01  0.16108759939E+02  0.10500000000E+00 0.  1.
         13    1    6    6    0    0  0.10107350118E+02  0.41887702798E+02  0.71251575827E+01  0.43675130998E+02  0.10500000000E+00 0. -1.
</event>
<event>
11    0  0.3448258E-009  0.9118800E+02  0.7816531E-02  0.1126479E+00
         25   -1    0    0    0    0  0.00000000000E+00  0.00000000000E+00  0.99999998245E-14  0.12500000000E+03  0.12500000000E+03 0.  0.
    3000001    1    3    3    0    0 -0.13526673713E+02 -0.15334050240E+02  0.17033867678E+02  0.26631872758E+02  0.10000000000E+01 0.  1.
    1000022    2    1    0    0    0 -0.35604044077E+02 -0.40389126567E+02  0.30121761549E+02  0.62500000544E+02  0.10000002487E+02 0.  0.
    3000022    2    3    3    0    0 -0.22077370364E+02 -0.25055076327E+02  0.13087893871E+02  0.35868127786E+02  0.24998600591E+00 0.  0.
    1000022    2    1    0    0    0  0.35604044077E+02  0.40389126567E+02 -0.30121761549E+02  0.62499999456E+02  0.99999956825E+01 0.  0.
    3000022    2    5    5    0    0  0.26583871545E+02  0.34575650499E+02 -0.21128316935E+02  0.48462832273E+02  0.25000321361E+00 0.  0.
        -13    1    4    4    0    0 -0.67966911166E+01 -0.77501512176E+01  0.39956038461E+01  0.11056026824E+02  0.10500000000E+00 0. -1.
         13    1    4    4    0    0 -0.15280679247E+02 -0.17304925109E+02  0.90922900244E+01  0.24812100963E+02  0.10500000000E+00 0.  1.
    3000001    1    5    5    0    0  0.90201725317E+01  0.58134760678E+01 -0.89934446143E+01  0.14037167183E+02  0.10000000000E+01 0. -1.
        -13    1    6    6    0    0  0.18374821969E+02  0.23965310804E+02 -0.14601231959E+02  0.33543661161E+02  0.10500000000E+00 0.  1.
         13    1    6    6    0    0  0.82090495764E+01  0.10610339695E+02 -0.65270849753E+01  0.14919171112E+02  0.10500000000E+00 0. -1.
</event>
<event>
11    0  0.3448258E-009  0.9118800E+02  0.7816531E-02  0.1126479E+00
         25   -1    0    0    0    0  0.00000000000E+00  0.00000000000E+00  0.99999998245E-14  0.12500000000E+03  0.12500000000E+03 0.  0.
    3000001    1    3    3    0    0  0.22646814761E+01 -0.51243346932E+01 -0.37340191510E+02  0.37771384542E+02  0.10000000000E+01 0. -1.
    1000022    2    1    0    0    0  0.10217507601E+02 -0.38659622050E+01 -0.60719904059E+02  0.62499999653E+02  0.10000004121E+02 0.  0.
    3000022    2    3    3    0    0  0.79528261246E+01  0.12583724882E+01 -0.23379712548E+02  0.24728615111E+02  0.25000352915E+00 0.  0.
    1000022    2    1    0    0    0 -0.10217507601E+02  0.38659622050E+01  0.60719904059E+02  0.62500000347E+02  0.10000008456E+02 0.  0.
    3000022    2    5    5    0    0 -0.16616497660E+01 -0.74055674036E+00  0.12224827395E+01  0.22060050927E+01  0.24998037926E+00 0.  0.
        -13    1    4    4    0    0  0.30535099365E+01  0.53207045067E+00 -0.88850470930E+01  0.94107443245E+01  0.10500000000E+00 0. -1.
         13    1    4    4    0    0  0.48993161881E+01  0.72630203754E+00 -0.14494665455E+02  0.15317870786E+02  0.10500000000E+00 0.  1.
    3000001    1    5    5    0    0 -0.85558578347E+01  0.46065189453E+01  0.59497421319E+02  0.60293995254E+02  0.10000000000E+01 0. -1.
        -13    1    6    6    0    0 -0.82781587287E+00 -0.44234394815E+00  0.64010132607E+00  0.11409215554E+01  0.10500000000E+00 0.  1.
         13    1    6    6    0    0 -0.83383389313E+00 -0.29821279221E+00  0.58238141345E+00  0.10650835373E+01  0.10500000000E+00 0. -1.
</event>
<event>
11    0  0.3448258E-009  0.9118800E+02  0.7816531E-02  0.1126479E+00
         25   -1    0    0    0    0  0.00000000000E+00  0.00000000000E+00  0.99999998245E-14  0.12500000000E+03  0.12500000000E+03 0.  0.
    3000001    1    3    3    0    0  0.37096222426E+01 -0.13892668835E+02  0.77247052614E+01  0.16353550560E+02  0.10000000000E+01 0.  1.
    1000022    2    1    0    0    0  0.17375076756E+02 -0.57521431667E+02  0.13987194307E+02  0.62500000662E+02  0.10000004243E+02 0.  0.
    3000022    2    3    3    0    0  0.13665454514E+02 -0.43628762833E+02  0.62624890453E+01  0.46146450102E+02  0.24998929814E+00 0.  0.
    1000022    2    1    0    0    0 -0.17375076756E+02  0.57521431667E+02 -0.13987194307E+02  0.62499999338E+02  0.99999959662E+01 0.  0.
    3000022    2    5    5    0    0 -0.49490000919E+01  0.31843407026E+02 -0.95585968271E+01  0.33614348811E+02  0.24999945667E+00 0.  0.
        -13    1    4    4    0    0  0.49898684456E+01 -0.15827066192E+02  0.23232790243E+01  0.16757191345E+02  0.10500000000E+00 0.  1.
         13    1    4    4    0    0  0.86755860680E+01 -0.27801696641E+02  0.39392100210E+01  0.29389258757E+02  0.10500000000E+00 0. -1.
    3000001    1    5    5    0    0 -0.12426076664E+02  0.25678024641E+02 -0.44285974796E+01  0.28885650527E+02  0.10000000000E+01 0. -1.
        -13    1    6    6    0    0 -0.37657748708E+01  0.24322528744E+02 -0.73076834615E+01  0.25674495661E+02  0.10500000000E+00 0.  1.
         13    1    6    6    0    0 -0.11832252211E+01  0.75208782820E+01 -0.22509133655E+01  0.79398531495E+01  0.10500000000E+00 0. -1.
</event>
<event>
11    0  0.3448258E-009  0.9118800E+02  0.7816531E-02  0.1126479E+00
         25   -1    0    0    0    0  0.00000000000E+00  0.00000000000E+00  0.99999998245E-14  0.12500000000E+03  0.12500000000E+03 0.  0.
    3000001    1    3    3    0    0 -0.24064488849E+02  0.17682494787E+02 -0.41118653310E+01  0.30160863415E+02  0.10000000000E+01 0. -1.
    1000022    2    1    0    0    0 -0.42495685444E+02  0.43613992353E+02 -0.99089059162E+01  0.62500000000E+02  0.99999986594E+01 0.  0.
    3000022    2    3    3    0    0 -0.18431196595E+02  0.25931497566E+02 -0.57970405852E+01  0.32339136585E+02  0.25000307799E+00 0.  0.
    1000022    2    1    0    0    0  0.42495685444E+02 -0.43613992353E+02  0.99089059162E+01  0.62500000000E+02  0.99999986625E+01 0.  0.
    3000022    2    5    5    0    0  0.11313995519E+01 -0.71601473645E+00  0.19378612218E+01  0.23686588837E+01  0.24999348664E+00 0.  0.
        -13    1    4    4    0    0 -0.64862555199E+01  0.91943317142E+01 -0.20086159270E+01  0.11430345983E+02  0.10500000000E+00 0. -1.
         13    1    4    4    0    0 -0.11944941075E+02  0.16737165852E+02 -0.37884246582E+01  0.20908790602E+02  0.10500000000E+00 0.  1.
    3000001    1    5    5    0    0  0.41364285892E+02 -0.42897977617E+02  0.79710446944E+01  0.60131341117E+02  0.10000000000E+01 0. -1.
        -13    1    6    6    0    0  0.37083835161E+00 -0.20051067370E+00  0.54960699340E+00  0.70058437072E+00  0.10500000000E+00 0.  1.
         13    1    6    6    0    0  0.76056120034E+00 -0.51550406275E+00  0.13882542284E+01  0.16680745130E+01  0.10500000000E+00 0. -1.
</event>
<event>
11    0  0.3448258E-009  0.9118800E+02  0.7816531E-02  0.1126479E+00
         25   -1    0    0    0    0  0.00000000000E+00  0.00000000000E+00  0.99999998245E-14  0.12500000000E+03  0.12500000000E+03 0.  0.
    3000001    1    3    3    0    0  0.12997674064E+02 -0.10275229890E+02  0.91298483286E+01  0.18943970304E+02  0.10000000000E+01 0.  1.
    1000022    2    1    0    0    0  0.31052790595E+02 -0.42817201300E+02  0.31759436305E+02  0.62500001844E+02  0.99999952630E+01 0.  0.
    3000022    2    3    3    0    0  0.18055116530E+02 -0.32541971409E+02  0.22629587977E+02  0.43556031540E+02  0.24999081848E+00 0.  0.
    1000022    2    1    0    0    0 -0.31052790595E+02  0.42817201300E+02 -0.31759436305E+02  0.62499998156E+02  0.99999722108E+01 0.  0.
    3000022    2    5    5    0    0 -0.13598938694E+02  0.14339970010E+02 -0.72195273916E+01  0.21041624121E+02  0.24999284063E+00 0.  0.
        -13    1    4    4    0    0  0.10270321571E+02 -0.18488934695E+02  0.12936465089E+02  0.24792808742E+02  0.10500000000E+00 0. -1.
         13    1    4    4    0    0  0.77847949597E+01 -0.14053036714E+02  0.96931228873E+01  0.18763222798E+02  0.10500000000E+00 0.  1.
    3000001    1    5    5    0    0 -0.17453851901E+02  0.28477231290E+02 -0.24539908914E+02  0.41458374035E+02  0.10000000000E+01 0.  1.
        -13    1    6    6    0    0 -0.10184020798E+02  0.10704834552E+02 -0.53816133805E+01  0.15725156596E+02  0.10500000000E+00 0.  1.
         13    1    6    6    0    0 -0.34149178961E+01  0.36351354575E+01 -0.18379140110E+01  0.53164675249E+01  0.10500000000E+00 0. -1.
</event>
<event>
11    0  0.3448258E-009  0.9118800E+02  0.7816531E-02  0.1126479E+00
         25   -1    0    0    0    0  0.00000000000E+00  0.00000000000E+00  0.99999998245E-14  0.12500000000E+03  0.12500000000E+03 0.  0.
    3000001    1    3    3    0    0 -0.26371550569E+02 -0.94476712188E+01  0.32046434611E+02  0.42575710706E+02  0.10000000000E+01 0. -1.
    1000022    2    1    0    0    0 -0.37466226428E+02 -0.20111623601E+02  0.44699610746E+02  0.62499994478E+02  0.99999291126E+01 0.  0.
    3000022    2    3    3    0    0 -0.11094675859E+02 -0.10663952383E+02  0.12653176135E+02  0.19924283772E+02  0.25000935029E+00 0.  0.
    1000022    2    1    0    0    0  0.37466226428E+02  0.20111623601E+02 -0.44699610746E+02  0.62500005522E+02  0.99999981409E+01 0.  0.
    3000022    2    5    5    0    0  0.50358377885E+00  0.20742338922E+01 -0.69443569045E+00  0.22584931675E+01  0.25001519532E+00 0.  0.
        -13    1    4    4    0    0 -0.71951360359E+01 -0.68477055682E+01  0.82047267543E+01  0.12883695907E+02  0.10500000000E+00 0.  1.
         13    1    4    4    0    0 -0.38995398229E+01 -0.38162468143E+01  0.44484493812E+01  0.70405878643E+01  0.10500000000E+00 0. -1.
    3000001    1    5    5    0    0  0.36962642649E+02  0.18037389709E+02 -0.44005175056E+02  0.60241512355E+02  0.10000000000E+01 0. -1.
        -13    1    6    6    0    0  0.35510161543E+00  0.15692735578E+01 -0.52030905962E+00  0.16942441305E+01  0.10500000000E+00 0. -1.
         13    1    6    6    0    0  0.14848216343E+00  0.50496033443E+00 -0.17412663083E+00  0.56424903701E+00  0.10500000000E+00 0.  1.
</event>
<event>
11    0  0.3448258E-009  0.9118800E+02  0.7816531E-02  0.1126479E+00
         25   -1    0    0    0    0  0.00000000000E+00  0.00000000000E+00  0.99999998245E-14  0.12500000000E+03  0.12500000000E+03 0.  0.
    3000001    1    3    3    0    0  0.29935695451E+02  0.85114777426E+01 -0.28282764571E+02  0.42065495211E+02  0.10000000000E+01 0. -1.
    1000022    2    1    0    0    0  0.45689112350E+02  0.59141887406E+01 -0.41033843157E+02  0.62499989546E+02  0.99999896638E+01 0.  0.
    3000022    2    3    3    0    0  0.15753416899E+02 -0.25972890020E+01 -0.12751078585E+02  0.20434494336E+02  0.24999903200E+00 0.  0.
    1000022    2    1    0    0    0 -0.45689112350E+02 -0.59141887406E+01  0.41033843157E+02  0.62500010454E+02  0.10000120336E+02 0.  0.
    3000022    2    5    5    0    0 -0.12238606240E+02 -0.26265745588E+01  0.58095934273E+01  0.13802037857E+02  0.24999322009E+00 0.  0.
        -13    1    4    4    0    0  0.11169755409E+02 -0.18228190617E+01 -0.90879874927E+01  0.14515117874E+02  0.10500000000E+00 0. -1.
         13    1    4    4    0    0  0.45836614899E+01 -0.77446994029E+00 -0.36630910923E+01  0.59193764615E+01  0.10500000000E+00 0.  1.
    3000001    1    5    5    0    0 -0.33450506110E+02 -0.32876141818E+01  0.35224249729E+02  0.48697972596E+02  0.10000000000E+01 0. -1.
        -13    1    6    6    0    0 -0.82006858829E+01 -0.17255865016E+01  0.38439742756E+01  0.92204154437E+01  0.10500000000E+00 0.  1.
         13    1    6    6    0    0 -0.40379203573E+01 -0.90098805722E+00  0.19656191518E+01  0.45816224136E+01  0.10500000000E+00 0. -1.
</event>
<event>
11    0  0.3448258E-009  0.9118800E+02  0.7816531E-02  0.1126479E+00
         25   -1    0    0    0    0  0.00000000000E+00  0.00000000000E+00  0.99999998245E-14  0.12500000000E+03  0.12500000000E+03 0.  0.
    3000001    1    3    3    0    0  0.47443644654E+01 -0.32016362874E+01 -0.85942481956E+01  0.10374033504E+02  0.10000000000E+01 0.  1.
    1000022    2    1    0    0    0  0.43902818283E+02 -0.67678739694E+01 -0.42813413873E+02  0.62499999737E+02  0.99999994218E+01 0.  0.
    3000022    2    3    3    0    0  0.39158453818E+02 -0.35662376819E+01 -0.34219165677E+02  0.52125966233E+02  0.24999896846E+00 0.  0.
    1000022    2    1    0    0    0 -0.43902818283E+02  0.67678739694E+01  0.42813413873E+02  0.62500000263E+02  0.10000002703E+02 0.  0.
    3000022    2    5    5    0    0 -0.41799631930E+02  0.69845918990E+01  0.37093480284E+02  0.56320356279E+02  0.24999666105E+00 0.  0.
        -13    1    4    4    0    0  0.22359484894E+02 -0.19710420747E+01 -0.19544141448E+02  0.29762662205E+02  0.10500000000E+00 0. -1.
         13    1    4    4    0    0  0.16798968924E+02 -0.15951956073E+01 -0.14675024229E+02  0.22363304028E+02  0.10500000000E+00 0.  1.
    3000001    1    5    5    0    0 -0.21031863528E+01 -0.21671792963E+00  0.57199335891E+01  0.61796439832E+01  0.10000000000E+01 0. -1.
        -13    1    6    6    0    0 -0.13740816390E+02  0.23117667026E+01  0.12263058211E+02  0.18562002102E+02  0.10500000000E+00 0. -1.
         13    1    6    6    0    0 -0.28058815541E+02  0.46728251964E+01  0.24830422073E+02  0.37758354177E+02  0.10500000000E+00 0.  1.
</event>
<event>
11    0  0.3448258E-009  0.9118800E+02  0.7816531E-02  0.1126479E+00
         25   -1    0    0    0    0  0.00000000000E+00  0.00000000000E+00  0.99999998245E-14  0.12500000000E+03  0.12500000000E+03 0.  0.
    3000001    1    3    3    0    0 -0.11477404662E+01  0.50532757598E+02 -0.27745052887E+02  0.57668577738E+02  0.10000000000E+01 0.  1.
    1000022    2    1    0    0    0 -0.18157072347E+01  0.55291371026E+02 -0.27309663036E+02  0.62500000626E+02  0.99999940205E+01 0.  0.
    3000022    2    3    3    0    0 -0.66796676848E+00  0.47586134277E+01  0.43538985064E+00  0.48314228878E+01  0.25000287998E+00 0.  0.
    1000022    2    1    0    0    0  0.18157072347E+01 -0.55291371026E+02  0.27309663036E+02  0.62499999374E+02  0.99999861966E+01 0.  0.
    3000022    2    5    5    0    0  0.21126683781E+01 -0.43993150635E+02  0.25824052825E+02  0.51056878837E+02  0.25000369454E+00 0.  0.
        -13    1    4    4    0    0 -0.29315440579E+00  0.19858162927E+01  0.11866597350E+00  0.20135819992E+01  0.10500000000E+00 0. -1.
         13    1    4    4    0    0 -0.37481236270E+00  0.27727971350E+01  0.31672387715E+00  0.28178408886E+01  0.10500000000E+00 0.  1.
    3000001    1    5    5    0    0 -0.29696114340E+00 -0.11298220391E+02  0.14856102117E+01  0.11443120537E+02  0.10000000000E+01 0. -1.
        -13    1    6    6    0    0  0.12692239998E+01 -0.27652678196E+02  0.16243470836E+02  0.32095839462E+02  0.10500000000E+00 0. -1.
         13    1    6    6    0    0  0.84344437827E+00 -0.16340472439E+02  0.95805819883E+01  0.18961039375E+02  0.10500000000E+00 0.  1.
</event>
<event>
11    0  0.3448258E-009  0.9118800E+02  0.7816531E-02  0.1126479E+00
         25   -1    0    0    0    0  0.00000000000E+00  0.00000000000E+00  0.99999998245E-14  0.12500000000E+03  0.12500000000E+03 0.  0.
    3000001    1    3    3    0    0  0.14731949464E+01 -0.24571531095E+02  0.41393609191E+01  0.24981288047E+02  0.10000000000E+01 0. -1.
    1000022    2    1    0    0    0 -0.49255690005E+01 -0.58687628689E+02  0.18378001626E+02  0.62499999139E+02  0.99999978796E+01 0.  0.
    3000022    2    3    3    0    0 -0.63987639469E+01 -0.34116097594E+02  0.14238640707E+02  0.37518711092E+02  0.24999548959E+00 0.  0.
    1000022    2    1    0    0    0  0.49255690005E+01  0.58687628689E+02 -0.18378001626E+02  0.62500000861E+02  0.10000008638E+02 0.  0.
    3000022    2    5    5    0    0  0.50623492344E+01  0.12616361118E+02 -0.53539091719E+01  0.14612555860E+02  0.24999544870E+00 0.  0.
        -13    1    4    4    0    0 -0.43192655199E+01 -0.23123135130E+02  0.97012801528E+01  0.25445260747E+02  0.10500000000E+00 0.  1.
         13    1    4    4    0    0 -0.20794984270E+01 -0.10992962464E+02  0.45373605538E+01  0.12073450345E+02  0.10500000000E+00 0. -1.
    3000001    1    5    5    0    0 -0.13678023388E+00  0.46071267571E+02 -0.13024092454E+02  0.47887445000E+02  0.10000000000E+01 0. -1.
        -13    1    6    6    0    0  0.33798651337E+01  0.85592777747E+01 -0.36143695943E+01  0.98873361888E+01  0.10500000000E+00 0.  1.
         13    1    6    6    0    0  0.16824841007E+01  0.40570833431E+01 -0.17395395776E+01  0.47252196715E+01  0.10500000000E+00 0. -1.
</event>
<event>
11    0  0.3448258E-009  0.9118800E+02  0.7816531E-02  0.1126479E+00
         25   -1    0    0    0    0  0.00000000000E+00  0.00000000000E+00  0.99999998245E-14  0.12500000000E+03  0.12500000000E+03 0.  0.
    3000001    1    3    3    0    0  0.25186754912E+00  0.19293111566E+02 -0.58219232157E+02  0.61341393725E+02  0.10000000000E+01 0.  1.
    1000022    2    1    0    0    0  0.11740321760E+01  0.19929589759E+02 -0.58375364418E+02  0.62499999887E+02  0.99999957746E+01 0.  0.
    3000022    2    3    3    0    0  0.92216462691E+00  0.63647819261E+00 -0.15613226114E+00  0.11586061626E+01  0.24999773669E+00 0.  0.
    1000022    2    1    0    0    0 -0.11740321760E+01 -0.19929589759E+02  0.58375364418E+02  0.62500000113E+02  0.99999971817E+01 0.  0.
    3000022    2    5    5    0    0 -0.18386864826E+01 -0.83547625682E+01  0.38750652732E+02  0.39684485685E+02  0.24998273426E+00 0.  0.
        -13    1    4    4    0    0  0.62089851322E+00  0.36677354304E+00 -0.70373884827E-01  0.73213064357E+00  0.10500000000E+00 0. -1.
         13    1    4    4    0    0  0.30126611369E+00  0.26970464957E+00 -0.85758376315E-01  0.42647551907E+00  0.10500000000E+00 0.  1.
    3000001    1    5    5    0    0  0.66465430656E+00 -0.11574827191E+02  0.19624711686E+02  0.22815514428E+02  0.10000000000E+01 0.  1.
        -13    1    6    6    0    0 -0.59919137272E+00 -0.25149897478E+01  0.11774986576E+02  0.12055933709E+02  0.10500000000E+00 0.  1.
         13    1    6    6    0    0 -0.12394951099E+01 -0.58397728204E+01  0.26975666155E+02  0.27628551975E+02  0.10500000000E+00 0. -1.
</event>
<event>
11    0  0.3448258E-009  0.9118800E+02  0.7816531E-02  0.1126479E+00
         25   -1    0    0    0    0  0.00000000000E+00  0.00000000000E+00  0.99999998245E-14  0.12500000000E+03  0.12500000000E+03 0.  0.
    3000001    1    3    3    0    0  0.94834008950E+01  0.29531257796E+02 -0.53759203726E+01  0.31494929741E+02  0.10000000000E+01 0.  1.
    1000022    2    1    0    0    0  0.11082491467E+02  0.60490819699E+02 -0.49283907655E+01  0.62499999398E+02  0.10000000214E+02 0.  0.
    3000022    2    3    3    0    0  0.15990905724E+01  0.30959561903E+02  0.44752960710E+00  0.31005069657E+02  0.24999563924E+00 0.  0.
    1000022    2    1    0    0    0 -0.11082491467E+02 -0.60490819699E+02  0.49283907655E+01  0.62500000602E+02  0.10000007736E+02 0.  0.
    3000022    2    5    5    0    0 -0.41889371665E+01 -0.30920044817E+02  0.72387821931E+01  0.32032153180E+02  0.25000718855E+00 0.  0.
        -13    1    4    4    0    0  0.67492905800E+00  0.12521164932E+02  0.12412718989E+00  0.12540396049E+02  0.10500000000E+00 0.  1.
         13    1    4    4    0    0  0.92416151436E+00  0.18438396970E+02  0.32340241720E+00  0.18464673608E+02  0.10500000000E+00 0. -1.
    3000001    1    5    5    0    0 -0.68935543008E+01 -0.29570774882E+02 -0.23103914276E+01  0.30467847422E+02  0.10000000000E+01 0.  1.
        -13    1    6    6    0    0 -0.12622331440E+01 -0.92361439661E+01  0.21173812346E+01  0.95600165358E+01  0.10500000000E+00 0.  1.
         13    1    6    6    0    0 -0.29267040225E+01 -0.21683900851E+02  0.51214009585E+01  0.22472136644E+02  0.10500000000E+00 0. -1.
</event>
<event>
11    0  0.3448258E-009  0.9118800E+02  0.7816531E-02  0.1126479E+00
         25   -1    0    0    0    0  0.00000000000E+00  0.00000000000E+00  0.99999998245E-14  0.12500000000E+03  0.12500000000E+03 0.  0.
    3000001    1    3    3    0    0 -0.15743252853E+02 -0.46515456847E+02 -0.45555895479E+01  0.49328400868E+02  0.10000000000E+01 0. -1.
    1000022    2    1    0    0    0 -0.21974389680E+02 -0.57635257464E+02 -0.12462895542E+01  0.62499999277E+02  0.99999983640E+01 0.  0.
    3000022    2    3    3    0    0 -0.62311368272E+01 -0.11119800617E+02  0.33092999937E+01  0.13171598409E+02  0.25001257583E+00 0.  0.
    1000022    2    1    0    0    0  0.21974389680E+02  0.57635257464E+02  0.12462895542E+01  0.62500000723E+02  0.10000007397E+02 0.  0.
    3000022    2    5    5    0    0  0.22200444632E+01  0.37223835732E+01  0.25942877259E+01  0.50574274413E+01  0.25001327003E+00 0.  0.
        -13    1    4    4    0    0 -0.43705989651E+01 -0.78769705557E+01  0.23153472887E+01  0.93016481613E+01  0.10500000000E+00 0. -1.
         13    1    4    4    0    0 -0.18605378621E+01 -0.32428300611E+01  0.99395270505E+00  0.38699502479E+01  0.10500000000E+00 0.  1.
    3000001    1    5    5    0    0  0.19754345217E+02  0.53912873891E+02 -0.13479981717E+01  0.57442573281E+02  0.10000000000E+01 0. -1.
        -13    1    6    6    0    0  0.71039803201E+00  0.12687863480E+01  0.91399471441E+00  0.17207252828E+01  0.10500000000E+00 0. -1.
         13    1    6    6    0    0  0.15096464312E+01  0.24535972252E+01  0.16802930115E+01  0.33367021585E+01  0.10500000000E+00 0.  1.
</event>
<event>
11    0  0.3448258E-009  0.9118800E+02  0.7816531E-02  0.1126479E+00
         25   -1    0    0    0    0  0.00000000000E+00  0.00000000000E+00  0.99999998245E-14  0.12500000000E+03  0.12500000000E+03 0.  0.
    3000001    1    3    3    0    0 -0.35501228213E+02  0.50243117169E+02  0.80768871048E+01  0.62055975802E+02  0.10000000000E+01 0. -1.
    1000022    2    1    0    0    0 -0.35297852374E+02  0.49973821788E+02  0.79327698561E+01  0.62500000906E+02  0.10000001467E+02 0.  0.
    3000022    2    3    3    0    0  0.20337583968E+00 -0.26929538035E+00 -0.14411724873E+00  0.44402510360E+00  0.25001355403E+00 0.  0.
    1000022    2    1    0    0    0  0.35297852374E+02 -0.49973821788E+02 -0.79327698561E+01  0.62499999094E+02  0.99999901431E+01 0.  0.
    3000022    2    5    5    0    0  0.15642659594E+02 -0.21486280443E+02  0.14770340932E+01  0.26619488709E+02  0.25000598321E+00 0.  0.
        -13    1    4    4    0    0  0.54802797475E-01 -0.14333631402E+00 -0.12048259004E-01  0.18632983141E+00  0.10500000000E+00 0.  1.
         13    1    4    4    0    0  0.14857304221E+00 -0.12595906633E+00 -0.13206898973E+00  0.25769527219E+00  0.10500000000E+00 0. -1.
    3000001    1    5    5    0    0  0.19655192780E+02 -0.28487541346E+02 -0.94098039492E+01  0.35880510385E+02  0.10000000000E+01 0. -1.
        -13    1    6    6    0    0  0.60560244290E+01 -0.82841892202E+01  0.62858331242E+00  0.10281505965E+02  0.10500000000E+00 0. -1.
         13    1    6    6    0    0  0.95866351647E+01 -0.13202091223E+02  0.84845078077E+00  0.16337982744E+02  0.10500000000E+00 0.  1.
</event>
<event>
11    0  0.3448258E-009  0.9118800E+02  0.7816531E-02  0.1126479E+00
         25   -1    0    0    0    0  0.00000000000E+00  0.00000000000E+00  0.99999998245E-14  0.12500000000E+03  0.12500000000E+03 0.  0.
    3000001    1    3    3    0    0 -0.32786569625E+01 -0.24434233834E+02  0.44907490434E+02  0.51239282505E+02  0.10000000000E+01 0.  1.
    1000022    2    1    0    0    0 -0.20893027095E+01 -0.33053394963E+02  0.52051491269E+02  0.62500000632E+02  0.10000011564E+02 0.  0.
    3000022    2    3    3    0    0  0.11893542530E+01 -0.86191611289E+01  0.71440008344E+01  0.11260718127E+02  0.25004539795E+00 0.  0.
    1000022    2    1    0    0    0  0.20893027095E+01  0.33053394963E+02 -0.52051491269E+02  0.62499999368E+02  0.10000003664E+02 0.  0.
    3000022    2    5    5    0    0  0.54677548380E+01  0.19104789024E+02 -0.34403026915E+02  0.39730593567E+02  0.24999545841E+00 0.  0.
        -13    1    4    4    0    0  0.84817241162E+00 -0.59588976362E+01  0.49933625887E+01  0.78212884118E+01  0.10500000000E+00 0. -1.
         13    1    4    4    0    0  0.34118184140E+00 -0.26602634927E+01  0.21506382457E+01  0.34394297149E+01  0.10500000000E+00 0.  1.
    3000001    1    5    5    0    0 -0.33784521285E+01  0.13948605940E+02 -0.17648464354E+02  0.22769405801E+02  0.10000000000E+01 0.  1.
        -13    1    6    6    0    0  0.17716180834E+01  0.63639339777E+01 -0.11389841595E+02  0.13167300515E+02  0.10500000000E+00 0.  1.
         13    1    6    6    0    0  0.36961367547E+01  0.12740855046E+02 -0.23013185320E+02  0.26563293052E+02  0.10500000000E+00 0. -1.
</event>
<event>
11    0  0.3448258E-009  0.9118800E+02  0.7816531E-02  0.1126479E+00
         25   -1    0    0    0    0  0.00000000000E+00  0.00000000000E+00  0.99999998245E-14  0.12500000000E+03  0.12500000000E+03 0.  0.
    3000001    1    3    3    0    0 -0.48208912920E+01 -0.23768798869E+00 -0.32068227534E+01  0.58805782540E+01  0.10000000000E+01 0. -1.
    1000022    2    1    0    0    0 -0.59249696442E+02 -0.14832368619E+02 -0.87019813004E+01  0.62499998907E+02  0.99999848726E+01 0.  0.
    3000022    2    3    3    0    0 -0.54428805150E+02 -0.14594680630E+02 -0.54951585470E+01  0.56619420653E+02  0.24998964821E+00 0.  0.
    1000022    2    1    0    0    0  0.59249696442E+02  0.14832368619E+02  0.87019813004E+01  0.62500001093E+02  0.99999985404E+01 0.  0.
    3000022    2    5    5    0    0  0.21711982623E+02  0.25631640712E+01 -0.76249517382E+00  0.21877474659E+02  0.24999816685E+00 0.  0.
        -13    1    4    4    0    0 -0.33123871879E+02 -0.89191870062E+01 -0.33960085749E+01  0.34471534406E+02  0.10500000000E+00 0.  1.
         13    1    4    4    0    0 -0.21304933271E+02 -0.56754936239E+01 -0.20991499721E+01  0.22147886246E+02  0.10500000000E+00 0. -1.
    3000001    1    5    5    0    0  0.37537713819E+02  0.12269204548E+02  0.94644764742E+01  0.40622526434E+02  0.10000000000E+01 0.  1.
        -13    1    6    6    0    0  0.10196802650E+02  0.12198645431E+01 -0.29265321185E+00  0.10274216500E+02  0.10500000000E+00 0. -1.
         13    1    6    6    0    0  0.11515179973E+02  0.13432995280E+01 -0.46984196197E+00  0.11603258159E+02  0.10500000000E+00 0.  1.
</event>
<event>
11    0  0.3448258E-009  0.9118800E+02  0.7816531E-02  0.1126479E+00
         25   -1    0    0    0    0  0.00000000000E+00  0.00000000000E+00  0.99999998245E-14  0.12500000000E+03  0.12500000000E+03 0.  0.
    3000001    1    3    3    0    0  0.69362983914E+01  0.92065679681E+01  0.82484294464E+01  0.14209493920E+02  0.10000000000E+01 0. -1.
    1000022    2    1    0    0    0  0.33163707389E+02  0.47979987836E+02  0.20108205707E+02  0.62499988582E+02  0.99998957725E+01 0.  0.
    3000022    2    3    3    0    0  0.26227408997E+02  0.38773419868E+02  0.11859776261E+02  0.48290494662E+02  0.25002155344E+00 0.  0.
    1000022    2    1    0    0    0 -0.33163707389E+02 -0.47979987836E+02 -0.20108205707E+02  0.62500011418E+02  0.10000038497E+02 0.  0.
    3000022    2    5    5    0    0 -0.23324877986E+02 -0.37013240294E+02 -0.18979213266E+02  0.47689652219E+02  0.25000491337E+00 0.  0.
        -13    1    4    4    0    0  0.15314534502E+02  0.22716196764E+02  0.69908881404E+01  0.28274442602E+02  0.10500000000E+00 0. -1.
         13    1    4    4    0    0  0.10912874495E+02  0.16057223104E+02  0.48688881202E+01  0.20016052060E+02  0.10500000000E+00 0.  1.
    3000001    1    5    5    0    0 -0.98388294026E+01 -0.10966747542E+02 -0.11289924415E+01  0.14810359199E+02  0.10000000000E+01 0. -1.
        -13    1    6    6    0    0 -0.86031622450E+01 -0.13562506842E+02 -0.70056366878E+01  0.17522727038E+02  0.10500000000E+00 0.  1.
         13    1    6    6    0    0 -0.14721715741E+02 -0.23450733452E+02 -0.11973576578E+02  0.30166925181E+02  0.10500000000E+00 0. -1.
</event>
<event>
11    0  0.3448258E-009  0.9118800E+02  0.7816531E-02  0.1126479E+00
         25   -1    0    0    0    0  0.00000000000E+00  0.00000000000E+00  0.99999998245E-14  0.12500000000E+03  0.12500000000E+03 0.  0.
    3000001    1    3    3    0    0  0.15650109188E+02  0.24985572974E+02 -0.18471344957E+02  0.34805105358E+02  0.10000000000E+01 0. -1.
    1000022    2    1    0    0    0  0.27797702973E+02  0.38550541365E+02 -0.39336923171E+02  0.62500001162E+02  0.10000004529E+02 0.  0.
    3000022    2    3    3    0    0  0.12147593785E+02  0.13564968391E+02 -0.20865578214E+02  0.27694895804E+02  0.24999440863E+00 0.  0.
    1000022    2    1    0    0    0 -0.27797702973E+02 -0.38550541365E+02  0.39336923171E+02  0.62499998838E+02  0.99999900028E+01 0.  0.
    3000022    2    5    5    0    0  0.31740726767E+00 -0.39392524093E+01  0.34673559003E+01  0.52634143555E+01  0.25003363834E+00 0.  0.
        -13    1    4    4    0    0  0.83994082928E+01  0.93767417893E+01 -0.14497433872E+02  0.19200519788E+02  0.10500000000E+00 0.  1.
         13    1    4    4    0    0  0.37481854923E+01  0.41882266020E+01 -0.63681443411E+01  0.84943760162E+01  0.10500000000E+00 0. -1.
    3000001    1    5    5    0    0 -0.28115110240E+02 -0.34611288956E+02  0.35869567270E+02  0.57236584482E+02  0.10000000000E+01 0.  1.
        -13    1    6    6    0    0  0.13418420948E+00 -0.21618406471E+01  0.19705982725E+01  0.29301609064E+01  0.10500000000E+00 0.  1.
         13    1    6    6    0    0  0.18322305819E+00 -0.17774117622E+01  0.14967576278E+01  0.23332534491E+01  0.10500000000E+00 0. -1.
</event>
<event>
11    0  0.3448258E-009  0.9118800E+02  0.7816531E-02  0.1126479E+00
         25   -1    0    0    0    0  0.00000000000E+00  0.00000000000E+00  0.99999998245E-14  0.12500000000E+03  0.12500000000E+03 0.  0.
    3000001    1    3    3    0    0 -0.56055539831E+01 -0.11444452224E+01  0.10753656917E+00  0.58089202472E+01  0.10000000000E+01 0.  1.
    1000022    2    1    0    0    0 -0.48476193567E+02 -0.36684639624E+02 -0.10514083840E+02  0.62499999637E+02  0.99999934284E+01 0.  0.
    3000022    2    3    3    0    0 -0.42870639584E+02 -0.35540194401E+02 -0.10621620409E+02  0.56691079390E+02  0.25001170010E+00 0.  0.
    1000022    2    1    0    0    0  0.48476193567E+02  0.36684639624E+02  0.10514083840E+02  0.62500000363E+02  0.99999979648E+01 0.  0.
    3000022    2    5    5    0    0 -0.54226282065E-01 -0.10784439331E+00  0.76761268986E+00  0.81627292401E+00  0.25000268399E+00 0.  0.
        -13    1    4    4    0    0 -0.24374439460E+02 -0.20284315198E+02 -0.60210200820E+01  0.32277398437E+02  0.10500000000E+00 0.  1.
         13    1    4    4    0    0 -0.18496200124E+02 -0.15255879203E+02 -0.46006003274E+01  0.24413680953E+02  0.10500000000E+00 0. -1.
    3000001    1    5    5    0    0  0.48530419849E+02  0.36792484017E+02  0.97464711504E+01  0.61683727439E+02  0.10000000000E+01 0.  1.
        -13    1    6    6    0    0 -0.47911290874E-01 -0.71229106556E-01  0.22802848141E+00  0.26531314658E+00  0.10500000000E+00 0.  1.
         13    1    6    6    0    0 -0.63149911917E-02 -0.36615286758E-01  0.53958420845E+00  0.55095977743E+00  0.10500000000E+00 0.  1.
</event>
<event>
11    0  0.3448258E-009  0.9118800E+02  0.7816531E-02  0.1126479E+00
         25   -1    0    0    0    0  0.00000000000E+00  0.00000000000E+00  0.99999998245E-14  0.12500000000E+03  0.12500000000E+03 0.  0.
    3000001    1    3    3    0    0  0.45192648042E+02  0.48559024177E+01 -0.34364621213E+02  0.56990195792E+02  0.10000000000E+01 0. -1.
    1000022    2    1    0    0    0  0.49218860797E+02  0.80625654440E+01 -0.36314584637E+02  0.62499999209E+02  0.99999812019E+01 0.  0.
    3000022    2    3    3    0    0  0.40262127558E+01  0.32066630263E+01 -0.19499634246E+01  0.55098034174E+01  0.24999884262E+00 0.  0.
    1000022    2    1    0    0    0 -0.49218860797E+02 -0.80625654440E+01  0.36314584637E+02  0.62500000791E+02  0.99999910859E+01 0.  0.
    3000022    2    5    5    0    0 -0.46983179940E+02 -0.86368112898E+01  0.36277040571E+02  0.59984163605E+02  0.25000859403E+00 0.  0.
        -13    1    4    4    0    0  0.24996259716E+01  0.20520286367E+01 -0.11861895782E+01  0.34463055928E+01  0.10500000000E+00 0. -1.
         13    1    4    4    0    0  0.15265867842E+01  0.11546343896E+01 -0.76377384642E+00  0.20634978246E+01  0.10500000000E+00 0.  1.
    3000001    1    5    5    0    0 -0.22356808578E+01  0.57424584578E+00  0.37544066654E-01  0.25158371860E+01  0.10000000000E+01 0.  1.
        -13    1    6    6    0    0 -0.18237245578E+02 -0.33573083219E+01  0.14004885231E+02  0.23238254684E+02  0.10500000000E+00 0. -1.
         13    1    6    6    0    0 -0.28745934362E+02 -0.52795029679E+01  0.22272155340E+02  0.36745908921E+02  0.10500000000E+00 0.  1.
</event>
<event>
11    0  0.3448258E-009  0.9118800E+02  0.7816531E-02  0.1126479E+00
         25   -1    0    0    0    0  0.00000000000E+00  0.00000000000E+00  0.99999998245E-14  0.12500000000E+03  0.12500000000E+03 0.  0.
    3000001    1    3    3    0    0 -0.26679193098E+02  0.41993209574E+02  0.18911936356E+01  0.49797445799E+02  0.10000000000E+01 0. -1.
    1000022    2    1    0    0    0 -0.34151818188E+02  0.51324051591E+02 -0.23968882218E+01  0.62499999951E+02  0.99999981739E+01 0.  0.
    3000022    2    3    3    0    0 -0.74726250901E+01  0.93308420167E+01 -0.42880818575E+01  0.12702554152E+02  0.24999500243E+00 0.  0.
    1000022    2    1    0    0    0  0.34151818188E+02 -0.51324051591E+02  0.23968882218E+01  0.62500000049E+02  0.99999987823E+01 0.  0.
    3000022    2    5    5    0    0  0.17908777689E+02 -0.27061755820E+02 -0.36804637041E+01  0.32659933574E+02  0.25000329134E+00 0.  0.
        -13    1    4    4    0    0 -0.42008855995E+01  0.53391455250E+01 -0.24682825827E+01  0.72289251390E+01  0.10500000000E+00 0. -1.
         13    1    4    4    0    0 -0.32717394906E+01  0.39916964917E+01 -0.18197992748E+01  0.54736290134E+01  0.10500000000E+00 0. -1.
    3000001    1    5    5    0    0  0.16243040500E+02 -0.24262295771E+02  0.60773519259E+01  0.29840066474E+02  0.10000000000E+01 0. -1.
        -13    1    6    6    0    0  0.47834488706E+01 -0.71999390105E+01 -0.94948239011E+00  0.86967262036E+01  0.10500000000E+00 0. -1.
         13    1    6    6    0    0  0.13125328818E+02 -0.19861816809E+02 -0.27309813140E+01  0.23963207371E+02  0.10500000000E+00 0.  1.
</event>
<event>
11    0  0.3448258E-009  0.9118800E+02  0.7816531E-02  0.1126479E+00
         25   -1    0    0    0    0  0.00000000000E+00  0.00000000000E+00  0.99999998245E-14  0.12500000000E+03  0.12500000000E+03 0.  0.
    3000001    1    3    3    0    0  0.29810390593E+02  0.85098866574E+01  0.34754323332E+02  0.46582620670E+02  0.10000000000E+01 0.  1.
    1000022    2    1    0    0    0  0.35329612491E+02  0.14298005540E+02  0.48514278755E+02  0.62500001145E+02  0.10000020939E+02 0.  0.
    3000022    2    3    3    0    0  0.55192218976E+01  0.57881188824E+01  0.13759955423E+02  0.15917380475E+02  0.24999473832E+00 0.  0.
    1000022    2    1    0    0    0 -0.35329612491E+02 -0.14298005540E+02 -0.48514278755E+02  0.62499998855E+02  0.10000006628E+02 0.  0.
    3000022    2    5    5    0    0 -0.28445398857E+02 -0.10832359770E+02 -0.31549201038E+02  0.43839426519E+02  0.24999412913E+00 0.  0.
        -13    1    4    4    0    0  0.33646173824E+01  0.36009950483E+01  0.84064521469E+01  0.97451156055E+01  0.10500000000E+00 0. -1.
         13    1    4    4    0    0  0.21546045152E+01  0.21871238341E+01  0.53535032765E+01  0.61722648690E+01  0.10500000000E+00 0.  1.
    3000001    1    5    5    0    0 -0.68842136340E+01 -0.34656457702E+01 -0.16965077717E+02  0.18660572336E+02  0.10000000000E+01 0. -1.
        -13    1    6    6    0    0 -0.11632440089E+02 -0.43889872313E+01 -0.12960610505E+02  0.17960103591E+02  0.10500000000E+00 0.  1.
         13    1    6    6    0    0 -0.16812958768E+02 -0.64433725383E+01 -0.18588590533E+02  0.25879322928E+02  0.10500000000E+00 0. -1.
</event>
<event>
11    0  0.3448258E-009  0.9118800E+02  0.7816531E-02  0.1126479E+00
         25   -1    0    0    0    0  0.00000000000E+00  0.00000000000E+00  0.99999998245E-14  0.12500000000E+03  0.12500000000E+03 0.  0.
    3000001    1    3    3    0    0  0.76111978286E+01 -0.25753890249E+02  0.22807201763E+01  0.26970259173E+02  0.10000000000E+01 0. -1.
    1000022    2    1    0    0    0  0.20226346213E+02 -0.58012883458E+02 -0.56259187555E+01  0.62499993902E+02  0.99999273848E+01 0.  0.
    3000022    2    3    3    0    0  0.12615148384E+02 -0.32258993209E+02 -0.79066389318E+01  0.35529734729E+02  0.24999821493E+00 0.  0.
    1000022    2    1    0    0    0 -0.20226346213E+02  0.58012883458E+02  0.56259187555E+01  0.62500006098E+02  0.10000003613E+02 0.  0.
    3000022    2    5    5    0    0 -0.23166847334E+01  0.56678790642E+01  0.36474840663E+01  0.71315162952E+01  0.25000682820E+00 0.  0.
        -13    1    4    4    0    0  0.68006726877E+01 -0.17536923583E+02 -0.43350049556E+01  0.19302749305E+02  0.10500000000E+00 0.  1.
         13    1    4    4    0    0  0.58144756965E+01 -0.14722069626E+02 -0.35716339762E+01  0.16226985424E+02  0.10500000000E+00 0. -1.
    3000001    1    5    5    0    0 -0.17909661480E+02  0.52345004393E+02  0.19784346892E+01  0.55368489803E+02  0.10000000000E+01 0.  1.
        -13    1    6    6    0    0 -0.15690387875E+01  0.38211941282E+01  0.23996792519E+01  0.47783776320E+01  0.10500000000E+00 0. -1.
         13    1    6    6    0    0 -0.74764594583E+00  0.18466849360E+01  0.12478048144E+01  0.23531386632E+01  0.10500000000E+00 0.  1.
</event>
<event>
11    0  0.3448258E-009  0.9118800E+02  0.7816531E-02  0.1126479E+00
         25   -1    0    0    0    0  0.00000000000E+00  0.00000000000E+00  0.99999998245E-14  0.12500000000E+03  0.12500000000E+03 0.  0.
    3000001    1    3    3    0    0  0.20664260098E+02 -0.68364365132E+01  0.25367504725E+02  0.33440376876E+02  0.10000000000E+01 0.  1.
    1000022    2    1    0    0    0  0.44885329977E+02 -0.10983806457E+02  0.40876803344E+02  0.62500000980E+02  0.10000010976E+02 0.  0.
    3000022    2    3    3    0    0  0.24221069878E+02 -0.41473699434E+01  0.15509298619E+02  0.29059624104E+02  0.25001189468E+00 0.  0.
    1000022    2    1    0    0    0 -0.44885329977E+02  0.10983806457E+02 -0.40876803344E+02  0.62499999020E+02  0.99999987229E+01 0.  0.
    3000022    2    5    5    0    0 -0.64789912185E+01  0.38650601338E+01 -0.31291761529E+01  0.81713071105E+01  0.24999890204E+00 0.  0.
        -13    1    4    4    0    0  0.77400562371E+01 -0.12742246539E+01  0.49564521878E+01  0.92795238193E+01  0.10500000000E+00 0. -1.
         13    1    4    4    0    0  0.16481013641E+02 -0.28731452896E+01  0.10552846431E+02  0.19780100285E+02  0.10500000000E+00 0.  1.
    3000001    1    5    5    0    0 -0.38406338758E+02  0.71187463228E+01 -0.37747627191E+02  0.54328691909E+02  0.10000000000E+01 0.  1.
        -13    1    6    6    0    0 -0.40352855231E+01  0.23459317983E+01 -0.19021846763E+01  0.50414538378E+01  0.10500000000E+00 0. -1.
         13    1    6    6    0    0 -0.24437056953E+01  0.15191283355E+01 -0.12269914766E+01  0.31298532727E+01  0.10500000000E+00 0.  1.
</event>
<event>
11    0  0.3448258E-009  0.9118800E+02  0.7816531E-02  0.1126479E+00
         25   -1    0    0    0    0  0.00000000000E+00  0.00000000000E+00  0.99999998245E-14  0.12500000000E+03  0.12500000000E+03 0.  0.
    3000001    1    3    3    0    0 -0.34148475417E+02  0.28864898882E+02  0.77881580835E+01  0.45397755089E+02  0.10000000000E+01 0.  1.
    1000022    2    1    0    0    0 -0.42667051874E+02  0.42249581021E+02  0.14168473187E+02  0.62500000075E+02  0.99999982425E+01 0.  0.
    3000022    2    3    3    0    0 -0.85185764572E+01  0.13384682139E+02  0.63803151038E+01  0.17102244986E+02  0.25000386179E+00 0.  0.
    1000022    2    1    0    0    0  0.42667051874E+02 -0.42249581021E+02 -0.14168473187E+02  0.62499999925E+02  0.99999973071E+01 0.  0.
    3000022    2    5    5    0    0  0.36119124604E+02 -0.39524747260E+02 -0.10967157447E+02  0.54654715161E+02  0.25007747656E+00 0.  0.
        -13    1    4    4    0    0 -0.34381573723E+01  0.54007630905E+01  0.25064977991E+01  0.68762434725E+01  0.10500000000E+00 0. -1.
         13    1    4    4    0    0 -0.50804190849E+01  0.79839190481E+01  0.38738173047E+01  0.10226001514E+02  0.10500000000E+00 0.  1.
    3000001    1    5    5    0    0  0.65479272705E+01 -0.27248337604E+01 -0.32013157405E+01  0.78452847643E+01  0.10000000000E+01 0. -1.
        -13    1    6    6    0    0  0.84466364232E+01 -0.92578035463E+01 -0.25765812627E+01  0.12794623456E+02  0.10500000000E+00 0. -1.
         13    1    6    6    0    0  0.27672488180E+02 -0.30266943714E+02 -0.83905761841E+01  0.41860091705E+02  0.10500000000E+00 0.  1.
</event>
<event>
11    0  0.3448258E-009  0.9118800E+02  0.7816531E-02  0.1126479E+00
         25   -1    0    0    0    0  0.00000000000E+00  0.00000000000E+00  0.99999998245E-14  0.12500000000E+03  0.12500000000E+03 0.  0.
    3000001    1    3    3    0    0  0.81358730850E+01  0.20317424179E+02  0.75888347808E+01  0.23185783779E+02  0.10000000000E+01 0. -1.
    1000022    2    1    0    0    0  0.33014548796E+02  0.48377221719E+02  0.19389001086E+02  0.62499994552E+02  0.99999971208E+01 0.  0.
    3000022    2    3    3    0    0  0.24878675711E+02  0.28059797540E+02  0.11800166306E+02  0.39314210772E+02  0.25000145547E+00 0.  0.
    1000022    2    1    0    0    0 -0.33014548796E+02 -0.48377221719E+02 -0.19389001086E+02  0.62500005448E+02  0.10000065224E+02 0.  0.
    3000022    2    5    5    0    0 -0.31987207398E+02 -0.47533931891E+02 -0.17341185051E+02  0.59861801780E+02  0.24999048893E+00 0.  0.
        -13    1    4    4    0    0  0.17716183588E+02  0.19968052858E+02  0.84430974451E+01  0.27997914482E+02  0.10500000000E+00 0.  1.
         13    1    4    4    0    0  0.71624921229E+01  0.80917446820E+01  0.33570688605E+01  0.11316296291E+02  0.10500000000E+00 0. -1.
    3000001    1    5    5    0    0 -0.10273413983E+01 -0.84328982815E+00 -0.20478160354E+01  0.26382036687E+01  0.10000000000E+01 0. -1.
        -13    1    6    6    0    0 -0.94329488698E+01 -0.13960460628E+02 -0.50677286211E+01  0.17594541304E+02  0.10500000000E+00 0. -1.
         13    1    6    6    0    0 -0.22554258528E+02 -0.33573471263E+02 -0.12273456430E+02  0.42267260475E+02  0.10500000000E+00 0.  1.
</event>
<event>
11    0  0.3448258E-009  0.9118800E+02  0.7816531E-02  0.1126479E+00
         25   -1    0    0    0    0  0.00000000000E+00  0.00000000000E+00  0.99999998245E-14  0.12500000000E+03  0.12500000000E+03 0.  0.
    3000001    1    3    3    0    0  0.99342644224E+01 -0.30499839222E+02  0.30557596335E+02  0.44313615243E+02  0.10000000000E+01 0.  1.
    1000022    2    1    0    0    0  0.91577112958E+01 -0.40100921652E+02  0.45981544684E+02  0.62499997857E+02  0.99999843538E+01 0.  0.
    3000022    2    3    3    0    0 -0.77655312654E+00 -0.96010824299E+01  0.15423948349E+02  0.18186382614E+02  0.25002259844E+00 0.  0.
    1000022    2    1    0    0    0 -0.91577112958E+01  0.40100921652E+02 -0.45981544684E+02  0.62500002143E+02  0.10000011143E+02 0.  0.
    3000022    2    5    5    0    0 -0.13470546168E+01  0.20477631735E-01 -0.77917899047E+00  0.15762611639E+01  0.25000776694E+00 0.  0.
        -13    1    4    4    0    0 -0.52301783894E+00 -0.63045687157E+01  0.10229820611E+02  0.12028357705E+02  0.10500000000E+00 0.  1.
         13    1    4    4    0    0 -0.25353528760E+00 -0.32965137142E+01  0.51941277389E+01  0.61580249089E+01  0.10500000000E+00 0. -1.
    3000001    1    5    5    0    0 -0.78106566790E+01  0.40080444020E+02 -0.45202365694E+02  0.60923740979E+02  0.10000000000E+01 0.  1.
        -13    1    6    6    0    0 -0.71753994650E+00  0.73950692929E-01 -0.44196259723E+00  0.85246009711E+00  0.10500000000E+00 0.  1.
         13    1    6    6    0    0 -0.62951467031E+00 -0.53473061193E-01 -0.33721639324E+00  0.72380106679E+00  0.10500000000E+00 0. -1.
</event>
<event>
11    0  0.3448258E-009  0.9118800E+02  0.7816531E-02  0.1126479E+00
         25   -1    0    0    0    0  0.00000000000E+00  0.00000000000E+00  0.99999998245E-14  0.12500000000E+03  0.12500000000E+03 0.  0.
    3000001    1    3    3    0    0  0.72790733884E+01  0.74019609489E+01  0.51669021955E+01  0.11639192995E+02  0.10000000000E+01 0.  1.
    1000022    2    1    0    0    0  0.52137451596E+02  0.27833261023E+02  0.17698748529E+02  0.62500000924E+02  0.10000006899E+02 0.  0.
    3000022    2    3    3    0    0  0.44858378208E+02  0.20431300074E+02  0.12531846333E+02  0.50860807929E+02  0.24998510449E+00 0.  0.
    1000022    2    1    0    0    0 -0.52137451596E+02 -0.27833261023E+02 -0.17698748529E+02  0.62499999076E+02  0.99999953455E+01 0.  0.
    3000022    2    5    5    0    0 -0.17961825233E+02 -0.11054192003E+02 -0.16037412160E+01  0.21153175076E+02  0.25000674555E+00 0.  0.
        -13    1    4    4    0    0  0.12674279937E+02  0.57717952570E+01  0.35825385964E+01  0.14380424201E+02  0.10500000000E+00 0.  1.
         13    1    4    4    0    0  0.32184098271E+02  0.14659504817E+02  0.89493077366E+01  0.36480383728E+02  0.10500000000E+00 0. -1.
    3000001    1    5    5    0    0 -0.34175626363E+02 -0.16779069020E+02 -0.16095007312E+02  0.41346824000E+02  0.10000000000E+01 0. -1.
        -13    1    6    6    0    0 -0.87908597842E+01 -0.54755478554E+01 -0.74877064277E+00  0.10384243956E+02  0.10500000000E+00 0. -1.
         13    1    6    6    0    0 -0.91709654489E+01 -0.55786441472E+01 -0.85497057326E+00  0.10768931120E+02  0.10500000000E+00 0.  1.
</event>
<event>
11    0  0.3448258E-009  0.9118800E+02  0.7816531E-02  0.1126479E+00
         25   -1    0    0    0    0  0.00000000000E+00  0.00000000000E+00  0.99999998245E-14  0.12500000000E+03  0.12500000000E+03 0.  0.
    3000001    1    3    3    0    0  0.12972223602E+01  0.55534151074E+01 -0.17257759876E+02  0.18203117347E+02  0.10000000000E+01 0.  1.
    1000022    2    1    0    0    0 -0.76442922635E+01  0.27336042144E+02 -0.54777327308E+02  0.62500001632E+02  0.10000010633E+02 0.  0.
    3000022    2    3    3    0    0 -0.89415146237E+01  0.21782627036E+02 -0.37519567432E+02  0.44296884285E+02  0.24998537100E+00 0.  0.
    1000022    2    1    0    0    0  0.76442922635E+01 -0.27336042144E+02  0.54777327308E+02  0.62499998368E+02  0.99999902334E+01 0.  0.
    3000022    2    5    5    0    0  0.21269406147E+01 -0.22362400775E+02  0.43514342621E+02  0.48971025689E+02  0.24999699918E+00 0.  0.
        -13    1    4    4    0    0 -0.56841469809E+01  0.13987830674E+02 -0.24015682646E+02  0.28367815775E+02  0.10500000000E+00 0. -1.
         13    1    4    4    0    0 -0.32573676428E+01  0.77947963624E+01 -0.13503884786E+02  0.15929068510E+02  0.10500000000E+00 0.  1.
    3000001    1    5    5    0    0  0.55173516489E+01 -0.49736413683E+01  0.11262984688E+02  0.13528972679E+02  0.10000000000E+01 0. -1.
        -13    1    6    6    0    0  0.65586223403E+00 -0.74603785148E+01  0.14502745558E+02  0.16322624071E+02  0.10500000000E+00 0.  1.
         13    1    6    6    0    0  0.14710783806E+01 -0.14902022261E+02  0.29011597062E+02  0.32648401617E+02  0.10500000000E+00 0. -1.
</event>
<event>
11    0  0.3448258E-009  0.9118800E+02  0.7816531E-02  0.1126479E+00
         25   -1    0    0    0    0  0.00000000000E+00  0.00000000000E+00  0.99999998245E-14  0.12500000000E+03  0.12500000000E+03 0.  0.
    3000001    1    3    3    0    0 -0.88194772136E+01  0.96408544983E+01  0.13699212376E+02  0.18957786619E+02  0.10000000000E+01 0.  1.
    1000022    2    1    0    0    0 -0.27324485102E+02  0.42692049890E+02  0.35171171304E+02  0.62500000114E+02  0.10000005674E+02 0.  0.
    3000022    2    3    3    0    0 -0.18505007888E+02  0.33051195392E+02  0.21471958928E+02  0.43542213495E+02  0.25000413046E+00 0.  0.
    1000022    2    1    0    0    0  0.27324485102E+02 -0.42692049890E+02 -0.35171171304E+02  0.62499999886E+02  0.10000004247E+02 0.  0.
    3000022    2    5    5    0    0  0.11430272580E+01 -0.76675820590E+01 -0.35683964138E+01  0.85378143997E+01  0.24999162787E+00 0.  0.
        -13    1    4    4    0    0 -0.89824263087E+01  0.16035235178E+02  0.10496384855E+02  0.21165960163E+02  0.10500000000E+00 0. -1.
         13    1    4    4    0    0 -0.95225815797E+01  0.17015960214E+02  0.10975574073E+02  0.22376253332E+02  0.10500000000E+00 0.  1.
    3000001    1    5    5    0    0  0.26181457844E+02 -0.35024467831E+02 -0.31602774890E+02  0.53962185486E+02  0.10000000000E+01 0. -1.
        -13    1    6    6    0    0  0.26974547326E+00 -0.18439592999E+01 -0.87981179410E+00  0.20635024384E+01  0.10500000000E+00 0.  1.
         13    1    6    6    0    0  0.87328178473E+00 -0.58236227591E+01 -0.26885846197E+01  0.64743119613E+01  0.10500000000E+00 0. -1.
</event>
<event>
11    0  0.3448258E-009  0.9118800E+02  0.7816531E-02  0.1126479E+00
         25   -1    0    0    0    0  0.00000000000E+00  0.00000000000E+00  0.99999998245E-14  0.12500000000E+03  0.12500000000E+03 0.  0.
    3000001    1    3    3    0    0 -0.16137513810E+01  0.55364587925E+02 -0.54599077422E+01  0.55665540348E+02  0.10000000000E+01 0.  1.
    1000022    2    1    0    0    0 -0.31276609768E+00  0.61026429256E+02 -0.90513396723E+01  0.62500003891E+02  0.10000042312E+02 0.  0.
    3000022    2    3    3    0    0  0.13009852833E+01  0.56618413302E+01 -0.35914319301E+01  0.68344635435E+01  0.24999732686E+00 0.  0.
    1000022    2    1    0    0    0  0.31276609768E+00 -0.61026429256E+02  0.90513396723E+01  0.62499996109E+02  0.99999936694E+01 0.  0.
    3000022    2    5    5    0    0 -0.25665038906E+01 -0.47677688893E+02  0.40343833900E+01  0.47917509515E+02  0.25001663184E+00 0.  0.
        -13    1    4    4    0    0  0.98024709280E+00  0.43225700078E+01 -0.27515324261E+01  0.52179930555E+01  0.10500000000E+00 0. -1.
         13    1    4    4    0    0  0.32073819054E+00  0.13392713223E+01 -0.83989950404E+00  0.16164704880E+01  0.10500000000E+00 0.  1.
    3000001    1    5    5    0    0  0.28792699882E+01 -0.13348740362E+02  0.50169562823E+01  0.14582486594E+02  0.10000000000E+01 0. -1.
        -13    1    6    6    0    0 -0.94393380092E+00 -0.18121148728E+02  0.14809884943E+01  0.18206355873E+02  0.10500000000E+00 0.  1.
         13    1    6    6    0    0 -0.16225700896E+01 -0.29556540165E+02  0.25533948958E+01  0.29711153642E+02  0.10500000000E+00 0. -1.
</event>
<event>
11    0  0.3448258E-009  0.9118800E+02  0.7816531E-02  0.1126479E+00
         25   -1    0    0    0    0  0.00000000000E+00  0.00000000000E+00  0.99999998245E-14  0.12500000000E+03  0.12500000000E+03 0.  0.
    3000001    1    3    3    0    0  0.41909980487E+02  0.28656118390E+01  0.16721073869E+02  0.45224468012E+02  0.10000000000E+01 0.  1.
    1000022    2    1    0    0    0  0.55217592959E+02  0.85401056516E+01  0.26159776372E+02  0.62500000430E+02  0.10000008862E+02 0.  0.
    3000022    2    3    3    0    0  0.13307612471E+02  0.56744938126E+01  0.94387025031E+01  0.17275532418E+02  0.24997131789E+00 0.  0.
    1000022    2    1    0    0    0 -0.55217592959E+02 -0.85401056516E+01 -0.26159776372E+02  0.62499999570E+02  0.10000003487E+02 0.  0.
    3000022    2    5    5    0    0 -0.52239048236E+02 -0.66605794396E+01 -0.22328254830E+02  0.57200480274E+02  0.25000149640E+00 0.  0.
        -13    1    4    4    0    0  0.35568667149E+01  0.15492903965E+01  0.25537713616E+01  0.46458986996E+01  0.10500000000E+00 0. -1.
         13    1    4    4    0    0  0.97507457564E+01  0.41252034162E+01  0.68849311416E+01  0.12629633718E+02  0.10500000000E+00 0.  1.
    3000001    1    5    5    0    0 -0.29785447232E+01 -0.18795262120E+01 -0.38315215414E+01  0.52995192963E+01  0.10000000000E+01 0.  1.
        -13    1    6    6    0    0 -0.26371127209E+02 -0.33680082827E+01 -0.11345375191E+02  0.28905162053E+02  0.10500000000E+00 0.  1.
         13    1    6    6    0    0 -0.25867921026E+02 -0.32925711569E+01 -0.10982879639E+02  0.28295318221E+02  0.10500000000E+00 0. -1.
</event>
<event>
11    0  0.3448258E-009  0.9118800E+02  0.7816531E-02  0.1126479E+00
         25   -1    0    0    0    0  0.00000000000E+00  0.00000000000E+00  0.99999998245E-14  0.12500000000E+03  0.12500000000E+03 0.  0.
    3000001    1    3    3    0    0 -0.48771563608E+02 -0.11668754611E+02 -0.24286560583E+02  0.55728469169E+02  0.10000000000E+01 0.  1.
    1000022    2    1    0    0    0 -0.55090231569E+02 -0.99049570326E+01 -0.25946258835E+02  0.62500001092E+02  0.10000000038E+02 0.  0.
    3000022    2    3    3    0    0 -0.63186679606E+01  0.17637975786E+01 -0.16596982526E+01  0.67715319226E+01  0.24999918832E+00 0.  0.
    1000022    2    1    0    0    0  0.55090231569E+02  0.99049570326E+01  0.25946258835E+02  0.62499998908E+02  0.99999863938E+01 0.  0.
    3000022    2    5    5    0    0  0.90862924906E+01  0.23257567466E+01  0.55055440731E+00  0.93986948653E+01  0.24999869080E+00 0.  0.
        -13    1    4    4    0    0 -0.47978209710E+01  0.13420289259E+01 -0.12802275687E+01  0.51449135401E+01  0.10500000000E+00 0. -1.
         13    1    4    4    0    0 -0.15208469896E+01  0.42176865263E+00 -0.37947068393E+00  0.16266183824E+01  0.10500000000E+00 0.  1.
    3000001    1    5    5    0    0  0.46003939078E+02  0.75792002860E+01  0.25395704428E+02  0.53101304043E+02  0.10000000000E+01 0.  1.
        -13    1    6    6    0    0  0.49337962349E+01  0.13100889653E+01  0.25069594902E+00  0.51120007672E+01  0.10500000000E+00 0. -1.
         13    1    6    6    0    0  0.41524962557E+01  0.10156677813E+01  0.29985845828E+00  0.42866940981E+01  0.10500000000E+00 0.  1.
</event>
<event>
11    0  0.3448258E-009  0.9118800E+02  0.7816531E-02  0.1126479E+00
         25   -1    0    0    0    0  0.00000000000E+00  0.00000000000E+00  0.99999998245E-14  0.12500000000E+03  0.12500000000E+03 0.  0.
    3000001    1    3    3    0    0  0.28982338897E+02  0.76552879751E+01 -0.41605126151E+02  0.51289042924E+02  0.10000000000E+01 0.  1.
    1000022    2    1    0    0    0  0.36166142840E+02  0.48694111364E+01 -0.49744839474E+02  0.62500001074E+02  0.10000001355E+02 0.  0.
    3000022    2    3    3    0    0  0.71838039430E+01 -0.27858768387E+01 -0.81397133230E+01  0.11210958150E+02  0.25000162019E+00 0.  0.
    1000022    2    1    0    0    0 -0.36166142840E+02 -0.48694111364E+01  0.49744839474E+02  0.62499998926E+02  0.99999879342E+01 0.  0.
    3000022    2    5    5    0    0 -0.30913335328E+02 -0.28341973446E+01  0.46535456438E+02  0.55939951562E+02  0.24999843191E+00 0.  0.
        -13    1    4    4    0    0  0.39517059961E+01 -0.16036151083E+01 -0.44974160795E+01  0.61988174749E+01  0.10500000000E+00 0. -1.
         13    1    4    4    0    0  0.32320979469E+01 -0.11822617305E+01 -0.36422972435E+01  0.50121406751E+01  0.10500000000E+00 0.  1.
    3000001    1    5    5    0    0 -0.52528075129E+01 -0.20352137918E+01  0.32093830363E+01  0.65600473641E+01  0.10000000000E+01 0.  1.
        -13    1    6    6    0    0 -0.14449737948E+02 -0.13907970330E+01  0.21734807099E+02  0.26136987351E+02  0.10500000000E+00 0. -1.
         13    1    6    6    0    0 -0.16463597379E+02 -0.14434003116E+01  0.24800649339E+02  0.29802964211E+02  0.10500000000E+00 0.  1.
</event>
<event>
11    0  0.3448258E-009  0.9118800E+02  0.7816531E-02  0.1126479E+00
         25   -1    0    0    0    0  0.00000000000E+00  0.00000000000E+00  0.99999998245E-14  0.12500000000E+03  0.12500000000E+03 0.  0.
    3000001    1    3    3    0    0 -0.17394511407E+02 -0.10229355031E+02 -0.96207898351E+00  0.20227069175E+02  0.10000000000E+01 0.  1.
    1000022    2    1    0    0    0 -0.44615501448E+02 -0.42305124517E+02 -0.50973996440E+01  0.62499999630E+02  0.99999970383E+01 0.  0.
    3000022    2    3    3    0    0 -0.27220990041E+02 -0.32075769486E+02 -0.41353206605E+01  0.42272930455E+02  0.24997070899E+00 0.  0.
    1000022    2    1    0    0    0  0.44615501448E+02  0.42305124517E+02  0.50973996440E+01  0.62500000370E+02  0.10000001659E+02 0.  0.
    3000022    2    5    5    0    0  0.28662547600E+02  0.23852910914E+02 -0.11232358111E+01  0.37307199239E+02  0.24992475329E+00 0.  0.
        -13    1    4    4    0    0 -0.81687807683E+01 -0.96190990280E+01 -0.11947029494E+01  0.12676528921E+02  0.10500000000E+00 0. -1.
         13    1    4    4    0    0 -0.19052209273E+02 -0.22456670458E+02 -0.29406177111E+01  0.29596401534E+02  0.10500000000E+00 0.  1.
    3000001    1    5    5    0    0  0.15952953848E+02  0.18452213603E+02  0.62206354551E+01  0.25192801130E+02  0.10000000000E+01 0.  1.
        -13    1    6    6    0    0  0.22091616216E+02  0.18386943497E+02 -0.86848409628E+00  0.28755599243E+02  0.10500000000E+00 0.  1.
         13    1    6    6    0    0  0.65709313844E+01  0.54659674173E+01 -0.25475171481E+00  0.85515999966E+01  0.10500000000E+00 0. -1.
</event>
<event>
11    0  0.3448258E-009  0.9118800E+02  0.7816531E-02  0.1126479E+00
         25   -1    0    0    0    0  0.00000000000E+00  0.00000000000E+00  0.99999998245E-14  0.12500000000E+03  0.12500000000E+03 0.  0.
    3000001    1    3    3    0    0  0.37387403590E+01 -0.40659659149E+01 -0.29806989581E+01  0.63556922969E+01  0.10000000000E+01 0.  1.
    1000022    2    1    0    0    0  0.47191194060E+02 -0.39618608826E+02 -0.30994287125E+01  0.62499995137E+02  0.99999985856E+01 0.  0.
    3000022    2    3    3    0    0  0.43452453701E+02 -0.35552642911E+02 -0.11872975443E+00  0.56144302840E+02  0.24998819030E+00 0.  0.
    1000022    2    1    0    0    0 -0.47191194060E+02  0.39618608826E+02  0.30994287125E+01  0.62500004863E+02  0.10000059370E+02 0.  0.
    3000022    2    5    5    0    0 -0.23542094472E+01  0.42042264131E+01 -0.17901351486E+01  0.51463519226E+01  0.25006480516E+00 0.  0.
        -13    1    4    4    0    0  0.19902982934E+02 -0.16205885230E+02 -0.82154549354E-01  0.25666655803E+02  0.10500000000E+00 0.  1.
         13    1    4    4    0    0  0.23549470767E+02 -0.19346757681E+02 -0.36575205075E-01  0.30477647037E+02  0.10500000000E+00 0. -1.
    3000001    1    5    5    0    0 -0.44836984613E+02  0.35414382413E+02  0.48895638611E+01  0.57353652940E+02  0.10000000000E+01 0. -1.
        -13    1    6    6    0    0 -0.15857152881E+01  0.27456473888E+01 -0.12152292596E+01  0.33971870293E+01  0.10500000000E+00 0. -1.
         13    1    6    6    0    0 -0.76849415911E+00  0.14585790243E+01 -0.57490588900E+00  0.17491648933E+01  0.10500000000E+00 0.  1.
</event>
<event>
11    0  0.3448258E-009  0.9118800E+02  0.7816531E-02  0.1126479E+00
         25   -1    0    0    0    0  0.00000000000E+00  0.00000000000E+00  0.99999998245E-14  0.12500000000E+03  0.12500000000E+03 0.  0.
    3000001    1    3    3    0    0  0.18664101062E+02 -0.28929574197E+02  0.15693714647E+02  0.37849195646E+02  0.10000000000E+01 0. -1.
    1000022    2    1    0    0    0  0.23647403343E+02 -0.51193755749E+02  0.25024980325E+02  0.62499998844E+02  0.99999951342E+01 0.  0.
    3000022    2    3    3    0    0  0.49833022817E+01 -0.22264181552E+02  0.93312656782E+01  0.24650803198E+02  0.24999466036E+00 0.  0.
    1000022    2    1    0    0    0 -0.23647403343E+02  0.51193755749E+02 -0.25024980325E+02  0.62500001156E+02  0.10000009583E+02 0.  0.
    3000022    2    5    5    0    0 -0.17770851150E+02  0.43781889868E+02 -0.23808703007E+02  0.52910999538E+02  0.25000448457E+00 0.  0.
        -13    1    4    4    0    0  0.29350437405E+01 -0.13259417731E+02  0.54949149979E+01  0.14650315906E+02  0.10500000000E+00 0. -1.
         13    1    4    4    0    0  0.20482585412E+01 -0.90047638213E+01  0.38363506803E+01  0.10000487292E+02  0.10500000000E+00 0.  1.
    3000001    1    5    5    0    0 -0.58765521930E+01  0.74118658806E+01 -0.12162773189E+01  0.95890016178E+01  0.10000000000E+01 0.  1.
        -13    1    6    6    0    0 -0.89232561868E+01  0.21828870779E+02 -0.11843910583E+02  0.26389644624E+02  0.10500000000E+00 0. -1.
         13    1    6    6    0    0 -0.88475949635E+01  0.21953019089E+02 -0.11964792424E+02  0.26521354914E+02  0.10500000000E+00 0.  1.
</event>
<event>
11    0  0.3448258E-009  0.9118800E+02  0.7816531E-02  0.1126479E+00
         25   -1    0    0    0    0  0.00000000000E+00  0.00000000000E+00  0.99999998245E-14  0.12500000000E+03  0.12500000000E+03 0.  0.
    3000001    1    3    3    0    0 -0.60480813787E+01 -0.32012800812E+02  0.70402751701E+01  0.33346126892E+02  0.10000000000E+01 0. -1.
    1000022    2    1    0    0    0 -0.17661277697E+02 -0.58748251937E+02  0.65553215807E+01  0.62500000646E+02  0.10000000206E+02 0.  0.
    3000022    2    3    3    0    0 -0.11613196318E+02 -0.26735451125E+02 -0.48495358935E+00  0.29153873754E+02  0.24999860354E+00 0.  0.
    1000022    2    1    0    0    0  0.17661277697E+02  0.58748251937E+02 -0.65553215807E+01  0.62499999354E+02  0.99999921368E+01 0.  0.
    3000022    2    5    5    0    0  0.17694084699E+02  0.46945580133E+02 -0.69459089543E+01  0.50648556551E+02  0.25000438910E+00 0.  0.
        -13    1    4    4    0    0 -0.39745716394E+01 -0.91736016361E+01 -0.11181887204E+00  0.99987856840E+01  0.10500000000E+00 0.  1.
         13    1    4    4    0    0 -0.76386246785E+01 -0.17561849489E+02 -0.37313471731E+00  0.19155088070E+02  0.10500000000E+00 0. -1.
    3000001    1    5    5    0    0 -0.32807002195E-01  0.11802671805E+02  0.39058737358E+00  0.11851442803E+02  0.10000000000E+01 0.  1.
        -13    1    6    6    0    0  0.63798413788E+01  0.16767629290E+02 -0.24703247214E+01  0.18109922619E+02  0.10500000000E+00 0. -1.
         13    1    6    6    0    0  0.11314243320E+02  0.30177950842E+02 -0.44755842329E+01  0.32538633932E+02  0.10500000000E+00 0.  1.
</event>
<event>
11    0  0.3448258E-009  0.9118800E+02  0.7816531E-02  0.1126479E+00
         25   -1    0    0    0    0  0.00000000000E+00  0.00000000000E+00  0.99999998245E-14  0.12500000000E+03  0.12500000000E+03 0.  0.
    3000001    1    3    3    0    0  0.25848573742E+02 -0.35239578658E+02 -0.12956402439E+02  0.45594353079E+02  0.10000000000E+01 0. -1.
    1000022    2    1    0    0    0  0.35021283295E+02 -0.45295137888E+02 -0.22980648862E+02  0.62499999586E+02  0.99999963124E+01 0.  0.
    3000022    2    3    3    0    0  0.91727095532E+01 -0.10055559230E+02 -0.10024246423E+02  0.16905646508E+02  0.24999105566E+00 0.  0.
    1000022    2    1    0    0    0 -0.35021283295E+02  0.45295137888E+02  0.22980648862E+02  0.62500000414E+02  0.10000001481E+02 0.  0.
    3000022    2    5    5    0    0 -0.17601376082E+02  0.23989987424E+02  0.17174206462E+02  0.34356131153E+02  0.24988720959E+00 0.  0.
        -13    1    4    4    0    0  0.51347320431E+01 -0.56743665132E+01 -0.55632976942E+01  0.94617765095E+01  0.10500000000E+00 0. -1.
         13    1    4    4    0    0  0.40379775101E+01 -0.43811927167E+01 -0.44609487284E+01  0.74438699982E+01  0.10500000000E+00 0.  1.
    3000001    1    5    5    0    0 -0.17419907213E+02  0.21305150464E+02  0.58064423999E+01  0.28143869260E+02  0.10000000000E+01 0.  1.
        -13    1    6    6    0    0 -0.10594362894E+02  0.14367332930E+02  0.10250166201E+02  0.20584890400E+02  0.10500000000E+00 0. -1.
         13    1    6    6    0    0 -0.70070131887E+01  0.96226544943E+01  0.69240402607E+01  0.13771240753E+02  0.10500000000E+00 0.  1.
</event>
<event>
11    0  0.3448258E-009  0.9118800E+02  0.7816531E-02  0.1126479E+00
         25   -1    0    0    0    0  0.00000000000E+00  0.00000000000E+00  0.99999998245E-14  0.12500000000E+03  0.12500000000E+03 0.  0.
    3000001    1    3    3    0    0 -0.42913157853E+02  0.14178664952E+02 -0.24081636008E+02  0.51220102006E+02  0.10000000000E+01 0. -1.
    1000022    2    1    0    0    0 -0.54041338336E+02  0.15272498809E+02 -0.25544757049E+02  0.62499999496E+02  0.99999927665E+01 0.  0.
    3000022    2    3    3    0    0 -0.11128180483E+02  0.10938338565E+01 -0.14631210408E+01  0.11279897489E+02  0.24998165405E+00 0.  0.
    1000022    2    1    0    0    0  0.54041338336E+02 -0.15272498809E+02  0.25544757049E+02  0.62500000504E+02  0.99999990682E+01 0.  0.
    3000022    2    5    5    0    0  0.51821594261E+02 -0.14038823225E+02  0.26126313692E+02  0.59709404272E+02  0.25000416807E+00 0.  0.
        -13    1    4    4    0    0 -0.63860987212E+01  0.56249942132E+00 -0.84585992018E+00  0.64672379329E+01  0.10500000000E+00 0.  1.
         13    1    4    4    0    0 -0.47420817617E+01  0.53133443513E+00 -0.61726112064E+00  0.48126595566E+01  0.10500000000E+00 0. -1.
    3000001    1    5    5    0    0  0.22197440742E+01 -0.12336755831E+01 -0.58155664307E+00  0.27905962317E+01  0.10000000000E+01 0. -1.
        -13    1    6    6    0    0  0.28861825309E+02 -0.78572568051E+01  0.14616946054E+02  0.33292755693E+02  0.10500000000E+00 0.  1.
         13    1    6    6    0    0  0.22959768953E+02 -0.61815664204E+01  0.11509367638E+02  0.26416648580E+02  0.10500000000E+00 0. -1.
</event>
<event>
11    0  0.3448258E-009  0.9118800E+02  0.7816531E-02  0.1126479E+00
         25   -1    0    0    0    0  0.00000000000E+00  0.00000000000E+00  0.99999998245E-14  0.12500000000E+03  0.12500000000E+03 0.  0.
    3000001    1    3    3    0    0 -0.19575345153E+02  0.52181261958E+02 -0.66515606243E+01  0.56136632391E+02  0.10000000000E+01 0. -1.
    1000022    2    1    0    0    0 -0.22260175530E+02  0.57387128060E+02 -0.41775772421E+01  0.62500000107E+02  0.99999990069E+01 0.  0.
    3000022    2    3    3    0    0 -0.26848303770E+01  0.52058661015E+01  0.24739833822E+01  0.63633677160E+01  0.24999778831E+00 0.  0.
    1000022    2    1    0    0    0  0.22260175530E+02 -0.57387128060E+02  0.41775772421E+01  0.62499999893E+02  0.99999976709E+01 0.  0.
    3000022    2    5    5    0    0  0.15158660278E+02 -0.25423794983E+02  0.17836912090E+01  0.29654652116E+02  0.25001006364E+00 0.  0.
        -13    1    4    4    0    0 -0.84909111201E+00  0.17225689738E+01  0.76932003514E+00  0.20714917095E+01  0.10500000000E+00 0.  1.
         13    1    4    4    0    0 -0.18357392650E+01  0.34832971277E+01  0.17046633470E+01  0.42918760065E+01  0.10500000000E+00 0. -1.
    3000001    1    5    5    0    0  0.71015152527E+01 -0.31963333077E+02  0.23938860332E+01  0.32845347777E+02  0.10000000000E+01 0.  1.
        -13    1    6    6    0    0  0.45259078994E+01 -0.76386159196E+01  0.57385171422E+00  0.88979001046E+01  0.10500000000E+00 0. -1.
         13    1    6    6    0    0  0.10632752378E+02 -0.17785179064E+02  0.12098394948E+01  0.20756752012E+02  0.10500000000E+00 0.  1.
</event>
<event>
11    0  0.3448258E-009  0.9118800E+02  0.7816531E-02  0.1126479E+00
         25   -1    0    0    0    0  0.00000000000E+00  0.00000000000E+00  0.99999998245E-14  0.12500000000E+03  0.12500000000E+03 0.  0.
    3000001    1    3    3    0    0  0.32155707072E+01  0.11442276902E+01 -0.27709742074E+02  0.27937053492E+02  0.10000000000E+01 0.  1.
    1000022    2    1    0    0    0  0.11280336850E+02 -0.74835962048E+01 -0.60191356292E+02  0.62500004070E+02  0.10000046246E+02 0.  0.
    3000022    2    3    3    0    0  0.80647661429E+01 -0.86278238949E+01 -0.32481614218E+02  0.34562950579E+02  0.24998482822E+00 0.  0.
    1000022    2    1    0    0    0 -0.11280336850E+02  0.74835962048E+01  0.60191356292E+02  0.62499995930E+02  0.99999953656E+01 0.  0.
    3000022    2    5    5    0    0  0.11629364697E+00 -0.10355288635E+01  0.60591094551E+00  0.12310480378E+01  0.25001391558E+00 0.  0.
        -13    1    4    4    0    0  0.43440465032E+01 -0.46470158123E+01 -0.17298477858E+02  0.18431328145E+02  0.10500000000E+00 0. -1.
         13    1    4    4    0    0  0.37207196397E+01 -0.39808080826E+01 -0.15183136360E+02  0.16131622434E+02  0.10500000000E+00 0.  1.
    3000001    1    5    5    0    0 -0.11396630497E+02  0.85191250683E+01  0.59585445346E+02  0.61268947892E+02  0.10000000000E+01 0. -1.
        -13    1    6    6    0    0  0.93202196449E-01 -0.58002291731E+00  0.27030716542E+00  0.65513677786E+00  0.10500000000E+00 0. -1.
         13    1    6    6    0    0  0.23091450517E-01 -0.45550594623E+00  0.33560378010E+00  0.57591125997E+00  0.10500000000E+00 0.  1.
</event>
<event>
11    0  0.3448258E-009  0.9118800E+02  0.7816531E-02  0.1126479E+00
         25   -1    0    0    0    0  0.00000000000E+00  0.00000000000E+00  0.99999998245E-14  0.12500000000E+03  0.12500000000E+03 0.  0.
    3000001    1    3    3    0    0  0.29789901845E+02 -0.27594780877E+01  0.10071091666E+02  0.31582904530E+02  0.10000000000E+01 0. -1.
    1000022    2    1    0    0    0  0.54605702173E+02 -0.35566874719E+01  0.28492405642E+02  0.62500000132E+02  0.10000005080E+02 0.  0.
    3000022    2    3    3    0    0  0.24815800328E+02 -0.79720938418E+00  0.18421313977E+02  0.30917095601E+02  0.25000613509E+00 0.  0.
    1000022    2    1    0    0    0 -0.54605702173E+02  0.35566874719E+01 -0.28492405642E+02  0.62499999868E+02  0.10000003432E+02 0.  0.
    3000022    2    5    5    0    0 -0.39484903810E+02  0.37486931522E+01 -0.15663401205E+02  0.42644049521E+02  0.24998609836E+00 0.  0.
        -13    1    4    4    0    0  0.74804888271E+01 -0.28369370316E+00  0.55743385614E+01  0.93339418580E+01  0.10500000000E+00 0.  1.
         13    1    4    4    0    0  0.17335311501E+02 -0.51351568102E+00  0.12846975415E+02  0.21583153743E+02  0.10500000000E+00 0. -1.
    3000001    1    5    5    0    0 -0.15120798363E+02 -0.19200568030E+00 -0.12829004437E+02  0.19855950347E+02  0.10000000000E+01 0. -1.
        -13    1    6    6    0    0 -0.94240103415E+01  0.91300164029E+00 -0.37401818605E+01  0.10180644786E+02  0.10500000000E+00 0. -1.
         13    1    6    6    0    0 -0.30060893468E+02  0.28356915119E+01 -0.11923219345E+02  0.32463404735E+02  0.10500000000E+00 0.  1.
</event>
<event>
11    0  0.3448258E-009  0.9118800E+02  0.7816531E-02  0.1126479E+00
         25   -1    0    0    0    0  0.00000000000E+00  0.00000000000E+00  0.99999998245E-14  0.12500000000E+03  0.12500000000E+03 0.  0.
    3000001    1    3    3    0    0 -0.45725150868E+01  0.83850252425E+01 -0.11567598554E+02  0.15034157071E+02  0.10000000000E+01 0.  1.
    1000022    2    1    0    0    0 -0.19169415650E+01  0.38018721281E+02 -0.48550507953E+02  0.62499998513E+02  0.10000007945E+02 0.  0.
    3000022    2    3    3    0    0  0.26555735218E+01  0.29633696038E+02 -0.36982909399E+02  0.47465841442E+02  0.25000917167E+00 0.  0.
    1000022    2    1    0    0    0  0.19169415650E+01 -0.38018721281E+02  0.48550507953E+02  0.62500001487E+02  0.10000026528E+02 0.  0.
    3000022    2    5    5    0    0 -0.33033590688E+00 -0.33958449806E+02  0.45787030338E+02  0.57007017870E+02  0.25000848980E+00 0.  0.
        -13    1    4    4    0    0  0.12578151671E+01  0.14405205076E+02 -0.17879667701E+02  0.22995338101E+02  0.10500000000E+00 0.  1.
         13    1    4    4    0    0  0.13977583546E+01  0.15228490962E+02 -0.19103241698E+02  0.24470503341E+02  0.10500000000E+00 0. -1.
    3000001    1    5    5    0    0  0.22472774719E+01 -0.40602714742E+01  0.27634776151E+01  0.54929836163E+01  0.10000000000E+01 0. -1.
        -13    1    6    6    0    0 -0.21378534941E+00 -0.15689485628E+02  0.21202014081E+02  0.26376923429E+02  0.10500000000E+00 0. -1.
         13    1    6    6    0    0 -0.11655055747E+00 -0.18268964178E+02  0.24585016256E+02  0.30630094442E+02  0.10500000000E+00 0.  1.
</event>
<event>
11    0  0.3448258E-009  0.9118800E+02  0.7816531E-02  0.1126479E+00
         25   -1    0    0    0    0  0.00000000000E+00  0.00000000000E+00  0.99999998245E-14  0.12500000000E+03  0.12500000000E+03 0.  0.
    3000001    1    3    3    0    0  0.61816086525E+01  0.22908381062E+02 -0.15894962867E+01  0.23801947544E+02  0.10000000000E+01 0.  1.
    1000022    2    1    0    0    0  0.10983772627E+02  0.60274252432E+02  0.72539859230E+01  0.62499993992E+02  0.10000008489E+02 0.  0.
    3000022    2    3    3    0    0  0.48021639741E+01  0.37365871370E+02  0.88434822098E+01  0.38698046448E+02  0.24999840406E+00 0.  0.
    1000022    2    1    0    0    0 -0.10983772627E+02 -0.60274252432E+02 -0.72539859230E+01  0.62500006008E+02  0.10000083593E+02 0.  0.
    3000022    2    5    5    0    0 -0.25073733148E+01 -0.27945397496E+02  0.93834000956E+00  0.28074457197E+02  0.25000553690E+00 0.  0.
        -13    1    4    4    0    0  0.24190012024E+01  0.18947827194E+02  0.44162717385E+01  0.19605769642E+02  0.10500000000E+00 0. -1.
         13    1    4    4    0    0  0.23831627718E+01  0.18418044176E+02  0.44272104712E+01  0.19092276806E+02  0.10500000000E+00 0.  1.
    3000001    1    5    5    0    0 -0.84763993118E+01 -0.32328854937E+02 -0.81923259326E+01  0.34425548812E+02  0.10000000000E+01 0.  1.
        -13    1    6    6    0    0 -0.13133748473E+01 -0.14270804503E+02  0.41993988463E+00  0.14337649360E+02  0.10500000000E+00 0.  1.
         13    1    6    6    0    0 -0.11939984675E+01 -0.13674592993E+02  0.51840012492E+00  0.13736807837E+02  0.10500000000E+00 0. -1.
</event>
<event>
11    0  0.3448258E-009  0.9118800E+02  0.7816531E-02  0.1126479E+00
         25   -1    0    0    0    0  0.00000000000E+00  0.00000000000E+00  0.99999998245E-14  0.12500000000E+03  0.12500000000E+03 0.  0.
    3000001    1    3    3    0    0  0.26024859467E+01  0.94955097537E+01  0.26878409852E+01  0.10254858739E+02  0.10000000000E+01 0. -1.
    1000022    2    1    0    0    0  0.34484592108E+02  0.47040102137E+02  0.20106994966E+02  0.62499997675E+02  0.10000008045E+02 0.  0.
    3000022    2    3    3    0    0  0.31882106162E+02  0.37544592383E+02  0.17419153981E+02  0.52245138936E+02  0.25001313711E+00 0.  0.
    1000022    2    1    0    0    0 -0.34484592108E+02 -0.47040102137E+02 -0.20106994966E+02  0.62500002325E+02  0.10000037110E+02 0.  0.
    3000022    2    5    5    0    0 -0.19927382688E+02 -0.20314586209E+02 -0.12697729188E+02  0.31162121620E+02  0.25000741781E+00 0.  0.
        -13    1    4    4    0    0  0.18081909286E+02  0.21197558801E+02  0.98300404102E+01  0.29545433860E+02  0.10500000000E+00 0. -1.
         13    1    4    4    0    0  0.13800196876E+02  0.16347033582E+02  0.75891135703E+01  0.22699705076E+02  0.10500000000E+00 0.  1.
    3000001    1    5    5    0    0 -0.14557209420E+02 -0.26725515928E+02 -0.74092657782E+01  0.31337880705E+02  0.10000000000E+01 0.  1.
        -13    1    6    6    0    0 -0.13020950455E+02 -0.13274901600E+02 -0.82358480138E+01  0.20337364154E+02  0.10500000000E+00 0. -1.
         13    1    6    6    0    0 -0.69064322337E+01 -0.70396846083E+01 -0.44618811737E+01  0.10824757466E+02  0.10500000000E+00 0.  1.
</event>
<event>
11    0  0.3448258E-009  0.9118800E+02  0.7816531E-02  0.1126479E+00
         25   -1    0    0    0    0  0.00000000000E+00  0.00000000000E+00  0.99999998245E-14  0.12500000000E+03  0.12500000000E+03 0.  0.
    3000001    1    3    3    0    0 -0.45883119822E+01  0.22115370535E+02 -0.10095204676E+02  0.24759955133E+02  0.10000000000E+01 0. -1.
    1000022    2    1    0    0    0 -0.22405415895E+02  0.53788398060E+02 -0.20274514592E+02  0.62499996399E+02  0.99999590310E+01 0.  0.
    3000022    2    3    3    0    0 -0.17817103912E+02  0.31673027526E+02 -0.10179309916E+02  0.37740041266E+02  0.24999987038E+00 0.  0.
    1000022    2    1    0    0    0  0.22405415895E+02 -0.53788398060E+02  0.20274514592E+02  0.62500003601E+02  0.10000004047E+02 0.  0.
    3000022    2    5    5    0    0  0.40025640263E+01 -0.21945805011E+02  0.84315596689E+01  0.23849372684E+02  0.25000522744E+00 0.  0.
        -13    1    4    4    0    0 -0.61628981190E+01  0.10848093503E+02 -0.35123816999E+01  0.12961878571E+02  0.10500000000E+00 0. -1.
         13    1    4    4    0    0 -0.11654205793E+02  0.20824934022E+02 -0.66669282163E+01  0.24778162695E+02  0.10500000000E+00 0.  1.
    3000001    1    5    5    0    0  0.18402851868E+02 -0.31842593049E+02  0.11842954923E+02  0.38650630917E+02  0.10000000000E+01 0. -1.
        -13    1    6    6    0    0  0.14381895120E+01 -0.75747011263E+01  0.29154048904E+01  0.82434881513E+01  0.10500000000E+00 0.  1.
         13    1    6    6    0    0  0.25643745143E+01 -0.14371103885E+02  0.55161547785E+01  0.15605884533E+02  0.10500000000E+00 0. -1.
</event>
<event>
11    0  0.3448258E-009  0.9118800E+02  0.7816531E-02  0.1126479E+00
         25   -1    0    0    0    0  0.00000000000E+00  0.00000000000E+00  0.99999998245E-14  0.12500000000E+03  0.12500000000E+03 0.  0.
    3000001    1    3    3    0    0  0.21565552094E+02 -0.22548998491E+02 -0.56302316413E+01  0.31721126689E+02  0.10000000000E+01 0.  1.
    1000022    2    1    0    0    0  0.46168428716E+02 -0.40826341984E+02 -0.28171019654E+01  0.62499999737E+02  0.99999946854E+01 0.  0.
    3000022    2    3    3    0    0  0.24602876622E+02 -0.18277343493E+02  0.28131296759E+01  0.30778873048E+02  0.25000858379E+00 0.  0.
    1000022    2    1    0    0    0 -0.46168428716E+02  0.40826341984E+02  0.28171019654E+01  0.62500000263E+02  0.99999979759E+01 0.  0.
    3000022    2    5    5    0    0 -0.13822493085E+02  0.68857648103E+01 -0.79594398724E+00  0.15465157521E+02  0.24999642511E+00 0.  0.
        -13    1    4    4    0    0  0.16167203078E+02 -0.12066355680E+02  0.18838091399E+01  0.20261667173E+02  0.10500000000E+00 0.  1.
         13    1    4    4    0    0  0.84356735435E+01 -0.62109878128E+01  0.92932053594E+00  0.10517205874E+02  0.10500000000E+00 0. -1.
    3000001    1    5    5    0    0 -0.32345935631E+02  0.33940577174E+02  0.36130459526E+01  0.47034842743E+02  0.10000000000E+01 0.  1.
        -13    1    6    6    0    0 -0.42547081712E+01  0.21041746115E+01 -0.29049322382E+00  0.47566273483E+01  0.10500000000E+00 0.  1.
         13    1    6    6    0    0 -0.95677849134E+01  0.47815901987E+01 -0.50545076342E+00  0.10708530172E+02  0.10500000000E+00 0. -1.
</event>
<event>
11    0  0.3448258E-009  0.9118800E+02  0.7816531E-02  0.1126479E+00
         25   -1    0    0    0    0  0.00000000000E+00  0.00000000000E+00  0.99999998245E-14  0.12500000000E+03  0.12500000000E+03 0.  0.
    3000001    1    3    3    0    0  0.43084838985E+01 -0.38520966030E+01 -0.18081991836E+01  0.61376922398E+01  0.10000000000E+01 0. -1.
    1000022    2    1    0    0    0  0.20363331724E+02 -0.55653121196E+02 -0.17155604961E+02  0.62499999251E+02  0.99999973560E+01 0.  0.
    3000022    2    3    3    0    0  0.16054847826E+02 -0.51801024593E+02 -0.15347405777E+02  0.56362307012E+02  0.25000004235E+00 0.  0.
    1000022    2    1    0    0    0 -0.20363331724E+02  0.55653121196E+02  0.17155604961E+02  0.62500000749E+02  0.10000006714E+02 0.  0.
    3000022    2    5    5    0    0 -0.15394083352E+02  0.34790161653E+02  0.67401532455E+01  0.38637097642E+02  0.24999662231E+00 0.  0.
        -13    1    4    4    0    0  0.93102072667E+01 -0.29900255276E+02 -0.88100668988E+01  0.32532038496E+02  0.10500000000E+00 0.  1.
         13    1    4    4    0    0  0.67446405591E+01 -0.21900769317E+02 -0.65373388784E+01  0.23830268516E+02  0.10500000000E+00 0. -1.
    3000001    1    5    5    0    0 -0.49692483725E+01  0.20862959543E+02  0.10415451715E+02  0.23862903107E+02  0.10000000000E+01 0.  1.
        -13    1    6    6    0    0 -0.97157218114E+01  0.22082330455E+02  0.42434804568E+01  0.24495769431E+02  0.10500000000E+00 0. -1.
         13    1    6    6    0    0 -0.56783615404E+01  0.12707831198E+02  0.24966727887E+01  0.14141328210E+02  0.10500000000E+00 0.  1.
</event>
<event>
11    0  0.3448258E-009  0.9118800E+02  0.7816531E-02  0.1126479E+00
         25   -1    0    0    0    0  0.00000000000E+00  0.00000000000E+00  0.99999998245E-14  0.12500000000E+03  0.12500000000E+03 0.  0.
    3000001    1    3    3    0    0  0.88268746489E+01 -0.45812616500E+01  0.47662103280E+01  0.11073320878E+02  0.10000000000E+01 0.  1.
    1000022    2    1    0    0    0  0.37981687428E+02 -0.21511967299E+02  0.43599049579E+02  0.62500004500E+02  0.10000006067E+02 0.  0.
    3000022    2    3    3    0    0  0.29154812779E+02 -0.16930705649E+02  0.38832839251E+02  0.51426683622E+02  0.24996422609E+00 0.  0.
    1000022    2    1    0    0    0 -0.37981687428E+02  0.21511967299E+02 -0.43599049579E+02  0.62499995500E+02  0.99999498165E+01 0.  0.
    3000022    2    5    5    0    0 -0.35918953394E+01  0.32560771683E+01 -0.13522339274E+01  0.50393241057E+01  0.25000038506E+00 0.  0.
        -13    1    4    4    0    0  0.20715914044E+02 -0.12047044781E+02  0.27663072895E+02  0.36599685923E+02  0.10500000000E+00 0.  1.
         13    1    4    4    0    0  0.84388987349E+01 -0.48836608684E+01  0.11169766356E+02  0.14826997700E+02  0.10500000000E+00 0. -1.
    3000001    1    5    5    0    0 -0.34389792089E+02  0.18255890131E+02 -0.42246815652E+02  0.57460671394E+02  0.10000000000E+01 0.  1.
        -13    1    6    6    0    0 -0.19821853795E+01  0.18121610024E+01 -0.81689358520E+00  0.28091504955E+01  0.10500000000E+00 0.  1.
         13    1    6    6    0    0 -0.16097099600E+01  0.14439161660E+01 -0.53534034219E+00  0.22301736102E+01  0.10500000000E+00 0. -1.
</event>
<event>
11    0  0.3448258E-009  0.9118800E+02  0.7816531E-02  0.1126479E+00
         25   -1    0    0    0    0  0.00000000000E+00  0.00000000000E+00  0.99999998245E-14  0.12500000000E+03  0.12500000000E+03 0.  0.
    3000001    1    3    3    0    0  0.10809048944E+00 -0.14613603699E+02 -0.20320518756E+02  0.25049801978E+02  0.10000000000E+01 0.  1.
    1000022    2    1    0    0    0  0.60145951123E+00 -0.45010033113E+02 -0.42189869524E+02  0.62500000028E+02  0.10000003933E+02 0.  0.
    3000022    2    3    3    0    0  0.49336902179E+00 -0.30396429415E+02 -0.21869350769E+02  0.37450198051E+02  0.24999369664E+00 0.  0.
    1000022    2    1    0    0    0 -0.60145951123E+00  0.45010033113E+02  0.42189869524E+02  0.62499999972E+02  0.10000003578E+02 0.  0.
    3000022    2    5    5    0    0 -0.50749205295E+00  0.29399606525E+01  0.71080427147E+01  0.77128262989E+01  0.25000292286E+00 0.  0.
        -13    1    4    4    0    0  0.25558934385E+00 -0.16750502745E+02 -0.12130793008E+02  0.20683612647E+02  0.10500000000E+00 0. -1.
         13    1    4    4    0    0  0.23777967794E+00 -0.13645926670E+02 -0.97385577603E+01  0.16766585404E+02  0.10500000000E+00 0.  1.
    3000001    1    5    5    0    0 -0.93967458281E-01  0.42070072461E+02  0.35081826810E+02  0.54787173673E+02  0.10000000000E+01 0.  1.
        -13    1    6    6    0    0 -0.23305514332E+00  0.14117619668E+01  0.35820974130E+01  0.38587346924E+01  0.10500000000E+00 0. -1.
         13    1    6    6    0    0 -0.27443690963E+00  0.15281986857E+01  0.35259453017E+01  0.38540916065E+01  0.10500000000E+00 0.  1.
</event>
<event>
11    0  0.3448258E-009  0.9118800E+02  0.7816531E-02  0.1126479E+00
         25   -1    0    0    0    0  0.00000000000E+00  0.00000000000E+00  0.99999998245E-14  0.12500000000E+03  0.12500000000E+03 0.  0.
    3000001    1    3    3    0    0 -0.40022672195E+02  0.18712044908E+02 -0.17230713343E+02  0.47432609001E+02  0.10000000000E+01 0.  1.
    1000022    2    1    0    0    0 -0.54770324396E+02  0.21479544668E+02 -0.18576615568E+02  0.62499999291E+02  0.99999995907E+01 0.  0.
    3000022    2    3    3    0    0 -0.14747652201E+02  0.27674997597E+01 -0.13459022247E+01  0.15067390290E+02  0.24999400515E+00 0.  0.
    1000022    2    1    0    0    0  0.54770324396E+02 -0.21479544668E+02  0.18576615568E+02  0.62500000709E+02  0.10000008451E+02 0.  0.
    3000022    2    5    5    0    0  0.39311852416E+02 -0.19279498004E+02  0.11162963112E+02  0.45186225730E+02  0.24993315363E+00 0.  0.
        -13    1    4    4    0    0 -0.72846219707E+01  0.12980523761E+01 -0.66537244888E+00  0.74299665358E+01  0.10500000000E+00 0. -1.
         13    1    4    4    0    0 -0.74630302303E+01  0.14694473836E+01 -0.68052977579E+00  0.76374237546E+01  0.10500000000E+00 0.  1.
    3000001    1    5    5    0    0  0.15458471981E+02 -0.22000466636E+01  0.74136524556E+01  0.17313774979E+02  0.10000000000E+01 0.  1.
        -13    1    6    6    0    0  0.90258244451E+01 -0.44251539248E+01  0.25580260206E+01  0.10373139173E+02  0.10500000000E+00 0.  1.
         13    1    6    6    0    0  0.30286027971E+02 -0.14854344080E+02  0.86049370915E+01  0.34813086557E+02  0.10500000000E+00 0. -1.
</event>
<event>
11    0  0.3448258E-009  0.9118800E+02  0.7816531E-02  0.1126479E+00
         25   -1    0    0    0    0  0.00000000000E+00  0.00000000000E+00  0.99999998245E-14  0.12500000000E+03  0.12500000000E+03 0.  0.
    3000001    1    3    3    0    0  0.29612471283E+01  0.48948148974E+01  0.23365821643E-01  0.58076452540E+01  0.10000000000E+01 0.  1.
    1000022    2    1    0    0    0  0.25587910099E+02  0.48499804931E+02 -0.28271500706E+02  0.62499999238E+02  0.99999965513E+01 0.  0.
    3000022    2    3    3    0    0  0.22626662970E+02  0.43604990034E+02 -0.28294866528E+02  0.56692353984E+02  0.24999086493E+00 0.  0.
    1000022    2    1    0    0    0 -0.25587910099E+02 -0.48499804931E+02  0.28271500706E+02  0.62500000762E+02  0.10000006072E+02 0.  0.
    3000022    2    5    5    0    0 -0.20670853895E+02 -0.29791342336E+02  0.20276010243E+02  0.41545004170E+02  0.25000245244E+00 0.  0.
        -13    1    4    4    0    0  0.14382874026E+02  0.27834866438E+02 -0.18019435563E+02  0.36143573950E+02  0.10500000000E+00 0. -1.
         13    1    4    4    0    0  0.82437889445E+01  0.15770123596E+02 -0.10275430965E+02  0.20548780034E+02  0.10500000000E+00 0.  1.
    3000001    1    5    5    0    0 -0.49170562038E+01 -0.18708462595E+02  0.79954904632E+01  0.20954996591E+02  0.10000000000E+01 0.  1.
        -13    1    6    6    0    0 -0.11123008288E+02 -0.16147646928E+02  0.10955637588E+02  0.22461185068E+02  0.10500000000E+00 0.  1.
         13    1    6    6    0    0 -0.95478456063E+01 -0.13643695408E+02  0.93203726543E+01  0.19083819102E+02  0.10500000000E+00 0. -1.
</event>
<event>
11    0  0.3448258E-009  0.9118800E+02  0.7816531E-02  0.1126479E+00
         25   -1    0    0    0    0  0.00000000000E+00  0.00000000000E+00  0.99999998245E-14  0.12500000000E+03  0.12500000000E+03 0.  0.
    3000001    1    3    3    0    0 -0.11121555517E+02  0.12845754260E+02 -0.80057405630E+01  0.18809420023E+02  0.10000000000E+01 0. -1.
    1000022    2    1    0    0    0 -0.45067620014E+02  0.39597406678E+02 -0.14394627385E+02  0.62499997631E+02  0.99999708456E+01 0.  0.
    3000022    2    3    3    0    0 -0.33946064497E+02  0.26751652418E+02 -0.63888868222E+01  0.43690577608E+02  0.24998993484E+00 0.  0.
    1000022    2    1    0    0    0  0.45067620014E+02 -0.39597406678E+02  0.14394627385E+02  0.62500002369E+02  0.10000000461E+02 0.  0.
    3000022    2    5    5    0    0  0.41623466754E+02 -0.38244075716E+02  0.11468712232E+02  0.57677692149E+02  0.24999886281E+00 0.  0.
        -13    1    4    4    0    0 -0.12374733114E+02  0.96928514285E+01 -0.22875411116E+01  0.15884875127E+02  0.10500000000E+00 0.  1.
         13    1    4    4    0    0 -0.21571331383E+02  0.17058800990E+02 -0.41013457106E+01  0.27805702481E+02  0.10500000000E+00 0. -1.
    3000001    1    5    5    0    0  0.34441532600E+01 -0.13533309626E+01  0.29259151534E+01  0.48223102200E+01  0.10000000000E+01 0.  1.
        -13    1    6    6    0    0  0.23046491407E+02 -0.21197070798E+02  0.64189086600E+01  0.31963572859E+02  0.10500000000E+00 0.  1.
         13    1    6    6    0    0  0.18576975348E+02 -0.17047004918E+02  0.50498035718E+01  0.25714119290E+02  0.10500000000E+00 0. -1.
</event>
<event>
11    0  0.3448258E-009  0.9118800E+02  0.7816531E-02  0.1126479E+00
         25   -1    0    0    0    0  0.00000000000E+00  0.00000000000E+00  0.99999998245E-14  0.12500000000E+03  0.12500000000E+03 0.  0.
    3000001    1    3    3    0    0 -0.15644646321E+02 -0.67151004112E+01  0.63067885118E+01  0.18183044667E+02  0.10000000000E+01 0.  1.
    1000022    2    1    0    0    0 -0.57022948341E+02 -0.81017850398E+01  0.22113205469E+02  0.62499995061E+02  0.99999984122E+01 0.  0.
    3000022    2    3    3    0    0 -0.41378302020E+02 -0.13866846287E+01  0.15806416957E+02  0.44316950394E+02  0.25000579282E+00 0.  0.
    1000022    2    1    0    0    0  0.57022948341E+02  0.81017850398E+01 -0.22113205469E+02  0.62500004939E+02  0.10000060146E+02 0.  0.
    3000022    2    5    5    0    0  0.47135298602E+02  0.32765230255E+01 -0.19699444203E+02  0.51191821428E+02  0.25000352102E+00 0.  0.
        -13    1    4    4    0    0 -0.21898025397E+02 -0.79835572485E+00  0.83446256389E+01  0.23447914411E+02  0.10500000000E+00 0.  1.
         13    1    4    4    0    0 -0.19480276623E+02 -0.58832890381E+00  0.74617913179E+01  0.20869035983E+02  0.10500000000E+00 0. -1.
    3000001    1    5    5    0    0  0.98876497387E+01  0.48252620143E+01 -0.24137612652E+01  0.11308183511E+02  0.10000000000E+01 0. -1.
        -13    1    6    6    0    0  0.15039680950E+02  0.10585957219E+01 -0.63389644622E+01  0.16355614432E+02  0.10500000000E+00 0.  1.
         13    1    6    6    0    0  0.32095617652E+02  0.22179273036E+01 -0.13360479741E+02  0.34836206997E+02  0.10500000000E+00 0. -1.
</event>
<event>
11    0  0.3448258E-009  0.9118800E+02  0.7816531E-02  0.1126479E+00
         25   -1    0    0    0    0  0.00000000000E+00  0.00000000000E+00  0.99999998245E-14  0.12500000000E+03  0.12500000000E+03 0.  0.
    3000001    1    3    3    0    0 -0.11129324338E+02 -0.70372963136E+00 -0.83294261979E+01  0.13954799762E+02  0.10000000000E+01 0.  1.
    1000022    2    1    0    0    0 -0.47991251405E+02  0.14911246982E+02 -0.35787486463E+02  0.62500002784E+02  0.10000033132E+02 0.  0.
    3000022    2    3    3    0    0 -0.36861927067E+02  0.15614976614E+02 -0.27458060265E+02  0.48545203022E+02  0.25000231079E+00 0.  0.
    1000022    2    1    0    0    0  0.47991251405E+02 -0.14911246982E+02  0.35787486463E+02  0.62499997216E+02  0.99999983346E+01 0.  0.
    3000022    2    5    5    0    0  0.28048689899E+02 -0.10407173798E+02  0.15560401882E+02  0.33722794689E+02  0.25000672710E+00 0.  0.
        -13    1    4    4    0    0 -0.17148371590E+02  0.71976192063E+01 -0.12722306900E+02  0.22533097619E+02  0.10500000000E+00 0.  1.
         13    1    4    4    0    0 -0.19713555477E+02  0.84173574074E+01 -0.14735753365E+02  0.26012105403E+02  0.10500000000E+00 0. -1.
    3000001    1    5    5    0    0  0.19942561506E+02 -0.45040731846E+01  0.20227084581E+02  0.28777202527E+02  0.10000000000E+01 0. -1.
        -13    1    6    6    0    0  0.12781962208E+02 -0.46729689123E+01  0.70620761912E+01  0.15332943014E+02  0.10500000000E+00 0. -1.
         13    1    6    6    0    0  0.15266727691E+02 -0.57342048854E+01  0.84983256910E+01  0.18389851675E+02  0.10500000000E+00 0.  1.
</event>
<event>
11    0  0.3448258E-009  0.9118800E+02  0.7816531E-02  0.1126479E+00
         25   -1    0    0    0    0  0.00000000000E+00  0.00000000000E+00  0.99999998245E-14  0.12500000000E+03  0.12500000000E+03 0.  0.
    3000001    1    3    3    0    0  0.10339738600E+02 -0.28483716212E+02 -0.16103031681E+02  0.34329869107E+02  0.10000000000E+01 0. -1.
    1000022    2    1    0    0    0  0.23204760286E+02 -0.52940801905E+02 -0.21565261838E+02  0.62500000227E+02  0.10000005198E+02 0.  0.
    3000022    2    3    3    0    0  0.12865021686E+02 -0.24457085693E+02 -0.54622301570E+01  0.28170131120E+02  0.25001095863E+00 0.  0.
    1000022    2    1    0    0    0 -0.23204760286E+02  0.52940801905E+02  0.21565261838E+02  0.62499999773E+02  0.10000002358E+02 0.  0.
    3000022    2    5    5    0    0 -0.16155204849E+02  0.44403981263E+02  0.19849448442E+02  0.51251997544E+02  0.24990599278E+00 0.  0.
        -13    1    4    4    0    0  0.84976539598E+01 -0.16046024674E+02 -0.36119107787E+01  0.18513291310E+02  0.10500000000E+00 0. -1.
         13    1    4    4    0    0  0.43673677261E+01 -0.84110610189E+01 -0.18503193783E+01  0.96568398102E+01  0.10500000000E+00 0.  1.
    3000001    1    5    5    0    0 -0.70495554378E+01  0.85368206418E+01  0.17158133955E+01  0.11248002229E+02  0.10000000000E+01 0.  1.
        -13    1    6    6    0    0 -0.91594171077E+01  0.25071820099E+02  0.11273068967E+02  0.28975579265E+02  0.10500000000E+00 0.  1.
         13    1    6    6    0    0 -0.69957877408E+01  0.19332161165E+02  0.85763794754E+01  0.22276418278E+02  0.10500000000E+00 0. -1.
</event>
<event>
11    0  0.3448258E-009  0.9118800E+02  0.7816531E-02  0.1126479E+00
         25   -1    0    0    0    0  0.00000000000E+00  0.00000000000E+00  0.99999998245E-14  0.12500000000E+03  0.12500000000E+03 0.  0.
    3000001    1    3    3    0    0 -0.64450185773E+01 -0.22161414495E+02 -0.34037746440E+02  0.41136780861E+02  0.10000000000E+01 0. -1.
    1000022    2    1    0    0    0 -0.13750729889E+02 -0.27928211940E+02 -0.53265207680E+02  0.62500000127E+02  0.10000003605E+02 0.  0.
    3000022    2    3    3    0    0 -0.73057113116E+01 -0.57667974447E+01 -0.19227461240E+02  0.21363219266E+02  0.25000231589E+00 0.  0.
    1000022    2    1    0    0    0  0.13750729889E+02  0.27928211940E+02  0.53265207680E+02  0.62499999873E+02  0.10000002014E+02 0.  0.
    3000022    2    5    5    0    0  0.37250161183E+01  0.18532066366E+02  0.29862095306E+02  0.35342898462E+02  0.25001350973E+00 0.  0.
        -13    1    4    4    0    0 -0.43955956543E+01 -0.35461833401E+01 -0.11626347981E+02  0.12925930133E+02  0.10500000000E+00 0.  1.
         13    1    4    4    0    0 -0.29101156573E+01 -0.22206141046E+01 -0.76011132590E+01  0.84372891332E+01  0.10500000000E+00 0. -1.
    3000001    1    5    5    0    0  0.10025713771E+02  0.93961455740E+01  0.23403112374E+02  0.27157101411E+02  0.10000000000E+01 0. -1.
        -13    1    6    6    0    0  0.27509442518E+01  0.13581650462E+02  0.21838119232E+02  0.25863940151E+02  0.10500000000E+00 0.  1.
         13    1    6    6    0    0  0.97407186644E+00  0.49504159043E+01  0.80239760743E+01  0.94789583113E+01  0.10500000000E+00 0. -1.
</event>
<event>
11    0  0.3448258E-009  0.9118800E+02  0.7816531E-02  0.1126479E+00
         25   -1    0    0    0    0  0.00000000000E+00  0.00000000000E+00  0.99999998245E-14  0.12500000000E+03  0.12500000000E+03 0.  0.
    3000001    1    3    3    0    0 -0.21616952135E+01  0.74699842535E+01 -0.10874009531E+02  0.13405882076E+02  0.10000000000E+01 0.  1.
    1000022    2    1    0    0    0 -0.26281940338E+02  0.37111158436E+02 -0.41692579371E+02  0.62499997554E+02  0.10000002562E+02 0.  0.
    3000022    2    3    3    0    0 -0.24120245124E+02  0.29641174183E+02 -0.30818569840E+02  0.49094115479E+02  0.24999167639E+00 0.  0.
    1000022    2    1    0    0    0  0.26281940338E+02 -0.37111158436E+02  0.41692579371E+02  0.62500002446E+02  0.10000033133E+02 0.  0.
    3000022    2    5    5    0    0  0.37981391910E+01 -0.12119064149E+02  0.87708728450E+01  0.15436589358E+02  0.25000675235E+00 0.  0.
        -13    1    4    4    0    0 -0.17394046730E+02  0.21317169683E+02 -0.22207001575E+02  0.35357269817E+02  0.10500000000E+00 0. -1.
         13    1    4    4    0    0 -0.67261983948E+01  0.83240045002E+01 -0.86115682647E+01  0.13736845662E+02  0.10500000000E+00 0.  1.
    3000001    1    5    5    0    0  0.22483801147E+02 -0.24992094288E+02  0.32921706526E+02  0.47063413088E+02  0.10000000000E+01 0. -1.
        -13    1    6    6    0    0  0.13709520099E+01 -0.42154460655E+01  0.30248459016E+01  0.53675145713E+01  0.10500000000E+00 0.  1.
         13    1    6    6    0    0  0.24271871811E+01 -0.79036180832E+01  0.57460269434E+01  0.10069074786E+02  0.10500000000E+00 0. -1.
</event>
<event>
11    0  0.3448258E-009  0.9118800E+02  0.7816531E-02  0.1126479E+00
         25   -1    0    0    0    0  0.00000000000E+00  0.00000000000E+00  0.99999998245E-14  0.12500000000E+03  0.12500000000E+03 0.  0.
    3000001    1    3    3    0    0 -0.29451473989E+01 -0.26460507791E+01 -0.86541554200E+01  0.95692154308E+01  0.10000000000E+01 0. -1.
    1000022    2    1    0    0    0 -0.15297925952E+02 -0.37369740528E+02 -0.46644669275E+02  0.62499994867E+02  0.10000007051E+02 0.  0.
    3000022    2    3    3    0    0 -0.12352778553E+02 -0.34723689749E+02 -0.37990513855E+02  0.52930779436E+02  0.25000197930E+00 0.  0.
    1000022    2    1    0    0    0  0.15297925952E+02  0.37369740528E+02  0.46644669275E+02  0.62500005133E+02  0.10000071215E+02 0.  0.
    3000022    2    5    5    0    0  0.10800242102E+02  0.22573304057E+02  0.21648343984E+02  0.33089463310E+02  0.24999877912E+00 0.  0.
        -13    1    4    4    0    0 -0.80623191710E+01 -0.22493766634E+02 -0.24630970059E+02  0.34317142055E+02  0.10500000000E+00 0.  1.
         13    1    4    4    0    0 -0.42904593818E+01 -0.12229923115E+02 -0.13359543796E+02  0.18613637381E+02  0.10500000000E+00 0. -1.
    3000001    1    5    5    0    0  0.44976838495E+01  0.14796436471E+02  0.24996325292E+02  0.29410541823E+02  0.10000000000E+01 0. -1.
        -13    1    6    6    0    0  0.31280818803E+01  0.64520122615E+01  0.61777582554E+01  0.94651508458E+01  0.10500000000E+00 0. -1.
         13    1    6    6    0    0  0.76721602220E+01  0.16121291796E+02  0.15470585728E+02  0.23624312464E+02  0.10500000000E+00 0.  1.
</event>
<event>
11    0  0.3448258E-009  0.9118800E+02  0.7816531E-02  0.1126479E+00
         25   -1    0    0    0    0  0.00000000000E+00  0.00000000000E+00  0.99999998245E-14  0.12500000000E+03  0.12500000000E+03 0.  0.
    3000001    1    3    3    0    0 -0.18592298374E+01  0.43690697148E+00 -0.20332646173E+01  0.29634082227E+01  0.10000000000E+01 0.  1.
    1000022    2    1    0    0    0 -0.36885270595E+01  0.16189763047E+02 -0.59418316755E+02  0.62499997924E+02  0.99999857570E+01 0.  0.
    3000022    2    3    3    0    0 -0.18292972221E+01  0.15752856076E+02 -0.57385052137E+02  0.59536589701E+02  0.25000316828E+00 0.  0.
    1000022    2    1    0    0    0  0.36885270595E+01 -0.16189763047E+02  0.59418316755E+02  0.62500002076E+02  0.10000011709E+02 0.  0.
    3000022    2    5    5    0    0 -0.13178539012E+01  0.43364123148E+00  0.10262878539E+02  0.10359245213E+02  0.25000369286E+00 0.  0.
        -13    1    4    4    0    0 -0.83062754583E+00  0.70393371951E+01 -0.25894202395E+02  0.26847028755E+02  0.10500000000E+00 0.  1.
         13    1    4    4    0    0 -0.99866967631E+00  0.87135188809E+01 -0.31490849742E+02  0.32689560946E+02  0.10500000000E+00 0. -1.
    3000001    1    5    5    0    0  0.50063809608E+01 -0.16623404279E+02  0.49155438215E+02  0.52140756863E+02  0.10000000000E+01 0. -1.
        -13    1    6    6    0    0 -0.44133674172E+00  0.20351566130E+00  0.37065199822E+01  0.37397208616E+01  0.10500000000E+00 0.  1.
         13    1    6    6    0    0 -0.87651715949E+00  0.23012557019E+00  0.65563585572E+01  0.66195243514E+01  0.10500000000E+00 0. -1.
</event>
<event>
11    0  0.3448258E-009  0.9118800E+02  0.7816531E-02  0.1126479E+00
         25   -1    0    0    0    0  0.00000000000E+00  0.00000000000E+00  0.99999998245E-14  0.12500000000E+03  0.12500000000E+03 0.  0.
    3000001    1    3    3    0    0  0.12932695415E+01 -0.46631709369E+00  0.15534666365E+02  0.15627407232E+02  0.10000000000E+01 0.  1.
    1000022    2    1    0    0    0 -0.51067651693E+01 -0.15116981505E+02  0.59595704274E+02  0.62500000308E+02  0.99999945150E+01 0.  0.
    3000022    2    3    3    0    0 -0.64000347108E+01 -0.14650664412E+02  0.44061037909E+02  0.46872593076E+02  0.25001606270E+00 0.  0.
    1000022    2    1    0    0    0  0.51067651693E+01  0.15116981505E+02 -0.59595704274E+02  0.62499999692E+02  0.99999906603E+01 0.  0.
    3000022    2    5    5    0    0 -0.63333591549E-01  0.10806531832E+02 -0.46520785935E+02  0.47760142598E+02  0.25011106031E+00 0.  0.
        -13    1    4    4    0    0 -0.36865470889E+01 -0.84150593309E+01  0.25507685822E+02  0.27111933055E+02  0.10500000000E+00 0. -1.
         13    1    4    4    0    0 -0.27134876219E+01 -0.62356050807E+01  0.18553352087E+02  0.19760660021E+02  0.10500000000E+00 0.  1.
    3000001    1    5    5    0    0  0.51700987608E+01  0.43104496728E+01 -0.13074918339E+02  0.14739857094E+02  0.10000000000E+01 0.  1.
        -13    1    6    6    0    0 -0.72086293837E-01  0.35778971184E+01 -0.15342709491E+02  0.15754881902E+02  0.10500000000E+00 0. -1.
         13    1    6    6    0    0  0.87527022873E-02  0.72286347141E+01 -0.31178076444E+02  0.32005260695E+02  0.10500000000E+00 0.  1.
</event>
<event>
11    0  0.3448258E-009  0.9118800E+02  0.7816531E-02  0.1126479E+00
         25   -1    0    0    0    0  0.00000000000E+00  0.00000000000E+00  0.99999998245E-14  0.12500000000E+03  0.12500000000E+03 0.  0.
    3000001    1    3    3    0    0  0.54083089100E+01 -0.82595400127E+01 -0.14307179498E+01  0.10025804723E+02  0.10000000000E+01 0.  1.
    1000022    2    1    0    0    0  0.13761342547E+02 -0.59977349870E+02 -0.44263655918E+01  0.62500002490E+02  0.10000027637E+02 0.  0.
    3000022    2    3    3    0    0  0.83530336367E+01 -0.51717809857E+02 -0.29956476420E+01  0.52474197767E+02  0.24999821642E+00 0.  0.
    1000022    2    1    0    0    0 -0.13761342547E+02  0.59977349870E+02  0.44263655918E+01  0.62499997510E+02  0.99999965160E+01 0.  0.
    3000022    2    5    5    0    0 -0.21748594417E+01  0.31277000164E+02  0.13871723126E+01  0.31384191884E+02  0.25000066706E+00 0.  0.
        -13    1    4    4    0    0  0.44710781044E+01 -0.28096451058E+02 -0.16382966447E+01  0.28497300616E+02  0.10500000000E+00 0. -1.
         13    1    4    4    0    0  0.38819555323E+01 -0.23621358799E+02 -0.13573509973E+01  0.23976897151E+02  0.10500000000E+00 0.  1.
    3000001    1    5    5    0    0 -0.11586483105E+02  0.28700349706E+02  0.30391932792E+01  0.31115805627E+02  0.10000000000E+01 0. -1.
        -13    1    6    6    0    0 -0.72293941222E+00  0.10292311768E+02  0.50873766488E+00  0.10330738693E+02  0.10500000000E+00 0. -1.
         13    1    6    6    0    0 -0.14519200295E+01  0.20984688396E+02  0.87843464772E+00  0.21053453191E+02  0.10500000000E+00 0.  1.
</event>
<event>
11    0  0.3448258E-009  0.9118800E+02  0.7816531E-02  0.1126479E+00
         25   -1    0    0    0    0  0.00000000000E+00  0.00000000000E+00  0.99999998245E-14  0.12500000000E+03  0.12500000000E+03 0.  0.
    3000001    1    3    3    0    0  0.35024269478E+01  0.82792127425E+01  0.12448846059E+01  0.91302845434E+01  0.10000000000E+01 0.  1.
    1000022    2    1    0    0    0  0.27140511398E+02  0.46916145628E+02  0.29470626299E+02  0.62500000790E+02  0.10000010239E+02 0.  0.
    3000022    2    3    3    0    0  0.23638084450E+02  0.38636932886E+02  0.28225741693E+02  0.53369716246E+02  0.24999775149E+00 0.  0.
    1000022    2    1    0    0    0 -0.27140511398E+02 -0.46916145628E+02 -0.29470626299E+02  0.62499999210E+02  0.10000000366E+02 0.  0.
    3000022    2    5    5    0    0 -0.26850180885E+02 -0.41819728952E+02 -0.28215849020E+02  0.57149090805E+02  0.25000142908E+00 0.  0.
        -13    1    4    4    0    0  0.11618718773E+02  0.18897639489E+02  0.13879517761E+02  0.26168061496E+02  0.10500000000E+00 0.  1.
         13    1    4    4    0    0  0.12019365677E+02  0.19739293397E+02  0.14346223932E+02  0.27201654751E+02  0.10500000000E+00 0. -1.
    3000001    1    5    5    0    0 -0.29033051229E+00 -0.50964166761E+01 -0.12547772786E+01  0.53509084053E+01  0.10000000000E+01 0. -1.
        -13    1    6    6    0    0 -0.68136044908E+01 -0.10612234472E+02 -0.71930307109E+01  0.14518796178E+02  0.10500000000E+00 0. -1.
         13    1    6    6    0    0 -0.20036576395E+02 -0.31207494480E+02 -0.21022818309E+02  0.42630294627E+02  0.10500000000E+00 0.  1.
</event>
<event>
11    0  0.3448258E-009  0.9118800E+02  0.7816531E-02  0.1126479E+00
         25   -1    0    0    0    0  0.00000000000E+00  0.00000000000E+00  0.99999998245E-14  0.12500000000E+03  0.12500000000E+03 0.  0.
    3000001    1    3    3    0    0 -0.90052376345E+01 -0.65241803151E+01  0.16714117126E+02  0.20100272260E+02  0.10000000000E+01 0.  1.
    1000022    2    1    0    0    0 -0.14479537786E+02 -0.23694575793E+02  0.55092286949E+02  0.62499999376E+02  0.99999952130E+01 0.  0.
    3000022    2    3    3    0    0 -0.54743001514E+01 -0.17170395477E+02  0.38378169823E+02  0.42399727116E+02  0.24999505987E+00 0.  0.
    1000022    2    1    0    0    0  0.14479537786E+02  0.23694575793E+02 -0.55092286949E+02  0.62500000624E+02  0.10000003011E+02 0.  0.
    3000022    2    5    5    0    0 -0.12927369428E+01  0.42475129358E+01 -0.77825139824E+01  0.89634007875E+01  0.24998969666E+00 0.  0.
        -13    1    4    4    0    0 -0.34375790577E+01 -0.10725990954E+02  0.23848899500E+02  0.26375080361E+02  0.10500000000E+00 0.  1.
         13    1    4    4    0    0 -0.20367210937E+01 -0.64444045239E+01  0.14529270323E+02  0.16024646755E+02  0.10500000000E+00 0. -1.
    3000001    1    5    5    0    0  0.15772274729E+02  0.19447062857E+02 -0.47309772967E+02  0.53536599836E+02  0.10000000000E+01 0. -1.
        -13    1    6    6    0    0 -0.80302455676E+00  0.26403852189E+01 -0.49567952047E+01  0.56742687850E+01  0.10500000000E+00 0.  1.
         13    1    6    6    0    0 -0.48971238604E+00  0.16071277168E+01 -0.28257187778E+01  0.32891320025E+01  0.10500000000E+00 0. -1.
</event>
<event>
11    0  0.3448258E-009  0.9118800E+02  0.7816531E-02  0.1126479E+00
         25   -1    0    0    0    0  0.00000000000E+00  0.00000000000E+00  0.99999998245E-14  0.12500000000E+03  0.12500000000E+03 0.  0.
    3000001    1    3    3    0    0 -0.92558589549E+01 -0.44278010404E+01 -0.13679100014E+02  0.17128751391E+02  0.10000000000E+01 0. -1.
    1000022    2    1    0    0    0 -0.19310170122E+02 -0.20900066374E+02 -0.54740797236E+02  0.62499999738E+02  0.99999820289E+01 0.  0.
    3000022    2    3    3    0    0 -0.10054311167E+02 -0.16472265333E+02 -0.41061697223E+02  0.45371248346E+02  0.24999887238E+00 0.  0.
    1000022    2    1    0    0    0  0.19310170122E+02  0.20900066374E+02  0.54740797236E+02  0.62500000262E+02  0.99999853090E+01 0.  0.
    3000022    2    5    5    0    0  0.25828285009E+01 -0.37681711744E+00  0.23420459696E+01  0.35157747177E+01  0.24999667471E+00 0.  0.
        -13    1    4    4    0    0 -0.58253876697E+01 -0.96474426496E+01 -0.24061377192E+02  0.26570080703E+02  0.10500000000E+00 0.  1.
         13    1    4    4    0    0 -0.42289234976E+01 -0.68248226837E+01 -0.17000320031E+02  0.18801167643E+02  0.10500000000E+00 0. -1.
    3000001    1    5    5    0    0  0.16727341621E+02  0.21276883491E+02  0.52398751267E+02  0.58984225545E+02  0.10000000000E+01 0.  1.
        -13    1    6    6    0    0  0.15835352465E+01 -0.27319801284E+00  0.14993727101E+01  0.22003101043E+01  0.10500000000E+00 0.  1.
         13    1    6    6    0    0  0.99929325433E+00 -0.10361910460E+00  0.84267325946E+00  0.13154646134E+01  0.10500000000E+00 0. -1.
</event>
<event>
11    0  0.3448258E-009  0.9118800E+02  0.7816531E-02  0.1126479E+00
         25   -1    0    0    0    0  0.00000000000E+00  0.00000000000E+00  0.99999998245E-14  0.12500000000E+03  0.12500000000E+03 0.  0.
    3000001    1    3    3    0    0  0.14618359302E+00 -0.56226838059E+00 -0.90140643279E+01  0.90879519740E+01  0.10000000000E+01 0.  1.
    1000022    2    1    0    0    0  0.23781390052E+02 -0.24795931554E+01 -0.56873079866E+02  0.62500001110E+02  0.10000001516E+02 0.  0.
    3000022    2    3    3    0    0  0.23635206459E+02 -0.19173247748E+01 -0.47859015538E+02  0.53412049136E+02  0.25001200686E+00 0.  0.
    1000022    2    1    0    0    0 -0.23781390052E+02  0.24795931554E+01  0.56873079866E+02  0.62499998890E+02  0.99999876395E+01 0.  0.
    3000022    2    5    5    0    0 -0.17262000527E+02  0.60875127015E+01  0.42643150682E+02  0.46406198599E+02  0.24999044776E+00 0.  0.
        -13    1    4    4    0    0  0.13068086478E+02 -0.10080678077E+01 -0.26358953546E+02  0.29438011855E+02  0.10500000000E+00 0. -1.
         13    1    4    4    0    0  0.10567119981E+02 -0.90925696706E+00 -0.21500061992E+02  0.23974037281E+02  0.10500000000E+00 0.  1.
    3000001    1    5    5    0    0 -0.65193895254E+01 -0.36079195462E+01  0.14229929184E+02  0.16093800291E+02  0.10000000000E+01 0.  1.
        -13    1    6    6    0    0 -0.46470572415E+01  0.16327563493E+01  0.11566086313E+02  0.12571651121E+02  0.10500000000E+00 0.  1.
         13    1    6    6    0    0 -0.12614943285E+02  0.44547563522E+01  0.31077064369E+02  0.33834547478E+02  0.10500000000E+00 0. -1.
</event>
<event>
11    0  0.3448258E-009  0.9118800E+02  0.7816531E-02  0.1126479E+00
         25   -1    0    0    0    0  0.00000000000E+00  0.00000000000E+00  0.99999998245E-14  0.12500000000E+03  0.12500000000E+03 0.  0.
    3000001    1    3    3    0    0 -0.35113074564E+02 -0.83106568587E+01 -0.26858621897E+02  0.44993117173E+02  0.10000000000E+01 0.  1.
    1000022    2    1    0    0    0 -0.45173725747E+02 -0.83353476076E+01 -0.41183813746E+02  0.62499999705E+02  0.99999965387E+01 0.  0.
    3000022    2    3    3    0    0 -0.10060651183E+02 -0.24690748902E-01 -0.14325191850E+02  0.17506882531E+02  0.25000516369E+00 0.  0.
    1000022    2    1    0    0    0  0.45173725747E+02  0.83353476076E+01  0.41183813746E+02  0.62500000295E+02  0.10000000229E+02 0.  0.
    3000022    2    5    5    0    0  0.21964737344E+02 -0.15472321033E+00  0.15799408651E+02  0.27058407960E+02  0.25000352028E+00 0.  0.
        -13    1    4    4    0    0 -0.55749673402E+01  0.46653840346E-01 -0.79859124429E+01  0.97400338793E+01  0.10500000000E+00 0. -1.
         13    1    4    4    0    0 -0.44856838428E+01 -0.71344589247E-01 -0.63392794068E+01  0.77668486521E+01  0.10500000000E+00 0.  1.
    3000001    1    5    5    0    0  0.23208988404E+02  0.84900708179E+01  0.25384405095E+02  0.35441592335E+02  0.10000000000E+01 0.  1.
        -13    1    6    6    0    0  0.11253990762E+02 -0.35216497107E-01  0.80314271132E+01  0.13826365927E+02  0.10500000000E+00 0. -1.
         13    1    6    6    0    0  0.10710746582E+02 -0.11950671322E+00  0.77679815381E+01  0.13232042034E+02  0.10500000000E+00 0.  1.
</event>
<event>
11    0  0.3448258E-009  0.9118800E+02  0.7816531E-02  0.1126479E+00
         25   -1    0    0    0    0  0.00000000000E+00  0.00000000000E+00  0.99999998245E-14  0.12500000000E+03  0.12500000000E+03 0.  0.
    3000001    1    3    3    0    0  0.74614259604E+01  0.23253060014E+02 -0.10954153098E+02  0.26783785160E+02  0.10000000000E+01 0. -1.
    1000022    2    1    0    0    0  0.26686527251E+02  0.48077612390E+02 -0.27975392673E+02  0.62500000261E+02  0.99999943810E+01 0.  0.
    3000022    2    3    3    0    0  0.19225101291E+02  0.24824552375E+02 -0.17021239575E+02  0.35716215102E+02  0.25000843666E+00 0.  0.
    1000022    2    1    0    0    0 -0.26686527251E+02 -0.48077612390E+02  0.27975392673E+02  0.62499999739E+02  0.99999911126E+01 0.  0.
    3000022    2    5    5    0    0 -0.19765811947E+02 -0.41359589043E+02  0.20305831089E+02  0.50136735084E+02  0.25000196068E+00 0.  0.
        -13    1    4    4    0    0  0.11305282719E+02  0.14567538317E+02 -0.99262428346E+01  0.20941917577E+02  0.10500000000E+00 0. -1.
         13    1    4    4    0    0  0.79198185718E+01  0.10257014058E+02 -0.70949967409E+01  0.14774297525E+02  0.10500000000E+00 0.  1.
    3000001    1    5    5    0    0 -0.69207153043E+01 -0.67180233467E+01  0.76695615844E+01  0.12363264654E+02  0.10000000000E+01 0.  1.
        -13    1    6    6    0    0 -0.14366770378E+02 -0.30123088239E+02  0.14755372748E+02  0.36490225898E+02  0.10500000000E+00 0. -1.
         13    1    6    6    0    0 -0.53990415690E+01 -0.11236500804E+02  0.55504583412E+01  0.13646509187E+02  0.10500000000E+00 0.  1.
</event>
<event>
11    0  0.3448258E-009  0.9118800E+02  0.7816531E-02  0.1126479E+00
         25   -1    0    0    0    0  0.00000000000E+00  0.00000000000E+00  0.99999998245E-14  0.12500000000E+03  0.12500000000E+03 0.  0.
    3000001    1    3    3    0    0  0.15305254004E+02  0.27867059864E+02  0.18864623034E+02  0.36982398892E+02  0.10000000000E+01 0.  1.
    1000022    2    1    0    0    0  0.29641543365E+02  0.48167585385E+02  0.24647775186E+02  0.62499998116E+02  0.99999784028E+01 0.  0.
    3000022    2    3    3    0    0  0.14336289362E+02  0.20300525521E+02  0.57831521519E+01  0.25517599225E+02  0.24998457762E+00 0.  0.
    1000022    2    1    0    0    0 -0.29641543365E+02 -0.48167585385E+02 -0.24647775186E+02  0.62500001884E+02  0.10000001948E+02 0.  0.
    3000022    2    5    5    0    0 -0.29067517375E+02 -0.44920633576E+02 -0.24958455654E+02  0.59040417481E+02  0.25000107635E+00 0.  0.
        -13    1    4    4    0    0  0.44898632481E+01  0.64084497193E+01  0.18619998145E+01  0.80439522687E+01  0.10500000000E+00 0.  1.
         13    1    4    4    0    0  0.98464261136E+01  0.13892075802E+02  0.39211523373E+01  0.17473646956E+02  0.10500000000E+00 0. -1.
    3000001    1    5    5    0    0 -0.57402599067E+00 -0.32469518086E+01  0.31068046738E+00  0.34595844025E+01  0.10000000000E+01 0.  1.
        -13    1    6    6    0    0 -0.20746188535E+02 -0.31990773773E+02 -0.17805644395E+02  0.42081658031E+02  0.10500000000E+00 0. -1.
         13    1    6    6    0    0 -0.83213288402E+01 -0.12929859803E+02 -0.71528112586E+01  0.16958759451E+02  0.10500000000E+00 0.  1.
</event>
<event>
11    0  0.3448258E-009  0.9118800E+02  0.7816531E-02  0.1126479E+00
         25   -1    0    0    0    0  0.00000000000E+00  0.00000000000E+00  0.99999998245E-14  0.12500000000E+03  0.12500000000E+03 0.  0.
    3000001    1    3    3    0    0  0.30986583408E+02  0.56464829966E+01  0.28233530719E+02  0.42310558710E+02  0.10000000000E+01 0.  1.
    1000022    2    1    0    0    0  0.40951629939E+02  0.56961608713E+01  0.45790478332E+02  0.62499999746E+02  0.99999909534E+01 0.  0.
    3000022    2    3    3    0    0  0.99650465310E+01  0.49677874635E-01  0.17556947613E+02  0.20189441036E+02  0.24999919329E+00 0.  0.
    1000022    2    1    0    0    0 -0.40951629939E+02 -0.56961608713E+01 -0.45790478332E+02  0.62500000254E+02  0.99999941303E+01 0.  0.
    3000022    2    5    5    0    0 -0.37677774662E+02 -0.70455498212E+01 -0.44158762967E+02  0.58474894797E+02  0.24999791464E+00 0.  0.
        -13    1    4    4    0    0  0.37309352737E+01  0.30491395614E-01  0.66942148872E+01  0.76644860035E+01  0.10500000000E+00 0.  1.
         13    1    4    4    0    0  0.62341112574E+01  0.19186479020E-01  0.10862732725E+02  0.12524955032E+02  0.10500000000E+00 0. -1.
    3000001    1    5    5    0    0 -0.32738552768E+01  0.13493889499E+01 -0.16317153647E+01  0.40251054574E+01  0.10000000000E+01 0. -1.
        -13    1    6    6    0    0 -0.26279723771E+02 -0.49509289391E+01 -0.30852079237E+02  0.40828879450E+02  0.10500000000E+00 0.  1.
         13    1    6    6    0    0 -0.11398050891E+02 -0.20946208821E+01 -0.13306683730E+02  0.17646015347E+02  0.10500000000E+00 0. -1.
</event>
<event>
11    0  0.3448258E-009  0.9118800E+02  0.7816531E-02  0.1126479E+00
         25   -1    0    0    0    0  0.00000000000E+00  0.00000000000E+00  0.99999998245E-14  0.12500000000E+03  0.12500000000E+03 0.  0.
    3000001    1    3    3    0    0  0.69001043595E+01 -0.33896190584E+01  0.25453586518E+02  0.26608006768E+02  0.10000000000E+01 0. -1.
    1000022    2    1    0    0    0  0.18016145987E+02  0.33313314746E+01  0.58911548467E+02  0.62500001312E+02  0.10000016779E+02 0.  0.
    3000022    2    3    3    0    0  0.11116041627E+02  0.67209505330E+01  0.33457961949E+02  0.35891994544E+02  0.24999404948E+00 0.  0.
    1000022    2    1    0    0    0 -0.18016145987E+02 -0.33313314746E+01 -0.58911548467E+02  0.62499998688E+02  0.10000000377E+02 0.  0.
    3000022    2    5    5    0    0 -0.11420402396E+02 -0.68530119353E+01 -0.38448170531E+02  0.40690461706E+02  0.24998642295E+00 0.  0.
        -13    1    4    4    0    0  0.50974499718E+01  0.30268437340E+01  0.15400843834E+02  0.16502811730E+02  0.10500000000E+00 0.  1.
         13    1    4    4    0    0  0.60185916555E+01  0.36941067990E+01  0.18057118115E+02  0.19389182814E+02  0.10500000000E+00 0. -1.
    3000001    1    5    5    0    0 -0.65957435911E+01  0.35216804607E+01 -0.20463377936E+02  0.21809536982E+02  0.10000000000E+01 0.  1.
        -13    1    6    6    0    0 -0.46618427524E+01 -0.27529115523E+01 -0.15474197651E+02  0.16394301382E+02  0.10500000000E+00 0.  1.
         13    1    6    6    0    0 -0.67585596433E+01 -0.41001003830E+01 -0.22973972880E+02  0.24296160324E+02  0.10500000000E+00 0. -1.
</event>
<event>
11    0  0.3448258E-009  0.9118800E+02  0.7816531E-02  0.1126479E+00
         25   -1    0    0    0    0  0.00000000000E+00  0.00000000000E+00  0.99999998245E-14  0.12500000000E+03  0.12500000000E+03 0.  0.
    3000001    1    3    3    0    0 -0.15658541940E+02 -0.27677908309E+01  0.16889538276E+02  0.23218680087E+02  0.10000000000E+01 0. -1.
    1000022    2    1    0    0    0 -0.42851456703E+02  0.52783459190E+01  0.44069742685E+02  0.62499985385E+02  0.99998837784E+01 0.  0.
    3000022    2    3    3    0    0 -0.27192914763E+02  0.80461367499E+01  0.27180204408E+02  0.39281305298E+02  0.25000869122E+00 0.  0.
    1000022    2    1    0    0    0  0.42851456703E+02 -0.52783459190E+01 -0.44069742685E+02  0.62500014615E+02  0.10000066470E+02 0.  0.
    3000022    2    5    5    0    0  0.10647417948E+02  0.25526499066E+01 -0.84247363032E+01  0.13817460371E+02  0.24999767144E+00 0.  0.
        -13    1    4    4    0    0 -0.14920784700E+02  0.44229517910E+01  0.14824083595E+02  0.21493180268E+02  0.10500000000E+00 0.  1.
         13    1    4    4    0    0 -0.12272130063E+02  0.36231849589E+01  0.12356120814E+02  0.17788125030E+02  0.10500000000E+00 0. -1.
    3000001    1    5    5    0    0  0.32204038755E+02 -0.78309958257E+01 -0.35645006381E+02  0.48682554244E+02  0.10000000000E+01 0. -1.
        -13    1    6    6    0    0  0.39657023831E+01  0.10124861633E+01 -0.31502587479E+01  0.51659538132E+01  0.10500000000E+00 0.  1.
         13    1    6    6    0    0  0.66817155646E+01  0.15401637433E+01 -0.52744775554E+01  0.86515065581E+01  0.10500000000E+00 0. -1.
</event>
<event>
11    0  0.3448258E-009  0.9118800E+02  0.7816531E-02  0.1126479E+00
         25   -1    0    0    0    0  0.00000000000E+00  0.00000000000E+00  0.99999998245E-14  0.12500000000E+03  0.12500000000E+03 0.  0.
    3000001    1    3    3    0    0 -0.25282192069E+01  0.11395365731E+01 -0.39153433908E+01  0.49010559910E+01  0.10000000000E+01 0.  1.
    1000022    2    1    0    0    0 -0.12809764218E+02  0.39588389046E+02 -0.45551282389E+02  0.62500000070E+02  0.10000003745E+02 0.  0.
    3000022    2    3    3    0    0 -0.10281545011E+02  0.38448852473E+02 -0.41635938998E+02  0.57598944079E+02  0.25003692621E+00 0.  0.
    1000022    2    1    0    0    0  0.12809764218E+02 -0.39588389046E+02  0.45551282389E+02  0.62499999930E+02  0.10000002868E+02 0.  0.
    3000022    2    5    5    0    0  0.99415824226E+01 -0.38162323051E+02  0.42125265861E+02  0.57704406090E+02  0.24999304534E+00 0.  0.
        -13    1    4    4    0    0 -0.68062538623E+01  0.25301287954E+02 -0.27353019718E+02  0.37877156394E+02  0.10500000000E+00 0. -1.
         13    1    4    4    0    0 -0.34752911487E+01  0.13147564518E+02 -0.14282919280E+02  0.19721787685E+02  0.10500000000E+00 0.  1.
    3000001    1    5    5    0    0  0.28681817952E+01 -0.14260659944E+01  0.34260165280E+01  0.47955938402E+01  0.10000000000E+01 0. -1.
        -13    1    6    6    0    0  0.31759892475E+01 -0.12188181674E+02  0.13528425753E+02  0.18484263809E+02  0.10500000000E+00 0. -1.
         13    1    6    6    0    0  0.67655931752E+01 -0.25974141377E+02  0.28596840108E+02  0.39220142280E+02  0.10500000000E+00 0.  1.
</event>
<event>
11    0  0.3448258E-009  0.9118800E+02  0.7816531E-02  0.1126479E+00
         25   -1    0    0    0    0  0.00000000000E+00  0.00000000000E+00  0.99999998245E-14  0.12500000000E+03  0.12500000000E+03 0.  0.
    3000001    1    3    3    0    0 -0.23448029830E+02 -0.35023192335E+01 -0.85758525859E+01  0.25231361249E+02  0.10000000000E+01 0. -1.
    1000022    2    1    0    0    0 -0.58745523518E+02  0.30078437079E+01 -0.18605538035E+02  0.62500012519E+02  0.10000093106E+02 0.  0.
    3000022    2    3    3    0    0 -0.35297493688E+02  0.65101629413E+01 -0.10029685449E+02  0.37268651269E+02  0.24999014953E+00 0.  0.
    1000022    2    1    0    0    0  0.58745523518E+02 -0.30078437079E+01  0.18605538035E+02  0.62499987481E+02  0.99999366235E+01 0.  0.
    3000022    2    5    5    0    0  0.40423884127E+02 -0.24052801662E+01  0.79375726075E+01  0.41266734336E+02  0.25004649522E+00 0.  0.
        -13    1    4    4    0    0 -0.16617744307E+02  0.30223461733E+01 -0.46648865369E+01  0.17523018965E+02  0.10500000000E+00 0. -1.
         13    1    4    4    0    0 -0.18679749381E+02  0.34878167681E+01 -0.53647989122E+01  0.19745632305E+02  0.10500000000E+00 0.  1.
    3000001    1    5    5    0    0  0.18321639390E+02 -0.60256354171E+00  0.10667965427E+02  0.21233253145E+02  0.10000000000E+01 0.  1.
        -13    1    6    6    0    0  0.11173725969E+02 -0.62634148635E+00  0.21927278403E+01  0.11404540151E+02  0.10500000000E+00 0. -1.
         13    1    6    6    0    0  0.29250158159E+02 -0.17789386798E+01  0.57448447672E+01  0.29862194185E+02  0.10500000000E+00 0.  1.
</event>
<event>
11    0  0.3448258E-009  0.9118800E+02  0.7816531E-02  0.1126479E+00
         25   -1    0    0    0    0  0.00000000000E+00  0.00000000000E+00  0.99999998245E-14  0.12500000000E+03  0.12500000000E+03 0.  0.
    3000001    1    3    3    0    0  0.52484078305E+01  0.30668876251E+01  0.92539914304E+01  0.11117011372E+02  0.10000000000E+01 0. -1.
    1000022    2    1    0    0    0  0.43607610353E+02  0.22331283030E+02  0.37495866555E+02  0.62499998287E+02  0.99999947301E+01 0.  0.
    3000022    2    3    3    0    0  0.38359202523E+02  0.19264395405E+02  0.28241875125E+02  0.51382986914E+02  0.24997030210E+00 0.  0.
    1000022    2    1    0    0    0 -0.43607610353E+02 -0.22331283030E+02 -0.37495866555E+02  0.62500001713E+02  0.10000016149E+02 0.  0.
    3000022    2    5    5    0    0 -0.28789843052E+02 -0.96228356948E+01 -0.24721279611E+02  0.39149178750E+02  0.25000289502E+00 0.  0.
        -13    1    4    4    0    0  0.25479322963E+02  0.12744827259E+02  0.18709302175E+02  0.34083361533E+02  0.10500000000E+00 0. -1.
         13    1    4    4    0    0  0.12879879560E+02  0.65195681455E+01  0.95325729495E+01  0.17299625381E+02  0.10500000000E+00 0.  1.
    3000001    1    5    5    0    0 -0.14817767301E+02 -0.12708447335E+02 -0.12774586944E+02  0.23350822963E+02  0.10000000000E+01 0.  1.
        -13    1    6    6    0    0 -0.21716694669E+02 -0.72630376278E+01 -0.18678362314E+02  0.29550952381E+02  0.10500000000E+00 0.  1.
         13    1    6    6    0    0 -0.70731483829E+01 -0.23597980670E+01 -0.60429172973E+01  0.95982263687E+01  0.10500000000E+00 0. -1.
</event>
<event>
11    0  0.3448258E-009  0.9118800E+02  0.7816531E-02  0.1126479E+00
         25   -1    0    0    0    0  0.00000000000E+00  0.00000000000E+00  0.99999998245E-14  0.12500000000E+03  0.12500000000E+03 0.  0.
    3000001    1    3    3    0    0 -0.73296449748E+00 -0.51324401726E+01  0.52571837109E+01  0.74509838042E+01  0.10000000000E+01 0.  1.
    1000022    2    1    0    0    0  0.99679566929E+01 -0.25869779937E+02  0.55114828180E+02  0.62500000044E+02  0.10000002282E+02 0.  0.
    3000022    2    3    3    0    0  0.10700921190E+02 -0.20737339764E+02  0.49857644469E+02  0.55049016240E+02  0.25000440558E+00 0.  0.
    1000022    2    1    0    0    0 -0.99679566929E+01  0.25869779937E+02 -0.55114828180E+02  0.62499999956E+02  0.10000001728E+02 0.  0.
    3000022    2    5    5    0    0  0.63705940779E+00  0.77265483710E+01 -0.21364571060E+02  0.22729117720E+02  0.25000267964E+00 0.  0.
        -13    1    4    4    0    0  0.81901263114E+01 -0.15838773256E+02  0.38086695457E+02  0.42054159165E+02  0.10500000000E+00 0.  1.
         13    1    4    4    0    0  0.25107948790E+01 -0.48985665088E+01  0.11770949012E+02  0.12994857075E+02  0.10500000000E+00 0. -1.
    3000001    1    5    5    0    0 -0.10605016101E+02  0.18143231566E+02 -0.33750257120E+02  0.39770882236E+02  0.10000000000E+01 0. -1.
        -13    1    6    6    0    0  0.26415100268E+00  0.40103285485E+01 -0.11113455994E+02  0.11818309521E+02  0.10500000000E+00 0. -1.
         13    1    6    6    0    0  0.37290840511E+00  0.37162198224E+01 -0.10251115066E+02  0.10910808199E+02  0.10500000000E+00 0.  1.
</event>
<event>
11    0  0.3448258E-009  0.9118800E+02  0.7816531E-02  0.1126479E+00
         25   -1    0    0    0    0  0.00000000000E+00  0.00000000000E+00  0.99999998245E-14  0.12500000000E+03  0.12500000000E+03 0.  0.
    3000001    1    3    3    0    0  0.45774485295E+00  0.56368651576E+02 -0.23926617092E+02  0.61246366556E+02  0.10000000000E+01 0.  1.
    1000022    2    1    0    0    0 -0.65524755230E+00  0.56688070509E+02 -0.24336870811E+02  0.62499998046E+02  0.99999893720E+01 0.  0.
    3000022    2    3    3    0    0 -0.11129924053E+01  0.31941893269E+00 -0.41025371913E+00  0.12536314894E+01  0.25000649656E+00 0.  0.
    1000022    2    1    0    0    0  0.65524755230E+00 -0.56688070509E+02  0.24336870811E+02  0.62500001954E+02  0.10000013801E+02 0.  0.
    3000022    2    5    5    0    0 -0.13231698645E+01 -0.54152222029E+02  0.23374900108E+02  0.58997138750E+02  0.24999313216E+00 0.  0.
        -13    1    4    4    0    0 -0.73148381383E+00  0.21270596557E+00 -0.32598436298E+00  0.83522643792E+00  0.10500000000E+00 0.  1.
         13    1    4    4    0    0 -0.38150859142E+00  0.10671296712E+00 -0.84269356143E-01  0.41840505143E+00  0.10500000000E+00 0. -1.
    3000001    1    5    5    0    0  0.19784174168E+01 -0.25358484803E+01  0.96197070373E+00  0.35028632038E+01  0.10000000000E+01 0.  1.
        -13    1    6    6    0    0 -0.29638447788E+00 -0.12705758769E+02  0.54847271962E+01  0.13842593943E+02  0.10500000000E+00 0.  1.
         13    1    6    6    0    0 -0.10267853866E+01 -0.41446463259E+02  0.17890172911E+02  0.45154544807E+02  0.10500000000E+00 0. -1.
</event>
<event>
11    0  0.3448258E-009  0.9118800E+02  0.7816531E-02  0.1126479E+00
         25   -1    0    0    0    0  0.00000000000E+00  0.00000000000E+00  0.99999998245E-14  0.12500000000E+03  0.12500000000E+03 0.  0.
    3000001    1    3    3    0    0 -0.98974381129E+01 -0.12312155076E+02 -0.26808473276E+02  0.31132662643E+02  0.10000000000E+01 0. -1.
    1000022    2    1    0    0    0 -0.13350343996E+02 -0.18155450943E+02 -0.57431678979E+02  0.62500000730E+02  0.10000012857E+02 0.  0.
    3000022    2    3    3    0    0 -0.34529058836E+01 -0.58432958668E+01 -0.30623205703E+02  0.31367338087E+02  0.25001109546E+00 0.  0.
    1000022    2    1    0    0    0  0.13350343996E+02  0.18155450943E+02  0.57431678979E+02  0.62499999270E+02  0.10000003731E+02 0.  0.
    3000022    2    5    5    0    0  0.13778193452E+02  0.14509657834E+02  0.53041393981E+02  0.56690570304E+02  0.25000132067E+00 0.  0.
        -13    1    4    4    0    0 -0.11422239771E+01 -0.19140702221E+01 -0.98252143931E+01  0.10075425713E+02  0.10500000000E+00 0. -1.
         13    1    4    4    0    0 -0.23106819065E+01 -0.39292256447E+01 -0.20797991310E+02  0.21291912374E+02  0.10500000000E+00 0.  1.
    3000001    1    5    5    0    0 -0.42784945531E+00  0.36457931089E+01  0.43902849981E+01  0.58094289662E+01  0.10000000000E+01 0.  1.
        -13    1    6    6    0    0  0.55822514240E+01  0.59122182951E+01  0.21723171733E+02  0.23195324340E+02  0.10500000000E+00 0.  1.
         13    1    6    6    0    0  0.81959420278E+01  0.85974395392E+01  0.31318222248E+02  0.33495245963E+02  0.10500000000E+00 0. -1.
</event>
<event>
11    0  0.3448258E-009  0.9118800E+02  0.7816531E-02  0.1126479E+00
         25   -1    0    0    0    0  0.00000000000E+00  0.00000000000E+00  0.99999998245E-14  0.12500000000E+03  0.12500000000E+03 0.  0.
    3000001    1    3    3    0    0 -0.70021008742E+01 -0.32716469844E+01 -0.23159041059E+01  0.81299755517E+01  0.10000000000E+01 0. -1.
    1000022    2    1    0    0    0 -0.37967811241E+02 -0.34048684062E+02 -0.34718618122E+02  0.62500000421E+02  0.10000001572E+02 0.  0.
    3000022    2    3    3    0    0 -0.30965710367E+02 -0.30777037078E+02 -0.32402714016E+02  0.54370024869E+02  0.24999758284E+00 0.  0.
    1000022    2    1    0    0    0  0.37967811241E+02  0.34048684062E+02  0.34718618122E+02  0.62499999579E+02  0.99999963132E+01 0.  0.
    3000022    2    5    5    0    0  0.15932129487E+02  0.18553750567E+02  0.11978266604E+02  0.27232623414E+02  0.24999417835E+00 0.  0.
        -13    1    4    4    0    0 -0.20106557352E+02 -0.20004029620E+02 -0.21118125272E+02  0.35361293664E+02  0.10500000000E+00 0.  1.
         13    1    4    4    0    0 -0.10859153015E+02 -0.10773007458E+02 -0.11284588744E+02  0.19008731205E+02  0.10500000000E+00 0. -1.
    3000001    1    5    5    0    0  0.22035681755E+02  0.15494933496E+02  0.22740351518E+02  0.35267376165E+02  0.10000000000E+01 0.  1.
        -13    1    6    6    0    0  0.74058582921E+01  0.87128233042E+01  0.56397393551E+01  0.12750596534E+02  0.10500000000E+00 0.  1.
         13    1    6    6    0    0  0.85262711947E+01  0.98409272626E+01  0.63385272489E+01  0.14482026880E+02  0.10500000000E+00 0. -1.
</event>
<event>
11    0  0.3448258E-009  0.9118800E+02  0.7816531E-02  0.1126479E+00
         25   -1    0    0    0    0  0.00000000000E+00  0.00000000000E+00  0.99999998245E-14  0.12500000000E+03  0.12500000000E+03 0.  0.
    3000001    1    3    3    0    0 -0.34602699338E+02 -0.37001412803E+02 -0.14932676959E+02  0.52824579431E+02  0.10000000000E+01 0.  1.
    1000022    2    1    0    0    0 -0.39419752787E+02 -0.45339378870E+02 -0.14024029467E+02  0.62500003051E+02  0.10000039639E+02 0.  0.
    3000022    2    3    3    0    0 -0.48170534485E+01 -0.83379660675E+01  0.90864749132E+00  0.96754236202E+01  0.24999979790E+00 0.  0.
    1000022    2    1    0    0    0  0.39419752787E+02  0.45339378870E+02  0.14024029467E+02  0.62499996949E+02  0.10000001500E+02 0.  0.
    3000022    2    5    5    0    0  0.35292209039E+01  0.86549785346E+01  0.41411678395E+01  0.10226232394E+02  0.25000854081E+00 0.  0.
        -13    1    4    4    0    0 -0.27818981717E+01 -0.48075232315E+01  0.45885150697E+00  0.55742987689E+01  0.10500000000E+00 0. -1.
         13    1    4    4    0    0 -0.20351552768E+01 -0.35304428360E+01  0.44979598436E+00  0.41011248513E+01  0.10500000000E+00 0.  1.
    3000001    1    5    5    0    0  0.35890531883E+02  0.36684400336E+02  0.98828616279E+01  0.52273764555E+02  0.10000000000E+01 0.  1.
        -13    1    6    6    0    0  0.19849730722E+01  0.46909617875E+01  0.22601567812E+01  0.55735602863E+01  0.10500000000E+00 0. -1.
         13    1    6    6    0    0  0.15442478317E+01  0.39640167472E+01  0.18810110582E+01  0.46526721074E+01  0.10500000000E+00 0.  1.
</event>
<event>
11    0  0.3448258E-009  0.9118800E+02  0.7816531E-02  0.1126479E+00
         25   -1    0    0    0    0  0.00000000000E+00  0.00000000000E+00  0.99999998245E-14  0.12500000000E+03  0.12500000000E+03 0.  0.
    3000001    1    3    3    0    0  0.14080645939E+02  0.97096404327E+00 -0.81164059331E+01  0.16312063220E+02  0.10000000000E+01 0.  1.
    1000022    2    1    0    0    0  0.53652126758E+02  0.18645873606E+02 -0.24083826607E+02  0.62500000432E+02  0.10000002092E+02 0.  0.
    3000022    2    3    3    0    0  0.39571480819E+02  0.17674909563E+02 -0.15967420674E+02  0.46187937212E+02  0.24999737018E+00 0.  0.
    1000022    2    1    0    0    0 -0.53652126758E+02 -0.18645873606E+02  0.24083826607E+02  0.62499999568E+02  0.99999966891E+01 0.  0.
    3000022    2    5    5    0    0 -0.46836560825E+02 -0.13658549476E+02  0.22963120930E+02  0.53922043973E+02  0.24999952417E+00 0.  0.
        -13    1    4    4    0    0  0.23872680657E+02  0.10730252155E+02 -0.96557226226E+01  0.27897799150E+02  0.10500000000E+00 0. -1.
         13    1    4    4    0    0  0.15698800162E+02  0.69446574075E+01 -0.63116980514E+01  0.18290138062E+02  0.10500000000E+00 0.  1.
    3000001    1    5    5    0    0 -0.68155659331E+01 -0.49873241297E+01  0.11207056771E+01  0.85779555943E+01  0.10000000000E+01 0.  1.
        -13    1    6    6    0    0 -0.14235439718E+02 -0.41393992303E+01  0.70281328980E+01  0.16406951179E+02  0.10500000000E+00 0. -1.
         13    1    6    6    0    0 -0.32601121107E+02 -0.95191502457E+01  0.15934988032E+02  0.37515092795E+02  0.10500000000E+00 0.  1.
</event>
<event>
11    0  0.3448258E-009  0.9118800E+02  0.7816531E-02  0.1126479E+00
         25   -1    0    0    0    0  0.00000000000E+00  0.00000000000E+00  0.99999998245E-14  0.12500000000E+03  0.12500000000E+03 0.  0.
    3000001    1    3    3    0    0  0.22731750745E+02 -0.23895503636E+02 -0.39538752987E+02  0.51497966696E+02  0.10000000000E+01 0. -1.
    1000022    2    1    0    0    0  0.26257271780E+02 -0.32527014338E+02 -0.45373988663E+02  0.62500000685E+02  0.10000012770E+02 0.  0.
    3000022    2    3    3    0    0  0.35255210346E+01 -0.86315107021E+01 -0.58352356753E+01  0.11002033990E+02  0.25000191698E+00 0.  0.
    1000022    2    1    0    0    0 -0.26257271780E+02  0.32527014338E+02  0.45373988663E+02  0.62499999315E+02  0.10000004205E+02 0.  0.
    3000022    2    5    5    0    0 -0.20264367067E+02  0.18789739154E+02  0.25629491237E+02  0.37691274741E+02  0.25000086803E+00 0.  0.
        -13    1    4    4    0    0  0.21970249438E+01 -0.52230751841E+01 -0.35692489600E+01  0.66976112250E+01  0.10500000000E+00 0.  1.
         13    1    4    4    0    0  0.13284960908E+01 -0.34084355179E+01 -0.22659867153E+01  0.43044227647E+01  0.10500000000E+00 0. -1.
    3000001    1    5    5    0    0 -0.59929047132E+01  0.13737275185E+02  0.19744497426E+02  0.24808724574E+02  0.10000000000E+01 0.  1.
        -13    1    6    6    0    0 -0.77077972817E+01  0.71760574183E+01  0.96892578226E+01  0.14310788978E+02  0.10500000000E+00 0.  1.
         13    1    6    6    0    0 -0.12556569785E+02  0.11613681736E+02  0.15940233414E+02  0.23380485763E+02  0.10500000000E+00 0. -1.
</event>
<event>
11    0  0.3448258E-009  0.9118800E+02  0.7816531E-02  0.1126479E+00
         25   -1    0    0    0    0  0.00000000000E+00  0.00000000000E+00  0.99999998245E-14  0.12500000000E+03  0.12500000000E+03 0.  0.
    3000001    1    3    3    0    0  0.17383938316E+02 -0.18500188783E+02 -0.25016388354E+02  0.35654985383E+02  0.10000000000E+01 0. -1.
    1000022    2    1    0    0    0  0.26958590102E+02 -0.26367617134E+02 -0.48828610691E+02  0.62500000173E+02  0.99999992952E+01 0.  0.
    3000022    2    3    3    0    0  0.95746517866E+01 -0.78674283514E+01 -0.23812222337E+02  0.26845014790E+02  0.25000147640E+00 0.  0.
    1000022    2    1    0    0    0 -0.26958590102E+02  0.26367617134E+02  0.48828610691E+02  0.62499999827E+02  0.99999971365E+01 0.  0.
    3000022    2    5    5    0    0 -0.29334209418E+01  0.82047264326E+01  0.86930429593E+01  0.12310726581E+02  0.24999760429E+00 0.  0.
        -13    1    4    4    0    0  0.44388425632E+01 -0.36260948637E+01 -0.11154908317E+02  0.12541726030E+02  0.10500000000E+00 0. -1.
         13    1    4    4    0    0  0.51358092235E+01 -0.42413334877E+01 -0.12657314020E+02  0.14303288760E+02  0.10500000000E+00 0.  1.
    3000001    1    5    5    0    0 -0.24025169161E+02  0.18162890702E+02  0.40135567732E+02  0.50189273246E+02  0.10000000000E+01 0.  1.
        -13    1    6    6    0    0 -0.18958928230E+01  0.53093753279E+01  0.55430775986E+01  0.79069975485E+01  0.10500000000E+00 0. -1.
         13    1    6    6    0    0 -0.10375281188E+01  0.28953511048E+01  0.31499653607E+01  0.44037290324E+01  0.10500000000E+00 0.  1.
</event>
<event>
11    0  0.3448258E-009  0.9118800E+02  0.7816531E-02  0.1126479E+00
         25   -1    0    0    0    0  0.00000000000E+00  0.00000000000E+00  0.99999998245E-14  0.12500000000E+03  0.12500000000E+03 0.  0.
    3000001    1    3    3    0    0  0.37317969230E+02  0.15426451167E+01 -0.84534903951E+01  0.38307598218E+02  0.10000000000E+01 0. -1.
    1000022    2    1    0    0    0  0.57983306285E+02  0.14074313776E+01 -0.21028679605E+02  0.62500000430E+02  0.10000000847E+02 0.  0.
    3000022    2    3    3    0    0  0.20665337056E+02 -0.13521373907E+00 -0.12575189210E+02  0.24192402212E+02  0.25000546173E+00 0.  0.
    1000022    2    1    0    0    0 -0.57983306285E+02 -0.14074313776E+01  0.21028679605E+02  0.62499999570E+02  0.99999954755E+01 0.  0.
    3000022    2    5    5    0    0 -0.11779234894E+02 -0.32894842066E+01  0.16183650796E+01  0.12339072087E+02  0.25002682361E+00 0.  0.
        -13    1    4    4    0    0  0.99556463445E+01 -0.11589583464E-01 -0.61064291172E+01  0.11679663095E+02  0.10500000000E+00 0. -1.
         13    1    4    4    0    0  0.10709690711E+02 -0.12362415561E+00 -0.64687600927E+01  0.12512739116E+02  0.10500000000E+00 0.  1.
    3000001    1    5    5    0    0 -0.46204071391E+02  0.18820528290E+01  0.19410314525E+02  0.50160927483E+02  0.10000000000E+01 0. -1.
        -13    1    6    6    0    0 -0.60352299789E+01 -0.17544409298E+01  0.84479908574E+00  0.63424580699E+01  0.10500000000E+00 0.  1.
         13    1    6    6    0    0 -0.57440049148E+01 -0.15350432768E+01  0.77356599387E+00  0.59966140171E+01  0.10500000000E+00 0. -1.
</event>
<event>
11    0  0.3448258E-009  0.9118800E+02  0.7816531E-02  0.1126479E+00
         25   -1    0    0    0    0  0.00000000000E+00  0.00000000000E+00  0.99999998245E-14  0.12500000000E+03  0.12500000000E+03 0.  0.
    3000001    1    3    3    0    0  0.20915706878E+01 -0.10979269069E+01 -0.24255950503E+01  0.35303856423E+01  0.10000000000E+01 0.  1.
    1000022    2    1    0    0    0  0.56533314805E+02 -0.21851817533E+02 -0.11520948418E+02  0.62500000141E+02  0.10000007640E+02 0.  0.
    3000022    2    3    3    0    0  0.54441744117E+02 -0.20753890626E+02 -0.90953533679E+01  0.58969614498E+02  0.25000514173E+00 0.  0.
    1000022    2    1    0    0    0 -0.56533314805E+02  0.21851817533E+02  0.11520948418E+02  0.62499999859E+02  0.10000005883E+02 0.  0.
    3000022    2    5    5    0    0 -0.34937181345E+02  0.18360156741E+02  0.60720246642E+01  0.39932867884E+02  0.24991612827E+00 0.  0.
        -13    1    4    4    0    0  0.16873342380E+02 -0.64793905501E+01 -0.28009568846E+01  0.18290668918E+02  0.10500000000E+00 0.  1.
         13    1    4    4    0    0  0.37568401737E+02 -0.14274500076E+02 -0.62943964833E+01  0.40678945581E+02  0.10500000000E+00 0. -1.
    3000001    1    5    5    0    0 -0.21596133460E+02  0.34916607925E+01  0.54489237541E+01  0.22567131975E+02  0.10000000000E+01 0. -1.
        -13    1    6    6    0    0 -0.23791067073E+02  0.12453035641E+02  0.41566004926E+01  0.27173172833E+02  0.10500000000E+00 0. -1.
         13    1    6    6    0    0 -0.11146114272E+02  0.59071210994E+01  0.19154241716E+01  0.12759695051E+02  0.10500000000E+00 0.  1.
</event>
<event>
11    0  0.3448258E-009  0.9118800E+02  0.7816531E-02  0.1126479E+00
         25   -1    0    0    0    0  0.00000000000E+00  0.00000000000E+00  0.99999998245E-14  0.12500000000E+03  0.12500000000E+03 0.  0.
    3000001    1    3    3    0    0 -0.11931634303E+02 -0.10642362907E+02 -0.24510628066E+02  0.29281302457E+02  0.10000000000E+01 0.  1.
    1000022    2    1    0    0    0 -0.29713811836E+02 -0.29400198037E+02 -0.45375845992E+02  0.62500002078E+02  0.10000030093E+02 0.  0.
    3000022    2    3    3    0    0 -0.17782177532E+02 -0.18757835129E+02 -0.20865217925E+02  0.33218699620E+02  0.24993772018E+00 0.  0.
    1000022    2    1    0    0    0  0.29713811836E+02  0.29400198037E+02  0.45375845992E+02  0.62499997922E+02  0.10000004123E+02 0.  0.
    3000022    2    5    5    0    0  0.23399392267E+02  0.20726345649E+02  0.38992253654E+02  0.49975707090E+02  0.24998334428E+00 0.  0.
        -13    1    4    4    0    0 -0.92819050857E+01 -0.98558038409E+01 -0.10863722560E+02  0.17358632556E+02  0.10500000000E+00 0. -1.
         13    1    4    4    0    0 -0.85002724467E+01 -0.89020312884E+01 -0.10001495366E+02  0.15860067064E+02  0.10500000000E+00 0.  1.
    3000001    1    5    5    0    0  0.63144195688E+01  0.86738523875E+01  0.63835923375E+01  0.12524290833E+02  0.10000000000E+01 0.  1.
        -13    1    6    6    0    0  0.14346959859E+02  0.12636700898E+02  0.23897962728E+02  0.30604658377E+02  0.10500000000E+00 0. -1.
         13    1    6    6    0    0  0.90524324081E+01  0.80896447506E+01  0.15094290926E+02  0.19371048713E+02  0.10500000000E+00 0.  1.
</event>
<event>
11    0  0.3448258E-009  0.9118800E+02  0.7816531E-02  0.1126479E+00
         25   -1    0    0    0    0  0.00000000000E+00  0.00000000000E+00  0.99999998245E-14  0.12500000000E+03  0.12500000000E+03 0.  0.
    3000001    1    3    3    0    0 -0.21318658077E+01  0.72428958086E+01  0.38522522510E+02  0.39268169452E+02  0.10000000000E+01 0.  1.
    1000022    2    1    0    0    0  0.41657793222E+01  0.11898438716E+02  0.60393074237E+02  0.62500000038E+02  0.10000001384E+02 0.  0.
    3000022    2    3    3    0    0  0.62976451299E+01  0.46555429073E+01  0.21870551727E+02  0.23231830586E+02  0.25001122689E+00 0.  0.
    1000022    2    1    0    0    0 -0.41657793222E+01 -0.11898438716E+02 -0.60393074237E+02  0.62499999962E+02  0.10000000910E+02 0.  0.
    3000022    2    5    5    0    0 -0.48946780555E+01 -0.12993834996E+02 -0.57636635671E+02  0.59286102026E+02  0.25000155252E+00 0.  0.
        -13    1    4    4    0    0  0.24756118507E+01  0.17659312086E+01  0.85942349863E+01  0.91169658915E+01  0.10500000000E+00 0. -1.
         13    1    4    4    0    0  0.38220332792E+01  0.28896116987E+01  0.13276316741E+02  0.14114864695E+02  0.10500000000E+00 0.  1.
    3000001    1    5    5    0    0  0.72889873332E+00  0.10953962804E+01 -0.27564385662E+01  0.32138979361E+01  0.10000000000E+01 0. -1.
        -13    1    6    6    0    0 -0.11955777669E+01 -0.31462685218E+01 -0.14056833996E+02  0.14454550107E+02  0.10500000000E+00 0.  1.
         13    1    6    6    0    0 -0.36991002886E+01 -0.98475664745E+01 -0.43579801675E+02  0.44831551919E+02  0.10500000000E+00 0. -1.
</event>
<event>
11    0  0.3448258E-009  0.9118800E+02  0.7816531E-02  0.1126479E+00
         25   -1    0    0    0    0  0.00000000000E+00  0.00000000000E+00  0.99999998245E-14  0.12500000000E+03  0.12500000000E+03 0.  0.
    3000001    1    3    3    0    0 -0.99982944056E+01 -0.48901455183E+01 -0.12197566943E+02  0.16542673712E+02  0.10000000000E+01 0. -1.
    1000022    2    1    0    0    0 -0.48516670221E+02 -0.17608804508E+02 -0.33798115922E+02  0.62499999496E+02  0.10000000586E+02 0.  0.
    3000022    2    3    3    0    0 -0.38518375815E+02 -0.12718658990E+02 -0.21600548979E+02  0.45957325785E+02  0.25003033406E+00 0.  0.
    1000022    2    1    0    0    0  0.48516670221E+02  0.17608804508E+02  0.33798115922E+02  0.62500000504E+02  0.10000006880E+02 0.  0.
    3000022    2    5    5    0    0  0.13685726835E+02  0.58723258409E+00  0.10476012632E+02  0.17246834539E+02  0.24999974266E+00 0.  0.
        -13    1    4    4    0    0 -0.18421225199E+02 -0.61306132050E+01 -0.10281741072E+02  0.21969323626E+02  0.10500000000E+00 0. -1.
         13    1    4    4    0    0 -0.20097150616E+02 -0.65880457846E+01 -0.11318807906E+02  0.23988002158E+02  0.10500000000E+00 0.  1.
    3000001    1    5    5    0    0  0.34830943386E+02  0.17021571924E+02  0.23322103290E+02  0.45253165964E+02  0.10000000000E+01 0.  1.
        -13    1    6    6    0    0  0.46317229382E+01  0.23109275326E+00  0.34918186014E+01  0.58060385274E+01  0.10500000000E+00 0. -1.
         13    1    6    6    0    0  0.90540038966E+01  0.35613983084E+00  0.69841940301E+01  0.11440796012E+02  0.10500000000E+00 0.  1.
</event>
<event>
11    0  0.3448258E-009  0.9118800E+02  0.7816531E-02  0.1126479E+00
         25   -1    0    0    0    0  0.00000000000E+00  0.00000000000E+00  0.99999998245E-14  0.12500000000E+03  0.12500000000E+03 0.  0.
    3000001    1    3    3    0    0  0.31087388726E+02  0.11314373541E+02 -0.97547121207E+01  0.34505002463E+02  0.10000000000E+01 0. -1.
    1000022    2    1    0    0    0  0.56051123169E+02  0.12890440576E+02 -0.22323935182E+02  0.62500000089E+02  0.10000003118E+02 0.  0.
    3000022    2    3    3    0    0  0.24963734443E+02  0.15760670351E+01 -0.12569223061E+02  0.27994997626E+02  0.24999812953E+00 0.  0.
    1000022    2    1    0    0    0 -0.56051123169E+02 -0.12890440576E+02  0.22323935182E+02  0.62499999911E+02  0.10000002009E+02 0.  0.
    3000022    2    5    5    0    0 -0.48836246070E+01 -0.11180149192E-01  0.49060519360E+01  0.69268866731E+01  0.24999817148E+00 0.  0.
        -13    1    4    4    0    0  0.16424190901E+02  0.99944421396E+00 -0.82228129512E+01  0.18395070354E+02  0.10500000000E+00 0.  1.
         13    1    4    4    0    0  0.85395435423E+01  0.57662282112E+00 -0.43464101098E+01  0.95999272722E+01  0.10500000000E+00 0. -1.
    3000001    1    5    5    0    0 -0.51167498562E+02 -0.12879260427E+02  0.17417883246E+02  0.55573113238E+02  0.10000000000E+01 0. -1.
        -13    1    6    6    0    0 -0.11984421157E+01  0.16256532375E-01  0.12270899275E+01  0.17185175209E+01  0.10500000000E+00 0.  1.
         13    1    6    6    0    0 -0.36851824912E+01 -0.27436681567E-01  0.36789620085E+01  0.52083691521E+01  0.10500000000E+00 0. -1.
</event>
<event>
11    0  0.3448258E-009  0.9118800E+02  0.7816531E-02  0.1126479E+00
         25   -1    0    0    0    0  0.00000000000E+00  0.00000000000E+00  0.99999998245E-14  0.12500000000E+03  0.12500000000E+03 0.  0.
    3000001    1    3    3    0    0  0.43273336792E+01 -0.83298906251E+01 -0.15077923998E+02  0.17789229514E+02  0.10000000000E+01 0.  1.
    1000022    2    1    0    0    0 -0.30225628127E+00 -0.30444500191E+02 -0.53659024777E+02  0.62499998898E+02  0.99999985750E+01 0.  0.
    3000022    2    3    3    0    0 -0.46295899605E+01 -0.22114609566E+02 -0.38581100779E+02  0.44710769385E+02  0.25000435665E+00 0.  0.
    1000022    2    1    0    0    0  0.30225628127E+00  0.30444500191E+02  0.53659024777E+02  0.62500001102E+02  0.10000012346E+02 0.  0.
    3000022    2    5    5    0    0 -0.45736014015E+01  0.18553350896E+02  0.33653029623E+02  0.38700562835E+02  0.25000337560E+00 0.  0.
        -13    1    4    4    0    0 -0.19275776205E+01 -0.91922364862E+01 -0.15910866244E+02  0.18476456823E+02  0.10500000000E+00 0.  1.
         13    1    4    4    0    0 -0.27020123400E+01 -0.12922373080E+02 -0.22670234536E+02  0.26234312562E+02  0.10500000000E+00 0. -1.
    3000001    1    5    5    0    0  0.48758576827E+01  0.11891149295E+02  0.20005995154E+02  0.23799438267E+02  0.10000000000E+01 0.  1.
        -13    1    6    6    0    0 -0.25292325301E+01  0.10507279279E+02  0.18974157177E+02  0.21836428293E+02  0.10500000000E+00 0. -1.
         13    1    6    6    0    0 -0.20443688714E+01  0.80460716163E+01  0.14678872446E+02  0.16864134542E+02  0.10500000000E+00 0.  1.
</event>
<event>
11    0  0.3448258E-009  0.9118800E+02  0.7816531E-02  0.1126479E+00
         25   -1    0    0    0    0  0.00000000000E+00  0.00000000000E+00  0.99999998245E-14  0.12500000000E+03  0.12500000000E+03 0.  0.
    3000001    1    3    3    0    0 -0.10095096491E+02 -0.24163867193E+02 -0.68201418654E+01  0.27079840951E+02  0.10000000000E+01 0.  1.
    1000022    2    1    0    0    0 -0.31007397682E+02 -0.49159048202E+02 -0.20692485345E+02  0.62500002397E+02  0.10000030937E+02 0.  0.
    3000022    2    3    3    0    0 -0.20912301191E+02 -0.24995181009E+02 -0.13872343480E+02  0.35420161446E+02  0.25001690874E+00 0.  0.
    1000022    2    1    0    0    0  0.31007397682E+02  0.49159048202E+02  0.20692485345E+02  0.62499997603E+02  0.10000000973E+02 0.  0.
    3000022    2    5    5    0    0  0.86812462112E+01  0.12577037615E+02  0.10171503880E+02  0.18359408696E+02  0.24997105544E+00 0.  0.
        -13    1    4    4    0    0 -0.64670159878E+01 -0.77120803443E+01 -0.43352490074E+01  0.10959191940E+02  0.10500000000E+00 0. -1.
         13    1    4    4    0    0 -0.14445285203E+02 -0.17283100665E+02 -0.95370944727E+01  0.24460969506E+02  0.10500000000E+00 0.  1.
    3000001    1    5    5    0    0  0.22326151471E+02  0.36582010587E+02  0.10520981465E+02  0.44140588907E+02  0.10000000000E+01 0.  1.
        -13    1    6    6    0    0  0.61398984921E+01  0.88299815923E+01  0.71877275757E+01  0.12936049672E+02  0.10500000000E+00 0.  1.
         13    1    6    6    0    0  0.25413477191E+01  0.37470560231E+01  0.29837763043E+01  0.54233590240E+01  0.10500000000E+00 0. -1.
</event>
<event>
11    0  0.3448258E-009  0.9118800E+02  0.7816531E-02  0.1126479E+00
         25   -1    0    0    0    0  0.00000000000E+00  0.00000000000E+00  0.99999998245E-14  0.12500000000E+03  0.12500000000E+03 0.  0.
    3000001    1    3    3    0    0  0.35611983278E+02 -0.21005917267E+02 -0.23352473470E+02  0.47495262189E+02  0.10000000000E+01 0. -1.
    1000022    2    1    0    0    0  0.42831733364E+02 -0.27858858830E+02 -0.34577100237E+02  0.62500006181E+02  0.10000075674E+02 0.  0.
    3000022    2    3    3    0    0  0.72197500860E+01 -0.68529415634E+01 -0.11224626767E+02  0.15004743992E+02  0.24999364997E+00 0.  0.
    1000022    2    1    0    0    0 -0.42831733364E+02  0.27858858830E+02  0.34577100237E+02  0.62499993819E+02  0.99999984181E+01 0.  0.
    3000022    2    5    5    0    0 -0.37352819433E+02  0.24942056094E+02  0.26107306792E+02  0.51951835826E+02  0.24999185446E+00 0.  0.
        -13    1    4    4    0    0  0.30691042048E+01 -0.29202167959E+01 -0.46795901868E+01  0.63132128169E+01  0.10500000000E+00 0.  1.
         13    1    4    4    0    0  0.41506458812E+01 -0.39327247675E+01 -0.65450365805E+01  0.86915311751E+01  0.10500000000E+00 0. -1.
    3000001    1    5    5    0    0 -0.54789139308E+01  0.29168027361E+01  0.84697934448E+01  0.10548157994E+02  0.10000000000E+01 0. -1.
        -13    1    6    6    0    0 -0.15204217882E+02  0.10213623427E+02  0.10602058452E+02  0.21163672019E+02  0.10500000000E+00 0.  1.
         13    1    6    6    0    0 -0.22148601551E+02  0.14728432668E+02  0.15505248340E+02  0.30788163807E+02  0.10500000000E+00 0. -1.
</event>
<event>
11    0  0.3448258E-009  0.9118800E+02  0.7816531E-02  0.1126479E+00
         25   -1    0    0    0    0  0.00000000000E+00  0.00000000000E+00  0.99999998245E-14  0.12500000000E+03  0.12500000000E+03 0.  0.
    3000001    1    3    3    0    0 -0.48898529499E+01 -0.12887356123E+02 -0.51813806973E+00  0.13829789470E+02  0.10000000000E+01 0. -1.
    1000022    2    1    0    0    0 -0.14587124919E+02 -0.58197392687E+02  0.14371129313E+02  0.62499999077E+02  0.99999898952E+01 0.  0.
    3000022    2    3    3    0    0 -0.96972719688E+01 -0.45310036564E+02  0.14889267383E+02  0.48670209607E+02  0.25004588732E+00 0.  0.
    1000022    2    1    0    0    0  0.14587124919E+02  0.58197392687E+02 -0.14371129313E+02  0.62500000923E+02  0.10000001438E+02 0.  0.
    3000022    2    5    5    0    0 -0.40882176301E+00  0.14251007584E+02 -0.17191320414E+01  0.14362321134E+02  0.25000201177E+00 0.  0.
        -13    1    4    4    0    0 -0.31625267875E+01 -0.15017952979E+02  0.49490976974E+01  0.16125913319E+02  0.10500000000E+00 0.  1.
         13    1    4    4    0    0 -0.65347451813E+01 -0.30292083584E+02  0.99401696854E+01  0.32544296287E+02  0.10500000000E+00 0. -1.
    3000001    1    5    5    0    0  0.14995946682E+02  0.43946385103E+02 -0.12651997272E+02  0.48137679789E+02  0.10000000000E+01 0. -1.
        -13    1    6    6    0    0 -0.11279378682E+00  0.56397660652E+01 -0.64093785718E+00  0.56781607978E+01  0.10500000000E+00 0.  1.
         13    1    6    6    0    0 -0.29602797620E+00  0.86112415183E+01 -0.10781941842E+01  0.86841603364E+01  0.10500000000E+00 0. -1.
</event>
<event>
11    0  0.3448258E-009  0.9118800E+02  0.7816531E-02  0.1126479E+00
         25   -1    0    0    0    0  0.00000000000E+00  0.00000000000E+00  0.99999998245E-14  0.12500000000E+03  0.12500000000E+03 0.  0.
    3000001    1    3    3    0    0 -0.14121491730E+01 -0.11344486070E+01 -0.57951236520E+00  0.21487143855E+01  0.10000000000E+01 0.  1.
    1000022    2    1    0    0    0 -0.32397998709E+02 -0.69802459471E+01 -0.52037445910E+02  0.62499999929E+02  0.10000003018E+02 0.  0.
    3000022    2    3    3    0    0 -0.30985849536E+02 -0.58457973400E+01 -0.51457933545E+02  0.60351285543E+02  0.25004791314E+00 0.  0.
    1000022    2    1    0    0    0  0.32397998709E+02  0.69802459471E+01  0.52037445910E+02  0.62500000071E+02  0.10000003911E+02 0.  0.
    3000022    2    5    5    0    0  0.16365972914E+02  0.65757395118E+01  0.34277790388E+02  0.38550159971E+02  0.25000077570E+00 0.  0.
        -13    1    4    4    0    0 -0.21962075097E+02 -0.41407754853E+01 -0.36387900420E+02  0.42703267862E+02  0.10500000000E+00 0.  1.
         13    1    4    4    0    0 -0.90237744396E+01 -0.17050218547E+01 -0.15070033126E+02  0.17648017681E+02  0.10500000000E+00 0. -1.
    3000001    1    5    5    0    0  0.16032025795E+02  0.40450643521E+00  0.17759655523E+02  0.23949840100E+02  0.10000000000E+01 0. -1.
        -13    1    6    6    0    0  0.50770684761E+01  0.20583097861E+01  0.10548926770E+02  0.11887141982E+02  0.10500000000E+00 0.  1.
         13    1    6    6    0    0  0.11288904438E+02  0.45174297258E+01  0.23728863617E+02  0.26663017989E+02  0.10500000000E+00 0. -1.
</event>
<event>
11    0  0.3448258E-009  0.9118800E+02  0.7816531E-02  0.1126479E+00
         25   -1    0    0    0    0  0.00000000000E+00  0.00000000000E+00  0.99999998245E-14  0.12500000000E+03  0.12500000000E+03 0.  0.
    3000001    1    3    3    0    0 -0.89090419744E+01 -0.20093895621E+02  0.74498402305E+01  0.23230062195E+02  0.10000000000E+01 0.  1.
    1000022    2    1    0    0    0 -0.11688350219E+02 -0.57553846400E+02  0.18899415265E+02  0.62499996417E+02  0.99999444279E+01 0.  0.
    3000022    2    3    3    0    0 -0.27793082444E+01 -0.37459950779E+02  0.11449575035E+02  0.39269934222E+02  0.24999735702E+00 0.  0.
    1000022    2    1    0    0    0  0.11688350219E+02  0.57553846400E+02 -0.18899415265E+02  0.62500003583E+02  0.99999892125E+01 0.  0.
    3000022    2    5    5    0    0  0.60480432292E+01  0.48240189654E+02 -0.14777959870E+02  0.50814813833E+02  0.24996442998E+00 0.  0.
        -13    1    4    4    0    0 -0.21441220346E+01 -0.28811091349E+02  0.88118867622E+01  0.30204910484E+02  0.10500000000E+00 0. -1.
         13    1    4    4    0    0 -0.63518620973E+00 -0.86488594296E+01  0.26376882725E+01  0.90650237384E+01  0.10500000000E+00 0.  1.
    3000001    1    5    5    0    0  0.56403069896E+01  0.93136567456E+01 -0.41214553948E+01  0.11685189750E+02  0.10000000000E+01 0. -1.
        -13    1    6    6    0    0  0.13887203721E+01  0.11128013340E+02 -0.34039011521E+01  0.11720016776E+02  0.10500000000E+00 0.  1.
         13    1    6    6    0    0  0.46593228571E+01  0.37112176314E+02 -0.11374058718E+02  0.39094797057E+02  0.10500000000E+00 0. -1.
</event>
<event>
11    0  0.3448258E-009  0.9118800E+02  0.7816531E-02  0.1126479E+00
         25   -1    0    0    0    0  0.00000000000E+00  0.00000000000E+00  0.99999998245E-14  0.12500000000E+03  0.12500000000E+03 0.  0.
    3000001    1    3    3    0    0  0.45212474282E+01  0.10458572005E+02  0.12855555401E+02  0.17207228463E+02  0.10000000000E+01 0.  1.
    1000022    2    1    0    0    0  0.13467616662E+02  0.48745595291E+02  0.35337520873E+02  0.62499997737E+02  0.99999788418E+01 0.  0.
    3000022    2    3    3    0    0  0.89463692339E+01  0.38287023285E+02  0.22481965472E+02  0.45292769274E+02  0.25000500844E+00 0.  0.
    1000022    2    1    0    0    0 -0.13467616662E+02 -0.48745595291E+02 -0.35337520873E+02  0.62500002263E+02  0.10000007135E+02 0.  0.
    3000022    2    5    5    0    0 -0.10930484438E+02 -0.23021923425E+02 -0.20267815175E+02  0.32562728440E+02  0.25000647215E+00 0.  0.
        -13    1    4    4    0    0  0.64864930720E+01  0.27855350171E+02  0.16318963916E+02  0.32928934599E+02  0.10500000000E+00 0. -1.
         13    1    4    4    0    0  0.24598761619E+01  0.10431673114E+02  0.61630015558E+01  0.12363834675E+02  0.10500000000E+00 0.  1.
    3000001    1    5    5    0    0 -0.25371322241E+01 -0.25723671866E+02 -0.15069705698E+02  0.29937273824E+02  0.10000000000E+01 0.  1.
        -13    1    6    6    0    0 -0.56627402250E+01 -0.11776010015E+02 -0.10366094524E+02  0.16679567722E+02  0.10500000000E+00 0.  1.
         13    1    6    6    0    0 -0.52677442130E+01 -0.11245913410E+02 -0.99017206517E+01  0.15883160718E+02  0.10500000000E+00 0. -1.
</event>
<event>
11    0  0.3448258E-009  0.9118800E+02  0.7816531E-02  0.1126479E+00
         25   -1    0    0    0    0  0.00000000000E+00  0.00000000000E+00  0.99999998245E-14  0.12500000000E+03  0.12500000000E+03 0.  0.
    3000001    1    3    3    0    0 -0.21088138803E+02  0.35626099253E+02 -0.26033745973E+02  0.48915074114E+02  0.10000000000E+01 0. -1.
    1000022    2    1    0    0    0 -0.23475081044E+02  0.48244461298E+02 -0.30457224779E+02  0.62500000742E+02  0.10000003773E+02 0.  0.
    3000022    2    3    3    0    0 -0.23869422409E+01  0.12618362045E+02 -0.44234788061E+01  0.13584926628E+02  0.25002553543E+00 0.  0.
    1000022    2    1    0    0    0  0.23475081044E+02 -0.48244461298E+02  0.30457224779E+02  0.62499999258E+02  0.99999945041E+01 0.  0.
    3000022    2    5    5    0    0  0.31033148896E+01 -0.38101819413E+01  0.62181413800E+01  0.79294284144E+01  0.25000605445E+00 0.  0.
        -13    1    4    4    0    0 -0.13529701387E+01  0.68148524011E+01 -0.24181188257E+01  0.73573816743E+01  0.10500000000E+00 0. -1.
         13    1    4    4    0    0 -0.10339721022E+01  0.58035096439E+01 -0.20053599804E+01  0.62275449533E+01  0.10500000000E+00 0.  1.
    3000001    1    5    5    0    0  0.20371766155E+02 -0.44434279357E+02  0.24239083399E+02  0.54570570844E+02  0.10000000000E+01 0. -1.
        -13    1    6    6    0    0  0.20461034766E+01 -0.25590587774E+01  0.40712322832E+01  0.52269760442E+01  0.10500000000E+00 0.  1.
         13    1    6    6    0    0  0.10572114130E+01 -0.12511231640E+01  0.21469090968E+01  0.27024523702E+01  0.10500000000E+00 0. -1.
</event>
<event>
11    0  0.3448258E-009  0.9118800E+02  0.7816531E-02  0.1126479E+00
         25   -1    0    0    0    0  0.00000000000E+00  0.00000000000E+00  0.99999998245E-14  0.12500000000E+03  0.12500000000E+03 0.  0.
    3000001    1    3    3    0    0 -0.25314379867E+01  0.19079106146E+01  0.79863914509E+01  0.86504768424E+01  0.10000000000E+01 0.  1.
    1000022    2    1    0    0    0 -0.31500124343E+02  0.28886506062E+02  0.44492268936E+02  0.62499998613E+02  0.99999882744E+01 0.  0.
    3000022    2    3    3    0    0 -0.28968686356E+02  0.26978595447E+02  0.36505877485E+02  0.53849521771E+02  0.25000494509E+00 0.  0.
    1000022    2    1    0    0    0  0.31500124343E+02 -0.28886506062E+02 -0.44492268936E+02  0.62500001387E+02  0.10000005612E+02 0.  0.
    3000022    2    5    5    0    0  0.22042047984E+02 -0.13642060677E+02 -0.26620131695E+02  0.37157120472E+02  0.24998296782E+00 0.  0.
        -13    1    4    4    0    0 -0.17074992019E+02  0.15984724302E+02  0.21541709355E+02  0.31798160802E+02  0.10500000000E+00 0. -1.
         13    1    4    4    0    0 -0.11893694337E+02  0.10993871145E+02  0.14964168131E+02  0.22051360969E+02  0.10500000000E+00 0.  1.
    3000001    1    5    5    0    0  0.94580763585E+01 -0.15244445385E+02 -0.17872137241E+02  0.25342880915E+02  0.10000000000E+01 0.  1.
        -13    1    6    6    0    0  0.13878992935E+02 -0.86582147819E+01 -0.16815582151E+02  0.23459879714E+02  0.10500000000E+00 0.  1.
         13    1    6    6    0    0  0.81630550488E+01 -0.49838458953E+01 -0.98045495441E+01  0.13697240759E+02  0.10500000000E+00 0. -1.
</event>
<event>
11    0  0.3448258E-009  0.9118800E+02  0.7816531E-02  0.1126479E+00
         25   -1    0    0    0    0  0.00000000000E+00  0.00000000000E+00  0.99999998245E-14  0.12500000000E+03  0.12500000000E+03 0.  0.
    3000001    1    3    3    0    0  0.59258442377E+01 -0.51362964341E+01  0.13114296249E+00  0.79066029030E+01  0.10000000000E+01 0.  1.
    1000022    2    1    0    0    0  0.27461357869E+02 -0.54464863380E+02  0.92575358340E+01  0.62500003727E+02  0.10000048857E+02 0.  0.
    3000022    2    3    3    0    0  0.21535513631E+02 -0.49328566946E+02  0.91263928715E+01  0.54593400824E+02  0.25000477930E+00 0.  0.
    1000022    2    1    0    0    0 -0.27461357869E+02  0.54464863380E+02 -0.92575358340E+01  0.62499996273E+02  0.10000002269E+02 0.  0.
    3000022    2    5    5    0    0 -0.14222408824E+01  0.64799978252E+01  0.15955520308E+01  0.68279884777E+01  0.24999885298E+00 0.  0.
        -13    1    4    4    0    0  0.85070830688E+01 -0.19431619437E+02  0.36560833265E+01  0.21525247190E+02  0.10500000000E+00 0. -1.
         13    1    4    4    0    0  0.13028430562E+02 -0.29896947509E+02  0.54703095450E+01  0.33068153634E+02  0.10500000000E+00 0.  1.
    3000001    1    5    5    0    0 -0.26039116986E+02  0.47984865555E+02 -0.10853087865E+02  0.55672007795E+02  0.10000000000E+01 0. -1.
        -13    1    6    6    0    0 -0.87174976752E+00  0.41746708271E+01  0.98631599287E+00  0.43785463809E+01  0.10500000000E+00 0. -1.
         13    1    6    6    0    0 -0.55049111487E+00  0.23053269981E+01  0.60923603793E+00  0.24494420968E+01  0.10500000000E+00 0.  1.
</event>
<event>
11    0  0.3448258E-009  0.9118800E+02  0.7816531E-02  0.1126479E+00
         25   -1    0    0    0    0  0.00000000000E+00  0.00000000000E+00  0.99999998245E-14  0.12500000000E+03  0.12500000000E+03 0.  0.
    3000001    1    3    3    0    0 -0.18921415803E+02  0.12780755990E+01 -0.21016229387E+02  0.28325524724E+02  0.10000000000E+01 0.  1.
    1000022    2    1    0    0    0 -0.32755654495E+02  0.50177068139E+01 -0.52039789195E+02  0.62500000089E+02  0.10000003429E+02 0.  0.
    3000022    2    3    3    0    0 -0.13834238692E+02  0.37396312150E+01 -0.31023559808E+02  0.34174475365E+02  0.25000300854E+00 0.  0.
    1000022    2    1    0    0    0  0.32755654495E+02 -0.50177068139E+01  0.52039789195E+02  0.62499999911E+02  0.10000002321E+02 0.  0.
    3000022    2    5    5    0    0  0.45218159599E+01 -0.22880570661E+01  0.15005830412E+02  0.15840437876E+02  0.25000209435E+00 0.  0.
        -13    1    4    4    0    0 -0.83366611354E+01  0.23115373082E+01 -0.18794120430E+02  0.20689927775E+02  0.10500000000E+00 0. -1.
         13    1    4    4    0    0 -0.54975775564E+01  0.14280939068E+01 -0.12229439378E+02  0.13484547589E+02  0.10500000000E+00 0.  1.
    3000001    1    5    5    0    0  0.28233838535E+02 -0.27296497479E+01  0.37033958782E+02  0.46659562035E+02  0.10000000000E+01 0. -1.
        -13    1    6    6    0    0  0.20119081416E+01 -0.10833253310E+01  0.68670858299E+01  0.72380426179E+01  0.10500000000E+00 0. -1.
         13    1    6    6    0    0  0.25099078183E+01 -0.12047317351E+01  0.81387445822E+01  0.86023952586E+01  0.10500000000E+00 0.  1.
</event>
<event>
11    0  0.3448258E-009  0.9118800E+02  0.7816531E-02  0.1126479E+00
         25   -1    0    0    0    0  0.00000000000E+00  0.00000000000E+00  0.99999998245E-14  0.12500000000E+03  0.12500000000E+03 0.  0.
    3000001    1    3    3    0    0 -0.22935734246E+01  0.20967973773E+02  0.85733179667E+00  0.21134129294E+02  0.10000000000E+01 0.  1.
    1000022    2    1    0    0    0  0.65119841926E+01  0.61054760781E+02  0.60133217041E+01  0.62499997692E+02  0.99999960691E+01 0.  0.
    3000022    2    3    3    0    0  0.88055576173E+01  0.40086787008E+02  0.51559899074E+01  0.41365868398E+02  0.24999759863E+00 0.  0.
    1000022    2    1    0    0    0 -0.65119841926E+01 -0.61054760781E+02 -0.60133217041E+01  0.62500002308E+02  0.10000024922E+02 0.  0.
    3000022    2    5    5    0    0 -0.53953644724E+01 -0.12960482384E+02 -0.29716064969E+00  0.14044033106E+02  0.25000002217E+00 0.  0.
        -13    1    4    4    0    0  0.52590502161E+01  0.24094583063E+02  0.30439999878E+01  0.24849215341E+02  0.10500000000E+00 0.  1.
         13    1    4    4    0    0  0.35465074011E+01  0.15992203946E+02  0.21119899196E+01  0.16516653057E+02  0.10500000000E+00 0. -1.
    3000001    1    5    5    0    0 -0.11166197202E+01 -0.48094278397E+02 -0.57161610544E+01  0.48455969202E+02  0.10000000000E+01 0. -1.
        -13    1    6    6    0    0 -0.18882561414E+01 -0.43962515781E+01 -0.89584835050E-01  0.47866052308E+01  0.10500000000E+00 0.  1.
         13    1    6    6    0    0 -0.35071083310E+01 -0.85642308060E+01 -0.20757581464E+00  0.92574278751E+01  0.10500000000E+00 0. -1.
</event>
<event>
11    0  0.3448258E-009  0.9118800E+02  0.7816531E-02  0.1126479E+00
         25   -1    0    0    0    0  0.00000000000E+00  0.00000000000E+00  0.99999998245E-14  0.12500000000E+03  0.12500000000E+03 0.  0.
    3000001    1    3    3    0    0  0.12454958363E+02  0.15141869730E+02  0.18675494078E+02  0.27095687586E+02  0.10000000000E+01 0. -1.
    1000022    2    1    0    0    0  0.37811807289E+02  0.30630455877E+02  0.37924827411E+02  0.62500001121E+02  0.10000000415E+02 0.  0.
    3000022    2    3    3    0    0  0.25356848927E+02  0.15488586148E+02  0.19249333333E+02  0.35404313535E+02  0.24998955780E+00 0.  0.
    1000022    2    1    0    0    0 -0.37811807289E+02 -0.30630455877E+02 -0.37924827411E+02  0.62499998879E+02  0.99999863977E+01 0.  0.
    3000022    2    5    5    0    0 -0.27805356361E+01  0.46014785488E+00 -0.21131805296E+01  0.35314505973E+01  0.24999379580E+00 0.  0.
        -13    1    4    4    0    0  0.15409508092E+02  0.94136934259E+01  0.11624042815E+02  0.21475566580E+02  0.10500000000E+00 0.  1.
         13    1    4    4    0    0  0.99473408346E+01  0.60748927218E+01  0.76252905177E+01  0.13928746955E+02  0.10500000000E+00 0. -1.
    3000001    1    5    5    0    0 -0.35031271653E+02 -0.31090603732E+02 -0.35811646881E+02  0.58968548281E+02  0.10000000000E+01 0.  1.
        -13    1    6    6    0    0 -0.11863423599E+01  0.22168273146E+00 -0.98133613166E+00  0.15590372131E+01  0.10500000000E+00 0. -1.
         13    1    6    6    0    0 -0.15941932762E+01  0.23846512342E+00 -0.11318443980E+01  0.19724133842E+01  0.10500000000E+00 0.  1.
</event>
<event>
11    0  0.3448258E-009  0.9118800E+02  0.7816531E-02  0.1126479E+00
         25   -1    0    0    0    0  0.00000000000E+00  0.00000000000E+00  0.99999998245E-14  0.12500000000E+03  0.12500000000E+03 0.  0.
    3000001    1    3    3    0    0  0.25156222263E+02 -0.11332693693E+01  0.23176958126E+02  0.34238738382E+02  0.10000000000E+01 0.  1.
    1000022    2    1    0    0    0  0.50534389214E+02  0.13158973533E+01  0.35366567191E+02  0.62499998870E+02  0.99999852392E+01 0.  0.
    3000022    2    3    3    0    0  0.25378166951E+02  0.24491667226E+01  0.12189609065E+02  0.28261260488E+02  0.24999957588E+00 0.  0.
    1000022    2    1    0    0    0 -0.50534389214E+02 -0.13158973533E+01 -0.35366567191E+02  0.62500001130E+02  0.99999993636E+01 0.  0.
    3000022    2    5    5    0    0 -0.25307485816E+02 -0.31234935475E+01 -0.22949521969E+02  0.34306968815E+02  0.25000081875E+00 0.  0.
        -13    1    4    4    0    0  0.94494414189E+01  0.95695137060E+00  0.44969503997E+01  0.10509104955E+02  0.10500000000E+00 0.  1.
         13    1    4    4    0    0  0.15928725532E+02  0.14922153520E+01  0.76926586653E+01  0.17752155533E+02  0.10500000000E+00 0. -1.
    3000001    1    5    5    0    0 -0.25226903398E+02  0.18075961942E+01 -0.12417045222E+02  0.28193032315E+02  0.10000000000E+01 0.  1.
        -13    1    6    6    0    0 -0.95876741790E+01 -0.12249079357E+01 -0.87591227697E+01  0.13044429934E+02  0.10500000000E+00 0.  1.
         13    1    6    6    0    0 -0.15719811637E+02 -0.18985856119E+01 -0.14190399199E+02  0.21262538881E+02  0.10500000000E+00 0. -1.
</event>
<event>
11    0  0.3448258E-009  0.9118800E+02  0.7816531E-02  0.1126479E+00
         25   -1    0    0    0    0  0.00000000000E+00  0.00000000000E+00  0.99999998245E-14  0.12500000000E+03  0.12500000000E+03 0.  0.
    3000001    1    3    3    0    0  0.30823567737E+01 -0.15017996916E+01 -0.60814236216E+02  0.60919025371E+02  0.10000000000E+01 0.  1.
    1000022    2    1    0    0    0  0.19025115704E+01 -0.21190689847E+01 -0.61629051440E+02  0.62499999932E+02  0.10000000323E+02 0.  0.
    3000022    2    3    3    0    0 -0.11798452034E+01 -0.61726929302E+00 -0.81481522357E+00  0.15809745607E+01  0.25000125832E+00 0.  0.
    1000022    2    1    0    0    0 -0.19025115704E+01  0.21190689847E+01  0.61629051440E+02  0.62500000068E+02  0.10000001175E+02 0.  0.
    3000022    2    5    5    0    0 -0.47207942786E+01  0.13697412957E+01  0.15380685313E+02  0.16148995993E+02  0.25000206246E+00 0.  0.
        -13    1    4    4    0    0 -0.68136937658E+00 -0.28192559712E+00 -0.43780441523E+00  0.86396989279E+00  0.10500000000E+00 0. -1.
         13    1    4    4    0    0 -0.49847582678E+00 -0.33534369590E+00 -0.37701080834E+00  0.71700466795E+00  0.10500000000E+00 0.  1.
    3000001    1    5    5    0    0  0.28182827082E+01  0.74932768899E+00  0.46248366127E+02  0.46351004075E+02  0.10000000000E+01 0.  1.
        -13    1    6    6    0    0 -0.20816468694E+01  0.67227389018E+00  0.68094731236E+01  0.71529822518E+01  0.10500000000E+00 0.  1.
         13    1    6    6    0    0 -0.26391474092E+01  0.69746740549E+00  0.85712121895E+01  0.89960137409E+01  0.10500000000E+00 0. -1.
</event>
<event>
11    0  0.3448258E-009  0.9118800E+02  0.7816531E-02  0.1126479E+00
         25   -1    0    0    0    0  0.00000000000E+00  0.00000000000E+00  0.99999998245E-14  0.12500000000E+03  0.12500000000E+03 0.  0.
    3000001    1    3    3    0    0  0.85188500845E+01 -0.92223844616E+00  0.32078931298E+01  0.92039072598E+01  0.10000000000E+01 0.  1.
    1000022    2    1    0    0    0  0.60764597821E+02  0.94596819108E+01  0.49424655124E+01  0.62500001594E+02  0.10000015185E+02 0.  0.
    3000022    2    3    3    0    0  0.52245747736E+02  0.10381920357E+02  0.17345723826E+01  0.53296094334E+02  0.25000616291E+00 0.  0.
    1000022    2    1    0    0    0 -0.60764597821E+02 -0.94596819108E+01 -0.49424655124E+01  0.62499998406E+02  0.99999952614E+01 0.  0.
    3000022    2    5    5    0    0 -0.15466004112E+02  0.84248001545E+00 -0.41081217083E+01  0.16026422452E+02  0.24999375366E+00 0.  0.
        -13    1    4    4    0    0  0.35628370340E+02  0.71306907610E+01  0.11894256537E+01  0.36354549677E+02  0.10500000000E+00 0. -1.
         13    1    4    4    0    0  0.16617377396E+02  0.32512295960E+01  0.54514672883E+00  0.16941544657E+02  0.10500000000E+00 0.  1.
    3000001    1    5    5    0    0 -0.45298593709E+02 -0.10302161926E+02 -0.83434380407E+00  0.46473575954E+02  0.10000000000E+01 0.  1.
        -13    1    6    6    0    0 -0.81666407969E+01  0.39048566549E+00 -0.22098493819E+01  0.84700035568E+01  0.10500000000E+00 0. -1.
         13    1    6    6    0    0 -0.72993633153E+01  0.45199434995E+00 -0.18982723263E+01  0.75564188956E+01  0.10500000000E+00 0.  1.
</event>
<event>
11    0  0.3448258E-009  0.9118800E+02  0.7816531E-02  0.1126479E+00
         25   -1    0    0    0    0  0.00000000000E+00  0.00000000000E+00  0.99999998245E-14  0.12500000000E+03  0.12500000000E+03 0.  0.
    3000001    1    3    3    0    0 -0.11155839608E+02 -0.18124069568E+02  0.22767292672E+02  0.31181473196E+02  0.10000000000E+01 0.  1.
    1000022    2    1    0    0    0 -0.22178181060E+02 -0.27679602925E+02  0.50479876893E+02  0.62499999043E+02  0.99999888004E+01 0.  0.
    3000022    2    3    3    0    0 -0.11022341452E+02 -0.95555333573E+01  0.27712584221E+02  0.31318525847E+02  0.25001637405E+00 0.  0.
    1000022    2    1    0    0    0  0.22178181060E+02  0.27679602925E+02 -0.50479876893E+02  0.62500000957E+02  0.10000000763E+02 0.  0.
    3000022    2    5    5    0    0  0.18763028499E+01 -0.26560699439E+00 -0.10260862260E+01  0.21694247319E+01  0.24998252818E+00 0.  0.
        -13    1    4    4    0    0 -0.31215103483E+01 -0.26762694678E+01  0.78846378583E+01  0.88929626265E+01  0.10500000000E+00 0. -1.
         13    1    4    4    0    0 -0.79008311041E+01 -0.68792638894E+01  0.19827946363E+02  0.22425563221E+02  0.10500000000E+00 0.  1.
    3000001    1    5    5    0    0  0.20301878210E+02  0.27945209920E+02 -0.49453790667E+02  0.60330576225E+02  0.10000000000E+01 0. -1.
        -13    1    6    6    0    0  0.80603656030E+00 -0.13309123929E+00 -0.37209792213E+00  0.90381971552E+00  0.10500000000E+00 0.  1.
         13    1    6    6    0    0  0.10702662896E+01 -0.13251575510E+00 -0.65398830387E+00  0.12656050164E+01  0.10500000000E+00 0. -1.
</event>
<event>
11    0  0.3448258E-009  0.9118800E+02  0.7816531E-02  0.1126479E+00
         25   -1    0    0    0    0  0.00000000000E+00  0.00000000000E+00  0.99999998245E-14  0.12500000000E+03  0.12500000000E+03 0.  0.
    3000001    1    3    3    0    0 -0.19150592616E+02  0.15275763206E+02  0.33825847001E+01  0.24749465011E+02  0.10000000000E+01 0.  1.
    1000022    2    1    0    0    0 -0.45944570352E+02  0.35889731698E+02  0.20181020964E+02  0.62500000029E+02  0.10000000512E+02 0.  0.
    3000022    2    3    3    0    0 -0.26793977736E+02  0.20613968493E+02  0.16798436264E+02  0.37750535018E+02  0.24998662573E+00 0.  0.
    1000022    2    1    0    0    0  0.45944570352E+02 -0.35889731698E+02 -0.20181020964E+02  0.62499999971E+02  0.10000000149E+02 0.  0.
    3000022    2    5    5    0    0  0.31229737384E+02 -0.25679626664E+02 -0.91946852338E+01  0.41464978534E+02  0.24997112980E+00 0.  0.
        -13    1    4    4    0    0 -0.14282035314E+02  0.11052108686E+02  0.90226423433E+01  0.20187737342E+02  0.10500000000E+00 0. -1.
         13    1    4    4    0    0 -0.12511942422E+02  0.95618598065E+01  0.77757939203E+01  0.17562797676E+02  0.10500000000E+00 0.  1.
    3000001    1    5    5    0    0  0.14714832968E+02 -0.10210105035E+02 -0.10986335730E+02  0.21035021437E+02  0.10000000000E+01 0.  1.
        -13    1    6    6    0    0  0.13058558894E+02 -0.10790813627E+02 -0.39037749717E+01  0.17384421277E+02  0.10500000000E+00 0. -1.
         13    1    6    6    0    0  0.18171178491E+02 -0.14888813037E+02 -0.52909102621E+01  0.24080557257E+02  0.10500000000E+00 0.  1.
</event>
<event>
11    0  0.3448258E-009  0.9118800E+02  0.7816531E-02  0.1126479E+00
         25   -1    0    0    0    0  0.00000000000E+00  0.00000000000E+00  0.99999998245E-14  0.12500000000E+03  0.12500000000E+03 0.  0.
    3000001    1    3    3    0    0 -0.59483552189E+01 -0.28273074344E+02 -0.69960643615E+01  0.29743815815E+02  0.10000000000E+01 0.  1.
    1000022    2    1    0    0    0 -0.84295104351E+01 -0.56320130800E+02 -0.23732597406E+02  0.62499999008E+02  0.99999958480E+01 0.  0.
    3000022    2    3    3    0    0 -0.24811552162E+01 -0.28047056455E+02 -0.16736533045E+02  0.32756183193E+02  0.24998406914E+00 0.  0.
    1000022    2    1    0    0    0  0.84295104351E+01  0.56320130800E+02  0.23732597406E+02  0.62500000992E+02  0.10000008243E+02 0.  0.
    3000022    2    5    5    0    0  0.73548587929E+01  0.55543259610E+02  0.22288557750E+02  0.60299170347E+02  0.25000399667E+00 0.  0.
        -13    1    4    4    0    0 -0.14137756178E+01 -0.16471189707E+02 -0.98817854551E+01  0.19260310503E+02  0.10500000000E+00 0. -1.
         13    1    4    4    0    0 -0.10673795984E+01 -0.11575866748E+02 -0.68547475894E+01  0.13495872691E+02  0.10500000000E+00 0.  1.
    3000001    1    5    5    0    0  0.10746516422E+01  0.77687118950E+00  0.14440396562E+01  0.22008306445E+01  0.10000000000E+01 0.  1.
        -13    1    6    6    0    0  0.17508322485E+01  0.13289268133E+02  0.53146244095E+01  0.14419650436E+02  0.10500000000E+00 0. -1.
         13    1    6    6    0    0  0.56040265444E+01  0.42253991477E+02  0.16973933340E+02  0.45879519911E+02  0.10500000000E+00 0.  1.
</event>
<event>
11    0  0.3448258E-009  0.9118800E+02  0.7816531E-02  0.1126479E+00
         25   -1    0    0    0    0  0.00000000000E+00  0.00000000000E+00  0.99999998245E-14  0.12500000000E+03  0.12500000000E+03 0.  0.
    3000001    1    3    3    0    0  0.17988344329E+02  0.29286142481E+02 -0.45676193829E+01  0.34686046473E+02  0.10000000000E+01 0.  1.
    1000022    2    1    0    0    0  0.26076731441E+02  0.54053422133E+02 -0.14299702992E+02  0.62500001572E+02  0.10000016192E+02 0.  0.
    3000022    2    3    3    0    0  0.80883871119E+01  0.24767279652E+02 -0.97320836092E+01  0.27813955098E+02  0.24999880411E+00 0.  0.
    1000022    2    1    0    0    0 -0.26076731441E+02 -0.54053422133E+02  0.14299702992E+02  0.62499998428E+02  0.99999965473E+01 0.  0.
    3000022    2    5    5    0    0 -0.49532276751E+01 -0.21062635274E+02  0.57921927566E+01  0.22400470260E+02  0.25000370363E+00 0.  0.
        -13    1    4    4    0    0  0.25543875746E+01  0.77243191523E+01 -0.30801612058E+01  0.86999092122E+01  0.10500000000E+00 0. -1.
         13    1    4    4    0    0  0.55339995373E+01  0.17042960500E+02 -0.66519224034E+01  0.19114045886E+02  0.10500000000E+00 0.  1.
    3000001    1    5    5    0    0 -0.21123503765E+02 -0.32990786859E+02  0.85075102355E+01  0.40099528168E+02  0.10000000000E+01 0. -1.
        -13    1    6    6    0    0 -0.37374123388E+01 -0.15775703393E+02  0.43406739048E+01  0.16783728534E+02  0.10500000000E+00 0. -1.
         13    1    6    6    0    0 -0.12158153363E+01 -0.52869318807E+01  0.14515188518E+01  0.56167417263E+01  0.10500000000E+00 0.  1.
</event>
<event>
11    0  0.3448258E-009  0.9118800E+02  0.7816531E-02  0.1126479E+00
         25   -1    0    0    0    0  0.00000000000E+00  0.00000000000E+00  0.99999998245E-14  0.12500000000E+03  0.12500000000E+03 0.  0.
    3000001    1    3    3    0    0 -0.16156089707E+02  0.80098196141E+01  0.79506463813E+01  0.19732947644E+02  0.10000000000E+01 0. -1.
    1000022    2    1    0    0    0 -0.41176395784E+02  0.34469679003E+02  0.30374259529E+02  0.62500000341E+02  0.10000003020E+02 0.  0.
    3000022    2    3    3    0    0 -0.25020306077E+02  0.26459859389E+02  0.22423613147E+02  0.42767052697E+02  0.24998939003E+00 0.  0.
    1000022    2    1    0    0    0  0.41176395784E+02 -0.34469679003E+02 -0.30374259529E+02  0.62499999659E+02  0.99999987564E+01 0.  0.
    3000022    2    5    5    0    0  0.30454501895E+02 -0.29277369913E+02 -0.26771027321E+02  0.50013912818E+02  0.24999375588E+00 0.  0.
        -13    1    4    4    0    0 -0.58454880371E+01  0.61752509198E+01  0.52500663740E+01  0.99938819408E+01  0.10500000000E+00 0. -1.
         13    1    4    4    0    0 -0.19174818040E+02  0.20284608469E+02  0.17173546773E+02  0.32773170756E+02  0.10500000000E+00 0.  1.
    3000001    1    5    5    0    0  0.10721893889E+02 -0.51923090897E+01 -0.36032322080E+01  0.12486086841E+02  0.10000000000E+01 0.  1.
        -13    1    6    6    0    0  0.85294001365E+01 -0.82061602071E+01 -0.74540768375E+01  0.13988067005E+02  0.10500000000E+00 0. -1.
         13    1    6    6    0    0  0.21925101758E+02 -0.21071209706E+02 -0.19316950483E+02  0.36025845813E+02  0.10500000000E+00 0.  1.
</event>
<event>
11    0  0.3448258E-009  0.9118800E+02  0.7816531E-02  0.1126479E+00
         25   -1    0    0    0    0  0.00000000000E+00  0.00000000000E+00  0.99999998245E-14  0.12500000000E+03  0.12500000000E+03 0.  0.
    3000001    1    3    3    0    0 -0.53657727359E+02  0.23464687930E+02 -0.90607742834E+01  0.59269224017E+02  0.10000000000E+01 0.  1.
    1000022    2    1    0    0    0 -0.54980566823E+02  0.25808849975E+02 -0.10830070975E+02  0.62500000876E+02  0.10000010350E+02 0.  0.
    3000022    2    3    3    0    0 -0.13228394640E+01  0.23441620457E+01 -0.17692966918E+01  0.32307768593E+01  0.25001677378E+00 0.  0.
    1000022    2    1    0    0    0  0.54980566823E+02 -0.25808849975E+02  0.10830070975E+02  0.62499999124E+02  0.99999993946E+01 0.  0.
    3000022    2    5    5    0    0  0.46583074695E+02 -0.24394158629E+02  0.67881632171E+01  0.53020745779E+02  0.24999971406E+00 0.  0.
        -13    1    4    4    0    0 -0.51564224990E+00  0.88552398549E+00 -0.60433783896E+00  0.11942733700E+01  0.10500000000E+00 0.  1.
         13    1    4    4    0    0 -0.80719721408E+00  0.14586380602E+01 -0.11649588528E+01  0.20365034893E+01  0.10500000000E+00 0. -1.
    3000001    1    5    5    0    0  0.83974921276E+01 -0.14146913467E+01  0.40419077581E+01  0.94792533442E+01  0.10000000000E+01 0.  1.
        -13    1    6    6    0    0  0.28274638007E+02 -0.14737812013E+02  0.41025038482E+01  0.32148092015E+02  0.10500000000E+00 0.  1.
         13    1    6    6    0    0  0.18308436688E+02 -0.96563466151E+01  0.26856593688E+01  0.20872653764E+02  0.10500000000E+00 0. -1.
</event>
<event>
11    0  0.3448258E-009  0.9118800E+02  0.7816531E-02  0.1126479E+00
         25   -1    0    0    0    0  0.00000000000E+00  0.00000000000E+00  0.99999998245E-14  0.12500000000E+03  0.12500000000E+03 0.  0.
    3000001    1    3    3    0    0 -0.10481830966E+01 -0.25134547060E+00  0.38860896177E+00  0.15208153323E+01  0.10000000000E+01 0. -1.
    1000022    2    1    0    0    0 -0.16433161498E+02 -0.26654553038E+02  0.53157649958E+02  0.62500001228E+02  0.10000020502E+02 0.  0.
    3000022    2    3    3    0    0 -0.15384978401E+02 -0.26403207567E+02  0.52769040996E+02  0.60979185896E+02  0.24998931299E+00 0.  0.
    1000022    2    1    0    0    0  0.16433161498E+02  0.26654553038E+02 -0.53157649958E+02  0.62499998772E+02  0.10000005149E+02 0.  0.
    3000022    2    5    5    0    0  0.10310846205E+02  0.12307803309E+02 -0.18605465023E+02  0.24576846791E+02  0.24999551387E+00 0.  0.
        -13    1    4    4    0    0 -0.47716577494E+01 -0.82855629375E+01  0.16497655753E+02  0.19068375422E+02  0.10500000000E+00 0. -1.
         13    1    4    4    0    0 -0.10613320652E+02 -0.18117644630E+02  0.36271385243E+02  0.41910810474E+02  0.10500000000E+00 0.  1.
    3000001    1    5    5    0    0  0.61223152934E+01  0.14346749729E+02 -0.34552184935E+02  0.37923151980E+02  0.10000000000E+01 0. -1.
        -13    1    6    6    0    0  0.59820746568E+01  0.70426015531E+01 -0.10681414276E+02  0.14123989867E+02  0.10500000000E+00 0. -1.
         13    1    6    6    0    0  0.43287715479E+01  0.52652017557E+01 -0.79240507469E+01  0.10452856924E+02  0.10500000000E+00 0.  1.
</event>
<event>
11    0  0.3448258E-009  0.9118800E+02  0.7816531E-02  0.1126479E+00
         25   -1    0    0    0    0  0.00000000000E+00  0.00000000000E+00  0.99999998245E-14  0.12500000000E+03  0.12500000000E+03 0.  0.
    3000001    1    3    3    0    0 -0.58591395622E+01  0.34414352227E+00 -0.23378206369E+01  0.63963549388E+01  0.10000000000E+01 0. -1.
    1000022    2    1    0    0    0 -0.58488182004E+02 -0.18815926584E+02 -0.55985254342E+01  0.62500000909E+02  0.10000004962E+02 0.  0.
    3000022    2    3    3    0    0 -0.52629042442E+02 -0.19160070106E+02 -0.32607047973E+01  0.56103645970E+02  0.25000111922E+00 0.  0.
    1000022    2    1    0    0    0  0.58488182004E+02  0.18815926584E+02  0.55985254342E+01  0.62499999091E+02  0.99999936029E+01 0.  0.
    3000022    2    5    5    0    0  0.16057187549E+02  0.46986014071E+01 -0.28688705488E+01  0.16976544090E+02  0.25000766126E+00 0.  0.
        -13    1    4    4    0    0 -0.21225522135E+02 -0.77294614697E+01 -0.13785521950E+01  0.22631367516E+02  0.10500000000E+00 0.  1.
         13    1    4    4    0    0 -0.31403520307E+02 -0.11430608636E+02 -0.18821526023E+01  0.33472278454E+02  0.10500000000E+00 0. -1.
    3000001    1    5    5    0    0  0.42430994455E+02  0.14117325177E+02  0.84673959830E+01  0.45523455002E+02  0.10000000000E+01 0.  1.
        -13    1    6    6    0    0  0.10408507219E+02  0.30859796393E+01 -0.18193935249E+01  0.11008247393E+02  0.10500000000E+00 0.  1.
         13    1    6    6    0    0  0.56486803304E+01  0.16126217678E+01 -0.10494770239E+01  0.59682966971E+01  0.10500000000E+00 0. -1.
</event>
<event>
11    0  0.3448258E-009  0.9118800E+02  0.7816531E-02  0.1126479E+00
         25   -1    0    0    0    0  0.00000000000E+00  0.00000000000E+00  0.99999998245E-14  0.12500000000E+03  0.12500000000E+03 0.  0.
    3000001    1    3    3    0    0  0.10922710820E+02  0.23746811944E+02 -0.62928733606E+00  0.26165104466E+02  0.10000000000E+01 0.  1.
    1000022    2    1    0    0    0  0.24484234122E+02  0.55135257375E+02 -0.12918023185E+02  0.62500004281E+02  0.10000044287E+02 0.  0.
    3000022    2    3    3    0    0  0.13561523302E+02  0.31388445432E+02 -0.12288735849E+02  0.36334899816E+02  0.24998989266E+00 0.  0.
    1000022    2    1    0    0    0 -0.24484234122E+02 -0.55135257375E+02  0.12918023185E+02  0.62499995719E+02  0.99999907732E+01 0.  0.
    3000022    2    5    5    0    0 -0.17322992156E+02 -0.44760707582E+02  0.13442271425E+02  0.49843396407E+02  0.25000782860E+00 0.  0.
        -13    1    4    4    0    0  0.61377460355E+01  0.14038301196E+02 -0.55032215121E+01  0.16280119744E+02  0.10500000000E+00 0.  1.
         13    1    4    4    0    0  0.74237772666E+01  0.17350144236E+02 -0.67855143368E+01  0.20054780072E+02  0.10500000000E+00 0. -1.
    3000001    1    5    5    0    0 -0.71612419660E+01 -0.10374549794E+02 -0.52424823956E+00  0.12656599312E+02  0.10000000000E+01 0.  1.
        -13    1    6    6    0    0 -0.70234170336E+01 -0.18024667331E+02  0.54648205671E+01  0.20102047359E+02  0.10500000000E+00 0. -1.
         13    1    6    6    0    0 -0.10299575122E+02 -0.26736040251E+02  0.79774508575E+01  0.29741349048E+02  0.10500000000E+00 0.  1.
</event>
<event>
11    0  0.3448258E-009  0.9118800E+02  0.7816531E-02  0.1126479E+00
         25   -1    0    0    0    0  0.00000000000E+00  0.00000000000E+00  0.99999998245E-14  0.12500000000E+03  0.12500000000E+03 0.  0.
    3000001    1    3    3    0    0  0.17140706453E+02 -0.23071937888E+02  0.74312882962E-01  0.28759757614E+02  0.10000000000E+01 0. -1.
    1000022    2    1    0    0    0  0.42311311895E+02 -0.44261989158E+02  0.75418282176E+01  0.62499999897E+02  0.10000000790E+02 0.  0.
    3000022    2    3    3    0    0  0.25170605442E+02 -0.21190051270E+02  0.74675153347E+01  0.33740242284E+02  0.25002584677E+00 0.  0.
    1000022    2    1    0    0    0 -0.42311311895E+02  0.44261989158E+02 -0.75418282176E+01  0.62500000103E+02  0.10000002073E+02 0.  0.
    3000022    2    5    5    0    0 -0.35246968582E+02  0.40618695671E+02 -0.46412480705E+01  0.53979912130E+02  0.24999526403E+00 0.  0.
        -13    1    4    4    0    0  0.11444825594E+02 -0.97222564953E+01  0.34037088463E+01  0.15398135054E+02  0.10500000000E+00 0.  1.
         13    1    4    4    0    0  0.13725779848E+02 -0.11467794775E+02  0.40638064884E+01  0.18342107230E+02  0.10500000000E+00 0. -1.
    3000001    1    5    5    0    0 -0.70643433130E+01  0.36432934867E+01 -0.29005801471E+01  0.85200879727E+01  0.10000000000E+01 0. -1.
        -13    1    6    6    0    0 -0.10631447224E+02  0.12200500958E+02 -0.14282848677E+01  0.16245950769E+02  0.10500000000E+00 0.  1.
         13    1    6    6    0    0 -0.24615521358E+02  0.28418194713E+02 -0.32129632028E+01  0.37733961361E+02  0.10500000000E+00 0. -1.
</event>
<event>
11    0  0.3448258E-009  0.9118800E+02  0.7816531E-02  0.1126479E+00
         25   -1    0    0    0    0  0.00000000000E+00  0.00000000000E+00  0.99999998245E-14  0.12500000000E+03  0.12500000000E+03 0.  0.
    3000001    1    3    3    0    0  0.27147486625E+01 -0.12718970880E+01  0.71617220115E+01  0.78280166500E+01  0.10000000000E+01 0.  1.
    1000022    2    1    0    0    0  0.35663551077E+02  0.95049670066E+01  0.49436996836E+02  0.62499999735E+02  0.10000001875E+02 0.  0.
    3000022    2    3    3    0    0  0.32948802414E+02  0.10776864095E+02  0.42275274825E+02  0.54671983085E+02  0.24998541509E+00 0.  0.
    1000022    2    1    0    0    0 -0.35663551077E+02 -0.95049670066E+01 -0.49436996836E+02  0.62500000265E+02  0.10000005184E+02 0.  0.
    3000022    2    5    5    0    0 -0.26764228332E+02 -0.11334940221E+02 -0.38682130647E+02  0.48385685048E+02  0.24999629103E+00 0.  0.
        -13    1    4    4    0    0  0.20210787348E+02  0.65846730538E+01  0.25832464710E+02  0.33453865284E+02  0.10500000000E+00 0. -1.
         13    1    4    4    0    0  0.12738015066E+02  0.41921910408E+01  0.16442810115E+02  0.21218117801E+02  0.10500000000E+00 0.  1.
    3000001    1    5    5    0    0 -0.88993227446E+01  0.18299732147E+01 -0.10754866189E+02  0.14114315216E+02  0.10000000000E+01 0. -1.
        -13    1    6    6    0    0 -0.19581335892E+02 -0.82970551051E+01 -0.28360637544E+02  0.35448647727E+02  0.10500000000E+00 0. -1.
         13    1    6    6    0    0 -0.71828924405E+01 -0.30378851162E+01 -0.10321493103E+02  0.12937037322E+02  0.10500000000E+00 0.  1.
</event>
<event>
11    0  0.3448258E-009  0.9118800E+02  0.7816531E-02  0.1126479E+00
         25   -1    0    0    0    0  0.00000000000E+00  0.00000000000E+00  0.99999998245E-14  0.12500000000E+03  0.12500000000E+03 0.  0.
    3000001    1    3    3    0    0  0.98524507411E+01  0.94642915870E+01  0.25094240411E+02  0.28589587312E+02  0.10000000000E+01 0.  1.
    1000022    2    1    0    0    0  0.21362253641E+02  0.10138395137E+02  0.56983480427E+02  0.62500000309E+02  0.10000003025E+02 0.  0.
    3000022    2    3    3    0    0  0.11509802900E+02  0.67410354953E+00  0.31889240016E+02  0.33910412998E+02  0.25000493361E+00 0.  0.
    1000022    2    1    0    0    0 -0.21362253641E+02 -0.10138395137E+02 -0.56983480427E+02  0.62499999691E+02  0.99999991573E+01 0.  0.
    3000022    2    5    5    0    0 -0.10125599220E+01  0.13593190044E+01 -0.14668974218E+01  0.22555107017E+01  0.25002945411E+00 0.  0.
        -13    1    4    4    0    0  0.52804423537E+01  0.31932269131E+00  0.14437405544E+02  0.15376434641E+02  0.10500000000E+00 0.  1.
         13    1    4    4    0    0  0.62293605466E+01  0.35478085822E+00  0.17451834472E+02  0.18533978357E+02  0.10500000000E+00 0.  1.
    3000001    1    5    5    0    0 -0.20349693719E+02 -0.11497714141E+02 -0.55516583005E+02  0.60244488989E+02  0.10000000000E+01 0.  1.
        -13    1    6    6    0    0 -0.73941476834E+00  0.92551952835E+00 -0.98655017866E+00  0.15451947618E+01  0.10500000000E+00 0.  1.
         13    1    6    6    0    0 -0.27314515363E+00  0.43379947609E+00 -0.48034724318E+00  0.71031593987E+00  0.10500000000E+00 0. -1.
</event>
<event>
11    0  0.3448258E-009  0.9118800E+02  0.7816531E-02  0.1126479E+00
         25   -1    0    0    0    0  0.00000000000E+00  0.00000000000E+00  0.99999998245E-14  0.12500000000E+03  0.12500000000E+03 0.  0.
    3000001    1    3    3    0    0  0.25368229401E+02  0.44911675493E+02 -0.26957959832E+02  0.58209425842E+02  0.10000000000E+01 0.  1.
    1000022    2    1    0    0    0  0.25405217063E+02  0.47163243900E+02 -0.30601528619E+02  0.62499999675E+02  0.99999888163E+01 0.  0.
    3000022    2    3    3    0    0  0.36987662221E-01  0.22515684072E+01 -0.36435687870E+01  0.42905738331E+01  0.25000386435E+00 0.  0.
    1000022    2    1    0    0    0 -0.25405217063E+02 -0.47163243900E+02  0.30601528619E+02  0.62500000325E+02  0.99999928808E+01 0.  0.
    3000022    2    5    5    0    0 -0.11597268323E+02 -0.18179533475E+02  0.71137136099E+01  0.22708137183E+02  0.25000615063E+00 0.  0.
        -13    1    4    4    0    0  0.31180802005E-01  0.13150295577E+01 -0.22453902507E+01  0.26044341723E+01  0.10500000000E+00 0. -1.
         13    1    4    4    0    0  0.58068602164E-02  0.93653884951E+00 -0.13981785363E+01  0.16861396608E+01  0.10500000000E+00 0.  1.
    3000001    1    5    5    0    0 -0.13807948740E+02 -0.28983710425E+02  0.23487815009E+02  0.39791863142E+02  0.10000000000E+01 0.  1.
        -13    1    6    6    0    0 -0.78062122761E+01 -0.12312500002E+02  0.47757979981E+01  0.15341247600E+02  0.10500000000E+00 0. -1.
         13    1    6    6    0    0 -0.37910560472E+01 -0.58670334730E+01  0.23379156118E+01  0.73668895834E+01  0.10500000000E+00 0.  1.
</event>
<event>
11    0  0.3448258E-009  0.9118800E+02  0.7816531E-02  0.1126479E+00
         25   -1    0    0    0    0  0.00000000000E+00  0.00000000000E+00  0.99999998245E-14  0.12500000000E+03  0.12500000000E+03 0.  0.
    3000001    1    3    3    0    0  0.10262134248E+02  0.18448813360E+02  0.24983928006E+02  0.32724100787E+02  0.10000000000E+01 0. -1.
    1000022    2    1    0    0    0  0.27636208703E+02  0.30639521091E+02  0.45866213831E+02  0.62500000136E+02  0.10000008084E+02 0.  0.
    3000022    2    3    3    0    0  0.17374074455E+02  0.12190707731E+02  0.20882285825E+02  0.29775899349E+02  0.25000522949E+00 0.  0.
    1000022    2    1    0    0    0 -0.27636208703E+02 -0.30639521091E+02 -0.45866213831E+02  0.62499999864E+02  0.10000006384E+02 0.  0.
    3000022    2    5    5    0    0 -0.25531773469E+02 -0.30829407705E+02 -0.42320190908E+02  0.58252767454E+02  0.25004316097E+00 0.  0.
        -13    1    4    4    0    0  0.93144417680E+01  0.66138580730E+01  0.11211190528E+02  0.16006366299E+02  0.10500000000E+00 0. -1.
         13    1    4    4    0    0  0.80596326873E+01  0.55768496577E+01  0.96710952969E+01  0.13769533050E+02  0.10500000000E+00 0.  1.
    3000001    1    5    5    0    0 -0.21044352336E+01  0.18988661424E+00 -0.35460229226E+01  0.42472324102E+01  0.10000000000E+01 0. -1.
        -13    1    6    6    0    0 -0.10201442322E+02 -0.12223575922E+02 -0.16858267878E+02  0.23188304264E+02  0.10500000000E+00 0. -1.
         13    1    6    6    0    0 -0.15330331147E+02 -0.18605831783E+02 -0.25461923030E+02  0.35064463190E+02  0.10500000000E+00 0.  1.
</event>
<event>
11    0  0.3448258E-009  0.9118800E+02  0.7816531E-02  0.1126479E+00
         25   -1    0    0    0    0  0.00000000000E+00  0.00000000000E+00  0.99999998245E-14  0.12500000000E+03  0.12500000000E+03 0.  0.
    3000001    1    3    3    0    0 -0.33630552734E+02 -0.18568735249E+02  0.15662333615E+01  0.38461215437E+02  0.10000000000E+01 0.  1.
    1000022    2    1    0    0    0 -0.55694532225E+02 -0.25152859363E+02  0.84677391507E+01  0.62500001355E+02  0.10000015462E+02 0.  0.
    3000022    2    3    3    0    0 -0.22063979490E+02 -0.65841241146E+01  0.69015057892E+01  0.24038785919E+02  0.25012990932E+00 0.  0.
    1000022    2    1    0    0    0  0.55694532225E+02  0.25152859363E+02 -0.84677391507E+01  0.62499998645E+02  0.99999985187E+01 0.  0.
    3000022    2    5    5    0    0  0.51003086499E+02  0.25669658889E+02 -0.78175190779E+01  0.57631782247E+02  0.25000115280E+00 0.  0.
        -13    1    4    4    0    0 -0.74284651041E+01 -0.21711566003E+01  0.22863321659E+01  0.80705857631E+01  0.10500000000E+00 0. -1.
         13    1    4    4    0    0 -0.14635514386E+02 -0.44129675143E+01  0.46151736233E+01  0.15968200156E+02  0.10500000000E+00 0.  1.
    3000001    1    5    5    0    0  0.46914457260E+01 -0.51679952566E+00 -0.65022007286E+00  0.48682163975E+01  0.10000000000E+01 0.  1.
        -13    1    6    6    0    0  0.15908756514E+02  0.80174098237E+01 -0.23906783476E+01  0.17974809097E+02  0.10500000000E+00 0. -1.
         13    1    6    6    0    0  0.35094329985E+02  0.17652249065E+02 -0.54268407303E+01  0.39656973151E+02  0.10500000000E+00 0.  1.
</event>
<event>
11    0  0.3448258E-009  0.9118800E+02  0.7816531E-02  0.1126479E+00
         25   -1    0    0    0    0  0.00000000000E+00  0.00000000000E+00  0.99999998245E-14  0.12500000000E+03  0.12500000000E+03 0.  0.
    3000001    1    3    3    0    0  0.27993985033E+02 -0.58074861049E+01  0.31799505376E+02  0.42773807816E+02  0.10000000000E+01 0. -1.
    1000022    2    1    0    0    0  0.42291051161E+02 -0.13903718053E+02  0.42713045298E+02  0.62500006779E+02  0.10000011234E+02 0.  0.
    3000022    2    3    3    0    0  0.14297066127E+02 -0.80962319486E+01  0.10913539922E+02  0.19726198963E+02  0.25000053124E+00 0.  0.
    1000022    2    1    0    0    0 -0.42291051161E+02  0.13903718053E+02 -0.42713045298E+02  0.62499993221E+02  0.99999265010E+01 0.  0.
    3000022    2    5    5    0    0 -0.30750743603E+02  0.14017811960E+02 -0.34533996344E+02  0.48319423496E+02  0.24999839171E+00 0.  0.
        -13    1    4    4    0    0  0.78156082329E+01 -0.43605616809E+01  0.59868534581E+01  0.10768085696E+02  0.10500000000E+00 0. -1.
         13    1    4    4    0    0  0.64814578943E+01 -0.37356702677E+01  0.49266864641E+01  0.89581132668E+01  0.10500000000E+00 0.  1.
    3000001    1    5    5    0    0 -0.11540307558E+02 -0.11409390654E+00 -0.81790489546E+01  0.14180569726E+02  0.10000000000E+01 0.  1.
        -13    1    6    6    0    0 -0.98891192343E+01  0.45232755470E+01 -0.11182942404E+02  0.15598843762E+02  0.10500000000E+00 0.  1.
         13    1    6    6    0    0 -0.20861624369E+02  0.94945364130E+01 -0.23351053940E+02  0.32720579734E+02  0.10500000000E+00 0. -1.
</event>
<event>
11    0  0.3448258E-009  0.9118800E+02  0.7816531E-02  0.1126479E+00
         25   -1    0    0    0    0  0.00000000000E+00  0.00000000000E+00  0.99999998245E-14  0.12500000000E+03  0.12500000000E+03 0.  0.
    3000001    1    3    3    0    0  0.52164368280E+02  0.27852220459E+01 -0.14923749059E+02  0.54337805126E+02  0.10000000000E+01 0.  1.
    1000022    2    1    0    0    0  0.59305861458E+02 -0.57325167109E+00 -0.16992239270E+02  0.62499999745E+02  0.99999976002E+01 0.  0.
    3000022    2    3    3    0    0  0.71414931772E+01 -0.33584737170E+01 -0.20684902113E+01  0.81621946190E+01  0.24999747311E+00 0.  0.
    1000022    2    1    0    0    0 -0.59305861458E+02  0.57325167109E+00  0.16992239270E+02  0.62500000255E+02  0.10000000788E+02 0.  0.
    3000022    2    5    5    0    0  0.10950347964E+00 -0.12815137865E+00  0.87473361406E+00  0.92523638679E+00  0.24997937508E+00 0.  0.
        -13    1    4    4    0    0  0.16975184905E+01 -0.78404615087E+00 -0.50158530704E+00  0.19387909151E+01  0.10500000000E+00 0. -1.
         13    1    4    4    0    0  0.54439746867E+01 -0.25744275661E+01 -0.15669049042E+01  0.62234037039E+01  0.10500000000E+00 0.  1.
    3000001    1    5    5    0    0 -0.59415364937E+02  0.70140304974E+00  0.16117505656E+02  0.61574763868E+02  0.10000000000E+01 0.  1.
        -13    1    6    6    0    0  0.62597980879E-01 -0.13913012020E+00  0.50595510872E+00  0.53878684987E+00  0.10500000000E+00 0.  1.
         13    1    6    6    0    0  0.46905498758E-01  0.10978741545E-01  0.36877850534E+00  0.38644953691E+00  0.10500000000E+00 0. -1.
</event>
<event>
11    0  0.3448258E-009  0.9118800E+02  0.7816531E-02  0.1126479E+00
         25   -1    0    0    0    0  0.00000000000E+00  0.00000000000E+00  0.99999998245E-14  0.12500000000E+03  0.12500000000E+03 0.  0.
    3000001    1    3    3    0    0 -0.15420927031E+01  0.26877678590E+02  0.12842214484E+02  0.29844767199E+02  0.10000000000E+01 0.  1.
    1000022    2    1    0    0    0 -0.12798065877E+02  0.52947940805E+02  0.28965064384E+02  0.62500000969E+02  0.10000012034E+02 0.  0.
    3000022    2    3    3    0    0 -0.11255973174E+02  0.26070262215E+02  0.16122849900E+02  0.32655233770E+02  0.24999929486E+00 0.  0.
    1000022    2    1    0    0    0  0.12798065877E+02 -0.52947940805E+02 -0.28965064384E+02  0.62499999031E+02  0.99999999206E+01 0.  0.
    3000022    2    5    5    0    0  0.11582425641E+02 -0.50639725765E+02 -0.29371903201E+02  0.59676675515E+02  0.24998723811E+00 0.  0.
        -13    1    4    4    0    0 -0.27307712762E+01  0.63441156285E+01  0.39454856116E+01  0.79550484965E+01  0.10500000000E+00 0. -1.
         13    1    4    4    0    0 -0.85252018975E+01  0.19726146586E+02  0.12177364288E+02  0.24700185273E+02  0.10500000000E+00 0.  1.
    3000001    1    5    5    0    0  0.12156402355E+01 -0.23082150396E+01  0.40683881623E+00  0.28233235156E+01  0.10000000000E+01 0. -1.
        -13    1    6    6    0    0  0.64312970815E+01 -0.27935165424E+02 -0.16268489733E+02  0.32960731676E+02  0.10500000000E+00 0. -1.
         13    1    6    6    0    0  0.51511285597E+01 -0.22704560341E+02 -0.13103413467E+02  0.26715943839E+02  0.10500000000E+00 0.  1.
</event>
<event>
11    0  0.3448258E-009  0.9118800E+02  0.7816531E-02  0.1126479E+00
         25   -1    0    0    0    0  0.00000000000E+00  0.00000000000E+00  0.99999998245E-14  0.12500000000E+03  0.12500000000E+03 0.  0.
    3000001    1    3    3    0    0  0.41841984342E+01 -0.13604640537E+01  0.17800757003E+02  0.18363695948E+02  0.10000000000E+01 0. -1.
    1000022    2    1    0    0    0  0.17647536950E+02  0.10030693042E+02  0.58259760291E+02  0.62500000553E+02  0.10000001831E+02 0.  0.
    3000022    2    3    3    0    0  0.13463338516E+02  0.11391157095E+02  0.40459003288E+02  0.44136304605E+02  0.24998631805E+00 0.  0.
    1000022    2    1    0    0    0 -0.17647536950E+02 -0.10030693042E+02 -0.58259760291E+02  0.62499999447E+02  0.99999949224E+01 0.  0.
    3000022    2    5    5    0    0 -0.67555827625E+01 -0.12379312456E+01 -0.92697731592E+01  0.11539562193E+02  0.24985784421E+00 0.  0.
        -13    1    4    4    0    0  0.42731410196E+01  0.36113640403E+01  0.12961912674E+02  0.14118211274E+02  0.10500000000E+00 0. -1.
         13    1    4    4    0    0  0.91901974967E+01  0.77797930549E+01  0.27497090614E+02  0.30018093331E+02  0.10500000000E+00 0.  1.
    3000001    1    5    5    0    0 -0.10891954188E+02 -0.87927617959E+01 -0.48989987132E+02  0.50960437255E+02  0.10000000000E+01 0. -1.
        -13    1    6    6    0    0 -0.49627131598E+01 -0.92260527931E+00 -0.68623332716E+01  0.85195284692E+01  0.10500000000E+00 0. -1.
         13    1    6    6    0    0 -0.17928696028E+01 -0.31532596633E+00 -0.24074398875E+01  0.30200337233E+01  0.10500000000E+00 0.  1.
</event>
<event>
11    0  0.3448258E-009  0.9118800E+02  0.7816531E-02  0.1126479E+00
         25   -1    0    0    0    0  0.00000000000E+00  0.00000000000E+00  0.99999998245E-14  0.12500000000E+03  0.12500000000E+03 0.  0.
    3000001    1    3    3    0    0 -0.40835964482E+02  0.14883135630E+01  0.43104942022E+02  0.59403931681E+02  0.10000000000E+01 0. -1.
    1000022    2    1    0    0    0 -0.41569077811E+02 -0.19166132247E+00  0.45587553053E+02  0.62499998145E+02  0.99999905320E+01 0.  0.
    3000022    2    3    3    0    0 -0.73311332891E+00 -0.16799748854E+01  0.24826110303E+01  0.30960664634E+01  0.24999849890E+00 0.  0.
    1000022    2    1    0    0    0  0.41569077811E+02  0.19166132247E+00 -0.45587553053E+02  0.62500001855E+02  0.10000013724E+02 0.  0.
    3000022    2    5    5    0    0  0.10835574377E+02  0.33051875363E+01 -0.81755620618E+01  0.13972696669E+02  0.25000085662E+00 0.  0.
        -13    1    4    4    0    0 -0.21479302565E+00 -0.61526562644E+00  0.93634151975E+00  0.11456213496E+01  0.10500000000E+00 0.  1.
         13    1    4    4    0    0 -0.51832030326E+00 -0.10647092590E+01  0.15462695106E+01  0.19504451139E+01  0.10500000000E+00 0. -1.
    3000001    1    5    5    0    0  0.30733503434E+02 -0.31135262139E+01 -0.37411990991E+02  0.48527305187E+02  0.10000000000E+01 0.  1.
        -13    1    6    6    0    0  0.26240086553E+01  0.77879483150E+00 -0.19745619020E+01  0.33766644070E+01  0.10500000000E+00 0.  1.
         13    1    6    6    0    0  0.82115657222E+01  0.25263927048E+01 -0.62010001598E+01  0.10596032262E+02  0.10500000000E+00 0. -1.
</event>
<event>
11    0  0.3448258E-009  0.9118800E+02  0.7816531E-02  0.1126479E+00
         25   -1    0    0    0    0  0.00000000000E+00  0.00000000000E+00  0.99999998245E-14  0.12500000000E+03  0.12500000000E+03 0.  0.
    3000001    1    3    3    0    0  0.31552342184E+02 -0.30375781567E+02  0.97444849636E+01  0.44879765934E+02  0.10000000000E+01 0. -1.
    1000022    2    1    0    0    0  0.38821753373E+02 -0.45625766082E+02  0.14744862271E+02  0.62499999801E+02  0.99999973104E+01 0.  0.
    3000022    2    3    3    0    0  0.72694111890E+01 -0.15249984515E+02  0.50003773077E+01  0.17620233867E+02  0.25000312091E+00 0.  0.
    1000022    2    1    0    0    0 -0.38821753373E+02  0.45625766082E+02 -0.14744862271E+02  0.62500000199E+02  0.99999997945E+01 0.  0.
    3000022    2    5    5    0    0 -0.36406479017E+02  0.38105004588E+02 -0.11769160962E+02  0.53999988320E+02  0.24999934937E+00 0.  0.
        -13    1    4    4    0    0  0.39180624792E+01 -0.80853613063E+01  0.26955105840E+01  0.93808892623E+01  0.10500000000E+00 0. -1.
         13    1    4    4    0    0  0.33513487098E+01 -0.71646232088E+01  0.23048667237E+01  0.82393446045E+01  0.10500000000E+00 0.  1.
    3000001    1    5    5    0    0 -0.24152743560E+01  0.75207614939E+01 -0.29757013090E+01  0.85000118790E+01  0.10000000000E+01 0. -1.
        -13    1    6    6    0    0 -0.18540926770E+02  0.19337733853E+02 -0.60326660463E+01  0.27461209017E+02  0.10500000000E+00 0. -1.
         13    1    6    6    0    0 -0.17865552247E+02  0.18767270735E+02 -0.57364949160E+01  0.26538779302E+02  0.10500000000E+00 0.  1.
</event>
<event>
11    0  0.3448258E-009  0.9118800E+02  0.7816531E-02  0.1126479E+00
         25   -1    0    0    0    0  0.00000000000E+00  0.00000000000E+00  0.99999998245E-14  0.12500000000E+03  0.12500000000E+03 0.  0.
    3000001    1    3    3    0    0 -0.20445598083E+02 -0.66978405689E+00 -0.51948868369E+02  0.55840451435E+02  0.10000000000E+01 0. -1.
    1000022    2    1    0    0    0 -0.19482833672E+02 -0.69115372745E+00 -0.58533674327E+02  0.62499996245E+02  0.99999999503E+01 0.  0.
    3000022    2    3    3    0    0  0.96276441111E+00 -0.21369670554E-01 -0.65848059577E+01  0.66595448093E+01  0.24999118487E+00 0.  0.
    1000022    2    1    0    0    0  0.19482833672E+02  0.69115372745E+00  0.58533674327E+02  0.62500003755E+02  0.10000046891E+02 0.  0.
    3000022    2    5    5    0    0  0.13557156280E+02  0.42536131685E+01  0.46069602803E+02  0.48211622154E+02  0.24999385927E+00 0.  0.
        -13    1    4    4    0    0  0.65831340770E+00 -0.56220361160E-01 -0.42345563724E+01  0.42870770862E+01  0.10500000000E+00 0. -1.
         13    1    4    4    0    0  0.30445100341E+00  0.34850690606E-01 -0.23502495853E+01  0.23724677232E+01  0.10500000000E+00 0.  1.
    3000001    1    5    5    0    0  0.59256773920E+01 -0.35624594410E+01  0.12464071524E+02  0.14288381601E+02  0.10000000000E+01 0.  1.
        -13    1    6    6    0    0  0.47626503277E+01  0.15219269466E+01  0.16384020394E+02  0.17130272883E+02  0.10500000000E+00 0.  1.
         13    1    6    6    0    0  0.87945059524E+01  0.27316862219E+01  0.29685582409E+02  0.31081349271E+02  0.10500000000E+00 0. -1.
</event>
<event>
11    0  0.3448258E-009  0.9118800E+02  0.7816531E-02  0.1126479E+00
         25   -1    0    0    0    0  0.00000000000E+00  0.00000000000E+00  0.99999998245E-14  0.12500000000E+03  0.12500000000E+03 0.  0.
    3000001    1    3    3    0    0  0.10585831657E+02  0.65964850195E+01  0.47049419122E+01  0.13368243149E+02  0.10000000000E+01 0. -1.
    1000022    2    1    0    0    0  0.35590603960E+02  0.41355504478E+02  0.28797236855E+02  0.62499997211E+02  0.99999980056E+01 0.  0.
    3000022    2    3    3    0    0  0.25004772303E+02  0.34759019458E+02  0.24092294942E+02  0.49131754063E+02  0.25002013621E+00 0.  0.
    1000022    2    1    0    0    0 -0.35590603960E+02 -0.41355504478E+02 -0.28797236855E+02  0.62500002789E+02  0.10000032863E+02 0.  0.
    3000022    2    5    5    0    0 -0.11744958642E+02 -0.18117755939E+02 -0.70334232178E+01  0.22709660471E+02  0.25000548983E+00 0.  0.
        -13    1    4    4    0    0  0.99609893646E+01  0.13746223969E+02  0.95263286537E+01  0.19466431238E+02  0.10500000000E+00 0. -1.
         13    1    4    4    0    0  0.15043782938E+02  0.21012795489E+02  0.14565966289E+02  0.29665322825E+02  0.10500000000E+00 0.  1.
    3000001    1    5    5    0    0 -0.23845645318E+02 -0.23237748538E+02 -0.21763813637E+02  0.39790342318E+02  0.10000000000E+01 0.  1.
        -13    1    6    6    0    0 -0.57494960640E+01 -0.89178441141E+01 -0.33907413506E+01  0.11139694814E+02  0.10500000000E+00 0. -1.
         13    1    6    6    0    0 -0.59954625779E+01 -0.91999118253E+01 -0.36426818671E+01  0.11569965657E+02  0.10500000000E+00 0.  1.
</event>
<event>
11    0  0.3448258E-009  0.9118800E+02  0.7816531E-02  0.1126479E+00
         25   -1    0    0    0    0  0.00000000000E+00  0.00000000000E+00  0.99999998245E-14  0.12500000000E+03  0.12500000000E+03 0.  0.
    3000001    1    3    3    0    0  0.27631948705E+02 -0.38860180540E+02  0.11558957486E+02  0.49073900589E+02  0.10000000000E+01 0.  1.
    1000022    2    1    0    0    0  0.31085783395E+02 -0.50227257466E+02  0.17808624888E+02  0.62500003955E+02  0.10000002607E+02 0.  0.
    3000022    2    3    3    0    0  0.34538346898E+01 -0.11367076926E+02  0.62496674024E+01  0.13426103367E+02  0.24999410165E+00 0.  0.
    1000022    2    1    0    0    0 -0.31085783395E+02  0.50227257466E+02 -0.17808624888E+02  0.62499996045E+02  0.99999531659E+01 0.  0.
    3000022    2    5    5    0    0 -0.20645239574E+02  0.40015501634E+02 -0.15823795683E+02  0.47727573785E+02  0.25000290722E+00 0.  0.
        -13    1    4    4    0    0  0.12454968230E+01 -0.40607123971E+01  0.22987554086E+01  0.48307296485E+01  0.10500000000E+00 0. -1.
         13    1    4    4    0    0  0.22083378668E+01 -0.73063645294E+01  0.39509119938E+01  0.85953737180E+01  0.10500000000E+00 0.  1.
    3000001    1    5    5    0    0 -0.10440543821E+02  0.10211755832E+02 -0.19848292050E+01  0.14772422260E+02  0.10000000000E+01 0. -1.
        -13    1    6    6    0    0 -0.92072603685E+01  0.17966447911E+02 -0.71340525183E+01  0.21411973855E+02  0.10500000000E+00 0.  1.
         13    1    6    6    0    0 -0.11437979205E+02  0.22049053723E+02 -0.86897431647E+01  0.26315599930E+02  0.10500000000E+00 0. -1.
</event>
<event>
11    0  0.3448258E-009  0.9118800E+02  0.7816531E-02  0.1126479E+00
         25   -1    0    0    0    0  0.00000000000E+00  0.00000000000E+00  0.99999998245E-14  0.12500000000E+03  0.12500000000E+03 0.  0.
    3000001    1    3    3    0    0 -0.15140733671E+02 -0.17847439506E+02 -0.38740741473E+02  0.45272706600E+02  0.10000000000E+01 0.  1.
    1000022    2    1    0    0    0 -0.19946871248E+02 -0.29738749620E+02 -0.50239217551E+02  0.62500000895E+02  0.10000011514E+02 0.  0.
    3000022    2    3    3    0    0 -0.48061375767E+01 -0.11891310114E+02 -0.11498476077E+02  0.17227294295E+02  0.25000397694E+00 0.  0.
    1000022    2    1    0    0    0  0.19946871248E+02  0.29738749620E+02  0.50239217551E+02  0.62499999105E+02  0.10000000325E+02 0.  0.
    3000022    2    5    5    0    0 -0.79488788729E+00  0.41042029511E+01  0.57902893271E+01  0.71460672198E+01  0.24999520144E+00 0.  0.
        -13    1    4    4    0    0 -0.35100012451E+01 -0.87698338380E+01 -0.84796332310E+01  0.12694301833E+02  0.10500000000E+00 0.  1.
         13    1    4    4    0    0 -0.12961363315E+01 -0.31214762762E+01 -0.30188428463E+01  0.45329924623E+01  0.10500000000E+00 0. -1.
    3000001    1    5    5    0    0  0.20741759135E+02  0.25634546669E+02  0.44448928224E+02  0.55353931885E+02  0.10000000000E+01 0. -1.
        -13    1    6    6    0    0 -0.34418434054E+00  0.17203444513E+01  0.23226422101E+01  0.29126859988E+01  0.10500000000E+00 0.  1.
         13    1    6    6    0    0 -0.45070354675E+00  0.23838584998E+01  0.34676471170E+01  0.42333812210E+01  0.10500000000E+00 0. -1.
</event>
<event>
11    0  0.3448258E-009  0.9118800E+02  0.7816531E-02  0.1126479E+00
         25   -1    0    0    0    0  0.00000000000E+00  0.00000000000E+00  0.99999998245E-14  0.12500000000E+03  0.12500000000E+03 0.  0.
    3000001    1    3    3    0    0  0.53827392548E+00  0.55440565161E+00 -0.82731098362E+01  0.83690770582E+01  0.10000000000E+01 0.  1.
    1000022    2    1    0    0    0  0.26905288569E+02  0.91382724181E+01 -0.54761734676E+02  0.62500001356E+02  0.10000000454E+02 0.  0.
    3000022    2    3    3    0    0  0.26367014644E+02  0.85838667665E+01 -0.46488624839E+02  0.54130924298E+02  0.24999203544E+00 0.  0.
    1000022    2    1    0    0    0 -0.26905288569E+02 -0.91382724181E+01  0.54761734676E+02  0.62499998644E+02  0.99999835016E+01 0.  0.
    3000022    2    5    5    0    0 -0.15154613040E+02 -0.96950618257E+01  0.28465023977E+02  0.33674569187E+02  0.24999938458E+00 0.  0.
        -13    1    4    4    0    0  0.10757173634E+02  0.34682122646E+01 -0.19056627963E+02  0.22156519926E+02  0.10500000000E+00 0. -1.
         13    1    4    4    0    0  0.15609841009E+02  0.51156545018E+01 -0.27431996876E+02  0.31974404372E+02  0.10500000000E+00 0.  1.
    3000001    1    5    5    0    0 -0.11750675529E+02  0.55678940761E+00  0.26296710698E+02  0.28825429457E+02  0.10000000000E+01 0. -1.
        -13    1    6    6    0    0 -0.10311856039E+02 -0.65633327414E+01  0.19260086658E+02  0.22811700391E+02  0.10500000000E+00 0.  1.
         13    1    6    6    0    0 -0.48427570011E+01 -0.31317290843E+01  0.92049373193E+01  0.10862868796E+02  0.10500000000E+00 0. -1.
</event>
<event>
11    0  0.3448258E-009  0.9118800E+02  0.7816531E-02  0.1126479E+00
         25   -1    0    0    0    0  0.00000000000E+00  0.00000000000E+00  0.99999998245E-14  0.12500000000E+03  0.12500000000E+03 0.  0.
    3000001    1    3    3    0    0 -0.85553155546E+01  0.66125748417E+01  0.46326209475E+02  0.47581900494E+02  0.10000000000E+01 0. -1.
    1000022    2    1    0    0    0 -0.12412791388E+02  0.32801548532E+01  0.60344124879E+02  0.62499996688E+02  0.99999686338E+01 0.  0.
    3000022    2    3    3    0    0 -0.38574758337E+01 -0.33324199885E+01  0.14017915404E+02  0.14918096194E+02  0.24999799863E+00 0.  0.
    1000022    2    1    0    0    0  0.12412791388E+02 -0.32801548532E+01 -0.60344124879E+02  0.62500003312E+02  0.10000010033E+02 0.  0.
    3000022    2    5    5    0    0  0.10905008012E+02 -0.64142237663E+01 -0.47209505763E+02  0.48875979751E+02  0.24999193474E+00 0.  0.
        -13    1    4    4    0    0 -0.23259882684E+01 -0.20366670988E+01  0.83259026827E+01  0.88819994808E+01  0.10500000000E+00 0.  1.
         13    1    4    4    0    0 -0.15314875653E+01 -0.12957528897E+01  0.56920127213E+01  0.60360967134E+01  0.10500000000E+00 0. -1.
    3000001    1    5    5    0    0  0.15077833759E+01  0.31340689132E+01 -0.13134619116E+02  0.13624023560E+02  0.10000000000E+01 0.  1.
        -13    1    6    6    0    0  0.76455278666E+01 -0.45462928134E+01 -0.33130938119E+02  0.34304416047E+02  0.10500000000E+00 0. -1.
         13    1    6    6    0    0  0.32594801458E+01 -0.18679309529E+01 -0.14078567645E+02  0.14571563704E+02  0.10500000000E+00 0.  1.
</event>
<event>
11    0  0.3448258E-009  0.9118800E+02  0.7816531E-02  0.1126479E+00
         25   -1    0    0    0    0  0.00000000000E+00  0.00000000000E+00  0.99999998245E-14  0.12500000000E+03  0.12500000000E+03 0.  0.
    3000001    1    3    3    0    0 -0.28751146955E+02  0.42432687011E+02 -0.98645867732E+01  0.52206048025E+02  0.10000000000E+01 0. -1.
    1000022    2    1    0    0    0 -0.35332070640E+02  0.48218200496E+02 -0.15261077795E+02  0.62499994736E+02  0.99999385911E+01 0.  0.
    3000022    2    3    3    0    0 -0.65809236851E+01  0.57855134847E+01 -0.53964910214E+01  0.10293946711E+02  0.25000143406E+00 0.  0.
    1000022    2    1    0    0    0  0.35332070640E+02 -0.48218200496E+02  0.15261077795E+02  0.62500005264E+02  0.10000004386E+02 0.  0.
    3000022    2    5    5    0    0  0.14585412058E+02 -0.17748199555E+02  0.11056939986E+01  0.23000388936E+02  0.24999922928E+00 0.  0.
        -13    1    4    4    0    0 -0.41149220992E+01  0.35389070846E+01 -0.33243732451E+01  0.63654481153E+01  0.10500000000E+00 0. -1.
         13    1    4    4    0    0 -0.24660015859E+01  0.22466064002E+01 -0.20721177763E+01  0.39284985959E+01  0.10500000000E+00 0.  1.
    3000001    1    5    5    0    0  0.20746658582E+02 -0.30470000941E+02  0.14155383796E+02  0.39499616328E+02  0.10000000000E+01 0. -1.
        -13    1    6    6    0    0  0.71684154420E+01 -0.86211862859E+01  0.56026196109E+00  0.11226573448E+02  0.10500000000E+00 0.  1.
         13    1    6    6    0    0  0.74169966162E+01 -0.91270132693E+01  0.54543203751E+00  0.11773815487E+02  0.10500000000E+00 0. -1.
</event>
<event>
11    0  0.3448258E-009  0.9118800E+02  0.7816531E-02  0.1126479E+00
         25   -1    0    0    0    0  0.00000000000E+00  0.00000000000E+00  0.99999998245E-14  0.12500000000E+03  0.12500000000E+03 0.  0.
    3000001    1    3    3    0    0  0.12815211062E+00  0.13422899476E+00  0.65910862506E+00  0.12119672298E+01  0.10000000000E+01 0. -1.
    1000022    2    1    0    0    0 -0.49052373291E+00 -0.40351385437E+02  0.46666632791E+02  0.62499996366E+02  0.10000000475E+02 0.  0.
    3000022    2    3    3    0    0 -0.61867584353E+00 -0.40485614432E+02  0.46007524166E+02  0.61288029136E+02  0.24999962585E+00 0.  0.
    1000022    2    1    0    0    0  0.49052373291E+00  0.40351385437E+02 -0.46666632791E+02  0.62500003634E+02  0.10000045897E+02 0.  0.
    3000022    2    5    5    0    0  0.40205293180E+01  0.32756549421E+02 -0.35031594122E+02  0.48129318251E+02  0.25000520199E+00 0.  0.
        -13    1    4    4    0    0 -0.19231982051E+00 -0.10706715195E+02  0.12141328009E+02  0.16189305359E+02  0.10500000000E+00 0. -1.
         13    1    4    4    0    0 -0.42635602302E+00 -0.29778899237E+02  0.33866196158E+02  0.45098723778E+02  0.10500000000E+00 0.  1.
    3000001    1    5    5    0    0 -0.35300055851E+01  0.75948360156E+01 -0.11635038669E+02  0.14370685383E+02  0.10000000000E+01 0.  1.
        -13    1    6    6    0    0  0.17240854078E+01  0.14537342009E+02 -0.15581310042E+02  0.21379780887E+02  0.10500000000E+00 0. -1.
         13    1    6    6    0    0  0.22964439103E+01  0.18219207413E+02 -0.19450284081E+02  0.26749537364E+02  0.10500000000E+00 0.  1.
</event>
<event>
11    0  0.3448258E-009  0.9118800E+02  0.7816531E-02  0.1126479E+00
         25   -1    0    0    0    0  0.00000000000E+00  0.00000000000E+00  0.99999998245E-14  0.12500000000E+03  0.12500000000E+03 0.  0.
    3000001    1    3    3    0    0 -0.11926336958E+02 -0.34561874065E+02  0.56933294586E+01  0.37015870278E+02  0.10000000000E+01 0.  1.
    1000022    2    1    0    0    0 -0.18505604787E+02 -0.56228088647E+02  0.17383770586E+02  0.62499994403E+02  0.99999229559E+01 0.  0.
    3000022    2    3    3    0    0 -0.65792678287E+01 -0.21666214582E+02  0.11690441128E+02  0.25484124125E+02  0.25009830869E+00 0.  0.
    1000022    2    1    0    0    0  0.18505604787E+02  0.56228088647E+02 -0.17383770586E+02  0.62500005597E+02  0.99999929210E+01 0.  0.
    3000022    2    5    5    0    0  0.17619046816E+01  0.20270605417E+02 -0.63726709818E+01  0.21323113923E+02  0.24999969870E+00 0.  0.
        -13    1    4    4    0    0 -0.25267458008E+01 -0.81705106785E+01  0.43682537074E+01  0.96038718516E+01  0.10500000000E+00 0. -1.
         13    1    4    4    0    0 -0.40525220279E+01 -0.13495703904E+02  0.73221874204E+01  0.15880252273E+02  0.10500000000E+00 0.  1.
    3000001    1    5    5    0    0  0.16743700105E+02  0.35957483230E+02 -0.11011099605E+02  0.41176891675E+02  0.10000000000E+01 0. -1.
        -13    1    6    6    0    0  0.88262765841E+00  0.10601234727E+02 -0.32736650448E+01  0.11130728509E+02  0.10500000000E+00 0. -1.
         13    1    6    6    0    0  0.87927702317E+00  0.96693706894E+01 -0.30990059370E+01  0.10192385413E+02  0.10500000000E+00 0.  1.
</event>
<event>
11    0  0.3448258E-009  0.9118800E+02  0.7816531E-02  0.1126479E+00
         25   -1    0    0    0    0  0.00000000000E+00  0.00000000000E+00  0.99999998245E-14  0.12500000000E+03  0.12500000000E+03 0.  0.
    3000001    1    3    3    0    0  0.18745359945E+02  0.27635762587E+02 -0.27814331811E+01  0.33524025172E+02  0.10000000000E+01 0. -1.
    1000022    2    1    0    0    0  0.27469383142E+02  0.54379024967E+02 -0.97265048043E+01  0.62500001116E+02  0.99999938626E+01 0.  0.
    3000022    2    3    3    0    0  0.87240231967E+01  0.26743262380E+02 -0.69450716232E+01  0.28975975944E+02  0.24999712332E+00 0.  0.
    1000022    2    1    0    0    0 -0.27469383142E+02 -0.54379024967E+02  0.97265048043E+01  0.62499998884E+02  0.99999799108E+01 0.  0.
    3000022    2    5    5    0    0 -0.14021961113E+02 -0.33515768199E+02  0.99053775586E+01  0.37657683420E+02  0.25000899025E+00 0.  0.
        -13    1    4    4    0    0  0.51060110004E+01  0.15835174108E+02 -0.41379245144E+01  0.17145189752E+02  0.10500000000E+00 0.  1.
         13    1    4    4    0    0  0.36180121963E+01  0.10908088273E+02 -0.28071471087E+01  0.11830786192E+02  0.10500000000E+00 0. -1.
    3000001    1    5    5    0    0 -0.13447422028E+02 -0.20863256768E+02 -0.17887275430E+00  0.24842315464E+02  0.10000000000E+01 0.  1.
        -13    1    6    6    0    0 -0.94124073281E+01 -0.22463724029E+02  0.65874549919E+01  0.25231288061E+02  0.10500000000E+00 0.  1.
         13    1    6    6    0    0 -0.46095537854E+01 -0.11052044171E+02  0.33179225667E+01  0.12426395359E+02  0.10500000000E+00 0. -1.
</event>
<event>
11    0  0.3448258E-009  0.9118800E+02  0.7816531E-02  0.1126479E+00
         25   -1    0    0    0    0  0.00000000000E+00  0.00000000000E+00  0.99999998245E-14  0.12500000000E+03  0.12500000000E+03 0.  0.
    3000001    1    3    3    0    0  0.41733897741E+02  0.76131347154E+01  0.40222718333E+02  0.58468325707E+02  0.10000000000E+01 0.  1.
    1000022    2    1    0    0    0  0.43108872736E+02  0.61397280392E+01  0.43705592778E+02  0.62500000113E+02  0.10000000254E+02 0.  0.
    3000022    2    3    3    0    0  0.13749749952E+01 -0.14734066761E+01  0.34828744452E+01  0.40316744065E+01  0.25000129769E+00 0.  0.
    1000022    2    1    0    0    0 -0.43108872736E+02 -0.61397280392E+01 -0.43705592778E+02  0.62499999887E+02  0.99999988403E+01 0.  0.
    3000022    2    5    5    0    0 -0.28186233774E+02 -0.81789181152E+01 -0.31809604845E+02  0.43281311621E+02  0.24999868286E+00 0.  0.
        -13    1    4    4    0    0  0.50884090359E+00 -0.46799329020E+00  0.11661179580E+01  0.13597032311E+01  0.10500000000E+00 0.  1.
         13    1    4    4    0    0  0.86613409164E+00 -0.10054133859E+01  0.23167564872E+01  0.26719711754E+01  0.10500000000E+00 0. -1.
    3000001    1    5    5    0    0 -0.14922638962E+02  0.20391900759E+01 -0.11895987933E+02  0.19218688266E+02  0.10000000000E+01 0. -1.
        -13    1    6    6    0    0 -0.82742509061E+01 -0.24346520105E+01 -0.93043595674E+01  0.12687509229E+02  0.10500000000E+00 0. -1.
         13    1    6    6    0    0 -0.19911982868E+02 -0.57442661047E+01 -0.22505245278E+02  0.30593802393E+02  0.10500000000E+00 0.  1.
</event>
<event>
11    0  0.3448258E-009  0.9118800E+02  0.7816531E-02  0.1126479E+00
         25   -1    0    0    0    0  0.00000000000E+00  0.00000000000E+00  0.99999998245E-14  0.12500000000E+03  0.12500000000E+03 0.  0.
    3000001    1    3    3    0    0 -0.45346869356E+01  0.40497947212E+02 -0.25226799781E+02  0.47937861250E+02  0.10000000000E+01 0.  1.
    1000022    2    1    0    0    0 -0.98731229235E+01  0.53455019082E+02 -0.29177598168E+02  0.62500001359E+02  0.10000015683E+02 0.  0.
    3000022    2    3    3    0    0 -0.53384359879E+01  0.12957071870E+02 -0.39507983867E+01  0.14562140109E+02  0.25001283892E+00 0.  0.
    1000022    2    1    0    0    0  0.98731229235E+01 -0.53455019082E+02  0.29177598168E+02  0.62499998641E+02  0.99999986967E+01 0.  0.
    3000022    2    5    5    0    0  0.67334681148E+01 -0.25730608493E+02  0.19385919972E+02  0.32913222258E+02  0.24999995353E+00 0.  0.
        -13    1    4    4    0    0 -0.30001765103E+01  0.72006039733E+01 -0.22600636260E+01  0.81221099025E+01  0.10500000000E+00 0. -1.
         13    1    4    4    0    0 -0.23382594775E+01  0.57564678970E+01 -0.16907347607E+01  0.64400302068E+01  0.10500000000E+00 0.  1.
    3000001    1    5    5    0    0  0.31396548087E+01 -0.27724410590E+02  0.97916781961E+01  0.29586776383E+02  0.10000000000E+01 0.  1.
        -13    1    6    6    0    0  0.26475256073E+01 -0.98746521182E+01  0.74508761966E+01  0.12650878523E+02  0.10500000000E+00 0.  1.
         13    1    6    6    0    0  0.40859425075E+01 -0.15855956374E+02  0.11935043775E+02  0.20262343735E+02  0.10500000000E+00 0. -1.
</event>
<event>
11    0  0.3448258E-009  0.9118800E+02  0.7816531E-02  0.1126479E+00
         25   -1    0    0    0    0  0.00000000000E+00  0.00000000000E+00  0.99999998245E-14  0.12500000000E+03  0.12500000000E+03 0.  0.
    3000001    1    3    3    0    0 -0.41307040021E+02  0.25831094989E+02 -0.37398846833E+02  0.61426303551E+02  0.10000000000E+01 0.  1.
    1000022    2    1    0    0    0 -0.40766406661E+02  0.26532136536E+02 -0.37952549771E+02  0.62500002444E+02  0.10000004508E+02 0.  0.
    3000022    2    3    3    0    0  0.54063335921E+00  0.70104154775E+00 -0.55370293771E+00  0.10736988926E+01  0.24999737572E+00 0.  0.
    1000022    2    1    0    0    0  0.40766406661E+02 -0.26532136536E+02  0.37952549771E+02  0.62499997556E+02  0.99999739570E+01 0.  0.
    3000022    2    5    5    0    0  0.18062571272E+02 -0.68309138786E+01  0.11719571529E+02  0.22590456554E+02  0.25001020747E+00 0.  0.
        -13    1    4    4    0    0  0.28583432786E+00  0.37349672110E+00 -0.37152398085E+00  0.60848675582E+00  0.10500000000E+00 0.  1.
         13    1    4    4    0    0  0.25479903135E+00  0.32754482665E+00 -0.18217895686E+00  0.46521213673E+00  0.10500000000E+00 0. -1.
    3000001    1    5    5    0    0  0.22703835389E+02 -0.19701222658E+02  0.26232978241E+02  0.39909541002E+02  0.10000000000E+01 0.  1.
        -13    1    6    6    0    0  0.77841918696E+01 -0.29068283580E+01  0.49777015074E+01  0.96866832023E+01  0.10500000000E+00 0. -1.
         13    1    6    6    0    0  0.10278379402E+02 -0.39240855206E+01  0.67418700220E+01  0.12903773352E+02  0.10500000000E+00 0.  1.
</event>
<event>
11    0  0.3448258E-009  0.9118800E+02  0.7816531E-02  0.1126479E+00
         25   -1    0    0    0    0  0.00000000000E+00  0.00000000000E+00  0.99999998245E-14  0.12500000000E+03  0.12500000000E+03 0.  0.
    3000001    1    3    3    0    0 -0.12451754454E+02 -0.11255534483E+02  0.14697803208E+02  0.22332905423E+02  0.10000000000E+01 0.  1.
    1000022    2    1    0    0    0 -0.44468596543E+02 -0.25617714077E+02  0.34242175577E+02  0.62499998494E+02  0.99999935263E+01 0.  0.
    3000022    2    3    3    0    0 -0.32016842089E+02 -0.14362179594E+02  0.19544372368E+02  0.40167093071E+02  0.24998898275E+00 0.  0.
    1000022    2    1    0    0    0  0.44468596543E+02  0.25617714077E+02 -0.34242175577E+02  0.62500001506E+02  0.10000012347E+02 0.  0.
    3000022    2    5    5    0    0  0.10076625200E+02  0.74750373507E+01 -0.38151463376E+01  0.13116112230E+02  0.24999928526E+00 0.  0.
        -13    1    4    4    0    0 -0.15712307391E+02 -0.70575420994E+01  0.96705210677E+01  0.19753873209E+02  0.10500000000E+00 0.  1.
         13    1    4    4    0    0 -0.16304534698E+02 -0.73046374944E+01  0.98738513006E+01  0.20413219862E+02  0.10500000000E+00 0. -1.
    3000001    1    5    5    0    0  0.34391971344E+02  0.18142676726E+02 -0.30427029239E+02  0.49383889276E+02  0.10000000000E+01 0. -1.
        -13    1    6    6    0    0  0.68768136913E+01  0.50696338039E+01 -0.26432567682E+01  0.89436896633E+01  0.10500000000E+00 0. -1.
         13    1    6    6    0    0  0.31998115084E+01  0.24054035467E+01 -0.11718895695E+01  0.41724225667E+01  0.10500000000E+00 0.  1.
</event>
<event>
11    0  0.3448258E-009  0.9118800E+02  0.7816531E-02  0.1126479E+00
         25   -1    0    0    0    0  0.00000000000E+00  0.00000000000E+00  0.99999998245E-14  0.12500000000E+03  0.12500000000E+03 0.  0.
    3000001    1    3    3    0    0  0.14776881356E+02 -0.14686390240E+02 -0.95198413033E+01  0.22927574213E+02  0.10000000000E+01 0.  1.
    1000022    2    1    0    0    0  0.30275721639E+02 -0.41621607592E+02 -0.34018704675E+02  0.62499999148E+02  0.10000004325E+02 0.  0.
    3000022    2    3    3    0    0  0.15498840283E+02 -0.26935217352E+02 -0.24498863372E+02  0.39572424935E+02  0.25004959794E+00 0.  0.
    1000022    2    1    0    0    0 -0.30275721639E+02  0.41621607592E+02  0.34018704675E+02  0.62500000852E+02  0.10000014970E+02 0.  0.
    3000022    2    5    5    0    0 -0.30680397183E+02  0.39257918356E+02  0.32099660438E+02  0.59269904896E+02  0.25000235884E+00 0.  0.
        -13    1    4    4    0    0  0.75981587353E+01 -0.13317829705E+02 -0.12039607908E+02  0.19495122154E+02  0.10500000000E+00 0.  1.
         13    1    4    4    0    0  0.79006815481E+01 -0.13617387647E+02 -0.12459255464E+02  0.20077302781E+02  0.10500000000E+00 0. -1.
    3000001    1    5    5    0    0  0.40467554402E+00  0.23636892357E+01  0.19190442375E+01  0.32300959559E+01  0.10000000000E+01 0.  1.
        -13    1    6    6    0    0 -0.75021422915E+01  0.95896438819E+01  0.78703873968E+01  0.14498187180E+02  0.10500000000E+00 0.  1.
         13    1    6    6    0    0 -0.23178254891E+02  0.29668274474E+02  0.24229273041E+02  0.44771717715E+02  0.10500000000E+00 0. -1.
</event>
<event>
11    0  0.3448258E-009  0.9118800E+02  0.7816531E-02  0.1126479E+00
         25   -1    0    0    0    0  0.00000000000E+00  0.00000000000E+00  0.99999998245E-14  0.12500000000E+03  0.12500000000E+03 0.  0.
    3000001    1    3    3    0    0 -0.54597138269E+01 -0.17621047066E+01 -0.23174750187E+02  0.23895240830E+02  0.10000000000E+01 0.  1.
    1000022    2    1    0    0    0 -0.20532457821E+02  0.59068775453E+01 -0.57877257241E+02  0.62499999569E+02  0.10000000691E+02 0.  0.
    3000022    2    3    3    0    0 -0.15072743994E+02  0.76689822519E+01 -0.34702507054E+02  0.38604758739E+02  0.25000235620E+00 0.  0.
    1000022    2    1    0    0    0  0.20532457821E+02 -0.59068775453E+01  0.57877257241E+02  0.62500000431E+02  0.10000006079E+02 0.  0.
    3000022    2    5    5    0    0  0.47626359953E+01 -0.48840915452E+01  0.10298646530E+02  0.12355633161E+02  0.24999725601E+00 0.  0.
        -13    1    4    4    0    0 -0.86829590978E+01  0.44081395396E+01 -0.20128771031E+02  0.22360767453E+02  0.10500000000E+00 0.  1.
         13    1    4    4    0    0 -0.63897848966E+01  0.32608427124E+01 -0.14573736023E+02  0.16243991286E+02  0.10500000000E+00 0. -1.
    3000001    1    5    5    0    0  0.15769821826E+02 -0.10227860001E+01  0.47578610712E+02  0.50144367270E+02  0.10000000000E+01 0. -1.
        -13    1    6    6    0    0  0.32614433351E+01 -0.33933087016E+01  0.70399818672E+01  0.84689979492E+01  0.10500000000E+00 0. -1.
         13    1    6    6    0    0  0.15011926602E+01 -0.14907828435E+01  0.32586646627E+01  0.38866352123E+01  0.10500000000E+00 0.  1.
</event>
<event>
11    0  0.3448258E-009  0.9118800E+02  0.7816531E-02  0.1126479E+00
         25   -1    0    0    0    0  0.00000000000E+00  0.00000000000E+00  0.99999998245E-14  0.12500000000E+03  0.12500000000E+03 0.  0.
    3000001    1    3    3    0    0 -0.38015242646E+02  0.47567837256E+02  0.98337181495E+01  0.61689219701E+02  0.10000000000E+01 0.  1.
    1000022    2    1    0    0    0 -0.37435657126E+02  0.47981190365E+02  0.10130505518E+02  0.62499999307E+02  0.99999858995E+01 0.  0.
    3000022    2    3    3    0    0  0.57958552072E+00  0.41335310926E+00  0.29678736805E+00  0.81077960561E+00  0.25000131652E+00 0.  0.
    1000022    2    1    0    0    0  0.37435657126E+02 -0.47981190365E+02 -0.10130505518E+02  0.62500000693E+02  0.99999945642E+01 0.  0.
    3000022    2    5    5    0    0  0.14734206346E+02 -0.26080596127E+02 -0.71704709891E+01  0.30802150610E+02  0.24999399492E+00 0.  0.
        -13    1    4    4    0    0  0.29963903779E+00  0.13211955625E+00  0.14306365380E+00  0.37246656112E+00  0.10500000000E+00 0.  1.
         13    1    4    4    0    0  0.27994648293E+00  0.28123355301E+00  0.15372371425E+00  0.43831304449E+00  0.10500000000E+00 0. -1.
    3000001    1    5    5    0    0  0.22701450780E+02 -0.21900594239E+02 -0.29600345284E+01  0.31697850083E+02  0.10000000000E+01 0. -1.
        -13    1    6    6    0    0  0.47070058334E+01 -0.83171649332E+01 -0.23391670568E+01  0.98394036385E+01  0.10500000000E+00 0. -1.
         13    1    6    6    0    0  0.10027200513E+02 -0.17763431194E+02 -0.48313039323E+01  0.20962746971E+02  0.10500000000E+00 0.  1.
</event>
<event>
11    0  0.3448258E-009  0.9118800E+02  0.7816531E-02  0.1126479E+00
         25   -1    0    0    0    0  0.00000000000E+00  0.00000000000E+00  0.99999998245E-14  0.12500000000E+03  0.12500000000E+03 0.  0.
    3000001    1    3    3    0    0  0.40540188738E+01  0.27495093077E+02 -0.14568687765E+02  0.31395252436E+02  0.10000000000E+01 0. -1.
    1000022    2    1    0    0    0 -0.10088052047E+01  0.56181248948E+02 -0.25473507517E+02  0.62500000041E+02  0.99999999248E+01 0.  0.
    3000022    2    3    3    0    0 -0.50628240785E+01  0.28686155871E+02 -0.10904819752E+02  0.31104747604E+02  0.25000673801E+00 0.  0.
    1000022    2    1    0    0    0  0.10088052047E+01 -0.56181248948E+02  0.25473507517E+02  0.62499999959E+02  0.99999994179E+01 0.  0.
    3000022    2    5    5    0    0  0.50289041845E+01 -0.25948088768E+02  0.97619054061E+01  0.28177126956E+02  0.24999667822E+00 0.  0.
        -13    1    4    4    0    0 -0.24338123658E+01  0.13452864353E+02 -0.51534265562E+01  0.14610675282E+02  0.10500000000E+00 0. -1.
         13    1    4    4    0    0 -0.26290117127E+01  0.15233291519E+02 -0.57513931956E+01  0.16494072322E+02  0.10500000000E+00 0.  1.
    3000001    1    5    5    0    0 -0.40200989798E+01 -0.30233160181E+02  0.15711602111E+02  0.34322873004E+02  0.10000000000E+01 0.  1.
        -13    1    6    6    0    0  0.14742653721E+01 -0.76510810461E+01  0.29244196609E+01  0.83232058075E+01  0.10500000000E+00 0. -1.
         13    1    6    6    0    0  0.35546388124E+01 -0.18297007721E+02  0.68374857452E+01  0.19853921148E+02  0.10500000000E+00 0.  1.
</event>
<event>
11    0  0.3448258E-009  0.9118800E+02  0.7816531E-02  0.1126479E+00
         25   -1    0    0    0    0  0.00000000000E+00  0.00000000000E+00  0.99999998245E-14  0.12500000000E+03  0.12500000000E+03 0.  0.
    3000001    1    3    3    0    0 -0.87231474997E+01 -0.69344523969E+01  0.87277498252E+01  0.14189910125E+02  0.10000000000E+01 0. -1.
    1000022    2    1    0    0    0 -0.45612646990E+02 -0.14019450257E+02  0.39104877894E+02  0.62499999963E+02  0.99999984661E+01 0.  0.
    3000022    2    3    3    0    0 -0.36889499490E+02 -0.70849978600E+01  0.30377128069E+02  0.48310089838E+02  0.25000622869E+00 0.  0.
    1000022    2    1    0    0    0  0.45612646990E+02  0.14019450257E+02 -0.39104877894E+02  0.62500000037E+02  0.99999989319E+01 0.  0.
    3000022    2    5    5    0    0  0.36224617665E+02  0.71843285434E+01 -0.27434385640E+02  0.46005929197E+02  0.25000847072E+00 0.  0.
        -13    1    4    4    0    0 -0.11119797425E+02 -0.21766006424E+01  0.91927380448E+01  0.14591262553E+02  0.10500000000E+00 0. -1.
         13    1    4    4    0    0 -0.25769702065E+02 -0.49083972176E+01  0.21184390024E+02  0.33718827285E+02  0.10500000000E+00 0.  1.
    3000001    1    5    5    0    0  0.93880293253E+01  0.68351217135E+01 -0.11670492254E+02  0.16494070840E+02  0.10000000000E+01 0.  1.
        -13    1    6    6    0    0  0.19040391609E+02  0.38421593226E+01 -0.14453735974E+02  0.24211984831E+02  0.10500000000E+00 0.  1.
         13    1    6    6    0    0  0.17184226056E+02  0.33421692208E+01 -0.12980649666E+02  0.21793944365E+02  0.10500000000E+00 0. -1.
</event>
<event>
11    0  0.3448258E-009  0.9118800E+02  0.7816531E-02  0.1126479E+00
         25   -1    0    0    0    0  0.00000000000E+00  0.00000000000E+00  0.99999998245E-14  0.12500000000E+03  0.12500000000E+03 0.  0.
    3000001    1    3    3    0    0 -0.53718580567E+02  0.13574676198E+02 -0.23928399830E+01  0.55467859299E+02  0.10000000000E+01 0. -1.
    1000022    2    1    0    0    0 -0.58845102204E+02  0.18381628086E+02 -0.23706958508E+01  0.62499999890E+02  0.99999741462E+01 0.  0.
    3000022    2    3    3    0    0 -0.51265216370E+01  0.48069518879E+01  0.22144132211E-01  0.70321405910E+01  0.25000076366E+00 0.  0.
    1000022    2    1    0    0    0  0.58845102204E+02 -0.18381628086E+02  0.23706958508E+01  0.62500000110E+02  0.99999755269E+01 0.  0.
    3000022    2    5    5    0    0  0.13193086762E+02 -0.63945791620E+00  0.28231678285E+01  0.13509227029E+02  0.24998719884E+00 0.  0.
        -13    1    4    4    0    0 -0.16495491808E+01  0.15058264264E+01  0.47510242698E-01  0.22364722107E+01  0.10500000000E+00 0. -1.
         13    1    4    4    0    0 -0.34769724562E+01  0.33011254615E+01 -0.25366110487E-01  0.47956683803E+01  0.10500000000E+00 0.  1.
    3000001    1    5    5    0    0  0.45652015442E+02 -0.17742170170E+02 -0.45247197767E+00  0.48990773082E+02  0.10000000000E+01 0. -1.
        -13    1    6    6    0    0  0.90545976982E+01 -0.39070732236E+00  0.19480879130E+01  0.92706236686E+01  0.10500000000E+00 0. -1.
         13    1    6    6    0    0  0.41384890634E+01 -0.24875059384E+00  0.87507991546E+00  0.42386033601E+01  0.10500000000E+00 0.  1.
</event>
<event>
11    0  0.3448258E-009  0.9118800E+02  0.7816531E-02  0.1126479E+00
         25   -1    0    0    0    0  0.00000000000E+00  0.00000000000E+00  0.99999998245E-14  0.12500000000E+03  0.12500000000E+03 0.  0.
    3000001    1    3    3    0    0 -0.32759105118E+01  0.42956338065E+02 -0.57444121777E+01  0.43473863883E+02  0.10000000000E+01 0.  1.
    1000022    2    1    0    0    0 -0.94885895125E+01  0.59714547165E+02 -0.12263334746E+02  0.62500000598E+02  0.10000011081E+02 0.  0.
    3000022    2    3    3    0    0 -0.62126790007E+01  0.16758209100E+02 -0.65189225686E+01  0.19026136716E+02  0.25014845776E+00 0.  0.
    1000022    2    1    0    0    0  0.94885895125E+01 -0.59714547165E+02  0.12263334746E+02  0.62499999402E+02  0.10000003600E+02 0.  0.
    3000022    2    5    5    0    0  0.45079688653E+00 -0.13955982550E+01 -0.12570206429E+01  0.19476955033E+01  0.25000910892E+00 0.  0.
        -13    1    4    4    0    0 -0.40176740380E+01  0.10764548480E+02 -0.41353159265E+01  0.12211841444E+02  0.10500000000E+00 0.  1.
         13    1    4    4    0    0 -0.21950049628E+01  0.59936606204E+01 -0.23836066420E+01  0.68142952712E+01  0.10500000000E+00 0. -1.
    3000001    1    5    5    0    0  0.90377926260E+01 -0.58318948910E+02  0.13520355389E+02  0.60552303898E+02  0.10000000000E+01 0.  1.
        -13    1    6    6    0    0  0.15173123615E+00 -0.50751136281E+00 -0.53397429638E+00  0.75943643618E+00  0.10500000000E+00 0.  1.
         13    1    6    6    0    0  0.29906565038E+00 -0.88808689221E+00 -0.72304634648E+00  0.11882590671E+01  0.10500000000E+00 0. -1.
</event>
<event>
11    0  0.3448258E-009  0.9118800E+02  0.7816531E-02  0.1126479E+00
         25   -1    0    0    0    0  0.00000000000E+00  0.00000000000E+00  0.99999998245E-14  0.12500000000E+03  0.12500000000E+03 0.  0.
    3000001    1    3    3    0    0  0.65700992799E+01 -0.11359422132E+02  0.19769875786E+02  0.23749750827E+02  0.10000000000E+01 0.  1.
    1000022    2    1    0    0    0  0.19496139185E+02 -0.39021295450E+02  0.43628992668E+02  0.62499998576E+02  0.99999939496E+01 0.  0.
    3000022    2    3    3    0    0  0.12926039905E+02 -0.27661873318E+02  0.23859116882E+02  0.38750247749E+02  0.24999826776E+00 0.  0.
    1000022    2    1    0    0    0 -0.19496139185E+02  0.39021295450E+02 -0.43628992668E+02  0.62500001424E+02  0.10000011755E+02 0.  0.
    3000022    2    5    5    0    0 -0.74894468881E+01  0.18371151033E+02 -0.26430068628E+02  0.33048480029E+02  0.24999914988E+00 0.  0.
        -13    1    4    4    0    0  0.46573370042E+01 -0.10052174768E+02  0.85989053323E+01  0.14024592809E+02  0.10500000000E+00 0.  1.
         13    1    4    4    0    0  0.82687029012E+01 -0.17609698550E+02  0.15260211549E+02  0.24725654940E+02  0.10500000000E+00 0. -1.
    3000001    1    5    5    0    0 -0.12006692297E+02  0.20650144418E+02 -0.17198924039E+02  0.29451521395E+02  0.10000000000E+01 0.  1.
        -13    1    6    6    0    0 -0.24586705817E+01  0.59277731903E+01 -0.84939088821E+01  0.10646176268E+02  0.10500000000E+00 0. -1.
         13    1    6    6    0    0 -0.50307763064E+01  0.12443377842E+02 -0.17936159746E+02  0.22402303761E+02  0.10500000000E+00 0.  1.
</event>
<event>
11    0  0.3448258E-009  0.9118800E+02  0.7816531E-02  0.1126479E+00
         25   -1    0    0    0    0  0.00000000000E+00  0.00000000000E+00  0.99999998245E-14  0.12500000000E+03  0.12500000000E+03 0.  0.
    3000001    1    3    3    0    0 -0.74908095088E+01 -0.97834537594E+01  0.46259962893E+02  0.47883320284E+02  0.10000000000E+01 0.  1.
    1000022    2    1    0    0    0 -0.13853327527E+02 -0.92371002299E+01  0.59405482409E+02  0.62499999852E+02  0.99999968502E+01 0.  0.
    3000022    2    3    3    0    0 -0.63625180186E+01  0.54635352952E+00  0.13145519516E+02  0.14616679568E+02  0.25000105774E+00 0.  0.
    1000022    2    1    0    0    0  0.13853327527E+02  0.92371002299E+01 -0.59405482409E+02  0.62500000148E+02  0.99999987032E+01 0.  0.
    3000022    2    5    5    0    0  0.10036249114E+02  0.18481223535E+01 -0.23342961217E+02  0.25477405474E+02  0.24999764368E+00 0.  0.
        -13    1    4    4    0    0 -0.47055713859E+01  0.37184974123E+00  0.97098740478E+01  0.10796914065E+02  0.10500000000E+00 0. -1.
         13    1    4    4    0    0 -0.16569466327E+01  0.17450378829E+00  0.34356454685E+01  0.38197655034E+01  0.10500000000E+00 0.  1.
    3000001    1    5    5    0    0  0.38170784138E+01  0.73889778764E+01 -0.36062521192E+02  0.37022594674E+02  0.10000000000E+01 0. -1.
        -13    1    6    6    0    0  0.77247576157E+01  0.14269213160E+01 -0.17950028715E+02  0.19593941424E+02  0.10500000000E+00 0. -1.
         13    1    6    6    0    0  0.23114914979E+01  0.42120103748E+00 -0.53929325018E+01  0.58834640500E+01  0.10500000000E+00 0.  1.
</event>
<event>
11    0  0.3448258E-009  0.9118800E+02  0.7816531E-02  0.1126479E+00
         25   -1    0    0    0    0  0.00000000000E+00  0.00000000000E+00  0.99999998245E-14  0.12500000000E+03  0.12500000000E+03 0.  0.
    3000001    1    3    3    0    0  0.18117326506E+02  0.40770314224E+02  0.20914207690E+02  0.49283467055E+02  0.10000000000E+01 0.  1.
    1000022    2    1    0    0    0  0.25539562207E+02  0.51641709935E+02  0.22070673127E+02  0.62500000031E+02  0.99999974457E+01 0.  0.
    3000022    2    3    3    0    0  0.74222357018E+01  0.10871395711E+02  0.11564654369E+01  0.13216532976E+02  0.25000820740E+00 0.  0.
    1000022    2    1    0    0    0 -0.25539562207E+02 -0.51641709935E+02 -0.22070673127E+02  0.62499999969E+02  0.99999970552E+01 0.  0.
    3000022    2    5    5    0    0 -0.38228908646E+01 -0.12568360245E+02 -0.13192141072E+01  0.13205339795E+02  0.24999887389E+00 0.  0.
        -13    1    4    4    0    0  0.48327160261E+01  0.69768910319E+01  0.74857700124E+00  0.85207713963E+01  0.10500000000E+00 0. -1.
         13    1    4    4    0    0  0.25895196757E+01  0.38945046786E+01  0.40788843571E+00  0.46957615802E+01  0.10500000000E+00 0.  1.
    3000001    1    5    5    0    0 -0.21716671343E+02 -0.39073349690E+02 -0.20751459019E+02  0.49294660174E+02  0.10000000000E+01 0.  1.
        -13    1    6    6    0    0 -0.27671645008E+01 -0.89928439234E+01 -0.91719021214E+00  0.94541368771E+01  0.10500000000E+00 0.  1.
         13    1    6    6    0    0 -0.10557263638E+01 -0.35755163216E+01 -0.40202389509E+00  0.37512029182E+01  0.10500000000E+00 0.  1.
</event>
<event>
11    0  0.3448258E-009  0.9118800E+02  0.7816531E-02  0.1126479E+00
         25   -1    0    0    0    0  0.00000000000E+00  0.00000000000E+00  0.99999998245E-14  0.12500000000E+03  0.12500000000E+03 0.  0.
    3000001    1    3    3    0    0 -0.12343802098E+02 -0.13909032917E+02 -0.54159358582E+02  0.57271867168E+02  0.10000000000E+01 0.  1.
    1000022    2    1    0    0    0 -0.10564702723E+02 -0.15774186160E+02 -0.58701041016E+02  0.62499999704E+02  0.99999926956E+01 0.  0.
    3000022    2    3    3    0    0  0.17790993748E+01 -0.18651532434E+01 -0.45416824343E+01  0.52281325354E+01  0.24999853484E+00 0.  0.
    1000022    2    1    0    0    0  0.10564702723E+02  0.15774186160E+02  0.58701041016E+02  0.62500000296E+02  0.99999963992E+01 0.  0.
    3000022    2    5    5    0    0  0.79636934125E+01  0.51879389854E+01  0.18052026309E+02  0.20402776215E+02  0.24999945844E+00 0.  0.
        -13    1    4    4    0    0  0.10567893424E+01 -0.11082576151E+01 -0.28227372319E+01  0.32130840536E+01  0.10500000000E+00 0.  1.
         13    1    4    4    0    0  0.72231003244E+00 -0.75689562826E+00 -0.17189452024E+01  0.20150484818E+01  0.10500000000E+00 0. -1.
    3000001    1    5    5    0    0  0.26010093107E+01  0.10586247175E+02  0.40649014707E+02  0.42097224081E+02  0.10000000000E+01 0.  1.
        -13    1    6    6    0    0  0.52706244563E+01  0.33720401159E+01  0.11923459161E+02  0.13465884304E+02  0.10500000000E+00 0.  1.
         13    1    6    6    0    0  0.26930689562E+01  0.18158988695E+01  0.61285671477E+01  0.69368919115E+01  0.10500000000E+00 0. -1.
</event>
<event>
11    0  0.3448258E-009  0.9118800E+02  0.7816531E-02  0.1126479E+00
         25   -1    0    0    0    0  0.00000000000E+00  0.00000000000E+00  0.99999998245E-14  0.12500000000E+03  0.12500000000E+03 0.  0.
    3000001    1    3    3    0    0 -0.55280784400E+02  0.64458170152E+01 -0.30587507942E+01  0.55748270263E+02  0.10000000000E+01 0.  1.
    1000022    2    1    0    0    0 -0.61217388714E+02  0.49148207841E+01 -0.58758639925E+01  0.62499999879E+02  0.10000003146E+02 0.  0.
    3000022    2    3    3    0    0 -0.59366043140E+01 -0.15309962311E+01 -0.28171131984E+01  0.67517296162E+01  0.25001159497E+00 0.  0.
    1000022    2    1    0    0    0  0.61217388714E+02 -0.49148207841E+01  0.58758639925E+01  0.62500000121E+02  0.10000004655E+02 0.  0.
    3000022    2    5    5    0    0  0.34848372980E+01  0.17709865632E+01 -0.77760717148E+00  0.39934518424E+01  0.25000060832E+00 0.  0.
        -13    1    4    4    0    0 -0.33713853450E+01 -0.83747403988E+00 -0.15320122809E+01  0.37981164464E+01  0.10500000000E+00 0. -1.
         13    1    4    4    0    0 -0.25652189690E+01 -0.69352219122E+00 -0.12851009175E+01  0.29536131698E+01  0.10500000000E+00 0.  1.
    3000001    1    5    5    0    0  0.57732551416E+02 -0.66858073473E+01  0.66534711640E+01  0.58506548278E+02  0.10000000000E+01 0. -1.
        -13    1    6    6    0    0  0.26727201687E+01  0.13696345097E+01 -0.60083763836E+00  0.30645330245E+01  0.10500000000E+00 0.  1.
         13    1    6    6    0    0  0.81211712925E+00  0.40135205344E+00 -0.17676953312E+00  0.92891881791E+00  0.10500000000E+00 0. -1.
</event>
<event>
11    0  0.3448258E-009  0.9118800E+02  0.7816531E-02  0.1126479E+00
         25   -1    0    0    0    0  0.00000000000E+00  0.00000000000E+00  0.99999998245E-14  0.12500000000E+03  0.12500000000E+03 0.  0.
    3000001    1    3    3    0    0  0.29844147055E+01 -0.20607678615E+00 -0.33796931684E+01  0.46229346404E+01  0.10000000000E+01 0.  1.
    1000022    2    1    0    0    0  0.19564330353E+02 -0.27585059936E+02 -0.51599916624E+02  0.62500000673E+02  0.10000006732E+02 0.  0.
    3000022    2    3    3    0    0  0.16579915648E+02 -0.27378983150E+02 -0.48220223456E+02  0.57877066033E+02  0.25000240687E+00 0.  0.
    1000022    2    1    0    0    0 -0.19564330353E+02  0.27585059936E+02  0.51599916624E+02  0.62499999327E+02  0.99999983207E+01 0.  0.
    3000022    2    5    5    0    0 -0.11427051484E+02  0.21555474736E+02  0.30367944860E+02  0.38954982231E+02  0.25013767997E+00 0.  0.
        -13    1    4    4    0    0  0.65705042395E+01 -0.10950862149E+02 -0.19175853782E+02  0.23039472673E+02  0.10500000000E+00 0. -1.
         13    1    4    4    0    0  0.10009411408E+02 -0.16428121001E+02 -0.29044369673E+02  0.34837593360E+02  0.10500000000E+00 0.  1.
    3000001    1    5    5    0    0 -0.81372788688E+01  0.60295852005E+01  0.21231971764E+02  0.23545017097E+02  0.10000000000E+01 0. -1.
        -13    1    6    6    0    0 -0.70252839349E+01  0.13335549886E+02  0.18836641677E+02  0.24125123830E+02  0.10500000000E+00 0. -1.
         13    1    6    6    0    0 -0.44017675495E+01  0.82199248498E+01  0.11531303183E+02  0.14829858401E+02  0.10500000000E+00 0.  1.
</event>
<event>
11    0  0.3448258E-009  0.9118800E+02  0.7816531E-02  0.1126479E+00
         25   -1    0    0    0    0  0.00000000000E+00  0.00000000000E+00  0.99999998245E-14  0.12500000000E+03  0.12500000000E+03 0.  0.
    3000001    1    3    3    0    0 -0.31484681193E+01  0.10976614873E+01  0.52083063253E+01  0.62645165030E+01  0.10000000000E+01 0. -1.
    1000022    2    1    0    0    0 -0.42768667933E+02  0.29285021141E+02  0.33458609114E+02  0.62499999839E+02  0.10000001803E+02 0.  0.
    3000022    2    3    3    0    0 -0.39620199814E+02  0.28187359654E+02  0.28250302789E+02  0.56235483336E+02  0.25000174028E+00 0.  0.
    1000022    2    1    0    0    0  0.42768667933E+02 -0.29285021141E+02 -0.33458609114E+02  0.62500000161E+02  0.10000003810E+02 0.  0.
    3000022    2    5    5    0    0  0.54202132284E+01 -0.22367712597E+00 -0.28634761811E+01  0.61392785186E+01  0.25000398413E+00 0.  0.
        -13    1    4    4    0    0 -0.28289349456E+02  0.20136762787E+02  0.20221619365E+02  0.40183347583E+02  0.10500000000E+00 0. -1.
         13    1    4    4    0    0 -0.11330850358E+02  0.80505968664E+01  0.80286834238E+01  0.16052135754E+02  0.10500000000E+00 0.  1.
    3000001    1    5    5    0    0  0.37348454705E+02 -0.29061344015E+02 -0.30595132933E+02  0.56360721642E+02  0.10000000000E+01 0.  1.
        -13    1    6    6    0    0  0.22579095815E+01 -0.14732321013E+00 -0.12343982132E+01  0.25796557435E+01  0.10500000000E+00 0.  1.
         13    1    6    6    0    0  0.31623036469E+01 -0.76353915840E-01 -0.16290779678E+01  0.35596227751E+01  0.10500000000E+00 0. -1.
</event>
<event>
11    0  0.3448258E-009  0.9118800E+02  0.7816531E-02  0.1126479E+00
         25   -1    0    0    0    0  0.00000000000E+00  0.00000000000E+00  0.99999998245E-14  0.12500000000E+03  0.12500000000E+03 0.  0.
    3000001    1    3    3    0    0 -0.41962036284E+01  0.44717566020E+01 -0.41194332518E+01  0.74548281210E+01  0.10000000000E+01 0.  1.
    1000022    2    1    0    0    0 -0.15992815557E+02  0.53227796927E+02 -0.26782111127E+02  0.62500000397E+02  0.10000002900E+02 0.  0.
    3000022    2    3    3    0    0 -0.11796611928E+02  0.48756040325E+02 -0.22662677875E+02  0.55045172276E+02  0.25000235672E+00 0.  0.
    1000022    2    1    0    0    0  0.15992815557E+02 -0.53227796927E+02  0.26782111127E+02  0.62499999603E+02  0.99999979421E+01 0.  0.
    3000022    2    5    5    0    0  0.55739865924E+01 -0.82786945930E+01  0.74791503062E+01  0.12474225306E+02  0.24999394913E+00 0.  0.
        -13    1    4    4    0    0 -0.41276608423E+01  0.17285056832E+02 -0.80049582173E+01  0.19491053198E+02  0.10500000000E+00 0. -1.
         13    1    4    4    0    0 -0.76689510859E+01  0.31470983494E+02 -0.14657719658E+02  0.35554119078E+02  0.10500000000E+00 0.  1.
    3000001    1    5    5    0    0  0.10418828964E+02 -0.44949102334E+02  0.19302960821E+02  0.50025774298E+02  0.10000000000E+01 0.  1.
        -13    1    6    6    0    0  0.38591845508E+01 -0.58117718749E+01  0.52413238131E+01  0.87265398662E+01  0.10500000000E+00 0. -1.
         13    1    6    6    0    0  0.17148020417E+01 -0.24669227181E+01  0.22378264930E+01  0.37476854393E+01  0.10500000000E+00 0.  1.
</event>
<event>
11    0  0.3448258E-009  0.9118800E+02  0.7816531E-02  0.1126479E+00
         25   -1    0    0    0    0  0.00000000000E+00  0.00000000000E+00  0.99999998245E-14  0.12500000000E+03  0.12500000000E+03 0.  0.
    3000001    1    3    3    0    0  0.16535727667E+02 -0.53249006003E+02 -0.97179087718E+01  0.56606754727E+02  0.10000000000E+01 0. -1.
    1000022    2    1    0    0    0  0.15181121853E+02 -0.58663077071E+02 -0.11594266421E+02  0.62499999989E+02  0.99999956364E+01 0.  0.
    3000022    2    3    3    0    0 -0.13546058139E+01 -0.54140710674E+01 -0.18763576488E+01  0.58932452625E+01  0.24999852840E+00 0.  0.
    1000022    2    1    0    0    0 -0.15181121853E+02  0.58663077071E+02  0.11594266421E+02  0.62500000011E+02  0.99999957700E+01 0.  0.
    3000022    2    5    5    0    0 -0.16120073375E+02  0.50066800003E+02  0.86156351450E+01  0.53299464501E+02  0.25003807214E+00 0.  0.
        -13    1    4    4    0    0 -0.36882967660E+00 -0.14303265043E+01 -0.53138066776E+00  0.15732957933E+01  0.10500000000E+00 0.  1.
         13    1    4    4    0    0 -0.98577613732E+00 -0.39837445631E+01 -0.13449769810E+01  0.43199494692E+01  0.10500000000E+00 0. -1.
    3000001    1    5    5    0    0  0.93895152159E+00  0.85962770679E+01  0.29786312756E+01  0.92005355096E+01  0.10000000000E+01 0. -1.
        -13    1    6    6    0    0 -0.11362366667E+02  0.35211159743E+02  0.60988386475E+01  0.37498480030E+02  0.10500000000E+00 0. -1.
         13    1    6    6    0    0 -0.47577067071E+01  0.14855640260E+02  0.25167964975E+01  0.15800984471E+02  0.10500000000E+00 0.  1.
</event>
<event>
11    0  0.3448258E-009  0.9118800E+02  0.7816531E-02  0.1126479E+00
         25   -1    0    0    0    0  0.00000000000E+00  0.00000000000E+00  0.99999998245E-14  0.12500000000E+03  0.12500000000E+03 0.  0.
    3000001    1    3    3    0    0  0.24206746117E+02  0.15296003265E+02  0.12561260089E+02  0.31284493419E+02  0.10000000000E+01 0. -1.
    1000022    2    1    0    0    0  0.51384731755E+02  0.30326514034E+02  0.15689547341E+02  0.62499999841E+02  0.99999986690E+01 0.  0.
    3000022    2    3    3    0    0  0.27177985638E+02  0.15030510769E+02  0.31282872528E+01  0.31215506422E+02  0.25000550632E+00 0.  0.
    1000022    2    1    0    0    0 -0.51384731755E+02 -0.30326514034E+02 -0.15689547341E+02  0.62500000159E+02  0.10000000656E+02 0.  0.
    3000022    2    5    5    0    0 -0.42066381199E+02 -0.20176838921E+02 -0.11298923905E+02  0.48004306449E+02  0.25000041766E+00 0.  0.
        -13    1    4    4    0    0  0.97124660575E+01  0.53230013267E+01  0.11548383587E+01  0.11136023378E+02  0.10500000000E+00 0. -1.
         13    1    4    4    0    0  0.17465519581E+02  0.97075094422E+01  0.19734488940E+01  0.20079483044E+02  0.10500000000E+00 0.  1.
    3000001    1    5    5    0    0 -0.93183505559E+01 -0.10149675112E+02 -0.43906234368E+01  0.14495693710E+02  0.10000000000E+01 0.  1.
        -13    1    6    6    0    0 -0.13235602728E+02 -0.62998657198E+01 -0.35263396709E+01  0.15076988563E+02  0.10500000000E+00 0. -1.
         13    1    6    6    0    0 -0.28830778471E+02 -0.13876973202E+02 -0.77725842337E+01  0.32927317886E+02  0.10500000000E+00 0.  1.
</event>
<event>
11    0  0.3448258E-009  0.9118800E+02  0.7816531E-02  0.1126479E+00
         25   -1    0    0    0    0  0.00000000000E+00  0.00000000000E+00  0.99999998245E-14  0.12500000000E+03  0.12500000000E+03 0.  0.
    3000001    1    3    3    0    0  0.30739322962E+01  0.17902987555E+00 -0.83065442915E+01  0.89151438308E+01  0.10000000000E+01 0. -1.
    1000022    2    1    0    0    0  0.36977336746E+02  0.15187413151E+02 -0.46992224348E+02  0.62499999318E+02  0.99999907259E+01 0.  0.
    3000022    2    3    3    0    0  0.33903404449E+02  0.15008383276E+02 -0.38685680057E+02  0.53584855487E+02  0.24998861150E+00 0.  0.
    1000022    2    1    0    0    0 -0.36977336746E+02 -0.15187413151E+02  0.46992224348E+02  0.62500000682E+02  0.99999992547E+01 0.  0.
    3000022    2    5    5    0    0 -0.81685853077E+00 -0.25997387701E+01  0.47241738688E+01  0.54595078517E+01  0.25001541515E+00 0.  0.
        -13    1    4    4    0    0  0.23297866792E+02  0.10259690552E+02 -0.26561840684E+02  0.36791225215E+02  0.10500000000E+00 0.  1.
         13    1    4    4    0    0  0.10605537657E+02  0.47486927234E+01 -0.12123839373E+02  0.16793630272E+02  0.10500000000E+00 0. -1.
    3000001    1    5    5    0    0 -0.36160478215E+02 -0.12587674381E+02  0.42268050479E+02  0.57040492831E+02  0.10000000000E+01 0.  1.
        -13    1    6    6    0    0 -0.35137423461E+00 -0.13351862272E+01  0.24291027372E+01  0.27960241812E+01  0.10500000000E+00 0.  1.
         13    1    6    6    0    0 -0.46548429616E+00 -0.12645525429E+01  0.22950711316E+01  0.26634836705E+01  0.10500000000E+00 0. -1.
</event>
<event>
11    0  0.3448258E-009  0.9118800E+02  0.7816531E-02  0.1126479E+00
         25   -1    0    0    0    0  0.00000000000E+00  0.00000000000E+00  0.99999998245E-14  0.12500000000E+03  0.12500000000E+03 0.  0.
    3000001    1    3    3    0    0 -0.41358895692E+02 -0.22208975687E+02 -0.10065370101E+02  0.48021958823E+02  0.10000000000E+01 0.  1.
    1000022    2    1    0    0    0 -0.55492037181E+02 -0.23725994408E+02 -0.12804729656E+02  0.62499998279E+02  0.99999841072E+01 0.  0.
    3000022    2    3    3    0    0 -0.14133141488E+02 -0.15170187207E+01 -0.27393595552E+01  0.14478039455E+02  0.25000312743E+00 0.  0.
    1000022    2    1    0    0    0  0.55492037181E+02  0.23725994408E+02  0.12804729656E+02  0.62500001721E+02  0.10000005625E+02 0.  0.
    3000022    2    5    5    0    0  0.53288703333E+02  0.20482052179E+02  0.11406468310E+02  0.58218299254E+02  0.24996869869E+00 0.  0.
        -13    1    4    4    0    0 -0.56048847999E+01 -0.65180116977E+00 -0.10487484451E+01  0.57402505769E+01  0.10500000000E+00 0.  1.
         13    1    4    4    0    0 -0.85282566886E+01 -0.86521755095E+00 -0.16906111101E+01  0.87377888783E+01  0.10500000000E+00 0. -1.
    3000001    1    5    5    0    0  0.22033338482E+01  0.32439422286E+01  0.13982613463E+01  0.42817024677E+01  0.10000000000E+01 0. -1.
        -13    1    6    6    0    0  0.31195915990E+02  0.12042596644E+02  0.66383265393E+01  0.34092340968E+02  0.10500000000E+00 0. -1.
         13    1    6    6    0    0  0.22092787342E+02  0.84394555349E+01  0.47681417703E+01  0.24125958286E+02  0.10500000000E+00 0.  1.
</event>
<event>
11    0  0.3448258E-009  0.9118800E+02  0.7816531E-02  0.1126479E+00
         25   -1    0    0    0    0  0.00000000000E+00  0.00000000000E+00  0.99999998245E-14  0.12500000000E+03  0.12500000000E+03 0.  0.
    3000001    1    3    3    0    0 -0.23341797679E+02  0.26873352086E+02 -0.16136254052E+02  0.39094696137E+02  0.10000000000E+01 0.  1.
    1000022    2    1    0    0    0 -0.41535934028E+02  0.36693309500E+02 -0.27103824032E+02  0.62500000025E+02  0.99999974146E+01 0.  0.
    3000022    2    3    3    0    0 -0.18194136349E+02  0.98199574148E+01 -0.10967569980E+02  0.23405303888E+02  0.24999542253E+00 0.  0.
    1000022    2    1    0    0    0  0.41535934028E+02 -0.36693309500E+02  0.27103824032E+02  0.62499999975E+02  0.99999971028E+01 0.  0.
    3000022    2    5    5    0    0  0.12767802930E+02 -0.11026891100E+02  0.13487053253E+02  0.21600283022E+02  0.25000439870E+00 0.  0.
        -13    1    4    4    0    0 -0.85818541067E+01  0.46614878903E+01 -0.52511625368E+01  0.11088887331E+02  0.10500000000E+00 0.  1.
         13    1    4    4    0    0 -0.96122822424E+01  0.51584695246E+01 -0.57164074436E+01  0.12316416557E+02  0.10500000000E+00 0. -1.
    3000001    1    5    5    0    0  0.28768131098E+02 -0.25666418401E+02  0.13616770779E+02  0.40899716953E+02  0.10000000000E+01 0.  1.
        -13    1    6    6    0    0  0.61855364249E+01 -0.52799134386E+01  0.64392922187E+01  0.10373709850E+02  0.10500000000E+00 0. -1.
         13    1    6    6    0    0  0.65822665051E+01 -0.57469776611E+01  0.70477610344E+01  0.11226573172E+02  0.10500000000E+00 0.  1.
</event>
<event>
11    0  0.3448258E-009  0.9118800E+02  0.7816531E-02  0.1126479E+00
         25   -1    0    0    0    0  0.00000000000E+00  0.00000000000E+00  0.99999998245E-14  0.12500000000E+03  0.12500000000E+03 0.  0.
    3000001    1    3    3    0    0 -0.25938650948E+02 -0.19062391214E+02  0.18231133552E+02  0.37007601954E+02  0.10000000000E+01 0. -1.
    1000022    2    1    0    0    0 -0.48652958468E+02 -0.27827743898E+02  0.25782867847E+02  0.62500000090E+02  0.10000001931E+02 0.  0.
    3000022    2    3    3    0    0 -0.22714307520E+02 -0.87653526837E+01  0.75517342941E+01  0.25492398135E+02  0.24999604966E+00 0.  0.
    1000022    2    1    0    0    0  0.48652958468E+02  0.27827743898E+02 -0.25782867847E+02  0.62499999910E+02  0.10000000812E+02 0.  0.
    3000022    2    5    5    0    0  0.44722711022E+02  0.27462247353E+02 -0.25677298513E+02  0.58426723882E+02  0.24998781573E+00 0.  0.
        -13    1    4    4    0    0 -0.12132026631E+02 -0.46104985270E+01  0.40140833706E+01  0.13585531169E+02  0.10500000000E+00 0. -1.
         13    1    4    4    0    0 -0.10582280890E+02 -0.41548541568E+01  0.35376509235E+01  0.11906866966E+02  0.10500000000E+00 0.  1.
    3000001    1    5    5    0    0  0.39302474469E+01  0.36549654495E+00 -0.10556933394E+00  0.40732760282E+01  0.10000000000E+01 0. -1.
        -13    1    6    6    0    0  0.13513185418E+02  0.82660869875E+01 -0.77923337367E+01  0.17654060844E+02  0.10500000000E+00 0. -1.
         13    1    6    6    0    0  0.31209525604E+02  0.19196160366E+02 -0.17884964776E+02  0.40772663038E+02  0.10500000000E+00 0.  1.
</event>
<event>
11    0  0.3448258E-009  0.9118800E+02  0.7816531E-02  0.1126479E+00
         25   -1    0    0    0    0  0.00000000000E+00  0.00000000000E+00  0.99999998245E-14  0.12500000000E+03  0.12500000000E+03 0.  0.
    3000001    1    3    3    0    0 -0.10946634101E+02 -0.41066551271E+02  0.16903193852E+02  0.45749408672E+02  0.10000000000E+01 0. -1.
    1000022    2    1    0    0    0 -0.11681270775E+02 -0.53914605683E+02  0.27622689029E+02  0.62499998326E+02  0.10000002437E+02 0.  0.
    3000022    2    3    3    0    0 -0.73463667373E+00 -0.12848054411E+02  0.10719495177E+02  0.16750589654E+02  0.24996741138E+00 0.  0.
    1000022    2    1    0    0    0  0.11681270775E+02  0.53914605683E+02 -0.27622689029E+02  0.62500001674E+02  0.10000023360E+02 0.  0.
    3000022    2    5    5    0    0  0.36999299622E+01  0.12419578570E+02 -0.21168035778E+01  0.13133117339E+02  0.25000015983E+00 0.  0.
        -13    1    4    4    0    0 -0.38322766055E+00 -0.76149828701E+01  0.63983060108E+01  0.99541032926E+01  0.10500000000E+00 0.  1.
         13    1    4    4    0    0 -0.35140901318E+00 -0.52330715413E+01  0.43211891658E+01  0.67964863612E+01  0.10500000000E+00 0. -1.
    3000001    1    5    5    0    0  0.79813408127E+01  0.41495027113E+02 -0.25505885451E+02  0.49366884335E+02  0.10000000000E+01 0. -1.
        -13    1    6    6    0    0  0.20266153709E+01  0.70228491557E+01 -0.11737316966E+01  0.74037997826E+01  0.10500000000E+00 0.  1.
         13    1    6    6    0    0  0.16733145913E+01  0.53967294139E+01 -0.94307188119E+00  0.57293175564E+01  0.10500000000E+00 0. -1.
</event>
<event>
11    0  0.3448258E-009  0.9118800E+02  0.7816531E-02  0.1126479E+00
         25   -1    0    0    0    0  0.00000000000E+00  0.00000000000E+00  0.99999998245E-14  0.12500000000E+03  0.12500000000E+03 0.  0.
    3000001    1    3    3    0    0  0.26780042832E+02 -0.14195628060E+02  0.27422620131E+02  0.40886264746E+02  0.10000000000E+01 0. -1.
    1000022    2    1    0    0    0  0.40949743982E+02 -0.14723585141E+02  0.43733109882E+02  0.62500004506E+02  0.10000008584E+02 0.  0.
    3000022    2    3    3    0    0  0.14169701150E+02 -0.52795708124E+00  0.16310489751E+02  0.21613739759E+02  0.25000218726E+00 0.  0.
    1000022    2    1    0    0    0 -0.40949743982E+02  0.14723585141E+02 -0.43733109882E+02  0.62499995494E+02  0.99999522649E+01 0.  0.
    3000022    2    5    5    0    0 -0.13261615208E+02  0.16910144067E+01 -0.86044150897E+01  0.15900579482E+02  0.25000233401E+00 0.  0.
        -13    1    4    4    0    0  0.76297513938E+01 -0.28259573248E+00  0.86799092517E+01  0.11560485124E+02  0.10500000000E+00 0.  1.
         13    1    4    4    0    0  0.65399497565E+01 -0.24536134877E+00  0.76305804991E+01  0.10053254635E+02  0.10500000000E+00 0. -1.
    3000001    1    5    5    0    0 -0.27688128774E+02  0.13032570735E+02 -0.35128694792E+02  0.46599416013E+02  0.10000000000E+01 0. -1.
        -13    1    6    6    0    0 -0.95606428253E+01  0.11864081847E+01 -0.62266212769E+01  0.11471499167E+02  0.10500000000E+00 0.  1.
         13    1    6    6    0    0 -0.37009723830E+01  0.50460622207E+00 -0.23777938128E+01  0.44290803148E+01  0.10500000000E+00 0. -1.
</event>
<event>
11    0  0.3448258E-009  0.9118800E+02  0.7816531E-02  0.1126479E+00
         25   -1    0    0    0    0  0.00000000000E+00  0.00000000000E+00  0.99999998245E-14  0.12500000000E+03  0.12500000000E+03 0.  0.
    3000001    1    3    3    0    0 -0.21837733848E+02  0.14837776606E+02 -0.55414677002E+02  0.61390819032E+02  0.10000000000E+01 0. -1.
    1000022    2    1    0    0    0 -0.21647896325E+02  0.15893867431E+02 -0.55542806792E+02  0.62500001117E+02  0.10000015805E+02 0.  0.
    3000022    2    3    3    0    0  0.18983752344E+00  0.10560908251E+01 -0.12812979047E+00  0.11091820850E+01  0.25000307698E+00 0.  0.
    1000022    2    1    0    0    0  0.21647896325E+02 -0.15893867431E+02  0.55542806792E+02  0.62499998883E+02  0.10000001840E+02 0.  0.
    3000022    2    5    5    0    0  0.12877551338E+02 -0.33344939050E+01  0.25451841141E+02  0.28719486329E+02  0.24999896796E+00 0.  0.
        -13    1    4    4    0    0  0.43908645314E-01  0.52694220940E+00 -0.16850072012E-01  0.53935608470E+00  0.10500000000E+00 0. -1.
         13    1    4    4    0    0  0.14592887813E+00  0.52914861565E+00 -0.11127971845E+00  0.56982600034E+00  0.10500000000E+00 0.  1.
    3000001    1    5    5    0    0  0.87703449862E+01 -0.12559373526E+02  0.30090965651E+02  0.33780512553E+02  0.10000000000E+01 0. -1.
        -13    1    6    6    0    0  0.50300656723E+01 -0.13013653423E+01  0.10076076672E+02  0.11337259745E+02  0.10500000000E+00 0. -1.
         13    1    6    6    0    0  0.78474856660E+01 -0.20331285627E+01  0.15375764469E+02  0.17382226585E+02  0.10500000000E+00 0.  1.
</event>
<event>
11    0  0.3448258E-009  0.9118800E+02  0.7816531E-02  0.1126479E+00
         25   -1    0    0    0    0  0.00000000000E+00  0.00000000000E+00  0.99999998245E-14  0.12500000000E+03  0.12500000000E+03 0.  0.
    3000001    1    3    3    0    0  0.41434473530E+02  0.73456199229E+01  0.14174303880E+02  0.44414914378E+02  0.10000000000E+01 0. -1.
    1000022    2    1    0    0    0  0.58636856269E+02  0.12921088446E+02  0.14177959295E+02  0.62500000329E+02  0.10000003579E+02 0.  0.
    3000022    2    3    3    0    0  0.17202382739E+02  0.55754685228E+01  0.36554149104E-02  0.18085085951E+02  0.24999863088E+00 0.  0.
    1000022    2    1    0    0    0 -0.58636856269E+02 -0.12921088446E+02 -0.14177959295E+02  0.62499999671E+02  0.99999994652E+01 0.  0.
    3000022    2    5    5    0    0 -0.17169712322E+02 -0.38761674802E+01  0.41371754780E+00  0.17608445281E+02  0.24997491729E+00 0.  0.
        -13    1    4    4    0    0  0.68188193851E+01  0.22434300621E+01 -0.52659837153E-01  0.71793505492E+01  0.10500000000E+00 0.  1.
         13    1    4    4    0    0  0.10383563354E+02  0.33320384607E+01  0.56315252063E-01  0.10905735401E+02  0.10500000000E+00 0. -1.
    3000001    1    5    5    0    0 -0.41467143948E+02 -0.90449209655E+01 -0.14591676843E+02  0.44891554390E+02  0.10000000000E+01 0.  1.
        -13    1    6    6    0    0 -0.52809739672E+01 -0.11747129046E+01  0.17176212003E+00  0.54137938339E+01  0.10500000000E+00 0. -1.
         13    1    6    6    0    0 -0.11888738355E+02 -0.27014545756E+01  0.24195542777E+00  0.12194651447E+02  0.10500000000E+00 0.  1.
</event>
<event>
11    0  0.3448258E-009  0.9118800E+02  0.7816531E-02  0.1126479E+00
         25   -1    0    0    0    0  0.00000000000E+00  0.00000000000E+00  0.99999998245E-14  0.12500000000E+03  0.12500000000E+03 0.  0.
    3000001    1    3    3    0    0  0.23082231263E+01 -0.21452652890E+01  0.63103758808E+01  0.71239666562E+01  0.10000000000E+01 0. -1.
    1000022    2    1    0    0    0 -0.38269396606E+01 -0.89263085782E+01  0.60925573998E+02  0.62500000613E+02  0.10000002884E+02 0.  0.
    3000022    2    3    3    0    0 -0.61351627869E+01 -0.67810432892E+01  0.54615198117E+02  0.55376033957E+02  0.25000186233E+00 0.  0.
    1000022    2    1    0    0    0  0.38269396606E+01  0.89263085782E+01 -0.60925573998E+02  0.62499999387E+02  0.99999952172E+01 0.  0.
    3000022    2    5    5    0    0  0.56255482737E+01  0.99186181796E+01 -0.45584210304E+02  0.46989451000E+02  0.24999238975E+00 0.  0.
        -13    1    4    4    0    0 -0.14329704431E+01 -0.15706006870E+01  0.12752416600E+02  0.12928857063E+02  0.10500000000E+00 0.  1.
         13    1    4    4    0    0 -0.47021923438E+01 -0.52104426022E+01  0.41862781517E+02  0.42447176894E+02  0.10500000000E+00 0. -1.
    3000001    1    5    5    0    0 -0.17986086130E+01 -0.99230960139E+00 -0.15341363694E+02  0.15510548387E+02  0.10000000000E+01 0. -1.
        -13    1    6    6    0    0  0.33764867217E+01  0.58235901792E+01 -0.26908555858E+02  0.27737993231E+02  0.10500000000E+00 0.  1.
         13    1    6    6    0    0  0.22490615520E+01  0.40950280004E+01 -0.18675654447E+02  0.19251457768E+02  0.10500000000E+00 0. -1.
</event>
<event>
11    0  0.3448258E-009  0.9118800E+02  0.7816531E-02  0.1126479E+00
         25   -1    0    0    0    0  0.00000000000E+00  0.00000000000E+00  0.99999998245E-14  0.12500000000E+03  0.12500000000E+03 0.  0.
    3000001    1    3    3    0    0  0.43646506483E+02  0.52949826946E+01 -0.20388637178E+02  0.48474229194E+02  0.10000000000E+01 0. -1.
    1000022    2    1    0    0    0  0.53531386901E+02  0.46513732395E+01 -0.30315099245E+02  0.62499999865E+02  0.10000004218E+02 0.  0.
    3000022    2    3    3    0    0  0.98848804176E+01 -0.64360945512E+00 -0.99264620666E+01  0.14025770671E+02  0.24999953067E+00 0.  0.
    1000022    2    1    0    0    0 -0.53531386901E+02 -0.46513732395E+01  0.30315099245E+02  0.62500000135E+02  0.10000005905E+02 0.  0.
    3000022    2    5    5    0    0 -0.23952459601E+02 -0.45878665275E+00  0.82202977222E+01  0.25329165105E+02  0.25000829737E+00 0.  0.
        -13    1    4    4    0    0  0.65601818789E+01 -0.41154929787E+00 -0.65123550531E+01  0.92534940669E+01  0.10500000000E+00 0.  1.
         13    1    4    4    0    0  0.33246985387E+01 -0.23206015725E+00 -0.34141070135E+01  0.47722766045E+01  0.10500000000E+00 0. -1.
    3000001    1    5    5    0    0 -0.29578927300E+02 -0.41925865867E+01  0.22094801523E+02  0.37170835030E+02  0.10000000000E+01 0.  1.
        -13    1    6    6    0    0 -0.14704980512E+02 -0.26534260106E+00  0.49836658828E+01  0.15529159964E+02  0.10500000000E+00 0. -1.
         13    1    6    6    0    0 -0.92474790883E+01 -0.19344405169E+00  0.32366318393E+01  0.98000051404E+01  0.10500000000E+00 0.  1.
</event>
<event>
11    0  0.3448258E-009  0.9118800E+02  0.7816531E-02  0.1126479E+00
         25   -1    0    0    0    0  0.00000000000E+00  0.00000000000E+00  0.99999998245E-14  0.12500000000E+03  0.12500000000E+03 0.  0.
    3000001    1    3    3    0    0  0.20388720715E+01 -0.74539314059E+01  0.15970203428E+01  0.79541540533E+01  0.10000000000E+01 0.  1.
    1000022    2    1    0    0    0  0.30722740958E+02 -0.53032955189E+02 -0.70617732396E+01  0.62499996637E+02  0.99999895200E+01 0.  0.
    3000022    2    3    3    0    0  0.28683868886E+02 -0.45579023783E+02 -0.86587935824E+01  0.54545842584E+02  0.24998729102E+00 0.  0.
    1000022    2    1    0    0    0 -0.30722740958E+02  0.53032955189E+02  0.70617732396E+01  0.62500003363E+02  0.10000031551E+02 0.  0.
    3000022    2    5    5    0    0 -0.28502685223E+02  0.42615067686E+02  0.73753101925E+01  0.51796763998E+02  0.25000275279E+00 0.  0.
        -13    1    4    4    0    0  0.15498107340E+02 -0.24534919820E+02 -0.46193350179E+01  0.29385419900E+02  0.10500000000E+00 0. -1.
         13    1    4    4    0    0  0.13185761546E+02 -0.21044103963E+02 -0.40394585645E+01  0.25160422684E+02  0.10500000000E+00 0.  1.
    3000001    1    5    5    0    0 -0.22200557347E+01  0.10417887502E+02 -0.31353695292E+00  0.10703239365E+02  0.10000000000E+01 0. -1.
        -13    1    6    6    0    0 -0.11975278409E+02  0.17846020008E+02  0.30351630415E+01  0.21705090711E+02  0.10500000000E+00 0. -1.
         13    1    6    6    0    0 -0.16527406814E+02  0.24769047678E+02  0.43401471510E+01  0.30091673287E+02  0.10500000000E+00 0.  1.
</event>
<event>
11    0  0.3448258E-009  0.9118800E+02  0.7816531E-02  0.1126479E+00
         25   -1    0    0    0    0  0.00000000000E+00  0.00000000000E+00  0.99999998245E-14  0.12500000000E+03  0.12500000000E+03 0.  0.
    3000001    1    3    3    0    0 -0.61771560378E+01  0.33888067972E+02 -0.52208389640E+01  0.34854204439E+02  0.10000000000E+01 0.  1.
    1000022    2    1    0    0    0 -0.84300316118E+01  0.58562805448E+02 -0.17480912756E+02  0.62500000219E+02  0.10000005080E+02 0.  0.
    3000022    2    3    3    0    0 -0.22528755740E+01  0.24674737476E+02 -0.12260073792E+02  0.27645795780E+02  0.24999406071E+00 0.  0.
    1000022    2    1    0    0    0  0.84300316118E+01 -0.58562805448E+02  0.17480912756E+02  0.62499999781E+02  0.10000002346E+02 0.  0.
    3000022    2    5    5    0    0  0.64709932689E+00 -0.27226237165E+02  0.11882605038E+02  0.29714399344E+02  0.24999637088E+00 0.  0.
        -13    1    4    4    0    0 -0.10761231642E+01  0.12325571030E+02 -0.60696892631E+01  0.13781505543E+02  0.10500000000E+00 0. -1.
         13    1    4    4    0    0 -0.11767524098E+01  0.12349166447E+02 -0.61903845289E+01  0.13864290237E+02  0.10500000000E+00 0.  1.
    3000001    1    5    5    0    0  0.77829322849E+01 -0.31336568283E+02  0.55983077183E+01  0.32785600437E+02  0.10000000000E+01 0. -1.
        -13    1    6    6    0    0  0.22006762878E+00 -0.11563123006E+02  0.50846538324E+01  0.12634040249E+02  0.10500000000E+00 0. -1.
         13    1    6    6    0    0  0.42703169811E+00 -0.15663114159E+02  0.67979512052E+01  0.17080359095E+02  0.10500000000E+00 0.  1.
</event>
<event>
11    0  0.3448258E-009  0.9118800E+02  0.7816531E-02  0.1126479E+00
         25   -1    0    0    0    0  0.00000000000E+00  0.00000000000E+00  0.99999998245E-14  0.12500000000E+03  0.12500000000E+03 0.  0.
    3000001    1    3    3    0    0  0.17808554872E+01 -0.45593936098E+02 -0.63679129509E+01  0.46081761799E+02  0.10000000000E+01 0. -1.
    1000022    2    1    0    0    0 -0.12084088131E+01 -0.60285704446E+02 -0.13054637946E+02  0.62500000169E+02  0.10000001841E+02 0.  0.
    3000022    2    3    3    0    0 -0.29892643002E+01 -0.14691768348E+02 -0.66867249948E+01  0.16418238370E+02  0.25000352026E+00 0.  0.
    1000022    2    1    0    0    0  0.12084088131E+01  0.60285704446E+02  0.13054637946E+02  0.62499999831E+02  0.99999997297E+01 0.  0.
    3000022    2    5    5    0    0 -0.20032216854E+01  0.15223144777E+02 -0.36750935674E+00  0.15360813451E+02  0.24998545034E+00 0.  0.
        -13    1    4    4    0    0 -0.71267961599E+00 -0.34490269350E+01 -0.15818917088E+01  0.38622668748E+01  0.10500000000E+00 0. -1.
         13    1    4    4    0    0 -0.22765846842E+01 -0.11242741413E+02 -0.51048332860E+01  0.12555971495E+02  0.10500000000E+00 0.  1.
    3000001    1    5    5    0    0  0.32116304984E+01  0.45062559669E+02  0.13422147302E+02  0.47139186380E+02  0.10000000000E+01 0. -1.
        -13    1    6    6    0    0 -0.85065475806E+00  0.60341911618E+01 -0.17385510909E+00  0.60972393010E+01  0.10500000000E+00 0.  1.
         13    1    6    6    0    0 -0.11525669273E+01  0.91889536155E+01 -0.19365424766E+00  0.92635741502E+01  0.10500000000E+00 0. -1.
</event>
<event>
11    0  0.3448258E-009  0.9118800E+02  0.7816531E-02  0.1126479E+00
         25   -1    0    0    0    0  0.00000000000E+00  0.00000000000E+00  0.99999998245E-14  0.12500000000E+03  0.12500000000E+03 0.  0.
    3000001    1    3    3    0    0  0.16531786183E+01  0.12962616620E+02  0.85244854866E+01  0.15634234295E+02  0.10000000000E+01 0. -1.
    1000022    2    1    0    0    0  0.69466621203E+01  0.40122060925E+02  0.46348831655E+02  0.62500000537E+02  0.99999991957E+01 0.  0.
    3000022    2    3    3    0    0  0.52934835020E+01  0.27159444304E+02  0.37824346169E+02  0.46865766242E+02  0.24999972335E+00 0.  0.
    1000022    2    1    0    0    0 -0.69466621203E+01 -0.40122060925E+02 -0.46348831655E+02  0.62499999463E+02  0.99999924771E+01 0.  0.
    3000022    2    5    5    0    0 -0.81893533152E+01 -0.19684828149E+02 -0.25866008140E+02  0.33521199900E+02  0.24999729991E+00 0.  0.
        -13    1    4    4    0    0  0.22381616848E+01  0.11258646373E+02  0.15610193778E+02  0.19376678267E+02  0.10500000000E+00 0.  1.
         13    1    4    4    0    0  0.30553218173E+01  0.15900797931E+02  0.22214152390E+02  0.27489087975E+02  0.10500000000E+00 0. -1.
    3000001    1    5    5    0    0  0.12426911949E+01 -0.20437232776E+02 -0.20482823516E+02  0.28978799563E+02  0.10000000000E+01 0. -1.
        -13    1    6    6    0    0 -0.60893697992E+01 -0.14569905251E+02 -0.19185014915E+02  0.24848307505E+02  0.10500000000E+00 0. -1.
         13    1    6    6    0    0 -0.20999835160E+01 -0.51149228979E+01 -0.66809932243E+01  0.86728923943E+01  0.10500000000E+00 0.  1.
</event>
<event>
11    0  0.3448258E-009  0.9118800E+02  0.7816531E-02  0.1126479E+00
         25   -1    0    0    0    0  0.00000000000E+00  0.00000000000E+00  0.99999998245E-14  0.12500000000E+03  0.12500000000E+03 0.  0.
    3000001    1    3    3    0    0  0.45863723828E+01 -0.51456958694E+02 -0.29284329839E+02  0.59392132339E+02  0.10000000000E+01 0.  1.
    1000022    2    1    0    0    0  0.66131565372E+01 -0.53791663480E+02 -0.29478347786E+02  0.62499999915E+02  0.10000005090E+02 0.  0.
    3000022    2    3    3    0    0  0.20267841544E+01 -0.23347047861E+01 -0.19401794725E+00  0.31078675756E+01  0.24999491387E+00 0.  0.
    1000022    2    1    0    0    0 -0.66131565372E+01  0.53791663480E+02  0.29478347786E+02  0.62500000085E+02  0.10000006152E+02 0.  0.
    3000022    2    5    5    0    0 -0.56966576566E+01  0.46398496503E+02  0.28903837783E+02  0.54961502230E+02  0.25000539327E+00 0.  0.
        -13    1    4    4    0    0  0.13010764173E+01 -0.14410500238E+01 -0.16815501025E+00  0.19515957886E+01  0.10500000000E+00 0. -1.
         13    1    4    4    0    0  0.72570773715E+00 -0.89365476228E+00 -0.25862937006E-01  0.11562717870E+01  0.10500000000E+00 0.  1.
    3000001    1    5    5    0    0 -0.91649888061E+00  0.73931669779E+01  0.57451000351E+00  0.75384978547E+01  0.10000000000E+01 0. -1.
        -13    1    6    6    0    0 -0.16820902348E+01  0.13575927749E+02  0.85066493261E+01  0.16109293888E+02  0.10500000000E+00 0.  1.
         13    1    6    6    0    0 -0.40145674218E+01  0.32822568754E+02  0.20397188456E+02  0.38852208343E+02  0.10500000000E+00 0. -1.
</event>
<event>
11    0  0.3448258E-009  0.9118800E+02  0.7816531E-02  0.1126479E+00
         25   -1    0    0    0    0  0.00000000000E+00  0.00000000000E+00  0.99999998245E-14  0.12500000000E+03  0.12500000000E+03 0.  0.
    3000001    1    3    3    0    0  0.35510815083E+02  0.79335309417E+01 -0.19665431884E+02  0.41372552644E+02  0.10000000000E+01 0. -1.
    1000022    2    1    0    0    0  0.50073688885E+02  0.88185399660E+01 -0.34944371057E+02  0.62499999669E+02  0.99999962196E+01 0.  0.
    3000022    2    3    3    0    0  0.14562873802E+02  0.88500902429E+00 -0.15278939172E+02  0.21127447026E+02  0.25000245273E+00 0.  0.
    1000022    2    1    0    0    0 -0.50073688885E+02 -0.88185399660E+01  0.34944371057E+02  0.62500000331E+02  0.10000000354E+02 0.  0.
    3000022    2    5    5    0    0 -0.24612503308E+00 -0.96404507711E+00  0.19883890877E+01  0.22374418309E+01  0.24998867943E+00 0.  0.
        -13    1    4    4    0    0  0.82780912325E+01  0.56647741723E+00 -0.86637699182E+01  0.11996650587E+02  0.10500000000E+00 0. -1.
         13    1    4    4    0    0  0.62847825698E+01  0.31853160706E+00 -0.66151692541E+01  0.91307964382E+01  0.10500000000E+00 0.  1.
    3000001    1    5    5    0    0 -0.49827563852E+02 -0.78544948889E+01  0.32955981969E+02  0.60262558500E+02  0.10000000000E+01 0. -1.
        -13    1    6    6    0    0 -0.18361139130E+00 -0.48693044168E+00  0.95342441317E+00  0.10912641796E+01  0.10500000000E+00 0.  1.
         13    1    6    6    0    0 -0.62513641783E-01 -0.47711463544E+00  0.10349646745E+01  0.11461776513E+01  0.10500000000E+00 0. -1.
</event>
<event>
11    0  0.3448258E-009  0.9118800E+02  0.7816531E-02  0.1126479E+00
         25   -1    0    0    0    0  0.00000000000E+00  0.00000000000E+00  0.99999998245E-14  0.12500000000E+03  0.12500000000E+03 0.  0.
    3000001    1    3    3    0    0 -0.38228596352E+01  0.19696212337E+01  0.14321760075E+02  0.14986876767E+02  0.10000000000E+01 0.  1.
    1000022    2    1    0    0    0 -0.21783155087E+02 -0.79994173203E+01  0.57164268210E+02  0.62500000694E+02  0.10000000189E+02 0.  0.
    3000022    2    3    3    0    0 -0.17960295452E+02 -0.99690385540E+01  0.42842508135E+02  0.47513123927E+02  0.24999915310E+00 0.  0.
    1000022    2    1    0    0    0  0.21783155087E+02  0.79994173203E+01 -0.57164268210E+02  0.62499999306E+02  0.99999915132E+01 0.  0.
    3000022    2    5    5    0    0  0.11191346103E+02  0.19197062499E+01 -0.38759449667E+02  0.40389218003E+02  0.24998536917E+00 0.  0.
        -13    1    4    4    0    0 -0.13418201585E+02 -0.74176992140E+01  0.31999774402E+02  0.35483333865E+02  0.10500000000E+00 0. -1.
         13    1    4    4    0    0 -0.45420938669E+01 -0.25513393400E+01  0.10842733733E+02  0.12029790062E+02  0.10500000000E+00 0.  1.
    3000001    1    5    5    0    0  0.10591808984E+02  0.60797110704E+01 -0.18404818543E+02  0.22110781303E+02  0.10000000000E+01 0.  1.
        -13    1    6    6    0    0  0.64487901817E+01  0.11118900418E+01 -0.22566759185E+02  0.23496655919E+02  0.10500000000E+00 0. -1.
         13    1    6    6    0    0  0.47425559216E+01  0.80781620812E+00 -0.16192690482E+02  0.16892562084E+02  0.10500000000E+00 0.  1.
</event>
<event>
11    0  0.3448258E-009  0.9118800E+02  0.7816531E-02  0.1126479E+00
         25   -1    0    0    0    0  0.00000000000E+00  0.00000000000E+00  0.99999998245E-14  0.12500000000E+03  0.12500000000E+03 0.  0.
    3000001    1    3    3    0    0  0.10563174658E+01  0.43821614259E+01 -0.16094942106E+00  0.46200703531E+01  0.10000000000E+01 0. -1.
    1000022    2    1    0    0    0 -0.15297707378E+02  0.57459556106E+02 -0.16450820080E+02  0.62500000691E+02  0.10000008307E+02 0.  0.
    3000022    2    3    3    0    0 -0.16354024844E+02  0.53077394680E+02 -0.16289870659E+02  0.57879930338E+02  0.24999042009E+00 0.  0.
    1000022    2    1    0    0    0  0.15297707378E+02 -0.57459556106E+02  0.16450820080E+02  0.62499999309E+02  0.99999996693E+01 0.  0.
    3000022    2    5    5    0    0  0.13029076534E+02 -0.36900225328E+02  0.14365089754E+02  0.41686949582E+02  0.24999443372E+00 0.  0.
        -13    1    4    4    0    0 -0.63251127213E+01  0.20428856857E+02 -0.62161921920E+01  0.22270997144E+02  0.10500000000E+00 0. -1.
         13    1    4    4    0    0 -0.10028912123E+02  0.32648537823E+02 -0.10073678467E+02  0.35608933194E+02  0.10500000000E+00 0.  1.
    3000001    1    5    5    0    0  0.22686308443E+01 -0.20559330778E+02  0.20857303257E+01  0.20813049727E+02  0.10000000000E+01 0.  1.
        -13    1    6    6    0    0  0.51857994929E+01 -0.14522637755E+02  0.56286908070E+01  0.16416233092E+02  0.10500000000E+00 0. -1.
         13    1    6    6    0    0  0.78432770410E+01 -0.22377587573E+02  0.87363989474E+01  0.25270716490E+02  0.10500000000E+00 0.  1.
</event>
<event>
11    0  0.3448258E-009  0.9118800E+02  0.7816531E-02  0.1126479E+00
         25   -1    0    0    0    0  0.00000000000E+00  0.00000000000E+00  0.99999998245E-14  0.12500000000E+03  0.12500000000E+03 0.  0.
    3000001    1    3    3    0    0 -0.22104198282E+02  0.48764010734E+02 -0.30357067538E+02  0.61555469896E+02  0.10000000000E+01 0.  1.
    1000022    2    1    0    0    0 -0.21650711301E+02  0.49420706281E+02 -0.29918058464E+02  0.62499995233E+02  0.99999836339E+01 0.  0.
    3000022    2    3    3    0    0  0.45348698088E+00  0.65669554694E+00  0.43900907404E+00  0.94452533712E+00  0.24999932432E+00 0.  0.
    1000022    2    1    0    0    0  0.21650711301E+02 -0.49420706281E+02  0.29918058464E+02  0.62500004767E+02  0.10000043226E+02 0.  0.
    3000022    2    5    5    0    0 -0.81815800983E+00 -0.42597618804E+01  0.33089411043E+01  0.54613677402E+01  0.24998511004E+00 0.  0.
        -13    1    4    4    0    0  0.32289562344E+00  0.43200453098E+00  0.23379847078E+00  0.59714003665E+00  0.10500000000E+00 0.  1.
         13    1    4    4    0    0  0.13059135744E+00  0.22469101596E+00  0.20521060326E+00  0.34738530047E+00  0.10500000000E+00 0. -1.
    3000001    1    5    5    0    0  0.22468869311E+02 -0.45160944401E+02  0.26609117360E+02  0.57038637027E+02  0.10000000000E+01 0.  1.
        -13    1    6    6    0    0 -0.62057170337E+00 -0.31309045948E+01  0.24672868467E+01  0.40356167068E+01  0.10500000000E+00 0. -1.
         13    1    6    6    0    0 -0.19758630647E+00 -0.11288572856E+01  0.84165425761E+00  0.14257510333E+01  0.10500000000E+00 0.  1.
</event>
<event>
11    0  0.3448258E-009  0.9118800E+02  0.7816531E-02  0.1126479E+00
         25   -1    0    0    0    0  0.00000000000E+00  0.00000000000E+00  0.99999998245E-14  0.12500000000E+03  0.12500000000E+03 0.  0.
    3000001    1    3    3    0    0 -0.12250390158E+02 -0.30170940301E+01 -0.85920132112E+01  0.15296980305E+02  0.10000000000E+01 0. -1.
    1000022    2    1    0    0    0 -0.56407865717E+02 -0.15654610201E+02 -0.19476566764E+02  0.62500004232E+02  0.99999870385E+01 0.  0.
    3000022    2    3    3    0    0 -0.44157475559E+02 -0.12637516171E+02 -0.10884553553E+02  0.47203023927E+02  0.24999828583E+00 0.  0.
    1000022    2    1    0    0    0  0.56407865717E+02  0.15654610201E+02  0.19476566764E+02  0.62499995768E+02  0.99999341428E+01 0.  0.
    3000022    2    5    5    0    0  0.34613699348E+02  0.13227962524E+02  0.87851274804E+01  0.38083174095E+02  0.25001846512E+00 0.  0.
        -13    1    4    4    0    0 -0.17899219150E+02 -0.50582017125E+01 -0.43933272112E+01  0.19112294465E+02  0.10500000000E+00 0. -1.
         13    1    4    4    0    0 -0.26258256409E+02 -0.75793144580E+01 -0.64912263415E+01  0.28090729462E+02  0.10500000000E+00 0.  1.
    3000001    1    5    5    0    0  0.21794166369E+02  0.24266476768E+01  0.10691439284E+02  0.24416821673E+02  0.10000000000E+01 0.  1.
        -13    1    6    6    0    0  0.19283365037E+02  0.73112989949E+01  0.48499507429E+01  0.21185757181E+02  0.10500000000E+00 0.  1.
         13    1    6    6    0    0  0.15330334311E+02  0.59166635290E+01  0.39351767374E+01  0.16897416914E+02  0.10500000000E+00 0. -1.
</event>
<event>
11    0  0.3448258E-009  0.9118800E+02  0.7816531E-02  0.1126479E+00
         25   -1    0    0    0    0  0.00000000000E+00  0.00000000000E+00  0.99999998245E-14  0.12500000000E+03  0.12500000000E+03 0.  0.
    3000001    1    3    3    0    0 -0.38350024528E+02 -0.36240157134E+02  0.15499335414E+02  0.55002752374E+02  0.10000000000E+01 0.  1.
    1000022    2    1    0    0    0 -0.43001261502E+02 -0.39148997141E+02  0.20603340688E+02  0.62500000337E+02  0.99999963324E+01 0.  0.
    3000022    2    3    3    0    0 -0.46512369741E+01 -0.29088400069E+01  0.51040052735E+01  0.74972479628E+01  0.25000321654E+00 0.  0.
    1000022    2    1    0    0    0  0.43001261502E+02  0.39148997141E+02 -0.20603340688E+02  0.62499999663E+02  0.99999921241E+01 0.  0.
    3000022    2    5    5    0    0  0.36618047945E+02  0.28436673913E+02 -0.14482798289E+02  0.48573035762E+02  0.24999661089E+00 0.  0.
        -13    1    4    4    0    0 -0.16276844864E+01 -0.10134973466E+01  0.18624416033E+01  0.26751163310E+01  0.10500000000E+00 0. -1.
         13    1    4    4    0    0 -0.30235524877E+01 -0.18953426603E+01  0.32415636702E+01  0.48221316318E+01  0.10500000000E+00 0.  1.
    3000001    1    5    5    0    0  0.63832135574E+01  0.10712323228E+02 -0.61205423992E+01  0.13926963901E+02  0.10000000000E+01 0. -1.
        -13    1    6    6    0    0  0.26435996000E+02  0.20566368363E+02 -0.10489608409E+02  0.35098152398E+02  0.10500000000E+00 0.  1.
         13    1    6    6    0    0  0.10182051945E+02  0.78703055503E+01 -0.39931898801E+01  0.13474883364E+02  0.10500000000E+00 0. -1.
</event>
<event>
11    0  0.3448258E-009  0.9118800E+02  0.7816531E-02  0.1126479E+00
         25   -1    0    0    0    0  0.00000000000E+00  0.00000000000E+00  0.99999998245E-14  0.12500000000E+03  0.12500000000E+03 0.  0.
    3000001    1    3    3    0    0  0.40379277618E+02 -0.38386642040E+02  0.16427163652E+02  0.58093648996E+02  0.10000000000E+01 0.  1.
    1000022    2    1    0    0    0  0.41060724686E+02 -0.42046532815E+02  0.18771143336E+02  0.62499997659E+02  0.99999925890E+01 0.  0.
    3000022    2    3    3    0    0  0.68144706764E+00 -0.36598907754E+01  0.23439796836E+01  0.44063486630E+01  0.24999437739E+00 0.  0.
    1000022    2    1    0    0    0 -0.41060724686E+02  0.42046532815E+02 -0.18771143336E+02  0.62500002341E+02  0.10000021849E+02 0.  0.
    3000022    2    5    5    0    0 -0.84868596972E+01  0.12672733757E+02 -0.84136039585E+01  0.17420568301E+02  0.24999992827E+00 0.  0.
        -13    1    4    4    0    0  0.45033526605E+00 -0.20656736700E+01  0.13158439236E+01  0.24924445418E+01  0.10500000000E+00 0.  1.
         13    1    4    4    0    0  0.23111180159E+00 -0.15942171054E+01  0.10281357599E+01  0.19139041211E+01  0.10500000000E+00 0. -1.
    3000001    1    5    5    0    0 -0.32573864988E+02  0.29373799058E+02 -0.10357539377E+02  0.45079434040E+02  0.10000000000E+01 0. -1.
        -13    1    6    6    0    0 -0.23898890724E+01  0.35043217975E+01 -0.23580872244E+01  0.48542189276E+01  0.10500000000E+00 0.  1.
         13    1    6    6    0    0 -0.60969706248E+01  0.91684119597E+01 -0.60555167341E+01  0.12566349374E+02  0.10500000000E+00 0. -1.
</event>
<event>
11    0  0.3448258E-009  0.9118800E+02  0.7816531E-02  0.1126479E+00
         25   -1    0    0    0    0  0.00000000000E+00  0.00000000000E+00  0.99999998245E-14  0.12500000000E+03  0.12500000000E+03 0.  0.
    3000001    1    3    3    0    0 -0.64775848887E+01 -0.45834938682E+02  0.27988401467E+02  0.54103154498E+02  0.10000000000E+01 0.  1.
    1000022    2    1    0    0    0 -0.85261839582E+01 -0.53943022816E+02  0.28700254981E+02  0.62500000375E+02  0.99999943742E+01 0.  0.
    3000022    2    3    3    0    0 -0.20485990694E+01 -0.81080841343E+01  0.71185351393E+00  0.83968458771E+01  0.24999756382E+00 0.  0.
    1000022    2    1    0    0    0  0.85261839582E+01  0.53943022816E+02 -0.28700254981E+02  0.62499999625E+02  0.99999896885E+01 0.  0.
    3000022    2    5    5    0    0  0.84596988685E+01  0.48923117256E+02 -0.28765165102E+02  0.57380616320E+02  0.24999786016E+00 0.  0.
        -13    1    4    4    0    0 -0.12488985074E+01 -0.51557483272E+01  0.47905345954E+00  0.53274764676E+01  0.10500000000E+00 0.  1.
         13    1    4    4    0    0 -0.79970056208E+00 -0.29523358071E+01  0.23280005439E+00  0.30693694095E+01  0.10500000000E+00 0. -1.
    3000001    1    5    5    0    0  0.66485089683E-01  0.50199055601E+01  0.64910121738E-01  0.51193833050E+01  0.10000000000E+01 0.  1.
        -13    1    6    6    0    0  0.63016974232E+01  0.36332321310E+02 -0.21336534978E+02  0.42602907319E+02  0.10500000000E+00 0.  1.
         13    1    6    6    0    0  0.21580014452E+01  0.12590795946E+02 -0.74286301246E+01  0.14777709001E+02  0.10500000000E+00 0. -1.
</event>
<event>
11    0  0.3448258E-009  0.9118800E+02  0.7816531E-02  0.1126479E+00
         25   -1    0    0    0    0  0.00000000000E+00  0.00000000000E+00  0.99999998245E-14  0.12500000000E+03  0.12500000000E+03 0.  0.
    3000001    1    3    3    0    0 -0.18848207573E+02 -0.10278111233E+02  0.28215596114E+02  0.35468498182E+02  0.10000000000E+01 0.  1.
    1000022    2    1    0    0    0 -0.26560046352E+02 -0.23586292315E+02  0.50443041330E+02  0.62499997613E+02  0.10000001779E+02 0.  0.
    3000022    2    3    3    0    0 -0.77118387786E+01 -0.13308181082E+02  0.22227445216E+02  0.27031499431E+02  0.24999912749E+00 0.  0.
    1000022    2    1    0    0    0  0.26560046352E+02  0.23586292315E+02 -0.50443041330E+02  0.62500002387E+02  0.10000031623E+02 0.  0.
    3000022    2    5    5    0    0  0.42641930739E+01  0.11049931850E+00 -0.38352545595E+01  0.57417103252E+01  0.25001450124E+00 0.  0.
        -13    1    4    4    0    0 -0.29466462806E+01 -0.49825288799E+01  0.83098704308E+01  0.10127847250E+02  0.10500000000E+00 0. -1.
         13    1    4    4    0    0 -0.47651924980E+01 -0.83256522020E+01  0.13917574786E+02  0.16903652181E+02  0.10500000000E+00 0.  1.
    3000001    1    5    5    0    0  0.22295853278E+02  0.23475792996E+02 -0.46607786770E+02  0.56758292062E+02  0.10000000000E+01 0.  1.
        -13    1    6    6    0    0  0.17025840005E+01  0.48556932510E-01 -0.16172028185E+01  0.23510678447E+01  0.10500000000E+00 0. -1.
         13    1    6    6    0    0  0.25616090734E+01  0.61942385994E-01 -0.22180517410E+01  0.33906424804E+01  0.10500000000E+00 0.  1.
</event>
<event>
11    0  0.3448258E-009  0.9118800E+02  0.7816531E-02  0.1126479E+00
         25   -1    0    0    0    0  0.00000000000E+00  0.00000000000E+00  0.99999998245E-14  0.12500000000E+03  0.12500000000E+03 0.  0.
    3000001    1    3    3    0    0 -0.15776401538E+02 -0.11517886273E+02 -0.10105941853E+02  0.22015599252E+02  0.10000000000E+01 0. -1.
    1000022    2    1    0    0    0 -0.45623998656E+02 -0.21318882835E+02 -0.35639950226E+02  0.62499999640E+02  0.99999942095E+01 0.  0.
    3000022    2    3    3    0    0 -0.29847597118E+02 -0.98009965621E+01 -0.25534008373E+02  0.40484400388E+02  0.25000772651E+00 0.  0.
    1000022    2    1    0    0    0  0.45623998656E+02  0.21318882835E+02  0.35639950226E+02  0.62500000360E+02  0.99999987044E+01 0.  0.
    3000022    2    5    5    0    0 -0.49167940934E+00  0.87996122327E-01  0.48981845637E+00  0.74291107011E+00  0.25000555749E+00 0.  0.
        -13    1    4    4    0    0 -0.21345371176E+02 -0.70275244078E+01 -0.18216662135E+02  0.28928684282E+02  0.10500000000E+00 0.  1.
         13    1    4    4    0    0 -0.85022259423E+01 -0.27734721543E+01 -0.73173462386E+01  0.11555716107E+02  0.10500000000E+00 0. -1.
    3000001    1    5    5    0    0  0.46115678066E+02  0.21230886713E+02  0.35150131770E+02  0.61757089289E+02  0.10000000000E+01 0.  1.
        -13    1    6    6    0    0 -0.36530096706E+00  0.81031829013E-01  0.29470820882E+00  0.48773853876E+00  0.10500000000E+00 0. -1.
         13    1    6    6    0    0 -0.12637844229E+00  0.69642933143E-02  0.19511024755E+00  0.25517253135E+00  0.10500000000E+00 0.  1.
</event>
<event>
11    0  0.3448258E-009  0.9118800E+02  0.7816531E-02  0.1126479E+00
         25   -1    0    0    0    0  0.00000000000E+00  0.00000000000E+00  0.99999998245E-14  0.12500000000E+03  0.12500000000E+03 0.  0.
    3000001    1    3    3    0    0  0.16659006082E+02  0.39148995085E+02  0.38256332165E+02  0.57225110315E+02  0.10000000000E+01 0. -1.
    1000022    2    1    0    0    0  0.18652699955E+02  0.43958995065E+02  0.39063198015E+02  0.62499998439E+02  0.99999951463E+01 0.  0.
    3000022    2    3    3    0    0  0.19936938732E+01  0.48099999802E+01  0.80686584946E+00  0.52748881237E+01  0.24999429972E+00 0.  0.
    1000022    2    1    0    0    0 -0.18652699955E+02 -0.43958995065E+02 -0.39063198015E+02  0.62500001561E+02  0.10000014664E+02 0.  0.
    3000022    2    5    5    0    0 -0.14517930109E+02 -0.21952003861E+02 -0.22564963843E+02  0.34668441880E+02  0.25000191938E+00 0.  0.
        -13    1    4    4    0    0  0.75600580684E+00  0.19669218554E+01  0.29406413972E+00  0.21302171447E+01  0.10500000000E+00 0. -1.
         13    1    4    4    0    0  0.12376880663E+01  0.28430781248E+01  0.51280170974E+00  0.31446709791E+01  0.10500000000E+00 0.  1.
    3000001    1    5    5    0    0 -0.41347698469E+01 -0.22006991204E+02 -0.16498234171E+02  0.27831559682E+02  0.10000000000E+01 0.  1.
        -13    1    6    6    0    0 -0.84256557879E+01 -0.12848133428E+02 -0.13140377116E+02  0.20217486089E+02  0.10500000000E+00 0. -1.
         13    1    6    6    0    0 -0.60922743207E+01 -0.91038704335E+01 -0.94245867277E+01  0.14450955790E+02  0.10500000000E+00 0.  1.
</event>
<event>
11    0  0.3448258E-009  0.9118800E+02  0.7816531E-02  0.1126479E+00
         25   -1    0    0    0    0  0.00000000000E+00  0.00000000000E+00  0.99999998245E-14  0.12500000000E+03  0.12500000000E+03 0.  0.
    3000001    1    3    3    0    0 -0.20511323404E+02  0.16783246243E+02  0.20449106533E+02  0.33489665574E+02  0.10000000000E+01 0. -1.
    1000022    2    1    0    0    0 -0.32297040861E+02  0.28133492396E+02  0.44403350098E+02  0.62500000159E+02  0.10000013862E+02 0.  0.
    3000022    2    3    3    0    0 -0.11785717457E+02  0.11350246153E+02  0.23954243565E+02  0.29010334586E+02  0.25000859803E+00 0.  0.
    1000022    2    1    0    0    0  0.32297040861E+02 -0.28133492396E+02 -0.44403350098E+02  0.62499999841E+02  0.10000011872E+02 0.  0.
    3000022    2    5    5    0    0  0.12482744973E+02 -0.16826165200E+02 -0.18310393765E+02  0.27825739358E+02  0.24998717467E+00 0.  0.
        -13    1    4    4    0    0 -0.85072027009E+01  0.82109882135E+01  0.17372643781E+02  0.21014580705E+02  0.10500000000E+00 0. -1.
         13    1    4    4    0    0 -0.32785147561E+01  0.31392579394E+01  0.65815997835E+01  0.79957538811E+01  0.10500000000E+00 0.  1.
    3000001    1    5    5    0    0  0.19814295888E+02 -0.11307327196E+02 -0.26092956333E+02  0.34674260483E+02  0.10000000000E+01 0. -1.
        -13    1    6    6    0    0  0.75116497124E+01 -0.10220613953E+02 -0.11050390381E+02  0.16822841126E+02  0.10500000000E+00 0. -1.
         13    1    6    6    0    0  0.49710952603E+01 -0.66055512474E+01 -0.72600033835E+01  0.11002898232E+02  0.10500000000E+00 0.  1.
</event>
<event>
11    0  0.3448258E-009  0.9118800E+02  0.7816531E-02  0.1126479E+00
         25   -1    0    0    0    0  0.00000000000E+00  0.00000000000E+00  0.99999998245E-14  0.12500000000E+03  0.12500000000E+03 0.  0.
    3000001    1    3    3    0    0 -0.38467330528E+01 -0.26872819207E+01  0.51782867548E+01  0.70592841717E+01  0.10000000000E+01 0. -1.
    1000022    2    1    0    0    0 -0.52214993684E+02 -0.10967639129E+02  0.30976688116E+02  0.62499999871E+02  0.10000005187E+02 0.  0.
    3000022    2    3    3    0    0 -0.48368260631E+02 -0.82803572084E+01  0.25798401361E+02  0.55440715699E+02  0.24998492900E+00 0.  0.
    1000022    2    1    0    0    0  0.52214993684E+02  0.10967639129E+02 -0.30976688116E+02  0.62500000129E+02  0.10000006804E+02 0.  0.
    3000022    2    5    5    0    0  0.41061839993E+02  0.12538361675E+02 -0.23509652874E+02  0.48949479037E+02  0.25000529746E+00 0.  0.
        -13    1    4    4    0    0 -0.32435613731E+02 -0.55353081727E+01  0.17354975587E+02  0.37201006402E+02  0.10500000000E+00 0.  1.
         13    1    4    4    0    0 -0.15932646900E+02 -0.27450490358E+01  0.84434257738E+01  0.18239709297E+02  0.10500000000E+00 0. -1.
    3000001    1    5    5    0    0  0.11153153691E+02 -0.15707225460E+01 -0.74670352421E+01  0.13550521092E+02  0.10000000000E+01 0. -1.
        -13    1    6    6    0    0  0.26373354478E+02  0.80352141271E+01 -0.15033999256E+02  0.31403035699E+02  0.10500000000E+00 0. -1.
         13    1    6    6    0    0  0.14688485515E+02  0.45031475480E+01 -0.84756536179E+01  0.17546443338E+02  0.10500000000E+00 0.  1.
</event>
<event>
11    0  0.3448258E-009  0.9118800E+02  0.7816531E-02  0.1126479E+00
         25   -1    0    0    0    0  0.00000000000E+00  0.00000000000E+00  0.99999998245E-14  0.12500000000E+03  0.12500000000E+03 0.  0.
    3000001    1    3    3    0    0 -0.32394216349E+02 -0.42410039436E+01 -0.29988961009E+02  0.44358867769E+02  0.10000000000E+01 0. -1.
    1000022    2    1    0    0    0 -0.49038023663E+02 -0.62875745126E+01 -0.36905130445E+02  0.62499999679E+02  0.99999974315E+01 0.  0.
    3000022    2    3    3    0    0 -0.16643807314E+02 -0.20465705690E+01 -0.69161694362E+01  0.18141131910E+02  0.24998861858E+00 0.  0.
    1000022    2    1    0    0    0  0.49038023663E+02  0.62875745126E+01  0.36905130445E+02  0.62500000321E+02  0.10000001447E+02 0.  0.
    3000022    2    5    5    0    0  0.10547808329E+01 -0.90059925715E+00 -0.18341116637E+00  0.14211876812E+01  0.24998628313E+00 0.  0.
        -13    1    4    4    0    0 -0.90271274359E+01 -0.11418902831E+01 -0.38165154100E+01  0.98676115670E+01  0.10500000000E+00 0.  1.
         13    1    4    4    0    0 -0.76166798777E+01 -0.90468028584E+00 -0.30996540262E+01  0.82735203426E+01  0.10500000000E+00 0. -1.
    3000001    1    5    5    0    0  0.47983242830E+02  0.71881737698E+01  0.37088541612E+02  0.61078812640E+02  0.10000000000E+01 0. -1.
        -13    1    6    6    0    0  0.73604915567E+00 -0.66072258891E+00 -0.93847558767E-01  0.99907710581E+00  0.10500000000E+00 0.  1.
         13    1    6    6    0    0  0.31873167723E+00 -0.23987666824E+00 -0.89563607598E-01  0.42211057537E+00  0.10500000000E+00 0. -1.
</event>
<event>
11    0  0.3448258E-009  0.9118800E+02  0.7816531E-02  0.1126479E+00
         25   -1    0    0    0    0  0.00000000000E+00  0.00000000000E+00  0.99999998245E-14  0.12500000000E+03  0.12500000000E+03 0.  0.
    3000001    1    3    3    0    0 -0.28981856760E+02 -0.36940101232E+02  0.29969404580E+02  0.55710719894E+02  0.10000000000E+01 0.  1.
    1000022    2    1    0    0    0 -0.29671383572E+02 -0.43145985603E+02  0.32623350980E+02  0.62499999477E+02  0.99999914404E+01 0.  0.
    3000022    2    3    3    0    0 -0.68952681200E+00 -0.62058843707E+01  0.26539464001E+01  0.67892795830E+01  0.24987539712E+00 0.  0.
    1000022    2    1    0    0    0  0.29671383572E+02  0.43145985603E+02 -0.32623350980E+02  0.62500000523E+02  0.99999979740E+01 0.  0.
    3000022    2    5    5    0    0  0.13852249252E+02  0.21939856833E+02 -0.21828419922E+02  0.33908473027E+02  0.24999901702E+00 0.  0.
        -13    1    4    4    0    0 -0.54275410779E+00 -0.46338590624E+01  0.19790239252E+01  0.50690031098E+01  0.10500000000E+00 0. -1.
         13    1    4    4    0    0 -0.14677270421E+00 -0.15720253083E+01  0.67492247496E+00  0.17202764731E+01  0.10500000000E+00 0.  1.
    3000001    1    5    5    0    0  0.15819134319E+02  0.21206128769E+02 -0.10794931058E+02  0.28591527496E+02  0.10000000000E+01 0. -1.
        -13    1    6    6    0    0  0.52150460494E+01  0.83602033385E+01 -0.83270644788E+01  0.12901191146E+02  0.10500000000E+00 0. -1.
         13    1    6    6    0    0  0.86372032029E+01  0.13579653495E+02 -0.13501355443E+02  0.21007281880E+02  0.10500000000E+00 0.  1.
</event>
<event>
11    0  0.3448258E-009  0.9118800E+02  0.7816531E-02  0.1126479E+00
         25   -1    0    0    0    0  0.00000000000E+00  0.00000000000E+00  0.99999998245E-14  0.12500000000E+03  0.12500000000E+03 0.  0.
    3000001    1    3    3    0    0  0.24677626518E+01  0.71951170102E+01  0.11020726364E+02  0.13428178241E+02  0.10000000000E+01 0. -1.
    1000022    2    1    0    0    0  0.25194921661E+02  0.20872153639E+02  0.52305059639E+02  0.62500000628E+02  0.99999969823E+01 0.  0.
    3000022    2    3    3    0    0  0.22727159010E+02  0.13677036629E+02  0.41284333275E+02  0.49071822387E+02  0.24998161207E+00 0.  0.
    1000022    2    1    0    0    0 -0.25194921661E+02 -0.20872153639E+02 -0.52305059639E+02  0.62499999372E+02  0.99999891269E+01 0.  0.
    3000022    2    5    5    0    0 -0.13683830069E+02 -0.50021788696E+01 -0.23008284365E+02  0.27234401825E+02  0.24998912079E+00 0.  0.
        -13    1    4    4    0    0  0.10472426525E+02  0.62292498115E+01  0.19009678991E+02  0.22579951083E+02  0.10500000000E+00 0.  1.
         13    1    4    4    0    0  0.12254732485E+02  0.74477868174E+01  0.22274654284E+02  0.26491871304E+02  0.10500000000E+00 0. -1.
    3000001    1    5    5    0    0 -0.11511091592E+02 -0.15869974769E+02 -0.29296775274E+02  0.35265597546E+02  0.10000000000E+01 0.  1.
        -13    1    6    6    0    0 -0.55278230234E+01 -0.20814574004E+01 -0.92758040486E+01  0.10997311400E+02  0.10500000000E+00 0.  1.
         13    1    6    6    0    0 -0.81560070458E+01 -0.29207214692E+01 -0.13732480316E+02  0.16237090425E+02  0.10500000000E+00 0. -1.
</event>
<event>
11    0  0.3448258E-009  0.9118800E+02  0.7816531E-02  0.1126479E+00
         25   -1    0    0    0    0  0.00000000000E+00  0.00000000000E+00  0.99999998245E-14  0.12500000000E+03  0.12500000000E+03 0.  0.
    3000001    1    3    3    0    0  0.12069133514E+02 -0.15029204552E+02 -0.68762659351E+01  0.20489607279E+02  0.10000000000E+01 0. -1.
    1000022    2    1    0    0    0  0.44668691496E+02 -0.41318611134E+02 -0.10184815844E+02  0.62499999761E+02  0.99999935146E+01 0.  0.
    3000022    2    3    3    0    0  0.32599557982E+02 -0.26289406582E+02 -0.33085499086E+01  0.42010392482E+02  0.24998978238E+00 0.  0.
    1000022    2    1    0    0    0 -0.44668691496E+02  0.41318611134E+02  0.10184815844E+02  0.62500000239E+02  0.99999965026E+01 0.  0.
    3000022    2    5    5    0    0 -0.97286417083E+01  0.52507949607E+01 -0.79809720608E+00  0.11086783828E+02  0.24999855976E+00 0.  0.
        -13    1    4    4    0    0  0.14115214233E+02 -0.11311001015E+02 -0.13947124032E+01  0.18142057890E+02  0.10500000000E+00 0. -1.
         13    1    4    4    0    0  0.18484343749E+02 -0.14978405568E+02 -0.19138375054E+01  0.23868334592E+02  0.10500000000E+00 0.  1.
    3000001    1    5    5    0    0 -0.34940049788E+02  0.36067816174E+02  0.10982913050E+02  0.51413216412E+02  0.10000000000E+01 0.  1.
        -13    1    6    6    0    0 -0.28617473084E+01  0.15013573010E+01 -0.25486761688E+00  0.32434015947E+01  0.10500000000E+00 0.  1.
         13    1    6    6    0    0 -0.68668943999E+01  0.37494376597E+01 -0.54322958921E+00  0.78433822328E+01  0.10500000000E+00 0. -1.
</event>
<event>
11    0  0.3448258E-009  0.9118800E+02  0.7816531E-02  0.1126479E+00
         25   -1    0    0    0    0  0.00000000000E+00  0.00000000000E+00  0.99999998245E-14  0.12500000000E+03  0.12500000000E+03 0.  0.
    3000001    1    3    3    0    0  0.40694248880E+02  0.58619340947E+01  0.22456386786E+02  0.46858013944E+02  0.10000000000E+01 0. -1.
    1000022    2    1    0    0    0  0.56024797460E+02  0.48391431685E+01  0.25378246816E+02  0.62499995588E+02  0.99999399944E+01 0.  0.
    3000022    2    3    3    0    0  0.15330548580E+02 -0.10227909262E+01  0.29218600302E+01  0.15641981644E+02  0.25000533053E+00 0.  0.
    1000022    2    1    0    0    0 -0.56024797460E+02 -0.48391431685E+01 -0.25378246816E+02  0.62500004412E+02  0.99999951503E+01 0.  0.
    3000022    2    5    5    0    0 -0.37913211673E+02 -0.19930345920E+01 -0.21843848837E+02  0.43801826885E+02  0.25000046380E+00 0.  0.
        -13    1    4    4    0    0  0.85056251950E+01 -0.50224382908E+00  0.16339015953E+01  0.86763222765E+01  0.10500000000E+00 0.  1.
         13    1    4    4    0    0  0.68249233850E+01 -0.52054709708E+00  0.12879584349E+01  0.69656593673E+01  0.10500000000E+00 0. -1.
    3000001    1    5    5    0    0 -0.18111585787E+02 -0.28461085765E+01 -0.35343979796E+01  0.18698177527E+02  0.10000000000E+01 0.  1.
        -13    1    6    6    0    0 -0.14035752169E+02 -0.68141456848E+00 -0.81074052770E+01  0.16223677453E+02  0.10500000000E+00 0. -1.
         13    1    6    6    0    0 -0.23877459504E+02 -0.13116200235E+01 -0.13736443560E+02  0.27578149432E+02  0.10500000000E+00 0.  1.
</event>
<event>
11    0  0.3448258E-009  0.9118800E+02  0.7816531E-02  0.1126479E+00
         25   -1    0    0    0    0  0.00000000000E+00  0.00000000000E+00  0.99999998245E-14  0.12500000000E+03  0.12500000000E+03 0.  0.
    3000001    1    3    3    0    0 -0.20135114722E+02 -0.35055465880E+02 -0.20193395202E+02  0.45200461753E+02  0.10000000000E+01 0. -1.
    1000022    2    1    0    0    0 -0.22430964447E+02 -0.48511802148E+02 -0.30817312977E+02  0.62500000780E+02  0.10000010236E+02 0.  0.
    3000022    2    3    3    0    0 -0.22958497251E+01 -0.13456336269E+02 -0.10623917775E+02  0.17299539027E+02  0.25001985300E+00 0.  0.
    1000022    2    1    0    0    0  0.22430964447E+02  0.48511802148E+02  0.30817312977E+02  0.62499999220E+02  0.10000000480E+02 0.  0.
    3000022    2    5    5    0    0  0.21400193962E+02  0.36944511235E+02  0.23467306916E+02  0.48720039279E+02  0.25004293665E+00 0.  0.
        -13    1    4    4    0    0 -0.92583297196E+00 -0.58167476491E+01 -0.45840238127E+01  0.74643163934E+01  0.10500000000E+00 0. -1.
         13    1    4    4    0    0 -0.13700167532E+01 -0.76395886197E+01 -0.60398939627E+01  0.98352226341E+01  0.10500000000E+00 0.  1.
    3000001    1    5    5    0    0  0.10307704859E+01  0.11567290914E+02  0.73500060606E+01  0.13779959941E+02  0.10000000000E+01 0. -1.
        -13    1    6    6    0    0  0.14535591030E+02  0.25038792805E+02  0.15962634716E+02  0.33061174870E+02  0.10500000000E+00 0.  1.
         13    1    6    6    0    0  0.68646029317E+01  0.11905718430E+02  0.75046722009E+01  0.15658864409E+02  0.10500000000E+00 0. -1.
</event>
<event>
11    0  0.3448258E-009  0.9118800E+02  0.7816531E-02  0.1126479E+00
         25   -1    0    0    0    0  0.00000000000E+00  0.00000000000E+00  0.99999998245E-14  0.12500000000E+03  0.12500000000E+03 0.  0.
    3000001    1    3    3    0    0 -0.80785716832E+01 -0.76087183207E+01 -0.19317967581E+01  0.11308746776E+02  0.10000000000E+01 0. -1.
    1000022    2    1    0    0    0 -0.51329207792E+02 -0.26155613526E+02 -0.22078187237E+02  0.62499999833E+02  0.99999968010E+01 0.  0.
    3000022    2    3    3    0    0 -0.43250636109E+02 -0.18546895205E+02 -0.20146390479E+02  0.51191253058E+02  0.24998940670E+00 0.  0.
    1000022    2    1    0    0    0  0.51329207792E+02  0.26155613526E+02  0.22078187237E+02  0.62500000167E+02  0.99999988847E+01 0.  0.
    3000022    2    5    5    0    0  0.76390157709E+00  0.20544664903E+00 -0.86663488706E+00  0.11997047690E+01  0.24996311749E+00 0.  0.
        -13    1    4    4    0    0 -0.24385075687E+02 -0.10405371794E+02 -0.11399886455E+02  0.28859523812E+02  0.10500000000E+00 0.  1.
         13    1    4    4    0    0 -0.18865560421E+02 -0.81415234117E+01 -0.87465040237E+01  0.22331729246E+02  0.10500000000E+00 0. -1.
    3000001    1    5    5    0    0  0.50565306215E+02  0.25950166877E+02  0.22944822124E+02  0.61300295398E+02  0.10000000000E+01 0. -1.
        -13    1    6    6    0    0  0.44254983459E+00  0.54517214826E-01 -0.44605972101E+00  0.63938779900E+00  0.10500000000E+00 0.  1.
         13    1    6    6    0    0  0.32135174250E+00  0.15092943420E+00 -0.42057516605E+00  0.56031696995E+00  0.10500000000E+00 0. -1.
</event>
<event>
11    0  0.3448258E-009  0.9118800E+02  0.7816531E-02  0.1126479E+00
         25   -1    0    0    0    0  0.00000000000E+00  0.00000000000E+00  0.99999998245E-14  0.12500000000E+03  0.12500000000E+03 0.  0.
    3000001    1    3    3    0    0  0.32286230034E+02 -0.13503333506E+01  0.34848846085E+02  0.47535945593E+02  0.10000000000E+01 0. -1.
    1000022    2    1    0    0    0  0.45727439920E+02 -0.23047712866E+01  0.41351412139E+02  0.62500000490E+02  0.10000002155E+02 0.  0.
    3000022    2    3    3    0    0  0.13441209885E+02 -0.95443793592E+00  0.65025660541E+01  0.14964054897E+02  0.24999744685E+00 0.  0.
    1000022    2    1    0    0    0 -0.45727439920E+02  0.23047712866E+01 -0.41351412139E+02  0.62499999510E+02  0.99999960309E+01 0.  0.
    3000022    2    5    5    0    0 -0.10126734028E+02  0.20225795503E+01 -0.45533684868E+01  0.11288810218E+02  0.25000287710E+00 0.  0.
        -13    1    4    4    0    0  0.33063188243E+01 -0.22031294164E+00  0.16206027289E+01  0.36902113985E+01  0.10500000000E+00 0. -1.
         13    1    4    4    0    0  0.10134891061E+02 -0.73412499429E+00  0.48819633252E+01  0.11273843499E+02  0.10500000000E+00 0.  1.
    3000001    1    5    5    0    0 -0.35600705891E+02  0.28219173625E+00 -0.36798043652E+02  0.51211189292E+02  0.10000000000E+01 0.  1.
        -13    1    6    6    0    0 -0.62450907459E+01  0.12848181055E+01 -0.27575703261E+01  0.69474552962E+01  0.10500000000E+00 0. -1.
         13    1    6    6    0    0 -0.38816432822E+01  0.73776144478E+00 -0.17957981607E+01  0.43413549214E+01  0.10500000000E+00 0.  1.
</event>
<event>
11    0  0.3448258E-009  0.9118800E+02  0.7816531E-02  0.1126479E+00
         25   -1    0    0    0    0  0.00000000000E+00  0.00000000000E+00  0.99999998245E-14  0.12500000000E+03  0.12500000000E+03 0.  0.
    3000001    1    3    3    0    0 -0.17834364779E+02 -0.50914820664E+02  0.24009690976E+02  0.59058012082E+02  0.10000000000E+01 0. -1.
    1000022    2    1    0    0    0 -0.16801892054E+02 -0.53184859980E+02  0.26368865938E+02  0.62500000172E+02  0.10000001148E+02 0.  0.
    3000022    2    3    3    0    0  0.10324727246E+01 -0.22700393156E+01  0.23591749621E+01  0.34419880898E+01  0.24999417327E+00 0.  0.
    1000022    2    1    0    0    0  0.16801892054E+02  0.53184859980E+02 -0.26368865938E+02  0.62499999828E+02  0.99999989980E+01 0.  0.
    3000022    2    5    5    0    0 -0.12611768640E+01  0.49024445000E+01 -0.17324728425E+01  0.53561640443E+01  0.25000392321E+00 0.  0.
        -13    1    4    4    0    0  0.40483823499E+00 -0.10178300125E+01  0.98205960346E+00  0.14749027071E+01  0.10500000000E+00 0. -1.
         13    1    4    4    0    0  0.62763448965E+00 -0.12522093031E+01  0.13771153587E+01  0.19670853826E+01  0.10500000000E+00 0.  1.
    3000001    1    5    5    0    0  0.18063068918E+02  0.48282415480E+02 -0.24636393096E+02  0.57143835784E+02  0.10000000000E+01 0. -1.
        -13    1    6    6    0    0 -0.73528088081E+00  0.28403002917E+01 -0.10721615287E+01  0.31254598164E+01  0.10500000000E+00 0. -1.
         13    1    6    6    0    0 -0.52589598318E+00  0.20621442083E+01 -0.66031131381E+00  0.22307042279E+01  0.10500000000E+00 0.  1.
</event>
<event>
11    0  0.3448258E-009  0.9118800E+02  0.7816531E-02  0.1126479E+00
         25   -1    0    0    0    0  0.00000000000E+00  0.00000000000E+00  0.99999998245E-14  0.12500000000E+03  0.12500000000E+03 0.  0.
    3000001    1    3    3    0    0  0.76439143560E+00 -0.27332239547E+01  0.22578835647E+00  0.30175797977E+01  0.10000000000E+01 0. -1.
    1000022    2    1    0    0    0  0.47613621546E+02 -0.38020711080E+02 -0.96756646413E+01  0.62500000562E+02  0.10000007811E+02 0.  0.
    3000022    2    3    3    0    0  0.46849230110E+02 -0.35287487125E+02 -0.99014529978E+01  0.59482420764E+02  0.24999786571E+00 0.  0.
    1000022    2    1    0    0    0 -0.47613621546E+02  0.38020711080E+02  0.96756646413E+01  0.62499999438E+02  0.10000000789E+02 0.  0.
    3000022    2    5    5    0    0 -0.20534610932E+02  0.22703366954E+02  0.43574213590E+01  0.30921881088E+02  0.24998393751E+00 0.  0.
        -13    1    4    4    0    0  0.15608737711E+02 -0.11728613036E+02 -0.32468723368E+01  0.19792580975E+02  0.10500000000E+00 0. -1.
         13    1    4    4    0    0  0.31240492399E+02 -0.23558874090E+02 -0.66545806609E+01  0.39689839789E+02  0.10500000000E+00 0.  1.
    3000001    1    5    5    0    0 -0.27079010614E+02  0.15317344126E+02  0.53182432823E+01  0.31578118350E+02  0.10000000000E+01 0. -1.
        -13    1    6    6    0    0 -0.62391126395E+01  0.68996820283E+01  0.12768582143E+01  0.93900761721E+01  0.10500000000E+00 0. -1.
         13    1    6    6    0    0 -0.14295498292E+02  0.15803684926E+02  0.30805631447E+01  0.21531804916E+02  0.10500000000E+00 0.  1.
</event>
<event>
11    0  0.3448258E-009  0.9118800E+02  0.7816531E-02  0.1126479E+00
         25   -1    0    0    0    0  0.00000000000E+00  0.00000000000E+00  0.99999998245E-14  0.12500000000E+03  0.12500000000E+03 0.  0.
    3000001    1    3    3    0    0 -0.14447799123E+01  0.17761281559E+02  0.41432609859E+01  0.18322585058E+02  0.10000000000E+01 0.  1.
    1000022    2    1    0    0    0  0.10079880263E+02  0.58697944090E+02  0.16099589181E+02  0.62500004829E+02  0.10000060267E+02 0.  0.
    3000022    2    3    3    0    0  0.11524660175E+02  0.40936662531E+02  0.11956328195E+02  0.44177419771E+02  0.25000477184E+00 0.  0.
    1000022    2    1    0    0    0 -0.10079880263E+02 -0.58697944090E+02 -0.16099589181E+02  0.62499995171E+02  0.99999998998E+01 0.  0.
    3000022    2    5    5    0    0 -0.59296510641E+01 -0.33030746739E+02 -0.39760085837E+01  0.33794409847E+02  0.25000154647E+00 0.  0.
        -13    1    4    4    0    0  0.57414503812E+01  0.20373029236E+02  0.58805805762E+01  0.21968541728E+02  0.10500000000E+00 0.  1.
         13    1    4    4    0    0  0.57832097941E+01  0.20563633294E+02  0.60757476190E+01  0.22208878043E+02  0.10500000000E+00 0. -1.
    3000001    1    5    5    0    0 -0.41502291989E+01 -0.25667197351E+02 -0.12123580597E+02  0.28705585323E+02  0.10000000000E+01 0. -1.
        -13    1    6    6    0    0 -0.16854645703E+01 -0.92141890273E+01 -0.10851871227E+01  0.94303089207E+01  0.10500000000E+00 0.  1.
         13    1    6    6    0    0 -0.42441864938E+01 -0.23816557712E+02 -0.28908214610E+01  0.24364100927E+02  0.10500000000E+00 0. -1.
</event>
<event>
11    0  0.3448258E-009  0.9118800E+02  0.7816531E-02  0.1126479E+00
         25   -1    0    0    0    0  0.00000000000E+00  0.00000000000E+00  0.99999998245E-14  0.12500000000E+03  0.12500000000E+03 0.  0.
    3000001    1    3    3    0    0  0.39381609926E+02  0.14096846110E+02 -0.12470016959E+01  0.41859136205E+02  0.10000000000E+01 0.  1.
    1000022    2    1    0    0    0  0.59606992181E+02  0.15710651376E+02  0.25361698921E+01  0.62500001818E+02  0.99999993001E+01 0.  0.
    3000022    2    3    3    0    0  0.20225382255E+02  0.16138052666E+01  0.37831715880E+01  0.20640865613E+02  0.24998238079E+00 0.  0.
    1000022    2    1    0    0    0 -0.59606992181E+02 -0.15710651376E+02 -0.25361698921E+01  0.62499998182E+02  0.99999765754E+01 0.  0.
    3000022    2    5    5    0    0 -0.25999409753E+02 -0.30581694584E+01 -0.43085235046E+01  0.26532010572E+02  0.25000460655E+00 0.  0.
        -13    1    4    4    0    0  0.52646899102E+01  0.44515605236E+00  0.10052525857E+01  0.53792826215E+01  0.10500000000E+00 0.  1.
         13    1    4    4    0    0  0.14960692345E+02  0.11686492142E+01  0.27779190023E+01  0.15261582991E+02  0.10500000000E+00 0. -1.
    3000001    1    5    5    0    0 -0.33607582428E+02 -0.12652481918E+02  0.17723536125E+01  0.35967987610E+02  0.10000000000E+01 0. -1.
        -13    1    6    6    0    0 -0.16931569097E+02 -0.19358005109E+01 -0.27941556023E+01  0.17269733242E+02  0.10500000000E+00 0. -1.
         13    1    6    6    0    0 -0.90678406556E+01 -0.11223689474E+01 -0.15143679023E+01  0.92622773309E+01  0.10500000000E+00 0.  1.
</event>
<event>
11    0  0.3448258E-009  0.9118800E+02  0.7816531E-02  0.1126479E+00
         25   -1    0    0    0    0  0.00000000000E+00  0.00000000000E+00  0.99999998245E-14  0.12500000000E+03  0.12500000000E+03 0.  0.
    3000001    1    3    3    0    0  0.36232918748E+02  0.29873995242E+02 -0.13537814960E+02  0.48883048459E+02  0.10000000000E+01 0.  1.
    1000022    2    1    0    0    0  0.42967334130E+02  0.41593874921E+02 -0.15166047970E+02  0.62500009064E+02  0.99999944388E+01 0.  0.
    3000022    2    3    3    0    0  0.67344153822E+01  0.11719879679E+02 -0.16282330093E+01  0.13616960605E+02  0.25008630252E+00 0.  0.
    1000022    2    1    0    0    0 -0.42967334130E+02 -0.41593874921E+02  0.15166047970E+02  0.62499990936E+02  0.99998811332E+01 0.  0.
    3000022    2    5    5    0    0 -0.18369971940E+02 -0.21168889647E+02  0.26625676550E+01  0.28155453231E+02  0.25004429047E+00 0.  0.
        -13    1    4    4    0    0  0.25987494708E+01  0.44009621846E+01 -0.61874611255E+00  0.51493532327E+01  0.10500000000E+00 0.  1.
         13    1    4    4    0    0  0.41356659114E+01  0.73189174948E+01 -0.10094868968E+01  0.84676073728E+01  0.10500000000E+00 0. -1.
    3000001    1    5    5    0    0 -0.24597362190E+02 -0.20424985275E+02  0.12503480315E+02  0.34344537705E+02  0.10000000000E+01 0.  1.
        -13    1    6    6    0    0 -0.96694740756E+01 -0.11239125863E+02  0.14322545409E+01  0.14895605296E+02  0.10500000000E+00 0. -1.
         13    1    6    6    0    0 -0.87004978649E+01 -0.99297637834E+01  0.12303131141E+01  0.13259847935E+02  0.10500000000E+00 0.  1.
</event>
<event>
11    0  0.3448258E-009  0.9118800E+02  0.7816531E-02  0.1126479E+00
         25   -1    0    0    0    0  0.00000000000E+00  0.00000000000E+00  0.99999998245E-14  0.12500000000E+03  0.12500000000E+03 0.  0.
    3000001    1    3    3    0    0 -0.19794453273E+02  0.32423705565E+01 -0.21764196478E+02  0.29614415334E+02  0.10000000000E+01 0.  1.
    1000022    2    1    0    0    0 -0.36496504505E+02  0.15738512360E+02 -0.47186376428E+02  0.62500001970E+02  0.10000025674E+02 0.  0.
    3000022    2    3    3    0    0 -0.16702051232E+02  0.12496141803E+02 -0.25422179950E+02  0.32885586637E+02  0.24999942457E+00 0.  0.
    1000022    2    1    0    0    0  0.36496504505E+02 -0.15738512360E+02  0.47186376428E+02  0.62499998030E+02  0.10000001046E+02 0.  0.
    3000022    2    5    5    0    0  0.17011976159E+02 -0.78570165923E+01  0.14807031480E+02  0.23884110112E+02  0.24998405631E+00 0.  0.
        -13    1    4    4    0    0 -0.11035612900E+02  0.82699323435E+01 -0.16722057205E+02  0.21675210615E+02  0.10500000000E+00 0. -1.
         13    1    4    4    0    0 -0.56664383319E+01  0.42262094598E+01 -0.87001227446E+01  0.11210376021E+02  0.10500000000E+00 0.  1.
    3000001    1    5    5    0    0  0.19484528346E+02 -0.78814957675E+01  0.32379344948E+02  0.38615887918E+02  0.10000000000E+01 0. -1.
        -13    1    6    6    0    0  0.11324043345E+02 -0.52388850443E+01  0.97911980270E+01  0.15860594503E+02  0.10500000000E+00 0.  1.
         13    1    6    6    0    0  0.56879328136E+01 -0.26181315480E+01  0.50158334528E+01  0.80235156085E+01  0.10500000000E+00 0. -1.
</event>
<event>
11    0  0.3448258E-009  0.9118800E+02  0.7816531E-02  0.1126479E+00
         25   -1    0    0    0    0  0.00000000000E+00  0.00000000000E+00  0.99999998245E-14  0.12500000000E+03  0.12500000000E+03 0.  0.
    3000001    1    3    3    0    0  0.77212296447E+01  0.10141634822E+02 -0.20684257036E+02  0.24316838471E+02  0.10000000000E+01 0. -1.
    1000022    2    1    0    0    0  0.28504501616E+02  0.30411956699E+02 -0.45484684659E+02  0.62500002820E+02  0.10000004573E+02 0.  0.
    3000022    2    3    3    0    0  0.20783271971E+02  0.20270321877E+02 -0.24800427623E+02  0.38183164350E+02  0.24997333949E+00 0.  0.
    1000022    2    1    0    0    0 -0.28504501616E+02 -0.30411956699E+02  0.45484684659E+02  0.62499997180E+02  0.99999693174E+01 0.  0.
    3000022    2    5    5    0    0 -0.30517662369E+01 -0.75545379975E+01  0.53309031130E+01  0.97398844015E+01  0.24999726653E+00 0.  0.
        -13    1    4    4    0    0  0.12696313543E+02  0.12386249294E+02 -0.15233421682E+02  0.23381268364E+02  0.10500000000E+00 0.  1.
         13    1    4    4    0    0  0.80869584281E+01  0.78840725830E+01 -0.95670059402E+01  0.14801895986E+02  0.10500000000E+00 0. -1.
    3000001    1    5    5    0    0 -0.25452735379E+02 -0.22857418702E+02  0.40153781546E+02  0.52760112778E+02  0.10000000000E+01 0.  1.
        -13    1    6    6    0    0 -0.16700157828E+01 -0.42080339387E+01  0.30338971432E+01  0.54508769220E+01  0.10500000000E+00 0. -1.
         13    1    6    6    0    0 -0.13817504540E+01 -0.33465040589E+01  0.22970059698E+01  0.42890074794E+01  0.10500000000E+00 0.  1.
</event>
<event>
11    0  0.3448258E-009  0.9118800E+02  0.7816531E-02  0.1126479E+00
         25   -1    0    0    0    0  0.00000000000E+00  0.00000000000E+00  0.99999998245E-14  0.12500000000E+03  0.12500000000E+03 0.  0.
    3000001    1    3    3    0    0  0.51901633573E+01  0.39815082035E+02  0.31853919851E+02  0.51262566879E+02  0.10000000000E+01 0. -1.
    1000022    2    1    0    0    0  0.10559334167E+02  0.46632640537E+02  0.38989075550E+02  0.62500006193E+02  0.10000003024E+02 0.  0.
    3000022    2    3    3    0    0  0.53691708100E+01  0.68175585014E+01  0.71351556989E+01  0.11237439315E+02  0.24999278463E+00 0.  0.
    1000022    2    1    0    0    0 -0.10559334167E+02 -0.46632640537E+02 -0.38989075550E+02  0.62499993807E+02  0.99999256055E+01 0.  0.
    3000022    2    5    5    0    0 -0.19366945418E+01 -0.43966213324E+01 -0.82353386281E+01  0.95375206111E+01  0.24986435952E+00 0.  0.
        -13    1    4    4    0    0  0.21860174677E+01  0.27922309431E+01  0.28346388507E+01  0.45410822964E+01  0.10500000000E+00 0.  1.
         13    1    4    4    0    0  0.31831533423E+01  0.40253275583E+01  0.43005168483E+01  0.66963570181E+01  0.10500000000E+00 0. -1.
    3000001    1    5    5    0    0 -0.86226396254E+01 -0.42236019204E+02 -0.30753736922E+02  0.52962473195E+02  0.10000000000E+01 0. -1.
        -13    1    6    6    0    0 -0.64594110377E+00 -0.15971610259E+01 -0.29082262667E+01  0.33818587006E+01  0.10500000000E+00 0.  1.
         13    1    6    6    0    0 -0.12907534381E+01 -0.27994603065E+01 -0.53271123614E+01  0.61556619105E+01  0.10500000000E+00 0. -1.
</event>
<event>
11    0  0.3448258E-009  0.9118800E+02  0.7816531E-02  0.1126479E+00
         25   -1    0    0    0    0  0.00000000000E+00  0.00000000000E+00  0.99999998245E-14  0.12500000000E+03  0.12500000000E+03 0.  0.
    3000001    1    3    3    0    0  0.20893726420E+01  0.37566467405E+02  0.34196294716E+01  0.37792840818E+02  0.10000000000E+01 0. -1.
    1000022    2    1    0    0    0 -0.41582300537E+01  0.61044947169E+02  0.79040266321E+01  0.62500002844E+02  0.10000013326E+02 0.  0.
    3000022    2    3    3    0    0 -0.62476026957E+01  0.23478479764E+02  0.44843971606E+01  0.24707162027E+02  0.24997212915E+00 0.  0.
    1000022    2    1    0    0    0  0.41582300537E+01 -0.61044947169E+02 -0.79040266321E+01  0.62499997156E+02  0.99999777722E+01 0.  0.
    3000022    2    5    5    0    0  0.35152279667E+00 -0.41287392528E+02 -0.13383928227E+01  0.41311331958E+02  0.25000558699E+00 0.  0.
        -13    1    4    4    0    0 -0.35100742155E+01  0.13146105950E+02  0.24452411577E+01  0.13825011825E+02  0.10500000000E+00 0.  1.
         13    1    4    4    0    0 -0.27375284801E+01  0.10332373814E+02  0.20391560029E+01  0.10882150202E+02  0.10500000000E+00 0. -1.
    3000001    1    5    5    0    0  0.38067072570E+01 -0.19757554641E+02 -0.65656338094E+01  0.21188665197E+02  0.10000000000E+01 0. -1.
        -13    1    6    6    0    0  0.23335384271E+00 -0.25800465128E+02 -0.89502647446E+00  0.25817252995E+02  0.10500000000E+00 0. -1.
         13    1    6    6    0    0  0.11816895396E+00 -0.15486927400E+02 -0.44336634829E+00  0.15494078963E+02  0.10500000000E+00 0.  1.
</event>
<event>
11    0  0.3448258E-009  0.9118800E+02  0.7816531E-02  0.1126479E+00
         25   -1    0    0    0    0  0.00000000000E+00  0.00000000000E+00  0.99999998245E-14  0.12500000000E+03  0.12500000000E+03 0.  0.
    3000001    1    3    3    0    0  0.44674112653E+01 -0.31247859305E+02 -0.86549193624E+01  0.32745902090E+02  0.10000000000E+01 0. -1.
    1000022    2    1    0    0    0  0.54031874752E+01 -0.60971381171E+02 -0.77166196614E+01  0.62499999890E+02  0.10000000524E+02 0.  0.
    3000022    2    3    3    0    0  0.93577620992E+00 -0.29723521866E+02  0.93829970099E+00  0.29754097799E+02  0.25000059815E+00 0.  0.
    1000022    2    1    0    0    0 -0.54031874752E+01  0.60971381171E+02  0.77166196614E+01  0.62500000110E+02  0.10000001901E+02 0.  0.
    3000022    2    5    5    0    0  0.12731868235E+00  0.36446700069E+02  0.80986071497E+01  0.37336685623E+02  0.24999928395E+00 0.  0.
        -13    1    4    4    0    0  0.30162685384E+00 -0.97306686695E+01  0.35931504614E+00  0.97425368266E+01  0.10500000000E+00 0.  1.
         13    1    4    4    0    0  0.63414935608E+00 -0.19992853196E+02  0.57898465485E+00  0.20011560973E+02  0.10500000000E+00 0. -1.
    3000001    1    5    5    0    0 -0.55305061576E+01  0.24524681102E+02 -0.38198748826E+00  0.25163314487E+02  0.10000000000E+01 0. -1.
        -13    1    6    6    0    0  0.12539016806E+00  0.26899143351E+02  0.59856724692E+01  0.27557556779E+02  0.10500000000E+00 0.  1.
         13    1    6    6    0    0  0.19285142924E-02  0.95475567175E+01  0.21129346804E+01  0.97791288445E+01  0.10500000000E+00 0. -1.
</event>
<event>
11    0  0.3448258E-009  0.9118800E+02  0.7816531E-02  0.1126479E+00
         25   -1    0    0    0    0  0.00000000000E+00  0.00000000000E+00  0.99999998245E-14  0.12500000000E+03  0.12500000000E+03 0.  0.
    3000001    1    3    3    0    0  0.14918822988E+02 -0.15185038984E+02 -0.22797594904E+02  0.31207162987E+02  0.10000000000E+01 0. -1.
    1000022    2    1    0    0    0  0.21376733684E+02 -0.28499043556E+02 -0.50369530999E+02  0.62499997488E+02  0.99999903175E+01 0.  0.
    3000022    2    3    3    0    0  0.64579106968E+01 -0.13314004572E+02 -0.27571936095E+02  0.31292834501E+02  0.25000558674E+00 0.  0.
    1000022    2    1    0    0    0 -0.21376733684E+02  0.28499043556E+02  0.50369530999E+02  0.62500002512E+02  0.10000021712E+02 0.  0.
    3000022    2    5    5    0    0 -0.20012628734E+02  0.24039293159E+02  0.37850424061E+02  0.49103055305E+02  0.25002853274E+00 0.  0.
        -13    1    4    4    0    0  0.46921091040E+01 -0.95996133198E+01 -0.19860958082E+02  0.22552985272E+02  0.10500000000E+00 0. -1.
         13    1    4    4    0    0  0.17658015928E+01 -0.37143912520E+01 -0.77109780129E+01  0.87398492295E+01  0.10500000000E+00 0.  1.
    3000001    1    5    5    0    0 -0.13641049500E+01  0.44597503975E+01  0.12519106939E+02  0.13396947207E+02  0.10000000000E+01 0. -1.
        -13    1    6    6    0    0 -0.11477856917E+02  0.13884160229E+02  0.21829723914E+02  0.28302985282E+02  0.10500000000E+00 0. -1.
         13    1    6    6    0    0 -0.85347718178E+01  0.10155132930E+02  0.16020700146E+02  0.20800070023E+02  0.10500000000E+00 0.  1.
</event>
<event>
11    0  0.3448258E-009  0.9118800E+02  0.7816531E-02  0.1126479E+00
         25   -1    0    0    0    0  0.00000000000E+00  0.00000000000E+00  0.99999998245E-14  0.12500000000E+03  0.12500000000E+03 0.  0.
    3000001    1    3    3    0    0  0.83285050000E+01 -0.21237829229E+02  0.61050581885E+01  0.23636436309E+02  0.10000000000E+01 0. -1.
    1000022    2    1    0    0    0  0.13209769479E+02 -0.59754747242E+02  0.78180671907E+01  0.62500000430E+02  0.10000002575E+02 0.  0.
    3000022    2    3    3    0    0  0.48812644790E+01 -0.38516918013E+02  0.17130090022E+01  0.38863564121E+02  0.25000043871E+00 0.  0.
    1000022    2    1    0    0    0 -0.13209769479E+02  0.59754747242E+02 -0.78180671907E+01  0.62499999570E+02  0.99999971955E+01 0.  0.
    3000022    2    5    5    0    0 -0.23879641027E+01  0.24652918877E+01  0.85866528309E+00  0.35468075198E+01  0.25000173338E+00 0.  0.
        -13    1    4    4    0    0  0.27451803800E+01 -0.21732713115E+02  0.90113979847E+00  0.21924185563E+02  0.10500000000E+00 0. -1.
         13    1    4    4    0    0  0.21360840989E+01 -0.16784204898E+02  0.81186920373E+00  0.16939378559E+02  0.10500000000E+00 0.  1.
    3000001    1    5    5    0    0 -0.10821805376E+02  0.57289455355E+02 -0.86767324738E+01  0.58953192050E+02  0.10000000000E+01 0. -1.
        -13    1    6    6    0    0 -0.11387294725E+01  0.11228017887E+01  0.34202991775E+00  0.16387184422E+01  0.10500000000E+00 0.  1.
         13    1    6    6    0    0 -0.12492346303E+01  0.13424900990E+01  0.51663536534E+00  0.19080890776E+01  0.10500000000E+00 0. -1.
</event>
<event>
11    0  0.3448258E-009  0.9118800E+02  0.7816531E-02  0.1126479E+00
         25   -1    0    0    0    0  0.00000000000E+00  0.00000000000E+00  0.99999998245E-14  0.12500000000E+03  0.12500000000E+03 0.  0.
    3000001    1    3    3    0    0  0.50749246280E+02 -0.31041632430E+02 -0.14213661192E+02  0.61172682681E+02  0.10000000000E+01 0. -1.
    1000022    2    1    0    0    0  0.51208151388E+02 -0.30768906616E+02 -0.15402906097E+02  0.62500000063E+02  0.10000005440E+02 0.  0.
    3000022    2    3    3    0    0  0.45890510794E+00  0.27272581407E+00 -0.11892449051E+01  0.13273173826E+01  0.24998944403E+00 0.  0.
    1000022    2    1    0    0    0 -0.51208151388E+02  0.30768906616E+02  0.15402906097E+02  0.62499999937E+02  0.10000004648E+02 0.  0.
    3000022    2    5    5    0    0 -0.34592475522E+02  0.16214607136E+02  0.12506404449E+02  0.40199819677E+02  0.25000498907E+00 0.  0.
        -13    1    4    4    0    0  0.11811827554E+00  0.39953741916E-01 -0.35670917871E+00  0.39219212981E+00  0.10500000000E+00 0. -1.
         13    1    4    4    0    0  0.34078683240E+00  0.23277207216E+00 -0.83253572638E+00  0.93512525280E+00  0.10500000000E+00 0.  1.
    3000001    1    5    5    0    0 -0.16615675866E+02  0.14554299479E+02  0.28965016480E+01  0.22300180260E+02  0.10000000000E+01 0.  1.
        -13    1    6    6    0    0 -0.16635351944E+02  0.78582609239E+01  0.59812239250E+01  0.19346143380E+02  0.10500000000E+00 0. -1.
         13    1    6    6    0    0 -0.17957123578E+02  0.83563462123E+01  0.65251805240E+01  0.20853676297E+02  0.10500000000E+00 0.  1.
</event>
<event>
11    0  0.3448258E-009  0.9118800E+02  0.7816531E-02  0.1126479E+00
         25   -1    0    0    0    0  0.00000000000E+00  0.00000000000E+00  0.99999998245E-14  0.12500000000E+03  0.12500000000E+03 0.  0.
    3000001    1    3    3    0    0 -0.14942009926E+02  0.21374900061E+01  0.15474246731E+02  0.21639889927E+02  0.10000000000E+01 0.  1.
    1000022    2    1    0    0    0 -0.51236525175E+02  0.33845621931E+01  0.34199606750E+02  0.62500000549E+02  0.10000009677E+02 0.  0.
    3000022    2    3    3    0    0 -0.36294515249E+02  0.12470721870E+01  0.18725360019E+02  0.40860110622E+02  0.25001208643E+00 0.  0.
    1000022    2    1    0    0    0  0.51236525175E+02 -0.33845621931E+01 -0.34199606750E+02  0.62499999451E+02  0.10000002811E+02 0.  0.
    3000022    2    5    5    0    0  0.20648123764E+02 -0.44355999138E+01 -0.95057897866E+01  0.23161219889E+02  0.25001141849E+00 0.  0.
        -13    1    4    4    0    0 -0.26344906946E+02  0.89435159749E+00  0.13551188426E+02  0.29639495939E+02  0.10500000000E+00 0. -1.
         13    1    4    4    0    0 -0.99496083028E+01  0.35272058953E+00  0.51741715932E+01  0.11220614683E+02  0.10500000000E+00 0.  1.
    3000001    1    5    5    0    0  0.30588401411E+02  0.10510377207E+01 -0.24693816963E+02  0.39338779561E+02  0.10000000000E+01 0. -1.
        -13    1    6    6    0    0  0.13102122394E+02 -0.28242557835E+01 -0.59688226426E+01  0.14672419729E+02  0.10500000000E+00 0.  1.
         13    1    6    6    0    0  0.75460013701E+01 -0.16113441303E+01 -0.35369671439E+01  0.84888001603E+01  0.10500000000E+00 0. -1.
</event>
<event>
11    0  0.3448258E-009  0.9118800E+02  0.7816531E-02  0.1126479E+00
         25   -1    0    0    0    0  0.00000000000E+00  0.00000000000E+00  0.99999998245E-14  0.12500000000E+03  0.12500000000E+03 0.  0.
    3000001    1    3    3    0    0  0.17231607999E+02 -0.23747487331E+01  0.20404012499E+02  0.26830793351E+02  0.10000000000E+01 0.  1.
    1000022    2    1    0    0    0  0.47598224216E+02 -0.42201721000E+01  0.39023700600E+02  0.62499999221E+02  0.99999946476E+01 0.  0.
    3000022    2    3    3    0    0  0.30366616218E+02 -0.18454233669E+01  0.18619688102E+02  0.35669205870E+02  0.24998902075E+00 0.  0.
    1000022    2    1    0    0    0 -0.47598224216E+02  0.42201721000E+01 -0.39023700600E+02  0.62500000779E+02  0.10000004387E+02 0.  0.
    3000022    2    5    5    0    0 -0.12327775441E+02  0.12408149131E+00 -0.15874698606E+02  0.20101194093E+02  0.25000917064E+00 0.  0.
        -13    1    4    4    0    0  0.16527526634E+02 -0.10713247597E+01  0.10140763152E+02  0.19420426764E+02  0.10500000000E+00 0. -1.
         13    1    4    4    0    0  0.13839089583E+02 -0.77409860714E+00  0.84789249496E+01  0.16248779106E+02  0.10500000000E+00 0.  1.
    3000001    1    5    5    0    0 -0.35270448776E+02  0.40960906086E+01 -0.23149001994E+02  0.42398806686E+02  0.10000000000E+01 0.  1.
        -13    1    6    6    0    0 -0.75337983519E+01  0.17143018677E-01 -0.96678714450E+01  0.12257127509E+02  0.10500000000E+00 0. -1.
         13    1    6    6    0    0 -0.47939770889E+01  0.10693847263E+00 -0.62068271609E+01  0.78440665838E+01  0.10500000000E+00 0.  1.
</event>
<event>
11    0  0.3448258E-009  0.9118800E+02  0.7816531E-02  0.1126479E+00
         25   -1    0    0    0    0  0.00000000000E+00  0.00000000000E+00  0.99999998245E-14  0.12500000000E+03  0.12500000000E+03 0.  0.
    3000001    1    3    3    0    0  0.10777603747E+02 -0.38995189652E+02  0.16255244364E+02  0.43612091533E+02  0.10000000000E+01 0.  1.
    1000022    2    1    0    0    0  0.20968885510E+02 -0.52610548554E+02  0.24468062621E+02  0.62500000532E+02  0.99999999713E+01 0.  0.
    3000022    2    3    3    0    0  0.10191281763E+02 -0.13615358901E+02  0.82128182572E+01  0.18887908999E+02  0.25000128875E+00 0.  0.
    1000022    2    1    0    0    0 -0.20968885510E+02  0.52610548554E+02 -0.24468062621E+02  0.62499999468E+02  0.99999933242E+01 0.  0.
    3000022    2    5    5    0    0 -0.11361659355E+01  0.11645039232E+02 -0.75817273592E+01  0.13944278505E+02  0.25000306026E+00 0.  0.
        -13    1    4    4    0    0  0.38241891160E+01 -0.50165054222E+01  0.30706584319E+01  0.70163891890E+01  0.10500000000E+00 0. -1.
         13    1    4    4    0    0  0.63670926469E+01 -0.85988534788E+01  0.51421598253E+01  0.11871519810E+02  0.10500000000E+00 0.  1.
    3000001    1    5    5    0    0 -0.19832719574E+02  0.40965509321E+02 -0.16886335262E+02  0.48555720963E+02  0.10000000000E+01 0.  1.
        -13    1    6    6    0    0 -0.62071073466E+00  0.57248194336E+01 -0.37642359091E+01  0.68803587365E+01  0.10500000000E+00 0. -1.
         13    1    6    6    0    0 -0.51545520083E+00  0.59202197988E+01 -0.38174914501E+01  0.70639197689E+01  0.10500000000E+00 0.  1.
</event>
<event>
11    0  0.3448258E-009  0.9118800E+02  0.7816531E-02  0.1126479E+00
         25   -1    0    0    0    0  0.00000000000E+00  0.00000000000E+00  0.99999998245E-14  0.12500000000E+03  0.12500000000E+03 0.  0.
    3000001    1    3    3    0    0 -0.22132092672E+01 -0.27577238505E+02  0.23262254255E+02  0.36159851380E+02  0.10000000000E+01 0. -1.
    1000022    2    1    0    0    0 -0.16128503144E+01 -0.51939108786E+02  0.33256238698E+02  0.62499999044E+02  0.10000008031E+02 0.  0.
    3000022    2    3    3    0    0  0.60035895280E+00 -0.24361870281E+02  0.99939844428E+01  0.26340147664E+02  0.24999893506E+00 0.  0.
    1000022    2    1    0    0    0  0.16128503144E+01  0.51939108786E+02 -0.33256238698E+02  0.62500000956E+02  0.10000019979E+02 0.  0.
    3000022    2    5    5    0    0 -0.16376188473E+01  0.35977191714E+02 -0.27039117987E+02  0.45035724953E+02  0.25000281119E+00 0.  0.
        -13    1    4    4    0    0  0.16287418049E+00 -0.78572679937E+01  0.32675398026E+01  0.85118170613E+01  0.10500000000E+00 0. -1.
         13    1    4    4    0    0  0.43748477231E+00 -0.16504602287E+02  0.67264446402E+01  0.17828330603E+02  0.10500000000E+00 0.  1.
    3000001    1    5    5    0    0  0.32504691617E+01  0.15961917071E+02 -0.62171207106E+01  0.17464276003E+02  0.10000000000E+01 0.  1.
        -13    1    6    6    0    0 -0.11986698275E+01  0.26212699991E+02 -0.19745535221E+02  0.32839604692E+02  0.10500000000E+00 0. -1.
         13    1    6    6    0    0 -0.43894901982E+00  0.97644917236E+01 -0.72935827659E+01  0.12196120261E+02  0.10500000000E+00 0.  1.
</event>
<event>
11    0  0.3448258E-009  0.9118800E+02  0.7816531E-02  0.1126479E+00
         25   -1    0    0    0    0  0.00000000000E+00  0.00000000000E+00  0.99999998245E-14  0.12500000000E+03  0.12500000000E+03 0.  0.
    3000001    1    3    3    0    0  0.61147123225E+01 -0.43427370035E+02  0.11716170917E+02  0.45404788689E+02  0.10000000000E+01 0. -1.
    1000022    2    1    0    0    0  0.60444312441E+01 -0.57589525150E+02  0.21287592465E+02  0.62499998419E+02  0.99999826660E+01 0.  0.
    3000022    2    3    3    0    0 -0.70281078342E-01 -0.14162155115E+02  0.95714215478E+01  0.17095209730E+02  0.25001664698E+00 0.  0.
    1000022    2    1    0    0    0 -0.60444312441E+01  0.57589525150E+02 -0.21287592465E+02  0.62500001581E+02  0.10000002432E+02 0.  0.
    3000022    2    5    5    0    0 -0.55108073534E+01  0.51049357017E+02 -0.21925302644E+02  0.55831776335E+02  0.25000634758E+00 0.  0.
        -13    1    4    4    0    0 -0.54608130974E-01 -0.76941491284E+01  0.51216207935E+01  0.92436430811E+01  0.10500000000E+00 0.  1.
         13    1    4    4    0    0 -0.15672947369E-01 -0.64680059868E+01  0.44498007542E+01  0.78515666487E+01  0.10500000000E+00 0. -1.
    3000001    1    5    5    0    0 -0.53362389067E+00  0.65401681330E+01  0.63771017848E+00  0.66682252464E+01  0.10000000000E+01 0.  1.
        -13    1    6    6    0    0 -0.29448120271E+01  0.26649841485E+02 -0.11451776926E+02  0.29155448699E+02  0.10500000000E+00 0. -1.
         13    1    6    6    0    0 -0.25659953264E+01  0.24399515532E+02 -0.10473525717E+02  0.26676327636E+02  0.10500000000E+00 0.  1.
</event>
<event>
11    0  0.3448258E-009  0.9118800E+02  0.7816531E-02  0.1126479E+00
         25   -1    0    0    0    0  0.00000000000E+00  0.00000000000E+00  0.99999998245E-14  0.12500000000E+03  0.12500000000E+03 0.  0.
    3000001    1    3    3    0    0  0.26131586222E+02 -0.12776441662E+02 -0.36056092014E+02  0.46337231589E+02  0.10000000000E+01 0. -1.
    1000022    2    1    0    0    0  0.37258514528E+02 -0.20885979226E+02 -0.44517738142E+02  0.62500000158E+02  0.99999988759E+01 0.  0.
    3000022    2    3    3    0    0  0.11126928306E+02 -0.81095375644E+01 -0.84616461276E+01  0.16162768570E+02  0.24999922113E+00 0.  0.
    1000022    2    1    0    0    0 -0.37258514528E+02  0.20885979226E+02  0.44517738142E+02  0.62499999842E+02  0.99999968954E+01 0.  0.
    3000022    2    5    5    0    0 -0.15123678421E+02  0.13219131999E+02  0.24403872769E+02  0.31608268001E+02  0.25000023827E+00 0.  0.
        -13    1    4    4    0    0  0.42676809411E+01 -0.31768736956E+01 -0.33051292644E+01  0.62642263327E+01  0.10500000000E+00 0.  1.
         13    1    4    4    0    0  0.68592473648E+01 -0.49326638689E+01 -0.51565168632E+01  0.98985422369E+01  0.10500000000E+00 0. -1.
    3000001    1    5    5    0    0 -0.22134836107E+02  0.76668472276E+01  0.20113865372E+02  0.30891731840E+02  0.10000000000E+01 0. -1.
        -13    1    6    6    0    0 -0.62866299187E+01  0.54378879554E+01  0.10023636489E+02  0.13022160136E+02  0.10500000000E+00 0. -1.
         13    1    6    6    0    0 -0.88370485021E+01  0.77812440432E+01  0.14380236280E+02  0.18586107865E+02  0.10500000000E+00 0.  1.
</event>
<event>
11    0  0.3448258E-009  0.9118800E+02  0.7816531E-02  0.1126479E+00
         25   -1    0    0    0    0  0.00000000000E+00  0.00000000000E+00  0.99999998245E-14  0.12500000000E+03  0.12500000000E+03 0.  0.
    3000001    1    3    3    0    0  0.25349602880E+02 -0.53500383957E+01 -0.17486670032E+02  0.31273133930E+02  0.10000000000E+01 0.  1.
    1000022    2    1    0    0    0  0.54874979937E+02 -0.10892456644E+02 -0.26006554351E+02  0.62500000836E+02  0.10000010022E+02 0.  0.
    3000022    2    3    3    0    0  0.29525377057E+02 -0.55424182479E+01 -0.85198843186E+01  0.31226866905E+02  0.24999506747E+00 0.  0.
    1000022    2    1    0    0    0 -0.54874979937E+02  0.10892456644E+02  0.26006554351E+02  0.62499999164E+02  0.99999995772E+01 0.  0.
    3000022    2    5    5    0    0 -0.30422727689E+02  0.27207832386E+01  0.18144019217E+02  0.35527636550E+02  0.25000812682E+00 0.  0.
        -13    1    4    4    0    0  0.91493900787E+01 -0.16793057074E+01 -0.26066432216E+01  0.96611086504E+01  0.10500000000E+00 0.  1.
         13    1    4    4    0    0  0.20375986978E+02 -0.38631125406E+01 -0.59132410970E+01  0.21565758255E+02  0.10500000000E+00 0. -1.
    3000001    1    5    5    0    0 -0.24452252248E+02  0.81716734051E+01  0.78625351338E+01  0.26972362614E+02  0.10000000000E+01 0.  1.
        -13    1    6    6    0    0 -0.15003341492E+02  0.12894338317E+01  0.89955993155E+01  0.17541229363E+02  0.10500000000E+00 0.  1.
         13    1    6    6    0    0 -0.15419386196E+02  0.14313494069E+01  0.91484199015E+01  0.17986407187E+02  0.10500000000E+00 0. -1.
</event>
<event>
11    0  0.3448258E-009  0.9118800E+02  0.7816531E-02  0.1126479E+00
         25   -1    0    0    0    0  0.00000000000E+00  0.00000000000E+00  0.99999998245E-14  0.12500000000E+03  0.12500000000E+03 0.  0.
    3000001    1    3    3    0    0 -0.15547525020E+02  0.10587966051E+02  0.34113944208E+02  0.38969112753E+02  0.10000000000E+01 0.  1.
    1000022    2    1    0    0    0 -0.29068291175E+02  0.10622541035E+02  0.53370835811E+02  0.62500000623E+02  0.10000001639E+02 0.  0.
    3000022    2    3    3    0    0 -0.13520766155E+02  0.34574983618E-01  0.19256891604E+02  0.23530887870E+02  0.24999372940E+00 0.  0.
    1000022    2    1    0    0    0  0.29068291175E+02 -0.10622541035E+02 -0.53370835811E+02  0.62499999377E+02  0.99999938574E+01 0.  0.
    3000022    2    5    5    0    0  0.11481042944E+02 -0.83984318665E+01 -0.18194529649E+02  0.23096567076E+02  0.24999329852E+00 0.  0.
        -13    1    4    4    0    0 -0.97134545313E+01  0.53692599549E-01  0.13881804562E+02  0.16943128540E+02  0.10500000000E+00 0. -1.
         13    1    4    4    0    0 -0.38073116234E+01 -0.19117615931E-01  0.53750870419E+01  0.65877593299E+01  0.10500000000E+00 0.  1.
    3000001    1    5    5    0    0  0.17587248231E+02 -0.22241091683E+01 -0.35176306162E+02  0.39403432302E+02  0.10000000000E+01 0.  1.
        -13    1    6    6    0    0  0.58060672116E+01 -0.42568970949E+01 -0.90991284143E+01  0.11603307815E+02  0.10500000000E+00 0. -1.
         13    1    6    6    0    0  0.56749757324E+01 -0.41415347716E+01 -0.90954012345E+01  0.11493259261E+02  0.10500000000E+00 0.  1.
</event>
<event>
11    0  0.3448258E-009  0.9118800E+02  0.7816531E-02  0.1126479E+00
         25   -1    0    0    0    0  0.00000000000E+00  0.00000000000E+00  0.99999998245E-14  0.12500000000E+03  0.12500000000E+03 0.  0.
    3000001    1    3    3    0    0 -0.37029080954E+02  0.12027215177E+02  0.29586745199E+02  0.48909940020E+02  0.10000000000E+01 0. -1.
    1000022    2    1    0    0    0 -0.44797672991E+02  0.11841904762E+02  0.40733129552E+02  0.62500000603E+02  0.10000000923E+02 0.  0.
    3000022    2    3    3    0    0 -0.77685920364E+01 -0.18531041570E+00  0.11146384353E+02  0.13590060583E+02  0.25000066041E+00 0.  0.
    1000022    2    1    0    0    0  0.44797672991E+02 -0.11841904762E+02 -0.40733129552E+02  0.62499999397E+02  0.99999933882E+01 0.  0.
    3000022    2    5    5    0    0  0.34264942676E+02 -0.10259629034E+02 -0.25679349431E+02  0.44032235583E+02  0.24999744091E+00 0.  0.
        -13    1    4    4    0    0 -0.24315593933E+01 -0.10102554580E+00  0.35341554827E+01  0.42923149022E+01  0.10500000000E+00 0. -1.
         13    1    4    4    0    0 -0.53370326431E+01 -0.84284869899E-01  0.76122288704E+01  0.92977456810E+01  0.10500000000E+00 0.  1.
    3000001    1    5    5    0    0  0.10532730314E+02 -0.15822757282E+01 -0.15053780122E+02  0.18467763814E+02  0.10000000000E+01 0. -1.
        -13    1    6    6    0    0  0.11317060439E+02 -0.34411557392E+01 -0.84722240657E+01  0.14550155169E+02  0.10500000000E+00 0.  1.
         13    1    6    6    0    0  0.22947882237E+02 -0.68184732943E+01 -0.17207125365E+02  0.29482080414E+02  0.10500000000E+00 0. -1.
</event>
<event>
11    0  0.3448258E-009  0.9118800E+02  0.7816531E-02  0.1126479E+00
         25   -1    0    0    0    0  0.00000000000E+00  0.00000000000E+00  0.99999998245E-14  0.12500000000E+03  0.12500000000E+03 0.  0.
    3000001    1    3    3    0    0 -0.22905601530E+02  0.11392377489E+02 -0.37198157795E+01  0.25870637328E+02  0.10000000000E+01 0.  1.
    1000022    2    1    0    0    0 -0.58909834551E+02  0.16353794183E+02 -0.82725336615E+01  0.62499999754E+02  0.99999982553E+01 0.  0.
    3000022    2    3    3    0    0 -0.36004233021E+02  0.49614166942E+01 -0.45527178820E+01  0.36629362427E+02  0.25000128168E+00 0.  0.
    1000022    2    1    0    0    0  0.58909834551E+02 -0.16353794183E+02  0.82725336615E+01  0.62500000246E+02  0.10000001325E+02 0.  0.
    3000022    2    5    5    0    0  0.59283197816E+01 -0.37482830501E+01  0.34410607441E+01  0.78165205762E+01  0.24998723298E+00 0.  0.
        -13    1    4    4    0    0 -0.13866889693E+02  0.19163916481E+01 -0.18152644200E+01  0.14116281261E+02  0.10500000000E+00 0. -1.
         13    1    4    4    0    0 -0.22137343328E+02  0.30450250461E+01 -0.27374534620E+01  0.22513081166E+02  0.10500000000E+00 0.  1.
    3000001    1    5    5    0    0  0.52981514770E+02 -0.12605511133E+02  0.48314729174E+01  0.54683479669E+02  0.10000000000E+01 0.  1.
        -13    1    6    6    0    0  0.20740017650E+01 -0.13644085216E+01  0.11789787334E+01  0.27502926733E+01  0.10500000000E+00 0.  1.
         13    1    6    6    0    0  0.38543180166E+01 -0.23838745286E+01  0.22620820107E+01  0.50662279029E+01  0.10500000000E+00 0.  1.
</event>
<event>
11    0  0.3448258E-009  0.9118800E+02  0.7816531E-02  0.1126479E+00
         25   -1    0    0    0    0  0.00000000000E+00  0.00000000000E+00  0.99999998245E-14  0.12500000000E+03  0.12500000000E+03 0.  0.
    3000001    1    3    3    0    0 -0.12627034240E+01  0.32436435071E+02  0.17293398313E+02  0.36793727254E+02  0.10000000000E+01 0. -1.
    1000022    2    1    0    0    0 -0.80225456867E+01  0.56397888230E+02  0.23688963467E+02  0.62500000025E+02  0.99999988431E+01 0.  0.
    3000022    2    3    3    0    0 -0.67598422628E+01  0.23961453159E+02  0.63955651540E+01  0.25706272770E+02  0.25000240719E+00 0.  0.
    1000022    2    1    0    0    0  0.80225456867E+01 -0.56397888230E+02 -0.23688963467E+02  0.62499999975E+02  0.99999985359E+01 0.  0.
    3000022    2    5    5    0    0  0.49576725895E+01 -0.27254734215E+02 -0.62996422673E+01  0.28410333435E+02  0.24999715233E+00 0.  0.
        -13    1    4    4    0    0 -0.41621777268E+01  0.14533912585E+02  0.38649050043E+01  0.15604706154E+02  0.10500000000E+00 0. -1.
         13    1    4    4    0    0 -0.25976645360E+01  0.94275405743E+01  0.25306601497E+01  0.10101566617E+02  0.10500000000E+00 0.  1.
    3000001    1    5    5    0    0  0.30648730972E+01 -0.29143154015E+02 -0.17389321200E+02  0.34089666540E+02  0.10000000000E+01 0. -1.
        -13    1    6    6    0    0  0.23195294335E+01 -0.12527467704E+02 -0.29524068879E+01  0.13078432448E+02  0.10500000000E+00 0. -1.
         13    1    6    6    0    0  0.26381431560E+01 -0.14727266511E+02 -0.33472353794E+01  0.15331900987E+02  0.10500000000E+00 0.  1.
</event>
<event>
11    0  0.3448258E-009  0.9118800E+02  0.7816531E-02  0.1126479E+00
         25   -1    0    0    0    0  0.00000000000E+00  0.00000000000E+00  0.99999998245E-14  0.12500000000E+03  0.12500000000E+03 0.  0.
    3000001    1    3    3    0    0 -0.70368914142E+01  0.25498485498E+01 -0.26332920510E+00  0.75557203940E+01  0.10000000000E+01 0. -1.
    1000022    2    1    0    0    0 -0.45634332637E+02  0.40439714230E+02  0.94014240230E+01  0.62500004633E+02  0.10000050166E+02 0.  0.
    3000022    2    3    3    0    0 -0.38597441222E+02  0.37889865680E+02  0.96647532281E+01  0.54944284239E+02  0.25005089169E+00 0.  0.
    1000022    2    1    0    0    0  0.45634332637E+02 -0.40439714230E+02 -0.94014240230E+01  0.62499995367E+02  0.99999922512E+01 0.  0.
    3000022    2    5    5    0    0  0.26916790601E+02 -0.26475369512E+02 -0.10208925435E+02  0.39111935127E+02  0.25000758694E+00 0.  0.
        -13    1    4    4    0    0 -0.24767244102E+02  0.24363507062E+02  0.61619476559E+01  0.35284238417E+02  0.10500000000E+00 0.  1.
         13    1    4    4    0    0 -0.13830197120E+02  0.13526358618E+02  0.35028055722E+01  0.19660045822E+02  0.10500000000E+00 0. -1.
    3000001    1    5    5    0    0  0.18717542036E+02 -0.13964344718E+02  0.80750141159E+00  0.23388060240E+02  0.10000000000E+01 0. -1.
        -13    1    6    6    0    0  0.15952587650E+02 -0.15654066322E+02 -0.61036380844E+01  0.23168950516E+02  0.10500000000E+00 0.  1.
         13    1    6    6    0    0  0.10964202950E+02 -0.10821303189E+02 -0.41052873502E+01  0.15942984610E+02  0.10500000000E+00 0. -1.
</event>
<event>
11    0  0.3448258E-009  0.9118800E+02  0.7816531E-02  0.1126479E+00
         25   -1    0    0    0    0  0.00000000000E+00  0.00000000000E+00  0.99999998245E-14  0.12500000000E+03  0.12500000000E+03 0.  0.
    3000001    1    3    3    0    0 -0.37800983194E+02  0.76819829440E+01  0.12102359575E+02  0.40440008651E+02  0.10000000000E+01 0.  1.
    1000022    2    1    0    0    0 -0.55684155185E+02  0.18660607631E+02  0.18902556223E+02  0.62500000195E+02  0.99999988385E+01 0.  0.
    3000022    2    3    3    0    0 -0.17883171991E+02  0.10978624687E+02  0.68001966471E+01  0.22059991544E+02  0.25002399647E+00 0.  0.
    1000022    2    1    0    0    0  0.55684155185E+02 -0.18660607631E+02 -0.18902556223E+02  0.62499999805E+02  0.99999964047E+01 0.  0.
    3000022    2    5    5    0    0  0.51467666251E+02 -0.17928456595E+02 -0.19850758463E+02  0.58004011420E+02  0.25000821415E+00 0.  0.
        -13    1    4    4    0    0 -0.64903973390E+01  0.40095605365E+01  0.24149784099E+01  0.80028106959E+01  0.10500000000E+00 0. -1.
         13    1    4    4    0    0 -0.11392774652E+02  0.69690641504E+01  0.43852182372E+01  0.14057180848E+02  0.10500000000E+00 0.  1.
    3000001    1    5    5    0    0  0.42164889342E+01 -0.73215103618E+00  0.94820224004E+00  0.44959883852E+01  0.10000000000E+01 0. -1.
        -13    1    6    6    0    0  0.39473124325E+02 -0.13740281902E+02 -0.15214943221E+02  0.44479528021E+02  0.10500000000E+00 0.  1.
         13    1    6    6    0    0  0.11994541926E+02 -0.41881746929E+01 -0.46358152412E+01  0.13524483399E+02  0.10500000000E+00 0. -1.
</event>
<event>
11    0  0.3448258E-009  0.9118800E+02  0.7816531E-02  0.1126479E+00
         25   -1    0    0    0    0  0.00000000000E+00  0.00000000000E+00  0.99999998245E-14  0.12500000000E+03  0.12500000000E+03 0.  0.
    3000001    1    3    3    0    0 -0.37102716435E+02  0.38578829589E+00 -0.26021481587E+02  0.45330761117E+02  0.10000000000E+01 0.  1.
    1000022    2    1    0    0    0 -0.48541855875E+02  0.57595869354E+01 -0.37639943426E+02  0.62500000462E+02  0.10000005155E+02 0.  0.
    3000022    2    3    3    0    0 -0.11439139441E+02  0.53737986395E+01 -0.11618461839E+02  0.17169239345E+02  0.25000243386E+00 0.  0.
    1000022    2    1    0    0    0  0.48541855875E+02 -0.57595869354E+01  0.37639943426E+02  0.62499999538E+02  0.99999993835E+01 0.  0.
    3000022    2    5    5    0    0  0.46417855603E+02 -0.38212166750E+01  0.33548791048E+02  0.57400373650E+02  0.24999741701E+00 0.  0.
        -13    1    4    4    0    0 -0.59035977958E+01  0.28333277502E+01 -0.60743901512E+01  0.89324942644E+01  0.10500000000E+00 0.  1.
         13    1    4    4    0    0 -0.55355416448E+01  0.25404708893E+01 -0.55440716875E+01  0.82367450802E+01  0.10500000000E+00 0. -1.
    3000001    1    5    5    0    0  0.21240002729E+01 -0.19383702604E+01  0.40911523776E+01  0.50996258885E+01  0.10000000000E+01 0.  1.
        -13    1    6    6    0    0  0.22799613342E+02 -0.18970638057E+01  0.16559549300E+02  0.28242714418E+02  0.10500000000E+00 0.  1.
         13    1    6    6    0    0  0.23618242260E+02 -0.19241528693E+01  0.16989241748E+02  0.29157659232E+02  0.10500000000E+00 0. -1.
</event>
<event>
11    0  0.3448258E-009  0.9118800E+02  0.7816531E-02  0.1126479E+00
         25   -1    0    0    0    0  0.00000000000E+00  0.00000000000E+00  0.99999998245E-14  0.12500000000E+03  0.12500000000E+03 0.  0.
    3000001    1    3    3    0    0  0.16591793236E+02  0.23692316777E+02 -0.61548037175E+01  0.29588766210E+02  0.10000000000E+01 0.  1.
    1000022    2    1    0    0    0  0.42097793512E+02  0.44427722463E+02 -0.77590596237E+01  0.62499998892E+02  0.10000005671E+02 0.  0.
    3000022    2    3    3    0    0  0.25506000277E+02  0.20735405686E+02 -0.16042559062E+01  0.32911232682E+02  0.25000112754E+00 0.  0.
    1000022    2    1    0    0    0 -0.42097793512E+02 -0.44427722463E+02  0.77590596237E+01  0.62500001108E+02  0.10000019516E+02 0.  0.
    3000022    2    5    5    0    0 -0.15962443481E+02 -0.14666325305E+02 -0.17660818072E+01  0.21750453854E+02  0.24999616861E+00 0.  0.
        -13    1    4    4    0    0  0.15047410617E+02  0.12214795981E+02 -0.10083918990E+01  0.19407567760E+02  0.10500000000E+00 0.  1.
         13    1    4    4    0    0  0.10458589660E+02  0.85206097054E+01 -0.59586400716E+00  0.13503664922E+02  0.10500000000E+00 0. -1.
    3000001    1    5    5    0    0 -0.26135350032E+02 -0.29761397158E+02  0.95251414309E+01  0.40749547253E+02  0.10000000000E+01 0. -1.
        -13    1    6    6    0    0 -0.87597201376E+01 -0.80024469755E+01 -0.90888596500E+00  0.11899956016E+02  0.10500000000E+00 0. -1.
         13    1    6    6    0    0 -0.72027233431E+01 -0.66638783296E+01 -0.85719584220E+00  0.98504978382E+01  0.10500000000E+00 0.  1.
</event>
<event>
11    0  0.3448258E-009  0.9118800E+02  0.7816531E-02  0.1126479E+00
         25   -1    0    0    0    0  0.00000000000E+00  0.00000000000E+00  0.99999998245E-14  0.12500000000E+03  0.12500000000E+03 0.  0.
    3000001    1    3    3    0    0 -0.11897564805E+01 -0.40495893287E+02  0.42814402157E+02  0.58952573529E+02  0.10000000000E+01 0.  1.
    1000022    2    1    0    0    0  0.26579186033E+00 -0.41139924124E+02  0.45974839540E+02  0.62500004386E+02  0.10000033766E+02 0.  0.
    3000022    2    3    3    0    0  0.14555483408E+01 -0.64403083617E+00  0.31604373832E+01  0.35474308572E+01  0.25000908573E+00 0.  0.
    1000022    2    1    0    0    0 -0.26579186033E+00  0.41139924124E+02 -0.45974839540E+02  0.62499995614E+02  0.99999789389E+01 0.  0.
    3000022    2    5    5    0    0 -0.72416381488E+00  0.19478304328E+02 -0.29069676558E+02  0.35000533574E+02  0.25000515694E+00 0.  0.
        -13    1    4    4    0    0  0.96919736016E+00 -0.48315382415E+00  0.21061363595E+01  0.23705730332E+01  0.10500000000E+00 0.  1.
         13    1    4    4    0    0  0.48635098063E+00 -0.16087701201E+00  0.10543010237E+01  0.11768578240E+01  0.10500000000E+00 0. -1.
    3000001    1    5    5    0    0  0.45837195455E+00  0.21661619795E+02 -0.16905162983E+02  0.27499462040E+02  0.10000000000E+01 0.  1.
        -13    1    6    6    0    0 -0.40029989281E+00  0.98827442541E+01 -0.14644432393E+02  0.17671991939E+02  0.10500000000E+00 0.  1.
         13    1    6    6    0    0 -0.32386392207E+00  0.95955600742E+01 -0.14425244165E+02  0.17328541635E+02  0.10500000000E+00 0. -1.
</event>
<event>
11    0  0.3448258E-009  0.9118800E+02  0.7816531E-02  0.1126479E+00
         25   -1    0    0    0    0  0.00000000000E+00  0.00000000000E+00  0.99999998245E-14  0.12500000000E+03  0.12500000000E+03 0.  0.
    3000001    1    3    3    0    0 -0.61224681555E+01 -0.26350703201E+02 -0.90282187578E+01  0.28536869300E+02  0.10000000000E+01 0.  1.
    1000022    2    1    0    0    0 -0.44620956109E+01 -0.55983435673E+02 -0.25538078456E+02  0.62499991024E+02  0.10000002991E+02 0.  0.
    3000022    2    3    3    0    0  0.16603725446E+01 -0.29632732472E+02 -0.16509859698E+02  0.33963121724E+02  0.24999852504E+00 0.  0.
    1000022    2    1    0    0    0  0.44620956109E+01  0.55983435673E+02  0.25538078456E+02  0.62500008976E+02  0.10000115189E+02 0.  0.
    3000022    2    5    5    0    0 -0.30318270553E+01  0.16298758372E+02  0.88060304426E+01  0.18773656280E+02  0.24999638066E+00 0.  0.
        -13    1    4    4    0    0  0.56637523421E+00 -0.93102105474E+01 -0.51644734858E+01  0.10662251766E+02  0.10500000000E+00 0. -1.
         13    1    4    4    0    0  0.10939973104E+01 -0.20322521925E+02 -0.11345386213E+02  0.23300869958E+02  0.10500000000E+00 0.  1.
    3000001    1    5    5    0    0  0.74939226662E+01  0.39684677301E+02  0.16732048014E+02  0.43726352696E+02  0.10000000000E+01 0. -1.
        -13    1    6    6    0    0 -0.11907911910E+01  0.63109295774E+01  0.33442879441E+01  0.72416229289E+01  0.10500000000E+00 0. -1.
         13    1    6    6    0    0 -0.18410358644E+01  0.99878287945E+01  0.54617424985E+01  0.11532033351E+02  0.10500000000E+00 0.  1.
</event>
<event>
11    0  0.3448258E-009  0.9118800E+02  0.7816531E-02  0.1126479E+00
         25   -1    0    0    0    0  0.00000000000E+00  0.00000000000E+00  0.99999998245E-14  0.12500000000E+03  0.12500000000E+03 0.  0.
    3000001    1    3    3    0    0 -0.11244682565E+02 -0.14512268758E+02 -0.93146566562E+01  0.20610959684E+02  0.10000000000E+01 0. -1.
    1000022    2    1    0    0    0 -0.35016445134E+02 -0.48530862945E+02 -0.14995127550E+02  0.62499999959E+02  0.10000002830E+02 0.  0.
    3000022    2    3    3    0    0 -0.23771762570E+02 -0.34018594187E+02 -0.56804708937E+01  0.41889040275E+02  0.24999886264E+00 0.  0.
    1000022    2    1    0    0    0  0.35016445134E+02  0.48530862945E+02  0.14995127550E+02  0.62500000041E+02  0.10000003342E+02 0.  0.
    3000022    2    5    5    0    0  0.26668172666E+02  0.43037953423E+02  0.12556927872E+02  0.52165082243E+02  0.24999929384E+00 0.  0.
        -13    1    4    4    0    0 -0.84670724957E+01 -0.12136630822E+02 -0.19685699235E+01  0.14929012590E+02  0.10500000000E+00 0. -1.
         13    1    4    4    0    0 -0.15304690074E+02 -0.21881963365E+02 -0.37119009701E+01  0.26960027685E+02  0.10500000000E+00 0.  1.
    3000001    1    5    5    0    0  0.83482724680E+01  0.54929095222E+01  0.24381996775E+01  0.10334917798E+02  0.10000000000E+01 0.  1.
        -13    1    6    6    0    0  0.16629250869E+02  0.26898014086E+02  0.77904397555E+01  0.32568959498E+02  0.10500000000E+00 0. -1.
         13    1    6    6    0    0  0.10038921797E+02  0.16139939337E+02  0.47664881168E+01  0.19596122745E+02  0.10500000000E+00 0.  1.
</event>
<event>
11    0  0.3448258E-009  0.9118800E+02  0.7816531E-02  0.1126479E+00
         25   -1    0    0    0    0  0.00000000000E+00  0.00000000000E+00  0.99999998245E-14  0.12500000000E+03  0.12500000000E+03 0.  0.
    3000001    1    3    3    0    0  0.13181934974E+02 -0.29233994083E+02  0.26127926082E+02  0.41377026730E+02  0.10000000000E+01 0.  1.
    1000022    2    1    0    0    0  0.14093070695E+02 -0.47336889528E+02  0.36970994369E+02  0.62499991526E+02  0.99999382163E+01 0.  0.
    3000022    2    3    3    0    0  0.91113572069E+00 -0.18102895446E+02  0.10843068287E+02  0.21122964796E+02  0.25004015906E+00 0.  0.
    1000022    2    1    0    0    0 -0.14093070695E+02  0.47336889528E+02 -0.36970994369E+02  0.62500008474E+02  0.10000044137E+02 0.  0.
    3000022    2    5    5    0    0  0.13435941775E+01  0.23104590906E+01 -0.11531765144E+01  0.29216052035E+01  0.24998873671E+00 0.  0.
        -13    1    4    4    0    0  0.54861728936E+00 -0.11110932169E+02  0.67252748612E+01  0.12999774673E+02  0.10500000000E+00 0. -1.
         13    1    4    4    0    0  0.36251843133E+00 -0.69919632769E+01  0.41177934259E+01  0.81231901232E+01  0.10500000000E+00 0.  1.
    3000001    1    5    5    0    0 -0.15436664873E+02  0.45026430438E+02 -0.35817817855E+02  0.59578403270E+02  0.10000000000E+01 0. -1.
        -13    1    6    6    0    0  0.51124453295E+00  0.97613891784E+00 -0.52124648493E+00  0.12234954260E+01  0.10500000000E+00 0. -1.
         13    1    6    6    0    0  0.83234964458E+00  0.13343201728E+01 -0.63193002947E+00  0.16981097775E+01  0.10500000000E+00 0.  1.
</event>
<event>
11    0  0.3448258E-009  0.9118800E+02  0.7816531E-02  0.1126479E+00
         25   -1    0    0    0    0  0.00000000000E+00  0.00000000000E+00  0.99999998245E-14  0.12500000000E+03  0.12500000000E+03 0.  0.
    3000001    1    3    3    0    0 -0.46153114275E+02  0.23981725871E+02 -0.81433251226E+01  0.52654979604E+02  0.10000000000E+01 0. -1.
    1000022    2    1    0    0    0 -0.52929394682E+02  0.28664982853E+02 -0.13529519101E+02  0.62500000680E+02  0.10000006729E+02 0.  0.
    3000022    2    3    3    0    0 -0.67762804070E+01  0.46832569816E+01 -0.53861939783E+01  0.98450210764E+01  0.24996462272E+00 0.  0.
    1000022    2    1    0    0    0  0.52929394682E+02 -0.28664982853E+02  0.13529519101E+02  0.62499999320E+02  0.99999982238E+01 0.  0.
    3000022    2    5    5    0    0  0.23140780651E+01 -0.39772561181E+01  0.16025252581E+00  0.46110416823E+01  0.25000200783E+00 0.  0.
        -13    1    4    4    0    0 -0.37660666871E+01  0.25402756277E+01 -0.30204284760E+01  0.54562140478E+01  0.10500000000E+00 0. -1.
         13    1    4    4    0    0 -0.30102137199E+01  0.21429813538E+01 -0.23657655024E+01  0.43888070286E+01  0.10500000000E+00 0.  1.
    3000001    1    5    5    0    0  0.50615316617E+02 -0.24687726735E+02  0.13369266575E+02  0.57888957637E+02  0.10000000000E+01 0.  1.
        -13    1    6    6    0    0  0.11410433503E+01 -0.18599712194E+01  0.31573308753E-01  0.21848328856E+01  0.10500000000E+00 0. -1.
         13    1    6    6    0    0  0.11730347148E+01 -0.21172848987E+01  0.12867921705E+00  0.24262087968E+01  0.10500000000E+00 0.  1.
</event>
<event>
11    0  0.3448258E-009  0.9118800E+02  0.7816531E-02  0.1126479E+00
         25   -1    0    0    0    0  0.00000000000E+00  0.00000000000E+00  0.99999998245E-14  0.12500000000E+03  0.12500000000E+03 0.  0.
    3000001    1    3    3    0    0 -0.18029427103E+02 -0.25428422852E+01  0.22941858118E+02  0.29306230438E+02  0.10000000000E+01 0.  1.
    1000022    2    1    0    0    0 -0.29640856084E+02 -0.27775027266E+01  0.54036616041E+02  0.62500007314E+02  0.10000008515E+02 0.  0.
    3000022    2    3    3    0    0 -0.11611428981E+02 -0.23466044144E+00  0.31094757922E+02  0.33193776876E+02  0.25000907077E+00 0.  0.
    1000022    2    1    0    0    0  0.29640856084E+02  0.27775027266E+01 -0.54036616041E+02  0.62499992686E+02  0.99999170905E+01 0.  0.
    3000022    2    5    5    0    0  0.33910072648E+01  0.72045877686E+00 -0.16230848563E+01  0.38359982424E+01  0.24997389087E+00 0.  0.
        -13    1    4    4    0    0 -0.44673372761E+01 -0.41171683688E-01  0.11856944860E+02  0.12671107444E+02  0.10500000000E+00 0. -1.
         13    1    4    4    0    0 -0.71440917051E+01 -0.19348875775E+00  0.19237813063E+02  0.20522669432E+02  0.10500000000E+00 0.  1.
    3000001    1    5    5    0    0  0.26249848819E+02  0.20570439498E+01 -0.52413531185E+02  0.58663994444E+02  0.10000000000E+01 0.  1.
        -13    1    6    6    0    0  0.19957556193E+01  0.36716431259E+00 -0.98482416195E+00  0.22580420179E+01  0.10500000000E+00 0.  1.
         13    1    6    6    0    0  0.13952516455E+01  0.35329446426E+00 -0.63826069435E+00  0.15779562246E+01  0.10500000000E+00 0. -1.
</event>
<event>
11    0  0.3448258E-009  0.9118800E+02  0.7816531E-02  0.1126479E+00
         25   -1    0    0    0    0  0.00000000000E+00  0.00000000000E+00  0.99999998245E-14  0.12500000000E+03  0.12500000000E+03 0.  0.
    3000001    1    3    3    0    0  0.66951351283E+01 -0.10974010942E+02 -0.35857828373E+02  0.38105611217E+02  0.10000000000E+01 0.  1.
    1000022    2    1    0    0    0  0.70688919400E+01 -0.11253604652E+02 -0.60246470233E+02  0.62500000299E+02  0.10000000543E+02 0.  0.
    3000022    2    3    3    0    0  0.37375681170E+00 -0.27959370912E+00 -0.24388641860E+02  0.24394389082E+02  0.25000023154E+00 0.  0.
    1000022    2    1    0    0    0 -0.70688919400E+01  0.11253604652E+02  0.60246470233E+02  0.62499999701E+02  0.99999968105E+01 0.  0.
    3000022    2    5    5    0    0 -0.35690757624E+01  0.11497027229E+02  0.53417191149E+02  0.54757453568E+02  0.24994807196E+00 0.  0.
        -13    1    4    4    0    0  0.25880781379E+00 -0.23962028879E+00 -0.17561945879E+02  0.17565801075E+02  0.10500000000E+00 0. -1.
         13    1    4    4    0    0  0.11494899791E+00 -0.39973420334E-01 -0.68266959812E+01  0.68285880067E+01  0.10500000000E+00 0.  1.
    3000001    1    5    5    0    0 -0.34998161776E+01 -0.24342257710E+00  0.68292790836E+01  0.77425461336E+01  0.10000000000E+01 0. -1.
        -13    1    6    6    0    0 -0.24574265677E+01  0.77982943683E+01  0.36107957126E+02  0.37022262670E+02  0.10500000000E+00 0.  1.
         13    1    6    6    0    0 -0.11116491947E+01  0.36987328603E+01  0.17309234023E+02  0.17735190897E+02  0.10500000000E+00 0. -1.
</event>
<event>
11    0  0.3448258E-009  0.9118800E+02  0.7816531E-02  0.1126479E+00
         25   -1    0    0    0    0  0.00000000000E+00  0.00000000000E+00  0.99999998245E-14  0.12500000000E+03  0.12500000000E+03 0.  0.
    3000001    1    3    3    0    0 -0.19372774655E+02  0.89150540857E+01  0.94380867401E+01  0.23342237864E+02  0.10000000000E+01 0. -1.
    1000022    2    1    0    0    0 -0.55533485245E+02  0.23498710397E+02  0.13041958559E+02  0.62500000983E+02  0.10000003304E+02 0.  0.
    3000022    2    3    3    0    0 -0.36160710589E+02  0.14583656311E+02  0.36038718186E+01  0.39157763119E+02  0.24999729923E+00 0.  0.
    1000022    2    1    0    0    0  0.55533485245E+02 -0.23498710397E+02 -0.13041958559E+02  0.62499999017E+02  0.99999910174E+01 0.  0.
    3000022    2    5    5    0    0  0.55172307711E+01 -0.42448623049E+01 -0.43062702270E+01  0.81893312938E+01  0.24998480511E+00 0.  0.
        -13    1    4    4    0    0 -0.17640049389E+02  0.70413103845E+01  0.17518982108E+01  0.19074369366E+02  0.10500000000E+00 0. -1.
         13    1    4    4    0    0 -0.18520661200E+02  0.75423459265E+01  0.18519736078E+01  0.20083393752E+02  0.10500000000E+00 0.  1.
    3000001    1    5    5    0    0  0.50016254474E+02 -0.19253848092E+02 -0.87356883317E+01  0.54310667723E+02  0.10000000000E+01 0. -1.
        -13    1    6    6    0    0  0.20623594389E+01 -0.15230906007E+01 -0.15498164596E+01  0.29976803518E+01  0.10500000000E+00 0. -1.
         13    1    6    6    0    0  0.34548713322E+01 -0.27217717042E+01 -0.27564537674E+01  0.51916509420E+01  0.10500000000E+00 0.  1.
</event>
<event>
11    0  0.3448258E-009  0.9118800E+02  0.7816531E-02  0.1126479E+00
         25   -1    0    0    0    0  0.00000000000E+00  0.00000000000E+00  0.99999998245E-14  0.12500000000E+03  0.12500000000E+03 0.  0.
    3000001    1    3    3    0    0  0.22699167039E+02  0.23787521748E+02 -0.79481497861E+01  0.33841859585E+02  0.10000000000E+01 0.  1.
    1000022    2    1    0    0    0  0.46582880907E+02  0.36559577136E+02 -0.17311346067E+02  0.62500002203E+02  0.10000004938E+02 0.  0.
    3000022    2    3    3    0    0  0.23883713868E+02  0.12772055388E+02 -0.93631962807E+01  0.28658142618E+02  0.25001347108E+00 0.  0.
    1000022    2    1    0    0    0 -0.46582880907E+02 -0.36559577136E+02  0.17311346067E+02  0.62499997797E+02  0.99999773978E+01 0.  0.
    3000022    2    5    5    0    0 -0.39886121738E+02 -0.34848913829E+02  0.16458511536E+02  0.55464354325E+02  0.24999270026E+00 0.  0.
        -13    1    4    4    0    0  0.10039003517E+02  0.54404217631E+01 -0.39328213133E+01  0.12077163949E+02  0.10500000000E+00 0. -1.
         13    1    4    4    0    0  0.13844710351E+02  0.73316336252E+01 -0.54303749675E+01  0.16580978669E+02  0.10500000000E+00 0.  1.
    3000001    1    5    5    0    0 -0.66967591698E+01 -0.17106633070E+01  0.85283453052E+00  0.70356434720E+01  0.10000000000E+01 0.  1.
        -13    1    6    6    0    0 -0.12729811949E+02 -0.11121143541E+02  0.51997316518E+01  0.17685479359E+02  0.10500000000E+00 0.  1.
         13    1    6    6    0    0 -0.27156309789E+02 -0.23727770288E+02  0.11258779885E+02  0.37778874965E+02  0.10500000000E+00 0. -1.
</event>
<event>
11    0  0.3448258E-009  0.9118800E+02  0.7816531E-02  0.1126479E+00
         25   -1    0    0    0    0  0.00000000000E+00  0.00000000000E+00  0.99999998245E-14  0.12500000000E+03  0.12500000000E+03 0.  0.
    3000001    1    3    3    0    0 -0.80331860883E+00  0.50729406736E+01  0.37415192968E+01  0.64326522146E+01  0.10000000000E+01 0.  1.
    1000022    2    1    0    0    0  0.15722439888E+02  0.37679984357E+02  0.46252282316E+02  0.62499999833E+02  0.10000001126E+02 0.  0.
    3000022    2    3    3    0    0  0.16525758497E+02  0.32607043684E+02  0.42510763019E+02  0.56067347619E+02  0.25000965429E+00 0.  0.
    1000022    2    1    0    0    0 -0.15722439888E+02 -0.37679984357E+02 -0.46252282316E+02  0.62500000167E+02  0.10000003212E+02 0.  0.
    3000022    2    5    5    0    0 -0.15420145034E+01 -0.13426365399E+02 -0.19235953392E+02  0.23510199896E+02  0.24999935272E+00 0.  0.
        -13    1    4    4    0    0  0.10141883157E+02  0.19902507573E+02  0.25918269136E+02  0.34216009435E+02  0.10500000000E+00 0. -1.
         13    1    4    4    0    0  0.63838753402E+01  0.12704536111E+02  0.16592493883E+02  0.21851338184E+02  0.10500000000E+00 0.  1.
    3000001    1    5    5    0    0 -0.14180425385E+02 -0.24253618959E+02 -0.27016328923E+02  0.38989800271E+02  0.10000000000E+01 0.  1.
        -13    1    6    6    0    0 -0.82704102761E+00 -0.67605858356E+01 -0.96148904879E+01  0.11783321340E+02  0.10500000000E+00 0.  1.
         13    1    6    6    0    0 -0.71497347576E+00 -0.66657795632E+01 -0.96210629046E+01  0.11726878556E+02  0.10500000000E+00 0. -1.
</event>
<event>
11    0  0.3448258E-009  0.9118800E+02  0.7816531E-02  0.1126479E+00
         25   -1    0    0    0    0  0.00000000000E+00  0.00000000000E+00  0.99999998245E-14  0.12500000000E+03  0.12500000000E+03 0.  0.
    3000001    1    3    3    0    0  0.27327281022E+01 -0.66510122662E+01  0.72002990008E+01  0.10224875195E+02  0.10000000000E+01 0.  1.
    1000022    2    1    0    0    0  0.12948722079E+02 -0.22652748613E+02  0.55905576515E+02  0.62499999815E+02  0.10000003410E+02 0.  0.
    3000022    2    3    3    0    0  0.10215993976E+02 -0.16001736346E+02  0.48705277514E+02  0.52275124620E+02  0.24999456147E+00 0.  0.
    1000022    2    1    0    0    0 -0.12948722079E+02  0.22652748613E+02 -0.55905576515E+02  0.62500000185E+02  0.10000005724E+02 0.  0.
    3000022    2    5    5    0    0  0.89840226016E+00 -0.37674641134E-01 -0.47582811528E+01  0.48489465716E+01  0.24999464964E+00 0.  0.
        -13    1    4    4    0    0  0.29838718705E+01 -0.45957345836E+01  0.14077122855E+02  0.15106312607E+02  0.10500000000E+00 0. -1.
         13    1    4    4    0    0  0.72321221058E+01 -0.11406001763E+02  0.34628154659E+02  0.37168812013E+02  0.10500000000E+00 0.  1.
    3000001    1    5    5    0    0 -0.13847124339E+02  0.22690423254E+02 -0.51147295362E+02  0.57651053614E+02  0.10000000000E+01 0. -1.
        -13    1    6    6    0    0  0.25645826295E+00  0.25035041442E-01 -0.15523757920E+01  0.15771154662E+01  0.10500000000E+00 0. -1.
         13    1    6    6    0    0  0.64194399722E+00 -0.62709682576E-01 -0.32059053608E+01  0.32718311054E+01  0.10500000000E+00 0.  1.
</event>
<event>
11    0  0.3448258E-009  0.9118800E+02  0.7816531E-02  0.1126479E+00
         25   -1    0    0    0    0  0.00000000000E+00  0.00000000000E+00  0.99999998245E-14  0.12500000000E+03  0.12500000000E+03 0.  0.
    3000001    1    3    3    0    0  0.10076289264E+02 -0.31714776155E+02 -0.69155001181E+01  0.34002687743E+02  0.10000000000E+01 0.  1.
    1000022    2    1    0    0    0  0.20155415605E+02 -0.58185862214E+02 -0.37966620441E+01  0.62500000513E+02  0.10000004082E+02 0.  0.
    3000022    2    3    3    0    0  0.10079126341E+02 -0.26471086059E+02  0.31188380740E+01  0.28497312770E+02  0.24999842123E+00 0.  0.
    1000022    2    1    0    0    0 -0.20155415605E+02  0.58185862214E+02  0.37966620441E+01  0.62499999487E+02  0.99999976706E+01 0.  0.
    3000022    2    5    5    0    0 -0.15359587036E+02  0.47114601627E+02 -0.76721769309E+00  0.49561615473E+02  0.25000976305E+00 0.  0.
        -13    1    4    4    0    0  0.34307261309E+01 -0.90377313082E+01  0.11189121658E+01  0.97320839710E+01  0.10500000000E+00 0.  1.
         13    1    4    4    0    0  0.66484002101E+01 -0.17433354751E+02  0.19999259082E+01  0.18765228799E+02  0.10500000000E+00 0. -1.
    3000001    1    5    5    0    0 -0.47958285691E+01  0.11071260587E+02  0.45638797372E+01  0.12938384014E+02  0.10000000000E+01 0. -1.
        -13    1    6    6    0    0 -0.64051391587E+01  0.19483582882E+02 -0.27802601753E+00  0.20511560960E+02  0.10500000000E+00 0. -1.
         13    1    6    6    0    0 -0.89544478777E+01  0.27631018745E+02 -0.48919167556E+00  0.29050054513E+02  0.10500000000E+00 0.  1.
</event>
<event>
11    0  0.3448258E-009  0.9118800E+02  0.7816531E-02  0.1126479E+00
         25   -1    0    0    0    0  0.00000000000E+00  0.00000000000E+00  0.99999998245E-14  0.12500000000E+03  0.12500000000E+03 0.  0.
    3000001    1    3    3    0    0 -0.74750587824E+00  0.29090099029E+02 -0.11336622370E+02  0.31245985875E+02  0.10000000000E+01 0. -1.
    1000022    2    1    0    0    0  0.15300879651E+01  0.53430479372E+02 -0.30807351249E+02  0.62499998912E+02  0.99999838970E+01 0.  0.
    3000022    2    3    3    0    0  0.22775938434E+01  0.24340380343E+02 -0.19470728879E+02  0.31254013037E+02  0.24999774343E+00 0.  0.
    1000022    2    1    0    0    0 -0.15300879651E+01 -0.53430479372E+02  0.30807351249E+02  0.62500001088E+02  0.99999974939E+01 0.  0.
    3000022    2    5    5    0    0 -0.34173187246E+01 -0.20818015388E+02  0.76379595984E+01  0.22438109513E+02  0.24999949797E+00 0.  0.
        -13    1    4    4    0    0  0.14896795356E+01  0.15946801367E+02 -0.12826961178E+02  0.20519785014E+02  0.10500000000E+00 0. -1.
         13    1    4    4    0    0  0.78791430776E+00  0.83935789762E+01 -0.66437677008E+01  0.10734228023E+02  0.10500000000E+00 0.  1.
    3000001    1    5    5    0    0  0.18872307595E+01 -0.32612463984E+02  0.23169391651E+02  0.40061891574E+02  0.10000000000E+01 0.  1.
        -13    1    6    6    0    0 -0.20229379211E+01 -0.12250629720E+02  0.44282507403E+01  0.13182967647E+02  0.10500000000E+00 0.  1.
         13    1    6    6    0    0 -0.13943808035E+01 -0.85673856682E+01  0.32097088581E+01  0.92551418664E+01  0.10500000000E+00 0. -1.
</event>
<event>
11    0  0.3448258E-009  0.9118800E+02  0.7816531E-02  0.1126479E+00
         25   -1    0    0    0    0  0.00000000000E+00  0.00000000000E+00  0.99999998245E-14  0.12500000000E+03  0.12500000000E+03 0.  0.
    3000001    1    3    3    0    0  0.15721772258E+02  0.28814469495E+02  0.39528568327E+02  0.51390227565E+02  0.10000000000E+01 0.  1.
    1000022    2    1    0    0    0  0.14801494795E+02  0.33995825203E+02  0.49309738442E+02  0.62500004390E+02  0.99999932096E+01 0.  0.
    3000022    2    3    3    0    0 -0.92027746349E+00  0.51813557081E+01  0.97811701152E+01  0.11109776825E+02  0.24998941014E+00 0.  0.
    1000022    2    1    0    0    0 -0.14801494795E+02 -0.33995825203E+02 -0.49309738442E+02  0.62499995610E+02  0.99999383335E+01 0.  0.
    3000022    2    5    5    0    0 -0.32204544931E+01 -0.10445211624E+01 -0.54875486777E+01  0.64527543920E+01  0.24999430466E+00 0.  0.
        -13    1    4    4    0    0 -0.51521223133E+00  0.30915987478E+01  0.59369469953E+01  0.67142975125E+01  0.10500000000E+00 0.  1.
         13    1    4    4    0    0 -0.40506523216E+00  0.20897569604E+01  0.38442231199E+01  0.43954793130E+01  0.10500000000E+00 0. -1.
    3000001    1    5    5    0    0 -0.11581040302E+02 -0.32951304040E+02 -0.43822189764E+02  0.56047241218E+02  0.10000000000E+01 0.  1.
        -13    1    6    6    0    0 -0.17514717336E+01 -0.51469880298E+00 -0.30400443371E+01  0.35475995635E+01  0.10500000000E+00 0. -1.
         13    1    6    6    0    0 -0.14689827595E+01 -0.52982235944E+00 -0.24475043407E+01  0.29051548286E+01  0.10500000000E+00 0.  1.
</event>
<event>
11    0  0.3448258E-009  0.9118800E+02  0.7816531E-02  0.1126479E+00
         25   -1    0    0    0    0  0.00000000000E+00  0.00000000000E+00  0.99999998245E-14  0.12500000000E+03  0.12500000000E+03 0.  0.
    3000001    1    3    3    0    0 -0.91259797102E+01  0.43601460700E+02 -0.19980111517E+02  0.48832117885E+02  0.10000000000E+01 0. -1.
    1000022    2    1    0    0    0 -0.11119001010E+02  0.57110182682E+02 -0.20519376446E+02  0.62499999781E+02  0.10000000671E+02 0.  0.
    3000022    2    3    3    0    0 -0.19930213002E+01  0.13508721982E+02 -0.53926492934E+00  0.13667881896E+02  0.24997075851E+00 0.  0.
    1000022    2    1    0    0    0  0.11119001010E+02 -0.57110182682E+02  0.20519376446E+02  0.62500000219E+02  0.10000003407E+02 0.  0.
    3000022    2    5    5    0    0  0.40019044937E+01 -0.37536000473E+02  0.95499612275E+01  0.38938808775E+02  0.24999663079E+00 0.  0.
        -13    1    4    4    0    0 -0.10117833055E+01  0.64057682971E+01 -0.24186214902E+00  0.64905389015E+01  0.10500000000E+00 0. -1.
         13    1    4    4    0    0 -0.98123799471E+00  0.71029536848E+01 -0.29740278031E+00  0.71773429947E+01  0.10500000000E+00 0.  1.
    3000001    1    5    5    0    0  0.71170965167E+01 -0.19574182209E+02  0.10969415219E+02  0.23561191444E+02  0.10000000000E+01 0. -1.
        -13    1    6    6    0    0  0.22476219128E+01 -0.21165132233E+02  0.54519735237E+01  0.21971564964E+02  0.10500000000E+00 0.  1.
         13    1    6    6    0    0  0.17542825809E+01 -0.16370868240E+02  0.40979877038E+01  0.16967243811E+02  0.10500000000E+00 0. -1.
</event>
<event>
11    0  0.3448258E-009  0.9118800E+02  0.7816531E-02  0.1126479E+00
         25   -1    0    0    0    0  0.00000000000E+00  0.00000000000E+00  0.99999998245E-14  0.12500000000E+03  0.12500000000E+03 0.  0.
    3000001    1    3    3    0    0 -0.27876178151E+01 -0.63953418330E+01  0.27770540479E+02  0.28650901011E+02  0.10000000000E+01 0.  1.
    1000022    2    1    0    0    0 -0.22177451347E+01 -0.23340441110E+02  0.57066237412E+02  0.62500000025E+02  0.99999983036E+01 0.  0.
    3000022    2    3    3    0    0  0.56987268039E+00 -0.16945099277E+02  0.29295696933E+02  0.33849099014E+02  0.25000178774E+00 0.  0.
    1000022    2    1    0    0    0  0.22177451347E+01  0.23340441110E+02 -0.57066237412E+02  0.62499999975E+02  0.99999979875E+01 0.  0.
    3000022    2    5    5    0    0  0.88723855656E+00  0.19253664928E+02 -0.53368389574E+02  0.56742737956E+02  0.24999925150E+00 0.  0.
        -13    1    4    4    0    0  0.20452225070E+00 -0.62089609452E+01  0.10852557699E+02  0.12505281244E+02  0.10500000000E+00 0. -1.
         13    1    4    4    0    0  0.36535042969E+00 -0.10736138332E+02  0.18443139234E+02  0.21343817770E+02  0.10500000000E+00 0.  1.
    3000001    1    5    5    0    0  0.13305065781E+01  0.40867761817E+01 -0.36978478384E+01  0.57572620185E+01  0.10000000000E+01 0. -1.
        -13    1    6    6    0    0  0.40331253039E+00  0.90952491948E+01 -0.25402049994E+02  0.26984465676E+02  0.10500000000E+00 0. -1.
         13    1    6    6    0    0  0.48392602617E+00  0.10158415733E+02 -0.27966339580E+02  0.29758272280E+02  0.10500000000E+00 0.  1.
</event>
<event>
11    0  0.3448258E-009  0.9118800E+02  0.7816531E-02  0.1126479E+00
         25   -1    0    0    0    0  0.00000000000E+00  0.00000000000E+00  0.99999998245E-14  0.12500000000E+03  0.12500000000E+03 0.  0.
    3000001    1    3    3    0    0 -0.11638279652E+02  0.40485560423E+02  0.13285697831E+02  0.44181895872E+02  0.10000000000E+01 0. -1.
    1000022    2    1    0    0    0 -0.11979561699E+02  0.55923275383E+02  0.23137140555E+02  0.62499999933E+02  0.10000004524E+02 0.  0.
    3000022    2    3    3    0    0 -0.34128204671E+00  0.15437714960E+02  0.98514427240E+01  0.18318104061E+02  0.24999199861E+00 0.  0.
    1000022    2    1    0    0    0  0.11979561699E+02 -0.55923275383E+02 -0.23137140555E+02  0.62500000067E+02  0.10000005366E+02 0.  0.
    3000022    2    5    5    0    0  0.20741644220E+01 -0.32999910175E+02 -0.13415681422E+02  0.35683879256E+02  0.25000234917E+00 0.  0.
        -13    1    4    4    0    0 -0.10238100525E+00  0.76895640548E+01  0.48996326189E+01  0.91190625627E+01  0.10500000000E+00 0.  1.
         13    1    4    4    0    0 -0.23890104146E+00  0.77481509055E+01  0.49518101051E+01  0.91990414979E+01  0.10500000000E+00 0. -1.
    3000001    1    5    5    0    0  0.99053972771E+01 -0.22923365208E+02 -0.97214591329E+01  0.26816120811E+02  0.10000000000E+01 0.  1.
        -13    1    6    6    0    0  0.86224367819E+00 -0.13354992576E+02 -0.54939224205E+01  0.14466979624E+02  0.10500000000E+00 0.  1.
         13    1    6    6    0    0  0.12119207438E+01 -0.19644917599E+02 -0.79217590013E+01  0.21216899633E+02  0.10500000000E+00 0. -1.
</event>
<event>
11    0  0.3448258E-009  0.9118800E+02  0.7816531E-02  0.1126479E+00
         25   -1    0    0    0    0  0.00000000000E+00  0.00000000000E+00  0.99999998245E-14  0.12500000000E+03  0.12500000000E+03 0.  0.
    3000001    1    3    3    0    0 -0.81933997096E+00  0.21408074610E+02 -0.11474877517E+02  0.24323852296E+02  0.10000000000E+01 0.  1.
    1000022    2    1    0    0    0 -0.98834871885E+01  0.48625483731E+02 -0.36662366028E+02  0.62499999387E+02  0.99999926738E+01 0.  0.
    3000022    2    3    3    0    0 -0.90641472175E+01  0.27217409122E+02 -0.25187488511E+02  0.38176147091E+02  0.25001029845E+00 0.  0.
    1000022    2    1    0    0    0  0.98834871885E+01 -0.48625483731E+02  0.36662366028E+02  0.62500000613E+02  0.10000000337E+02 0.  0.
    3000022    2    5    5    0    0 -0.20195128632E+01 -0.79667989635E+01  0.53545200034E+01  0.98123238756E+01  0.24999488815E+00 0.  0.
        -13    1    4    4    0    0 -0.31105066914E+01  0.91711298186E+01 -0.84895798075E+01  0.12879008670E+02  0.10500000000E+00 0.  1.
         13    1    4    4    0    0 -0.59536405261E+01  0.18046279303E+02 -0.16697908703E+02  0.25297138421E+02  0.10500000000E+00 0. -1.
    3000001    1    5    5    0    0  0.11903000052E+02 -0.40658684768E+02  0.31307846025E+02  0.52687676737E+02  0.10000000000E+01 0.  1.
        -13    1    6    6    0    0 -0.88839667136E+00 -0.37628260241E+01  0.25458905544E+01  0.46304094903E+01  0.10500000000E+00 0.  1.
         13    1    6    6    0    0 -0.11311161919E+01 -0.42039729394E+01  0.28086294490E+01  0.51819143853E+01  0.10500000000E+00 0. -1.
</event>
<event>
11    0  0.3448258E-009  0.9118800E+02  0.7816531E-02  0.1126479E+00
         25   -1    0    0    0    0  0.00000000000E+00  0.00000000000E+00  0.99999998245E-14  0.12500000000E+03  0.12500000000E+03 0.  0.
    3000001    1    3    3    0    0  0.23028923714E+01  0.92206487972E+00 -0.13608183390E+02  0.13868531721E+02  0.10000000000E+01 0. -1.
    1000022    2    1    0    0    0  0.36974793435E+01 -0.12836993399E+02 -0.60231142085E+02  0.62499996183E+02  0.99999646443E+01 0.  0.
    3000022    2    3    3    0    0  0.13945869721E+01 -0.13759058279E+02 -0.46622958695E+02  0.48631464462E+02  0.25000127727E+00 0.  0.
    1000022    2    1    0    0    0 -0.36974793435E+01  0.12836993399E+02  0.60231142085E+02  0.62500003817E+02  0.10000012362E+02 0.  0.
    3000022    2    5    5    0    0 -0.64185423378E+01  0.66178203795E+01  0.25982036801E+02  0.27570310008E+02  0.25005052665E+00 0.  0.
        -13    1    4    4    0    0  0.66396285024E+00 -0.68323000442E+01 -0.22925261635E+02  0.23931147415E+02  0.10500000000E+00 0. -1.
         13    1    4    4    0    0  0.73062412186E+00 -0.69267582344E+01 -0.23697697061E+02  0.24700317047E+02  0.10500000000E+00 0.  1.
    3000001    1    5    5    0    0  0.27210629943E+01  0.62191730193E+01  0.34249105284E+02  0.34929693809E+02  0.10000000000E+01 0.  1.
        -13    1    6    6    0    0 -0.25237411896E+01  0.26927600383E+01  0.10403172775E+02  0.11038897364E+02  0.10500000000E+00 0. -1.
         13    1    6    6    0    0 -0.38948011482E+01  0.39250603412E+01  0.15578864026E+02  0.16531412644E+02  0.10500000000E+00 0.  1.
</event>
<event>
11    0  0.3448258E-009  0.9118800E+02  0.7816531E-02  0.1126479E+00
         25   -1    0    0    0    0  0.00000000000E+00  0.00000000000E+00  0.99999998245E-14  0.12500000000E+03  0.12500000000E+03 0.  0.
    3000001    1    3    3    0    0 -0.18657959409E+02  0.10007878243E+02  0.31196867773E+02  0.37716331146E+02  0.10000000000E+01 0.  1.
    1000022    2    1    0    0    0 -0.34245723269E+02  0.21720379991E+02  0.46494144380E+02  0.62500000163E+02  0.10000004483E+02 0.  0.
    3000022    2    3    3    0    0 -0.15587763859E+02  0.11712501748E+02  0.15297276606E+02  0.24783669017E+02  0.24999810872E+00 0.  0.
    1000022    2    1    0    0    0  0.34245723269E+02 -0.21720379991E+02 -0.46494144380E+02  0.62499999837E+02  0.10000002444E+02 0.  0.
    3000022    2    5    5    0    0  0.30447715832E+02 -0.15645225411E+02 -0.41021530534E+02  0.53429064606E+02  0.24999961012E+00 0.  0.
        -13    1    4    4    0    0 -0.83051599886E+01  0.62386708498E+01  0.80639287902E+01  0.13150462689E+02  0.10500000000E+00 0. -1.
         13    1    4    4    0    0 -0.72826038706E+01  0.54738308983E+01  0.72333478162E+01  0.11633206328E+02  0.10500000000E+00 0.  1.
    3000001    1    5    5    0    0  0.37980074371E+01 -0.60751545794E+01 -0.54726138457E+01  0.90709352307E+01  0.10000000000E+01 0. -1.
        -13    1    6    6    0    0  0.16179133453E+02 -0.83348194893E+01 -0.21708542410E+02  0.28328526502E+02  0.10500000000E+00 0.  1.
         13    1    6    6    0    0  0.14268582378E+02 -0.73104059221E+01 -0.19312988124E+02  0.25100538104E+02  0.10500000000E+00 0. -1.
</event>
<event>
11    0  0.3448258E-009  0.9118800E+02  0.7816531E-02  0.1126479E+00
         25   -1    0    0    0    0  0.00000000000E+00  0.00000000000E+00  0.99999998245E-14  0.12500000000E+03  0.12500000000E+03 0.  0.
    3000001    1    3    3    0    0 -0.29550096777E+02 -0.54233614992E+01  0.74726720666E+00  0.30069577279E+02  0.10000000000E+01 0. -1.
    1000022    2    1    0    0    0 -0.59833811431E+02 -0.12383700876E+02 -0.85328309727E+01  0.62500001599E+02  0.99999978855E+01 0.  0.
    3000022    2    3    3    0    0 -0.30283714654E+02 -0.69603393765E+01 -0.92800981794E+01  0.32430424319E+02  0.25000368603E+00 0.  0.
    1000022    2    1    0    0    0  0.59833811431E+02  0.12383700876E+02  0.85328309727E+01  0.62499998401E+02  0.99999779031E+01 0.  0.
    3000022    2    5    5    0    0  0.43753104692E+02  0.88358659734E+01  0.10585376642E+02  0.45875041095E+02  0.24999827030E+00 0.  0.
        -13    1    4    4    0    0 -0.13668333293E+02 -0.30822555122E+01 -0.42194396059E+01  0.14633466084E+02  0.10500000000E+00 0.  1.
         13    1    4    4    0    0 -0.16615381361E+02 -0.38780838642E+01 -0.50606585735E+01  0.17796958235E+02  0.10500000000E+00 0. -1.
    3000001    1    5    5    0    0  0.16080706738E+02  0.35478349023E+01 -0.20525456695E+01  0.16624957306E+02  0.10000000000E+01 0.  1.
        -13    1    6    6    0    0  0.32042259924E+02  0.64973229667E+01  0.77774054645E+01  0.33606854770E+02  0.10500000000E+00 0.  1.
         13    1    6    6    0    0  0.11710844769E+02  0.23385430066E+01  0.28079711776E+01  0.12268186326E+02  0.10500000000E+00 0. -1.
</event>
<event>
11    0  0.3448258E-009  0.9118800E+02  0.7816531E-02  0.1126479E+00
         25   -1    0    0    0    0  0.00000000000E+00  0.00000000000E+00  0.99999998245E-14  0.12500000000E+03  0.12500000000E+03 0.  0.
    3000001    1    3    3    0    0 -0.24506945351E+01  0.33479159533E+01 -0.27620512663E+00  0.42767667936E+01  0.10000000000E+01 0. -1.
    1000022    2    1    0    0    0 -0.56572918373E+01  0.59299611019E+02 -0.16056187564E+02  0.62499999199E+02  0.99999961461E+01 0.  0.
    3000022    2    3    3    0    0 -0.32065973021E+01  0.55951695065E+02 -0.15779982437E+02  0.58223232406E+02  0.24999819431E+00 0.  0.
    1000022    2    1    0    0    0  0.56572918373E+01 -0.59299611019E+02  0.16056187564E+02  0.62500000801E+02  0.10000006156E+02 0.  0.
    3000022    2    5    5    0    0 -0.14312057841E+01 -0.11028112042E+02 -0.11471942452E-01  0.11123409886E+02  0.25002137703E+00 0.  0.
        -13    1    4    4    0    0 -0.19123499680E+01  0.33291226466E+02 -0.93232846860E+01  0.34625099341E+02  0.10500000000E+00 0.  1.
         13    1    4    4    0    0 -0.12942473341E+01  0.22660468599E+02 -0.64566977510E+01  0.23598133065E+02  0.10500000000E+00 0. -1.
    3000001    1    5    5    0    0  0.70884976214E+01 -0.48271498977E+02  0.16067659506E+02  0.51376590915E+02  0.10000000000E+01 0.  1.
        -13    1    6    6    0    0 -0.51827402123E+00 -0.36276447653E+01  0.20067201765E-01  0.36660390337E+01  0.10500000000E+00 0. -1.
         13    1    6    6    0    0 -0.91293176291E+00 -0.74004672765E+01 -0.31539144217E-01  0.74573708525E+01  0.10500000000E+00 0.  1.
</event>
<event>
11    0  0.3448258E-009  0.9118800E+02  0.7816531E-02  0.1126479E+00
         25   -1    0    0    0    0  0.00000000000E+00  0.00000000000E+00  0.99999998245E-14  0.12500000000E+03  0.12500000000E+03 0.  0.
    3000001    1    3    3    0    0  0.85390254751E+01 -0.11330797456E+02 -0.72919109288E+00  0.14241967796E+02  0.10000000000E+01 0. -1.
    1000022    2    1    0    0    0  0.36091379903E+02 -0.47846966813E+02  0.14640011653E+02  0.62500000750E+02  0.10000010802E+02 0.  0.
    3000022    2    3    3    0    0  0.27552354428E+02 -0.36516169357E+02  0.15369202746E+02  0.48258032954E+02  0.24998500676E+00 0.  0.
    1000022    2    1    0    0    0 -0.36091379903E+02  0.47846966813E+02 -0.14640011653E+02  0.62499999250E+02  0.10000001428E+02 0.  0.
    3000022    2    5    5    0    0 -0.73474567742E+01  0.10976212357E+02  0.85343926724E+00  0.13238323757E+02  0.24999710155E+00 0.  0.
        -13    1    4    4    0    0  0.64915001014E+01 -0.86224427837E+01  0.36373397412E+01  0.11389791856E+02  0.10500000000E+00 0. -1.
         13    1    4    4    0    0  0.21060854326E+02 -0.27893726573E+02  0.11731863005E+02  0.36868241098E+02  0.10500000000E+00 0.  1.
    3000001    1    5    5    0    0 -0.28743923129E+02  0.36870754455E+02 -0.15493450921E+02  0.49261675493E+02  0.10000000000E+01 0. -1.
        -13    1    6    6    0    0 -0.24591831666E+01  0.35825500236E+01  0.26663710661E+00  0.43548096244E+01  0.10500000000E+00 0.  1.
         13    1    6    6    0    0 -0.48882736076E+01  0.73936623339E+01  0.58680216063E+00  0.88835141327E+01  0.10500000000E+00 0. -1.
</event>
<event>
11    0  0.3448258E-009  0.9118800E+02  0.7816531E-02  0.1126479E+00
         25   -1    0    0    0    0  0.00000000000E+00  0.00000000000E+00  0.99999998245E-14  0.12500000000E+03  0.12500000000E+03 0.  0.
    3000001    1    3    3    0    0  0.17317679376E+02 -0.11483517832E+02  0.82624133511E+01  0.22383937883E+02  0.10000000000E+01 0.  1.
    1000022    2    1    0    0    0  0.53931235861E+02 -0.27431852845E+02  0.12048452331E+02  0.62500000621E+02  0.10000006100E+02 0.  0.
    3000022    2    3    3    0    0  0.36613556485E+02 -0.15948335013E+02  0.37860389804E+01  0.40116062738E+02  0.24998049422E+00 0.  0.
    1000022    2    1    0    0    0 -0.53931235861E+02  0.27431852845E+02 -0.12048452331E+02  0.62499999379E+02  0.99999983370E+01 0.  0.
    3000022    2    5    5    0    0 -0.13209239055E+02  0.41292738295E+01  0.73526823104E+00  0.13861385869E+02  0.25000018037E+00 0.  0.
        -13    1    4    4    0    0  0.17687617121E+02 -0.77703531100E+01  0.18008147957E+01  0.19403199370E+02  0.10500000000E+00 0.  1.
         13    1    4    4    0    0  0.18925939364E+02 -0.81779819034E+01  0.19852241847E+01  0.20712863368E+02  0.10500000000E+00 0. -1.
    3000001    1    5    5    0    0 -0.40721996807E+02  0.23302579016E+02 -0.12783720563E+02  0.48638613510E+02  0.10000000000E+01 0.  1.
        -13    1    6    6    0    0 -0.82245572027E+01  0.25945084813E+01  0.40193704680E+00  0.86340832652E+01  0.10500000000E+00 0.  1.
         13    1    6    6    0    0 -0.49846818518E+01  0.15347653482E+01  0.33333118424E+00  0.52273026042E+01  0.10500000000E+00 0. -1.
</event>
<event>
11    0  0.3448258E-009  0.9118800E+02  0.7816531E-02  0.1126479E+00
         25   -1    0    0    0    0  0.00000000000E+00  0.00000000000E+00  0.99999998245E-14  0.12500000000E+03  0.12500000000E+03 0.  0.
    3000001    1    3    3    0    0  0.14889845265E+02  0.28960405985E+02 -0.18461354582E+02  0.37446417984E+02  0.10000000000E+01 0.  1.
    1000022    2    1    0    0    0  0.30797832223E+02  0.47000114963E+02 -0.25470232691E+02  0.62500000781E+02  0.10000003406E+02 0.  0.
    3000022    2    3    3    0    0  0.15907986958E+02  0.18039708978E+02 -0.70088781095E+01  0.25053582797E+02  0.24997911784E+00 0.  0.
    1000022    2    1    0    0    0 -0.30797832223E+02 -0.47000114963E+02  0.25470232691E+02  0.62499999219E+02  0.99999936417E+01 0.  0.
    3000022    2    5    5    0    0 -0.27326676692E+02 -0.34496780821E+02  0.20747966954E+02  0.48655069494E+02  0.25001742033E+00 0.  0.
        -13    1    4    4    0    0  0.99646794698E+01  0.11385262922E+02 -0.44290368104E+01  0.15765355714E+02  0.10500000000E+00 0.  1.
         13    1    4    4    0    0  0.59433074878E+01  0.66544460559E+01 -0.25798412992E+01  0.92882270824E+01  0.10500000000E+00 0. -1.
    3000001    1    5    5    0    0 -0.34711555308E+01 -0.12503334142E+02  0.47222657372E+01  0.13844929725E+02  0.10000000000E+01 0. -1.
        -13    1    6    6    0    0 -0.19934124793E+02 -0.25162854587E+02  0.15094325274E+02  0.35473768657E+02  0.10500000000E+00 0.  1.
         13    1    6    6    0    0 -0.73925518988E+01 -0.93339262339E+01  0.56536416798E+01  0.13181300837E+02  0.10500000000E+00 0. -1.
</event>
<event>
11    0  0.3448258E-009  0.9118800E+02  0.7816531E-02  0.1126479E+00
         25   -1    0    0    0    0  0.00000000000E+00  0.00000000000E+00  0.99999998245E-14  0.12500000000E+03  0.12500000000E+03 0.  0.
    3000001    1    3    3    0    0 -0.75369774700E+01 -0.32428536787E+02 -0.49463530028E+02  0.59632682569E+02  0.10000000000E+01 0. -1.
    1000022    2    1    0    0    0 -0.59912312254E+01 -0.34362892294E+02 -0.50887590375E+02  0.62500000053E+02  0.99999967027E+01 0.  0.
    3000022    2    3    3    0    0  0.15457462446E+01 -0.19343555076E+01 -0.14240603467E+01  0.28673174843E+01  0.24999800434E+00 0.  0.
    1000022    2    1    0    0    0  0.59912312254E+01  0.34362892294E+02  0.50887590375E+02  0.62499999947E+02  0.99999960367E+01 0.  0.
    3000022    2    5    5    0    0  0.69270662316E-01 -0.37535154254E+00  0.30050050653E+01  0.30394485052E+01  0.25000913653E+00 0.  0.
        -13    1    4    4    0    0  0.43533221425E+00 -0.58439643585E+00 -0.37923870405E+00  0.82817892128E+00  0.10500000000E+00 0. -1.
         13    1    4    4    0    0  0.11104140304E+01 -0.13499590717E+01 -0.10448216427E+01  0.20391385630E+01  0.10500000000E+00 0.  1.
    3000001    1    5    5    0    0  0.59219605631E+01  0.34738243837E+02  0.47882585310E+02  0.59460551441E+02  0.10000000000E+01 0. -1.
        -13    1    6    6    0    0  0.41858071937E-01 -0.29385856172E+00  0.18643769151E+01  0.18907752997E+01  0.10500000000E+00 0. -1.
         13    1    6    6    0    0  0.27412590380E-01 -0.81492980827E-01  0.11406281502E+01  0.11486732055E+01  0.10500000000E+00 0.  1.
</event>
<event>
11    0  0.3448258E-009  0.9118800E+02  0.7816531E-02  0.1126479E+00
         25   -1    0    0    0    0  0.00000000000E+00  0.00000000000E+00  0.99999998245E-14  0.12500000000E+03  0.12500000000E+03 0.  0.
    3000001    1    3    3    0    0  0.98045860505E+01  0.18349672519E+02  0.15270884433E+02  0.25827123350E+02  0.10000000000E+01 0. -1.
    1000022    2    1    0    0    0  0.33357138382E+02  0.37790962717E+02  0.35572383899E+02  0.62499999845E+02  0.99999970116E+01 0.  0.
    3000022    2    3    3    0    0  0.23552552332E+02  0.19441290198E+02  0.20301499466E+02  0.36672876495E+02  0.25000786040E+00 0.  0.
    1000022    2    1    0    0    0 -0.33357138382E+02 -0.37790962717E+02 -0.35572383899E+02  0.62500000155E+02  0.99999989482E+01 0.  0.
    3000022    2    5    5    0    0 -0.88274586067E+00 -0.15166018967E+01 -0.42351850594E+01  0.45911454461E+01  0.25000490422E+00 0.  0.
        -13    1    4    4    0    0  0.13289878931E+02  0.11053513370E+02  0.11474355688E+02  0.20747840930E+02  0.10500000000E+00 0. -1.
         13    1    4    4    0    0  0.10262673401E+02  0.83877768278E+01  0.88271437782E+01  0.15925035564E+02  0.10500000000E+00 0.  1.
    3000001    1    5    5    0    0 -0.32474392522E+02 -0.36274360820E+02 -0.31337198840E+02  0.57908854709E+02  0.10000000000E+01 0.  1.
        -13    1    6    6    0    0 -0.47692404859E+00 -0.79553115641E+00 -0.24079556724E+01  0.25825572383E+01  0.10500000000E+00 0. -1.
         13    1    6    6    0    0 -0.40582181208E+00 -0.72107074033E+00 -0.18272293870E+01  0.20085882078E+01  0.10500000000E+00 0.  1.
</event>
<event>
11    0  0.3448258E-009  0.9118800E+02  0.7816531E-02  0.1126479E+00
         25   -1    0    0    0    0  0.00000000000E+00  0.00000000000E+00  0.99999998245E-14  0.12500000000E+03  0.12500000000E+03 0.  0.
    3000001    1    3    3    0    0 -0.27781449632E+02 -0.31256668696E+02 -0.31188967267E+02  0.52177964323E+02  0.10000000000E+01 0. -1.
    1000022    2    1    0    0    0 -0.29532618612E+02 -0.39714565361E+02 -0.36835143352E+02  0.62499999744E+02  0.99999959168E+01 0.  0.
    3000022    2    3    3    0    0 -0.17511689794E+01 -0.84578966649E+01 -0.56461760852E+01  0.10322035421E+02  0.25000413816E+00 0.  0.
    1000022    2    1    0    0    0  0.29532618612E+02  0.39714565361E+02  0.36835143352E+02  0.62500000256E+02  0.99999991172E+01 0.  0.
    3000022    2    5    5    0    0  0.11435429148E+01  0.12583057749E+01 -0.55426595098E+00  0.18057546613E+01  0.25003066005E+00 0.  0.
        -13    1    4    4    0    0 -0.46141057104E+00 -0.22523597063E+01 -0.15447835831E+01  0.27718956113E+01  0.10500000000E+00 0.  1.
         13    1    4    4    0    0 -0.12897584083E+01 -0.62055369586E+01 -0.41013925021E+01  0.75501398101E+01  0.10500000000E+00 0. -1.
    3000001    1    5    5    0    0  0.28389075697E+02  0.38456259586E+02  0.37389409303E+02  0.60694245595E+02  0.10000000000E+01 0.  1.
        -13    1    6    6    0    0  0.68141898349E+00  0.83771672036E+00 -0.35265091355E+00  0.11408281209E+01  0.10500000000E+00 0. -1.
         13    1    6    6    0    0  0.46212393136E+00  0.42058905456E+00 -0.20161503742E+00  0.66492654035E+00  0.10500000000E+00 0.  1.
</event>
<event>
11    0  0.3448258E-009  0.9118800E+02  0.7816531E-02  0.1126479E+00
         25   -1    0    0    0    0  0.00000000000E+00  0.00000000000E+00  0.99999998245E-14  0.12500000000E+03  0.12500000000E+03 0.  0.
    3000001    1    3    3    0    0 -0.50624659571E+01  0.78026013356E+01 -0.45931933488E+01  0.10421447803E+02  0.10000000000E+01 0. -1.
    1000022    2    1    0    0    0 -0.22922519622E+02  0.35829839180E+02 -0.44688148958E+02  0.62499999531E+02  0.10000000127E+02 0.  0.
    3000022    2    3    3    0    0 -0.17860053665E+02  0.28027237845E+02 -0.40094955610E+02  0.52078551728E+02  0.25001328811E+00 0.  0.
    1000022    2    1    0    0    0  0.22922519622E+02 -0.35829839180E+02  0.44688148958E+02  0.62500000469E+02  0.10000005986E+02 0.  0.
    3000022    2    5    5    0    0  0.15912310536E+02 -0.15698404461E+02  0.22903002756E+02  0.32003930388E+02  0.24999164310E+00 0.  0.
        -13    1    4    4    0    0 -0.11553646854E+02  0.18062857431E+02 -0.25937163359E+02  0.33652652828E+02  0.10500000000E+00 0.  1.
         13    1    4    4    0    0 -0.63064068112E+01  0.99643804134E+01 -0.14157792250E+02  0.18425898901E+02  0.10500000000E+00 0. -1.
    3000001    1    5    5    0    0  0.70102090860E+01 -0.20131434720E+02  0.21785146202E+02  0.30496070080E+02  0.10000000000E+01 0.  1.
        -13    1    6    6    0    0  0.10129600877E+02 -0.10037456996E+02  0.14681617528E+02  0.20467541990E+02  0.10500000000E+00 0.  1.
         13    1    6    6    0    0  0.57827096591E+01 -0.56609474646E+01  0.82213852284E+01  0.11536388398E+02  0.10500000000E+00 0. -1.
</event>
<event>
11    0  0.3448258E-009  0.9118800E+02  0.7816531E-02  0.1126479E+00
         25   -1    0    0    0    0  0.00000000000E+00  0.00000000000E+00  0.99999998245E-14  0.12500000000E+03  0.12500000000E+03 0.  0.
    3000001    1    3    3    0    0 -0.33019359473E+01 -0.10242469415E+02 -0.18224979255E+01  0.10960495399E+02  0.10000000000E+01 0. -1.
    1000022    2    1    0    0    0  0.63098618301E+00 -0.61616686864E+02 -0.30390736244E+01  0.62500001133E+02  0.99999964748E+01 0.  0.
    3000022    2    3    3    0    0  0.39329221303E+01 -0.51374217449E+02 -0.12165756989E+01  0.51539505734E+02  0.24999968589E+00 0.  0.
    1000022    2    1    0    0    0 -0.63098618301E+00  0.61616686864E+02  0.30390736244E+01  0.62499998867E+02  0.99999823118E+01 0.  0.
    3000022    2    5    5    0    0 -0.48169886976E+01  0.26057613444E+02 -0.51704565271E+00  0.26505328375E+02  0.24999507137E+00 0.  0.
        -13    1    4    4    0    0  0.21228477819E+01 -0.26946222534E+02 -0.60684084529E+00  0.27036728211E+02  0.10500000000E+00 0. -1.
         13    1    4    4    0    0  0.18100743484E+01 -0.24427994915E+02 -0.60973485359E+00  0.24502777523E+02  0.10500000000E+00 0.  1.
    3000001    1    5    5    0    0  0.41860025146E+01  0.35559073420E+02  0.35561192771E+01  0.35994670492E+02  0.10000000000E+01 0.  1.
        -13    1    6    6    0    0 -0.27481448820E+01  0.14618024569E+02 -0.33849675648E+00  0.14878324759E+02  0.10500000000E+00 0.  1.
         13    1    6    6    0    0 -0.20688438156E+01  0.11439588875E+02 -0.17854889623E+00  0.11627003615E+02  0.10500000000E+00 0. -1.
</event>
<event>
11    0  0.3448258E-009  0.9118800E+02  0.7816531E-02  0.1126479E+00
         25   -1    0    0    0    0  0.00000000000E+00  0.00000000000E+00  0.99999998245E-14  0.12500000000E+03  0.12500000000E+03 0.  0.
    3000001    1    3    3    0    0 -0.80317937873E+01  0.10241781874E+01  0.18098437587E+02  0.19852256685E+02  0.10000000000E+01 0. -1.
    1000022    2    1    0    0    0 -0.24507585121E+02 -0.11098058152E+02  0.55519918168E+02  0.62500000176E+02  0.10000004269E+02 0.  0.
    3000022    2    3    3    0    0 -0.16475791334E+02 -0.12122236339E+02  0.37421480582E+02  0.42647743491E+02  0.25000407005E+00 0.  0.
    1000022    2    1    0    0    0  0.24507585121E+02  0.11098058152E+02 -0.55519918168E+02  0.62499999824E+02  0.10000002066E+02 0.  0.
    3000022    2    5    5    0    0  0.25053076421E+02  0.10035672267E+02 -0.50723564639E+02  0.57457061027E+02  0.24999235018E+00 0.  0.
        -13    1    4    4    0    0 -0.12148133363E+02 -0.89610002947E+01  0.27671530196E+02  0.31521441573E+02  0.10500000000E+00 0. -1.
         13    1    4    4    0    0 -0.43276579711E+01 -0.31612360444E+01  0.97499503860E+01  0.11126301918E+02  0.10500000000E+00 0.  1.
    3000001    1    5    5    0    0 -0.54549129980E+00  0.10623858848E+01 -0.47963535294E+01  0.50429387966E+01  0.10000000000E+01 0. -1.
        -13    1    6    6    0    0  0.58066627963E+01  0.23348910071E+01 -0.11777146061E+02  0.13337212722E+02  0.10500000000E+00 0. -1.
         13    1    6    6    0    0  0.19246413625E+02  0.77007812597E+01 -0.38946418578E+02  0.44119848305E+02  0.10500000000E+00 0.  1.
</event>
<event>
11    0  0.3448258E-009  0.9118800E+02  0.7816531E-02  0.1126479E+00
         25   -1    0    0    0    0  0.00000000000E+00  0.00000000000E+00  0.99999998245E-14  0.12500000000E+03  0.12500000000E+03 0.  0.
    3000001    1    3    3    0    0  0.57646253685E+01 -0.32174295652E+00  0.12509312847E+01  0.59915985553E+01  0.10000000000E+01 0. -1.
    1000022    2    1    0    0    0  0.56470065188E+02  0.24330525016E+02  0.50406887665E+01  0.62500011190E+02  0.10000007286E+02 0.  0.
    3000022    2    3    3    0    0  0.50705439819E+02  0.24652267972E+02  0.37897574819E+01  0.56508412635E+02  0.24998666753E+00 0.  0.
    1000022    2    1    0    0    0 -0.56470065188E+02 -0.24330525016E+02 -0.50406887665E+01  0.62499988810E+02  0.99998674058E+01 0.  0.
    3000022    2    5    5    0    0 -0.48543921449E+02 -0.18569038358E+02 -0.70396192498E+01  0.52449406431E+02  0.25000120864E+00 0.  0.
        -13    1    4    4    0    0  0.29362007862E+02  0.14343345005E+02  0.22182026199E+01  0.32753480724E+02  0.10500000000E+00 0. -1.
         13    1    4    4    0    0  0.21343431957E+02  0.10308922968E+02  0.15715548619E+01  0.23754931911E+02  0.10500000000E+00 0.  1.
    3000001    1    5    5    0    0 -0.79261437388E+01 -0.57614866577E+01  0.19989304833E+01  0.10050582379E+02  0.10000000000E+01 0. -1.
        -13    1    6    6    0    0 -0.13892070248E+02 -0.52694432901E+01 -0.20140608951E+01  0.14994136009E+02  0.10500000000E+00 0. -1.
         13    1    6    6    0    0 -0.34651851201E+02 -0.13299595068E+02 -0.50255583547E+01  0.37455270422E+02  0.10500000000E+00 0.  1.
</event>
<event>
11    0  0.3448258E-009  0.9118800E+02  0.7816531E-02  0.1126479E+00
         25   -1    0    0    0    0  0.00000000000E+00  0.00000000000E+00  0.99999998245E-14  0.12500000000E+03  0.12500000000E+03 0.  0.
    3000001    1    3    3    0    0 -0.39530646502E+02  0.79785337122E+01 -0.43270653779E+02  0.59158080526E+02  0.10000000000E+01 0. -1.
    1000022    2    1    0    0    0 -0.39705165940E+02  0.77049745065E+01 -0.46587372984E+02  0.62499999071E+02  0.99999863974E+01 0.  0.
    3000022    2    3    3    0    0 -0.17451943727E+00 -0.27355920575E+00 -0.33167192052E+01  0.33419185454E+01  0.25000320905E+00 0.  0.
    1000022    2    1    0    0    0  0.39705165940E+02 -0.77049745065E+01  0.46587372984E+02  0.62500000929E+02  0.99999980052E+01 0.  0.
    3000022    2    5    5    0    0  0.95724640444E+00 -0.58351693444E+00  0.53005661397E+01  0.54235885883E+01  0.24999816515E+00 0.  0.
        -13    1    4    4    0    0 -0.84757352783E-01 -0.12614673634E+00 -0.21424160570E+01  0.21503647061E+01  0.10500000000E+00 0.  1.
         13    1    4    4    0    0 -0.89762084486E-01 -0.14741246942E+00 -0.11743031482E+01  0.11915538393E+01  0.10500000000E+00 0. -1.
    3000001    1    5    5    0    0  0.38747919535E+02 -0.71214575720E+01  0.41286806844E+02  0.57076412340E+02  0.10000000000E+01 0. -1.
        -13    1    6    6    0    0  0.44915451940E+00 -0.23088842384E+00  0.26573382414E+01  0.27069393742E+01  0.10500000000E+00 0. -1.
         13    1    6    6    0    0  0.50809188504E+00 -0.35262851059E+00  0.26432278983E+01  0.27166492141E+01  0.10500000000E+00 0.  1.
</event>
<event>
11    0  0.3448258E-009  0.9118800E+02  0.7816531E-02  0.1126479E+00
         25   -1    0    0    0    0  0.00000000000E+00  0.00000000000E+00  0.99999998245E-14  0.12500000000E+03  0.12500000000E+03 0.  0.
    3000001    1    3    3    0    0 -0.21615270417E+02  0.41584566537E+02 -0.15940902895E+02  0.49513720062E+02  0.10000000000E+01 0.  1.
    1000022    2    1    0    0    0 -0.28132052271E+02  0.49366258060E+02 -0.24037680760E+02  0.62500000514E+02  0.10000008408E+02 0.  0.
    3000022    2    3    3    0    0 -0.65167818541E+01  0.77816915231E+01 -0.80967778645E+01  0.12986280452E+02  0.24999901196E+00 0.  0.
    1000022    2    1    0    0    0  0.28132052271E+02 -0.49366258060E+02  0.24037680760E+02  0.62499999486E+02  0.10000001979E+02 0.  0.
    3000022    2    5    5    0    0  0.18252567518E+02 -0.22095003937E+02  0.12512545684E+02  0.31272539472E+02  0.25001105661E+00 0.  0.
        -13    1    4    4    0    0 -0.16802685242E+01  0.20324099046E+01 -0.21389901584E+01  0.33971011512E+01  0.10500000000E+00 0.  1.
         13    1    4    4    0    0 -0.48365133299E+01  0.57492816185E+01 -0.59577877062E+01  0.95891793012E+01  0.10500000000E+00 0. -1.
    3000001    1    5    5    0    0  0.98794847529E+01 -0.27271254122E+02  0.11525135075E+02  0.31227460013E+02  0.10000000000E+01 0.  1.
        -13    1    6    6    0    0  0.12644237668E+02 -0.15338075403E+02  0.86316726712E+01  0.21671412077E+02  0.10500000000E+00 0. -1.
         13    1    6    6    0    0  0.56083298502E+01 -0.67569285341E+01  0.38808730132E+01  0.96011273957E+01  0.10500000000E+00 0.  1.
</event>
<event>
11    0  0.3448258E-009  0.9118800E+02  0.7816531E-02  0.1126479E+00
         25   -1    0    0    0    0  0.00000000000E+00  0.00000000000E+00  0.99999998245E-14  0.12500000000E+03  0.12500000000E+03 0.  0.
    3000001    1    3    3    0    0  0.13815299846E+01  0.18882144034E+02  0.55789000491E+01  0.19762796214E+02  0.10000000000E+01 0. -1.
    1000022    2    1    0    0    0  0.17277999569E+02  0.54948519367E+02  0.22099342568E+02  0.62500001263E+02  0.10000008309E+02 0.  0.
    3000022    2    3    3    0    0  0.15896469585E+02  0.36066375333E+02  0.16520442519E+02  0.42737205049E+02  0.24999897994E+00 0.  0.
    1000022    2    1    0    0    0 -0.17277999569E+02 -0.54948519367E+02 -0.22099342568E+02  0.62499998737E+02  0.99999925231E+01 0.  0.
    3000022    2    5    5    0    0 -0.11760644476E+01 -0.50371093049E+01 -0.53279928684E+01  0.74300492202E+01  0.25005134328E+00 0.  0.
        -13    1    4    4    0    0  0.71661328977E+01  0.16417639169E+02  0.75290537611E+01  0.19431675484E+02  0.10500000000E+00 0. -1.
         13    1    4    4    0    0  0.87303366871E+01  0.19648736164E+02  0.89913887576E+01  0.23305529565E+02  0.10500000000E+00 0.  1.
    3000001    1    5    5    0    0 -0.16101935122E+02 -0.49911410062E+02 -0.16771349699E+02  0.55069949517E+02  0.10000000000E+01 0. -1.
        -13    1    6    6    0    0 -0.65261920866E+00 -0.30535393555E+01 -0.32461209643E+01  0.45053679918E+01  0.10500000000E+00 0. -1.
         13    1    6    6    0    0 -0.52344523889E+00 -0.19835699494E+01 -0.20818719041E+01  0.29246812284E+01  0.10500000000E+00 0.  1.
</event>
<event>
11    0  0.3448258E-009  0.9118800E+02  0.7816531E-02  0.1126479E+00
         25   -1    0    0    0    0  0.00000000000E+00  0.00000000000E+00  0.99999998245E-14  0.12500000000E+03  0.12500000000E+03 0.  0.
    3000001    1    3    3    0    0  0.14966859309E+02  0.48395839760E+02 -0.14044229923E+02  0.52577605287E+02  0.10000000000E+01 0. -1.
    1000022    2    1    0    0    0  0.20224602358E+02  0.56766539797E+02 -0.13220264264E+02  0.62499998944E+02  0.99999949805E+01 0.  0.
    3000022    2    3    3    0    0  0.52577430495E+01  0.83707000377E+01  0.82396565871E+00  0.99223936563E+01  0.24999073651E+00 0.  0.
    1000022    2    1    0    0    0 -0.20224602358E+02 -0.56766539797E+02  0.13220264264E+02  0.62500001056E+02  0.10000008186E+02 0.  0.
    3000022    2    5    5    0    0 -0.14784776796E+02 -0.36042960991E+02  0.12933782020E+02  0.41049115462E+02  0.25000196362E+00 0.  0.
        -13    1    4    4    0    0  0.18465938055E+01  0.29347225452E+01  0.23233302235E+00  0.34767094691E+01  0.10500000000E+00 0. -1.
         13    1    4    4    0    0  0.34111492440E+01  0.54359774925E+01  0.59163263636E+00  0.64456841871E+01  0.10500000000E+00 0.  1.
    3000001    1    5    5    0    0 -0.54398255623E+01 -0.20723578807E+02  0.28648224365E+00  0.21450885595E+02  0.10000000000E+01 0. -1.
        -13    1    6    6    0    0 -0.73611446513E+01 -0.17787005501E+02  0.63578075993E+01  0.20273054969E+02  0.10500000000E+00 0. -1.
         13    1    6    6    0    0 -0.74236321445E+01 -0.18255955489E+02  0.65759744211E+01  0.20776060493E+02  0.10500000000E+00 0.  1.
</event>
<event>
11    0  0.3448258E-009  0.9118800E+02  0.7816531E-02  0.1126479E+00
         25   -1    0    0    0    0  0.00000000000E+00  0.00000000000E+00  0.99999998245E-14  0.12500000000E+03  0.12500000000E+03 0.  0.
    3000001    1    3    3    0    0 -0.55309689221E+02 -0.21002252967E+02  0.17950707816E+02  0.61834329159E+02  0.10000000000E+01 0.  1.
    1000022    2    1    0    0    0 -0.54943045682E+02 -0.21174591997E+02  0.18415982610E+02  0.62500000869E+02  0.10000003906E+02 0.  0.
    3000022    2    3    3    0    0  0.36664353871E+00 -0.17233903041E+00  0.46527479374E+00  0.66567171088E+00  0.25001993339E+00 0.  0.
    1000022    2    1    0    0    0  0.54943045682E+02  0.21174591997E+02 -0.18415982610E+02  0.62499999131E+02  0.99999930378E+01 0.  0.
    3000022    2    5    5    0    0  0.19920477345E+02  0.67303611313E+01 -0.11530819289E+02  0.23982190624E+02  0.24999001387E+00 0.  0.
        -13    1    4    4    0    0  0.20988868328E+00 -0.15108830720E+00  0.21941220315E+00  0.35503190115E+00  0.10500000000E+00 0.  1.
         13    1    4    4    0    0  0.15675485543E+00 -0.21250723214E-01  0.24586259059E+00  0.31063980973E+00  0.10500000000E+00 0. -1.
    3000001    1    5    5    0    0  0.35022568337E+02  0.14444230866E+02 -0.68851633202E+01  0.38517808507E+02  0.10000000000E+01 0. -1.
        -13    1    6    6    0    0  0.55078635019E+01  0.18988866097E+01 -0.31791758940E+01  0.66378095090E+01  0.10500000000E+00 0. -1.
         13    1    6    6    0    0  0.14412613844E+02  0.48314745215E+01 -0.83516433953E+01  0.17344381115E+02  0.10500000000E+00 0.  1.
</event>
<event>
11    0  0.3448258E-009  0.9118800E+02  0.7816531E-02  0.1126479E+00
         25   -1    0    0    0    0  0.00000000000E+00  0.00000000000E+00  0.99999998245E-14  0.12500000000E+03  0.12500000000E+03 0.  0.
    3000001    1    3    3    0    0  0.16310735230E+02 -0.57075273279E+01  0.10505200770E+01  0.17341267092E+02  0.10000000000E+01 0. -1.
    1000022    2    1    0    0    0  0.51006255171E+02 -0.34197917244E+02  0.59257027236E+01  0.62500001900E+02  0.10000033714E+02 0.  0.
    3000022    2    3    3    0    0  0.34695519942E+02 -0.28490389916E+02  0.48751826466E+01  0.45158734808E+02  0.25000397594E+00 0.  0.
    1000022    2    1    0    0    0 -0.51006255171E+02  0.34197917244E+02 -0.59257027236E+01  0.62499998100E+02  0.10000009964E+02 0.  0.
    3000022    2    5    5    0    0 -0.11588280759E+02  0.10924701048E+02  0.19294632328E+01  0.16044396381E+02  0.24996583663E+00 0.  0.
        -13    1    4    4    0    0  0.15734817359E+02 -0.12904189191E+02  0.22757857472E+01  0.20476640393E+02  0.10500000000E+00 0. -1.
         13    1    4    4    0    0  0.18960702582E+02 -0.15586200726E+02  0.25993968993E+01  0.24682094415E+02  0.10500000000E+00 0.  1.
    3000001    1    5    5    0    0 -0.39417974413E+02  0.23273216196E+02 -0.78551659563E+01  0.46455601719E+02  0.10000000000E+01 0.  1.
        -13    1    6    6    0    0 -0.71724231159E+01  0.67177604020E+01  0.12430187391E+01  0.99059617786E+01  0.10500000000E+00 0. -1.
         13    1    6    6    0    0 -0.44158576427E+01  0.42069406460E+01  0.68644449372E+00  0.61384346020E+01  0.10500000000E+00 0.  1.
</event>
<event>
11    0  0.3448258E-009  0.9118800E+02  0.7816531E-02  0.1126479E+00
         25   -1    0    0    0    0  0.00000000000E+00  0.00000000000E+00  0.99999998245E-14  0.12500000000E+03  0.12500000000E+03 0.  0.
    3000001    1    3    3    0    0  0.17467363002E+02  0.70307652787E+01 -0.26029659486E+02  0.32141617937E+02  0.10000000000E+01 0.  1.
    1000022    2    1    0    0    0  0.26384450798E+02  0.96234520119E+01 -0.54931776579E+02  0.62500000080E+02  0.99999929690E+01 0.  0.
    3000022    2    3    3    0    0  0.89170877961E+01  0.25926867332E+01 -0.28902117093E+02  0.30358382143E+02  0.25002930609E+00 0.  0.
    1000022    2    1    0    0    0 -0.26384450798E+02 -0.96234520119E+01  0.54931776579E+02  0.62499999920E+02  0.99999919693E+01 0.  0.
    3000022    2    5    5    0    0 -0.17686631217E+01  0.87470145993E+00  0.87368080041E+00  0.21723449979E+01  0.24998553316E+00 0.  0.
        -13    1    4    4    0    0  0.55412557084E+01  0.15823177102E+01 -0.17755899687E+02  0.18667946938E+02  0.10500000000E+00 0. -1.
         13    1    4    4    0    0  0.33758320878E+01  0.10103690230E+01 -0.11146217405E+02  0.11690435205E+02  0.10500000000E+00 0.  1.
    3000001    1    5    5    0    0 -0.24615787676E+02 -0.10498153472E+02  0.54058095778E+02  0.60327654922E+02  0.10000000000E+01 0.  1.
        -13    1    6    6    0    0 -0.13184587339E+01  0.61432257600E+00  0.63989185410E+00  0.15925489774E+01  0.10500000000E+00 0. -1.
         13    1    6    6    0    0 -0.45020438773E+00  0.26037888393E+00  0.23378894630E+00  0.57979602046E+00  0.10500000000E+00 0.  1.
</event>
<event>
11    0  0.3448258E-009  0.9118800E+02  0.7816531E-02  0.1126479E+00
         25   -1    0    0    0    0  0.00000000000E+00  0.00000000000E+00  0.99999998245E-14  0.12500000000E+03  0.12500000000E+03 0.  0.
    3000001    1    3    3    0    0  0.74235992200E+01  0.35232043779E+02  0.19916615130E+02  0.41159182359E+02  0.10000000000E+01 0.  1.
    1000022    2    1    0    0    0  0.17692813213E+02  0.52412116518E+02  0.27316373738E+02  0.62500001892E+02  0.10000018245E+02 0.  0.
    3000022    2    3    3    0    0  0.10269213993E+02  0.17180072740E+02  0.73997586084E+01  0.21340819533E+02  0.24999098602E+00 0.  0.
    1000022    2    1    0    0    0 -0.17692813213E+02 -0.52412116518E+02 -0.27316373738E+02  0.62499998108E+02  0.99999946002E+01 0.  0.
    3000022    2    5    5    0    0 -0.15751342717E+01 -0.16891388227E+02 -0.10912184450E+02  0.20172712121E+02  0.25000130669E+00 0.  0.
        -13    1    4    4    0    0  0.39125775483E+01  0.64828529421E+01  0.27447926706E+01  0.80548468107E+01  0.10500000000E+00 0. -1.
         13    1    4    4    0    0  0.63566364451E+01  0.10697219797E+02  0.46549659379E+01  0.13285972722E+02  0.10500000000E+00 0.  1.
    3000001    1    5    5    0    0 -0.16117678942E+02 -0.35520728292E+02 -0.16404189288E+02  0.42327285987E+02  0.10000000000E+01 0.  1.
        -13    1    6    6    0    0 -0.11250068236E+01 -0.12416952584E+02 -0.80084835063E+01  0.14818676894E+02  0.10500000000E+00 0. -1.
         13    1    6    6    0    0 -0.45012744810E+00 -0.44744356430E+01 -0.29037009441E+01  0.53540352274E+01  0.10500000000E+00 0.  1.
</event>
<event>
11    0  0.3448258E-009  0.9118800E+02  0.7816531E-02  0.1126479E+00
         25   -1    0    0    0    0  0.00000000000E+00  0.00000000000E+00  0.99999998245E-14  0.12500000000E+03  0.12500000000E+03 0.  0.
    3000001    1    3    3    0    0  0.56905435927E+01  0.19164750214E+02 -0.15902002455E+02  0.25564499198E+02  0.10000000000E+01 0. -1.
    1000022    2    1    0    0    0  0.16247838994E+02  0.37698708974E+02 -0.46055022508E+02  0.62500000167E+02  0.99999996189E+01 0.  0.
    3000022    2    3    3    0    0  0.10557295401E+02  0.18533958760E+02 -0.30153020053E+02  0.36935500969E+02  0.25000006911E+00 0.  0.
    1000022    2    1    0    0    0 -0.16247838994E+02 -0.37698708974E+02  0.46055022508E+02  0.62499999833E+02  0.99999975337E+01 0.  0.
    3000022    2    5    5    0    0 -0.39757461188E+01 -0.10939086534E+02  0.20158434793E+02  0.23278641979E+02  0.25001534729E+00 0.  0.
        -13    1    4    4    0    0  0.36950688423E+01  0.64870150471E+01 -0.10652206191E+02  0.13008282735E+02  0.10500000000E+00 0. -1.
         13    1    4    4    0    0  0.68622265589E+01  0.12046943713E+02 -0.19500813861E+02  0.23927218234E+02  0.10500000000E+00 0.  1.
    3000001    1    5    5    0    0 -0.12272092875E+02 -0.26759622440E+02  0.25896587714E+02  0.39221357854E+02  0.10000000000E+01 0.  1.
        -13    1    6    6    0    0 -0.21951735109E+01 -0.58706912425E+01  0.10786144465E+02  0.12475405397E+02  0.10500000000E+00 0.  1.
         13    1    6    6    0    0 -0.17805726078E+01 -0.50683952916E+01  0.93722903289E+01  0.10803236582E+02  0.10500000000E+00 0. -1.
</event>
<event>
11    0  0.3448258E-009  0.9118800E+02  0.7816531E-02  0.1126479E+00
         25   -1    0    0    0    0  0.00000000000E+00  0.00000000000E+00  0.99999998245E-14  0.12500000000E+03  0.12500000000E+03 0.  0.
    3000001    1    3    3    0    0  0.43013907606E+01  0.14037224446E+01 -0.34377138927E+01  0.57697726112E+01  0.10000000000E+01 0. -1.
    1000022    2    1    0    0    0  0.51069404339E+02  0.31973188541E+02 -0.13262035213E+02  0.62500003983E+02  0.10000003745E+02 0.  0.
    3000022    2    3    3    0    0  0.46768013578E+02  0.30569466096E+02 -0.98243213199E+01  0.56730231372E+02  0.25002128620E+00 0.  0.
    1000022    2    1    0    0    0 -0.51069404339E+02 -0.31973188541E+02  0.13262035213E+02  0.62499996017E+02  0.99999539556E+01 0.  0.
    3000022    2    5    5    0    0 -0.44232245953E+01 -0.19979740731E+01 -0.15476819184E+01  0.51004551775E+01  0.25001495823E+00 0.  0.
        -13    1    4    4    0    0  0.24504832477E+02  0.16022953107E+02 -0.50796933652E+01  0.29715924194E+02  0.10500000000E+00 0.  1.
         13    1    4    4    0    0  0.22263181101E+02  0.14546512989E+02 -0.47446279547E+01  0.27014307178E+02  0.10500000000E+00 0. -1.
    3000001    1    5    5    0    0 -0.46646179744E+02 -0.29975214468E+02  0.14809717131E+02  0.57399540839E+02  0.10000000000E+01 0.  1.
        -13    1    6    6    0    0 -0.12092006238E+01 -0.53455138841E+00 -0.45974658401E+00  0.14036749115E+01  0.10500000000E+00 0. -1.
         13    1    6    6    0    0 -0.32140239715E+01 -0.14634226846E+01 -0.10879353344E+01  0.36967802660E+01  0.10500000000E+00 0.  1.
</event>
<event>
11    0  0.3448258E-009  0.9118800E+02  0.7816531E-02  0.1126479E+00
         25   -1    0    0    0    0  0.00000000000E+00  0.00000000000E+00  0.99999998245E-14  0.12500000000E+03  0.12500000000E+03 0.  0.
    3000001    1    3    3    0    0 -0.21514270617E+02 -0.56724961334E+02  0.97949597908E+01  0.61461584066E+02  0.10000000000E+01 0. -1.
    1000022    2    1    0    0    0 -0.20786299995E+02 -0.57160079490E+02  0.10339482834E+02  0.62500000202E+02  0.10000008260E+02 0.  0.
    3000022    2    3    3    0    0  0.72797062245E+00 -0.43511815540E+00  0.54452304302E+00  0.10384161360E+01  0.25006737238E+00 0.  0.
    1000022    2    1    0    0    0  0.20786299995E+02  0.57160079490E+02 -0.10339482834E+02  0.62499999798E+02  0.10000005738E+02 0.  0.
    3000022    2    5    5    0    0  0.15570884361E+02  0.45705782390E+02 -0.12029778134E+02  0.49761923786E+02  0.25002656494E+00 0.  0.
        -13    1    4    4    0    0  0.31724697176E+00 -0.24793268466E+00  0.20452722416E+00  0.46365142364E+00  0.10500000000E+00 0.  1.
         13    1    4    4    0    0  0.41072365069E+00 -0.18718547074E+00  0.33999581886E+00  0.57476471232E+00  0.10500000000E+00 0. -1.
    3000001    1    5    5    0    0  0.52154156334E+01  0.11454297100E+02  0.16902953006E+01  0.12738076012E+02  0.10000000000E+01 0.  1.
        -13    1    6    6    0    0  0.75824170658E+01  0.22157308122E+02 -0.57730803881E+01  0.24120091914E+02  0.10500000000E+00 0. -1.
         13    1    6    6    0    0  0.79884672955E+01  0.23548474268E+02 -0.62566977464E+01  0.25641831872E+02  0.10500000000E+00 0.  1.
</event>
<event>
11    0  0.3448258E-009  0.9118800E+02  0.7816531E-02  0.1126479E+00
         25   -1    0    0    0    0  0.00000000000E+00  0.00000000000E+00  0.99999998245E-14  0.12500000000E+03  0.12500000000E+03 0.  0.
    3000001    1    3    3    0    0 -0.26654723266E+02  0.20796401682E+02  0.23584535802E+02  0.41233419992E+02  0.10000000000E+01 0. -1.
    1000022    2    1    0    0    0 -0.44070582980E+02  0.31385754175E+02  0.29647399561E+02  0.62499998898E+02  0.99999856095E+01 0.  0.
    3000022    2    3    3    0    0 -0.17415859714E+02  0.10589352493E+02  0.60628637594E+01  0.21266578906E+02  0.25001115058E+00 0.  0.
    1000022    2    1    0    0    0  0.44070582980E+02 -0.31385754175E+02 -0.29647399561E+02  0.62500001102E+02  0.99999993873E+01 0.  0.
    3000022    2    5    5    0    0  0.11992226336E+02 -0.85505072623E+01 -0.13325612035E+02  0.19863511864E+02  0.25000104631E+00 0.  0.
        -13    1    4    4    0    0 -0.85816261481E+01  0.51718061155E+01  0.29227594346E+01  0.10437692923E+02  0.10500000000E+00 0.  1.
         13    1    4    4    0    0 -0.88342335662E+01  0.54175463774E+01  0.31401043248E+01  0.10828885983E+02  0.10500000000E+00 0. -1.
    3000001    1    5    5    0    0  0.32078356644E+02 -0.22835246912E+02 -0.16321787526E+02  0.42636489238E+02  0.10000000000E+01 0. -1.
        -13    1    6    6    0    0  0.40647594440E+01 -0.28646930583E+01 -0.44363617380E+01  0.66649130621E+01  0.10500000000E+00 0.  1.
         13    1    6    6    0    0  0.79274668920E+01 -0.56858142039E+01 -0.88892502972E+01  0.13198598802E+02  0.10500000000E+00 0. -1.
</event>
<event>
11    0  0.3448258E-009  0.9118800E+02  0.7816531E-02  0.1126479E+00
         25   -1    0    0    0    0  0.00000000000E+00  0.00000000000E+00  0.99999998245E-14  0.12500000000E+03  0.12500000000E+03 0.  0.
    3000001    1    3    3    0    0  0.33416676042E+01 -0.45658928449E+01 -0.32804421726E+01  0.66162996225E+01  0.10000000000E+01 0.  1.
    1000022    2    1    0    0    0  0.51081645448E+02 -0.24788961590E+02 -0.24133441110E+02  0.62500000833E+02  0.10000000293E+02 0.  0.
    3000022    2    3    3    0    0  0.47739977844E+02 -0.20223068745E+02 -0.20852998937E+02  0.55883701210E+02  0.25000445270E+00 0.  0.
    1000022    2    1    0    0    0 -0.51081645448E+02  0.24788961590E+02  0.24133441110E+02  0.62499999167E+02  0.99999898838E+01 0.  0.
    3000022    2    5    5    0    0 -0.26794924774E+01  0.24125804702E+01  0.42537939519E+01  0.55818894361E+01  0.25000445891E+00 0.  0.
        -13    1    4    4    0    0  0.35520075247E+02 -0.15066434627E+02 -0.15543357902E+02  0.41596636857E+02  0.10500000000E+00 0. -1.
         13    1    4    4    0    0  0.12219902597E+02 -0.51566341178E+01 -0.53096410350E+01  0.14287064353E+02  0.10500000000E+00 0.  1.
    3000001    1    5    5    0    0 -0.48402152971E+02  0.22376381120E+02  0.19879647158E+02  0.56918109731E+02  0.10000000000E+01 0.  1.
        -13    1    6    6    0    0 -0.13073733036E+01  0.11498974587E+01  0.21541047807E+01  0.27717650562E+01  0.10500000000E+00 0. -1.
         13    1    6    6    0    0 -0.13721191738E+01  0.12626830115E+01  0.20996891713E+01  0.28101243799E+01  0.10500000000E+00 0.  1.
</event>
<event>
11    0  0.3448258E-009  0.9118800E+02  0.7816531E-02  0.1126479E+00
         25   -1    0    0    0    0  0.00000000000E+00  0.00000000000E+00  0.99999998245E-14  0.12500000000E+03  0.12500000000E+03 0.  0.
    3000001    1    3    3    0    0  0.10780217145E+01 -0.14607092347E+01  0.41555194961E+01  0.46437209830E+01  0.10000000000E+01 0. -1.
    1000022    2    1    0    0    0  0.38900364159E+02  0.77648699843E+00  0.47879106008E+02  0.62500001062E+02  0.10000003841E+02 0.  0.
    3000022    2    3    3    0    0  0.37822342445E+02  0.22371962331E+01  0.43723586512E+02  0.57856280079E+02  0.24998419831E+00 0.  0.
    1000022    2    1    0    0    0 -0.38900364159E+02 -0.77648699843E+00 -0.47879106008E+02  0.62499998938E+02  0.99999905658E+01 0.  0.
    3000022    2    5    5    0    0 -0.13378082180E+02  0.18596344490E+01 -0.10308064507E+02  0.16992645980E+02  0.25000087726E+00 0.  0.
        -13    1    4    4    0    0  0.23446921689E+02  0.14205171286E+01  0.27184733650E+02  0.35927660295E+02  0.10500000000E+00 0.  1.
         13    1    4    4    0    0  0.14375420756E+02  0.81667910447E+00  0.16538852862E+02  0.21928619784E+02  0.10500000000E+00 0. -1.
    3000001    1    5    5    0    0 -0.25522281979E+02 -0.26361214474E+01 -0.37571041501E+02  0.45507352958E+02  0.10000000000E+01 0.  1.
        -13    1    6    6    0    0 -0.57141951283E+01  0.85745578176E+00 -0.44337215544E+01  0.72839665158E+01  0.10500000000E+00 0. -1.
         13    1    6    6    0    0 -0.76638870514E+01  0.10021786672E+01 -0.58743429526E+01  0.97086794644E+01  0.10500000000E+00 0.  1.
</event>
<event>
11    0  0.3448258E-009  0.9118800E+02  0.7816531E-02  0.1126479E+00
         25   -1    0    0    0    0  0.00000000000E+00  0.00000000000E+00  0.99999998245E-14  0.12500000000E+03  0.12500000000E+03 0.  0.
    3000001    1    3    3    0    0 -0.96365321574E+01 -0.94017527295E+01  0.63398565329E+01  0.14914740603E+02  0.10000000000E+01 0. -1.
    1000022    2    1    0    0    0 -0.45797563201E+02 -0.24278117089E+02  0.33457530096E+02  0.62500001984E+02  0.10000008170E+02 0.  0.
    3000022    2    3    3    0    0 -0.36161031043E+02 -0.14876364359E+02  0.27117673564E+02  0.47585261381E+02  0.24999707352E+00 0.  0.
    1000022    2    1    0    0    0  0.45797563201E+02  0.24278117089E+02 -0.33457530096E+02  0.62499998016E+02  0.99999833642E+01 0.  0.
    3000022    2    5    5    0    0  0.33393369838E+02  0.15509593169E+02 -0.28255750113E+02  0.46412439477E+02  0.24998880318E+00 0.  0.
        -13    1    4    4    0    0 -0.11303274052E+02 -0.47009030364E+01  0.84726066269E+01  0.14888202770E+02  0.10500000000E+00 0. -1.
         13    1    4    4    0    0 -0.24857756991E+02 -0.10175461323E+02  0.18645066937E+02  0.32697058611E+02  0.10500000000E+00 0.  1.
    3000001    1    5    5    0    0  0.12404193363E+02  0.87685239201E+01 -0.52017799831E+01  0.16087558538E+02  0.10000000000E+01 0.  1.
        -13    1    6    6    0    0  0.18358533729E+02  0.85115649666E+01 -0.15446855213E+02  0.25457785839E+02  0.10500000000E+00 0.  1.
         13    1    6    6    0    0  0.15034836109E+02  0.69980282021E+01 -0.12808894901E+02  0.20954653639E+02  0.10500000000E+00 0. -1.
</event>
<event>
11    0  0.3448258E-009  0.9118800E+02  0.7816531E-02  0.1126479E+00
         25   -1    0    0    0    0  0.00000000000E+00  0.00000000000E+00  0.99999998245E-14  0.12500000000E+03  0.12500000000E+03 0.  0.
    3000001    1    3    3    0    0  0.10862191496E+02  0.10329127051E+02 -0.83468572757E+01  0.17185694519E+02  0.10000000000E+01 0.  1.
    1000022    2    1    0    0    0  0.33422621734E+02  0.29478225001E+02 -0.42663949401E+02  0.62500000041E+02  0.10000001688E+02 0.  0.
    3000022    2    3    3    0    0  0.22560430238E+02  0.19149097950E+02 -0.34317092126E+02  0.45314305521E+02  0.25001617424E+00 0.  0.
    1000022    2    1    0    0    0 -0.33422621734E+02 -0.29478225001E+02  0.42663949401E+02  0.62499999959E+02  0.10000001180E+02 0.  0.
    3000022    2    5    5    0    0 -0.24729781601E+02 -0.15985606541E+02  0.29925680074E+02  0.41984646490E+02  0.24999705612E+00 0.  0.
        -13    1    4    4    0    0  0.13213111687E+02  0.11298850346E+02 -0.20150062028E+02  0.26613649963E+02  0.10500000000E+00 0.  1.
         13    1    4    4    0    0  0.93473185504E+01  0.78502476044E+01 -0.14167030098E+02  0.18700655559E+02  0.10500000000E+00 0. -1.
    3000001    1    5    5    0    0 -0.86928401328E+01 -0.13492618461E+02  0.12738269328E+02  0.20515353469E+02  0.10000000000E+01 0.  1.
        -13    1    6    6    0    0 -0.13010260442E+02 -0.83573226236E+01  0.15641937683E+02  0.21995293990E+02  0.10500000000E+00 0.  1.
         13    1    6    6    0    0 -0.11719521159E+02 -0.76282839172E+01  0.14283742390E+02  0.19989352501E+02  0.10500000000E+00 0. -1.
</event>
<event>
11    0  0.3448258E-009  0.9118800E+02  0.7816531E-02  0.1126479E+00
         25   -1    0    0    0    0  0.00000000000E+00  0.00000000000E+00  0.99999998245E-14  0.12500000000E+03  0.12500000000E+03 0.  0.
    3000001    1    3    3    0    0  0.24051555210E+02  0.11449851555E+02 -0.53273683101E+01  0.27183768351E+02  0.10000000000E+01 0. -1.
    1000022    2    1    0    0    0  0.52640277956E+02  0.22871367945E+02 -0.22630767136E+02  0.62500000000E+02  0.10000002195E+02 0.  0.
    3000022    2    3    3    0    0  0.28588722746E+02  0.11421516389E+02 -0.17303398826E+02  0.35316231649E+02  0.25000414517E+00 0.  0.
    1000022    2    1    0    0    0 -0.52640277956E+02 -0.22871367945E+02  0.22630767136E+02  0.62500000000E+02  0.10000002196E+02 0.  0.
    3000022    2    5    5    0    0 -0.96554984211E+01 -0.44017499669E+01  0.22438087981E+00  0.10616821561E+02  0.25000149231E+00 0.  0.
        -13    1    4    4    0    0  0.15368165081E+02  0.60889158047E+01 -0.93458290101E+01  0.18989758780E+02  0.10500000000E+00 0. -1.
         13    1    4    4    0    0  0.13220557665E+02  0.53326005847E+01 -0.79575698158E+01  0.16326472869E+02  0.10500000000E+00 0.  1.
    3000001    1    5    5    0    0 -0.42984779535E+02 -0.18469617978E+02  0.22406386256E+02  0.51883178439E+02  0.10000000000E+01 0. -1.
        -13    1    6    6    0    0 -0.60001906309E+01 -0.28016629111E+01  0.14078250657E+00  0.66243827931E+01  0.10500000000E+00 0.  1.
         13    1    6    6    0    0 -0.36553077902E+01 -0.16000870558E+01  0.83598373239E-01  0.39924387679E+01  0.10500000000E+00 0. -1.
</event>
<event>
11    0  0.3448258E-009  0.9118800E+02  0.7816531E-02  0.1126479E+00
         25   -1    0    0    0    0  0.00000000000E+00  0.00000000000E+00  0.99999998245E-14  0.12500000000E+03  0.12500000000E+03 0.  0.
    3000001    1    3    3    0    0 -0.20902800075E+02  0.96282212822E+01 -0.14472703558E+02  0.27204573960E+02  0.10000000000E+01 0.  1.
    1000022    2    1    0    0    0 -0.53538512202E+02  0.19227584123E+02 -0.23878392218E+02  0.62499997924E+02  0.99999922793E+01 0.  0.
    3000022    2    3    3    0    0 -0.32635712127E+02  0.95993628412E+01 -0.94056886597E+01  0.35295423965E+02  0.25000139033E+00 0.  0.
    1000022    2    1    0    0    0  0.53538512202E+02 -0.19227584123E+02  0.23878392218E+02  0.62500002076E+02  0.10000018226E+02 0.  0.
    3000022    2    5    5    0    0  0.52424101941E+01 -0.20178368412E+01 -0.64057334006E+00  0.56592724647E+01  0.25000092924E+00 0.  0.
        -13    1    4    4    0    0 -0.18966860712E+02  0.55113468634E+01 -0.54606473428E+01  0.20492594855E+02  0.10500000000E+00 0.  1.
         13    1    4    4    0    0 -0.13668851415E+02  0.40880159778E+01 -0.39450413169E+01  0.14802829109E+02  0.10500000000E+00 0. -1.
    3000001    1    5    5    0    0  0.48296102008E+02 -0.17209747282E+02  0.24518965558E+02  0.56840729611E+02  0.10000000000E+01 0. -1.
        -13    1    6    6    0    0  0.25165027692E+01 -0.90272229748E+00 -0.33296426388E+00  0.26962165964E+01  0.10500000000E+00 0.  1.
         13    1    6    6    0    0  0.27259074249E+01 -0.11151145437E+01 -0.30760907618E+00  0.29630558683E+01  0.10500000000E+00 0. -1.
</event>
<event>
11    0  0.3448258E-009  0.9118800E+02  0.7816531E-02  0.1126479E+00
         25   -1    0    0    0    0  0.00000000000E+00  0.00000000000E+00  0.99999998245E-14  0.12500000000E+03  0.12500000000E+03 0.  0.
    3000001    1    3    3    0    0  0.89233182120E+01  0.15634884971E+02  0.65400645965E+01  0.19179355591E+02  0.10000000000E+01 0.  1.
    1000022    2    1    0    0    0  0.25647789281E+02  0.55579174020E+02  0.77069008884E+01  0.62499999229E+02  0.99999951295E+01 0.  0.
    3000022    2    3    3    0    0  0.16724471069E+02  0.39944289049E+02  0.11668362919E+01  0.43320643638E+02  0.24999620442E+00 0.  0.
    1000022    2    1    0    0    0 -0.25647789281E+02 -0.55579174020E+02 -0.77069008884E+01  0.62500000771E+02  0.10000004762E+02 0.  0.
    3000022    2    5    5    0    0 -0.50554582696E+01 -0.19332340408E+02 -0.55687590695E+01  0.20745375951E+02  0.25000360211E+00 0.  0.
        -13    1    4    4    0    0  0.64911318929E+01  0.15595035248E+02  0.40427140146E+00  0.16897170710E+02  0.10500000000E+00 0.  1.
         13    1    4    4    0    0  0.10233339176E+02  0.24349253801E+02  0.76256489048E+00  0.26423472928E+02  0.10500000000E+00 0. -1.
    3000001    1    5    5    0    0 -0.20592331012E+02 -0.36246833612E+02 -0.21381418189E+01  0.41754624820E+02  0.10000000000E+01 0.  1.
        -13    1    6    6    0    0 -0.22418575678E+01 -0.83624389545E+01 -0.23727735977E+01  0.89776049239E+01  0.10500000000E+00 0.  1.
         13    1    6    6    0    0 -0.28136007018E+01 -0.10969901454E+02 -0.31959854718E+01  0.11767771027E+02  0.10500000000E+00 0. -1.
</event>
<event>
11    0  0.3448258E-009  0.9118800E+02  0.7816531E-02  0.1126479E+00
         25   -1    0    0    0    0  0.00000000000E+00  0.00000000000E+00  0.99999998245E-14  0.12500000000E+03  0.12500000000E+03 0.  0.
    3000001    1    3    3    0    0 -0.34253008281E+02  0.26616014520E+02  0.31593792836E+02  0.53673536785E+02  0.10000000000E+01 0. -1.
    1000022    2    1    0    0    0 -0.38254259938E+02  0.28286322008E+02  0.39277801103E+02  0.62499998553E+02  0.99999871749E+01 0.  0.
    3000022    2    3    3    0    0 -0.40012516575E+01  0.16703074883E+01  0.76840082666E+01  0.88264617684E+01  0.25000475240E+00 0.  0.
    1000022    2    1    0    0    0  0.38254259938E+02 -0.28286322008E+02 -0.39277801103E+02  0.62500001447E+02  0.10000005260E+02 0.  0.
    3000022    2    5    5    0    0  0.30875690400E+01 -0.82433375976E+00 -0.25494969054E+00  0.32156031649E+01  0.24999129037E+00 0.  0.
        -13    1    4    4    0    0 -0.23985348051E+01  0.95534457203E+00  0.46685333234E+01  0.53359048768E+01  0.10500000000E+00 0. -1.
         13    1    4    4    0    0 -0.16027168524E+01  0.71496291627E+00  0.30154749432E+01  0.34905568916E+01  0.10500000000E+00 0.  1.
    3000001    1    5    5    0    0  0.35166690898E+02 -0.27461988249E+02 -0.39022851412E+02  0.59284398282E+02  0.10000000000E+01 0. -1.
        -13    1    6    6    0    0  0.16078982444E+01 -0.45874554127E+00 -0.71864225692E-01  0.16768940643E+01  0.10500000000E+00 0. -1.
         13    1    6    6    0    0  0.14796707955E+01 -0.36558821848E+00 -0.18308546485E+00  0.15387091006E+01  0.10500000000E+00 0.  1.
</event>
<event>
11    0  0.3448258E-009  0.9118800E+02  0.7816531E-02  0.1126479E+00
         25   -1    0    0    0    0  0.00000000000E+00  0.00000000000E+00  0.99999998245E-14  0.12500000000E+03  0.12500000000E+03 0.  0.
    3000001    1    3    3    0    0  0.15885887161E+02  0.19942828831E+02 -0.60925878415E+01  0.26233517860E+02  0.10000000000E+01 0. -1.
    1000022    2    1    0    0    0  0.30348168810E+02  0.53161840996E+02 -0.76848326886E+01  0.62500005193E+02  0.10000065374E+02 0.  0.
    3000022    2    3    3    0    0  0.14462281649E+02  0.33219012165E+02 -0.15922448471E+01  0.36266487334E+02  0.25000031761E+00 0.  0.
    1000022    2    1    0    0    0 -0.30348168810E+02 -0.53161840996E+02  0.76848326886E+01  0.62499994807E+02  0.10000000457E+02 0.  0.
    3000022    2    5    5    0    0 -0.26494831082E+01 -0.11224577716E+01  0.13878150005E+01  0.32044045171E+01  0.25001128782E+00 0.  0.
        -13    1    4    4    0    0  0.46943237134E+01  0.10912973844E+02 -0.52841414602E+00  0.11892010754E+02  0.10500000000E+00 0.  1.
         13    1    4    4    0    0  0.97679579357E+01  0.22306038321E+02 -0.10638307011E+01  0.24374476580E+02  0.10500000000E+00 0. -1.
    3000001    1    5    5    0    0 -0.27698685702E+02 -0.52039383224E+02  0.62970176881E+01  0.59295590289E+02  0.10000000000E+01 0. -1.
        -13    1    6    6    0    0 -0.19928256989E+01 -0.86650454266E+00  0.10321352447E+01  0.24080100813E+01  0.10500000000E+00 0. -1.
         13    1    6    6    0    0 -0.65665740933E+00 -0.25595322895E+00  0.35567975587E+00  0.79639443580E+00  0.10500000000E+00 0.  1.
</event>
<event>
11    0  0.3448258E-009  0.9118800E+02  0.7816531E-02  0.1126479E+00
         25   -1    0    0    0    0  0.00000000000E+00  0.00000000000E+00  0.99999998245E-14  0.12500000000E+03  0.12500000000E+03 0.  0.
    3000001    1    3    3    0    0 -0.38030202359E+02  0.63647643628E+01  0.27449337784E+02  0.47342081298E+02  0.10000000000E+01 0.  1.
    1000022    2    1    0    0    0 -0.51510786330E+02  0.35322386002E+01  0.33769983669E+02  0.62499996960E+02  0.10000000255E+02 0.  0.
    3000022    2    3    3    0    0 -0.13480583971E+02 -0.28325257626E+01  0.63206458855E+01  0.15157915662E+02  0.24999281254E+00 0.  0.
    1000022    2    1    0    0    0  0.51510786330E+02 -0.35322386002E+01 -0.33769983669E+02  0.62500003040E+02  0.10000038257E+02 0.  0.
    3000022    2    5    5    0    0  0.28679545751E+02 -0.80614561837E+00 -0.24349629840E+02  0.37631545195E+02  0.25001041325E+00 0.  0.
        -13    1    4    4    0    0 -0.75737553524E+01 -0.15848468061E+01  0.34780495082E+01  0.84841831026E+01  0.10500000000E+00 0. -1.
         13    1    4    4    0    0 -0.59068286184E+01 -0.12476789565E+01  0.28425963773E+01  0.66737325590E+01  0.10500000000E+00 0.  1.
    3000001    1    5    5    0    0  0.22831240579E+02 -0.27260929818E+01 -0.94203538297E+01  0.24868457845E+02  0.10000000000E+01 0.  1.
        -13    1    6    6    0    0  0.67413371215E+01 -0.20174657822E+00 -0.57138147890E+01  0.88399678908E+01  0.10500000000E+00 0.  1.
         13    1    6    6    0    0  0.21938208630E+02 -0.60439904015E+00 -0.18635815051E+02  0.28791577305E+02  0.10500000000E+00 0. -1.
</event>
<event>
11    0  0.3448258E-009  0.9118800E+02  0.7816531E-02  0.1126479E+00
         25   -1    0    0    0    0  0.00000000000E+00  0.00000000000E+00  0.99999998245E-14  0.12500000000E+03  0.12500000000E+03 0.  0.
    3000001    1    3    3    0    0 -0.87972535315E-01  0.29600750576E+01  0.35161062396E+01  0.47045495642E+01  0.10000000000E+01 0.  1.
    1000022    2    1    0    0    0 -0.58109503745E+01  0.57956805713E+02  0.20334503418E+02  0.62499997761E+02  0.99999609121E+01 0.  0.
    3000022    2    3    3    0    0 -0.57229778392E+01  0.54996730655E+02  0.16818397179E+02  0.57795448197E+02  0.24998114744E+00 0.  0.
    1000022    2    1    0    0    0  0.58109503745E+01 -0.57956805713E+02 -0.20334503418E+02  0.62500002239E+02  0.99999888952E+01 0.  0.
    3000022    2    5    5    0    0  0.22462440081E+01 -0.42910517409E+02 -0.10799898589E+02  0.44306415114E+02  0.24998862017E+00 0.  0.
        -13    1    4    4    0    0 -0.29322685092E+01  0.27585785807E+02  0.84076977314E+01  0.28987483218E+02  0.10500000000E+00 0. -1.
         13    1    4    4    0    0 -0.27907093300E+01  0.27410944848E+02  0.84106994475E+01  0.28807964979E+02  0.10500000000E+00 0.  1.
    3000001    1    5    5    0    0  0.35647063663E+01 -0.15046288304E+02 -0.95346048298E+01  0.18193587125E+02  0.10000000000E+01 0. -1.
        -13    1    6    6    0    0  0.14479198279E+01 -0.27305574001E+02 -0.68152267336E+01  0.28180652650E+02  0.10500000000E+00 0.  1.
         13    1    6    6    0    0  0.79832418026E+00 -0.15604943408E+02 -0.39846718551E+01  0.16125762464E+02  0.10500000000E+00 0. -1.
</event>
<event>
11    0  0.3448258E-009  0.9118800E+02  0.7816531E-02  0.1126479E+00
         25   -1    0    0    0    0  0.00000000000E+00  0.00000000000E+00  0.99999998245E-14  0.12500000000E+03  0.12500000000E+03 0.  0.
    3000001    1    3    3    0    0 -0.11189827505E+02 -0.25057524314E+01 -0.14805505891E+02  0.18753507392E+02  0.10000000000E+01 0. -1.
    1000022    2    1    0    0    0 -0.32337698170E+02 -0.22402186325E+02 -0.47525417674E+02  0.62500000284E+02  0.10000001765E+02 0.  0.
    3000022    2    3    3    0    0 -0.21147870666E+02 -0.19896433894E+02 -0.32719911783E+02  0.43746492891E+02  0.24999565781E+00 0.  0.
    1000022    2    1    0    0    0  0.32337698170E+02  0.22402186325E+02  0.47525417674E+02  0.62499999716E+02  0.99999982159E+01 0.  0.
    3000022    2    5    5    0    0  0.32331805353E+02  0.20712008298E+02  0.46432283568E+02  0.60252405744E+02  0.25003091955E+00 0.  0.
        -13    1    4    4    0    0 -0.81583682164E+01 -0.76148597351E+01 -0.12640025361E+02  0.16861978735E+02  0.10500000000E+00 0.  1.
         13    1    4    4    0    0 -0.12989502449E+02 -0.12281574159E+02 -0.20079886422E+02  0.26884514157E+02  0.10500000000E+00 0. -1.
    3000001    1    5    5    0    0  0.58928170581E-02  0.16901780275E+01  0.10931341058E+01  0.22475939721E+01  0.10000000000E+01 0. -1.
        -13    1    6    6    0    0  0.78131820347E+01  0.50290090974E+01  0.11226766878E+02  0.14573539911E+02  0.10500000000E+00 0.  1.
         13    1    6    6    0    0  0.24518623318E+02  0.15682999201E+02  0.35205516690E+02  0.45678865833E+02  0.10500000000E+00 0. -1.
</event>
<event>
11    0  0.3448258E-009  0.9118800E+02  0.7816531E-02  0.1126479E+00
         25   -1    0    0    0    0  0.00000000000E+00  0.00000000000E+00  0.99999998245E-14  0.12500000000E+03  0.12500000000E+03 0.  0.
    3000001    1    3    3    0    0 -0.37170515683E+02 -0.56334443080E+01 -0.98642694254E+01  0.38880415921E+02  0.10000000000E+01 0. -1.
    1000022    2    1    0    0    0 -0.59429166133E+02 -0.13653226959E+01 -0.16509408367E+02  0.62500000012E+02  0.99999771743E+01 0.  0.
    3000022    2    3    3    0    0 -0.22258650450E+02  0.42681216121E+01 -0.66451389420E+01  0.23619584091E+02  0.24999818789E+00 0.  0.
    1000022    2    1    0    0    0  0.59429166133E+02  0.13653226959E+01  0.16509408367E+02  0.62499999988E+02  0.99999770282E+01 0.  0.
    3000022    2    5    5    0    0  0.20221582328E+02  0.51301364993E+01  0.63976190777E+01  0.21822527925E+02  0.25000566800E+00 0.  0.
        -13    1    4    4    0    0 -0.16307947746E+02  0.31584106539E+01 -0.48870164117E+01  0.17315272795E+02  0.10500000000E+00 0. -1.
         13    1    4    4    0    0 -0.59507027042E+01  0.11097109582E+01 -0.17581225303E+01  0.63043112960E+01  0.10500000000E+00 0.  1.
    3000001    1    5    5    0    0  0.39207583805E+02 -0.37648138034E+01  0.10111789290E+02  0.40677472063E+02  0.10000000000E+01 0. -1.
        -13    1    6    6    0    0  0.15332740665E+02  0.38714942662E+01  0.48376652255E+01  0.16537697360E+02  0.10500000000E+00 0.  1.
         13    1    6    6    0    0  0.48888416634E+01  0.12586422331E+01  0.15599538522E+01  0.52848305650E+01  0.10500000000E+00 0. -1.
</event>
<event>
11    0  0.3448258E-009  0.9118800E+02  0.7816531E-02  0.1126479E+00
         25   -1    0    0    0    0  0.00000000000E+00  0.00000000000E+00  0.99999998245E-14  0.12500000000E+03  0.12500000000E+03 0.  0.
    3000001    1    3    3    0    0  0.44841260928E+01  0.85099632251E+01 -0.52798967449E+01  0.11018356073E+02  0.10000000000E+01 0. -1.
    1000022    2    1    0    0    0  0.39809436703E+02  0.33353919830E+02 -0.33301264200E+02  0.62499996407E+02  0.10000006744E+02 0.  0.
    3000022    2    3    3    0    0  0.35325310611E+02  0.24843956605E+02 -0.28021367455E+02  0.51481640334E+02  0.25001586160E+00 0.  0.
    1000022    2    1    0    0    0 -0.39809436703E+02 -0.33353919830E+02  0.33301264200E+02  0.62500003593E+02  0.10000051660E+02 0.  0.
    3000022    2    5    5    0    0 -0.40009566340E+02 -0.32478341114E+02  0.32238051670E+02  0.60786203476E+02  0.25003458109E+00 0.  0.
        -13    1    4    4    0    0  0.23085614154E+02  0.16230204800E+02 -0.18376575167E+02  0.33676025131E+02  0.10500000000E+00 0.  1.
         13    1    4    4    0    0  0.12239696456E+02  0.86137518049E+01 -0.96447922877E+01  0.17805615203E+02  0.10500000000E+00 0. -1.
    3000001    1    5    5    0    0  0.20012963673E+00 -0.87557871605E+00  0.10632125292E+01  0.17138001172E+01  0.10000000000E+01 0.  1.
        -13    1    6    6    0    0 -0.14150839122E+02 -0.11518198618E+02  0.11475711313E+02  0.21555002259E+02  0.10500000000E+00 0.  1.
         13    1    6    6    0    0 -0.25858727218E+02 -0.20960142496E+02  0.20762340358E+02  0.39231201217E+02  0.10500000000E+00 0. -1.
</event>
<event>
11    0  0.3448258E-009  0.9118800E+02  0.7816531E-02  0.1126479E+00
         25   -1    0    0    0    0  0.00000000000E+00  0.00000000000E+00  0.99999998245E-14  0.12500000000E+03  0.12500000000E+03 0.  0.
    3000001    1    3    3    0    0 -0.76414578200E+01 -0.28015578690E+01 -0.34230828699E+01  0.88858370704E+01  0.10000000000E+01 0.  1.
    1000022    2    1    0    0    0 -0.38341993733E+02 -0.25378739505E+02 -0.41134670367E+02  0.62499999097E+02  0.99999939273E+01 0.  0.
    3000022    2    3    3    0    0 -0.30700535913E+02 -0.22577181636E+02 -0.37711587497E+02  0.53614162026E+02  0.25000441667E+00 0.  0.
    1000022    2    1    0    0    0  0.38341993733E+02  0.25378739505E+02  0.41134670367E+02  0.62500000903E+02  0.10000005219E+02 0.  0.
    3000022    2    5    5    0    0  0.34834994505E+02  0.18938177419E+02  0.34916187574E+02  0.52833077307E+02  0.24999373987E+00 0.  0.
        -13    1    4    4    0    0 -0.10128538800E+02 -0.74599754987E+01 -0.12521823843E+02  0.17749524783E+02  0.10500000000E+00 0.  1.
         13    1    4    4    0    0 -0.20571997113E+02 -0.15117206138E+02 -0.25189763654E+02  0.35864637243E+02  0.10500000000E+00 0. -1.
    3000001    1    5    5    0    0  0.35069992283E+01  0.64405620866E+01  0.62184827929E+01  0.96669235967E+01  0.10000000000E+01 0.  1.
        -13    1    6    6    0    0  0.20259486152E+02  0.11027952758E+02  0.20227766297E+02  0.30679570980E+02  0.10500000000E+00 0.  1.
         13    1    6    6    0    0  0.14575508353E+02  0.79102246611E+01  0.14688421277E+02  0.22153506326E+02  0.10500000000E+00 0. -1.
</event>
<event>
11    0  0.3448258E-009  0.9118800E+02  0.7816531E-02  0.1126479E+00
         25   -1    0    0    0    0  0.00000000000E+00  0.00000000000E+00  0.99999998245E-14  0.12500000000E+03  0.12500000000E+03 0.  0.
    3000001    1    3    3    0    0  0.41172027318E+02 -0.16660218075E+01 -0.28984367253E+02  0.50388540435E+02  0.10000000000E+01 0. -1.
    1000022    2    1    0    0    0  0.52790075183E+02  0.58898247342E-01 -0.31928911048E+02  0.62499990864E+02  0.99998995211E+01 0.  0.
    3000022    2    3    3    0    0  0.11618047865E+02  0.17249200548E+01 -0.29445437946E+01  0.12111450428E+02  0.25001586309E+00 0.  0.
    1000022    2    1    0    0    0 -0.52790075183E+02 -0.58898247342E-01  0.31928911048E+02  0.62500009136E+02  0.10000013727E+02 0.  0.
    3000022    2    5    5    0    0 -0.29842393468E+02  0.44301155545E+01  0.15620303987E+02  0.33974266284E+02  0.25000239843E+00 0.  0.
        -13    1    4    4    0    0  0.54300979913E+01  0.78132434516E+00 -0.13107443663E+01  0.56414100827E+01  0.10500000000E+00 0.  1.
         13    1    4    4    0    0  0.61879498734E+01  0.94359570968E+00 -0.16337994283E+01  0.64700403454E+01  0.10500000000E+00 0. -1.
    3000001    1    5    5    0    0 -0.22947681715E+02 -0.44890138018E+01  0.16308607060E+02  0.28525742852E+02  0.10000000000E+01 0. -1.
        -13    1    6    6    0    0 -0.10622458964E+02  0.16350280031E+01  0.55625341607E+01  0.12102180064E+02  0.10500000000E+00 0. -1.
         13    1    6    6    0    0 -0.19219934504E+02  0.27950875514E+01  0.10057769827E+02  0.21872086220E+02  0.10500000000E+00 0.  1.
</event>
<event>
11    0  0.3448258E-009  0.9118800E+02  0.7816531E-02  0.1126479E+00
         25   -1    0    0    0    0  0.00000000000E+00  0.00000000000E+00  0.99999998245E-14  0.12500000000E+03  0.12500000000E+03 0.  0.
    3000001    1    3    3    0    0  0.16835660706E+02  0.98675046797E+01 -0.14824093676E+02  0.24526737927E+02  0.10000000000E+01 0. -1.
    1000022    2    1    0    0    0  0.37850261584E+02  0.35451368401E+02 -0.33418679330E+02  0.62500000152E+02  0.10000003368E+02 0.  0.
    3000022    2    3    3    0    0  0.21014600878E+02  0.25583863722E+02 -0.18594585654E+02  0.37973262225E+02  0.24999082980E+00 0.  0.
    1000022    2    1    0    0    0 -0.37850261584E+02 -0.35451368401E+02  0.33418679330E+02  0.62499999848E+02  0.10000001467E+02 0.  0.
    3000022    2    5    5    0    0 -0.33919630008E+02 -0.27165651083E+02  0.29195747158E+02  0.52354255312E+02  0.24999698490E+00 0.  0.
        -13    1    4    4    0    0  0.70646721034E+01  0.86402133598E+01 -0.62132412592E+01  0.12774125049E+02  0.10500000000E+00 0.  1.
         13    1    4    4    0    0  0.13949928774E+02  0.16943650362E+02 -0.12381344395E+02  0.25199137176E+02  0.10500000000E+00 0. -1.
    3000001    1    5    5    0    0 -0.39306315756E+01 -0.82857173183E+01  0.42229321726E+01  0.10145744536E+02  0.10000000000E+01 0. -1.
        -13    1    6    6    0    0 -0.24307692553E+02 -0.19471286307E+02  0.20874724555E+02  0.37493466870E+02  0.10500000000E+00 0.  1.
         13    1    6    6    0    0 -0.96119374547E+01 -0.76943647764E+01  0.83210226030E+01  0.14860788442E+02  0.10500000000E+00 0. -1.
</event>
<event>
11    0  0.3448258E-009  0.9118800E+02  0.7816531E-02  0.1126479E+00
         25   -1    0    0    0    0  0.00000000000E+00  0.00000000000E+00  0.99999998245E-14  0.12500000000E+03  0.12500000000E+03 0.  0.
    3000001    1    3    3    0    0  0.19221829619E+02 -0.33239943262E+02  0.19153649779E+02  0.42921263516E+02  0.10000000000E+01 0.  1.
    1000022    2    1    0    0    0  0.27938728373E+02 -0.50602733057E+02  0.21564802837E+02  0.62500000773E+02  0.10000011963E+02 0.  0.
    3000022    2    3    3    0    0  0.87168987534E+01 -0.17362789795E+02  0.24111530582E+01  0.19578737256E+02  0.25000029623E+00 0.  0.
    1000022    2    1    0    0    0 -0.27938728373E+02  0.50602733057E+02 -0.21564802837E+02  0.62499999227E+02  0.10000002303E+02 0.  0.
    3000022    2    5    5    0    0 -0.70117550482E+01  0.22472494810E+02 -0.98590231118E+01  0.25523333675E+02  0.24998667894E+00 0.  0.
        -13    1    4    4    0    0  0.37770813212E+01 -0.74836611872E+01  0.11040280920E+01  0.84558518850E+01  0.10500000000E+00 0.  1.
         13    1    4    4    0    0  0.49398174322E+01 -0.98791286077E+01  0.13071249662E+01  0.11122885372E+02  0.10500000000E+00 0. -1.
    3000001    1    5    5    0    0 -0.20926973324E+02  0.28130238247E+02 -0.11705779725E+02  0.36976665552E+02  0.10000000000E+01 0.  1.
        -13    1    6    6    0    0 -0.50433891302E+01  0.16035574867E+02 -0.70577245609E+01  0.18231783682E+02  0.10500000000E+00 0. -1.
         13    1    6    6    0    0 -0.19683659180E+01  0.64369199425E+01 -0.28012985509E+01  0.72915499933E+01  0.10500000000E+00 0.  1.
</event>
<event>
11    0  0.3448258E-009  0.9118800E+02  0.7816531E-02  0.1126479E+00
         25   -1    0    0    0    0  0.00000000000E+00  0.00000000000E+00  0.99999998245E-14  0.12500000000E+03  0.12500000000E+03 0.  0.
    3000001    1    3    3    0    0 -0.15157288061E+02  0.23883887454E+02 -0.24559929440E+01  0.28411535731E+02  0.10000000000E+01 0.  1.
    1000022    2    1    0    0    0 -0.23806365546E+02  0.56855396535E+02 -0.26402425117E+01  0.62500000059E+02  0.99999985612E+01 0.  0.
    3000022    2    3    3    0    0 -0.86490774848E+01  0.32971509081E+02 -0.18424956767E+00  0.34088464328E+02  0.24999980421E+00 0.  0.
    1000022    2    1    0    0    0  0.23806365546E+02 -0.56855396535E+02  0.26402425117E+01  0.62499999941E+02  0.99999978244E+01 0.  0.
    3000022    2    5    5    0    0  0.16594042771E+02 -0.44676491313E+02  0.56551508398E+01  0.47993690816E+02  0.24999116618E+00 0.  0.
        -13    1    4    4    0    0 -0.23459602880E+01  0.89092525995E+01 -0.14757907304E-01  0.92135527540E+01  0.10500000000E+00 0. -1.
         13    1    4    4    0    0 -0.63031171968E+01  0.24062256481E+02 -0.16949166037E+00  0.24874911574E+02  0.10500000000E+00 0.  1.
    3000001    1    5    5    0    0  0.72123227747E+01 -0.12178905222E+02 -0.30149083281E+01  0.14506309125E+02  0.10000000000E+01 0. -1.
        -13    1    6    6    0    0  0.45034219614E+01 -0.12228772660E+02  0.15551837912E+01  0.13124530916E+02  0.10500000000E+00 0.  1.
         13    1    6    6    0    0  0.12090620810E+02 -0.32447718653E+02  0.40999670487E+01  0.34869159900E+02  0.10500000000E+00 0. -1.
</event>
<event>
11    0  0.3448258E-009  0.9118800E+02  0.7816531E-02  0.1126479E+00
         25   -1    0    0    0    0  0.00000000000E+00  0.00000000000E+00  0.99999998245E-14  0.12500000000E+03  0.12500000000E+03 0.  0.
    3000001    1    3    3    0    0  0.48610916941E+01 -0.11101126015E+02  0.59626043296E+02  0.60853350363E+02  0.10000000000E+01 0. -1.
    1000022    2    1    0    0    0  0.40418080586E+01 -0.12326824017E+02  0.60315529522E+02  0.62499999230E+02  0.99999999759E+01 0.  0.
    3000022    2    3    3    0    0 -0.81928363551E+00 -0.12256980025E+01  0.68948622581E+00  0.16466488671E+01  0.24999993418E+00 0.  0.
    1000022    2    1    0    0    0 -0.40418080586E+01  0.12326824017E+02 -0.60315529522E+02  0.62500000770E+02  0.10000009602E+02 0.  0.
    3000022    2    5    5    0    0  0.23659986202E+01  0.81742596579E+01 -0.27218211058E+02  0.28518590165E+02  0.25000279906E+00 0.  0.
        -13    1    4    4    0    0 -0.45245939715E+00 -0.55891314697E+00  0.31648247929E+00  0.79264719240E+00  0.10500000000E+00 0.  1.
         13    1    4    4    0    0 -0.36682423836E+00 -0.66678485558E+00  0.37300374652E+00  0.85400167470E+00  0.10500000000E+00 0. -1.
    3000001    1    5    5    0    0 -0.64078066788E+01  0.41525643592E+01 -0.33097318464E+02  0.33981410605E+02  0.10000000000E+01 0.  1.
        -13    1    6    6    0    0  0.95934820088E+00  0.34752612240E+01 -0.11373706734E+02  0.11931890857E+02  0.10500000000E+00 0.  1.
         13    1    6    6    0    0  0.14066504193E+01  0.46989984339E+01 -0.15844504323E+02  0.16586699308E+02  0.10500000000E+00 0. -1.
</event>
<event>
11    0  0.3448258E-009  0.9118800E+02  0.7816531E-02  0.1126479E+00
         25   -1    0    0    0    0  0.00000000000E+00  0.00000000000E+00  0.99999998245E-14  0.12500000000E+03  0.12500000000E+03 0.  0.
    3000001    1    3    3    0    0 -0.24489493011E+02  0.27225556618E+02 -0.44568548358E+02  0.57691608608E+02  0.10000000000E+01 0.  1.
    1000022    2    1    0    0    0 -0.25530843729E+02  0.26996454095E+02 -0.49250567261E+02  0.62500007460E+02  0.10000002090E+02 0.  0.
    3000022    2    3    3    0    0 -0.10413507172E+01 -0.22910252232E+00 -0.46820189033E+01  0.48083988522E+01  0.24999845688E+00 0.  0.
    1000022    2    1    0    0    0  0.25530843729E+02 -0.26996454095E+02  0.49250567261E+02  0.62499992540E+02  0.99999088357E+01 0.  0.
    3000022    2    5    5    0    0  0.15125835290E+02 -0.20672191997E+02  0.27713242482E+02  0.37738796076E+02  0.25001041322E+00 0.  0.
        -13    1    4    4    0    0 -0.24137195421E+00 -0.40958659539E-01 -0.11877475836E+01  0.12172540222E+01  0.10500000000E+00 0.  1.
         13    1    4    4    0    0 -0.79997876303E+00 -0.18814386278E+00 -0.34942713197E+01  0.35911448300E+01  0.10500000000E+00 0. -1.
    3000001    1    5    5    0    0  0.10405008439E+02 -0.63242620986E+01  0.21537324779E+02  0.24761196464E+02  0.10000000000E+01 0.  1.
        -13    1    6    6    0    0  0.65600201718E+01 -0.88661571113E+01  0.11889366100E+02  0.16217603332E+02  0.10500000000E+00 0.  1.
         13    1    6    6    0    0  0.85658151183E+01 -0.11806034885E+02  0.15823876382E+02  0.21521192744E+02  0.10500000000E+00 0. -1.
</event>
<event>
11    0  0.3448258E-009  0.9118800E+02  0.7816531E-02  0.1126479E+00
         25   -1    0    0    0    0  0.00000000000E+00  0.00000000000E+00  0.99999998245E-14  0.12500000000E+03  0.12500000000E+03 0.  0.
    3000001    1    3    3    0    0  0.11572942884E+02 -0.27205324805E+02 -0.26445544726E+02  0.39679081902E+02  0.10000000000E+01 0.  1.
    1000022    2    1    0    0    0  0.11242773940E+02 -0.45299301336E+02 -0.40346292387E+02  0.62499999472E+02  0.99999978646E+01 0.  0.
    3000022    2    3    3    0    0 -0.33016894405E+00 -0.18093976531E+02 -0.13900747661E+02  0.22820917570E+02  0.24998996832E+00 0.  0.
    1000022    2    1    0    0    0 -0.11242773940E+02  0.45299301336E+02  0.40346292387E+02  0.62500000528E+02  0.10000004463E+02 0.  0.
    3000022    2    5    5    0    0 -0.36881876452E+01  0.30066693967E+02  0.29643093559E+02  0.42383774081E+02  0.24999069744E+00 0.  0.
        -13    1    4    4    0    0 -0.22873441849E+00 -0.11466089754E+02 -0.88789915251E+01  0.14504173509E+02  0.10500000000E+00 0.  1.
         13    1    4    4    0    0 -0.10143452556E+00 -0.66278867775E+01 -0.50217561358E+01  0.83167440616E+01  0.10500000000E+00 0. -1.
    3000001    1    5    5    0    0 -0.75545862943E+01  0.15232607369E+02  0.10703198827E+02  0.20116226447E+02  0.10000000000E+01 0. -1.
        -13    1    6    6    0    0 -0.20025742264E+01  0.16130273077E+02  0.15817846598E+02  0.22680637316E+02  0.10500000000E+00 0. -1.
         13    1    6    6    0    0 -0.16856134189E+01  0.13936420891E+02  0.13825246961E+02  0.19703136765E+02  0.10500000000E+00 0.  1.
</event>
<event>
11    0  0.3448258E-009  0.9118800E+02  0.7816531E-02  0.1126479E+00
         25   -1    0    0    0    0  0.00000000000E+00  0.00000000000E+00  0.99999998245E-14  0.12500000000E+03  0.12500000000E+03 0.  0.
    3000001    1    3    3    0    0  0.58432398000E+02 -0.20132433728E+01 -0.13186506889E+02  0.59943992600E+02  0.10000000000E+01 0. -1.
    1000022    2    1    0    0    0  0.59825322009E+02 -0.96918656725E+00 -0.15041330627E+02  0.62499999146E+02  0.99999895081E+01 0.  0.
    3000022    2    3    3    0    0  0.13929240089E+01  0.10440568056E+01 -0.18548237371E+01  0.25560065458E+01  0.25001291681E+00 0.  0.
    1000022    2    1    0    0    0 -0.59825322009E+02  0.96918656725E+00  0.15041330627E+02  0.62500000854E+02  0.10000000184E+02 0.  0.
    3000022    2    5    5    0    0 -0.58073913945E+02 -0.51436126378E+00  0.15054873915E+02  0.59996298038E+02  0.25000239878E+00 0.  0.
        -13    1    4    4    0    0  0.70578957355E+00  0.59209432423E+00 -0.10441519351E+01  0.13964214530E+01  0.10500000000E+00 0. -1.
         13    1    4    4    0    0  0.68713443536E+00  0.45196248136E+00 -0.81067180202E+00  0.11595850928E+01  0.10500000000E+00 0.  1.
    3000001    1    5    5    0    0 -0.17514080635E+01  0.14835478310E+01 -0.13543288459E-01  0.25037028163E+01  0.10000000000E+01 0.  1.
        -13    1    6    6    0    0 -0.37319993362E+02 -0.35476653921E+00  0.96206218428E+01  0.38541862351E+02  0.10500000000E+00 0. -1.
         13    1    6    6    0    0 -0.20753920584E+02 -0.15959472458E+00  0.54342520722E+01  0.21454435687E+02  0.10500000000E+00 0.  1.
</event>
<event>
11    0  0.3448258E-009  0.9118800E+02  0.7816531E-02  0.1126479E+00
         25   -1    0    0    0    0  0.00000000000E+00  0.00000000000E+00  0.99999998245E-14  0.12500000000E+03  0.12500000000E+03 0.  0.
    3000001    1    3    3    0    0  0.47300563326E+02  0.15605498300E+02  0.19758312863E+02  0.53593523819E+02  0.10000000000E+01 0. -1.
    1000022    2    1    0    0    0  0.55664319156E+02  0.14226116177E+02  0.22480019979E+02  0.62499998694E+02  0.99999864905E+01 0.  0.
    3000022    2    3    3    0    0  0.83637558304E+01 -0.13793821230E+01  0.27217071160E+01  0.89064748746E+01  0.24999686672E+00 0.  0.
    1000022    2    1    0    0    0 -0.55664319156E+02 -0.14226116177E+02 -0.22480019979E+02  0.62500001306E+02  0.10000002819E+02 0.  0.
    3000022    2    5    5    0    0 -0.54514412174E+02 -0.13887730521E+02 -0.20274742520E+02  0.59798142762E+02  0.24999976465E+00 0.  0.
        -13    1    4    4    0    0  0.47089631624E+01 -0.84182729521E+00  0.15505669185E+01  0.50297405528E+01  0.10500000000E+00 0.  1.
         13    1    4    4    0    0  0.36547926680E+01 -0.53755482777E+00  0.11711401975E+01  0.38767343217E+01  0.10500000000E+00 0. -1.
    3000001    1    5    5    0    0 -0.11499069826E+01 -0.33838565647E+00 -0.22052774589E+01  0.27018585440E+01  0.10000000000E+01 0.  1.
        -13    1    6    6    0    0 -0.22926461641E+02 -0.58332687173E+01 -0.85945978061E+01  0.25169978223E+02  0.10500000000E+00 0.  1.
         13    1    6    6    0    0 -0.31587950533E+02 -0.80544618033E+01 -0.11680144714E+02  0.34628164539E+02  0.10500000000E+00 0. -1.
</event>
<event>
11    0  0.3448258E-009  0.9118800E+02  0.7816531E-02  0.1126479E+00
         25   -1    0    0    0    0  0.00000000000E+00  0.00000000000E+00  0.99999998245E-14  0.12500000000E+03  0.12500000000E+03 0.  0.
    3000001    1    3    3    0    0  0.55752368941E+02  0.33533146218E+01  0.36209098128E+01  0.55979302866E+02  0.10000000000E+01 0. -1.
    1000022    2    1    0    0    0  0.61296047303E+02  0.65658706021E+01  0.24359686114E+01  0.62499998216E+02  0.99999881071E+01 0.  0.
    3000022    2    3    3    0    0  0.55436783626E+01  0.32125559804E+01 -0.11849412014E+01  0.65206953502E+01  0.24999297076E+00 0.  0.
    1000022    2    1    0    0    0 -0.61296047303E+02 -0.65658706021E+01 -0.24359686114E+01  0.62500001784E+02  0.10000010409E+02 0.  0.
    3000022    2    5    5    0    0 -0.38663325946E+02  0.66908046817E+00 -0.13790274463E+01  0.38694504149E+02  0.24998553800E+00 0.  0.
        -13    1    4    4    0    0  0.33823573273E+01  0.20269864405E+01 -0.70820291629E+00  0.40076915413E+01  0.10500000000E+00 0. -1.
         13    1    4    4    0    0  0.21613210352E+01  0.11855695398E+01 -0.47673828508E+00  0.25130038089E+01  0.10500000000E+00 0.  1.
    3000001    1    5    5    0    0 -0.22632721357E+02 -0.72349510703E+01 -0.10569411651E+01  0.23805497635E+02  0.10000000000E+01 0. -1.
        -13    1    6    6    0    0 -0.26744339497E+02  0.45334268472E+00 -0.90683249126E+00  0.26763755060E+02  0.10500000000E+00 0. -1.
         13    1    6    6    0    0 -0.11918986448E+02  0.21573778345E+00 -0.47219495505E+00  0.11930749089E+02  0.10500000000E+00 0.  1.
</event>
<event>
11    0  0.3448258E-009  0.9118800E+02  0.7816531E-02  0.1126479E+00
         25   -1    0    0    0    0  0.00000000000E+00  0.00000000000E+00  0.99999998245E-14  0.12500000000E+03  0.12500000000E+03 0.  0.
    3000001    1    3    3    0    0 -0.41675829556E+02 -0.13147275505E+02 -0.31444270145E+02  0.53846706003E+02  0.10000000000E+01 0. -1.
    1000022    2    1    0    0    0 -0.50100693317E+02 -0.13518173743E+02 -0.33368090806E+02  0.62499999315E+02  0.99999969045E+01 0.  0.
    3000022    2    3    3    0    0 -0.84248637610E+01 -0.37089823790E+00 -0.19238206618E+01  0.86532933123E+01  0.25000863163E+00 0.  0.
    1000022    2    1    0    0    0  0.50100693317E+02  0.13518173743E+02  0.33368090806E+02  0.62500000685E+02  0.10000005465E+02 0.  0.
    3000022    2    5    5    0    0  0.16569055260E+02  0.93924367629E+01  0.11950574178E+02  0.22486222121E+02  0.25000305892E+00 0.  0.
        -13    1    4    4    0    0 -0.53393188608E+01 -0.17762191795E+00 -0.12327968055E+01  0.54836747175E+01  0.10500000000E+00 0.  1.
         13    1    4    4    0    0 -0.30855449002E+01 -0.19327631995E+00 -0.69102385631E+00  0.31696185948E+01  0.10500000000E+00 0. -1.
    3000001    1    5    5    0    0  0.33531638057E+02  0.41257369801E+01  0.21417516629E+02  0.40013778564E+02  0.10000000000E+01 0. -1.
        -13    1    6    6    0    0  0.11078577574E+02  0.63393881677E+01  0.79951684753E+01  0.15061755122E+02  0.10500000000E+00 0. -1.
         13    1    6    6    0    0  0.54904776866E+01  0.30530485952E+01  0.39554057025E+01  0.74244669992E+01  0.10500000000E+00 0.  1.
</event>
<event>
11    0  0.3448258E-009  0.9118800E+02  0.7816531E-02  0.1126479E+00
         25   -1    0    0    0    0  0.00000000000E+00  0.00000000000E+00  0.99999998245E-14  0.12500000000E+03  0.12500000000E+03 0.  0.
    3000001    1    3    3    0    0  0.21729861518E+01 -0.75503002380E+01 -0.14031230555E+02  0.16112241725E+02  0.10000000000E+01 0.  1.
    1000022    2    1    0    0    0 -0.80428905929E+01 -0.27056168674E+02 -0.54859143639E+02  0.62499999364E+02  0.99999963642E+01 0.  0.
    3000022    2    3    3    0    0 -0.10215876745E+02 -0.19505868436E+02 -0.40827913084E+02  0.46387757639E+02  0.25006182996E+00 0.  0.
    1000022    2    1    0    0    0  0.80428905929E+01  0.27056168674E+02  0.54859143639E+02  0.62500000636E+02  0.10000004312E+02 0.  0.
    3000022    2    5    5    0    0  0.84504580759E+01  0.27373566704E+02  0.53809218175E+02  0.60960781274E+02  0.24999440862E+00 0.  0.
        -13    1    4    4    0    0 -0.54397828293E+01 -0.10402589261E+02 -0.21625296688E+02  0.24606291521E+02  0.10500000000E+00 0.  1.
         13    1    4    4    0    0 -0.47760939155E+01 -0.91032791749E+01 -0.19202616396E+02  0.21781466119E+02  0.10500000000E+00 0. -1.
    3000001    1    5    5    0    0 -0.40756748304E+00 -0.31739802944E+00  0.10499254640E+01  0.15392193613E+01  0.10000000000E+01 0.  1.
        -13    1    6    6    0    0  0.57781901194E+01  0.18657253216E+02  0.36584489533E+02  0.41471875747E+02  0.10500000000E+00 0. -1.
         13    1    6    6    0    0  0.26722679565E+01  0.87163134875E+01  0.17224728642E+02  0.19488905527E+02  0.10500000000E+00 0.  1.
</event>
<event>
11    0  0.3448258E-009  0.9118800E+02  0.7816531E-02  0.1126479E+00
         25   -1    0    0    0    0  0.00000000000E+00  0.00000000000E+00  0.99999998245E-14  0.12500000000E+03  0.12500000000E+03 0.  0.
    3000001    1    3    3    0    0 -0.24316575085E+02 -0.24839461864E+02  0.33144992194E+02  0.48040453756E+02  0.10000000000E+01 0.  1.
    1000022    2    1    0    0    0 -0.35612461927E+02 -0.31152844727E+02  0.39591696718E+02  0.62499996076E+02  0.99999940701E+01 0.  0.
    3000022    2    3    3    0    0 -0.11295886842E+02 -0.63133828631E+01  0.64467045236E+01  0.14459542320E+02  0.25000431336E+00 0.  0.
    1000022    2    1    0    0    0  0.35612461927E+02  0.31152844727E+02 -0.39591696718E+02  0.62500003924E+02  0.10000043119E+02 0.  0.
    3000022    2    5    5    0    0  0.25002416151E+02  0.23234825467E+02 -0.33729924438E+02  0.47986958942E+02  0.24999612739E+00 0.  0.
        -13    1    4    4    0    0 -0.40903363577E+01 -0.22220395297E+01  0.23018326563E+01  0.51940128772E+01  0.10500000000E+00 0. -1.
         13    1    4    4    0    0 -0.72055504841E+01 -0.40913433334E+01  0.41448718674E+01  0.92655294424E+01  0.10500000000E+00 0.  1.
    3000001    1    5    5    0    0  0.10610045777E+02  0.79180192600E+01 -0.58617722798E+01  0.14513044982E+02  0.10000000000E+01 0.  1.
        -13    1    6    6    0    0  0.12048667302E+02  0.11178454589E+02 -0.16335320308E+02  0.23172870891E+02  0.10500000000E+00 0.  1.
         13    1    6    6    0    0  0.12953748849E+02  0.12056370878E+02 -0.17394604130E+02  0.24814088051E+02  0.10500000000E+00 0. -1.
</event>
<event>
11    0  0.3448258E-009  0.9118800E+02  0.7816531E-02  0.1126479E+00
         25   -1    0    0    0    0  0.00000000000E+00  0.00000000000E+00  0.99999998245E-14  0.12500000000E+03  0.12500000000E+03 0.  0.
    3000001    1    3    3    0    0  0.85184414981E+00 -0.14348884873E+00 -0.23243983739E+01  0.26737717378E+01  0.10000000000E+01 0.  1.
    1000022    2    1    0    0    0  0.41665450779E+02  0.27055166875E+02 -0.36582211257E+02  0.62500000038E+02  0.99999990498E+01 0.  0.
    3000022    2    3    3    0    0  0.40813606629E+02  0.27198655724E+02 -0.34257812883E+02  0.59826228300E+02  0.24997956395E+00 0.  0.
    1000022    2    1    0    0    0 -0.41665450779E+02 -0.27055166875E+02  0.36582211257E+02  0.62499999962E+02  0.99999985801E+01 0.  0.
    3000022    2    5    5    0    0 -0.95087847820E+01 -0.11528538714E+02  0.11242364578E+02  0.18702338155E+02  0.24999648897E+00 0.  0.
        -13    1    4    4    0    0  0.28978128655E+02  0.19348968341E+02 -0.24373397870E+02  0.42522794651E+02  0.10500000000E+00 0.  1.
         13    1    4    4    0    0  0.11835477974E+02  0.78496873822E+01 -0.98844150132E+01  0.17303433649E+02  0.10500000000E+00 0. -1.
    3000001    1    5    5    0    0 -0.32156665997E+02 -0.15526628161E+02  0.25339846679E+02  0.43797661808E+02  0.10000000000E+01 0.  1.
        -13    1    6    6    0    0 -0.29622393935E+01 -0.36515158369E+01  0.35771447466E+01  0.59089271166E+01  0.10500000000E+00 0.  1.
         13    1    6    6    0    0 -0.65465453885E+01 -0.78770228770E+01  0.76652198309E+01  0.12793411038E+02  0.10500000000E+00 0. -1.
</event>
<event>
11    0  0.3448258E-009  0.9118800E+02  0.7816531E-02  0.1126479E+00
         25   -1    0    0    0    0  0.00000000000E+00  0.00000000000E+00  0.99999998245E-14  0.12500000000E+03  0.12500000000E+03 0.  0.
    3000001    1    3    3    0    0  0.16076283301E+02  0.21018127735E+02 -0.18748959613E+02  0.32445832781E+02  0.10000000000E+01 0. -1.
    1000022    2    1    0    0    0  0.38233207527E+02  0.37346120785E+02 -0.30817837376E+02  0.62499999704E+02  0.99999983497E+01 0.  0.
    3000022    2    3    3    0    0  0.22156924226E+02  0.16327993051E+02 -0.12068877762E+02  0.30054166923E+02  0.24998162790E+00 0.  0.
    1000022    2    1    0    0    0 -0.38233207527E+02 -0.37346120785E+02  0.30817837376E+02  0.62500000296E+02  0.10000002048E+02 0.  0.
    3000022    2    5    5    0    0 -0.16506405175E+02 -0.98262366103E+01  0.92457182055E+01  0.21320463012E+02  0.25000034341E+00 0.  0.
        -13    1    4    4    0    0  0.93241342597E+01  0.69453225379E+01 -0.51262690786E+01  0.12706952605E+02  0.10500000000E+00 0.  1.
         13    1    4    4    0    0  0.12832789966E+02  0.93826705127E+01 -0.69426086839E+01  0.17347214318E+02  0.10500000000E+00 0. -1.
    3000001    1    5    5    0    0 -0.21726802352E+02 -0.27519884175E+02  0.21572119170E+02  0.41179537284E+02  0.10000000000E+01 0.  1.
        -13    1    6    6    0    0 -0.70083402408E+01 -0.40999130157E+01  0.39296751179E+01  0.90210582084E+01  0.10500000000E+00 0. -1.
         13    1    6    6    0    0 -0.94980649343E+01 -0.57263235946E+01  0.53160430876E+01  0.12299404803E+02  0.10500000000E+00 0.  1.
</event>
<event>
11    0  0.3448258E-009  0.9118800E+02  0.7816531E-02  0.1126479E+00
         25   -1    0    0    0    0  0.00000000000E+00  0.00000000000E+00  0.99999998245E-14  0.12500000000E+03  0.12500000000E+03 0.  0.
    3000001    1    3    3    0    0 -0.18566699784E+00 -0.26122032844E+01 -0.10783769316E+01  0.30034938056E+01  0.10000000000E+01 0. -1.
    1000022    2    1    0    0    0 -0.26026043293E+02 -0.31652703329E+02 -0.46119423756E+02  0.62499998670E+02  0.10000001435E+02 0.  0.
    3000022    2    3    3    0    0 -0.25840376295E+02 -0.29040500045E+02 -0.45041046824E+02  0.59496504865E+02  0.25000438413E+00 0.  0.
    1000022    2    1    0    0    0  0.26026043293E+02  0.31652703329E+02  0.46119423756E+02  0.62500001330E+02  0.10000018055E+02 0.  0.
    3000022    2    5    5    0    0  0.32752155295E+01  0.21256646323E+01  0.93323610592E+01  0.10119335431E+02  0.24999946646E+00 0.  0.
        -13    1    4    4    0    0 -0.16075170154E+02 -0.17999018968E+02 -0.27898382026E+02  0.36887755746E+02  0.10500000000E+00 0.  1.
         13    1    4    4    0    0 -0.97652061409E+01 -0.11041481077E+02 -0.17142664798E+02  0.22608749119E+02  0.10500000000E+00 0. -1.
    3000001    1    5    5    0    0  0.22750827764E+02  0.29527038697E+02  0.36787062697E+02  0.52380665899E+02  0.10000000000E+01 0.  1.
        -13    1    6    6    0    0  0.11382946234E+01  0.76373466043E+00  0.34179737266E+01  0.36840975390E+01  0.10500000000E+00 0.  1.
         13    1    6    6    0    0  0.21369209060E+01  0.13619299719E+01  0.59143873326E+01  0.64352378920E+01  0.10500000000E+00 0. -1.
</event>
<event>
11    0  0.3448258E-009  0.9118800E+02  0.7816531E-02  0.1126479E+00
         25   -1    0    0    0    0  0.00000000000E+00  0.00000000000E+00  0.99999998245E-14  0.12500000000E+03  0.12500000000E+03 0.  0.
    3000001    1    3    3    0    0  0.16073553666E+02  0.23301020674E+02  0.12487818549E+02  0.30955489077E+02  0.10000000000E+01 0. -1.
    1000022    2    1    0    0    0  0.23216165018E+02  0.50519559229E+02  0.26740115047E+02  0.62500000383E+02  0.10000005616E+02 0.  0.
    3000022    2    3    3    0    0  0.71426113516E+01  0.27218538555E+02  0.14252296499E+02  0.31544511306E+02  0.25000009762E+00 0.  0.
    1000022    2    1    0    0    0 -0.23216165018E+02 -0.50519559229E+02 -0.26740115047E+02  0.62499999617E+02  0.10000000826E+02 0.  0.
    3000022    2    5    5    0    0 -0.42919565570E+01 -0.13754368583E+02 -0.11438362897E+02  0.18398429033E+02  0.24999781130E+00 0.  0.
        -13    1    4    4    0    0  0.34825395829E+01  0.13537905564E+02  0.70762487614E+01  0.15668034035E+02  0.10500000000E+00 0. -1.
         13    1    4    4    0    0  0.36600717686E+01  0.13680632991E+02  0.71760477373E+01  0.15876477271E+02  0.10500000000E+00 0.  1.
    3000001    1    5    5    0    0 -0.18924208461E+02 -0.36765190646E+02 -0.15301752150E+02  0.44101570584E+02  0.10000000000E+01 0. -1.
        -13    1    6    6    0    0 -0.20790887704E+01 -0.64688186078E+01 -0.54383933832E+01  0.87037561941E+01  0.10500000000E+00 0.  1.
         13    1    6    6    0    0 -0.22128677866E+01 -0.72855499751E+01 -0.59999695137E+01  0.96946728385E+01  0.10500000000E+00 0. -1.
</event>
<event>
11    0  0.3448258E-009  0.9118800E+02  0.7816531E-02  0.1126479E+00
         25   -1    0    0    0    0  0.00000000000E+00  0.00000000000E+00  0.99999998245E-14  0.12500000000E+03  0.12500000000E+03 0.  0.
    3000001    1    3    3    0    0 -0.65249513299E+00  0.12282701952E+01 -0.14513108538E+02  0.14613853599E+02  0.10000000000E+01 0.  1.
    1000022    2    1    0    0    0 -0.19807623856E+02  0.77989258299E+01 -0.57905828661E+02  0.62500001288E+02  0.99999980571E+01 0.  0.
    3000022    2    3    3    0    0 -0.19155128723E+02  0.65706556347E+01 -0.43392720123E+02  0.47886147689E+02  0.25001791478E+00 0.  0.
    1000022    2    1    0    0    0  0.19807623856E+02 -0.77989258299E+01  0.57905828661E+02  0.62499998712E+02  0.99999819539E+01 0.  0.
    3000022    2    5    5    0    0  0.19717852107E-01 -0.15006470562E+01  0.78229988795E+00  0.17107967178E+01  0.25000382765E+00 0.  0.
        -13    1    4    4    0    0 -0.55472287915E+01  0.19475528809E+01 -0.12617787317E+02  0.13920642631E+02  0.10500000000E+00 0. -1.
         13    1    4    4    0    0 -0.13607899932E+02  0.46231027539E+01 -0.30774932806E+02  0.33965505058E+02  0.10500000000E+00 0.  1.
    3000001    1    5    5    0    0  0.19787906004E+02 -0.62982787738E+01  0.57123528773E+02  0.60789201994E+02  0.10000000000E+01 0. -1.
        -13    1    6    6    0    0  0.88341516531E-02 -0.52587523119E+00  0.21334388585E+00  0.57720309653E+00  0.10500000000E+00 0.  1.
         13    1    6    6    0    0  0.10883700454E-01 -0.97477182500E+00  0.56895600210E+00  0.11335936212E+01  0.10500000000E+00 0. -1.
</event>
<event>
11    0  0.3448258E-009  0.9118800E+02  0.7816531E-02  0.1126479E+00
         25   -1    0    0    0    0  0.00000000000E+00  0.00000000000E+00  0.99999998245E-14  0.12500000000E+03  0.12500000000E+03 0.  0.
    3000001    1    3    3    0    0  0.16885196812E+02 -0.18095349697E+02  0.15706836403E+01  0.24819721979E+02  0.10000000000E+01 0. -1.
    1000022    2    1    0    0    0  0.47028855659E+02 -0.37983222441E+02  0.12321181749E+02  0.62500000240E+02  0.10000002933E+02 0.  0.
    3000022    2    3    3    0    0  0.30143658847E+02 -0.19887872745E+02  0.10750498109E+02  0.37680278261E+02  0.25001844596E+00 0.  0.
    1000022    2    1    0    0    0 -0.47028855659E+02  0.37983222441E+02 -0.12321181749E+02  0.62499999760E+02  0.99999999393E+01 0.  0.
    3000022    2    5    5    0    0 -0.22439228434E+02  0.21409092889E+02 -0.19775216678E+01  0.31077987710E+02  0.24999415607E+00 0.  0.
        -13    1    4    4    0    0  0.19702433078E+02 -0.12932353455E+02  0.70227557629E+01  0.24591904330E+02  0.10500000000E+00 0.  1.
         13    1    4    4    0    0  0.10441225769E+02 -0.69555192895E+01  0.37277423457E+01  0.13088373931E+02  0.10500000000E+00 0. -1.
    3000001    1    5    5    0    0 -0.24589627225E+02  0.16574129552E+02 -0.10343660081E+02  0.31422012051E+02  0.10000000000E+01 0. -1.
        -13    1    6    6    0    0 -0.12305442201E+02  0.11831999054E+02 -0.10806922882E+01  0.17105526306E+02  0.10500000000E+00 0. -1.
         13    1    6    6    0    0 -0.10133786233E+02  0.95770938355E+01 -0.89682937955E+00  0.13972461404E+02  0.10500000000E+00 0.  1.
</event>
<event>
11    0  0.3448258E-009  0.9118800E+02  0.7816531E-02  0.1126479E+00
         25   -1    0    0    0    0  0.00000000000E+00  0.00000000000E+00  0.99999998245E-14  0.12500000000E+03  0.12500000000E+03 0.  0.
    3000001    1    3    3    0    0 -0.20139069347E+01 -0.31434936869E+01 -0.29190716764E+02  0.29445463469E+02  0.10000000000E+01 0.  1.
    1000022    2    1    0    0    0 -0.68764686406E+01  0.34477725302E+01 -0.61213373662E+02  0.62499999538E+02  0.99999935391E+01 0.  0.
    3000022    2    3    3    0    0 -0.48625617059E+01  0.65912662171E+01 -0.32022656898E+02  0.33054536069E+02  0.25000649974E+00 0.  0.
    1000022    2    1    0    0    0  0.68764686406E+01 -0.34477725302E+01  0.61213373662E+02  0.62500000462E+02  0.99999993112E+01 0.  0.
    3000022    2    5    5    0    0  0.79131541148E+01 -0.54795489076E+01  0.40075779282E+02  0.41216186701E+02  0.24999367334E+00 0.  0.
        -13    1    4    4    0    0 -0.17743785458E+01  0.24980100029E+01 -0.11884418818E+02  0.12273504342E+02  0.10500000000E+00 0.  1.
         13    1    4    4    0    0 -0.30881831600E+01  0.40932562142E+01 -0.20138238081E+02  0.20781031727E+02  0.10500000000E+00 0. -1.
    3000001    1    5    5    0    0 -0.10366854742E+01  0.20317763774E+01  0.21137594380E+02  0.21283813760E+02  0.10000000000E+01 0.  1.
        -13    1    6    6    0    0  0.24154482192E+01 -0.17156650638E+01  0.12202232181E+02  0.12557204781E+02  0.10500000000E+00 0.  1.
         13    1    6    6    0    0  0.54977058956E+01 -0.37638838438E+01  0.27873547101E+02  0.28658981920E+02  0.10500000000E+00 0. -1.
</event>
<event>
11    0  0.3448258E-009  0.9118800E+02  0.7816531E-02  0.1126479E+00
         25   -1    0    0    0    0  0.00000000000E+00  0.00000000000E+00  0.99999998245E-14  0.12500000000E+03  0.12500000000E+03 0.  0.
    3000001    1    3    3    0    0 -0.10158241329E+01 -0.66580243780E+00 -0.78830199001E+00  0.17597191772E+01  0.10000000000E+01 0. -1.
    1000022    2    1    0    0    0 -0.22388177038E+02  0.11469739437E+02 -0.56333513270E+02  0.62500001005E+02  0.10000000720E+02 0.  0.
    3000022    2    3    3    0    0 -0.21372352905E+02  0.12135541875E+02 -0.55545211280E+02  0.60740281828E+02  0.24999008049E+00 0.  0.
    1000022    2    1    0    0    0  0.22388177038E+02 -0.11469739437E+02  0.56333513270E+02  0.62499998995E+02  0.99999881610E+01 0.  0.
    3000022    2    5    5    0    0  0.50785395363E+00 -0.15689865722E+01  0.54699518493E+00  0.17553774586E+01  0.25002357450E+00 0.  0.
        -13    1    4    4    0    0 -0.54124536624E+01  0.30911616085E+01 -0.14029318328E+02  0.15351961845E+02  0.10500000000E+00 0.  1.
         13    1    4    4    0    0 -0.15959899242E+02  0.90443802660E+01 -0.41515892952E+02  0.45388319983E+02  0.10500000000E+00 0. -1.
    3000001    1    5    5    0    0  0.21880323084E+02 -0.99007528645E+01  0.55786518085E+02  0.60744621537E+02  0.10000000000E+01 0.  1.
        -13    1    6    6    0    0  0.32689861910E+00 -0.82033034210E+00  0.32708608175E+00  0.94753093998E+00  0.10500000000E+00 0. -1.
         13    1    6    6    0    0  0.18095533453E+00 -0.74865623013E+00  0.21990910318E+00  0.80784651864E+00  0.10500000000E+00 0.  1.
</event>
<event>
11    0  0.3448258E-009  0.9118800E+02  0.7816531E-02  0.1126479E+00
         25   -1    0    0    0    0  0.00000000000E+00  0.00000000000E+00  0.99999998245E-14  0.12500000000E+03  0.12500000000E+03 0.  0.
    3000001    1    3    3    0    0 -0.97180230848E+00 -0.45112183953E+00 -0.12056527901E+01  0.18977642875E+01  0.10000000000E+01 0.  1.
    1000022    2    1    0    0    0  0.99347227942E+01 -0.14207350046E+02 -0.59208961087E+02  0.62500011553E+02  0.10000142938E+02 0.  0.
    3000022    2    3    3    0    0  0.10906525103E+02 -0.13756228207E+02 -0.58003308297E+02  0.60602247266E+02  0.24999187235E+00 0.  0.
    1000022    2    1    0    0    0 -0.99347227942E+01  0.14207350046E+02  0.59208961087E+02  0.62499988447E+02  0.99999985237E+01 0.  0.
    3000022    2    5    5    0    0 -0.59451124476E+01  0.40956704443E+01  0.37629691041E+02  0.38316772143E+02  0.25000234162E+00 0.  0.
        -13    1    4    4    0    0  0.50403771316E+01 -0.64500847720E+01 -0.26926337381E+02  0.28143341397E+02  0.10500000000E+00 0.  1.
         13    1    4    4    0    0  0.58661479711E+01 -0.73061434347E+01 -0.31076970916E+02  0.32458905869E+02  0.10500000000E+00 0. -1.
    3000001    1    5    5    0    0 -0.39896103466E+01  0.10111679602E+02  0.21579270046E+02  0.24183216304E+02  0.10000000000E+01 0. -1.
        -13    1    6    6    0    0 -0.24363256807E+01  0.16028191450E+01  0.15137121835E+02  0.15415842321E+02  0.10500000000E+00 0.  1.
         13    1    6    6    0    0 -0.35087867669E+01  0.24928512993E+01  0.22492569206E+02  0.22900929821E+02  0.10500000000E+00 0. -1.
</event>
<event>
11    0  0.3448258E-009  0.9118800E+02  0.7816531E-02  0.1126479E+00
         25   -1    0    0    0    0  0.00000000000E+00  0.00000000000E+00  0.99999998245E-14  0.12500000000E+03  0.12500000000E+03 0.  0.
    3000001    1    3    3    0    0 -0.12271485042E+02  0.70431036481E+01  0.21227419846E+02  0.25530335044E+02  0.10000000000E+01 0.  1.
    1000022    2    1    0    0    0 -0.22855438305E+02  0.26621850475E+02  0.50745994002E+02  0.62499999900E+02  0.10000004873E+02 0.  0.
    3000022    2    3    3    0    0 -0.10583953263E+02  0.19578746827E+02  0.29518574156E+02  0.36969664857E+02  0.25001082592E+00 0.  0.
    1000022    2    1    0    0    0  0.22855438305E+02 -0.26621850475E+02 -0.50745994002E+02  0.62500000100E+02  0.10000006120E+02 0.  0.
    3000022    2    5    5    0    0  0.56502017634E+01 -0.12824375009E+01 -0.70415058004E+01  0.91222116173E+01  0.25002988173E+00 0.  0.
        -13    1    4    4    0    0 -0.69192703060E+01  0.12762033704E+02  0.19164967551E+02  0.24042728881E+02  0.10500000000E+00 0.  1.
         13    1    4    4    0    0 -0.36646829572E+01  0.68167131223E+01  0.10353606606E+02  0.12926935975E+02  0.10500000000E+00 0. -1.
    3000001    1    5    5    0    0  0.17205236542E+02 -0.25339412974E+02 -0.43704488201E+02  0.53377788482E+02  0.10000000000E+01 0.  1.
        -13    1    6    6    0    0  0.22855031161E+01 -0.58393184301E+00 -0.28595249106E+01  0.37084240056E+01  0.10500000000E+00 0. -1.
         13    1    6    6    0    0  0.33646986473E+01 -0.69850565787E+00 -0.41819808898E+01  0.54137876117E+01  0.10500000000E+00 0.  1.
</event>
<event>
11    0  0.3448258E-009  0.9118800E+02  0.7816531E-02  0.1126479E+00
         25   -1    0    0    0    0  0.00000000000E+00  0.00000000000E+00  0.99999998245E-14  0.12500000000E+03  0.12500000000E+03 0.  0.
    3000001    1    3    3    0    0 -0.13883892957E+02 -0.11459390268E+02  0.36736589661E+01  0.18400431494E+02  0.10000000000E+01 0.  1.
    1000022    2    1    0    0    0 -0.54241492495E+02 -0.29227135947E+02  0.31441356317E+01  0.62499995284E+02  0.99999418960E+01 0.  0.
    3000022    2    3    3    0    0 -0.40357599538E+02 -0.17767745679E+02 -0.52952333450E+00  0.44099563791E+02  0.25000914543E+00 0.  0.
    1000022    2    1    0    0    0  0.54241492495E+02  0.29227135947E+02 -0.31441356317E+01  0.62500004716E+02  0.10000000842E+02 0.  0.
    3000022    2    5    5    0    0  0.10725829526E+00  0.15954425659E+01 -0.30541565238E+00  0.16470333615E+01  0.24999770080E+00 0.  0.
        -13    1    4    4    0    0 -0.30546186243E+02 -0.13436546013E+02 -0.38158996530E+00  0.33373146370E+02  0.10500000000E+00 0. -1.
         13    1    4    4    0    0 -0.98114132948E+01 -0.43311996663E+01 -0.14793336920E+00  0.10726417420E+02  0.10500000000E+00 0.  1.
    3000001    1    5    5    0    0  0.54134234200E+02  0.27631693382E+02 -0.28387199793E+01  0.60852971354E+02  0.10000000000E+01 0.  1.
        -13    1    6    6    0    0  0.24881940087E-02  0.56491171689E+00 -0.15450028015E+00  0.59500149206E+00  0.10500000000E+00 0.  1.
         13    1    6    6    0    0  0.10477010125E+00  0.10305308490E+01 -0.15091537223E+00  0.10520318695E+01  0.10500000000E+00 0. -1.
</event>
<event>
11    0  0.3448258E-009  0.9118800E+02  0.7816531E-02  0.1126479E+00
         25   -1    0    0    0    0  0.00000000000E+00  0.00000000000E+00  0.99999998245E-14  0.12500000000E+03  0.12500000000E+03 0.  0.
    3000001    1    3    3    0    0  0.15946032179E+02 -0.30038091621E+02  0.26468007402E+02  0.43105896422E+02  0.10000000000E+01 0.  1.
    1000022    2    1    0    0    0  0.25402770325E+02 -0.45834576419E+02  0.32559802533E+02  0.62500001248E+02  0.10000013967E+02 0.  0.
    3000022    2    3    3    0    0  0.94567381457E+01 -0.15796484798E+02  0.60917951312E+01  0.19394104827E+02  0.25001154573E+00 0.  0.
    1000022    2    1    0    0    0 -0.25402770325E+02  0.45834576419E+02 -0.32559802533E+02  0.62499998752E+02  0.99999983620E+01 0.  0.
    3000022    2    5    5    0    0 -0.57282484208E+01  0.40714470683E+01 -0.59060215397E+01  0.91833050565E+01  0.24998026252E+00 0.  0.
        -13    1    4    4    0    0  0.62408936521E+01 -0.10518853861E+02  0.40720754402E+01  0.12891387184E+02  0.10500000000E+00 0.  1.
         13    1    4    4    0    0  0.32158444936E+01 -0.52776309368E+01  0.20197196910E+01  0.65027176428E+01  0.10500000000E+00 0. -1.
    3000001    1    5    5    0    0 -0.19674521904E+02  0.41763129351E+02 -0.26653780993E+02  0.53316693695E+02  0.10000000000E+01 0.  1.
        -13    1    6    6    0    0 -0.17288852064E+01  0.12079816257E+01 -0.18295095942E+01  0.27939924875E+01  0.10500000000E+00 0.  1.
         13    1    6    6    0    0 -0.39993632145E+01  0.28634654426E+01 -0.40765119455E+01  0.63893125690E+01  0.10500000000E+00 0. -1.
</event>
<event>
11    0  0.3448258E-009  0.9118800E+02  0.7816531E-02  0.1126479E+00
         25   -1    0    0    0    0  0.00000000000E+00  0.00000000000E+00  0.99999998245E-14  0.12500000000E+03  0.12500000000E+03 0.  0.
    3000001    1    3    3    0    0  0.53772296567E+02  0.71206829824E+01  0.23246450522E+02  0.59021703348E+02  0.10000000000E+01 0.  1.
    1000022    2    1    0    0    0  0.55478875634E+02  0.64802163319E+01  0.26198304241E+02  0.62500000756E+02  0.10000005205E+02 0.  0.
    3000022    2    3    3    0    0  0.17065790662E+01 -0.64046665045E+00  0.29518537196E+01  0.34782974077E+01  0.25000566949E+00 0.  0.
    1000022    2    1    0    0    0 -0.55478875634E+02 -0.64802163319E+01 -0.26198304241E+02  0.62499999244E+02  0.99999957562E+01 0.  0.
    3000022    2    5    5    0    0 -0.24966470911E+02  0.13343481746E+01 -0.88240681847E+01  0.26514747558E+02  0.25000784802E+00 0.  0.
        -13    1    4    4    0    0  0.10255831181E+01 -0.32183675006E+00  0.16857102380E+01  0.20020098982E+01  0.10500000000E+00 0. -1.
         13    1    4    4    0    0  0.68099594806E+00 -0.31862990039E+00  0.12661434816E+01  0.14762875095E+01  0.10500000000E+00 0.  1.
    3000001    1    5    5    0    0 -0.30512404723E+02 -0.78145645065E+01 -0.17374236057E+02  0.35985251686E+02  0.10000000000E+01 0.  1.
        -13    1    6    6    0    0 -0.15671778426E+02  0.87795527103E+00 -0.54927378868E+01  0.16629992152E+02  0.10500000000E+00 0. -1.
         13    1    6    6    0    0 -0.92946924851E+01  0.45639290360E+00 -0.33313302979E+01  0.98847554056E+01  0.10500000000E+00 0.  1.
</event>
<event>
11    0  0.3448258E-009  0.9118800E+02  0.7816531E-02  0.1126479E+00
         25   -1    0    0    0    0  0.00000000000E+00  0.00000000000E+00  0.99999998245E-14  0.12500000000E+03  0.12500000000E+03 0.  0.
    3000001    1    3    3    0    0 -0.65143155169E+01 -0.16499384470E+02  0.19470335528E+02  0.26358299644E+02  0.10000000000E+01 0. -1.
    1000022    2    1    0    0    0 -0.49184984843E+01 -0.36044482740E+02  0.49828241781E+02  0.62499999554E+02  0.99999950909E+01 0.  0.
    3000022    2    3    3    0    0  0.15958170326E+01 -0.19545098270E+02  0.30357906253E+02  0.36141699909E+02  0.25000375247E+00 0.  0.
    1000022    2    1    0    0    0  0.49184984843E+01  0.36044482740E+02 -0.49828241781E+02  0.62500000446E+02  0.10000000671E+02 0.  0.
    3000022    2    5    5    0    0  0.40033721409E+01  0.42892626054E+01 -0.64405833615E+01  0.87159845569E+01  0.25002112710E+00 0.  0.
        -13    1    4    4    0    0  0.91543304417E+00 -0.10385140546E+02  0.16132717705E+02  0.19208455621E+02  0.10500000000E+00 0.  1.
         13    1    4    4    0    0  0.68038398843E+00 -0.91599577235E+01  0.14225188549E+02  0.16933244288E+02  0.10500000000E+00 0. -1.
    3000001    1    5    5    0    0  0.91512634341E+00  0.31755220135E+02 -0.43387658420E+02  0.53784015890E+02  0.10000000000E+01 0. -1.
        -13    1    6    6    0    0  0.95816235764E+00  0.10094211235E+01 -0.15493150253E+01  0.20852837111E+01  0.10500000000E+00 0. -1.
         13    1    6    6    0    0  0.30452097832E+01  0.32798414819E+01 -0.48912683362E+01  0.66307008459E+01  0.10500000000E+00 0.  1.
</event>
<event>
11    0  0.3448258E-009  0.9118800E+02  0.7816531E-02  0.1126479E+00
         25   -1    0    0    0    0  0.00000000000E+00  0.00000000000E+00  0.99999998245E-14  0.12500000000E+03  0.12500000000E+03 0.  0.
    3000001    1    3    3    0    0 -0.16893607182E+02 -0.29553085910E+02 -0.12296350890E+01  0.34077717835E+02  0.10000000000E+01 0.  1.
    1000022    2    1    0    0    0 -0.25434576760E+02 -0.55435404579E+02 -0.92870010591E+01  0.62500001708E+02  0.10000002447E+02 0.  0.
    3000022    2    3    3    0    0 -0.85409695782E+01 -0.25882318670E+02 -0.80573659701E+01  0.28422283872E+02  0.24998618852E+00 0.  0.
    1000022    2    1    0    0    0  0.25434576760E+02  0.55435404579E+02  0.92870010591E+01  0.62499998292E+02  0.99999811023E+01 0.  0.
    3000022    2    5    5    0    0  0.13460337201E+02  0.36697452954E+02  0.22465694046E+01  0.39153458463E+02  0.25000930601E+00 0.  0.
        -13    1    4    4    0    0 -0.45711392268E+01 -0.13922184116E+02 -0.43981143901E+01  0.15299573836E+02  0.10500000000E+00 0. -1.
         13    1    4    4    0    0 -0.39698303514E+01 -0.11960134554E+02 -0.36592515800E+01  0.13122710036E+02  0.10500000000E+00 0.  1.
    3000001    1    5    5    0    0  0.11974239558E+02  0.18737951626E+02  0.70404316545E+01  0.23346539830E+02  0.10000000000E+01 0. -1.
        -13    1    6    6    0    0  0.85696956111E+01  0.23192023439E+02  0.14213072207E+01  0.24765717702E+02  0.10500000000E+00 0.  1.
         13    1    6    6    0    0  0.48906415903E+01  0.13505429514E+02  0.82526218383E+00  0.14387740761E+02  0.10500000000E+00 0. -1.
</event>
<event>
11    0  0.3448258E-009  0.9118800E+02  0.7816531E-02  0.1126479E+00
         25   -1    0    0    0    0  0.00000000000E+00  0.00000000000E+00  0.99999998245E-14  0.12500000000E+03  0.12500000000E+03 0.  0.
    3000001    1    3    3    0    0 -0.11993675253E+02  0.22573907562E+02  0.22987223639E+02  0.34392470096E+02  0.10000000000E+01 0.  1.
    1000022    2    1    0    0    0 -0.17437477090E+02  0.46679401866E+02  0.36376062916E+02  0.62500001909E+02  0.10000005976E+02 0.  0.
    3000022    2    3    3    0    0 -0.54438018374E+01  0.24105494304E+02  0.13388839277E+02  0.28107531813E+02  0.24998668202E+00 0.  0.
    1000022    2    1    0    0    0  0.17437477090E+02 -0.46679401866E+02 -0.36376062916E+02  0.62499998091E+02  0.99999821079E+01 0.  0.
    3000022    2    5    5    0    0  0.80421556083E+01 -0.33798304416E+02 -0.26764184014E+02  0.43856421360E+02  0.25000069461E+00 0.  0.
        -13    1    4    4    0    0 -0.38728438402E+01  0.17031481158E+02  0.95029099776E+01  0.19884330335E+02  0.10500000000E+00 0.  1.
         13    1    4    4    0    0 -0.15709579972E+01  0.70740131464E+01  0.38859292995E+01  0.82232014778E+01  0.10500000000E+00 0. -1.
    3000001    1    5    5    0    0  0.93953214822E+01 -0.12881097450E+02 -0.96118789024E+01  0.18643576731E+02  0.10000000000E+01 0. -1.
        -13    1    6    6    0    0  0.56077455253E+01 -0.23749410824E+02 -0.18819172847E+02  0.30816450413E+02  0.10500000000E+00 0. -1.
         13    1    6    6    0    0  0.24344100830E+01 -0.10048893592E+02 -0.79450111664E+01  0.13039970947E+02  0.10500000000E+00 0.  1.
</event>
<event>
11    0  0.3448258E-009  0.9118800E+02  0.7816531E-02  0.1126479E+00
         25   -1    0    0    0    0  0.00000000000E+00  0.00000000000E+00  0.99999998245E-14  0.12500000000E+03  0.12500000000E+03 0.  0.
    3000001    1    3    3    0    0 -0.19499470923E+02 -0.22993268341E+02 -0.36053235887E+01  0.30379567368E+02  0.10000000000E+01 0. -1.
    1000022    2    1    0    0    0 -0.46016734169E+02 -0.41045651195E+02 -0.19910461048E+01  0.62499999651E+02  0.10000019307E+02 0.  0.
    3000022    2    3    3    0    0 -0.26517263246E+02 -0.18052382854E+02  0.16142774839E+01  0.32120432283E+02  0.25000294997E+00 0.  0.
    1000022    2    1    0    0    0  0.46016734169E+02  0.41045651195E+02  0.19910461048E+01  0.62500000349E+02  0.10000023672E+02 0.  0.
    3000022    2    5    5    0    0  0.33575668982E+02  0.30477263217E+02  0.57785635758E+01  0.45712617705E+02  0.24999933295E+00 0.  0.
        -13    1    4    4    0    0 -0.17686771573E+02 -0.12104690805E+02  0.10850290662E+01  0.21460049889E+02  0.10500000000E+00 0.  1.
         13    1    4    4    0    0 -0.88304916732E+01 -0.59476920492E+01  0.52924841762E+00  0.10660382394E+02  0.10500000000E+00 0. -1.
    3000001    1    5    5    0    0  0.12441065187E+02  0.10568387978E+02 -0.37875174710E+01  0.16787382644E+02  0.10000000000E+01 0. -1.
        -13    1    6    6    0    0  0.20368152391E+02  0.18407077949E+02  0.35149132054E+01  0.27677568359E+02  0.10500000000E+00 0.  1.
         13    1    6    6    0    0  0.13207516591E+02  0.12070185268E+02  0.22636503704E+01  0.18035049346E+02  0.10500000000E+00 0. -1.
</event>
<event>
11    0  0.3448258E-009  0.9118800E+02  0.7816531E-02  0.1126479E+00
         25   -1    0    0    0    0  0.00000000000E+00  0.00000000000E+00  0.99999998245E-14  0.12500000000E+03  0.12500000000E+03 0.  0.
    3000001    1    3    3    0    0 -0.17831766574E+02 -0.24423620860E+02 -0.23308189225E+02  0.38193675393E+02  0.10000000000E+01 0.  1.
    1000022    2    1    0    0    0 -0.30764383293E+02 -0.43424327804E+02 -0.31211063194E+02  0.62499998576E+02  0.99999915782E+01 0.  0.
    3000022    2    3    3    0    0 -0.12932616719E+02 -0.19000706945E+02 -0.79028739692E+01  0.24306323183E+02  0.24998020194E+00 0.  0.
    1000022    2    1    0    0    0  0.30764383293E+02  0.43424327804E+02  0.31211063194E+02  0.62500001424E+02  0.10000009384E+02 0.  0.
    3000022    2    5    5    0    0  0.13574662241E+02  0.20537487455E+02  0.20088585365E+02  0.31775361734E+02  0.25001089554E+00 0.  0.
        -13    1    4    4    0    0 -0.47729366424E+01 -0.70528934037E+01 -0.28700450893E+01  0.89873474046E+01  0.10500000000E+00 0.  1.
         13    1    4    4    0    0 -0.81596800767E+01 -0.11947813541E+02 -0.50328288799E+01  0.15318975778E+02  0.10500000000E+00 0. -1.
    3000001    1    5    5    0    0  0.17189721052E+02  0.22886840350E+02  0.11122477828E+02  0.30724639690E+02  0.10000000000E+01 0.  1.
        -13    1    6    6    0    0  0.49494579064E+01  0.73911089896E+01  0.72885576313E+01  0.11500422732E+02  0.10500000000E+00 0.  1.
         13    1    6    6    0    0  0.86252043347E+01  0.13146378465E+02  0.12800027734E+02  0.20274939003E+02  0.10500000000E+00 0. -1.
</event>
<event>
11    0  0.3448258E-009  0.9118800E+02  0.7816531E-02  0.1126479E+00
         25   -1    0    0    0    0  0.00000000000E+00  0.00000000000E+00  0.99999998245E-14  0.12500000000E+03  0.12500000000E+03 0.  0.
    3000001    1    3    3    0    0  0.11642137120E+00 -0.59826093240E+01 -0.36646857464E+01  0.70876716825E+01  0.10000000000E+01 0.  1.
    1000022    2    1    0    0    0  0.18229240446E+02 -0.37298353973E+02 -0.45637457087E+02  0.62499999826E+02  0.10000003627E+02 0.  0.
    3000022    2    3    3    0    0  0.18112819075E+02 -0.31315744649E+02 -0.41972771341E+02  0.55412328143E+02  0.24999699643E+00 0.  0.
    1000022    2    1    0    0    0 -0.18229240446E+02  0.37298353973E+02  0.45637457087E+02  0.62500000174E+02  0.10000005804E+02 0.  0.
    3000022    2    5    5    0    0 -0.14526997118E+02  0.32195646201E+02  0.32985665048E+02  0.48329182482E+02  0.25000232247E+00 0.  0.
        -13    1    4    4    0    0  0.55740697092E+01 -0.96314378979E+01 -0.12838304314E+02  0.16990230480E+02  0.10500000000E+00 0. -1.
         13    1    4    4    0    0  0.12538749365E+02 -0.21684306751E+02 -0.29134467027E+02  0.38422097663E+02  0.10500000000E+00 0.  1.
    3000001    1    5    5    0    0 -0.37022433276E+01  0.51027077721E+01  0.12651792039E+02  0.14170817692E+02  0.10000000000E+01 0.  1.
        -13    1    6    6    0    0 -0.99916602805E+01  0.22189638696E+02  0.22787403189E+02  0.33339017828E+02  0.10500000000E+00 0. -1.
         13    1    6    6    0    0 -0.45353368377E+01  0.10006007505E+02  0.10198261858E+02  0.14990164654E+02  0.10500000000E+00 0.  1.
</event>
<event>
11    0  0.3448258E-009  0.9118800E+02  0.7816531E-02  0.1126479E+00
         25   -1    0    0    0    0  0.00000000000E+00  0.00000000000E+00  0.99999998245E-14  0.12500000000E+03  0.12500000000E+03 0.  0.
    3000001    1    3    3    0    0 -0.14640812702E-02 -0.13418412583E+01 -0.16588133383E+01  0.23563110570E+01  0.10000000000E+01 0. -1.
    1000022    2    1    0    0    0  0.15455261599E+02  0.16512338530E+01 -0.59704760029E+02  0.62499999781E+02  0.99999959076E+01 0.  0.
    3000022    2    3    3    0    0  0.15456725680E+02  0.29930751112E+01 -0.58045946690E+02  0.60143688724E+02  0.24999742947E+00 0.  0.
    1000022    2    1    0    0    0 -0.15455261599E+02 -0.16512338530E+01  0.59704760029E+02  0.62500000219E+02  0.99999986499E+01 0.  0.
    3000022    2    5    5    0    0  0.43635609713E+00  0.38888733008E+00 -0.39150615917E-01  0.63692184008E+00  0.24999332121E+00 0.  0.
        -13    1    4    4    0    0  0.11104159232E+02  0.21724729189E+01 -0.41584077637E+02  0.43096038434E+02  0.10500000000E+00 0.  1.
         13    1    4    4    0    0  0.43525664483E+01  0.82060219229E+00 -0.16461869054E+02  0.17047650289E+02  0.10500000000E+00 0. -1.
    3000001    1    5    5    0    0 -0.15891617696E+02 -0.20401211830E+01  0.59743910645E+02  0.61863078379E+02  0.10000000000E+01 0.  1.
        -13    1    6    6    0    0  0.30000448228E+00  0.23041792366E+00 -0.76645199668E-01  0.39999324439E+00  0.10500000000E+00 0. -1.
         13    1    6    6    0    0  0.13635161485E+00  0.15846940642E+00  0.37494583751E-01  0.23692859569E+00  0.10500000000E+00 0.  1.
</event>
<event>
11    0  0.3448258E-009  0.9118800E+02  0.7816531E-02  0.1126479E+00
         25   -1    0    0    0    0  0.00000000000E+00  0.00000000000E+00  0.99999998245E-14  0.12500000000E+03  0.12500000000E+03 0.  0.
    3000001    1    3    3    0    0  0.18705390681E+01 -0.17474104797E+02 -0.22626482928E+02  0.28667071433E+02  0.10000000000E+01 0. -1.
    1000022    2    1    0    0    0  0.10247514925E+02 -0.43574107837E+02 -0.42456276677E+02  0.62500000341E+02  0.10000008870E+02 0.  0.
    3000022    2    3    3    0    0  0.83769758567E+01 -0.26100003040E+02 -0.19829793748E+02  0.33832928907E+02  0.24995028593E+00 0.  0.
    1000022    2    1    0    0    0 -0.10247514925E+02  0.43574107837E+02  0.42456276677E+02  0.62499999659E+02  0.10000004612E+02 0.  0.
    3000022    2    5    5    0    0 -0.27049930106E+01  0.28251557588E+02  0.30278081953E+02  0.41500508958E+02  0.25000747774E+00 0.  0.
        -13    1    4    4    0    0  0.63221641572E+01 -0.19692784792E+02 -0.14990564491E+02  0.25544149648E+02  0.10500000000E+00 0.  1.
         13    1    4    4    0    0  0.20548116995E+01 -0.64072182485E+01 -0.48392292576E+01  0.82887792594E+01  0.10500000000E+00 0. -1.
    3000001    1    5    5    0    0 -0.75425219141E+01  0.15322550250E+02  0.12178194724E+02  0.20999490701E+02  0.10000000000E+01 0. -1.
        -13    1    6    6    0    0 -0.15694967800E+01  0.16247546751E+02  0.17321091517E+02  0.23800784271E+02  0.10500000000E+00 0.  1.
         13    1    6    6    0    0 -0.11354962307E+01  0.12004010837E+02  0.12956990436E+02  0.17699724688E+02  0.10500000000E+00 0. -1.
</event>
<event>
11    0  0.3448258E-009  0.9118800E+02  0.7816531E-02  0.1126479E+00
         25   -1    0    0    0    0  0.00000000000E+00  0.00000000000E+00  0.99999998245E-14  0.12500000000E+03  0.12500000000E+03 0.  0.
    3000001    1    3    3    0    0  0.93778391690E+01 -0.31010460475E+02  0.10754309708E+02  0.34150369012E+02  0.10000000000E+01 0. -1.
    1000022    2    1    0    0    0  0.15544111611E+02 -0.52901817290E+02  0.27677215536E+02  0.62500001496E+02  0.10000012445E+02 0.  0.
    3000022    2    3    3    0    0  0.61662724418E+01 -0.21891356814E+02  0.16922905827E+02  0.28349632484E+02  0.25000266361E+00 0.  0.
    1000022    2    1    0    0    0 -0.15544111611E+02  0.52901817290E+02 -0.27677215536E+02  0.62499998504E+02  0.99999937435E+01 0.  0.
    3000022    2    5    5    0    0 -0.53000404299E+01  0.68317910229E+01 -0.61725819564E+01  0.10626714629E+02  0.24999732366E+00 0.  0.
        -13    1    4    4    0    0  0.37108661961E+01 -0.13006447645E+02  0.10119181631E+02  0.16892219220E+02  0.10500000000E+00 0.  1.
         13    1    4    4    0    0  0.24554062457E+01 -0.88849091688E+01  0.68037241963E+01  0.11457413264E+02  0.10500000000E+00 0. -1.
    3000001    1    5    5    0    0 -0.10244071181E+02  0.46070026267E+02 -0.21504633579E+02  0.51873283875E+02  0.10000000000E+01 0.  1.
        -13    1    6    6    0    0 -0.37599536709E+01  0.48056640161E+01 -0.43995674272E+01  0.75232225003E+01  0.10500000000E+00 0.  1.
         13    1    6    6    0    0 -0.15400867590E+01  0.20261270068E+01 -0.17730145292E+01  0.31034921289E+01  0.10500000000E+00 0. -1.
</event>
<event>
11    0  0.3448258E-009  0.9118800E+02  0.7816531E-02  0.1126479E+00
         25   -1    0    0    0    0  0.00000000000E+00  0.00000000000E+00  0.99999998245E-14  0.12500000000E+03  0.12500000000E+03 0.  0.
    3000001    1    3    3    0    0 -0.47350860856E+02 -0.17412849693E+02  0.16836666333E+02  0.53195720612E+02  0.10000000000E+01 0.  1.
    1000022    2    1    0    0    0 -0.55905976444E+02 -0.16355171161E+02  0.20329292854E+02  0.62500000667E+02  0.10000005478E+02 0.  0.
    3000022    2    3    3    0    0 -0.85551155885E+01  0.10576785318E+01  0.34926265205E+01  0.93042800551E+01  0.25000144649E+00 0.  0.
    1000022    2    1    0    0    0  0.55905976444E+02  0.16355171161E+02 -0.20329292854E+02  0.62499999333E+02  0.99999971363E+01 0.  0.
    3000022    2    5    5    0    0  0.37413105536E+02  0.92006648667E+01 -0.17947845828E+02  0.42503886593E+02  0.25001162911E+00 0.  0.
        -13    1    4    4    0    0 -0.65651786298E+01  0.81409559991E+00  0.26917785062E+01  0.71428998742E+01  0.10500000000E+00 0.  1.
         13    1    4    4    0    0 -0.19899369587E+01  0.24358293190E+00  0.80084801425E+00  0.21613801809E+01  0.10500000000E+00 0. -1.
    3000001    1    5    5    0    0  0.18492870909E+02  0.71545062947E+01 -0.23814470257E+01  0.19996112740E+02  0.10000000000E+01 0.  1.
        -13    1    6    6    0    0  0.24049451699E+02  0.58569276283E+01 -0.11513689758E+02  0.27299373712E+02  0.10500000000E+00 0.  1.
         13    1    6    6    0    0  0.13363653837E+02  0.33437372385E+01 -0.64341560700E+01  0.15204512880E+02  0.10500000000E+00 0. -1.
</event>
<event>
11    0  0.3448258E-009  0.9118800E+02  0.7816531E-02  0.1126479E+00
         25   -1    0    0    0    0  0.00000000000E+00  0.00000000000E+00  0.99999998245E-14  0.12500000000E+03  0.12500000000E+03 0.  0.
    3000001    1    3    3    0    0 -0.45894079579E+02 -0.56381135956E+00 -0.13821881155E+02  0.47944017586E+02  0.10000000000E+01 0.  1.
    1000022    2    1    0    0    0 -0.58700929173E+02 -0.60840221580E+01 -0.17984325201E+02  0.62499997978E+02  0.99999691491E+01 0.  0.
    3000022    2    3    3    0    0 -0.12806849594E+02 -0.55202107985E+01 -0.41624440456E+01  0.14555980392E+02  0.25000191738E+00 0.  0.
    1000022    2    1    0    0    0  0.58700929173E+02  0.60840221580E+01  0.17984325201E+02  0.62500002022E+02  0.99999944207E+01 0.  0.
    3000022    2    5    5    0    0  0.45966030181E+02  0.48945000662E+01  0.97146353828E+01  0.47236307029E+02  0.24999927073E+00 0.  0.
        -13    1    4    4    0    0 -0.96323689827E+01 -0.41699544409E+01 -0.31516454592E+01  0.10959696454E+02  0.10500000000E+00 0. -1.
         13    1    4    4    0    0 -0.31744806114E+01 -0.13502563576E+01 -0.10107985864E+01  0.35962839384E+01  0.10500000000E+00 0.  1.
    3000001    1    5    5    0    0  0.12734898992E+02  0.11895220918E+01  0.82696898180E+01  0.15263694992E+02  0.10000000000E+01 0. -1.
        -13    1    6    6    0    0  0.16352374175E+02  0.17448846708E+01  0.35146736617E+01  0.16816917661E+02  0.10500000000E+00 0. -1.
         13    1    6    6    0    0  0.29613656006E+02  0.31496153954E+01  0.61999617211E+01  0.30419389368E+02  0.10500000000E+00 0.  1.
</event>
<event>
11    0  0.3448258E-009  0.9118800E+02  0.7816531E-02  0.1126479E+00
         25   -1    0    0    0    0  0.00000000000E+00  0.00000000000E+00  0.99999998245E-14  0.12500000000E+03  0.12500000000E+03 0.  0.
    3000001    1    3    3    0    0  0.87636180085E+00  0.24194820577E+01  0.42528180045E+01  0.50703416466E+01  0.10000000000E+01 0.  1.
    1000022    2    1    0    0    0  0.38670720370E+02  0.17225367327E+02  0.44878857258E+02  0.62499997271E+02  0.99999968308E+01 0.  0.
    3000022    2    3    3    0    0  0.37794358569E+02  0.14805885269E+02  0.40626039253E+02  0.57429655624E+02  0.25000292636E+00 0.  0.
    1000022    2    1    0    0    0 -0.38670720370E+02 -0.17225367327E+02 -0.44878857258E+02  0.62500002729E+02  0.10000030949E+02 0.  0.
    3000022    2    5    5    0    0 -0.26644469545E+02 -0.12208426040E+02 -0.37138596994E+02  0.47310794793E+02  0.24998724532E+00 0.  0.
        -13    1    4    4    0    0  0.17346567886E+02  0.68037772127E+01  0.18743550270E+02  0.26429651975E+02  0.10500000000E+00 0.  1.
         13    1    4    4    0    0  0.20447790682E+02  0.80021080563E+01  0.21882488983E+02  0.31000003649E+02  0.10500000000E+00 0. -1.
    3000001    1    5    5    0    0 -0.12026250825E+02 -0.50169412867E+01 -0.77402602641E+01  0.15189207936E+02  0.10000000000E+01 0.  1.
        -13    1    6    6    0    0 -0.61528235102E+01 -0.28104445960E+01 -0.85681804388E+01  0.10916985711E+02  0.10500000000E+00 0. -1.
         13    1    6    6    0    0 -0.20491646035E+02 -0.93979814440E+01 -0.28570416555E+02  0.36393809083E+02  0.10500000000E+00 0.  1.
</event>
<event>
11    0  0.3448258E-009  0.9118800E+02  0.7816531E-02  0.1126479E+00
         25   -1    0    0    0    0  0.00000000000E+00  0.00000000000E+00  0.99999998245E-14  0.12500000000E+03  0.12500000000E+03 0.  0.
    3000001    1    3    3    0    0 -0.50887942536E+02  0.15999289397E+02 -0.58376473860E+01  0.53671576125E+02  0.10000000000E+01 0.  1.
    1000022    2    1    0    0    0 -0.59630114535E+02  0.14848007039E+02 -0.54805267319E+01  0.62499999391E+02  0.99999939072E+01 0.  0.
    3000022    2    3    3    0    0 -0.87421719992E+01 -0.11512823581E+01  0.35712065409E+00  0.88284232662E+01  0.24999974603E+00 0.  0.
    1000022    2    1    0    0    0  0.59630114535E+02 -0.14848007039E+02  0.54805267319E+01  0.62500000609E+02  0.10000001515E+02 0.  0.
    3000022    2    5    5    0    0  0.55052948352E+02 -0.13537557742E+02  0.75863567611E+01  0.57198845287E+02  0.25000286893E+00 0.  0.
        -13    1    4    4    0    0 -0.47755045319E+01 -0.58355787359E+00  0.14529725369E+00  0.48143659622E+01  0.10500000000E+00 0. -1.
         13    1    4    4    0    0 -0.39666674673E+01 -0.56772448451E+00  0.21182340040E+00  0.40140573040E+01  0.10500000000E+00 0.  1.
    3000001    1    5    5    0    0  0.45771661839E+01 -0.13104492968E+01 -0.21058300292E+01  0.53011553218E+01  0.10000000000E+01 0.  1.
        -13    1    6    6    0    0  0.27350511566E+02 -0.67493804026E+01  0.38339990709E+01  0.28430884486E+02  0.10500000000E+00 0. -1.
         13    1    6    6    0    0  0.27702436785E+02 -0.67881773392E+01  0.37523576901E+01  0.28767960801E+02  0.10500000000E+00 0.  1.
</event>
<event>
11    0  0.3448258E-009  0.9118800E+02  0.7816531E-02  0.1126479E+00
         25   -1    0    0    0    0  0.00000000000E+00  0.00000000000E+00  0.99999998245E-14  0.12500000000E+03  0.12500000000E+03 0.  0.
    3000001    1    3    3    0    0  0.15877407296E+01  0.17647371733E+02  0.30702225096E+02  0.35462336014E+02  0.10000000000E+01 0. -1.
    1000022    2    1    0    0    0  0.32867930827E+00  0.37573479201E+02  0.48932362805E+02  0.62500002643E+02  0.99999915659E+01 0.  0.
    3000022    2    3    3    0    0 -0.12590614213E+01  0.19926107468E+02  0.18230137708E+02  0.27037666629E+02  0.25000271668E+00 0.  0.
    1000022    2    1    0    0    0 -0.32867930827E+00 -0.37573479201E+02 -0.48932362805E+02  0.62499997357E+02  0.99999585312E+01 0.  0.
    3000022    2    5    5    0    0  0.47954974072E+00 -0.37582106662E+02 -0.47034338425E+02  0.60207443067E+02  0.25000084833E+00 0.  0.
        -13    1    4    4    0    0 -0.29572952805E+00  0.50470238786E+01  0.45950157655E+01  0.68326496230E+01  0.10500000000E+00 0. -1.
         13    1    4    4    0    0 -0.96333189328E+00  0.14879083590E+02  0.13635121943E+02  0.20205017006E+02  0.10500000000E+00 0. -1.
    3000001    1    5    5    0    0 -0.80822904899E+00  0.86274611146E-02 -0.18980243800E+01  0.22925542907E+01  0.10000000000E+01 0. -1.
        -13    1    6    6    0    0  0.16863530828E+00 -0.14283732038E+02 -0.17971224910E+02  0.22957120651E+02  0.10500000000E+00 0. -1.
         13    1    6    6    0    0  0.31091443244E+00 -0.23298374624E+02 -0.29063113515E+02  0.37250322416E+02  0.10500000000E+00 0.  1.
</event>
<event>
11    0  0.3448258E-009  0.9118800E+02  0.7816531E-02  0.1126479E+00
         25   -1    0    0    0    0  0.00000000000E+00  0.00000000000E+00  0.99999998245E-14  0.12500000000E+03  0.12500000000E+03 0.  0.
    3000001    1    3    3    0    0 -0.28508310822E+01 -0.57245154595E+01  0.13588813704E+01  0.66139151555E+01  0.10000000000E+01 0. -1.
    1000022    2    1    0    0    0 -0.11564918176E+02 -0.59867095155E+02 -0.94039108895E+01  0.62499999742E+02  0.10000000652E+02 0.  0.
    3000022    2    3    3    0    0 -0.87140870939E+01 -0.54142579695E+02 -0.10762792260E+02  0.55886084587E+02  0.25000648584E+00 0.  0.
    1000022    2    1    0    0    0  0.11564918176E+02  0.59867095155E+02  0.94039108895E+01  0.62500000258E+02  0.10000003877E+02 0.  0.
    3000022    2    5    5    0    0  0.12815327803E+02  0.44232389685E+02  0.63193065080E+01  0.46483685965E+02  0.25000429283E+00 0.  0.
        -13    1    4    4    0    0 -0.38759029762E+01 -0.24103336696E+02 -0.48589204427E+01  0.24892038820E+02  0.10500000000E+00 0. -1.
         13    1    4    4    0    0 -0.48381841177E+01 -0.30039242999E+02 -0.59038718172E+01  0.30994045766E+02  0.10500000000E+00 0.  1.
    3000001    1    5    5    0    0 -0.12504096268E+01  0.15634705470E+02  0.30846043815E+01  0.16016314293E+02  0.10000000000E+01 0. -1.
        -13    1    6    6    0    0  0.33786732643E+01  0.11609040982E+02  0.16295128355E+01  0.12200475508E+02  0.10500000000E+00 0.  1.
         13    1    6    6    0    0  0.94366545386E+01  0.32623348704E+02  0.46897936725E+01  0.34283210456E+02  0.10500000000E+00 0. -1.
</event>
<event>
11    0  0.3448258E-009  0.9118800E+02  0.7816531E-02  0.1126479E+00
         25   -1    0    0    0    0  0.00000000000E+00  0.00000000000E+00  0.99999998245E-14  0.12500000000E+03  0.12500000000E+03 0.  0.
    3000001    1    3    3    0    0 -0.17964520607E+02  0.15308416429E+02 -0.20675518213E+02  0.31393449437E+02  0.10000000000E+01 0. -1.
    1000022    2    1    0    0    0 -0.29747420727E+02  0.37838387266E+02 -0.38595303100E+02  0.62500000363E+02  0.10000001659E+02 0.  0.
    3000022    2    3    3    0    0 -0.11782900120E+02  0.22529970837E+02 -0.17919784887E+02  0.31106550926E+02  0.24999784579E+00 0.  0.
    1000022    2    1    0    0    0  0.29747420727E+02 -0.37838387266E+02  0.38595303100E+02  0.62499999637E+02  0.99999971185E+01 0.  0.
    3000022    2    5    5    0    0  0.17040820626E+02 -0.24368651649E+02  0.29338988019E+02  0.41773909012E+02  0.25001060309E+00 0.  0.
        -13    1    4    4    0    0 -0.90016754103E+01  0.17231560452E+02 -0.13716289184E+02  0.23792949581E+02  0.10500000000E+00 0. -1.
         13    1    4    4    0    0 -0.27812247096E+01  0.52984103849E+01 -0.42034957039E+01  0.73136013444E+01  0.10500000000E+00 0.  1.
    3000001    1    5    5    0    0  0.12706600101E+02 -0.13469735617E+02  0.92563150807E+01  0.20726090625E+02  0.10000000000E+01 0. -1.
        -13    1    6    6    0    0  0.57791088517E+01 -0.82421202377E+01  0.10006775440E+02  0.14194267323E+02  0.10500000000E+00 0. -1.
         13    1    6    6    0    0  0.11261711774E+02 -0.16126531411E+02  0.19332212579E+02  0.27579641688E+02  0.10500000000E+00 0.  1.
</event>
<event>
11    0  0.3448258E-009  0.9118800E+02  0.7816531E-02  0.1126479E+00
         25   -1    0    0    0    0  0.00000000000E+00  0.00000000000E+00  0.99999998245E-14  0.12500000000E+03  0.12500000000E+03 0.  0.
    3000001    1    3    3    0    0 -0.12681240117E+02  0.32742295259E+02 -0.28091255159E+02  0.44977665192E+02  0.10000000000E+01 0.  1.
    1000022    2    1    0    0    0 -0.12938842220E+02  0.43046786031E+02 -0.42258850237E+02  0.62499998753E+02  0.99999997618E+01 0.  0.
    3000022    2    3    3    0    0 -0.25760210268E+00  0.10304490772E+02 -0.14167595078E+02  0.17522333561E+02  0.25006843554E+00 0.  0.
    1000022    2    1    0    0    0  0.12938842220E+02 -0.43046786031E+02  0.42258850237E+02  0.62500001247E+02  0.10000015348E+02 0.  0.
    3000022    2    5    5    0    0  0.60650241704E+01 -0.32855038362E+02  0.27552894443E+02  0.43306610954E+02  0.24999238904E+00 0.  0.
        -13    1    4    4    0    0 -0.13340063172E+00  0.65794082303E+01 -0.91278207475E+01  0.11253201544E+02  0.10500000000E+00 0. -1.
         13    1    4    4    0    0 -0.12420147097E+00  0.37250825413E+01 -0.50397743302E+01  0.62691320169E+01  0.10500000000E+00 0.  1.
    3000001    1    5    5    0    0  0.68738180496E+01 -0.10191747669E+02  0.14705955793E+02  0.19193390293E+02  0.10000000000E+01 0. -1.
        -13    1    6    6    0    0  0.44283834871E+01 -0.23942721866E+02  0.20033821574E+02  0.31531405654E+02  0.10500000000E+00 0.  1.
         13    1    6    6    0    0  0.16366406833E+01 -0.89123164962E+01  0.75190728696E+01  0.11775205301E+02  0.10500000000E+00 0. -1.
</event>
<event>
11    0  0.3448258E-009  0.9118800E+02  0.7816531E-02  0.1126479E+00
         25   -1    0    0    0    0  0.00000000000E+00  0.00000000000E+00  0.99999998245E-14  0.12500000000E+03  0.12500000000E+03 0.  0.
    3000001    1    3    3    0    0 -0.41888305393E+01  0.14716912543E+02  0.27748529165E+02  0.31703543760E+02  0.10000000000E+01 0.  1.
    1000022    2    1    0    0    0 -0.28655466046E+01  0.21484931569E+02  0.57761892974E+02  0.62500000042E+02  0.10000004170E+02 0.  0.
    3000022    2    3    3    0    0  0.13232839346E+01  0.67680190256E+01  0.30013363809E+02  0.30796456282E+02  0.25010097262E+00 0.  0.
    1000022    2    1    0    0    0  0.28655466046E+01 -0.21484931569E+02 -0.57761892974E+02  0.62499999958E+02  0.10000003646E+02 0.  0.
    3000022    2    5    5    0    0  0.12511037088E+00 -0.17221440540E+02 -0.51916450539E+02  0.54698939532E+02  0.24996498215E+00 0.  0.
        -13    1    4    4    0    0  0.30281474817E+00  0.15450309129E+01  0.68589234531E+01  0.70380873275E+01  0.10500000000E+00 0. -1.
         13    1    4    4    0    0  0.10204691865E+01  0.52229881127E+01  0.23154440356E+02  0.23758368954E+02  0.10500000000E+00 0.  1.
    3000001    1    5    5    0    0  0.27404362338E+01 -0.42634910293E+01 -0.58454424357E+01  0.78010604264E+01  0.10000000000E+01 0. -1.
        -13    1    6    6    0    0  0.11619130140E+00 -0.13024964809E+02 -0.39279411956E+02  0.41382924465E+02  0.10500000000E+00 0. -1.
         13    1    6    6    0    0  0.89190694756E-02 -0.41964757303E+01 -0.12637038583E+02  0.13316015067E+02  0.10500000000E+00 0.  1.
</event>
<event>
11    0  0.3448258E-009  0.9118800E+02  0.7816531E-02  0.1126479E+00
         25   -1    0    0    0    0  0.00000000000E+00  0.00000000000E+00  0.99999998245E-14  0.12500000000E+03  0.12500000000E+03 0.  0.
    3000001    1    3    3    0    0 -0.29354438728E+02  0.16417341925E+02  0.24139735444E+02  0.41411822179E+02  0.10000000000E+01 0.  1.
    1000022    2    1    0    0    0 -0.38546562529E+02  0.27232163915E+02  0.39734389922E+02  0.62500000559E+02  0.10000004656E+02 0.  0.
    3000022    2    3    3    0    0 -0.91921238014E+01  0.10814821991E+02  0.15594654478E+02  0.21088178380E+02  0.25000886659E+00 0.  0.
    1000022    2    1    0    0    0  0.38546562529E+02 -0.27232163915E+02 -0.39734389922E+02  0.62499999441E+02  0.99999976633E+01 0.  0.
    3000022    2    5    5    0    0  0.17478469787E+02 -0.18315444213E+02 -0.21886907462E+02  0.33467172293E+02  0.25000038233E+00 0.  0.
        -13    1    4    4    0    0 -0.31670348007E+01  0.38100125990E+01  0.54216330746E+01  0.73451640982E+01  0.10500000000E+00 0.  1.
         13    1    4    4    0    0 -0.60250890007E+01  0.70048093920E+01  0.10173021403E+02  0.13743014282E+02  0.10500000000E+00 0. -1.
    3000001    1    5    5    0    0  0.21068092743E+02 -0.89167197024E+01 -0.17847482459E+02  0.29032827148E+02  0.10000000000E+01 0.  1.
        -13    1    6    6    0    0  0.42959600425E+01 -0.44953092341E+01 -0.53454412233E+01  0.82004783195E+01  0.10500000000E+00 0.  1.
         13    1    6    6    0    0  0.13182509744E+02 -0.13820134979E+02 -0.16541466239E+02  0.25266693973E+02  0.10500000000E+00 0. -1.
</event>
<event>
11    0  0.3448258E-009  0.9118800E+02  0.7816531E-02  0.1126479E+00
         25   -1    0    0    0    0  0.00000000000E+00  0.00000000000E+00  0.99999998245E-14  0.12500000000E+03  0.12500000000E+03 0.  0.
    3000001    1    3    3    0    0  0.52897250848E+01  0.19365894064E+01 -0.17984123919E+01  0.59971540862E+01  0.10000000000E+01 0.  1.
    1000022    2    1    0    0    0  0.55757925747E+02 -0.81416278410E+01 -0.25120060017E+02  0.62499998987E+02  0.10000003533E+02 0.  0.
    3000022    2    3    3    0    0  0.50468200662E+02 -0.10078217247E+02 -0.23321647625E+02  0.56502844901E+02  0.24998605474E+00 0.  0.
    1000022    2    1    0    0    0 -0.55757925747E+02  0.81416278410E+01  0.25120060017E+02  0.62500001013E+02  0.10000016191E+02 0.  0.
    3000022    2    5    5    0    0 -0.50936090081E+02  0.85161490694E+01  0.19985807298E+02  0.55376033275E+02  0.25000048705E+00 0.  0.
        -13    1    4    4    0    0  0.25035885884E+02 -0.49310246795E+01 -0.11553050790E+02  0.28010615737E+02  0.10500000000E+00 0. -1.
         13    1    4    4    0    0  0.25432314778E+02 -0.51471925679E+01 -0.11768596834E+02  0.28492229164E+02  0.10500000000E+00 0.  1.
    3000001    1    5    5    0    0 -0.48218356659E+01 -0.37452122842E+00  0.51342527188E+01  0.71239677372E+01  0.10000000000E+01 0.  1.
        -13    1    6    6    0    0 -0.32754203618E+02  0.54593716313E+01  0.12909794634E+02  0.35627467153E+02  0.10500000000E+00 0.  1.
         13    1    6    6    0    0 -0.18181886463E+02  0.30567774382E+01  0.70760126637E+01  0.19748566122E+02  0.10500000000E+00 0. -1.
</event>
<event>
11    0  0.3448258E-009  0.9118800E+02  0.7816531E-02  0.1126479E+00
         25   -1    0    0    0    0  0.00000000000E+00  0.00000000000E+00  0.99999998245E-14  0.12500000000E+03  0.12500000000E+03 0.  0.
    3000001    1    3    3    0    0 -0.93658898996E+01 -0.11546768496E+02  0.24066492960E+01  0.15094360442E+02  0.10000000000E+01 0. -1.
    1000022    2    1    0    0    0 -0.48816687116E+02 -0.34602880615E+02  0.15027366690E+02  0.62500000574E+02  0.10000001716E+02 0.  0.
    3000022    2    3    3    0    0 -0.39450797216E+02 -0.23056112119E+02  0.12620717394E+02  0.47405640133E+02  0.25000357046E+00 0.  0.
    1000022    2    1    0    0    0  0.48816687116E+02  0.34602880615E+02 -0.15027366690E+02  0.62499999426E+02  0.99999945387E+01 0.  0.
    3000022    2    5    5    0    0  0.46240348395E+02  0.31898193614E+02 -0.16189619423E+02  0.58462217313E+02  0.25000103211E+00 0.  0.
        -13    1    4    4    0    0 -0.11090084038E+02 -0.65026399746E+01  0.35879173916E+01  0.13347601538E+02  0.10500000000E+00 0.  1.
         13    1    4    4    0    0 -0.28360713179E+02 -0.16553472144E+02  0.90328000022E+01  0.34058038595E+02  0.10500000000E+00 0. -1.
    3000001    1    5    5    0    0  0.25763387212E+01  0.27046870005E+01  0.11622527334E+01  0.40377821131E+01  0.10000000000E+01 0.  1.
        -13    1    6    6    0    0  0.35529712935E+02  0.24506878238E+02 -0.12449208916E+02  0.44921502756E+02  0.10500000000E+00 0. -1.
         13    1    6    6    0    0  0.10710635460E+02  0.73913153763E+01 -0.37404105075E+01  0.13540714557E+02  0.10500000000E+00 0.  1.
</event>
<event>
11    0  0.3448258E-009  0.9118800E+02  0.7816531E-02  0.1126479E+00
         25   -1    0    0    0    0  0.00000000000E+00  0.00000000000E+00  0.99999998245E-14  0.12500000000E+03  0.12500000000E+03 0.  0.
    3000001    1    3    3    0    0 -0.77454334276E+01 -0.92839230876E+01 -0.48794879092E+01  0.13076405054E+02  0.10000000000E+01 0. -1.
    1000022    2    1    0    0    0 -0.21979739553E+02 -0.45989701534E+02 -0.34757566351E+02  0.62499999786E+02  0.99999978292E+01 0.  0.
    3000022    2    3    3    0    0 -0.14234306125E+02 -0.36705778446E+02 -0.29878078442E+02  0.49423594732E+02  0.25000524295E+00 0.  0.
    1000022    2    1    0    0    0  0.21979739553E+02  0.45989701534E+02  0.34757566351E+02  0.62500000214E+02  0.10000000504E+02 0.  0.
    3000022    2    5    5    0    0  0.20288277150E+02  0.40815750517E+02  0.34104038088E+02  0.56927037503E+02  0.25000992602E+00 0.  0.
        -13    1    4    4    0    0 -0.73892645465E+01 -0.19237803787E+02 -0.15623093245E+02  0.25860904714E+02  0.10500000000E+00 0. -1.
         13    1    4    4    0    0 -0.68450415786E+01 -0.17467974659E+02 -0.14254985198E+02  0.23562690018E+02  0.10500000000E+00 0.  1.
    3000001    1    5    5    0    0  0.16914624032E+01  0.51739510173E+01  0.65352826298E+00  0.55729627113E+01  0.10000000000E+01 0.  1.
        -13    1    6    6    0    0  0.74732480814E+01  0.15160040628E+02  0.12620278944E+02  0.21094044998E+02  0.10500000000E+00 0.  1.
         13    1    6    6    0    0  0.12815029068E+02  0.25655709888E+02  0.21483759144E+02  0.35832992505E+02  0.10500000000E+00 0. -1.
</event>
<event>
11    0  0.3448258E-009  0.9118800E+02  0.7816531E-02  0.1126479E+00
         25   -1    0    0    0    0  0.00000000000E+00  0.00000000000E+00  0.99999998245E-14  0.12500000000E+03  0.12500000000E+03 0.  0.
    3000001    1    3    3    0    0 -0.29075256354E+01 -0.44573992975E+01 -0.25779055313E+01  0.59973086252E+01  0.10000000000E+01 0.  1.
    1000022    2    1    0    0    0 -0.39297247775E+02 -0.47554735050E+02  0.72354677476E+00  0.62500001437E+02  0.10000007566E+02 0.  0.
    3000022    2    3    3    0    0 -0.36389722139E+02 -0.43097335753E+02  0.33014523061E+01  0.56502692812E+02  0.24996256624E+00 0.  0.
    1000022    2    1    0    0    0  0.39297247775E+02  0.47554735050E+02 -0.72354677476E+00  0.62499998563E+02  0.99999896029E+01 0.  0.
    3000022    2    5    5    0    0  0.36441093996E+02  0.45327102566E+02  0.14138637339E+01  0.58176980569E+02  0.24999762099E+00 0.  0.
        -13    1    4    4    0    0 -0.19519669567E+02 -0.23116751416E+02  0.17035876098E+01  0.30303711518E+02  0.10500000000E+00 0. -1.
         13    1    4    4    0    0 -0.16870052572E+02 -0.19980584337E+02  0.15978646962E+01  0.26198981294E+02  0.10500000000E+00 0.  1.
    3000001    1    5    5    0    0  0.28561537789E+01  0.22276324840E+01 -0.21374105086E+01  0.43230179938E+01  0.10000000000E+01 0.  1.
        -13    1    6    6    0    0  0.15821691752E+02  0.19720321376E+02  0.67536833460E+00  0.25291978026E+02  0.10500000000E+00 0.  1.
         13    1    6    6    0    0  0.20619402244E+02  0.25606781190E+02  0.73849539929E+00  0.32885002543E+02  0.10500000000E+00 0. -1.
</event>
<event>
11    0  0.3448258E-009  0.9118800E+02  0.7816531E-02  0.1126479E+00
         25   -1    0    0    0    0  0.00000000000E+00  0.00000000000E+00  0.99999998245E-14  0.12500000000E+03  0.12500000000E+03 0.  0.
    3000001    1    3    3    0    0 -0.12497158777E+01  0.27521614675E+01 -0.10533877331E+01  0.33534770365E+01  0.10000000000E+01 0.  1.
    1000022    2    1    0    0    0 -0.24843001314E+02  0.27701421156E+02 -0.49210837842E+02  0.62499999958E+02  0.99999992627E+01 0.  0.
    3000022    2    3    3    0    0 -0.23593285437E+02  0.24949259688E+02 -0.48157450109E+02  0.59146522921E+02  0.24999198079E+00 0.  0.
    1000022    2    1    0    0    0  0.24843001314E+02 -0.27701421156E+02  0.49210837842E+02  0.62500000042E+02  0.99999997876E+01 0.  0.
    3000022    2    5    5    0    0  0.24302190111E+02 -0.24520025183E+02  0.47478056909E+02  0.58703121474E+02  0.25000770134E+00 0.  0.
        -13    1    4    4    0    0 -0.11319294293E+02  0.12055536955E+02 -0.23249169236E+02  0.28530637738E+02  0.10500000000E+00 0. -1.
         13    1    4    4    0    0 -0.12273991144E+02  0.12893722733E+02 -0.24908280874E+02  0.30615885184E+02  0.10500000000E+00 0.  1.
    3000001    1    5    5    0    0  0.54081120323E+00 -0.31813959727E+01  0.17327809338E+01  0.37968785676E+01  0.10000000000E+01 0. -1.
        -13    1    6    6    0    0  0.74704062963E+01 -0.74772213852E+01  0.14572780935E+02  0.18002577012E+02  0.10500000000E+00 0.  1.
         13    1    6    6    0    0  0.16831783815E+02 -0.17042803798E+02  0.32905275973E+02  0.40700544463E+02  0.10500000000E+00 0. -1.
</event>
<event>
11    0  0.3448258E-009  0.9118800E+02  0.7816531E-02  0.1126479E+00
         25   -1    0    0    0    0  0.00000000000E+00  0.00000000000E+00  0.99999998245E-14  0.12500000000E+03  0.12500000000E+03 0.  0.
    3000001    1    3    3    0    0 -0.15540300646E+02 -0.16059266519E+02 -0.29726869232E+02  0.37203329685E+02  0.10000000000E+01 0.  1.
    1000022    2    1    0    0    0 -0.32674382887E+02 -0.26545942010E+02 -0.45099301454E+02  0.62499995544E+02  0.10000005856E+02 0.  0.
    3000022    2    3    3    0    0 -0.17134082241E+02 -0.10486675491E+02 -0.15372432222E+02  0.25296665859E+02  0.24998815669E+00 0.  0.
    1000022    2    1    0    0    0  0.32674382887E+02  0.26545942010E+02  0.45099301454E+02  0.62500004456E+02  0.10000061557E+02 0.  0.
    3000022    2    5    5    0    0  0.22611341804E+02  0.22299293581E+02  0.28917220554E+02  0.42951128248E+02  0.25000175949E+00 0.  0.
        -13    1    4    4    0    0 -0.81149854256E+01 -0.49827386956E+01 -0.73703452447E+01  0.12042162903E+02  0.10500000000E+00 0. -1.
         13    1    4    4    0    0 -0.90190968152E+01 -0.55039367951E+01 -0.80020869771E+01  0.13254502955E+02  0.10500000000E+00 0.  1.
    3000001    1    5    5    0    0  0.10063041083E+02  0.42466484288E+01  0.16182080901E+02  0.19548876208E+02  0.10000000000E+01 0. -1.
        -13    1    6    6    0    0  0.14020548968E+02  0.13895146665E+02  0.17924680115E+02  0.26663759607E+02  0.10500000000E+00 0.  1.
         13    1    6    6    0    0  0.85907928360E+01  0.84041469162E+01  0.10992540439E+02  0.16287368641E+02  0.10500000000E+00 0. -1.
</event>
<event>
11    0  0.3448258E-009  0.9118800E+02  0.7816531E-02  0.1126479E+00
         25   -1    0    0    0    0  0.00000000000E+00  0.00000000000E+00  0.99999998245E-14  0.12500000000E+03  0.12500000000E+03 0.  0.
    3000001    1    3    3    0    0 -0.22391083376E+02 -0.25461591583E+02 -0.39738039457E+02  0.52247153421E+02  0.10000000000E+01 0. -1.
    1000022    2    1    0    0    0 -0.28054411381E+02 -0.32830210669E+02 -0.44061062223E+02  0.62499999519E+02  0.10000000260E+02 0.  0.
    3000022    2    3    3    0    0 -0.56633280046E+01 -0.73686190860E+01 -0.43230227662E+01  0.10252846099E+02  0.24999192146E+00 0.  0.
    1000022    2    1    0    0    0  0.28054411381E+02  0.32830210669E+02  0.44061062223E+02  0.62500000481E+02  0.10000006267E+02 0.  0.
    3000022    2    5    5    0    0  0.11280813922E+02  0.19042614285E+02  0.17754245927E+02  0.28375229868E+02  0.25000007757E+00 0.  0.
        -13    1    4    4    0    0 -0.17887090909E+01 -0.23565074405E+01 -0.14286999368E+01  0.32870680003E+01  0.10500000000E+00 0.  1.
         13    1    4    4    0    0 -0.38746189137E+01 -0.50121116456E+01 -0.28943228293E+01  0.69657780983E+01  0.10500000000E+00 0. -1.
    3000001    1    5    5    0    0  0.16773597459E+02  0.13787596384E+02  0.26306816296E+02  0.34124770613E+02  0.10000000000E+01 0.  1.
        -13    1    6    6    0    0  0.32288167801E+01  0.55223098159E+01  0.51597051238E+01  0.82191693903E+01  0.10500000000E+00 0. -1.
         13    1    6    6    0    0  0.80519971423E+01  0.13520304469E+02  0.12594540804E+02  0.20156060478E+02  0.10500000000E+00 0.  1.
</event>
<event>
11    0  0.3448258E-009  0.9118800E+02  0.7816531E-02  0.1126479E+00
         25   -1    0    0    0    0  0.00000000000E+00  0.00000000000E+00  0.99999998245E-14  0.12500000000E+03  0.12500000000E+03 0.  0.
    3000001    1    3    3    0    0 -0.20150320755E+02  0.13812689140E+01 -0.24957558405E+02  0.32122002613E+02  0.10000000000E+01 0.  1.
    1000022    2    1    0    0    0 -0.39151443223E+02 -0.68372931989E+01 -0.47187559163E+02  0.62500002129E+02  0.10000022085E+02 0.  0.
    3000022    2    3    3    0    0 -0.19001122468E+02 -0.82185621129E+01 -0.22230000758E+02  0.30377999516E+02  0.25000533024E+00 0.  0.
    1000022    2    1    0    0    0  0.39151443223E+02  0.68372931989E+01  0.47187559163E+02  0.62499997871E+02  0.99999954673E+01 0.  0.
    3000022    2    5    5    0    0  0.44535516836E+01  0.42341830373E+01  0.78480444701E+01  0.99707938403E+01  0.24999841987E+00 0.  0.
        -13    1    4    4    0    0 -0.54778187118E+01 -0.24158433809E+01 -0.64295916117E+01  0.87859814690E+01  0.10500000000E+00 0. -1.
         13    1    4    4    0    0 -0.13523303756E+02 -0.58027187320E+01 -0.15800409146E+02  0.21592018047E+02  0.10500000000E+00 0.  1.
    3000001    1    5    5    0    0  0.34697891539E+02  0.26031101616E+01  0.39339514693E+02  0.52529204030E+02  0.10000000000E+01 0. -1.
        -13    1    6    6    0    0  0.18330601275E+01  0.18261828959E+01  0.33428500298E+01  0.42285605970E+01  0.10500000000E+00 0. -1.
         13    1    6    6    0    0  0.26204915561E+01  0.24080001414E+01  0.45051944402E+01  0.57422332433E+01  0.10500000000E+00 0.  1.
</event>
<event>
11    0  0.3448258E-009  0.9118800E+02  0.7816531E-02  0.1126479E+00
         25   -1    0    0    0    0  0.00000000000E+00  0.00000000000E+00  0.99999998245E-14  0.12500000000E+03  0.12500000000E+03 0.  0.
    3000001    1    3    3    0    0 -0.73662354064E+01 -0.34852392680E+02  0.23402165273E+01  0.35713125220E+02  0.10000000000E+01 0.  1.
    1000022    2    1    0    0    0 -0.56016414898E+01 -0.60833112534E+02  0.86141789435E+01  0.62500000730E+02  0.10000002223E+02 0.  0.
    3000022    2    3    3    0    0  0.17645939166E+01 -0.25980719854E+02  0.62739624162E+01  0.26786875510E+02  0.24999875953E+00 0.  0.
    1000022    2    1    0    0    0  0.56016414898E+01  0.60833112534E+02 -0.86141789435E+01  0.62499999270E+02  0.99999930997E+01 0.  0.
    3000022    2    5    5    0    0  0.75733870673E+01  0.35912454075E+02 -0.27673987518E+01  0.36807357576E+02  0.25005297648E+00 0.  0.
        -13    1    4    4    0    0  0.12932920324E+01 -0.19302541568E+02  0.46356616300E+01  0.19893745223E+02  0.10500000000E+00 0.  1.
         13    1    4    4    0    0  0.47130188420E+00 -0.66781782858E+01  0.16383007863E+01  0.68931302867E+01  0.10500000000E+00 0. -1.
    3000001    1    5    5    0    0 -0.19717455775E+01  0.24920658458E+02 -0.58467801917E+01  0.25692641694E+02  0.10000000000E+01 0.  1.
        -13    1    6    6    0    0  0.51005413796E+01  0.24425960331E+02 -0.18933202324E+01  0.25024762675E+02  0.10500000000E+00 0. -1.
         13    1    6    6    0    0  0.24728456877E+01  0.11486493744E+02 -0.87407851946E+00  0.11782594901E+02  0.10500000000E+00 0.  1.
</event>
<event>
11    0  0.3448258E-009  0.9118800E+02  0.7816531E-02  0.1126479E+00
         25   -1    0    0    0    0  0.00000000000E+00  0.00000000000E+00  0.99999998245E-14  0.12500000000E+03  0.12500000000E+03 0.  0.
    3000001    1    3    3    0    0 -0.45532097624E+01  0.58606637187E+01  0.18651032876E+01  0.77173640991E+01  0.10000000000E+01 0.  1.
    1000022    2    1    0    0    0 -0.41372649102E+02  0.30762435269E+02  0.33885492270E+02  0.62499999614E+02  0.99999923936E+01 0.  0.
    3000022    2    3    3    0    0 -0.36819439340E+02  0.24901771551E+02  0.32020388983E+02  0.54782635515E+02  0.25000732396E+00 0.  0.
    1000022    2    1    0    0    0  0.41372649102E+02 -0.30762435269E+02 -0.33885492270E+02  0.62500000386E+02  0.99999972212E+01 0.  0.
    3000022    2    5    5    0    0  0.38101308728E+02 -0.27320491928E+02 -0.33517523979E+02  0.57633375018E+02  0.24999263021E+00 0.  0.
        -13    1    4    4    0    0 -0.18688182103E+02  0.12559463142E+02  0.16239021667E+02  0.27761576224E+02  0.10500000000E+00 0.  1.
         13    1    4    4    0    0 -0.18131257237E+02  0.12342308409E+02  0.15781367316E+02  0.27021059291E+02  0.10500000000E+00 0. -1.
    3000001    1    5    5    0    0  0.32713403747E+01 -0.34419433414E+01 -0.36796829125E+00  0.48666253683E+01  0.10000000000E+01 0. -1.
        -13    1    6    6    0    0  0.25987313112E+02 -0.18646346469E+02 -0.22805254851E+02  0.39282532419E+02  0.10500000000E+00 0. -1.
         13    1    6    6    0    0  0.12113995616E+02 -0.86741454594E+01 -0.10712269128E+02  0.18350842599E+02  0.10500000000E+00 0.  1.
</event>
<event>
11    0  0.3448258E-009  0.9118800E+02  0.7816531E-02  0.1126479E+00
         25   -1    0    0    0    0  0.00000000000E+00  0.00000000000E+00  0.99999998245E-14  0.12500000000E+03  0.12500000000E+03 0.  0.
    3000001    1    3    3    0    0 -0.41693331416E+00  0.15146917598E+01 -0.18884961964E+01  0.26522711776E+01  0.10000000000E+01 0. -1.
    1000022    2    1    0    0    0  0.21429787622E+02  0.52946064020E+02 -0.23317987001E+02  0.62500001628E+02  0.10000009652E+02 0.  0.
    3000022    2    3    3    0    0  0.21846720936E+02  0.51431372260E+02 -0.21429490805E+02  0.59847730451E+02  0.24999147546E+00 0.  0.
    1000022    2    1    0    0    0 -0.21429787622E+02 -0.52946064020E+02  0.23317987001E+02  0.62499998372E+02  0.99999892974E+01 0.  0.
    3000022    2    5    5    0    0 -0.14285689976E+02 -0.43581885240E+02  0.15887592930E+02  0.48538023889E+02  0.24998958076E+00 0.  0.
        -13    1    4    4    0    0  0.13393398336E+02  0.31373249822E+02 -0.13074411222E+02  0.36532385320E+02  0.10500000000E+00 0.  1.
         13    1    4    4    0    0  0.84533225996E+01  0.20058122438E+02 -0.83550795835E+01  0.23315345131E+02  0.10500000000E+00 0. -1.
    3000001    1    5    5    0    0 -0.71440976457E+01 -0.93641787802E+01  0.74303940718E+01  0.13961974483E+02  0.10000000000E+01 0.  1.
        -13    1    6    6    0    0 -0.59946040414E+01 -0.18388187938E+02  0.67600767831E+01  0.20488299011E+02  0.10500000000E+00 0. -1.
         13    1    6    6    0    0 -0.82910859345E+01 -0.25193697301E+02  0.91275161466E+01  0.28049724877E+02  0.10500000000E+00 0.  1.
</event>
<event>
11    0  0.3448258E-009  0.9118800E+02  0.7816531E-02  0.1126479E+00
         25   -1    0    0    0    0  0.00000000000E+00  0.00000000000E+00  0.99999998245E-14  0.12500000000E+03  0.12500000000E+03 0.  0.
    3000001    1    3    3    0    0  0.11207081458E+01 -0.70561357193E+00 -0.84754553634E+01  0.86363893426E+01  0.10000000000E+01 0. -1.
    1000022    2    1    0    0    0  0.30196861990E+02  0.67560354220E+00 -0.53795393578E+02  0.62500011318E+02  0.10000006519E+02 0.  0.
    3000022    2    3    3    0    0  0.29076153844E+02  0.13812171141E+01 -0.45319938215E+02  0.53863621976E+02  0.24997892193E+00 0.  0.
    1000022    2    1    0    0    0 -0.30196861990E+02 -0.67560354220E+00  0.53795393578E+02  0.62499988682E+02  0.99998650372E+01 0.  0.
    3000022    2    5    5    0    0 -0.18670877081E+02 -0.40318560337E+01  0.38947452410E+02  0.43379996112E+02  0.24999886128E+00 0.  0.
        -13    1    4    4    0    0  0.13917979891E+02  0.59472927220E+00 -0.21664725585E+02  0.25757236397E+02  0.10500000000E+00 0. -1.
         13    1    4    4    0    0  0.15158173953E+02  0.78648784193E+00 -0.23655212630E+02  0.28106385578E+02  0.10500000000E+00 0.  1.
    3000001    1    5    5    0    0 -0.11525984909E+02  0.33562524915E+01  0.14847941169E+02  0.19119992569E+02  0.10000000000E+01 0. -1.
        -13    1    6    6    0    0 -0.12704062766E+02 -0.27049690987E+01  0.26560529797E+02  0.29566583108E+02  0.10500000000E+00 0. -1.
         13    1    6    6    0    0 -0.59668143152E+01 -0.13268869350E+01  0.12386922612E+02  0.13813413004E+02  0.10500000000E+00 0.  1.
</event>
<event>
11    0  0.3448258E-009  0.9118800E+02  0.7816531E-02  0.1126479E+00
         25   -1    0    0    0    0  0.00000000000E+00  0.00000000000E+00  0.99999998245E-14  0.12500000000E+03  0.12500000000E+03 0.  0.
    3000001    1    3    3    0    0 -0.75514121149E+01 -0.17324299712E+02  0.11026098140E+01  0.18957081364E+02  0.10000000000E+01 0.  1.
    1000022    2    1    0    0    0 -0.14805219863E+02 -0.59473667939E+02 -0.70666519213E+01  0.62500006294E+02  0.10000075200E+02 0.  0.
    3000022    2    3    3    0    0 -0.72538077481E+01 -0.42149368227E+02 -0.81692617353E+01  0.43542924929E+02  0.25001067715E+00 0.  0.
    1000022    2    1    0    0    0  0.14805219863E+02  0.59473667939E+02  0.70666519213E+01  0.62499993706E+02  0.99999965279E+01 0.  0.
    3000022    2    5    5    0    0  0.90606987672E+01  0.45065028458E+02  0.89877540039E+01  0.46837968054E+02  0.24995462591E+00 0.  0.
        -13    1    4    4    0    0 -0.38768353583E+01 -0.22771043679E+02 -0.43582954193E+01  0.23506510728E+02  0.10500000000E+00 0. -1.
         13    1    4    4    0    0 -0.33769723898E+01 -0.19378324548E+02 -0.38109663160E+01  0.20036414202E+02  0.10500000000E+00 0.  1.
    3000001    1    5    5    0    0  0.57445210958E+01  0.14408639481E+02 -0.19211020826E+01  0.15662025652E+02  0.10000000000E+01 0. -1.
        -13    1    6    6    0    0  0.41695838199E+01  0.20981472313E+02  0.41346565159E+01  0.21787932879E+02  0.10500000000E+00 0.  1.
         13    1    6    6    0    0  0.48911149474E+01  0.24083556145E+02  0.48530974880E+01  0.25050035175E+02  0.10500000000E+00 0. -1.
</event>
<event>
11    0  0.3448258E-009  0.9118800E+02  0.7816531E-02  0.1126479E+00
         25   -1    0    0    0    0  0.00000000000E+00  0.00000000000E+00  0.99999998245E-14  0.12500000000E+03  0.12500000000E+03 0.  0.
    3000001    1    3    3    0    0 -0.30065343801E+01 -0.95012085530E+01  0.46449647256E+01  0.11040285787E+02  0.10000000000E+01 0. -1.
    1000022    2    1    0    0    0  0.34463142010E+01 -0.57070671921E+02  0.23179974059E+02  0.62499999782E+02  0.10000005014E+02 0.  0.
    3000022    2    3    3    0    0  0.64528485811E+01 -0.47569463368E+02  0.18535009333E+02  0.51459713996E+02  0.24998712962E+00 0.  0.
    1000022    2    1    0    0    0 -0.34463142010E+01  0.57070671921E+02 -0.23179974059E+02  0.62500000218E+02  0.10000007737E+02 0.  0.
    3000022    2    5    5    0    0 -0.46584233811E+01  0.28877615884E+02 -0.74851177291E+01  0.30194487800E+02  0.24999706495E+00 0.  0.
        -13    1    4    4    0    0  0.45633224255E+01 -0.33802757951E+02  0.13130291547E+02  0.36549499829E+02  0.10500000000E+00 0.  1.
         13    1    4    4    0    0  0.18895261556E+01 -0.13766705417E+02  0.54047177864E+01  0.14910214166E+02  0.10500000000E+00 0. -1.
    3000001    1    5    5    0    0  0.12121091801E+01  0.28193056038E+02 -0.15694856330E+02  0.32305512418E+02  0.10000000000E+01 0.  1.
        -13    1    6    6    0    0 -0.28697503298E+01  0.17829126438E+02 -0.46837904553E+01  0.18656423412E+02  0.10500000000E+00 0.  1.
         13    1    6    6    0    0 -0.17886730513E+01  0.11048489446E+02 -0.28013272738E+01  0.11538064387E+02  0.10500000000E+00 0. -1.
</event>
<event>
11    0  0.3448258E-009  0.9118800E+02  0.7816531E-02  0.1126479E+00
         25   -1    0    0    0    0  0.00000000000E+00  0.00000000000E+00  0.99999998245E-14  0.12500000000E+03  0.12500000000E+03 0.  0.
    3000001    1    3    3    0    0 -0.13085763623E+02 -0.11096653253E+02  0.96873521328E+01  0.19728601429E+02  0.10000000000E+01 0. -1.
    1000022    2    1    0    0    0 -0.36632407267E+02 -0.27010148500E+02  0.41650566404E+02  0.62500009300E+02  0.10000004826E+02 0.  0.
    3000022    2    3    3    0    0 -0.23546643644E+02 -0.15913495248E+02  0.31963214271E+02  0.42771407871E+02  0.25001358871E+00 0.  0.
    1000022    2    1    0    0    0  0.36632407267E+02  0.27010148500E+02 -0.41650566404E+02  0.62499990700E+02  0.99998885753E+01 0.  0.
    3000022    2    5    5    0    0  0.45496610422E+01  0.80409244336E+01 -0.97035361559E+01  0.13400634200E+02  0.25000337754E+00 0.  0.
        -13    1    4    4    0    0 -0.91849605331E+01 -0.61650207768E+01  0.12364887641E+02  0.16591336672E+02  0.10500000000E+00 0.  1.
         13    1    4    4    0    0 -0.14361683111E+02 -0.97484744712E+01  0.19598326630E+02  0.26180071199E+02  0.10500000000E+00 0. -1.
    3000001    1    5    5    0    0  0.32082746225E+02  0.18969224067E+02 -0.31947030248E+02  0.49099356500E+02  0.10000000000E+01 0. -1.
        -13    1    6    6    0    0  0.31349596712E+01  0.54801826838E+01 -0.65714383347E+01  0.91134626336E+01  0.10500000000E+00 0.  1.
         13    1    6    6    0    0  0.14147013711E+01  0.25607417497E+01 -0.31320978213E+01  0.42871715664E+01  0.10500000000E+00 0. -1.
</event>
<event>
11    0  0.3448258E-009  0.9118800E+02  0.7816531E-02  0.1126479E+00
         25   -1    0    0    0    0  0.00000000000E+00  0.00000000000E+00  0.99999998245E-14  0.12500000000E+03  0.12500000000E+03 0.  0.
    3000001    1    3    3    0    0 -0.14923972662E+01  0.52928168445E+01  0.28010864209E+01  0.62519792776E+01  0.10000000000E+01 0. -1.
    1000022    2    1    0    0    0 -0.32402032114E+02  0.52204195245E+02  0.55749694801E+01  0.62500000364E+02  0.10000003725E+02 0.  0.
    3000022    2    3    3    0    0 -0.30909634847E+02  0.46911378401E+02  0.27738830592E+01  0.56248021086E+02  0.24999812050E+00 0.  0.
    1000022    2    1    0    0    0  0.32402032114E+02 -0.52204195245E+02 -0.55749694801E+01  0.62499999636E+02  0.99999991767E+01 0.  0.
    3000022    2    5    5    0    0  0.19084086857E+02 -0.38729800956E+02 -0.22219869607E+01  0.43234240915E+02  0.25001641838E+00 0.  0.
        -13    1    4    4    0    0 -0.12867920035E+02  0.19506921592E+02  0.10905118552E+01  0.23394520665E+02  0.10500000000E+00 0. -1.
         13    1    4    4    0    0 -0.18041714812E+02  0.27404456809E+02  0.16833712039E+01  0.32853500422E+02  0.10500000000E+00 0.  1.
    3000001    1    5    5    0    0  0.13317945257E+02 -0.13474394289E+02 -0.33529825194E+01  0.19265758721E+02  0.10000000000E+01 0. -1.
        -13    1    6    6    0    0  0.94139377454E+01 -0.19044293835E+02 -0.10309076271E+01  0.21269253562E+02  0.10500000000E+00 0. -1.
         13    1    6    6    0    0  0.96701491116E+01 -0.19685507121E+02 -0.11910793336E+01  0.21964987353E+02  0.10500000000E+00 0.  1.
</event>
<event>
11    0  0.3448258E-009  0.9118800E+02  0.7816531E-02  0.1126479E+00
         25   -1    0    0    0    0  0.00000000000E+00  0.00000000000E+00  0.99999998245E-14  0.12500000000E+03  0.12500000000E+03 0.  0.
    3000001    1    3    3    0    0 -0.18496444833E+02 -0.18884131593E+02 -0.98150130079E+01  0.28214595121E+02  0.10000000000E+01 0.  1.
    1000022    2    1    0    0    0 -0.42927097214E+02 -0.33720673905E+02 -0.28747703647E+02  0.62500000834E+02  0.10000005774E+02 0.  0.
    3000022    2    3    3    0    0 -0.24430652382E+02 -0.14836542312E+02 -0.18932690639E+02  0.34285405714E+02  0.25001313446E+00 0.  0.
    1000022    2    1    0    0    0  0.42927097214E+02  0.33720673905E+02  0.28747703647E+02  0.62499999166E+02  0.99999953441E+01 0.  0.
    3000022    2    5    5    0    0  0.10979059610E+02  0.50110912290E+01  0.97773180295E+01  0.15534130978E+02  0.24998429761E+00 0.  0.
        -13    1    4    4    0    0 -0.11179903821E+02 -0.67172157129E+01 -0.86701734249E+01  0.15661869895E+02  0.10500000000E+00 0.  1.
         13    1    4    4    0    0 -0.13250748561E+02 -0.81193265990E+01 -0.10262517214E+02  0.18623535819E+02  0.10500000000E+00 0. -1.
    3000001    1    5    5    0    0  0.31948037604E+02  0.28709582676E+02  0.18970385617E+02  0.46965868188E+02  0.10000000000E+01 0. -1.
        -13    1    6    6    0    0  0.58146033305E+01  0.27246049026E+01  0.52274859168E+01  0.82807437936E+01  0.10500000000E+00 0. -1.
         13    1    6    6    0    0  0.51644562800E+01  0.22864863264E+01  0.45498321128E+01  0.72533871842E+01  0.10500000000E+00 0.  1.
</event>
<event>
11    0  0.3448258E-009  0.9118800E+02  0.7816531E-02  0.1126479E+00
         25   -1    0    0    0    0  0.00000000000E+00  0.00000000000E+00  0.99999998245E-14  0.12500000000E+03  0.12500000000E+03 0.  0.
    3000001    1    3    3    0    0 -0.12157176917E+02  0.12340160988E+02 -0.73796154071E+01  0.18855642321E+02  0.10000000000E+01 0. -1.
    1000022    2    1    0    0    0 -0.39719699491E+02  0.46041311737E+02 -0.10430393005E+02  0.62499999976E+02  0.99999992342E+01 0.  0.
    3000022    2    3    3    0    0 -0.27562522574E+02  0.33701150749E+02 -0.30507775983E+01  0.43644357655E+02  0.24999739988E+00 0.  0.
    1000022    2    1    0    0    0  0.39719699491E+02 -0.46041311737E+02  0.10430393005E+02  0.62500000024E+02  0.99999995301E+01 0.  0.
    3000022    2    5    5    0    0  0.14193109510E+02 -0.21336860047E+02  0.81381031388E+01  0.26888606872E+02  0.25000518963E+00 0.  0.
        -13    1    4    4    0    0 -0.20868213454E+02  0.25530913198E+02 -0.23298596752E+01  0.33056756232E+02  0.10500000000E+00 0.  1.
         13    1    4    4    0    0 -0.66943091200E+01  0.81702375512E+01 -0.72091792312E+00  0.10587601423E+02  0.10500000000E+00 0. -1.
    3000001    1    5    5    0    0  0.25526589981E+02 -0.24704451690E+02  0.22922898666E+01  0.35611393152E+02  0.10000000000E+01 0. -1.
        -13    1    6    6    0    0  0.56916821936E+01 -0.85712931254E+01  0.33332681056E+01  0.10815914816E+02  0.10500000000E+00 0. -1.
         13    1    6    6    0    0  0.85014273159E+01 -0.12765566922E+02  0.48048350332E+01  0.16072692056E+02  0.10500000000E+00 0.  1.
</event>
<event>
11    0  0.3448258E-009  0.9118800E+02  0.7816531E-02  0.1126479E+00
         25   -1    0    0    0    0  0.00000000000E+00  0.00000000000E+00  0.99999998245E-14  0.12500000000E+03  0.12500000000E+03 0.  0.
    3000001    1    3    3    0    0  0.15271926866E+02 -0.10951844866E+02  0.33149867620E+02  0.38119396367E+02  0.10000000000E+01 0. -1.
    1000022    2    1    0    0    0  0.20122194231E+02 -0.12334642446E+02  0.57001788422E+02  0.62500000341E+02  0.10000002719E+02 0.  0.
    3000022    2    3    3    0    0  0.48502673648E+01 -0.13827975799E+01  0.23851920802E+02  0.24380603974E+02  0.25000304346E+00 0.  0.
    1000022    2    1    0    0    0 -0.20122194231E+02  0.12334642446E+02 -0.57001788422E+02  0.62499999659E+02  0.99999984592E+01 0.  0.
    3000022    2    5    5    0    0 -0.21708138943E+01 -0.15852927549E+01 -0.87910321396E+01  0.91962129899E+01  0.25000238900E+00 0.  0.
        -13    1    4    4    0    0  0.20052790551E+01 -0.56433331461E+00  0.10165139813E+02  0.10376931559E+02  0.10500000000E+00 0.  1.
         13    1    4    4    0    0  0.28449883098E+01 -0.81846426531E+00  0.13686780990E+02  0.14003672415E+02  0.10500000000E+00 0. -1.
    3000001    1    5    5    0    0 -0.17951380337E+02  0.13919935201E+02 -0.48210756282E+02  0.53303786669E+02  0.10000000000E+01 0. -1.
        -13    1    6    6    0    0 -0.94934489277E+00 -0.70822726203E+00 -0.36561053611E+01  0.38446030994E+01  0.10500000000E+00 0. -1.
         13    1    6    6    0    0 -0.12214690015E+01 -0.87706549284E+00 -0.51349267784E+01  0.53516098905E+01  0.10500000000E+00 0.  1.
</event>
<event>
11    0  0.3448258E-009  0.9118800E+02  0.7816531E-02  0.1126479E+00
         25   -1    0    0    0    0  0.00000000000E+00  0.00000000000E+00  0.99999998245E-14  0.12500000000E+03  0.12500000000E+03 0.  0.
    3000001    1    3    3    0    0  0.11060035834E+02  0.10768839602E+02  0.70464646427E+01  0.16998381187E+02  0.10000000000E+01 0.  1.
    1000022    2    1    0    0    0  0.50843078800E+02  0.29694872322E+02  0.18424057214E+02  0.62500000224E+02  0.10000001988E+02 0.  0.
    3000022    2    3    3    0    0  0.39783042966E+02  0.18926032720E+02  0.11377592571E+02  0.45501619037E+02  0.25000029296E+00 0.  0.
    1000022    2    1    0    0    0 -0.50843078800E+02 -0.29694872322E+02 -0.18424057214E+02  0.62499999776E+02  0.99999991826E+01 0.  0.
    3000022    2    5    5    0    0 -0.20830996322E+02 -0.17878657444E+02 -0.83685177849E+01  0.28699675784E+02  0.25000088300E+00 0.  0.
        -13    1    4    4    0    0  0.18950190116E+02  0.90798306277E+01  0.53915839793E+01  0.21694082891E+02  0.10500000000E+00 0. -1.
         13    1    4    4    0    0  0.20832852850E+02  0.98462020919E+01  0.59860085918E+01  0.23807536146E+02  0.10500000000E+00 0.  1.
    3000001    1    5    5    0    0 -0.30012082478E+02 -0.11816214878E+02 -0.10055539429E+02  0.33800323991E+02  0.10000000000E+01 0.  1.
        -13    1    6    6    0    0 -0.51369595666E+01 -0.44255607635E+01 -0.20452422117E+01  0.70829359989E+01  0.10500000000E+00 0. -1.
         13    1    6    6    0    0 -0.15694036755E+02 -0.13453096681E+02 -0.63232755732E+01  0.21616739786E+02  0.10500000000E+00 0.  1.
</event>
<event>
11    0  0.3448258E-009  0.9118800E+02  0.7816531E-02  0.1126479E+00
         25   -1    0    0    0    0  0.00000000000E+00  0.00000000000E+00  0.99999998245E-14  0.12500000000E+03  0.12500000000E+03 0.  0.
    3000001    1    3    3    0    0 -0.28152775125E+01 -0.84790808943E+01  0.39314641033E+01  0.98120849099E+01  0.10000000000E+01 0. -1.
    1000022    2    1    0    0    0 -0.26747772430E+02 -0.55413987169E+02  0.44829343714E+01  0.62499999657E+02  0.99999976331E+01 0.  0.
    3000022    2    3    3    0    0 -0.23932494917E+02 -0.46934906275E+02  0.55147026814E+00  0.52687914747E+02  0.25000197067E+00 0.  0.
    1000022    2    1    0    0    0  0.26747772430E+02  0.55413987169E+02 -0.44829343714E+01  0.62500000343E+02  0.10000001918E+02 0.  0.
    3000022    2    5    5    0    0  0.24300633214E+02  0.47153769377E+02 -0.69049569508E+01  0.53495230402E+02  0.25000841204E+00 0.  0.
        -13    1    4    4    0    0 -0.16652082559E+02 -0.32759268574E+02  0.38256820469E+00  0.36750767536E+02  0.10500000000E+00 0.  1.
         13    1    4    4    0    0 -0.72804123587E+01 -0.14175637701E+02  0.16890206345E+00  0.15937147211E+02  0.10500000000E+00 0. -1.
    3000001    1    5    5    0    0  0.24471392158E+01  0.82602177914E+01  0.24220225794E+01  0.90047699403E+01  0.10000000000E+01 0. -1.
        -13    1    6    6    0    0  0.14089990672E+02  0.27376344419E+02 -0.40709637158E+01  0.31057621310E+02  0.10500000000E+00 0. -1.
         13    1    6    6    0    0  0.10210642543E+02  0.19777424958E+02 -0.28339932350E+01  0.22437609092E+02  0.10500000000E+00 0.  1.
</event>
<event>
11    0  0.3448258E-009  0.9118800E+02  0.7816531E-02  0.1126479E+00
         25   -1    0    0    0    0  0.00000000000E+00  0.00000000000E+00  0.99999998245E-14  0.12500000000E+03  0.12500000000E+03 0.  0.
    3000001    1    3    3    0    0  0.36516555308E+02 -0.93109385495E+01  0.43233825785E+02  0.57361276836E+02  0.10000000000E+01 0. -1.
    1000022    2    1    0    0    0  0.41135706628E+02 -0.82911379725E+01  0.45225664131E+02  0.62499999554E+02  0.99999959687E+01 0.  0.
    3000022    2    3    3    0    0  0.46191513204E+01  0.10198005770E+01  0.19918383461E+01  0.51387227175E+01  0.24999806432E+00 0.  0.
    1000022    2    1    0    0    0 -0.41135706628E+02  0.82911379725E+01 -0.45225664131E+02  0.62500000446E+02  0.10000001549E+02 0.  0.
    3000022    2    5    5    0    0 -0.38789942893E+02  0.66314730360E+01 -0.38203862958E+02  0.54847367768E+02  0.25000359208E+00 0.  0.
        -13    1    4    4    0    0  0.24354635214E+01  0.56262065043E+00  0.98406914667E+00  0.26883901588E+01  0.10500000000E+00 0. -1.
         13    1    4    4    0    0  0.21836877990E+01  0.45717992656E+00  0.10077691994E+01  0.24503325587E+01  0.10500000000E+00 0.  1.
    3000001    1    5    5    0    0 -0.23457637349E+01  0.16596649365E+01 -0.70218011731E+01  0.76526326788E+01  0.10000000000E+01 0.  1.
        -13    1    6    6    0    0 -0.22848944977E+02  0.38443772745E+01 -0.22521043914E+02  0.32311947747E+02  0.10500000000E+00 0. -1.
         13    1    6    6    0    0 -0.15940997917E+02  0.27870957616E+01 -0.15682819044E+02  0.22535420021E+02  0.10500000000E+00 0.  1.
</event>
<event>
11    0  0.3448258E-009  0.9118800E+02  0.7816531E-02  0.1126479E+00
         25   -1    0    0    0    0  0.00000000000E+00  0.00000000000E+00  0.99999998245E-14  0.12500000000E+03  0.12500000000E+03 0.  0.
    3000001    1    3    3    0    0  0.35551413821E+02 -0.88793279470E+01  0.38113369155E+02  0.52880756404E+02  0.10000000000E+01 0. -1.
    1000022    2    1    0    0    0  0.41122420001E+02 -0.63896395472E+01  0.45545239657E+02  0.62500000064E+02  0.10000011613E+02 0.  0.
    3000022    2    3    3    0    0  0.55710061801E+01  0.24896883998E+01  0.74318705021E+01  0.96192436603E+01  0.24998249699E+00 0.  0.
    1000022    2    1    0    0    0 -0.41122420001E+02  0.63896395472E+01 -0.45545239657E+02  0.62499999936E+02  0.10000010811E+02 0.  0.
    3000022    2    5    5    0    0 -0.93009137925E+01  0.42479846234E+01 -0.16140370872E+02  0.19108281239E+02  0.24993853140E+00 0.  0.
        -13    1    4    4    0    0  0.30468880641E+01  0.13177128059E+01  0.39579007129E+01  0.51668072315E+01  0.10500000000E+00 0. -1.
         13    1    4    4    0    0  0.25241181160E+01  0.11719755939E+01  0.34739697892E+01  0.44524364288E+01  0.10500000000E+00 0.  1.
    3000001    1    5    5    0    0 -0.31821506209E+02  0.21416549238E+01 -0.29404868785E+02  0.43391718697E+02  0.10000000000E+01 0. -1.
        -13    1    6    6    0    0 -0.53053586084E+01  0.23670731497E+01 -0.90921317365E+01  0.10790169126E+02  0.10500000000E+00 0. -1.
         13    1    6    6    0    0 -0.39955551841E+01  0.18809114737E+01 -0.70482391357E+01  0.83181121125E+01  0.10500000000E+00 0.  1.
</event>
<event>
11    0  0.3448258E-009  0.9118800E+02  0.7816531E-02  0.1126479E+00
         25   -1    0    0    0    0  0.00000000000E+00  0.00000000000E+00  0.99999998245E-14  0.12500000000E+03  0.12500000000E+03 0.  0.
    3000001    1    3    3    0    0 -0.20662588685E+02  0.93532699751E+01 -0.32430500405E+02  0.39587417027E+02  0.10000000000E+01 0.  1.
    1000022    2    1    0    0    0 -0.38280341560E+02  0.12594009619E+02 -0.46714628226E+02  0.62499999416E+02  0.99999904241E+01 0.  0.
    3000022    2    3    3    0    0 -0.17617752875E+02  0.32407396439E+01 -0.14284127821E+02  0.22912582389E+02  0.25002860062E+00 0.  0.
    1000022    2    1    0    0    0  0.38280341560E+02 -0.12594009619E+02  0.46714628226E+02  0.62500000584E+02  0.99999977261E+01 0.  0.
    3000022    2    5    5    0    0  0.24414873720E+02 -0.35615025025E+01  0.31360774989E+02  0.39904023233E+02  0.25000690070E+00 0.  0.
        -13    1    4    4    0    0 -0.58338912978E+01  0.11226715515E+01 -0.47102559290E+01  0.75823620992E+01  0.10500000000E+00 0. -1.
         13    1    4    4    0    0 -0.11783861577E+02  0.21180680924E+01 -0.95738718923E+01  0.15330220290E+02  0.10500000000E+00 0.  1.
    3000001    1    5    5    0    0  0.13865467840E+02 -0.90325071164E+01  0.15353853237E+02  0.22595977351E+02  0.10000000000E+01 0.  1.
        -13    1    6    6    0    0  0.55896377035E+01 -0.81355763740E+00  0.71766082913E+01  0.91334909674E+01  0.10500000000E+00 0. -1.
         13    1    6    6    0    0  0.18825236017E+02 -0.27479448651E+01  0.24184166697E+02  0.30770532266E+02  0.10500000000E+00 0.  1.
</event>
<event>
11    0  0.3448258E-009  0.9118800E+02  0.7816531E-02  0.1126479E+00
         25   -1    0    0    0    0  0.00000000000E+00  0.00000000000E+00  0.99999998245E-14  0.12500000000E+03  0.12500000000E+03 0.  0.
    3000001    1    3    3    0    0 -0.22309727771E+01 -0.41483312504E+01  0.43321917744E+01  0.64771735553E+01  0.10000000000E+01 0.  1.
    1000022    2    1    0    0    0  0.61872472074E+01 -0.42962318541E+02  0.43842983188E+02  0.62500000773E+02  0.10000003968E+02 0.  0.
    3000022    2    3    3    0    0  0.84182199845E+01 -0.38813987291E+02  0.39510791414E+02  0.56022827217E+02  0.24998842725E+00 0.  0.
    1000022    2    1    0    0    0 -0.61872472074E+01  0.42962318541E+02 -0.43842983188E+02  0.62499999227E+02  0.99999943083E+01 0.  0.
    3000022    2    5    5    0    0 -0.15038265802E+01  0.31476057726E+02 -0.35744839095E+02  0.47652489199E+02  0.25000119200E+00 0.  0.
        -13    1    4    4    0    0  0.36858243314E+01 -0.17238541882E+02  0.17478416924E+02  0.24824558614E+02  0.10500000000E+00 0. -1.
         13    1    4    4    0    0  0.47323956531E+01 -0.21575445408E+02  0.22032374490E+02  0.31198268603E+02  0.10500000000E+00 0.  1.
    3000001    1    5    5    0    0 -0.46834206272E+01  0.11486260815E+02 -0.80981440925E+01  0.14847510028E+02  0.10000000000E+01 0.  1.
        -13    1    6    6    0    0 -0.46565480272E+00  0.10076742385E+02 -0.11369917335E+02  0.15200118970E+02  0.10500000000E+00 0.  1.
         13    1    6    6    0    0 -0.10381717775E+01  0.21399315341E+02 -0.24374921761E+02  0.32452370230E+02  0.10500000000E+00 0. -1.
</event>
<event>
11    0  0.3448258E-009  0.9118800E+02  0.7816531E-02  0.1126479E+00
         25   -1    0    0    0    0  0.00000000000E+00  0.00000000000E+00  0.99999998245E-14  0.12500000000E+03  0.12500000000E+03 0.  0.
    3000001    1    3    3    0    0  0.19784200377E+02 -0.14862421528E+02  0.21836348898E+01  0.24861102541E+02  0.10000000000E+01 0.  1.
    1000022    2    1    0    0    0  0.42221127399E+02 -0.43012782329E+02  0.13172969639E+02  0.62499998462E+02  0.99999818073E+01 0.  0.
    3000022    2    3    3    0    0  0.22436927022E+02 -0.28150360800E+02  0.10989334750E+02  0.37638895921E+02  0.25000102968E+00 0.  0.
    1000022    2    1    0    0    0 -0.42221127399E+02  0.43012782329E+02 -0.13172969639E+02  0.62500001538E+02  0.10000001030E+02 0.  0.
    3000022    2    5    5    0    0 -0.76589125602E+01  0.12518083894E+02 -0.49472417437E+00  0.14685660224E+02  0.24999644373E+00 0.  0.
        -13    1    4    4    0    0  0.10992033921E+02 -0.13723109622E+02  0.53122521931E+01  0.18367895791E+02  0.10500000000E+00 0.  1.
         13    1    4    4    0    0  0.11444893101E+02 -0.14427251178E+02  0.56770825565E+01  0.19271000130E+02  0.10500000000E+00 0. -1.
    3000001    1    5    5    0    0 -0.34562214839E+02  0.30494698434E+02 -0.12678245465E+02  0.47814341314E+02  0.10000000000E+01 0.  1.
        -13    1    6    6    0    0 -0.30320466136E+01  0.50574831494E+01 -0.16447728223E+00  0.58999593430E+01  0.10500000000E+00 0. -1.
         13    1    6    6    0    0 -0.46268659466E+01  0.74606007450E+01 -0.33024689214E+00  0.87857008812E+01  0.10500000000E+00 0.  1.
</event>
<event>
11    0  0.3448258E-009  0.9118800E+02  0.7816531E-02  0.1126479E+00
         25   -1    0    0    0    0  0.00000000000E+00  0.00000000000E+00  0.99999998245E-14  0.12500000000E+03  0.12500000000E+03 0.  0.
    3000001    1    3    3    0    0  0.15327181242E+02  0.12279288854E+02  0.22513810930E+02  0.29892726576E+02  0.10000000000E+01 0. -1.
    1000022    2    1    0    0    0  0.39767778621E+02  0.24479649542E+02  0.40317756330E+02  0.62500004460E+02  0.99999811962E+01 0.  0.
    3000022    2    3    3    0    0  0.24440597380E+02  0.12200360689E+02  0.17803945400E+02  0.32607277884E+02  0.24999606119E+00 0.  0.
    1000022    2    1    0    0    0 -0.39767778621E+02 -0.24479649542E+02 -0.40317756330E+02  0.62499995540E+02  0.99999254410E+01 0.  0.
    3000022    2    5    5    0    0 -0.21238866962E+02 -0.13835882591E+02 -0.15404491261E+02  0.29662804452E+02  0.25000001473E+00 0.  0.
        -13    1    4    4    0    0  0.99126412665E+01  0.50127067163E+01  0.72076597796E+01  0.13241943588E+02  0.10500000000E+00 0.  1.
         13    1    4    4    0    0  0.14527956113E+02  0.71876539724E+01  0.10596285620E+02  0.19365334296E+02  0.10500000000E+00 0. -1.
    3000001    1    5    5    0    0 -0.18528911659E+02 -0.10643766951E+02 -0.24913265069E+02  0.32837191088E+02  0.10000000000E+01 0.  1.
        -13    1    6    6    0    0 -0.10602637601E+02 -0.68352373305E+01 -0.77029718376E+01  0.14781177003E+02  0.10500000000E+00 0.  1.
         13    1    6    6    0    0 -0.10636229361E+02 -0.70006452610E+01 -0.77015194234E+01  0.14881627448E+02  0.10500000000E+00 0. -1.
</event>
<event>
11    0  0.3448258E-009  0.9118800E+02  0.7816531E-02  0.1126479E+00
         25   -1    0    0    0    0  0.00000000000E+00  0.00000000000E+00  0.99999998245E-14  0.12500000000E+03  0.12500000000E+03 0.  0.
    3000001    1    3    3    0    0 -0.10048132706E+01 -0.11149994440E+01 -0.20361108252E+01  0.27200405809E+01  0.10000000000E+01 0. -1.
    1000022    2    1    0    0    0 -0.17190141257E+02 -0.55914432559E+02 -0.19604217521E+02  0.62500000292E+02  0.99999983512E+01 0.  0.
    3000022    2    3    3    0    0 -0.16185327987E+02 -0.54799433115E+02 -0.17568106696E+02  0.59779959711E+02  0.24999681353E+00 0.  0.
    1000022    2    1    0    0    0  0.17190141257E+02  0.55914432559E+02  0.19604217521E+02  0.62499999708E+02  0.99999947003E+01 0.  0.
    3000022    2    5    5    0    0  0.94305682130E+01  0.24674286591E+02  0.13702949611E+02  0.29758853471E+02  0.24999255512E+00 0.  0.
        -13    1    4    4    0    0 -0.58366189005E+01 -0.19605389073E+02 -0.63283185628E+01  0.21412520677E+02  0.10500000000E+00 0. -1.
         13    1    4    4    0    0 -0.10348709086E+02 -0.35194044042E+02 -0.11239788133E+02  0.38367439034E+02  0.10500000000E+00 0.  1.
    3000001    1    5    5    0    0  0.77595730441E+01  0.31240145968E+02  0.59012679096E+01  0.32741146237E+02  0.10000000000E+01 0. -1.
        -13    1    6    6    0    0  0.37463088586E+01  0.98316790490E+01  0.53882668233E+01  0.11821217676E+02  0.10500000000E+00 0.  1.
         13    1    6    6    0    0  0.56842593544E+01  0.14842607542E+02  0.83146827878E+01  0.17937635795E+02  0.10500000000E+00 0. -1.
</event>
<event>
11    0  0.3448258E-009  0.9118800E+02  0.7816531E-02  0.1126479E+00
         25   -1    0    0    0    0  0.00000000000E+00  0.00000000000E+00  0.99999998245E-14  0.12500000000E+03  0.12500000000E+03 0.  0.
    3000001    1    3    3    0    0  0.14142392134E+02  0.28360938753E+02  0.45850955432E+02  0.55746391957E+02  0.10000000000E+01 0.  1.
    1000022    2    1    0    0    0  0.17716287069E+02  0.33223142073E+02  0.48873367275E+02  0.62499999780E+02  0.99999973484E+01 0.  0.
    3000022    2    3    3    0    0  0.35738949350E+01  0.48622033207E+01  0.30224118439E+01  0.67536078237E+01  0.24999828737E+00 0.  0.
    1000022    2    1    0    0    0 -0.17716287069E+02 -0.33223142073E+02 -0.48873367275E+02  0.62500000220E+02  0.10000000095E+02 0.  0.
    3000022    2    5    5    0    0 -0.21348941425E+01 -0.76206722574E+01 -0.50247077252E+01  0.93777712516E+01  0.24997453653E+00 0.  0.
        -13    1    4    4    0    0  0.17680181436E+01  0.23552980321E+01  0.15431911901E+01  0.33265268713E+01  0.10500000000E+00 0.  1.
         13    1    4    4    0    0  0.18058767914E+01  0.25069052886E+01  0.14792206539E+01  0.34270809524E+01  0.10500000000E+00 0. -1.
    3000001    1    5    5    0    0 -0.15581392926E+02 -0.25602469816E+02 -0.43848659550E+02  0.53122228968E+02  0.10000000000E+01 0.  1.
        -13    1    6    6    0    0 -0.61460086995E+00 -0.21060537391E+01 -0.13577087361E+01  0.25821685834E+01  0.10500000000E+00 0.  1.
         13    1    6    6    0    0 -0.15202932726E+01 -0.55146185184E+01 -0.36669989891E+01  0.67956026682E+01  0.10500000000E+00 0. -1.
</event>
<event>
11    0  0.3448258E-009  0.9118800E+02  0.7816531E-02  0.1126479E+00
         25   -1    0    0    0    0  0.00000000000E+00  0.00000000000E+00  0.99999998245E-14  0.12500000000E+03  0.12500000000E+03 0.  0.
    3000001    1    3    3    0    0  0.84284103841E+01 -0.84693016564E+01 -0.48587781450E+01  0.12937345060E+02  0.10000000000E+01 0.  1.
    1000022    2    1    0    0    0  0.41198429235E+02 -0.45651326828E+02 -0.49896031602E+01  0.62499999861E+02  0.99999815181E+01 0.  0.
    3000022    2    3    3    0    0  0.32770018851E+02 -0.37182025171E+02 -0.13082501518E+00  0.49562654801E+02  0.25000873249E+00 0.  0.
    1000022    2    1    0    0    0 -0.41198429235E+02  0.45651326828E+02  0.49896031602E+01  0.62500000139E+02  0.99999832543E+01 0.  0.
    3000022    2    5    5    0    0 -0.30087038442E+02  0.35915117119E+02 -0.67620128731E-01  0.46852882442E+02  0.25000136192E+00 0.  0.
        -13    1    4    4    0    0  0.25133115925E+02 -0.28506233017E+02 -0.90201665092E-01  0.38003920828E+02  0.10500000000E+00 0.  1.
         13    1    4    4    0    0  0.76369029260E+01 -0.86757921538E+01 -0.40623350092E-01  0.11558733973E+02  0.10500000000E+00 0. -1.
    3000001    1    5    5    0    0 -0.11111390793E+02  0.97362097083E+01  0.50572232889E+01  0.15647117697E+02  0.10000000000E+01 0. -1.
        -13    1    6    6    0    0 -0.17414026226E+02  0.20810221419E+02  0.24010513118E-01  0.27135313273E+02  0.10500000000E+00 0.  1.
         13    1    6    6    0    0 -0.12673012217E+02  0.15104895700E+02 -0.91630641849E-01  0.19717569169E+02  0.10500000000E+00 0. -1.
</event>
<event>
11    0  0.3448258E-009  0.9118800E+02  0.7816531E-02  0.1126479E+00
         25   -1    0    0    0    0  0.00000000000E+00  0.00000000000E+00  0.99999998245E-14  0.12500000000E+03  0.12500000000E+03 0.  0.
    3000001    1    3    3    0    0 -0.16372718967E+00 -0.38651182616E+02 -0.14578960129E+02  0.41321747333E+02  0.10000000000E+01 0. -1.
    1000022    2    1    0    0    0 -0.47605690611E+01 -0.55448758955E+02 -0.26627467036E+02  0.62500003985E+02  0.10000030497E+02 0.  0.
    3000022    2    3    3    0    0 -0.45968418714E+01 -0.16797576340E+02 -0.12048506907E+02  0.21178256653E+02  0.25002015653E+00 0.  0.
    1000022    2    1    0    0    0  0.47605690611E+01  0.55448758955E+02  0.26627467036E+02  0.62499996015E+02  0.99999806799E+01 0.  0.
    3000022    2    5    5    0    0  0.42669877787E+01  0.43181782753E+02  0.24989357884E+02  0.50073985826E+02  0.25000509197E+00 0.  0.
        -13    1    4    4    0    0 -0.33687928429E+01 -0.12378188356E+02 -0.89085590144E+01  0.15618635052E+02  0.10500000000E+00 0. -1.
         13    1    4    4    0    0 -0.12280490285E+01 -0.44193879838E+01 -0.31399478930E+01  0.55596216003E+01  0.10500000000E+00 0.  1.
    3000001    1    5    5    0    0  0.49358128245E+00  0.12266976202E+02  0.16381091519E+01  0.12426010189E+02  0.10000000000E+01 0.  1.
        -13    1    6    6    0    0  0.23406248426E+01  0.24320360360E+02  0.14045516357E+02  0.28182370508E+02  0.10500000000E+00 0. -1.
         13    1    6    6    0    0  0.19263629361E+01  0.18861422393E+02  0.10943841528E+02  0.21891615318E+02  0.10500000000E+00 0.  1.
</event>
<event>
11    0  0.3448258E-009  0.9118800E+02  0.7816531E-02  0.1126479E+00
         25   -1    0    0    0    0  0.00000000000E+00  0.00000000000E+00  0.99999998245E-14  0.12500000000E+03  0.12500000000E+03 0.  0.
    3000001    1    3    3    0    0 -0.46897632438E+01 -0.40203465871E+01 -0.92754569314E+01  0.11188885881E+02  0.10000000000E+01 0. -1.
    1000022    2    1    0    0    0 -0.13250673195E+02 -0.37947844861E+02 -0.46804166825E+02  0.62500004398E+02  0.10000062392E+02 0.  0.
    3000022    2    3    3    0    0 -0.85609099515E+01 -0.33927498274E+02 -0.37528709894E+02  0.51311118518E+02  0.24999779869E+00 0.  0.
    1000022    2    1    0    0    0  0.13250673195E+02  0.37947844861E+02  0.46804166825E+02  0.62499995602E+02  0.10000007414E+02 0.  0.
    3000022    2    5    5    0    0  0.12024375761E+02  0.34179581893E+02  0.45592484192E+02  0.58237157815E+02  0.25000940015E+00 0.  0.
        -13    1    4    4    0    0 -0.45623243694E+01 -0.17813964025E+02 -0.19697190857E+02  0.26947030831E+02  0.10500000000E+00 0.  1.
         13    1    4    4    0    0 -0.39985855820E+01 -0.16113534249E+02 -0.17831519036E+02  0.24364087687E+02  0.10500000000E+00 0. -1.
    3000001    1    5    5    0    0  0.12262974347E+01  0.37682629681E+01  0.12116826328E+01  0.42628377870E+01  0.10000000000E+01 0. -1.
        -13    1    6    6    0    0  0.41269442277E+01  0.11705452193E+02  0.15705847428E+02  0.20018340294E+02  0.10500000000E+00 0.  1.
         13    1    6    6    0    0  0.78974315329E+01  0.22474129701E+02  0.29886636764E+02  0.38218817521E+02  0.10500000000E+00 0. -1.
</event>
<event>
11    0  0.3448258E-009  0.9118800E+02  0.7816531E-02  0.1126479E+00
         25   -1    0    0    0    0  0.00000000000E+00  0.00000000000E+00  0.99999998245E-14  0.12500000000E+03  0.12500000000E+03 0.  0.
    3000001    1    3    3    0    0 -0.49421337758E+01  0.12819429613E+01 -0.43861504789E+02  0.44168989873E+02  0.10000000000E+01 0.  1.
    1000022    2    1    0    0    0 -0.13101985274E+02  0.22589282043E+01 -0.60245208864E+02  0.62500000133E+02  0.10000002538E+02 0.  0.
    3000022    2    3    3    0    0 -0.81598514979E+01  0.97698524298E+00 -0.16383704074E+02  0.18331010259E+02  0.25000259937E+00 0.  0.
    1000022    2    1    0    0    0  0.13101985274E+02 -0.22589282043E+01  0.60245208864E+02  0.62499999867E+02  0.10000000882E+02 0.  0.
    3000022    2    5    5    0    0  0.26498000852E+01 -0.50992846374E+01  0.19993689785E+02  0.20804669337E+02  0.24998139940E+00 0.  0.
        -13    1    4    4    0    0 -0.62414200062E+01  0.75125861552E+00 -0.12497087373E+02  0.13989565076E+02  0.10500000000E+00 0. -1.
         13    1    4    4    0    0 -0.19184314917E+01  0.22572662746E+00 -0.38866167012E+01  0.43414451835E+01  0.10500000000E+00 0.  1.
    3000001    1    5    5    0    0  0.10452185189E+02  0.28403564332E+01  0.40251519079E+02  0.41695330530E+02  0.10000000000E+01 0.  1.
        -13    1    6    6    0    0  0.15917726358E+01 -0.30290365365E+01  0.12123787935E+02  0.12597859396E+02  0.10500000000E+00 0.  1.
         13    1    6    6    0    0  0.10580274494E+01 -0.20702481009E+01  0.78699018497E+01  0.82068099410E+01  0.10500000000E+00 0. -1.
</event>
<event>
11    0  0.3448258E-009  0.9118800E+02  0.7816531E-02  0.1126479E+00
         25   -1    0    0    0    0  0.00000000000E+00  0.00000000000E+00  0.99999998245E-14  0.12500000000E+03  0.12500000000E+03 0.  0.
    3000001    1    3    3    0    0  0.52663715633E+01  0.25006164085E+02  0.15733405783E+01  0.25622613298E+02  0.10000000000E+01 0.  1.
    1000022    2    1    0    0    0  0.32085767517E+01  0.61537045253E+02 -0.30244188125E+01  0.62499999745E+02  0.99999977867E+01 0.  0.
    3000022    2    3    3    0    0 -0.20577948116E+01  0.36530881168E+02 -0.45977593908E+01  0.36877386446E+02  0.24988254290E+00 0.  0.
    1000022    2    1    0    0    0 -0.32085767517E+01 -0.61537045253E+02  0.30244188125E+01  0.62500000255E+02  0.10000000977E+02 0.  0.
    3000022    2    5    5    0    0 -0.10326905364E+01 -0.26998565861E+02 -0.35759093688E+01  0.27255066270E+02  0.25000254816E+00 0.  0.
        -13    1    4    4    0    0 -0.10656155566E+01  0.19166771592E+02 -0.24786930807E+01  0.19356022685E+02  0.10500000000E+00 0. -1.
         13    1    4    4    0    0 -0.99217925505E+00  0.17364109576E+02 -0.21190663101E+01  0.17521363761E+02  0.10500000000E+00 0.  1.
    3000001    1    5    5    0    0 -0.21758862153E+01 -0.34538479392E+02  0.66003281814E+01  0.35244933985E+02  0.10000000000E+01 0.  1.
        -13    1    6    6    0    0 -0.50535540810E+00 -0.12744238848E+02 -0.16224290538E+01  0.12857461217E+02  0.10500000000E+00 0. -1.
         13    1    6    6    0    0 -0.52733512830E+00 -0.14254327013E+02 -0.19534803151E+01  0.14397605053E+02  0.10500000000E+00 0.  1.
</event>
<event>
11    0  0.3448258E-009  0.9118800E+02  0.7816531E-02  0.1126479E+00
         25   -1    0    0    0    0  0.00000000000E+00  0.00000000000E+00  0.99999998245E-14  0.12500000000E+03  0.12500000000E+03 0.  0.
    3000001    1    3    3    0    0  0.30622892083E+02  0.20238264461E+02 -0.31629747058E+02  0.48464314365E+02  0.10000000000E+01 0.  1.
    1000022    2    1    0    0    0  0.42326297211E+02  0.26432152288E+02 -0.36277758525E+02  0.62499999471E+02  0.10000003008E+02 0.  0.
    3000022    2    3    3    0    0  0.11703405128E+02  0.61938878270E+01 -0.46480114670E+01  0.14035685106E+02  0.25001560877E+00 0.  0.
    1000022    2    1    0    0    0 -0.42326297211E+02 -0.26432152288E+02  0.36277758525E+02  0.62500000529E+02  0.10000009617E+02 0.  0.
    3000022    2    5    5    0    0 -0.92824970100E+01 -0.97203487181E+01  0.13293524145E+02  0.18905824997E+02  0.25000935367E+00 0.  0.
        -13    1    4    4    0    0  0.31303005253E+01  0.16259956179E+01 -0.12159057881E+01  0.37325721713E+01  0.10500000000E+00 0.  1.
         13    1    4    4    0    0  0.85731046027E+01  0.45678922091E+01 -0.34321056789E+01  0.10303112935E+02  0.10500000000E+00 0. -1.
    3000001    1    5    5    0    0 -0.33043800201E+02 -0.16711803570E+02  0.22984234380E+02  0.43594175532E+02  0.10000000000E+01 0.  1.
        -13    1    6    6    0    0 -0.48763590511E+01 -0.51118096265E+01  0.70820592424E+01  0.10003802445E+02  0.10500000000E+00 0.  1.
         13    1    6    6    0    0 -0.44061379589E+01 -0.46085390916E+01  0.62114649025E+01  0.89020225514E+01  0.10500000000E+00 0. -1.
</event>
<event>
11    0  0.3448258E-009  0.9118800E+02  0.7816531E-02  0.1126479E+00
         25   -1    0    0    0    0  0.00000000000E+00  0.00000000000E+00  0.99999998245E-14  0.12500000000E+03  0.12500000000E+03 0.  0.
    3000001    1    3    3    0    0  0.75936310967E+01 -0.21842975445E+01  0.51727172791E+01  0.94969149225E+01  0.10000000000E+01 0. -1.
    1000022    2    1    0    0    0  0.41856892203E+02 -0.35040123706E+02  0.28747876749E+02  0.62499999910E+02  0.99999938458E+01 0.  0.
    3000022    2    3    3    0    0  0.34263261107E+02 -0.32855826162E+02  0.23575159470E+02  0.53003084988E+02  0.24999947099E+00 0.  0.
    1000022    2    1    0    0    0 -0.41856892203E+02  0.35040123706E+02 -0.28747876749E+02  0.62500000090E+02  0.99999949688E+01 0.  0.
    3000022    2    5    5    0    0 -0.32852464057E+02  0.23509055319E+02 -0.24440316074E+02  0.47216010317E+02  0.25000777241E+00 0.  0.
        -13    1    4    4    0    0  0.25134778365E+02 -0.24122912045E+02  0.17266547526E+02  0.38882086589E+02  0.10500000000E+00 0. -1.
         13    1    4    4    0    0  0.91284827412E+01 -0.87329141169E+01  0.63086119436E+01  0.14120998399E+02  0.10500000000E+00 0.  1.
    3000001    1    5    5    0    0 -0.90044281460E+01  0.11531068387E+02 -0.43075606753E+01  0.15283989772E+02  0.10000000000E+01 0. -1.
        -13    1    6    6    0    0 -0.16515125835E+02  0.11877138608E+02 -0.12363087497E+02  0.23804889421E+02  0.10500000000E+00 0. -1.
         13    1    6    6    0    0 -0.16337338222E+02  0.11631916711E+02 -0.12077228576E+02  0.23411120897E+02  0.10500000000E+00 0.  1.
</event>
<event>
11    0  0.3448258E-009  0.9118800E+02  0.7816531E-02  0.1126479E+00
         25   -1    0    0    0    0  0.00000000000E+00  0.00000000000E+00  0.99999998245E-14  0.12500000000E+03  0.12500000000E+03 0.  0.
    3000001    1    3    3    0    0 -0.16751552558E+02 -0.14326370485E+02 -0.20852351689E+01  0.22163203967E+02  0.10000000000E+01 0. -1.
    1000022    2    1    0    0    0 -0.41825396217E+02 -0.45037535249E+02  0.53391483705E+01  0.62500001649E+02  0.10000017539E+02 0.  0.
    3000022    2    3    3    0    0 -0.25073843659E+02 -0.30711164764E+02  0.74243835394E+01  0.40336797682E+02  0.24999856157E+00 0.  0.
    1000022    2    1    0    0    0  0.41825396217E+02  0.45037535249E+02 -0.53391483705E+01  0.62499998351E+02  0.99999969277E+01 0.  0.
    3000022    2    5    5    0    0  0.38442839677E+02  0.37512563679E+02 -0.65139228986E+01  0.54106728365E+02  0.25001322387E+00 0.  0.
        -13    1    4    4    0    0 -0.73880384731E+01 -0.91065664780E+01  0.21696383516E+01  0.11926064777E+02  0.10500000000E+00 0.  1.
         13    1    4    4    0    0 -0.17685805186E+02 -0.21604598286E+02  0.52547451878E+01  0.28410732905E+02  0.10500000000E+00 0. -1.
    3000001    1    5    5    0    0  0.33825565405E+01  0.75249715695E+01  0.11747745280E+01  0.83932699863E+01  0.10000000000E+01 0. -1.
        -13    1    6    6    0    0  0.12996865336E+02  0.12608365893E+02 -0.21841180614E+01  0.18239265220E+02  0.10500000000E+00 0. -1.
         13    1    6    6    0    0  0.25445974341E+02  0.24904197786E+02 -0.43298048372E+01  0.35867463145E+02  0.10500000000E+00 0.  1.
</event>
<event>
11    0  0.3448258E-009  0.9118800E+02  0.7816531E-02  0.1126479E+00
         25   -1    0    0    0    0  0.00000000000E+00  0.00000000000E+00  0.99999998245E-14  0.12500000000E+03  0.12500000000E+03 0.  0.
    3000001    1    3    3    0    0  0.21532894511E+01  0.41756696524E+01 -0.34910390701E+01  0.59380321904E+01  0.10000000000E+01 0.  1.
    1000022    2    1    0    0    0  0.30219693961E+02  0.52849317814E+02 -0.99984742756E+01  0.62500000780E+02  0.10000015654E+02 0.  0.
    3000022    2    3    3    0    0  0.28066404510E+02  0.48673648162E+02 -0.65074352055E+01  0.56561968589E+02  0.24998045648E+00 0.  0.
    1000022    2    1    0    0    0 -0.30219693961E+02 -0.52849317814E+02  0.99984742756E+01  0.62499999220E+02  0.10000005909E+02 0.  0.
    3000022    2    5    5    0    0 -0.59087303286E+01 -0.59461304307E+01 -0.12448186765E+01  0.84783038020E+01  0.25000125399E+00 0.  0.
        -13    1    4    4    0    0  0.18604634061E+02  0.32337861169E+02 -0.42809077257E+01  0.37552721200E+02  0.10500000000E+00 0.  1.
         13    1    4    4    0    0  0.94617704491E+01  0.16335786992E+02 -0.22265274798E+01  0.19009247389E+02  0.10500000000E+00 0. -1.
    3000001    1    5    5    0    0 -0.24310963633E+02 -0.46903187383E+02  0.11243292952E+02  0.54021695418E+02  0.10000000000E+01 0. -1.
        -13    1    6    6    0    0 -0.32475326376E+01 -0.32259301049E+01 -0.61915229049E+00  0.46203320046E+01  0.10500000000E+00 0.  1.
         13    1    6    6    0    0 -0.26611976910E+01 -0.27202003257E+01 -0.62566638600E+00  0.38579717974E+01  0.10500000000E+00 0. -1.
</event>
<event>
11    0  0.3448258E-009  0.9118800E+02  0.7816531E-02  0.1126479E+00
         25   -1    0    0    0    0  0.00000000000E+00  0.00000000000E+00  0.99999998245E-14  0.12500000000E+03  0.12500000000E+03 0.  0.
    3000001    1    3    3    0    0 -0.95729411978E+01  0.23221744322E+02  0.17974960489E+02  0.30902909525E+02  0.10000000000E+01 0. -1.
    1000022    2    1    0    0    0 -0.25705034803E+02  0.39874420433E+02  0.39440227252E+02  0.62500001776E+02  0.10000023856E+02 0.  0.
    3000022    2    3    3    0    0 -0.16132093605E+02  0.16652676112E+02  0.21465266764E+02  0.31597092251E+02  0.24999143762E+00 0.  0.
    1000022    2    1    0    0    0  0.25705034803E+02 -0.39874420433E+02 -0.39440227252E+02  0.62499998224E+02  0.10000001661E+02 0.  0.
    3000022    2    5    5    0    0  0.16870689742E+02 -0.32733040128E+02 -0.32729947609E+02  0.49268489685E+02  0.25003405176E+00 0.  0.
        -13    1    4    4    0    0 -0.10237418653E+02  0.10635282906E+02  0.13714096656E+02  0.20149477791E+02  0.10500000000E+00 0.  1.
         13    1    4    4    0    0 -0.58946749519E+01  0.60173932056E+01  0.77511701082E+01  0.11447614460E+02  0.10500000000E+00 0. -1.
    3000001    1    5    5    0    0  0.88343450607E+01 -0.71413803058E+01 -0.67102796433E+01  0.13231508539E+02  0.10000000000E+01 0. -1.
        -13    1    6    6    0    0  0.10935498871E+02 -0.21217170192E+02 -0.21291042421E+02  0.31985511703E+02  0.10500000000E+00 0.  1.
         13    1    6    6    0    0  0.59351908710E+01 -0.11515869936E+02 -0.11438905188E+02  0.17282977983E+02  0.10500000000E+00 0. -1.
</event>
<event>
11    0  0.3448258E-009  0.9118800E+02  0.7816531E-02  0.1126479E+00
         25   -1    0    0    0    0  0.00000000000E+00  0.00000000000E+00  0.99999998245E-14  0.12500000000E+03  0.12500000000E+03 0.  0.
    3000001    1    3    3    0    0  0.14833090600E+02  0.43218319206E+02 -0.12954052396E+01  0.45722223989E+02  0.10000000000E+01 0.  1.
    1000022    2    1    0    0    0  0.19933561865E+02  0.57882500923E+02 -0.76497977647E+01  0.62500002785E+02  0.10000007030E+02 0.  0.
    3000022    2    3    3    0    0  0.51004712654E+01  0.14664181717E+02 -0.63543925251E+01  0.16777778797E+02  0.25004885811E+00 0.  0.
    1000022    2    1    0    0    0 -0.19933561865E+02 -0.57882500923E+02  0.76497977647E+01  0.62499997215E+02  0.99999722144E+01 0.  0.
    3000022    2    5    5    0    0 -0.10867882482E+01 -0.84149980819E+01 -0.19036595020E+01  0.86994093106E+01  0.25000287718E+00 0.  0.
        -13    1    4    4    0    0  0.31388381601E+01  0.89512543825E+01 -0.38203700561E+01  0.10226608058E+02  0.10500000000E+00 0. -1.
         13    1    4    4    0    0  0.19616331053E+01  0.57129273344E+01 -0.25340224690E+01  0.65511707383E+01  0.10500000000E+00 0.  1.
    3000001    1    5    5    0    0 -0.18846773617E+02 -0.49467502841E+02  0.95534572667E+01  0.53800587904E+02  0.10000000000E+01 0.  1.
        -13    1    6    6    0    0 -0.80571686649E+00 -0.63043753980E+01 -0.14517835649E+01  0.65202016339E+01  0.10500000000E+00 0. -1.
         13    1    6    6    0    0 -0.28107138167E+00 -0.21106226840E+01 -0.45187593713E+00  0.21792076767E+01  0.10500000000E+00 0.  1.
</event>
<event>
11    0  0.3448258E-009  0.9118800E+02  0.7816531E-02  0.1126479E+00
         25   -1    0    0    0    0  0.00000000000E+00  0.00000000000E+00  0.99999998245E-14  0.12500000000E+03  0.12500000000E+03 0.  0.
    3000001    1    3    3    0    0 -0.60744149852E+00  0.23766058808E+01  0.10637739973E-02  0.26490077044E+01  0.10000000000E+01 0.  1.
    1000022    2    1    0    0    0 -0.16270749967E+02  0.44287042005E+02 -0.39751356871E+02  0.62500000594E+02  0.10000015359E+02 0.  0.
    3000022    2    3    3    0    0 -0.15663308468E+02  0.41910436124E+02 -0.39752420645E+02  0.59850992890E+02  0.25002894784E+00 0.  0.
    1000022    2    1    0    0    0  0.16270749967E+02 -0.44287042005E+02  0.39751356871E+02  0.62499999406E+02  0.10000007928E+02 0.  0.
    3000022    2    5    5    0    0  0.16266725188E+02 -0.39878855635E+02  0.38599808941E+02  0.57835432340E+02  0.25001719112E+00 0.  0.
        -13    1    4    4    0    0 -0.10132859716E+02  0.27095853337E+02 -0.25626435939E+02  0.38646932064E+02  0.10500000000E+00 0. -1.
         13    1    4    4    0    0 -0.55304487522E+01  0.14814582788E+02 -0.14125984706E+02  0.21204060826E+02  0.10500000000E+00 0.  1.
    3000001    1    5    5    0    0  0.40247783304E-02 -0.44081863698E+01  0.11515479301E+01  0.46645670651E+01  0.10000000000E+01 0. -1.
        -13    1    6    6    0    0  0.69580654748E+01 -0.17169906461E+02  0.16671202228E+02  0.24923089130E+02  0.10500000000E+00 0.  1.
         13    1    6    6    0    0  0.93086597136E+01 -0.22708949174E+02  0.21928606713E+02  0.32912343211E+02  0.10500000000E+00 0. -1.
</event>
<event>
11    0  0.3448258E-009  0.9118800E+02  0.7816531E-02  0.1126479E+00
         25   -1    0    0    0    0  0.00000000000E+00  0.00000000000E+00  0.99999998245E-14  0.12500000000E+03  0.12500000000E+03 0.  0.
    3000001    1    3    3    0    0  0.38197274458E+01 -0.41430555301E+00 -0.75744131695E+00  0.40417427182E+01  0.10000000000E+01 0.  1.
    1000022    2    1    0    0    0  0.56978546232E+02 -0.48972638388E+01  0.23145456354E+02  0.62500000819E+02  0.10000001430E+02 0.  0.
    3000022    2    3    3    0    0  0.53158818787E+02 -0.44829582858E+01  0.23902897671E+02  0.58458258100E+02  0.24998653567E+00 0.  0.
    1000022    2    1    0    0    0 -0.56978546232E+02  0.48972638388E+01 -0.23145456354E+02  0.62499999181E+02  0.99999911984E+01 0.  0.
    3000022    2    5    5    0    0 -0.41869838501E+02  0.23400353124E+00 -0.19755849260E+02  0.46297885669E+02  0.25000742095E+00 0.  0.
        -13    1    4    4    0    0  0.24511302764E+02 -0.20904005646E+01  0.10953434612E+02  0.26928841277E+02  0.10500000000E+00 0. -1.
         13    1    4    4    0    0  0.28647516022E+02 -0.23925577212E+01  0.12949463060E+02  0.31529416824E+02  0.10500000000E+00 0.  1.
    3000001    1    5    5    0    0 -0.15108707731E+02  0.46632603076E+01 -0.33896070946E+01  0.16202113512E+02  0.10000000000E+01 0.  1.
        -13    1    6    6    0    0 -0.22995832084E+02  0.17788248282E+00 -0.10800832351E+02  0.25406867967E+02  0.10500000000E+00 0. -1.
         13    1    6    6    0    0 -0.18874006417E+02  0.56121048424E-01 -0.89550169092E+01  0.20891017703E+02  0.10500000000E+00 0.  1.
</event>
<event>
11    0  0.3448258E-009  0.9118800E+02  0.7816531E-02  0.1126479E+00
         25   -1    0    0    0    0  0.00000000000E+00  0.00000000000E+00  0.99999998245E-14  0.12500000000E+03  0.12500000000E+03 0.  0.
    3000001    1    3    3    0    0  0.30079369310E+02  0.97241001448E+01 -0.19400087867E+01  0.31687382596E+02  0.10000000000E+01 0. -1.
    1000022    2    1    0    0    0  0.60600532473E+02  0.97917914655E+01 -0.61600579455E+01  0.62499998425E+02  0.99999886565E+01 0.  0.
    3000022    2    3    3    0    0  0.30521163164E+02  0.67691320674E-01 -0.42200491588E+01  0.30812615830E+02  0.24999273923E+00 0.  0.
    1000022    2    1    0    0    0 -0.60600532473E+02 -0.97917914655E+01  0.61600579455E+01  0.62500001575E+02  0.10000008338E+02 0.  0.
    3000022    2    5    5    0    0 -0.22233990385E+02 -0.47003280746E+01  0.69832183022E+01  0.23775433865E+02  0.25001036546E+00 0.  0.
        -13    1    4    4    0    0  0.15578681366E+02  0.22470754167E-02 -0.22141323663E+01  0.15735587860E+02  0.10500000000E+00 0. -1.
         13    1    4    4    0    0  0.14942481797E+02  0.65444245257E-01 -0.20059167924E+01  0.15077027969E+02  0.10500000000E+00 0.  1.
    3000001    1    5    5    0    0 -0.38366542089E+02 -0.50914633909E+01 -0.82316035677E+00  0.38724567709E+02  0.10000000000E+01 0. -1.
        -13    1    6    6    0    0 -0.11996362758E+02 -0.26045133616E+01  0.37679767045E+01  0.12841529610E+02  0.10500000000E+00 0.  1.
         13    1    6    6    0    0 -0.10237627627E+02 -0.20958147130E+01  0.32152415977E+01  0.10933904255E+02  0.10500000000E+00 0. -1.
</event>
<event>
11    0  0.3448258E-009  0.9118800E+02  0.7816531E-02  0.1126479E+00
         25   -1    0    0    0    0  0.00000000000E+00  0.00000000000E+00  0.99999998245E-14  0.12500000000E+03  0.12500000000E+03 0.  0.
    3000001    1    3    3    0    0 -0.48357401320E+02 -0.10840367021E+00 -0.70931360441E+01  0.48885198095E+02  0.10000000000E+01 0.  1.
    1000022    2    1    0    0    0 -0.60293596660E+02 -0.37657707493E+01 -0.12520036001E+02  0.62500000050E+02  0.99999938614E+01 0.  0.
    3000022    2    3    3    0    0 -0.11936195340E+02 -0.36573670791E+01 -0.54268999567E+01  0.13614801956E+02  0.24999200398E+00 0.  0.
    1000022    2    1    0    0    0  0.60293596660E+02  0.37657707493E+01  0.12520036001E+02  0.62499999950E+02  0.99999932335E+01 0.  0.
    3000022    2    5    5    0    0  0.46961826603E+02 -0.76934751194E+00  0.77849720071E+01  0.47609592919E+02  0.24999062080E+00 0.  0.
        -13    1    4    4    0    0 -0.60180729674E+01 -0.19062444152E+01 -0.27794990512E+01  0.68983773444E+01  0.10500000000E+00 0.  1.
         13    1    4    4    0    0 -0.59181223729E+01 -0.17511226638E+01 -0.26474009055E+01  0.67164246113E+01  0.10500000000E+00 0. -1.
    3000001    1    5    5    0    0  0.13331770058E+02  0.45351182612E+01  0.47350639937E+01  0.14890407031E+02  0.10000000000E+01 0.  1.
        -13    1    6    6    0    0  0.22417640637E+02 -0.41380819489E+00  0.37660164263E+01  0.22735781352E+02  0.10500000000E+00 0. -1.
         13    1    6    6    0    0  0.24544185966E+02 -0.35553931705E+00  0.40189555808E+01  0.24873811567E+02  0.10500000000E+00 0.  1.
</event>
<event>
11    0  0.3448258E-009  0.9118800E+02  0.7816531E-02  0.1126479E+00
         25   -1    0    0    0    0  0.00000000000E+00  0.00000000000E+00  0.99999998245E-14  0.12500000000E+03  0.12500000000E+03 0.  0.
    3000001    1    3    3    0    0  0.20900444111E+02  0.12536993650E+02 -0.38778851375E+02  0.45812706619E+02  0.10000000000E+01 0.  1.
    1000022    2    1    0    0    0  0.26008978830E+02  0.22301695177E+02 -0.51307089954E+02  0.62500000836E+02  0.10000001875E+02 0.  0.
    3000022    2    3    3    0    0  0.51085347189E+01  0.97647015264E+01 -0.12528238579E+02  0.16687294217E+02  0.25000705083E+00 0.  0.
    1000022    2    1    0    0    0 -0.26008978830E+02 -0.22301695177E+02  0.51307089954E+02  0.62499999164E+02  0.99999914187E+01 0.  0.
    3000022    2    5    5    0    0 -0.69936288437E+01 -0.10392599229E+02  0.12730315749E+02  0.17861701599E+02  0.24996360748E+00 0.  0.
        -13    1    4    4    0    0  0.29171315240E+01  0.56964442759E+01 -0.73244770972E+01  0.97271847656E+01  0.10500000000E+00 0.  1.
         13    1    4    4    0    0  0.21914031950E+01  0.40682572505E+01 -0.52037614817E+01  0.69601094515E+01  0.10500000000E+00 0. -1.
    3000001    1    5    5    0    0 -0.19015349986E+02 -0.11909095947E+02  0.38576774205E+02  0.44638297565E+02  0.10000000000E+01 0. -1.
        -13    1    6    6    0    0 -0.24127762476E+01 -0.34888255526E+01  0.43001792070E+01  0.60411885561E+01  0.10500000000E+00 0.  1.
         13    1    6    6    0    0 -0.45808525961E+01 -0.69037736765E+01  0.84301365416E+01  0.11820513043E+02  0.10500000000E+00 0. -1.
</event>
<event>
11    0  0.3448258E-009  0.9118800E+02  0.7816531E-02  0.1126479E+00
         25   -1    0    0    0    0  0.00000000000E+00  0.00000000000E+00  0.99999998245E-14  0.12500000000E+03  0.12500000000E+03 0.  0.
    3000001    1    3    3    0    0 -0.12720293385E+02 -0.20284566708E+02  0.52105058662E+02  0.57351605457E+02  0.10000000000E+01 0. -1.
    1000022    2    1    0    0    0 -0.14917084987E+02 -0.19333811110E+02  0.56656281467E+02  0.62499999485E+02  0.10000001471E+02 0.  0.
    3000022    2    3    3    0    0 -0.21967916014E+01  0.95075559771E+00  0.45512228056E+01  0.51483940284E+01  0.25000499861E+00 0.  0.
    1000022    2    1    0    0    0  0.14917084987E+02  0.19333811110E+02 -0.56656281467E+02  0.62500000515E+02  0.10000007902E+02 0.  0.
    3000022    2    5    5    0    0  0.62829845000E+01  0.15461988637E+02 -0.39495230115E+02  0.42877554592E+02  0.24999812720E+00 0.  0.
        -13    1    4    4    0    0 -0.71745371996E+00  0.35076997008E+00  0.16082930202E+01  0.17987247847E+01  0.10500000000E+00 0. -1.
         13    1    4    4    0    0 -0.14793378814E+01  0.59998562763E+00  0.29429297854E+01  0.33496692438E+01  0.10500000000E+00 0.  1.
    3000001    1    5    5    0    0  0.86341004867E+01  0.38718224731E+01 -0.17161051352E+02  0.19622445923E+02  0.10000000000E+01 0.  1.
        -13    1    6    6    0    0  0.14796778936E+01  0.36880672946E+01 -0.94116794537E+01  0.10216752037E+02  0.10500000000E+00 0. -1.
         13    1    6    6    0    0  0.48033066064E+01  0.11773921343E+02 -0.30083550662E+02  0.32660802555E+02  0.10500000000E+00 0.  1.
</event>
<event>
11    0  0.3448258E-009  0.9118800E+02  0.7816531E-02  0.1126479E+00
         25   -1    0    0    0    0  0.00000000000E+00  0.00000000000E+00  0.99999998245E-14  0.12500000000E+03  0.12500000000E+03 0.  0.
    3000001    1    3    3    0    0  0.43757340805E+01 -0.48445756645E+01  0.16762485013E+01  0.68137193331E+01  0.10000000000E+01 0. -1.
    1000022    2    1    0    0    0  0.40949932320E+02 -0.27740236827E+02  0.36875907026E+02  0.62499998815E+02  0.99999818314E+01 0.  0.
    3000022    2    3    3    0    0  0.36574198239E+02 -0.22895661162E+02  0.35199658525E+02  0.55686279481E+02  0.24997065188E+00 0.  0.
    1000022    2    1    0    0    0 -0.40949932320E+02  0.27740236827E+02 -0.36875907026E+02  0.62500001185E+02  0.99999966494E+01 0.  0.
    3000022    2    5    5    0    0 -0.65008238477E+01  0.72107999350E+00 -0.33840030879E+01  0.73684898702E+01  0.24999802506E+00 0.  0.
        -13    1    4    4    0    0  0.13013592737E+02 -0.82133474161E+01  0.12540060058E+02  0.19851367786E+02  0.10500000000E+00 0.  1.
         13    1    4    4    0    0  0.23560605503E+02 -0.14682313746E+02  0.22659598466E+02  0.35834911696E+02  0.10500000000E+00 0. -1.
    3000001    1    5    5    0    0 -0.34449108472E+02  0.27019156833E+02 -0.33491903938E+02  0.55131511315E+02  0.10000000000E+01 0.  1.
        -13    1    6    6    0    0 -0.46990491686E+01  0.52975912812E+00 -0.24879682489E+01  0.53444100545E+01  0.10500000000E+00 0.  1.
         13    1    6    6    0    0 -0.18017746791E+01  0.19132086538E+00 -0.89603483898E+00  0.20240798157E+01  0.10500000000E+00 0. -1.
</event>
<event>
11    0  0.3448258E-009  0.9118800E+02  0.7816531E-02  0.1126479E+00
         25   -1    0    0    0    0  0.00000000000E+00  0.00000000000E+00  0.99999998245E-14  0.12500000000E+03  0.12500000000E+03 0.  0.
    3000001    1    3    3    0    0 -0.87643218561E+01  0.21376061019E+02  0.32813404957E+02  0.40143104853E+02  0.10000000000E+01 0.  1.
    1000022    2    1    0    0    0 -0.63677427020E+01  0.34555046746E+02  0.50711434049E+02  0.62500009896E+02  0.10000114541E+02 0.  0.
    3000022    2    3    3    0    0  0.23965791541E+01  0.13178985727E+02  0.17898029092E+02  0.22356905043E+02  0.25000257771E+00 0.  0.
    1000022    2    1    0    0    0  0.63677427020E+01 -0.34555046746E+02 -0.50711434049E+02  0.62499990104E+02  0.99999908474E+01 0.  0.
    3000022    2    5    5    0    0  0.35178351029E+00 -0.67232210320E+01 -0.17439754077E+02  0.18695801083E+02  0.25000641928E+00 0.  0.
        -13    1    4    4    0    0  0.89720115890E+00  0.46788607863E+01  0.64244596516E+01  0.79988383526E+01  0.10500000000E+00 0. -1.
         13    1    4    4    0    0  0.14993779952E+01  0.85001249407E+01  0.11473569440E+02  0.14358066690E+02  0.10500000000E+00 0.  1.
    3000001    1    5    5    0    0  0.60159591917E+01 -0.27831825714E+02 -0.33271679973E+02  0.43804189021E+02  0.10000000000E+01 0.  1.
        -13    1    6    6    0    0  0.76729416984E-01 -0.18553190407E+01 -0.47253089514E+01  0.50781557511E+01  0.10500000000E+00 0.  1.
         13    1    6    6    0    0  0.27505409331E+00 -0.48679019913E+01 -0.12714445125E+02  0.13617645332E+02  0.10500000000E+00 0. -1.
</event>
<event>
11    0  0.3448258E-009  0.9118800E+02  0.7816531E-02  0.1126479E+00
         25   -1    0    0    0    0  0.00000000000E+00  0.00000000000E+00  0.99999998245E-14  0.12500000000E+03  0.12500000000E+03 0.  0.
    3000001    1    3    3    0    0  0.58276914931E+00  0.30595229730E+01 -0.13776801137E+02  0.14159821689E+02  0.10000000000E+01 0.  1.
    1000022    2    1    0    0    0 -0.11483748367E+02  0.23673336492E+02 -0.55802748361E+02  0.62500000564E+02  0.10000000429E+02 0.  0.
    3000022    2    3    3    0    0 -0.12066517517E+02  0.20613813519E+02 -0.42025947224E+02  0.48340178874E+02  0.25000150921E+00 0.  0.
    1000022    2    1    0    0    0  0.11483748367E+02 -0.23673336492E+02  0.55802748361E+02  0.62499999436E+02  0.99999933836E+01 0.  0.
    3000022    2    5    5    0    0  0.63525518158E-01  0.24179907276E+00  0.65611526005E+01  0.65706694560E+01  0.24994273405E+00 0.  0.
        -13    1    4    4    0    0 -0.27895374328E+01  0.47526337693E+01 -0.96868953367E+01  0.11145223780E+02  0.10500000000E+00 0.  1.
         13    1    4    4    0    0 -0.92769800838E+01  0.15861179750E+02 -0.32339051887E+02  0.37194955095E+02  0.10500000000E+00 0. -1.
    3000001    1    5    5    0    0  0.11420222849E+02 -0.23915135565E+02  0.49241595761E+02  0.55929329980E+02  0.10000000000E+01 0.  1.
        -13    1    6    6    0    0  0.24025969234E-01  0.19920196503E+00  0.48716831639E+01  0.48769437683E+01  0.10500000000E+00 0. -1.
         13    1    6    6    0    0  0.39499548924E-01  0.42597107723E-01  0.16894694366E+01  0.16937256877E+01  0.10500000000E+00 0.  1.
</event>
<event>
11    0  0.3448258E-009  0.9118800E+02  0.7816531E-02  0.1126479E+00
         25   -1    0    0    0    0  0.00000000000E+00  0.00000000000E+00  0.99999998245E-14  0.12500000000E+03  0.12500000000E+03 0.  0.
    3000001    1    3    3    0    0 -0.46910179316E+01  0.68923477912E+01 -0.19872312058E+02  0.21573569335E+02  0.10000000000E+01 0.  1.
    1000022    2    1    0    0    0 -0.90470580716E+01  0.31577358815E+02 -0.52223283298E+02  0.62499999479E+02  0.99999883460E+01 0.  0.
    3000022    2    3    3    0    0 -0.43560401400E+01  0.24685011024E+02 -0.32350971240E+02  0.40926430144E+02  0.24997839891E+00 0.  0.
    1000022    2    1    0    0    0  0.90470580716E+01 -0.31577358815E+02  0.52223283298E+02  0.62500000521E+02  0.99999948621E+01 0.  0.
    3000022    2    5    5    0    0  0.41506751701E+01 -0.26968474785E+02  0.44604555716E+02  0.52289153961E+02  0.24998933168E+00 0.  0.
        -13    1    4    4    0    0 -0.21316774950E+01  0.12273419167E+02 -0.16173407585E+02  0.20414970118E+02  0.10500000000E+00 0. -1.
         13    1    4    4    0    0 -0.22243626450E+01  0.12411591857E+02 -0.16177563654E+02  0.20511460026E+02  0.10500000000E+00 0.  1.
    3000001    1    5    5    0    0  0.48963829015E+01 -0.46088840303E+01  0.76187275815E+01  0.10210846561E+02  0.10000000000E+01 0.  1.
        -13    1    6    6    0    0  0.98263237343E+00 -0.62999900163E+01  0.10426117919E+02  0.12221718392E+02  0.10500000000E+00 0.  1.
         13    1    6    6    0    0  0.31680427967E+01 -0.20668484769E+02  0.34178437797E+02  0.40067435569E+02  0.10500000000E+00 0. -1.
</event>
<event>
11    0  0.3448258E-009  0.9118800E+02  0.7816531E-02  0.1126479E+00
         25   -1    0    0    0    0  0.00000000000E+00  0.00000000000E+00  0.99999998245E-14  0.12500000000E+03  0.12500000000E+03 0.  0.
    3000001    1    3    3    0    0 -0.14375000708E+02 -0.43923715519E+02  0.20498194123E+02  0.50567869172E+02  0.10000000000E+01 0. -1.
    1000022    2    1    0    0    0 -0.21894069778E+02 -0.52717583668E+02  0.23404184770E+02  0.62500001979E+02  0.10000023168E+02 0.  0.
    3000022    2    3    3    0    0 -0.75190690693E+01 -0.87938681490E+01  0.29059906475E+01  0.11932132806E+02  0.24998994053E+00 0.  0.
    1000022    2    1    0    0    0  0.21894069778E+02  0.52717583668E+02 -0.23404184770E+02  0.62499998021E+02  0.99999984341E+01 0.  0.
    3000022    2    5    5    0    0  0.29777973192E+01  0.85406618606E+01 -0.23653612569E-01  0.90483841887E+01  0.25003007921E+00 0.  0.
        -13    1    4    4    0    0 -0.23554879056E+01 -0.27023008386E+01  0.93590329338E+00  0.37064394059E+01  0.10500000000E+00 0. -1.
         13    1    4    4    0    0 -0.51635811638E+01 -0.60915673105E+01  0.19700873541E+01  0.82256934003E+01  0.10500000000E+00 0.  1.
    3000001    1    5    5    0    0  0.18916272459E+02  0.44176921807E+02 -0.23380531158E+02  0.53451613833E+02  0.10000000000E+01 0. -1.
        -13    1    6    6    0    0  0.12285857853E+01  0.35629052537E+01  0.53417103268E-01  0.37706226629E+01  0.10500000000E+00 0. -1.
         13    1    6    6    0    0  0.17492115338E+01  0.49777566069E+01 -0.77070715837E-01  0.52777615258E+01  0.10500000000E+00 0.  1.
</event>
<event>
11    0  0.3448258E-009  0.9118800E+02  0.7816531E-02  0.1126479E+00
         25   -1    0    0    0    0  0.00000000000E+00  0.00000000000E+00  0.99999998245E-14  0.12500000000E+03  0.12500000000E+03 0.  0.
    3000001    1    3    3    0    0 -0.18525483102E+02  0.75807020622E+01 -0.40685362460E+02  0.45353713039E+02  0.10000000000E+01 0. -1.
    1000022    2    1    0    0    0 -0.20511120041E+02  0.13885589473E+02 -0.56504284625E+02  0.62500000143E+02  0.10000009827E+02 0.  0.
    3000022    2    3    3    0    0 -0.19856369388E+01  0.63048874109E+01 -0.15818922165E+02  0.17146287104E+02  0.25000733855E+00 0.  0.
    1000022    2    1    0    0    0  0.20511120041E+02 -0.13885589473E+02  0.56504284625E+02  0.62499999857E+02  0.10000008042E+02 0.  0.
    3000022    2    5    5    0    0  0.16501830578E+01  0.15513772654E+01  0.39416624681E+01  0.45529193961E+01  0.24999294245E+00 0.  0.
        -13    1    4    4    0    0 -0.45351127124E+00  0.14407620141E+01 -0.36193870119E+01  0.39233219338E+01  0.10500000000E+00 0. -1.
         13    1    4    4    0    0 -0.15321256675E+01  0.48641253968E+01 -0.12199535153E+02  0.13222965170E+02  0.10500000000E+00 0.  1.
    3000001    1    5    5    0    0  0.18860936983E+02 -0.15436966739E+02  0.52562622157E+02  0.57947080461E+02  0.10000000000E+01 0. -1.
        -13    1    6    6    0    0  0.58156715495E+00  0.62090169856E+00  0.14301277277E+01  0.16673420742E+01  0.10500000000E+00 0.  1.
         13    1    6    6    0    0  0.10686159028E+01  0.93047556685E+00  0.25115347404E+01  0.28855773219E+01  0.10500000000E+00 0. -1.
</event>
<event>
11    0  0.3448258E-009  0.9118800E+02  0.7816531E-02  0.1126479E+00
         25   -1    0    0    0    0  0.00000000000E+00  0.00000000000E+00  0.99999998245E-14  0.12500000000E+03  0.12500000000E+03 0.  0.
    3000001    1    3    3    0    0 -0.73246027192E+01  0.35818137303E+02  0.11612790629E+01  0.36591492644E+02  0.10000000000E+01 0. -1.
    1000022    2    1    0    0    0 -0.94709460159E+01  0.60189752338E+02  0.96821891782E+01  0.62500001202E+02  0.10000012903E+02 0.  0.
    3000022    2    3    3    0    0 -0.21463432967E+01  0.24371615035E+02  0.85209101153E+01  0.25908508558E+02  0.24999512836E+00 0.  0.
    1000022    2    1    0    0    0  0.94709460159E+01 -0.60189752338E+02 -0.96821891782E+01  0.62499998798E+02  0.99999978720E+01 0.  0.
    3000022    2    5    5    0    0  0.10891173443E+02 -0.57504929217E+02 -0.95310975950E+01  0.59298725644E+02  0.24999681462E+00 0.  0.
        -13    1    4    4    0    0 -0.11992924425E+01  0.12871279572E+02  0.45191357043E+01  0.13694588446E+02  0.10500000000E+00 0. -1.
         13    1    4    4    0    0 -0.94705085416E+00  0.11500335463E+02  0.40017744110E+01  0.12213920112E+02  0.10500000000E+00 0.  1.
    3000001    1    5    5    0    0 -0.14202274274E+01 -0.26848231213E+01 -0.15109158320E+00  0.32012731537E+01  0.10000000000E+01 0.  1.
        -13    1    6    6    0    0  0.83733439785E+01 -0.44166453395E+02 -0.73269371479E+01  0.45546498524E+02  0.10500000000E+00 0.  1.
         13    1    6    6    0    0  0.25178294648E+01 -0.13338475822E+02 -0.22041604471E+01  0.13752227120E+02  0.10500000000E+00 0. -1.
</event>
<event>
11    0  0.3448258E-009  0.9118800E+02  0.7816531E-02  0.1126479E+00
         25   -1    0    0    0    0  0.00000000000E+00  0.00000000000E+00  0.99999998245E-14  0.12500000000E+03  0.12500000000E+03 0.  0.
    3000001    1    3    3    0    0 -0.21892726917E+02 -0.24164373774E+02 -0.21080000062E+02  0.38840376599E+02  0.10000000000E+01 0. -1.
    1000022    2    1    0    0    0 -0.40346674224E+02 -0.37015094244E+02 -0.28430242435E+02  0.62499999408E+02  0.99999959101E+01 0.  0.
    3000022    2    3    3    0    0 -0.18453947307E+02 -0.12850720470E+02 -0.73502423728E+01  0.23659622809E+02  0.25000136736E+00 0.  0.
    1000022    2    1    0    0    0  0.40346674224E+02  0.37015094244E+02  0.28430242435E+02  0.62500000592E+02  0.10000003315E+02 0.  0.
    3000022    2    5    5    0    0  0.25416054271E+02  0.24843222127E+02  0.13167279737E+02  0.37902522809E+02  0.24995841646E+00 0.  0.
        -13    1    4    4    0    0 -0.14009431242E+02 -0.97414361506E+01 -0.55595532114E+01  0.17946570672E+02  0.10500000000E+00 0.  1.
         13    1    4    4    0    0 -0.44445160655E+01 -0.31092843198E+01 -0.17906891614E+01  0.57130521362E+01  0.10500000000E+00 0. -1.
    3000001    1    5    5    0    0  0.14930619953E+02  0.12171872117E+02  0.15262962698E+02  0.24597477784E+02  0.10000000000E+01 0.  1.
        -13    1    6    6    0    0  0.93088809369E+01  0.91033457608E+01  0.47610253083E+01  0.13863785750E+02  0.10500000000E+00 0.  1.
         13    1    6    6    0    0  0.16107173334E+02  0.15739876366E+02  0.84062544288E+01  0.24038737059E+02  0.10500000000E+00 0. -1.
</event>
<event>
11    0  0.3448258E-009  0.9118800E+02  0.7816531E-02  0.1126479E+00
         25   -1    0    0    0    0  0.00000000000E+00  0.00000000000E+00  0.99999998245E-14  0.12500000000E+03  0.12500000000E+03 0.  0.
    3000001    1    3    3    0    0 -0.20820009621E+02  0.19707366189E+02 -0.25625315253E+02  0.38464397363E+02  0.10000000000E+01 0.  1.
    1000022    2    1    0    0    0 -0.34707832206E+02  0.24809070011E+02 -0.44565968469E+02  0.62499992813E+02  0.99999992429E+01 0.  0.
    3000022    2    3    3    0    0 -0.13887822586E+02  0.51017038212E+01 -0.18940653216E+02  0.24035595450E+02  0.25001266696E+00 0.  0.
    1000022    2    1    0    0    0  0.34707832206E+02 -0.24809070011E+02  0.44565968469E+02  0.62500007187E+02  0.10000089074E+02 0.  0.
    3000022    2    5    5    0    0  0.14620421265E+02 -0.66278012508E+01  0.11544058683E+02  0.19774029866E+02  0.24999780071E+00 0.  0.
        -13    1    4    4    0    0 -0.98123940497E+01  0.35871053444E+01 -0.13440135165E+02  0.17023473793E+02  0.10500000000E+00 0.  1.
         13    1    4    4    0    0 -0.40754285360E+01  0.15145984768E+01 -0.55005180512E+01  0.70121216568E+01  0.10500000000E+00 0. -1.
    3000001    1    5    5    0    0  0.20087410941E+02 -0.18181268760E+02  0.33021909786E+02  0.42725977320E+02  0.10000000000E+01 0.  1.
        -13    1    6    6    0    0  0.40196102611E+01 -0.18050256087E+01  0.31270879072E+01  0.54041731910E+01  0.10500000000E+00 0.  1.
         13    1    6    6    0    0  0.10600811004E+02 -0.48227756421E+01  0.84169707759E+01  0.14369856675E+02  0.10500000000E+00 0. -1.
</event>
<event>
11    0  0.3448258E-009  0.9118800E+02  0.7816531E-02  0.1126479E+00
         25   -1    0    0    0    0  0.00000000000E+00  0.00000000000E+00  0.99999998245E-14  0.12500000000E+03  0.12500000000E+03 0.  0.
    3000001    1    3    3    0    0  0.26652843738E+02 -0.36775665174E+02 -0.27105809587E+02  0.52901309452E+02  0.10000000000E+01 0. -1.
    1000022    2    1    0    0    0  0.28763828494E+02 -0.41967693908E+02 -0.34894193272E+02  0.62499999026E+02  0.99999996287E+01 0.  0.
    3000022    2    3    3    0    0  0.21109847565E+01 -0.51920287339E+01 -0.77883836847E+01  0.95986895747E+01  0.25000422918E+00 0.  0.
    1000022    2    1    0    0    0 -0.28763828494E+02  0.41967693908E+02  0.34894193272E+02  0.62500000974E+02  0.10000011800E+02 0.  0.
    3000022    2    5    5    0    0 -0.22303133388E+02  0.33033338316E+02  0.31843076891E+02  0.51016421293E+02  0.24999292579E+00 0.  0.
        -13    1    4    4    0    0  0.69357778897E+00 -0.16502207774E+01 -0.25689564454E+01  0.31328646607E+01  0.10500000000E+00 0.  1.
         13    1    4    4    0    0  0.14174069675E+01 -0.35418079565E+01 -0.52194272393E+01  0.64658249140E+01  0.10500000000E+00 0. -1.
    3000001    1    5    5    0    0 -0.64606951065E+01  0.89343555922E+01  0.30511163805E+01  0.11483579680E+02  0.10000000000E+01 0.  1.
        -13    1    6    6    0    0 -0.10707041983E+02  0.15844424048E+02  0.15363712656E+02  0.24530414041E+02  0.10500000000E+00 0. -1.
         13    1    6    6    0    0 -0.11596091404E+02  0.17188914268E+02  0.16479364235E+02  0.26486007252E+02  0.10500000000E+00 0.  1.
</event>
<event>
11    0  0.3448258E-009  0.9118800E+02  0.7816531E-02  0.1126479E+00
         25   -1    0    0    0    0  0.00000000000E+00  0.00000000000E+00  0.99999998245E-14  0.12500000000E+03  0.12500000000E+03 0.  0.
    3000001    1    3    3    0    0 -0.11347186705E+02  0.34349188249E+02  0.14080902938E+02  0.38831652129E+02  0.10000000000E+01 0. -1.
    1000022    2    1    0    0    0 -0.24828348491E+02  0.51302951381E+02  0.23618007856E+02  0.62499999734E+02  0.99999981238E+01 0.  0.
    3000022    2    3    3    0    0 -0.13481161786E+02  0.16953763131E+02  0.95371049174E+01  0.23668347605E+02  0.25000143280E+00 0.  0.
    1000022    2    1    0    0    0  0.24828348491E+02 -0.51302951381E+02 -0.23618007856E+02  0.62500000266E+02  0.10000001453E+02 0.  0.
    3000022    2    5    5    0    0  0.21740412562E+02 -0.34726233548E+02 -0.17023592347E+02  0.44366902398E+02  0.24999436891E+00 0.  0.
        -13    1    4    4    0    0 -0.57962258138E+01  0.71910025341E+01  0.40417667043E+01  0.10082343687E+02  0.10500000000E+00 0.  1.
         13    1    4    4    0    0 -0.76849359722E+01  0.97627605974E+01  0.54953382131E+01  0.13586003918E+02  0.10500000000E+00 0. -1.
    3000001    1    5    5    0    0  0.30879359286E+01 -0.16576717833E+02 -0.65944155082E+01  0.18133097868E+02  0.10000000000E+01 0.  1.
        -13    1    6    6    0    0  0.55119471757E+01 -0.88069165264E+01 -0.43478285864E+01  0.11263124735E+02  0.10500000000E+00 0.  1.
         13    1    6    6    0    0  0.16228465386E+02 -0.25919317022E+02 -0.12675763761E+02  0.33103777664E+02  0.10500000000E+00 0. -1.
</event>
<event>
11    0  0.3448258E-009  0.9118800E+02  0.7816531E-02  0.1126479E+00
         25   -1    0    0    0    0  0.00000000000E+00  0.00000000000E+00  0.99999998245E-14  0.12500000000E+03  0.12500000000E+03 0.  0.
    3000001    1    3    3    0    0  0.29340256070E+02  0.17808151463E+02 -0.20989910457E+02  0.40243722812E+02  0.10000000000E+01 0.  1.
    1000022    2    1    0    0    0  0.40816273201E+02  0.33275754240E+02 -0.32140412753E+02  0.62500000754E+02  0.99999992003E+01 0.  0.
    3000022    2    3    3    0    0  0.11476017131E+02  0.15467602776E+02 -0.11150502296E+02  0.22256277941E+02  0.25000300546E+00 0.  0.
    1000022    2    1    0    0    0 -0.40816273201E+02 -0.33275754240E+02  0.32140412753E+02  0.62499999246E+02  0.99999897815E+01 0.  0.
    3000022    2    5    5    0    0 -0.38560969405E+02 -0.32443394624E+02  0.28116582815E+02  0.57707252110E+02  0.25000146042E+00 0.  0.
        -13    1    4    4    0    0  0.88334953761E+01  0.11915631527E+02 -0.85899585816E+01  0.17140925549E+02  0.10500000000E+00 0. -1.
         13    1    4    4    0    0  0.26425217546E+01  0.35519712488E+01 -0.25605437148E+01  0.51153523917E+01  0.10500000000E+00 0.  1.
    3000001    1    5    5    0    0 -0.22553037962E+01 -0.83235961587E+00  0.40238299383E+01  0.47927471367E+01  0.10000000000E+01 0. -1.
        -13    1    6    6    0    0 -0.16180796159E+02 -0.13529219664E+02  0.11767344070E+02  0.24152419351E+02  0.10500000000E+00 0.  1.
         13    1    6    6    0    0 -0.22380173246E+02 -0.18914174960E+02  0.16349238744E+02  0.33554832758E+02  0.10500000000E+00 0. -1.
</event>
<event>
11    0  0.3448258E-009  0.9118800E+02  0.7816531E-02  0.1126479E+00
         25   -1    0    0    0    0  0.00000000000E+00  0.00000000000E+00  0.99999998245E-14  0.12500000000E+03  0.12500000000E+03 0.  0.
    3000001    1    3    3    0    0 -0.20901507276E+02  0.20062024356E+01  0.17323084457E+02  0.27239440334E+02  0.10000000000E+01 0.  1.
    1000022    2    1    0    0    0 -0.47726697960E+02  0.15203594192E+02  0.36017537424E+02  0.62500000120E+02  0.10000001920E+02 0.  0.
    3000022    2    3    3    0    0 -0.26825190684E+02  0.13197391756E+02  0.18694452967E+02  0.35260559785E+02  0.25000053023E+00 0.  0.
    1000022    2    1    0    0    0  0.47726697960E+02 -0.15203594192E+02 -0.36017537424E+02  0.62499999880E+02  0.10000000422E+02 0.  0.
    3000022    2    5    5    0    0  0.27955524066E+01  0.10266583927E+01 -0.39528490139E+01  0.49554677114E+01  0.25000839825E+00 0.  0.
        -13    1    4    4    0    0 -0.15112366503E+02  0.75070151748E+01  0.10536746112E+02  0.19894042872E+02  0.10500000000E+00 0.  1.
         13    1    4    4    0    0 -0.11712824181E+02  0.56903765814E+01  0.81577068543E+01  0.15366516914E+02  0.10500000000E+00 0. -1.
    3000001    1    5    5    0    0  0.44931145553E+02 -0.16230252584E+02 -0.32064688410E+02  0.57544532169E+02  0.10000000000E+01 0.  1.
        -13    1    6    6    0    0  0.87598422216E+00  0.27897800213E+00 -0.12686846480E+01  0.15702747592E+01  0.10500000000E+00 0. -1.
         13    1    6    6    0    0  0.19195681845E+01  0.74768039055E+00 -0.26841643659E+01  0.33851929523E+01  0.10500000000E+00 0.  1.
</event>
<event>
11    0  0.3448258E-009  0.9118800E+02  0.7816531E-02  0.1126479E+00
         25   -1    0    0    0    0  0.00000000000E+00  0.00000000000E+00  0.99999998245E-14  0.12500000000E+03  0.12500000000E+03 0.  0.
    3000001    1    3    3    0    0 -0.38478933888E+02  0.67967715275E+01 -0.13813424230E+02  0.41456424657E+02  0.10000000000E+01 0. -1.
    1000022    2    1    0    0    0 -0.56644187405E+02  0.16566095866E+02 -0.17979167495E+02  0.62499999777E+02  0.10000000466E+02 0.  0.
    3000022    2    3    3    0    0 -0.18165253517E+02  0.97693243381E+01 -0.41657432652E+01  0.21043575120E+02  0.25000707413E+00 0.  0.
    1000022    2    1    0    0    0  0.56644187405E+02 -0.16566095866E+02  0.17979167495E+02  0.62500000223E+02  0.10000003248E+02 0.  0.
    3000022    2    5    5    0    0  0.35455388710E+02 -0.11657191211E+02  0.64961882187E+01  0.37884530531E+02  0.24999337385E+00 0.  0.
        -13    1    4    4    0    0 -0.43218118068E+01  0.23261442357E+01 -0.10093121469E+01  0.50118599650E+01  0.10500000000E+00 0. -1.
         13    1    4    4    0    0 -0.13843441710E+02  0.74431801024E+01 -0.31564311182E+01  0.16031715155E+02  0.10500000000E+00 0.  1.
    3000001    1    5    5    0    0  0.21188798695E+02 -0.49089046550E+01  0.11482979277E+02  0.24615469691E+02  0.10000000000E+01 0.  1.
        -13    1    6    6    0    0  0.26177163764E+02 -0.86040527863E+01  0.48288122510E+01  0.27975026003E+02  0.10500000000E+00 0.  1.
         13    1    6    6    0    0  0.92782249458E+01 -0.30531384243E+01  0.16673759677E+01  0.99095045285E+01  0.10500000000E+00 0. -1.
</event>
<event>
11    0  0.3448258E-009  0.9118800E+02  0.7816531E-02  0.1126479E+00
         25   -1    0    0    0    0  0.00000000000E+00  0.00000000000E+00  0.99999998245E-14  0.12500000000E+03  0.12500000000E+03 0.  0.
    3000001    1    3    3    0    0 -0.41709081951E+02  0.20204460752E+02  0.38946390518E+02  0.60544934436E+02  0.10000000000E+01 0.  1.
    1000022    2    1    0    0    0 -0.42277435528E+02  0.19310632921E+02  0.40570529691E+02  0.62500000271E+02  0.10000002791E+02 0.  0.
    3000022    2    3    3    0    0 -0.56835357754E+00 -0.89382783033E+00  0.16241391726E+01  0.19550658353E+01  0.25000077799E+00 0.  0.
    1000022    2    1    0    0    0  0.42277435528E+02 -0.19310632921E+02 -0.40570529691E+02  0.62499999729E+02  0.99999994039E+01 0.  0.
    3000022    2    5    5    0    0  0.19462876137E+02 -0.10286103892E+02 -0.25502313193E+02  0.33690324395E+02  0.24999773861E+00 0.  0.
        -13    1    4    4    0    0 -0.16476028642E+00 -0.34483942313E+00  0.65850815372E+00  0.76858192032E+00  0.10500000000E+00 0. -1.
         13    1    4    4    0    0 -0.40359329113E+00 -0.54898840719E+00  0.96563101888E+00  0.11864839150E+01  0.10500000000E+00 0.  1.
    3000001    1    5    5    0    0  0.22814559391E+02 -0.90245290297E+01 -0.15068216498E+02  0.28809675334E+02  0.10000000000E+01 0.  1.
        -13    1    6    6    0    0  0.46144791008E+01 -0.24379063009E+01 -0.60212188753E+01  0.79688710774E+01  0.10500000000E+00 0.  1.
         13    1    6    6    0    0  0.14848397036E+02 -0.78481975907E+01 -0.19481094317E+02  0.25721453318E+02  0.10500000000E+00 0. -1.
</event>
<event>
11    0  0.3448258E-009  0.9118800E+02  0.7816531E-02  0.1126479E+00
         25   -1    0    0    0    0  0.00000000000E+00  0.00000000000E+00  0.99999998245E-14  0.12500000000E+03  0.12500000000E+03 0.  0.
    3000001    1    3    3    0    0  0.13728673916E+01  0.17412159950E+02  0.32051623931E+01  0.17785981698E+02  0.10000000000E+01 0. -1.
    1000022    2    1    0    0    0 -0.10592061234E+02  0.59464046111E+02  0.12573207940E+02  0.62499999901E+02  0.99999944326E+01 0.  0.
    3000022    2    3    3    0    0 -0.11964928625E+02  0.42051886161E+02  0.93680455467E+01  0.44714018203E+02  0.24999955046E+00 0.  0.
    1000022    2    1    0    0    0  0.10592061234E+02 -0.59464046111E+02 -0.12573207940E+02  0.62500000099E+02  0.99999956711E+01 0.  0.
    3000022    2    5    5    0    0  0.41725138454E+01 -0.18337483515E+02  0.63517188822E+00  0.18818584860E+02  0.25003868111E+00 0.  0.
        -13    1    4    4    0    0 -0.42264000422E+01  0.15027044463E+02  0.33784292494E+01  0.15971829319E+02  0.10500000000E+00 0.  1.
         13    1    4    4    0    0 -0.77385285830E+01  0.27024841698E+02  0.59896162973E+01  0.28742188884E+02  0.10500000000E+00 0. -1.
    3000001    1    5    5    0    0  0.64195473882E+01 -0.41126562596E+02 -0.13208379828E+02  0.43681415239E+02  0.10000000000E+01 0. -1.
        -13    1    6    6    0    0  0.26811191900E+01 -0.11527354290E+02  0.41818167094E+00  0.11842896518E+02  0.10500000000E+00 0.  1.
         13    1    6    6    0    0  0.14913946554E+01 -0.68101292257E+01  0.21699021728E+00  0.69756883419E+01  0.10500000000E+00 0. -1.
</event>
<event>
11    0  0.3448258E-009  0.9118800E+02  0.7816531E-02  0.1126479E+00
         25   -1    0    0    0    0  0.00000000000E+00  0.00000000000E+00  0.99999998245E-14  0.12500000000E+03  0.12500000000E+03 0.  0.
    3000001    1    3    3    0    0 -0.92153126331E+01 -0.57735470455E+01  0.21465889731E+02  0.24084024879E+02  0.10000000000E+01 0.  1.
    1000022    2    1    0    0    0 -0.15269043840E+02 -0.23905750569E+02  0.54787054887E+02  0.62499998320E+02  0.99999898376E+01 0.  0.
    3000022    2    3    3    0    0 -0.60537312074E+01 -0.18132203523E+02  0.33321165156E+02  0.38415973441E+02  0.25000391036E+00 0.  0.
    1000022    2    1    0    0    0  0.15269043840E+02  0.23905750569E+02 -0.54787054887E+02  0.62500001680E+02  0.10000010836E+02 0.  0.
    3000022    2    5    5    0    0  0.65047354648E+01  0.76223553244E+01 -0.29502393122E+02  0.31158716088E+02  0.25000830460E+00 0.  0.
        -13    1    4    4    0    0 -0.20490511925E+01 -0.62588133015E+01  0.11399565545E+02  0.13165579150E+02  0.10500000000E+00 0.  1.
         13    1    4    4    0    0 -0.40046800149E+01 -0.11873390222E+02  0.21921599611E+02  0.25250394292E+02  0.10500000000E+00 0. -1.
    3000001    1    5    5    0    0  0.87643083757E+01  0.16283395244E+02 -0.25284661765E+02  0.31341285592E+02  0.10000000000E+01 0.  1.
        -13    1    6    6    0    0  0.28310730565E+01  0.34147897685E+01 -0.13122034854E+02  0.13851880288E+02  0.10500000000E+00 0. -1.
         13    1    6    6    0    0  0.36736624082E+01  0.42075655559E+01 -0.16380358268E+02  0.17306835800E+02  0.10500000000E+00 0.  1.
</event>
<event>
11    0  0.3448258E-009  0.9118800E+02  0.7816531E-02  0.1126479E+00
         25   -1    0    0    0    0  0.00000000000E+00  0.00000000000E+00  0.99999998245E-14  0.12500000000E+03  0.12500000000E+03 0.  0.
    3000001    1    3    3    0    0 -0.22398844651E+02 -0.38767066132E+02  0.25784736019E+02  0.51676360841E+02  0.10000000000E+01 0.  1.
    1000022    2    1    0    0    0 -0.26763497229E+02 -0.48594748212E+02  0.26991029664E+02  0.62500000041E+02  0.99999992542E+01 0.  0.
    3000022    2    3    3    0    0 -0.43646525786E+01 -0.98276820793E+01  0.12062936452E+01  0.10823639200E+02  0.24998797650E+00 0.  0.
    1000022    2    1    0    0    0  0.26763497229E+02  0.48594748212E+02 -0.26991029664E+02  0.62499999959E+02  0.99999987419E+01 0.  0.
    3000022    2    5    5    0    0  0.22409742556E+02  0.31435787139E+02 -0.19496938867E+02  0.43250414984E+02  0.24999318314E+00 0.  0.
        -13    1    4    4    0    0 -0.22914378599E+01 -0.50452971717E+01  0.67123096480E+00  0.55827669685E+01  0.10500000000E+00 0.  1.
         13    1    4    4    0    0 -0.20732147188E+01 -0.47823849076E+01  0.53506268037E+00  0.52408722315E+01  0.10500000000E+00 0. -1.
    3000001    1    5    5    0    0  0.43537546732E+01  0.17158961072E+02 -0.74940907972E+01  0.19249584975E+02  0.10000000000E+01 0.  1.
        -13    1    6    6    0    0  0.13311347687E+02  0.18737614952E+02 -0.11550430330E+02  0.25723795542E+02  0.10500000000E+00 0. -1.
         13    1    6    6    0    0  0.90983948694E+01  0.12698172188E+02 -0.79465085375E+01  0.17526619441E+02  0.10500000000E+00 0.  1.
</event>
<event>
11    0  0.3448258E-009  0.9118800E+02  0.7816531E-02  0.1126479E+00
         25   -1    0    0    0    0  0.00000000000E+00  0.00000000000E+00  0.99999998245E-14  0.12500000000E+03  0.12500000000E+03 0.  0.
    3000001    1    3    3    0    0  0.24330361466E+02 -0.16571164946E+02 -0.17964734951E+02  0.34500749247E+02  0.10000000000E+01 0. -1.
    1000022    2    1    0    0    0  0.41953747501E+02 -0.36469991152E+02 -0.26759526758E+02  0.62499997136E+02  0.10000009283E+02 0.  0.
    3000022    2    3    3    0    0  0.17623386035E+02 -0.19898826206E+02 -0.87947918074E+01  0.27999247889E+02  0.24999940034E+00 0.  0.
    1000022    2    1    0    0    0 -0.41953747501E+02  0.36469991152E+02  0.26759526758E+02  0.62500002864E+02  0.10000045088E+02 0.  0.
    3000022    2    5    5    0    0 -0.51921869380E+01  0.17019429756E+01  0.52245075323E+00  0.54946200811E+01  0.24995990491E+00 0.  0.
        -13    1    4    4    0    0  0.53436336578E+01 -0.59639534341E+01 -0.26504062952E+01  0.84355699133E+01  0.10500000000E+00 0. -1.
         13    1    4    4    0    0  0.12279752377E+02 -0.13934872772E+02 -0.61443855122E+01  0.19563677976E+02  0.10500000000E+00 0.  1.
    3000001    1    5    5    0    0 -0.36761560563E+02  0.34768048176E+02  0.26237076005E+02  0.57005382783E+02  0.10000000000E+01 0.  1.
        -13    1    6    6    0    0 -0.32456425728E+01  0.11249489965E+01  0.31415302222E+00  0.34510031986E+01  0.10500000000E+00 0.  1.
         13    1    6    6    0    0 -0.19465443652E+01  0.57699397912E+00  0.20829773101E+00  0.20436168825E+01  0.10500000000E+00 0. -1.
</event>
<event>
11    0  0.3448258E-009  0.9118800E+02  0.7816531E-02  0.1126479E+00
         25   -1    0    0    0    0  0.00000000000E+00  0.00000000000E+00  0.99999998245E-14  0.12500000000E+03  0.12500000000E+03 0.  0.
    3000001    1    3    3    0    0 -0.17634555607E+02  0.31831096979E+02  0.48592610058E+02  0.60716044326E+02  0.10000000000E+01 0.  1.
    1000022    2    1    0    0    0 -0.18459235792E+02  0.31108706380E+02  0.49977546149E+02  0.62499998942E+02  0.99999875032E+01 0.  0.
    3000022    2    3    3    0    0 -0.82468018500E+00 -0.72239059895E+00  0.13849360907E+01  0.17839546162E+01  0.25000102488E+00 0.  0.
    1000022    2    1    0    0    0  0.18459235792E+02 -0.31108706380E+02 -0.49977546149E+02  0.62500001058E+02  0.10000000724E+02 0.  0.
    3000022    2    5    5    0    0  0.24311838207E+01 -0.10835250758E+02 -0.20251503719E+02  0.23097602002E+02  0.25000314816E+00 0.  0.
        -13    1    4    4    0    0 -0.35194981926E+00 -0.25008216867E+00  0.62072043372E+00  0.76336663747E+00  0.10500000000E+00 0. -1.
         13    1    4    4    0    0 -0.47273036574E+00 -0.47230843028E+00  0.76421565698E+00  0.10205879788E+01  0.10500000000E+00 0.  1.
    3000001    1    5    5    0    0  0.16028051971E+02 -0.20273455622E+02 -0.29726042430E+02  0.39402399056E+02  0.10000000000E+01 0.  1.
        -13    1    6    6    0    0  0.55892186127E+00 -0.24800007364E+01 -0.46433562970E+01  0.52947691168E+01  0.10500000000E+00 0.  1.
         13    1    6    6    0    0  0.18722619594E+01 -0.83552500220E+01 -0.15608147422E+02  0.17802832885E+02  0.10500000000E+00 0. -1.
</event>
<event>
11    0  0.3448258E-009  0.9118800E+02  0.7816531E-02  0.1126479E+00
         25   -1    0    0    0    0  0.00000000000E+00  0.00000000000E+00  0.99999998245E-14  0.12500000000E+03  0.12500000000E+03 0.  0.
    3000001    1    3    3    0    0 -0.53562923804E+01 -0.15365374297E+02  0.13613958402E+02  0.21239690646E+02  0.10000000000E+01 0.  1.
    1000022    2    1    0    0    0 -0.74828556935E+01 -0.37839607498E+02  0.48149985068E+02  0.62499999256E+02  0.99999909985E+01 0.  0.
    3000022    2    3    3    0    0 -0.21265633131E+01 -0.22474233201E+02  0.34536026666E+02  0.41260308610E+02  0.24999844724E+00 0.  0.
    1000022    2    1    0    0    0  0.74828556935E+01  0.37839607498E+02 -0.48149985068E+02  0.62500000744E+02  0.10000000303E+02 0.  0.
    3000022    2    5    5    0    0  0.97412746850E+01  0.29986475467E+02 -0.39777280961E+02  0.50758011428E+02  0.25000013280E+00 0.  0.
        -13    1    4    4    0    0 -0.12039012487E+01 -0.13263602665E+02  0.20303500912E+02  0.24282003792E+02  0.10500000000E+00 0.  1.
         13    1    4    4    0    0 -0.92266206444E+00 -0.92106305364E+01  0.14232525753E+02  0.16978304818E+02  0.10500000000E+00 0. -1.
    3000001    1    5    5    0    0 -0.22584189915E+01  0.78531320313E+01 -0.83727041074E+01  0.11741989317E+02  0.10000000000E+01 0.  1.
        -13    1    6    6    0    0  0.46893648211E+01  0.14652270442E+02 -0.19424514851E+02  0.24779063214E+02  0.10500000000E+00 0.  1.
         13    1    6    6    0    0  0.50519098639E+01  0.15334205025E+02 -0.20352766109E+02  0.25978948214E+02  0.10500000000E+00 0. -1.
</event>
<event>
11    0  0.3448258E-009  0.9118800E+02  0.7816531E-02  0.1126479E+00
         25   -1    0    0    0    0  0.00000000000E+00  0.00000000000E+00  0.99999998245E-14  0.12500000000E+03  0.12500000000E+03 0.  0.
    3000001    1    3    3    0    0 -0.37878135538E+02 -0.16954921243E+02 -0.20332438843E+02  0.46223701448E+02  0.10000000000E+01 0.  1.
    1000022    2    1    0    0    0 -0.52947679789E+02 -0.22905771463E+02 -0.21865933173E+02  0.62499999698E+02  0.99999883657E+01 0.  0.
    3000022    2    3    3    0    0 -0.15069544251E+02 -0.59508502198E+01 -0.15334943304E+01  0.16276298250E+02  0.24999519881E+00 0.  0.
    1000022    2    1    0    0    0  0.52947679789E+02  0.22905771463E+02  0.21865933173E+02  0.62500000302E+02  0.99999921452E+01 0.  0.
    3000022    2    5    5    0    0  0.17778135425E+02  0.44616661263E+01  0.10742628710E+02  0.21247003143E+02  0.25001429512E+00 0.  0.
        -13    1    4    4    0    0 -0.10195409661E+02 -0.40811650057E+01 -0.10395626211E+01  0.11031500415E+02  0.10500000000E+00 0.  1.
         13    1    4    4    0    0 -0.48741345897E+01 -0.18696852142E+01 -0.49393170930E+00  0.52447978352E+01  0.10500000000E+00 0. -1.
    3000001    1    5    5    0    0  0.35169544364E+02  0.18444105336E+02  0.11123304463E+02  0.41252997159E+02  0.10000000000E+01 0.  1.
        -13    1    6    6    0    0  0.92206366089E+01  0.22510657039E+01  0.55964522329E+01  0.11019017146E+02  0.10500000000E+00 0.  1.
         13    1    6    6    0    0  0.85574988158E+01  0.22106004224E+01  0.51461764773E+01  0.10227985997E+02  0.10500000000E+00 0. -1.
</event>
<event>
11    0  0.3448258E-009  0.9118800E+02  0.7816531E-02  0.1126479E+00
         25   -1    0    0    0    0  0.00000000000E+00  0.00000000000E+00  0.99999998245E-14  0.12500000000E+03  0.12500000000E+03 0.  0.
    3000001    1    3    3    0    0 -0.38952979136E+01 -0.15816885732E+02  0.83668998521E+01  0.18339908212E+02  0.10000000000E+01 0.  1.
    1000022    2    1    0    0    0  0.19515228534E+01 -0.54623966744E+02  0.28612301048E+02  0.62499999267E+02  0.99999976438E+01 0.  0.
    3000022    2    3    3    0    0  0.58468207670E+01 -0.38807081012E+02  0.20245401196E+02  0.44160091055E+02  0.25004535450E+00 0.  0.
    1000022    2    1    0    0    0 -0.19515228534E+01  0.54623966744E+02 -0.28612301048E+02  0.62500000733E+02  0.10000006804E+02 0.  0.
    3000022    2    5    5    0    0 -0.37305240674E+01  0.12511537119E+02 -0.98256693273E+01  0.16342020864E+02  0.24999454564E+00 0.  0.
        -13    1    4    4    0    0  0.27610027858E+01 -0.18748886670E+02  0.98040842322E+01  0.21337173674E+02  0.10500000000E+00 0. -1.
         13    1    4    4    0    0  0.30858179812E+01 -0.20058194342E+02  0.10441316963E+02  0.22822917382E+02  0.10500000000E+00 0.  1.
    3000001    1    5    5    0    0  0.17790012140E+01  0.42112429625E+02 -0.18786631720E+02  0.46157979869E+02  0.10000000000E+01 0.  1.
        -13    1    6    6    0    0 -0.97884019695E+00  0.31920402105E+01 -0.25311074036E+01  0.41910354956E+01  0.10500000000E+00 0. -1.
         13    1    6    6    0    0 -0.27516838705E+01  0.93194969088E+01 -0.72945619238E+01  0.12150985368E+02  0.10500000000E+00 0.  1.
</event>
<event>
11    0  0.3448258E-009  0.9118800E+02  0.7816531E-02  0.1126479E+00
         25   -1    0    0    0    0  0.00000000000E+00  0.00000000000E+00  0.99999998245E-14  0.12500000000E+03  0.12500000000E+03 0.  0.
    3000001    1    3    3    0    0 -0.17856533084E+02  0.23526245618E+02  0.13335799591E+02  0.32421961036E+02  0.10000000000E+01 0.  1.
    1000022    2    1    0    0    0 -0.39132278216E+02  0.37790593590E+02  0.29099586051E+02  0.62499999772E+02  0.99999950433E+01 0.  0.
    3000022    2    3    3    0    0 -0.21275745132E+02  0.14264347973E+02  0.15763786459E+02  0.30078038737E+02  0.24999336204E+00 0.  0.
    1000022    2    1    0    0    0  0.39132278216E+02 -0.37790593590E+02 -0.29099586051E+02  0.62500000228E+02  0.99999978915E+01 0.  0.
    3000022    2    5    5    0    0  0.34656749195E+02 -0.35109012097E+02 -0.23061355162E+02  0.54457521034E+02  0.24999999006E+00 0.  0.
        -13    1    4    4    0    0 -0.15446929161E+02  0.10395779828E+02  0.11478978896E+02  0.21873679166E+02  0.10500000000E+00 0. -1.
         13    1    4    4    0    0 -0.58288159712E+01  0.38685681443E+01  0.42848075635E+01  0.82043595709E+01  0.10500000000E+00 0.  1.
    3000001    1    5    5    0    0  0.44755290209E+01 -0.26815814934E+01 -0.60382308888E+01  0.80424791942E+01  0.10000000000E+01 0.  1.
        -13    1    6    6    0    0  0.81423596209E+01 -0.82341770699E+01 -0.54024529998E+01  0.12778779896E+02  0.10500000000E+00 0.  1.
         13    1    6    6    0    0  0.26514389575E+02 -0.26874835027E+02 -0.17658902162E+02  0.41678741138E+02  0.10500000000E+00 0. -1.
</event>
<event>
11    0  0.3448258E-009  0.9118800E+02  0.7816531E-02  0.1126479E+00
         25   -1    0    0    0    0  0.00000000000E+00  0.00000000000E+00  0.99999998245E-14  0.12500000000E+03  0.12500000000E+03 0.  0.
    3000001    1    3    3    0    0  0.10722235623E+02  0.17884214714E+02  0.14697482251E+02  0.25530911798E+02  0.10000000000E+01 0.  1.
    1000022    2    1    0    0    0  0.14826165425E+02  0.46611886586E+02  0.37600092851E+02  0.62499999403E+02  0.99999895284E+01 0.  0.
    3000022    2    3    3    0    0  0.41039298016E+01  0.28727671872E+02  0.22902610601E+02  0.36969087605E+02  0.24999004967E+00 0.  0.
    1000022    2    1    0    0    0 -0.14826165425E+02 -0.46611886586E+02 -0.37600092851E+02  0.62500000597E+02  0.99999969951E+01 0.  0.
    3000022    2    5    5    0    0 -0.56506249029E+01 -0.24034408919E+02 -0.13194204713E+02  0.27995212270E+02  0.24999630539E+00 0.  0.
        -13    1    4    4    0    0  0.12424180996E+01  0.87654864695E+01  0.70461628498E+01  0.11315334360E+02  0.10500000000E+00 0. -1.
         13    1    4    4    0    0  0.28615117020E+01  0.19962185402E+02  0.15856447751E+02  0.25653753244E+02  0.10500000000E+00 0.  1.
    3000001    1    5    5    0    0 -0.91755405222E+01 -0.22577477667E+02 -0.24405888139E+02  0.34504788328E+02  0.10000000000E+01 0.  1.
        -13    1    6    6    0    0 -0.26430426679E+01 -0.11506696601E+02 -0.62752854730E+01  0.13370862874E+02  0.10500000000E+00 0.  1.
         13    1    6    6    0    0 -0.30075822350E+01 -0.12527712318E+02 -0.69189192396E+01  0.14624349396E+02  0.10500000000E+00 0. -1.
</event>
<event>
11    0  0.3448258E-009  0.9118800E+02  0.7816531E-02  0.1126479E+00
         25   -1    0    0    0    0  0.00000000000E+00  0.00000000000E+00  0.99999998245E-14  0.12500000000E+03  0.12500000000E+03 0.  0.
    3000001    1    3    3    0    0  0.42869781273E+02  0.15860632081E+02 -0.18775581522E+02  0.49425704425E+02  0.10000000000E+01 0.  1.
    1000022    2    1    0    0    0  0.53362832319E+02  0.15894581479E+02 -0.26571074292E+02  0.62500010776E+02  0.99999882288E+01 0.  0.
    3000022    2    3    3    0    0  0.10493051045E+02  0.33949397906E-01 -0.77954927692E+01  0.13074306351E+02  0.25001249195E+00 0.  0.
    1000022    2    1    0    0    0 -0.53362832319E+02 -0.15894581479E+02  0.26571074292E+02  0.62499989224E+02  0.99998535224E+01 0.  0.
    3000022    2    5    5    0    0 -0.74228697592E+01 -0.55788510449E-01  0.66591059072E+01  0.99753853926E+01  0.25002884998E+00 0.  0.
        -13    1    4    4    0    0  0.25413218867E+01  0.17112223441E-01 -0.18651839564E+01  0.31541315685E+01  0.10500000000E+00 0. -1.
         13    1    4    4    0    0  0.79517291587E+01  0.16837174465E-01 -0.59303088128E+01  0.99201747827E+01  0.10500000000E+00 0.  1.
    3000001    1    5    5    0    0 -0.45939962560E+02 -0.15838792968E+02  0.19911968384E+02  0.52524603831E+02  0.10000000000E+01 0.  1.
        -13    1    6    6    0    0 -0.46689468668E+01 -0.94774400702E-01  0.41896956936E+01  0.62747607155E+01  0.10500000000E+00 0.  1.
         13    1    6    6    0    0 -0.27539228924E+01  0.38985890253E-01  0.24694102137E+01  0.37006246771E+01  0.10500000000E+00 0. -1.
</event>
<event>
11    0  0.3448258E-009  0.9118800E+02  0.7816531E-02  0.1126479E+00
         25   -1    0    0    0    0  0.00000000000E+00  0.00000000000E+00  0.99999998245E-14  0.12500000000E+03  0.12500000000E+03 0.  0.
    3000001    1    3    3    0    0 -0.32603488437E+02  0.26716689805E+01 -0.23141257284E+02  0.40082952263E+02  0.10000000000E+01 0. -1.
    1000022    2    1    0    0    0 -0.45788165071E+02  0.69086318139E+01 -0.40767202188E+02  0.62499999052E+02  0.99999926589E+01 0.  0.
    3000022    2    3    3    0    0 -0.13184676634E+02  0.42369628334E+01 -0.17625944904E+02  0.22417046789E+02  0.25000202310E+00 0.  0.
    1000022    2    1    0    0    0  0.45788165071E+02 -0.69086318139E+01  0.40767202188E+02  0.62500000948E+02  0.10000004512E+02 0.  0.
    3000022    2    5    5    0    0  0.32419838443E+02 -0.73457917519E+01  0.23862234435E+02  0.40920353121E+02  0.24997233748E+00 0.  0.
        -13    1    4    4    0    0 -0.82860755155E+01  0.27170794593E+01 -0.11145566877E+02  0.14151899316E+02  0.10500000000E+00 0. -1.
         13    1    4    4    0    0 -0.48986011181E+01  0.15198833741E+01 -0.64803780263E+01  0.82651474729E+01  0.10500000000E+00 0.  1.
    3000001    1    5    5    0    0  0.13368326628E+02  0.43715993809E+00  0.16904967753E+02  0.21579647827E+02  0.10000000000E+01 0. -1.
        -13    1    6    6    0    0  0.16313706916E+02 -0.36269982152E+01  0.12000938071E+02  0.20574880048E+02  0.10500000000E+00 0.  1.
         13    1    6    6    0    0  0.16106131527E+02 -0.37187935367E+01  0.11861296364E+02  0.20345473073E+02  0.10500000000E+00 0. -1.
</event>
<event>
11    0  0.3448258E-009  0.9118800E+02  0.7816531E-02  0.1126479E+00
         25   -1    0    0    0    0  0.00000000000E+00  0.00000000000E+00  0.99999998245E-14  0.12500000000E+03  0.12500000000E+03 0.  0.
    3000001    1    3    3    0    0  0.28859404504E+01 -0.61940440680E+01  0.25872718367E+00  0.69109893616E+01  0.10000000000E+01 0.  1.
    1000022    2    1    0    0    0  0.61648753319E+00 -0.61501335531E+02 -0.48431013305E+01  0.62499999622E+02  0.99999996685E+01 0.  0.
    3000022    2    3    3    0    0 -0.22694529172E+01 -0.55307291463E+02 -0.51018285141E+01  0.55589010261E+02  0.25000423355E+00 0.  0.
    1000022    2    1    0    0    0 -0.61648753319E+00  0.61501335531E+02  0.48431013305E+01  0.62500000378E+02  0.10000004389E+02 0.  0.
    3000022    2    5    5    0    0  0.14160719403E+01  0.55990085959E+02  0.23999092922E+01  0.56059941590E+02  0.25000202059E+00 0.  0.
        -13    1    4    4    0    0 -0.11865909920E+01 -0.28062577937E+02 -0.26470504834E+01  0.28212305470E+02  0.10500000000E+00 0.  1.
         13    1    4    4    0    0 -0.10828619253E+01 -0.27244713525E+02 -0.24547780307E+01  0.27376704791E+02  0.10500000000E+00 0. -1.
    3000001    1    5    5    0    0 -0.20325594735E+01  0.55112495712E+01  0.24431920383E+01  0.64400587874E+01  0.10000000000E+01 0. -1.
        -13    1    6    6    0    0  0.83728467009E+00  0.32312234970E+02  0.14469357300E+01  0.32355621187E+02  0.10500000000E+00 0.  1.
         13    1    6    6    0    0  0.57878727022E+00  0.23677850989E+02  0.95297356221E+00  0.23704320404E+02  0.10500000000E+00 0. -1.
</event>
<event>
11    0  0.3448258E-009  0.9118800E+02  0.7816531E-02  0.1126479E+00
         25   -1    0    0    0    0  0.00000000000E+00  0.00000000000E+00  0.99999998245E-14  0.12500000000E+03  0.12500000000E+03 0.  0.
    3000001    1    3    3    0    0  0.79517512986E+00  0.76966947484E+01  0.20057773586E+02  0.21521749342E+02  0.10000000000E+01 0. -1.
    1000022    2    1    0    0    0  0.46963901611E+01  0.92221803906E+01  0.60820605173E+02  0.62500006077E+02  0.10000002716E+02 0.  0.
    3000022    2    3    3    0    0  0.39012150312E+01  0.15254856422E+01  0.40762831587E+02  0.40978256735E+02  0.25000168546E+00 0.  0.
    1000022    2    1    0    0    0 -0.46963901611E+01 -0.92221803906E+01 -0.60820605173E+02  0.62499993923E+02  0.99999267504E+01 0.  0.
    3000022    2    5    5    0    0 -0.52196064755E+01 -0.13484967472E+00 -0.21199205105E+02  0.21834176849E+02  0.25001085945E+00 0.  0.
        -13    1    4    4    0    0  0.29168028214E+01  0.11646338006E+01  0.30668437032E+02  0.30829014995E+02  0.10500000000E+00 0.  1.
         13    1    4    4    0    0  0.98441220984E+00  0.36085184161E+00  0.10094394555E+02  0.10149241739E+02  0.10500000000E+00 0. -1.
    3000001    1    5    5    0    0  0.52321631445E+00 -0.90873307158E+01 -0.39621400069E+02  0.40665817073E+02  0.10000000000E+01 0. -1.
        -13    1    6    6    0    0 -0.26733894659E+01 -0.12242789450E+00 -0.11037394348E+02  0.11357688973E+02  0.10500000000E+00 0. -1.
         13    1    6    6    0    0 -0.25462170096E+01 -0.12421780218E-01 -0.10161810757E+02  0.10476487876E+02  0.10500000000E+00 0.  1.
</event>
<event>
11    0  0.3448258E-009  0.9118800E+02  0.7816531E-02  0.1126479E+00
         25   -1    0    0    0    0  0.00000000000E+00  0.00000000000E+00  0.99999998245E-14  0.12500000000E+03  0.12500000000E+03 0.  0.
    3000001    1    3    3    0    0  0.33269929318E+01 -0.14746304596E+00 -0.30014395111E+01  0.45933937842E+01  0.10000000000E+01 0.  1.
    1000022    2    1    0    0    0  0.29019068663E+02  0.25811455608E+02 -0.47936549097E+02  0.62499997726E+02  0.99999694837E+01 0.  0.
    3000022    2    3    3    0    0  0.25692075732E+02  0.25958918654E+02 -0.44935109586E+02  0.57906603942E+02  0.24998688768E+00 0.  0.
    1000022    2    1    0    0    0 -0.29019068663E+02 -0.25811455608E+02  0.47936549097E+02  0.62500002274E+02  0.99999979106E+01 0.  0.
    3000022    2    5    5    0    0 -0.18549839501E+02 -0.12060083508E+02  0.32424871953E+02  0.39255279825E+02  0.25002653888E+00 0.  0.
        -13    1    4    4    0    0  0.59330551372E+01  0.59839467579E+01 -0.10362979488E+02  0.13357062961E+02  0.10500000000E+00 0. -1.
         13    1    4    4    0    0  0.19759020594E+02  0.19974971896E+02 -0.34572130098E+02  0.44549540981E+02  0.10500000000E+00 0.  1.
    3000001    1    5    5    0    0 -0.10469229162E+02 -0.13751372100E+02  0.15511677145E+02  0.23244722449E+02  0.10000000000E+01 0.  1.
        -13    1    6    6    0    0 -0.64799898100E+01 -0.41992343200E+01  0.11414533208E+02  0.13781379835E+02  0.10500000000E+00 0. -1.
         13    1    6    6    0    0 -0.12069849691E+02 -0.78608491879E+01  0.21010338745E+02  0.25473899990E+02  0.10500000000E+00 0.  1.
</event>
<event>
11    0  0.3448258E-009  0.9118800E+02  0.7816531E-02  0.1126479E+00
         25   -1    0    0    0    0  0.00000000000E+00  0.00000000000E+00  0.99999998245E-14  0.12500000000E+03  0.12500000000E+03 0.  0.
    3000001    1    3    3    0    0 -0.74545218502E+01  0.49374851019E+02 -0.11065928573E+02  0.51155650561E+02  0.10000000000E+01 0.  1.
    1000022    2    1    0    0    0 -0.10893193271E+02  0.58213220770E+02 -0.17286099481E+02  0.62500000125E+02  0.10000002414E+02 0.  0.
    3000022    2    3    3    0    0 -0.34386714212E+01  0.88383697514E+01 -0.62201709078E+01  0.11344349564E+02  0.24999980103E+00 0.  0.
    1000022    2    1    0    0    0  0.10893193271E+02 -0.58213220770E+02  0.17286099481E+02  0.62499999875E+02  0.10000000851E+02 0.  0.
    3000022    2    5    5    0    0  0.11151383562E+02 -0.33499014183E+02  0.10937057347E+02  0.36962400037E+02  0.24997303848E+00 0.  0.
        -13    1    4    4    0    0 -0.16883176034E+01  0.44822018885E+01 -0.30888143329E+01  0.57002060561E+01  0.10500000000E+00 0. -1.
         13    1    4    4    0    0 -0.17503538178E+01  0.43561678629E+01 -0.31313565748E+01  0.56441435077E+01  0.10500000000E+00 0.  1.
    3000001    1    5    5    0    0 -0.25819029048E+00 -0.24714206587E+02  0.63490421341E+01  0.25537599838E+02  0.10000000000E+01 0. -1.
        -13    1    6    6    0    0  0.65801259810E+01 -0.19778199918E+02  0.65237594223E+01  0.21841376146E+02  0.10500000000E+00 0.  1.
         13    1    6    6    0    0  0.45712575809E+01 -0.13720814265E+02  0.44132979243E+01  0.15121023892E+02  0.10500000000E+00 0. -1.
</event>
<event>
11    0  0.3448258E-009  0.9118800E+02  0.7816531E-02  0.1126479E+00
         25   -1    0    0    0    0  0.00000000000E+00  0.00000000000E+00  0.99999998245E-14  0.12500000000E+03  0.12500000000E+03 0.  0.
    3000001    1    3    3    0    0  0.36274421837E+02  0.16958421360E+02  0.23264212000E+02  0.46321110680E+02  0.10000000000E+01 0.  1.
    1000022    2    1    0    0    0  0.47468535735E+02  0.27555296228E+02  0.28172572540E+02  0.62499999558E+02  0.99999933047E+01 0.  0.
    3000022    2    3    3    0    0  0.11194113898E+02  0.10596874868E+02  0.49083605404E+01  0.16178888878E+02  0.24999837119E+00 0.  0.
    1000022    2    1    0    0    0 -0.47468535735E+02 -0.27555296228E+02 -0.28172572540E+02  0.62500000442E+02  0.99999988349E+01 0.  0.
    3000022    2    5    5    0    0 -0.23078779975E+02 -0.86486824571E+01 -0.94863691674E+01  0.26409912789E+02  0.25000033644E+00 0.  0.
        -13    1    4    4    0    0  0.56490301452E+01  0.54041529521E+01  0.24326984709E+01  0.81881290636E+01  0.10500000000E+00 0. -1.
         13    1    4    4    0    0  0.55450837525E+01  0.51927219163E+01  0.24756620695E+01  0.79907598140E+01  0.10500000000E+00 0.  1.
    3000001    1    5    5    0    0 -0.24389755760E+02 -0.18906613771E+02 -0.18686203373E+02  0.36090087653E+02  0.10000000000E+01 0.  1.
        -13    1    6    6    0    0 -0.15078040985E+02 -0.57080239004E+01 -0.62207724151E+01  0.17281142648E+02  0.10500000000E+00 0.  1.
         13    1    6    6    0    0 -0.80007389900E+01 -0.29406585566E+01 -0.32655967523E+01  0.91287701407E+01  0.10500000000E+00 0. -1.
</event>
<event>
11    0  0.3448258E-009  0.9118800E+02  0.7816531E-02  0.1126479E+00
         25   -1    0    0    0    0  0.00000000000E+00  0.00000000000E+00  0.99999998245E-14  0.12500000000E+03  0.12500000000E+03 0.  0.
    3000001    1    3    3    0    0 -0.65808596499E+01  0.20471343872E+02 -0.10137314132E+02  0.23793880967E+02  0.10000000000E+01 0. -1.
    1000022    2    1    0    0    0 -0.48202542682E+01  0.55457040158E+02 -0.26599464799E+02  0.62499999067E+02  0.10000010078E+02 0.  0.
    3000022    2    3    3    0    0  0.17606053817E+01  0.34985696285E+02 -0.16462150667E+02  0.38706118100E+02  0.24999582718E+00 0.  0.
    1000022    2    1    0    0    0  0.48202542682E+01 -0.55457040158E+02  0.26599464799E+02  0.62500000933E+02  0.10000021736E+02 0.  0.
    3000022    2    5    5    0    0  0.66300904380E+01 -0.34377278870E+02  0.13096044156E+02  0.37380800867E+02  0.24999828648E+00 0.  0.
        -13    1    4    4    0    0  0.99488909407E+00  0.20950679072E+02 -0.98805317051E+01  0.23185268807E+02  0.10500000000E+00 0. -1.
         13    1    4    4    0    0  0.76571628759E+00  0.14035017213E+02 -0.65816189622E+01  0.15520849293E+02  0.10500000000E+00 0.  1.
    3000001    1    5    5    0    0 -0.18098361698E+01 -0.21079761287E+02  0.13503420643E+02  0.25119200066E+02  0.10000000000E+01 0. -1.
        -13    1    6    6    0    0  0.38157993335E+01 -0.19981685219E+02  0.75527686388E+01  0.21699848107E+02  0.10500000000E+00 0. -1.
         13    1    6    6    0    0  0.28142911046E+01 -0.14395593651E+02  0.55432755169E+01  0.15680952759E+02  0.10500000000E+00 0.  1.
</event>
<event>
11    0  0.3448258E-009  0.9118800E+02  0.7816531E-02  0.1126479E+00
         25   -1    0    0    0    0  0.00000000000E+00  0.00000000000E+00  0.99999998245E-14  0.12500000000E+03  0.12500000000E+03 0.  0.
    3000001    1    3    3    0    0  0.38268665077E+02  0.16329432773E+02 -0.24221176024E+02  0.48153987057E+02  0.10000000000E+01 0. -1.
    1000022    2    1    0    0    0  0.52005129496E+02  0.19515261643E+02 -0.26849038938E+02  0.62500001201E+02  0.10000016367E+02 0.  0.
    3000022    2    3    3    0    0  0.13736464419E+02  0.31858288700E+01 -0.26278629134E+01  0.14346014144E+02  0.24999602143E+00 0.  0.
    1000022    2    1    0    0    0 -0.52005129496E+02 -0.19515261643E+02  0.26849038938E+02  0.62499998799E+02  0.10000001356E+02 0.  0.
    3000022    2    5    5    0    0 -0.17574368485E+02 -0.11461627300E+02  0.11632866839E+02  0.23991944794E+02  0.24999218281E+00 0.  0.
        -13    1    4    4    0    0  0.83281681958E+01  0.19035279268E+01 -0.16491111312E+01  0.87012870651E+01  0.10500000000E+00 0. -1.
         13    1    4    4    0    0  0.54082962229E+01  0.12823009432E+01 -0.97875178226E+00  0.56447270788E+01  0.10500000000E+00 0.  1.
    3000001    1    5    5    0    0 -0.34430761011E+02 -0.80536343426E+01  0.15216172098E+02  0.38508054005E+02  0.10000000000E+01 0. -1.
        -13    1    6    6    0    0 -0.10770614388E+02 -0.70977233798E+01  0.71519795461E+01  0.14749428731E+02  0.10500000000E+00 0. -1.
         13    1    6    6    0    0 -0.68037540969E+01 -0.43639039202E+01  0.44808872934E+01  0.92425160628E+01  0.10500000000E+00 0.  1.
</event>
<event>
11    0  0.3448258E-009  0.9118800E+02  0.7816531E-02  0.1126479E+00
         25   -1    0    0    0    0  0.00000000000E+00  0.00000000000E+00  0.99999998245E-14  0.12500000000E+03  0.12500000000E+03 0.  0.
    3000001    1    3    3    0    0 -0.95503395373E+01  0.13519078081E+01 -0.13605510229E+00  0.96982034929E+01  0.10000000000E+01 0.  1.
    1000022    2    1    0    0    0 -0.57686276613E+02  0.56373591232E+01  0.21136777674E+02  0.62499997430E+02  0.99999990478E+01 0.  0.
    3000022    2    3    3    0    0 -0.48135937076E+02  0.42854513151E+01  0.21272832776E+02  0.52801793937E+02  0.24999503710E+00 0.  0.
    1000022    2    1    0    0    0  0.57686276613E+02 -0.56373591232E+01 -0.21136777674E+02  0.62500002570E+02  0.10000031169E+02 0.  0.
    3000022    2    5    5    0    0  0.40503550871E+02 -0.72829265098E+01 -0.11616362732E+02  0.42761911056E+02  0.25000454595E+00 0.  0.
        -13    1    4    4    0    0 -0.33058073601E+02  0.28953849210E+01  0.14593522213E+02  0.36251915806E+02  0.10500000000E+00 0.  1.
         13    1    4    4    0    0 -0.15077863475E+02  0.13900663941E+01  0.66793105636E+01  0.16549878131E+02  0.10500000000E+00 0. -1.
    3000001    1    5    5    0    0  0.17182725742E+02  0.16455673866E+01 -0.95204149420E+01  0.19738091514E+02  0.10000000000E+01 0.  1.
        -13    1    6    6    0    0  0.26223579852E+02 -0.46842947409E+01 -0.75692835552E+01  0.27693389753E+02  0.10500000000E+00 0. -1.
         13    1    6    6    0    0  0.14279971019E+02 -0.25986317689E+01 -0.40470791768E+01  0.15068521302E+02  0.10500000000E+00 0.  1.
</event>
<event>
11    0  0.3448258E-009  0.9118800E+02  0.7816531E-02  0.1126479E+00
         25   -1    0    0    0    0  0.00000000000E+00  0.00000000000E+00  0.99999998245E-14  0.12500000000E+03  0.12500000000E+03 0.  0.
    3000001    1    3    3    0    0  0.19242984777E+02  0.12518911644E+02 -0.15482895872E+02  0.27708043534E+02  0.10000000000E+01 0. -1.
    1000022    2    1    0    0    0  0.38488593284E+02  0.37202171263E+02 -0.30673713860E+02  0.62499999568E+02  0.99999932220E+01 0.  0.
    3000022    2    3    3    0    0  0.19245608507E+02  0.24683259619E+02 -0.15190817988E+02  0.34791956035E+02  0.25000274808E+00 0.  0.
    1000022    2    1    0    0    0 -0.38488593284E+02 -0.37202171263E+02  0.30673713860E+02  0.62500000432E+02  0.99999986172E+01 0.  0.
    3000022    2    5    5    0    0 -0.18471375695E+02 -0.11136658378E+02  0.12558607793E+02  0.24959928112E+02  0.25000351551E+00 0.  0.
        -13    1    4    4    0    0  0.74025930815E+01  0.95360920524E+01 -0.57970763541E+01  0.13392257286E+02  0.10500000000E+00 0. -1.
         13    1    4    4    0    0  0.11843015426E+02  0.15147167566E+02 -0.93937416337E+01  0.21399698749E+02  0.10500000000E+00 0.  1.
    3000001    1    5    5    0    0 -0.20017217589E+02 -0.26065512885E+02  0.18115106067E+02  0.37540072320E+02  0.10000000000E+01 0. -1.
        -13    1    6    6    0    0 -0.12193195216E+02 -0.73419227125E+01  0.82242626453E+01  0.16438593606E+02  0.10500000000E+00 0. -1.
         13    1    6    6    0    0 -0.62781804796E+01 -0.37947356654E+01  0.43343451477E+01  0.85213345061E+01  0.10500000000E+00 0.  1.
</event>
<event>
11    0  0.3448258E-009  0.9118800E+02  0.7816531E-02  0.1126479E+00
         25   -1    0    0    0    0  0.00000000000E+00  0.00000000000E+00  0.99999998245E-14  0.12500000000E+03  0.12500000000E+03 0.  0.
    3000001    1    3    3    0    0  0.85031460465E+01 -0.46707322805E+02 -0.27451756061E+02  0.54849579826E+02  0.10000000000E+01 0. -1.
    1000022    2    1    0    0    0  0.91726393974E+01 -0.54317194838E+02 -0.27780479403E+02  0.62500000262E+02  0.10000001416E+02 0.  0.
    3000022    2    3    3    0    0  0.66949335086E+00 -0.76098720331E+01 -0.32872334254E+00  0.76504204361E+01  0.25000021159E+00 0.  0.
    1000022    2    1    0    0    0 -0.91726393974E+01  0.54317194838E+02  0.27780479403E+02  0.62499999738E+02  0.99999981356E+01 0.  0.
    3000022    2    5    5    0    0 -0.20016448085E+01  0.33057870956E+02  0.12815581259E+02  0.35512406444E+02  0.24994866028E+00 0.  0.
        -13    1    4    4    0    0  0.15915965174E+00 -0.19075625513E+01 -0.10780273424E+00  0.19200971620E+01  0.10500000000E+00 0. -1.
         13    1    4    4    0    0  0.51033369912E+00 -0.57023094818E+01 -0.22092060830E+00  0.57303232742E+01  0.10500000000E+00 0.  1.
    3000001    1    5    5    0    0 -0.71709945889E+01  0.21259323882E+02  0.14964898145E+02  0.26987593294E+02  0.10000000000E+01 0.  1.
        -13    1    6    6    0    0 -0.13500509399E+01  0.23049677694E+02  0.89241334209E+01  0.24754019101E+02  0.10500000000E+00 0. -1.
         13    1    6    6    0    0 -0.65159386866E+00  0.10008193263E+02  0.38914478377E+01  0.10758387343E+02  0.10500000000E+00 0.  1.
</event>
<event>
11    0  0.3448258E-009  0.9118800E+02  0.7816531E-02  0.1126479E+00
         25   -1    0    0    0    0  0.00000000000E+00  0.00000000000E+00  0.99999998245E-14  0.12500000000E+03  0.12500000000E+03 0.  0.
    3000001    1    3    3    0    0 -0.14610251780E+02  0.21092233465E+01 -0.95056585690E+01  0.17585955334E+02  0.10000000000E+01 0.  1.
    1000022    2    1    0    0    0 -0.42678805998E+02  0.18114221180E+02 -0.40701899199E+02  0.62500002144E+02  0.10000008961E+02 0.  0.
    3000022    2    3    3    0    0 -0.28068554218E+02  0.16004997833E+02 -0.31196240630E+02  0.44914046809E+02  0.24995961554E+00 0.  0.
    1000022    2    1    0    0    0  0.42678805998E+02 -0.18114221180E+02  0.40701899199E+02  0.62499997856E+02  0.99999821657E+01 0.  0.
    3000022    2    5    5    0    0  0.36481890202E+02 -0.13905416458E+02  0.29272227664E+02  0.48797691702E+02  0.24996683000E+00 0.  0.
        -13    1    4    4    0    0 -0.11681616844E+02  0.66920229857E+01 -0.13079757353E+02  0.18770573277E+02  0.10500000000E+00 0.  1.
         13    1    4    4    0    0 -0.16386937374E+02  0.93129748474E+01 -0.18116483277E+02  0.26143473532E+02  0.10500000000E+00 0. -1.
    3000001    1    5    5    0    0  0.61969157957E+01 -0.42088047218E+01  0.11429671535E+02  0.13702306155E+02  0.10000000000E+01 0.  1.
        -13    1    6    6    0    0  0.18281362908E+02 -0.70221695790E+01  0.14739488179E+02  0.24510867633E+02  0.10500000000E+00 0.  1.
         13    1    6    6    0    0  0.18200527294E+02 -0.68832468788E+01  0.14532739486E+02  0.24286824068E+02  0.10500000000E+00 0. -1.
</event>
<event>
11    0  0.3448258E-009  0.9118800E+02  0.7816531E-02  0.1126479E+00
         25   -1    0    0    0    0  0.00000000000E+00  0.00000000000E+00  0.99999998245E-14  0.12500000000E+03  0.12500000000E+03 0.  0.
    3000001    1    3    3    0    0  0.19292454210E+02 -0.75820751292E+00 -0.75692507971E+01  0.20762158503E+02  0.10000000000E+01 0.  1.
    1000022    2    1    0    0    0  0.55544739312E+02  0.11355344037E+02 -0.24332861649E+02  0.62500000528E+02  0.10000000328E+02 0.  0.
    3000022    2    3    3    0    0  0.36252285103E+02  0.12113551550E+02 -0.16763610852E+02  0.41737842026E+02  0.25000370678E+00 0.  0.
    1000022    2    1    0    0    0 -0.55544739312E+02 -0.11355344037E+02  0.24332861649E+02  0.62499999472E+02  0.99999937233E+01 0.  0.
    3000022    2    5    5    0    0 -0.28320198886E+02 -0.37056341226E+01  0.17113111127E+02  0.33296943796E+02  0.25000905747E+00 0.  0.
        -13    1    4    4    0    0  0.24698020891E+02  0.82746785721E+01 -0.11473814080E+02  0.28462641760E+02  0.10500000000E+00 0. -1.
         13    1    4    4    0    0  0.11554264211E+02  0.38388729775E+01 -0.52897967722E+01  0.13275200266E+02  0.10500000000E+00 0.  1.
    3000001    1    5    5    0    0 -0.27224540426E+02 -0.76497099141E+01  0.72197505227E+01  0.29203055676E+02  0.10000000000E+01 0.  1.
        -13    1    6    6    0    0 -0.13088068371E+02 -0.16638171857E+01  0.78506374282E+01  0.15352828871E+02  0.10500000000E+00 0. -1.
         13    1    6    6    0    0 -0.15232130515E+02 -0.20418169369E+01  0.92624736984E+01  0.17944114925E+02  0.10500000000E+00 0.  1.
</event>
<event>
11    0  0.3448258E-009  0.9118800E+02  0.7816531E-02  0.1126479E+00
         25   -1    0    0    0    0  0.00000000000E+00  0.00000000000E+00  0.99999998245E-14  0.12500000000E+03  0.12500000000E+03 0.  0.
    3000001    1    3    3    0    0  0.38539438983E+01 -0.15627181810E+02  0.10940757044E+02  0.19487479559E+02  0.10000000000E+01 0.  1.
    1000022    2    1    0    0    0 -0.14938809010E+01 -0.53035597514E+02  0.31484020132E+02  0.62500000467E+02  0.10000012542E+02 0.  0.
    3000022    2    3    3    0    0 -0.53478247993E+01 -0.37408415705E+02  0.20543263088E+02  0.43012520908E+02  0.25000179526E+00 0.  0.
    1000022    2    1    0    0    0  0.14938809010E+01  0.53035597514E+02 -0.31484020132E+02  0.62499999533E+02  0.10000006704E+02 0.  0.
    3000022    2    5    5    0    0 -0.10274574936E+00  0.50398280022E+02 -0.31133993086E+02  0.59240064081E+02  0.24996197526E+00 0.  0.
        -13    1    4    4    0    0 -0.20302013428E+01 -0.14239715387E+02  0.78886405756E+01  0.16405270096E+02  0.10500000000E+00 0. -1.
         13    1    4    4    0    0 -0.33176234565E+01 -0.23168700318E+02  0.12654622513E+02  0.26607250812E+02  0.10500000000E+00 0.  1.
    3000001    1    5    5    0    0  0.15966266504E+01  0.26373174923E+01 -0.35002704583E+00  0.32599354516E+01  0.10000000000E+01 0.  1.
        -13    1    6    6    0    0 -0.11443833812E+00  0.24619374576E+02 -0.15183740976E+02  0.28925485574E+02  0.10500000000E+00 0. -1.
         13    1    6    6    0    0  0.11692588762E-01  0.25778905446E+02 -0.15950252110E+02  0.30314578508E+02  0.10500000000E+00 0.  1.
</event>
<event>
11    0  0.3448258E-009  0.9118800E+02  0.7816531E-02  0.1126479E+00
         25   -1    0    0    0    0  0.00000000000E+00  0.00000000000E+00  0.99999998245E-14  0.12500000000E+03  0.12500000000E+03 0.  0.
    3000001    1    3    3    0    0  0.10360739777E+01 -0.15725420398E+02 -0.10005973541E+02  0.18694432393E+02  0.10000000000E+01 0. -1.
    1000022    2    1    0    0    0  0.17946467348E+02 -0.51011698616E+02 -0.29698163683E+02  0.62499999253E+02  0.99999947234E+01 0.  0.
    3000022    2    3    3    0    0  0.16910393370E+02 -0.35286278218E+02 -0.19692190142E+02  0.43805566860E+02  0.25000182527E+00 0.  0.
    1000022    2    1    0    0    0 -0.17946467348E+02  0.51011698616E+02  0.29698163683E+02  0.62500000747E+02  0.10000004067E+02 0.  0.
    3000022    2    5    5    0    0 -0.64773039213E+01  0.13534323309E+02  0.13120276175E+02  0.19933326883E+02  0.25000043473E+00 0.  0.
        -13    1    4    4    0    0  0.76977147652E+01 -0.16195280915E+02 -0.89855069207E+01  0.20057225535E+02  0.10500000000E+00 0. -1.
         13    1    4    4    0    0  0.92126786050E+01 -0.19090997303E+02 -0.10706683221E+02  0.23748341325E+02  0.10500000000E+00 0.  1.
    3000001    1    5    5    0    0 -0.11469163427E+02  0.37477375307E+02  0.16577887508E+02  0.42566673864E+02  0.10000000000E+01 0.  1.
        -13    1    6    6    0    0 -0.48570773603E+01  0.10144540343E+02  0.97988261854E+01  0.14917470257E+02  0.10500000000E+00 0. -1.
         13    1    6    6    0    0 -0.16202265611E+01  0.33897829659E+01  0.33214499895E+01  0.50158566265E+01  0.10500000000E+00 0.  1.
</event>
<event>
11    0  0.3448258E-009  0.9118800E+02  0.7816531E-02  0.1126479E+00
         25   -1    0    0    0    0  0.00000000000E+00  0.00000000000E+00  0.99999998245E-14  0.12500000000E+03  0.12500000000E+03 0.  0.
    3000001    1    3    3    0    0 -0.10833910918E+01  0.56808621964E+00 -0.15459067530E+02  0.15539601896E+02  0.10000000000E+01 0.  1.
    1000022    2    1    0    0    0 -0.20766270040E+02  0.31568717372E+00 -0.58093994581E+02  0.62499999383E+02  0.10000004339E+02 0.  0.
    3000022    2    3    3    0    0 -0.19682878948E+02 -0.25239904592E+00 -0.42634927052E+02  0.46960397487E+02  0.24999699172E+00 0.  0.
    1000022    2    1    0    0    0  0.20766270040E+02 -0.31568717372E+00  0.58093994581E+02  0.62500000617E+02  0.10000012045E+02 0.  0.
    3000022    2    5    5    0    0  0.11199712028E+02 -0.49409219691E+01  0.34372907326E+02  0.36488429928E+02  0.25000232873E+00 0.  0.
        -13    1    4    4    0    0 -0.85559378215E+01 -0.15030220961E+00 -0.18410888275E+02  0.20302672110E+02  0.10500000000E+00 0.  1.
         13    1    4    4    0    0 -0.11126941126E+02 -0.10209683631E+00 -0.24224038777E+02  0.26657725377E+02  0.10500000000E+00 0. -1.
    3000001    1    5    5    0    0  0.95665580118E+01  0.46252347954E+01  0.23721087255E+02  0.26011570688E+02  0.10000000000E+01 0. -1.
        -13    1    6    6    0    0  0.57717442078E+01 -0.24722443686E+01  0.17628867519E+02  0.18713979225E+02  0.10500000000E+00 0. -1.
         13    1    6    6    0    0  0.54279678201E+01 -0.24686776005E+01  0.16744039807E+02  0.17774450704E+02  0.10500000000E+00 0.  1.
</event>
<event>
11    0  0.3448258E-009  0.9118800E+02  0.7816531E-02  0.1126479E+00
         25   -1    0    0    0    0  0.00000000000E+00  0.00000000000E+00  0.99999998245E-14  0.12500000000E+03  0.12500000000E+03 0.  0.
    3000001    1    3    3    0    0  0.28910450413E+01  0.50753307620E+01 -0.26847032669E+02  0.27493277122E+02  0.10000000000E+01 0. -1.
    1000022    2    1    0    0    0 -0.11352892853E+01  0.35015006224E+01 -0.61584906177E+02  0.62500000200E+02  0.99999983926E+01 0.  0.
    3000022    2    3    3    0    0 -0.40263343266E+01 -0.15738301396E+01 -0.34737873508E+02  0.35006723078E+02  0.24999083225E+00 0.  0.
    1000022    2    1    0    0    0  0.11352892853E+01 -0.35015006224E+01  0.61584906177E+02  0.62499999800E+02  0.99999958899E+01 0.  0.
    3000022    2    5    5    0    0  0.39349166657E+01 -0.18066883122E+01  0.11377537860E+02  0.12176147250E+02  0.25000451032E+00 0.  0.
        -13    1    4    4    0    0 -0.27567075364E+01 -0.10284436617E+01 -0.23442883519E+02  0.23627038441E+02  0.10500000000E+00 0. -1.
         13    1    4    4    0    0 -0.12696267902E+01 -0.54538647790E+00 -0.11294989989E+02  0.11379684637E+02  0.10500000000E+00 0.  1.
    3000001    1    5    5    0    0 -0.27996273804E+01 -0.16948123102E+01  0.50207368316E+02  0.50323852550E+02  0.10000000000E+01 0.  1.
        -13    1    6    6    0    0  0.22799912099E+01 -0.98538324028E+00  0.66172511166E+01  0.70688314018E+01  0.10500000000E+00 0.  1.
         13    1    6    6    0    0  0.16549254558E+01 -0.82130507191E+00  0.47602867437E+01  0.51073158477E+01  0.10500000000E+00 0. -1.
</event>
<event>
11    0  0.3448258E-009  0.9118800E+02  0.7816531E-02  0.1126479E+00
         25   -1    0    0    0    0  0.00000000000E+00  0.00000000000E+00  0.99999998245E-14  0.12500000000E+03  0.12500000000E+03 0.  0.
    3000001    1    3    3    0    0  0.99832689710E+00 -0.56696694504E+01 -0.13470798054E+02  0.14683467182E+02  0.10000000000E+01 0.  1.
    1000022    2    1    0    0    0  0.20421402005E+02 -0.27674006094E+02 -0.51218803083E+02  0.62500002594E+02  0.10000013096E+02 0.  0.
    3000022    2    3    3    0    0  0.19423075108E+02 -0.22004336643E+02 -0.37748005029E+02  0.47816535413E+02  0.24999485061E+00 0.  0.
    1000022    2    1    0    0    0 -0.20421402005E+02  0.27674006094E+02  0.51218803083E+02  0.62499997406E+02  0.99999806680E+01 0.  0.
    3000022    2    5    5    0    0 -0.18610604136E+02  0.26483007833E+02  0.42280921853E+02  0.53248879275E+02  0.25000235910E+00 0.  0.
        -13    1    4    4    0    0  0.12681047054E+02 -0.14441716046E+02 -0.24677111699E+02  0.31278474764E+02  0.10500000000E+00 0.  1.
         13    1    4    4    0    0  0.67420280545E+01 -0.75626205968E+01 -0.13070893330E+02  0.16538060649E+02  0.10500000000E+00 0. -1.
    3000001    1    5    5    0    0 -0.18107978690E+01  0.11909982608E+01  0.89378812302E+01  0.92511181305E+01  0.10000000000E+01 0. -1.
        -13    1    6    6    0    0 -0.72909786426E+01  0.10318645474E+02  0.16417140133E+02  0.20716330011E+02  0.10500000000E+00 0. -1.
         13    1    6    6    0    0 -0.11319625494E+02  0.16164362359E+02  0.25863781720E+02  0.32532549264E+02  0.10500000000E+00 0.  1.
</event>
<event>
11    0  0.3448258E-009  0.9118800E+02  0.7816531E-02  0.1126479E+00
         25   -1    0    0    0    0  0.00000000000E+00  0.00000000000E+00  0.99999998245E-14  0.12500000000E+03  0.12500000000E+03 0.  0.
    3000001    1    3    3    0    0  0.57193802105E+01  0.34754135195E+01  0.17062494541E+01  0.69786170782E+01  0.10000000000E+01 0.  1.
    1000022    2    1    0    0    0  0.53528622029E+02  0.28480735379E+02 -0.11392291989E+02  0.62500000458E+02  0.10000003821E+02 0.  0.
    3000022    2    3    3    0    0  0.47809241819E+02  0.25005321860E+02 -0.13098541444E+02  0.55521383380E+02  0.24999978668E+00 0.  0.
    1000022    2    1    0    0    0 -0.53528622029E+02 -0.28480735379E+02  0.11392291989E+02  0.62499999542E+02  0.99999980902E+01 0.  0.
    3000022    2    5    5    0    0 -0.13637039798E+02 -0.43512004575E+01  0.61227959752E+01  0.15570900075E+02  0.24999745298E+00 0.  0.
        -13    1    4    4    0    0  0.25688402639E+02  0.13392792068E+02 -0.69760948061E+01  0.29798285744E+02  0.10500000000E+00 0. -1.
         13    1    4    4    0    0  0.22120839180E+02  0.11612529792E+02 -0.61224466374E+01  0.25723097637E+02  0.10500000000E+00 0.  1.
    3000001    1    5    5    0    0 -0.39891582232E+02 -0.24129534922E+02  0.52694960142E+01  0.46929099466E+02  0.10000000000E+01 0. -1.
        -13    1    6    6    0    0 -0.10148131057E+02 -0.32195179107E+01  0.45273449433E+01  0.11569690435E+02  0.10500000000E+00 0.  1.
         13    1    6    6    0    0 -0.34889087410E+01 -0.11316825467E+01  0.15954510319E+01  0.40012096402E+01  0.10500000000E+00 0. -1.
</event>
<event>
11    0  0.3448258E-009  0.9118800E+02  0.7816531E-02  0.1126479E+00
         25   -1    0    0    0    0  0.00000000000E+00  0.00000000000E+00  0.99999998245E-14  0.12500000000E+03  0.12500000000E+03 0.  0.
    3000001    1    3    3    0    0  0.21049573057E+02 -0.42087852562E+02 -0.25454146840E+02  0.53510610635E+02  0.10000000000E+01 0.  1.
    1000022    2    1    0    0    0  0.27597307242E+02 -0.46428277150E+02 -0.29817003467E+02  0.62500000337E+02  0.10000003015E+02 0.  0.
    3000022    2    3    3    0    0  0.65477341847E+01 -0.43404245874E+01 -0.43628566266E+01  0.89893897018E+01  0.25000142934E+00 0.  0.
    1000022    2    1    0    0    0 -0.27597307242E+02  0.46428277150E+02  0.29817003467E+02  0.62499999663E+02  0.99999988022E+01 0.  0.
    3000022    2    5    5    0    0 -0.37336020311E+01  0.21095991955E+01  0.73247344109E+00  0.43576611409E+01  0.25000077053E+00 0.  0.
        -13    1    4    4    0    0  0.28059345513E+01 -0.17884947860E+01 -0.18181955809E+01  0.37932627745E+01  0.10500000000E+00 0. -1.
         13    1    4    4    0    0  0.37417996334E+01 -0.25519298014E+01 -0.25446610457E+01  0.51961269274E+01  0.10500000000E+00 0.  1.
    3000001    1    5    5    0    0 -0.23863705210E+02  0.44318677954E+02  0.29084530026E+02  0.58142338522E+02  0.10000000000E+01 0.  1.
        -13    1    6    6    0    0 -0.19125664310E+01  0.10042677760E+01  0.35533007565E+00  0.21917455558E+01  0.10500000000E+00 0. -1.
         13    1    6    6    0    0 -0.18210356001E+01  0.11053314195E+01  0.37714336543E+00  0.21659155851E+01  0.10500000000E+00 0.  1.
</event>
<event>
11    0  0.3448258E-009  0.9118800E+02  0.7816531E-02  0.1126479E+00
         25   -1    0    0    0    0  0.00000000000E+00  0.00000000000E+00  0.99999998245E-14  0.12500000000E+03  0.12500000000E+03 0.  0.
    3000001    1    3    3    0    0 -0.54139919519E+02 -0.56913358623E+01  0.18130594052E+02  0.57386763544E+02  0.10000000000E+01 0.  1.
    1000022    2    1    0    0    0 -0.59012623192E+02 -0.64448177382E+01  0.16799535926E+02  0.62499999204E+02  0.10000006077E+02 0.  0.
    3000022    2    3    3    0    0 -0.48727036732E+01 -0.75348187594E+00 -0.13310581256E+01  0.51132356603E+01  0.24997432011E+00 0.  0.
    1000022    2    1    0    0    0  0.59012623192E+02  0.64448177382E+01 -0.16799535926E+02  0.62500000796E+02  0.10000016021E+02 0.  0.
    3000022    2    5    5    0    0  0.42086356992E+02  0.89980189263E+01 -0.12635550281E+02  0.44854715299E+02  0.25012844907E+00 0.  0.
        -13    1    4    4    0    0 -0.30454413628E+01 -0.51952311499E+00 -0.87072469181E+00  0.32115111475E+01  0.10500000000E+00 0.  1.
         13    1    4    4    0    0 -0.18272623103E+01 -0.23395876095E+00 -0.46033343374E+00  0.19017245129E+01  0.10500000000E+00 0. -1.
    3000001    1    5    5    0    0  0.16926266200E+02 -0.25532011881E+01 -0.41639856449E+01  0.17645285496E+02  0.10000000000E+01 0.  1.
        -13    1    6    6    0    0  0.19137237920E+02  0.40230311504E+01 -0.57413514364E+01  0.20381187310E+02  0.10500000000E+00 0. -1.
         13    1    6    6    0    0  0.22949119072E+02  0.49749877759E+01 -0.68941988446E+01  0.24473527989E+02  0.10500000000E+00 0.  1.
</event>
<event>
11    0  0.3448258E-009  0.9118800E+02  0.7816531E-02  0.1126479E+00
         25   -1    0    0    0    0  0.00000000000E+00  0.00000000000E+00  0.99999998245E-14  0.12500000000E+03  0.12500000000E+03 0.  0.
    3000001    1    3    3    0    0  0.71422078766E+01  0.10219860452E+02  0.18724144987E+02  0.22517777122E+02  0.10000000000E+01 0. -1.
    1000022    2    1    0    0    0  0.27779889411E+02  0.17918941811E+02  0.52090683062E+02  0.62499999661E+02  0.99999982233E+01 0.  0.
    3000022    2    3    3    0    0  0.20637681534E+02  0.76990813586E+01  0.33366538075E+02  0.39982222539E+02  0.25000636949E+00 0.  0.
    1000022    2    1    0    0    0 -0.27779889411E+02 -0.17918941811E+02 -0.52090683062E+02  0.62500000339E+02  0.10000002463E+02 0.  0.
    3000022    2    5    5    0    0 -0.11112775573E+02 -0.37656755111E+01 -0.11770966674E+02  0.16622040923E+02  0.24999001594E+00 0.  0.
        -13    1    4    4    0    0  0.62852700475E+01  0.22960399177E+01  0.10117945964E+02  0.12130963458E+02  0.10500000000E+00 0.  1.
         13    1    4    4    0    0  0.14352411487E+02  0.54030414409E+01  0.23248592111E+02  0.27851259081E+02  0.10500000000E+00 0. -1.
    3000001    1    5    5    0    0 -0.16667113838E+02 -0.14153266300E+02 -0.40319716387E+02  0.45877959416E+02  0.10000000000E+01 0. -1.
        -13    1    6    6    0    0 -0.46297056735E+01 -0.15053302997E+01 -0.48513195217E+01  0.68736104076E+01  0.10500000000E+00 0. -1.
         13    1    6    6    0    0 -0.64830698993E+01 -0.22603452114E+01 -0.69196471527E+01  0.97484305153E+01  0.10500000000E+00 0.  1.
</event>
<event>
11    0  0.3448258E-009  0.9118800E+02  0.7816531E-02  0.1126479E+00
         25   -1    0    0    0    0  0.00000000000E+00  0.00000000000E+00  0.99999998245E-14  0.12500000000E+03  0.12500000000E+03 0.  0.
    3000001    1    3    3    0    0  0.97846366839E+01 -0.10777859040E+02 -0.20057152943E+02  0.24803039022E+02  0.10000000000E+01 0.  1.
    1000022    2    1    0    0    0  0.34815751025E+02 -0.25592653419E+02 -0.44035549780E+02  0.62499999462E+02  0.99999929924E+01 0.  0.
    3000022    2    3    3    0    0  0.25031114341E+02 -0.14814794379E+02 -0.23978396837E+02  0.37696960440E+02  0.24998783068E+00 0.  0.
    1000022    2    1    0    0    0 -0.34815751025E+02  0.25592653419E+02  0.44035549780E+02  0.62500000538E+02  0.99999997200E+01 0.  0.
    3000022    2    5    5    0    0 -0.24824067171E+02  0.15585310938E+02  0.35152779298E+02  0.45770258723E+02  0.24992648641E+00 0.  0.
        -13    1    4    4    0    0  0.78887555739E+01 -0.46123113626E+01 -0.75435853825E+01  0.11850003630E+02  0.10500000000E+00 0.  1.
         13    1    4    4    0    0  0.17142358768E+02 -0.10202483016E+02 -0.16434811454E+02  0.25846956810E+02  0.10500000000E+00 0. -1.
    3000001    1    5    5    0    0 -0.99916838548E+01  0.10007342481E+02  0.88827704816E+01  0.16729741815E+02  0.10000000000E+01 0.  1.
        -13    1    6    6    0    0 -0.14785534195E+02  0.92183275112E+01  0.20946710126E+02  0.27246380927E+02  0.10500000000E+00 0.  1.
         13    1    6    6    0    0 -0.10038532975E+02  0.63669834268E+01  0.14206069172E+02  0.18523877796E+02  0.10500000000E+00 0. -1.
</event>
<event>
11    0  0.3448258E-009  0.9118800E+02  0.7816531E-02  0.1126479E+00
         25   -1    0    0    0    0  0.00000000000E+00  0.00000000000E+00  0.99999998245E-14  0.12500000000E+03  0.12500000000E+03 0.  0.
    3000001    1    3    3    0    0 -0.63364407716E+01  0.77871307624E+01  0.71681650621E+00  0.10114529800E+02  0.10000000000E+01 0.  1.
    1000022    2    1    0    0    0 -0.49854415210E+02  0.35024679759E+02 -0.96984043393E+01  0.62500000130E+02  0.10000003069E+02 0.  0.
    3000022    2    3    3    0    0 -0.43517974438E+02  0.27237548997E+02 -0.10415220846E+02  0.52385470330E+02  0.25000384444E+00 0.  0.
    1000022    2    1    0    0    0  0.49854415210E+02 -0.35024679759E+02  0.96984043393E+01  0.62499999870E+02  0.10000001448E+02 0.  0.
    3000022    2    5    5    0    0  0.41793187670E+02 -0.24541025627E+02  0.81629165290E+01  0.49149040496E+02  0.25000191995E+00 0.  0.
        -13    1    4    4    0    0 -0.33492976019E+02  0.20954753321E+02 -0.80183071851E+01  0.40313588335E+02  0.10500000000E+00 0.  1.
         13    1    4    4    0    0 -0.10024998419E+02  0.62827956761E+01 -0.23969136604E+01  0.12071881995E+02  0.10500000000E+00 0. -1.
    3000001    1    5    5    0    0  0.80612275394E+01 -0.10483654132E+02  0.15354878103E+01  0.13350959374E+02  0.10000000000E+01 0. -1.
        -13    1    6    6    0    0  0.26834439540E+02 -0.15690688540E+02  0.52277295109E+01  0.31521818367E+02  0.10500000000E+00 0. -1.
         13    1    6    6    0    0  0.14958748130E+02 -0.88503370869E+01  0.29351870181E+01  0.17627222129E+02  0.10500000000E+00 0.  1.
</event>
<event>
11    0  0.3448258E-009  0.9118800E+02  0.7816531E-02  0.1126479E+00
         25   -1    0    0    0    0  0.00000000000E+00  0.00000000000E+00  0.99999998245E-14  0.12500000000E+03  0.12500000000E+03 0.  0.
    3000001    1    3    3    0    0  0.19110875442E+02  0.67245326550E+01 -0.24539369069E+02  0.31837486300E+02  0.10000000000E+01 0. -1.
    1000022    2    1    0    0    0  0.42664482004E+02  0.17337238568E+02 -0.41053769105E+02  0.62500001162E+02  0.10000016084E+02 0.  0.
    3000022    2    3    3    0    0  0.23553606561E+02  0.10612705913E+02 -0.16514400036E+02  0.30662514862E+02  0.25000051059E+00 0.  0.
    1000022    2    1    0    0    0 -0.42664482004E+02 -0.17337238568E+02  0.41053769105E+02  0.62499998838E+02  0.10000001562E+02 0.  0.
    3000022    2    5    5    0    0 -0.29060742773E+02 -0.68663394903E+01  0.27650547768E+02  0.40697526713E+02  0.25000038816E+00 0.  0.
        -13    1    4    4    0    0  0.12830192949E+02  0.58533147877E+01 -0.90017005845E+01  0.16730713778E+02  0.10500000000E+00 0. -1.
         13    1    4    4    0    0  0.10723413613E+02  0.47593911249E+01 -0.75126994519E+01  0.13931801084E+02  0.10500000000E+00 0.  1.
    3000001    1    5    5    0    0 -0.13603739231E+02 -0.10470899077E+02  0.13403221337E+02  0.21802472126E+02  0.10000000000E+01 0. -1.
        -13    1    6    6    0    0 -0.14141244433E+02 -0.32759232220E+01  0.13473075233E+02  0.19805081376E+02  0.10500000000E+00 0. -1.
         13    1    6    6    0    0 -0.14919498340E+02 -0.35904162683E+01  0.14177472535E+02  0.20892445337E+02  0.10500000000E+00 0.  1.
</event>
<event>
11    0  0.3448258E-009  0.9118800E+02  0.7816531E-02  0.1126479E+00
         25   -1    0    0    0    0  0.00000000000E+00  0.00000000000E+00  0.99999998245E-14  0.12500000000E+03  0.12500000000E+03 0.  0.
    3000001    1    3    3    0    0 -0.19038445944E+01 -0.46577445061E+01 -0.14594353573E+01  0.53337753689E+01  0.10000000000E+01 0. -1.
    1000022    2    1    0    0    0 -0.23412848996E+02 -0.37751150758E+02 -0.42812837574E+02  0.62499999499E+02  0.99999997304E+01 0.  0.
    3000022    2    3    3    0    0 -0.21509004402E+02 -0.33093406252E+02 -0.41353402217E+02  0.57166224131E+02  0.24999745175E+00 0.  0.
    1000022    2    1    0    0    0  0.23412848996E+02  0.37751150758E+02  0.42812837574E+02  0.62500000501E+02  0.10000005987E+02 0.  0.
    3000022    2    5    5    0    0  0.10227080079E+02  0.10725155928E+02  0.19186030491E+02  0.24244348481E+02  0.25006129177E+00 0.  0.
        -13    1    4    4    0    0 -0.14805559386E+02 -0.22862413460E+02 -0.28512480688E+02  0.39431803382E+02  0.10500000000E+00 0.  1.
         13    1    4    4    0    0 -0.67034450154E+01 -0.10230992792E+02 -0.12840921528E+02  0.17734420748E+02  0.10500000000E+00 0. -1.
    3000001    1    5    5    0    0  0.13185768917E+02  0.27025994830E+02  0.23626807083E+02  0.38255652019E+02  0.10000000000E+01 0. -1.
        -13    1    6    6    0    0  0.64905676171E+01  0.67370974391E+01  0.12053154490E+02  0.15257965397E+02  0.10500000000E+00 0.  1.
         13    1    6    6    0    0  0.37365124623E+01  0.39880584893E+01  0.71328760011E+01  0.89863830846E+01  0.10500000000E+00 0. -1.
</event>
<event>
11    0  0.3448258E-009  0.9118800E+02  0.7816531E-02  0.1126479E+00
         25   -1    0    0    0    0  0.00000000000E+00  0.00000000000E+00  0.99999998245E-14  0.12500000000E+03  0.12500000000E+03 0.  0.
    3000001    1    3    3    0    0 -0.12055489684E+02 -0.22094849017E+02 -0.47357749596E+02  0.53640224006E+02  0.10000000000E+01 0. -1.
    1000022    2    1    0    0    0 -0.15981634353E+02 -0.28103767680E+02 -0.52545365988E+02  0.62500001052E+02  0.10000012513E+02 0.  0.
    3000022    2    3    3    0    0 -0.39261446688E+01 -0.60089186626E+01 -0.51876163920E+01  0.88597770456E+01  0.25013998848E+00 0.  0.
    1000022    2    1    0    0    0  0.15981634353E+02  0.28103767680E+02  0.52545365988E+02  0.62499998948E+02  0.99999993648E+01 0.  0.
    3000022    2    5    5    0    0  0.30746161340E+01  0.45707094213E+01  0.17486269076E+02  0.18335123463E+02  0.24999446358E+00 0.  0.
        -13    1    4    4    0    0 -0.15183026734E+01 -0.22291821456E+01 -0.19882492647E+01  0.33524105036E+01  0.10500000000E+00 0. -1.
         13    1    4    4    0    0 -0.24078419954E+01 -0.37797365170E+01 -0.31993671274E+01  0.55073665420E+01  0.10500000000E+00 0.  1.
    3000001    1    5    5    0    0  0.12907018219E+02  0.23533058258E+02  0.35059096913E+02  0.44164875485E+02  0.10000000000E+01 0. -1.
        -13    1    6    6    0    0  0.17705536641E+01  0.25854559695E+01  0.10144576033E+02  0.10618045523E+02  0.10500000000E+00 0. -1.
         13    1    6    6    0    0  0.13040624699E+01  0.19852534518E+01  0.73416930425E+01  0.77170779394E+01  0.10500000000E+00 0.  1.
</event>
<event>
11    0  0.3448258E-009  0.9118800E+02  0.7816531E-02  0.1126479E+00
         25   -1    0    0    0    0  0.00000000000E+00  0.00000000000E+00  0.99999998245E-14  0.12500000000E+03  0.12500000000E+03 0.  0.
    3000001    1    3    3    0    0  0.40743370646E+02 -0.38736010040E+01 -0.24736256651E+01  0.41013971526E+02  0.10000000000E+01 0. -1.
    1000022    2    1    0    0    0  0.61656108085E+02  0.10203858443E+01 -0.19322180273E+01  0.62499997407E+02  0.99999679000E+01 0.  0.
    3000022    2    3    3    0    0  0.20912737438E+02  0.48939868484E+01  0.54140763778E+00  0.21486025882E+02  0.24998306089E+00 0.  0.
    1000022    2    1    0    0    0 -0.61656108085E+02 -0.10203858443E+01  0.19322180273E+01  0.62500002593E+02  0.10000000309E+02 0.  0.
    3000022    2    5    5    0    0 -0.78728530029E+01 -0.23157843685E+01 -0.22983016296E+01  0.85258061551E+01  0.25001713338E+00 0.  0.
        -13    1    4    4    0    0  0.79497541598E+01  0.19204886491E+01  0.22308743430E+00  0.81821550251E+01  0.10500000000E+00 0.  1.
         13    1    4    4    0    0  0.12962983278E+02  0.29734981993E+01  0.31832020348E+00  0.13303870857E+02  0.10500000000E+00 0. -1.
    3000001    1    5    5    0    0 -0.53783255082E+02  0.12953985242E+01  0.42305196568E+01  0.53974196438E+02  0.10000000000E+01 0. -1.
        -13    1    6    6    0    0 -0.41724281331E+01 -0.12602675147E+01 -0.12823878570E+01  0.45445543622E+01  0.10500000000E+00 0.  1.
         13    1    6    6    0    0 -0.37004248698E+01 -0.10555168538E+01 -0.10159137725E+01  0.39812517930E+01  0.10500000000E+00 0. -1.
</event>
<event>
11    0  0.3448258E-009  0.9118800E+02  0.7816531E-02  0.1126479E+00
         25   -1    0    0    0    0  0.00000000000E+00  0.00000000000E+00  0.99999998245E-14  0.12500000000E+03  0.12500000000E+03 0.  0.
    3000001    1    3    3    0    0  0.34308804463E+02 -0.16125983977E+02  0.95085588093E+01  0.39096727658E+02  0.10000000000E+01 0.  1.
    1000022    2    1    0    0    0  0.55774661225E+02 -0.25250192106E+02  0.76068912320E+01  0.62499997069E+02  0.99999901612E+01 0.  0.
    3000022    2    3    3    0    0  0.21465856762E+02 -0.91242081293E+01 -0.19016675773E+01  0.23403269411E+02  0.24999809241E+00 0.  0.
    1000022    2    1    0    0    0 -0.55774661225E+02  0.25250192106E+02 -0.76068912320E+01  0.62500002931E+02  0.10000026799E+02 0.  0.
    3000022    2    5    5    0    0 -0.79674461956E+01  0.12438202719E+00 -0.17890072462E+01  0.81706009917E+01  0.25000774052E+00 0.  0.
        -13    1    4    4    0    0  0.10014729849E+02 -0.42071593395E+01 -0.83610457418E+00  0.10895186988E+02  0.10500000000E+00 0. -1.
         13    1    4    4    0    0  0.11451126914E+02 -0.49170487898E+01 -0.10655630031E+01  0.12508082423E+02  0.10500000000E+00 0.  1.
    3000001    1    5    5    0    0 -0.47807215030E+02  0.25125810079E+02 -0.58178839858E+01  0.54329401939E+02  0.10000000000E+01 0.  1.
        -13    1    6    6    0    0 -0.34753538176E+01 -0.85693784276E-03 -0.81735853634E+00  0.35717201555E+01  0.10500000000E+00 0. -1.
         13    1    6    6    0    0 -0.44920923780E+01  0.12523896503E+00 -0.97164870987E+00  0.45988808362E+01  0.10500000000E+00 0.  1.
</event>
<event>
11    0  0.3448258E-009  0.9118800E+02  0.7816531E-02  0.1126479E+00
         25   -1    0    0    0    0  0.00000000000E+00  0.00000000000E+00  0.99999998245E-14  0.12500000000E+03  0.12500000000E+03 0.  0.
    3000001    1    3    3    0    0  0.71081053309E+01  0.85301525544E+00 -0.79236235506E+01  0.10725511950E+02  0.10000000000E+01 0.  1.
    1000022    2    1    0    0    0  0.41490591128E+02  0.24792514352E+02 -0.38342040717E+02  0.62499999393E+02  0.99999958866E+01 0.  0.
    3000022    2    3    3    0    0  0.34382485797E+02  0.23939499096E+02 -0.30418417166E+02  0.51774487443E+02  0.25000095290E+00 0.  0.
    1000022    2    1    0    0    0 -0.41490591128E+02 -0.24792514352E+02  0.38342040717E+02  0.62500000607E+02  0.10000003475E+02 0.  0.
    3000022    2    5    5    0    0 -0.16243471339E+02 -0.82517854474E+01  0.20484796332E+02  0.27415902395E+02  0.24999828673E+00 0.  0.
        -13    1    4    4    0    0  0.13609679574E+02  0.94830718262E+01 -0.11966544784E+02  0.20453881012E+02  0.10500000000E+00 0. -1.
         13    1    4    4    0    0  0.20772806223E+02  0.14456427270E+02 -0.18451872382E+02  0.31320606431E+02  0.10500000000E+00 0.  1.
    3000001    1    5    5    0    0 -0.25247119790E+02 -0.16540728904E+02  0.17857244385E+02  0.35084098212E+02  0.10000000000E+01 0.  1.
        -13    1    6    6    0    0 -0.50522468854E+01 -0.25553131452E+01  0.64379784018E+01  0.85739964290E+01  0.10500000000E+00 0. -1.
         13    1    6    6    0    0 -0.11191224453E+02 -0.56964723021E+01  0.14046817931E+02  0.18841905966E+02  0.10500000000E+00 0.  1.
</event>
<event>
11    0  0.3448258E-009  0.9118800E+02  0.7816531E-02  0.1126479E+00
         25   -1    0    0    0    0  0.00000000000E+00  0.00000000000E+00  0.99999998245E-14  0.12500000000E+03  0.12500000000E+03 0.  0.
    3000001    1    3    3    0    0  0.34112109786E+01  0.19229427065E+02  0.14532141484E+02  0.24363709933E+02  0.10000000000E+01 0.  1.
    1000022    2    1    0    0    0 -0.34877415167E+01  0.48171039222E+02  0.38387983213E+02  0.62499993835E+02  0.99999306821E+01 0.  0.
    3000022    2    3    3    0    0 -0.68989524953E+01  0.28941612157E+02  0.23855841729E+02  0.38136283902E+02  0.25001100798E+00 0.  0.
    1000022    2    1    0    0    0  0.34877415167E+01 -0.48171039222E+02 -0.38387983213E+02  0.62500006165E+02  0.10000007743E+02 0.  0.
    3000022    2    5    5    0    0 -0.27245534383E+01 -0.11662416663E+02 -0.12439079622E+02  0.17269289530E+02  0.25001032795E+00 0.  0.
        -13    1    4    4    0    0 -0.52310860673E+01  0.21845008123E+02  0.18012313437E+02  0.28792761272E+02  0.10500000000E+00 0. -1.
         13    1    4    4    0    0 -0.16678664281E+01  0.70966040340E+01  0.58435282926E+01  0.93435226303E+01  0.10500000000E+00 0.  1.
    3000001    1    5    5    0    0  0.62122949550E+01 -0.36508622558E+02 -0.25948903591E+02  0.45230716635E+02  0.10000000000E+01 0.  1.
        -13    1    6    6    0    0 -0.10353230266E+01 -0.43220946768E+01 -0.45384879319E+01  0.63530539013E+01  0.10500000000E+00 0. -1.
         13    1    6    6    0    0 -0.16892304117E+01 -0.73403219864E+01 -0.79005916900E+01  0.10916235629E+02  0.10500000000E+00 0.  1.
</event>
<event>
11    0  0.3448258E-009  0.9118800E+02  0.7816531E-02  0.1126479E+00
         25   -1    0    0    0    0  0.00000000000E+00  0.00000000000E+00  0.99999998245E-14  0.12500000000E+03  0.12500000000E+03 0.  0.
    3000001    1    3    3    0    0  0.33059762869E+01  0.11753380449E+00  0.15855347813E+02  0.16227610658E+02  0.10000000000E+01 0. -1.
    1000022    2    1    0    0    0  0.13008244887E+02  0.16704589355E+02  0.57948190768E+02  0.62500003731E+02  0.99999956210E+01 0.  0.
    3000022    2    3    3    0    0  0.97022686003E+01  0.16587055551E+02  0.42092842956E+02  0.46272393073E+02  0.25000947489E+00 0.  0.
    1000022    2    1    0    0    0 -0.13008244887E+02 -0.16704589355E+02 -0.57948190768E+02  0.62499996269E+02  0.99999489885E+01 0.  0.
    3000022    2    5    5    0    0 -0.12015669528E+02 -0.17762936327E+02 -0.50878012546E+02  0.55213520835E+02  0.25000244524E+00 0.  0.
        -13    1    4    4    0    0  0.29533948028E+01  0.49903585871E+01  0.12789051259E+02  0.14042687663E+02  0.10500000000E+00 0.  1.
         13    1    4    4    0    0  0.67488737975E+01  0.11596696964E+02  0.29303791696E+02  0.32229705410E+02  0.10500000000E+00 0. -1.
    3000001    1    5    5    0    0 -0.99257535893E+00  0.10583469718E+01 -0.70701782228E+01  0.72864754345E+01  0.10000000000E+01 0.  1.
        -13    1    6    6    0    0 -0.78131981419E+01 -0.11449023174E+02 -0.32867425194E+02  0.35670784414E+02  0.10500000000E+00 0. -1.
         13    1    6    6    0    0 -0.42024713863E+01 -0.63139131532E+01 -0.18010587352E+02  0.19542736421E+02  0.10500000000E+00 0.  1.
</event>
<event>
11    0  0.3448258E-009  0.9118800E+02  0.7816531E-02  0.1126479E+00
         25   -1    0    0    0    0  0.00000000000E+00  0.00000000000E+00  0.99999998245E-14  0.12500000000E+03  0.12500000000E+03 0.  0.
    3000001    1    3    3    0    0 -0.14546936378E+02  0.85748334767E+01  0.90218904492E+01  0.19171218908E+02  0.10000000000E+01 0. -1.
    1000022    2    1    0    0    0 -0.51658707457E+02  0.13858046909E+02  0.30750323764E+02  0.62499999208E+02  0.99999984561E+01 0.  0.
    3000022    2    3    3    0    0 -0.37111771079E+02  0.52832134326E+01  0.21728433315E+02  0.43328780300E+02  0.24998232772E+00 0.  0.
    1000022    2    1    0    0    0  0.51658707457E+02 -0.13858046909E+02 -0.30750323764E+02  0.62500000792E+02  0.10000008356E+02 0.  0.
    3000022    2    5    5    0    0  0.67148696720E+01 -0.36726302274E+01 -0.12113008637E+01  0.77528991176E+01  0.25001489073E+00 0.  0.
        -13    1    4    4    0    0 -0.10522713483E+02  0.14629987904E+01  0.61831795096E+01  0.12292705087E+02  0.10500000000E+00 0.  1.
         13    1    4    4    0    0 -0.26589057596E+02  0.38202146422E+01  0.15545253805E+02  0.31036075213E+02  0.10500000000E+00 0. -1.
    3000001    1    5    5    0    0  0.44943837785E+02 -0.10185416682E+02 -0.29539022901E+02  0.54747101674E+02  0.10000000000E+01 0.  1.
        -13    1    6    6    0    0  0.17653937041E+01 -0.10041751342E+01 -0.31768601796E+00  0.20583809260E+01  0.10500000000E+00 0.  1.
         13    1    6    6    0    0  0.49494759679E+01 -0.26684550932E+01 -0.89361484574E+00  0.56945181915E+01  0.10500000000E+00 0. -1.
</event>
<event>
11    0  0.3448258E-009  0.9118800E+02  0.7816531E-02  0.1126479E+00
         25   -1    0    0    0    0  0.00000000000E+00  0.00000000000E+00  0.99999998245E-14  0.12500000000E+03  0.12500000000E+03 0.  0.
    3000001    1    3    3    0    0  0.35038880631E+02  0.25568389110E+00  0.30683502835E+01  0.35188113101E+02  0.10000000000E+01 0. -1.
    1000022    2    1    0    0    0  0.60289828449E+02 -0.46925926114E+01  0.12221539336E+02  0.62500000529E+02  0.10000010131E+02 0.  0.
    3000022    2    3    3    0    0  0.25250947818E+02 -0.49482765025E+01  0.91531890525E+01  0.27311887429E+02  0.25003807337E+00 0.  0.
    1000022    2    1    0    0    0 -0.60289828449E+02  0.46925926114E+01 -0.12221539336E+02  0.62499999471E+02  0.10000003512E+02 0.  0.
    3000022    2    5    5    0    0 -0.29820245248E+02 -0.26401058047E+01 -0.60085374834E+01  0.30534934814E+02  0.25007212354E+00 0.  0.
        -13    1    4    4    0    0  0.16883279820E+02 -0.32858804351E+01  0.61696238112E+01  0.18273407747E+02  0.10500000000E+00 0.  1.
         13    1    4    4    0    0  0.83676679977E+01 -0.16623960674E+01  0.29835652412E+01  0.90384796815E+01  0.10500000000E+00 0. -1.
    3000001    1    5    5    0    0 -0.30469583201E+02  0.73326984161E+01 -0.62130018525E+01  0.31965064657E+02  0.10000000000E+01 0. -1.
        -13    1    6    6    0    0 -0.76361074680E+01 -0.70419906993E+00 -0.15496611063E+01  0.78242257213E+01  0.10500000000E+00 0.  1.
         13    1    6    6    0    0 -0.22184137780E+02 -0.19359067347E+01 -0.44588763771E+01  0.22710709092E+02  0.10500000000E+00 0. -1.
</event>
<event>
11    0  0.3448258E-009  0.9118800E+02  0.7816531E-02  0.1126479E+00
         25   -1    0    0    0    0  0.00000000000E+00  0.00000000000E+00  0.99999998245E-14  0.12500000000E+03  0.12500000000E+03 0.  0.
    3000001    1    3    3    0    0 -0.32814772443E+02 -0.45281504836E+02  0.96601472081E+01  0.56758632954E+02  0.10000000000E+01 0.  1.
    1000022    2    1    0    0    0 -0.36033073354E+02 -0.48265493674E+02  0.13353268295E+02  0.62499999765E+02  0.99999970778E+01 0.  0.
    3000022    2    3    3    0    0 -0.32183009109E+01 -0.29839888376E+01  0.36931210871E+01  0.57413668111E+01  0.24999871827E+00 0.  0.
    1000022    2    1    0    0    0  0.36033073354E+02  0.48265493674E+02 -0.13353268295E+02  0.62500000235E+02  0.10000000013E+02 0.  0.
    3000022    2    5    5    0    0  0.24676490346E+02  0.34557321251E+02 -0.13844222689E+02  0.44663885046E+02  0.24999548035E+00 0.  0.
        -13    1    4    4    0    0 -0.24356436321E+01 -0.22585298160E+01  0.27631329557E+01  0.43219492782E+01  0.10500000000E+00 0. -1.
         13    1    4    4    0    0 -0.78265727880E+00 -0.72545902163E+00  0.92998813145E+00  0.14194175329E+01  0.10500000000E+00 0.  1.
    3000001    1    5    5    0    0  0.11356583008E+02  0.13708172423E+02  0.49095439388E+00  0.17836115189E+02  0.10000000000E+01 0. -1.
        -13    1    6    6    0    0  0.90709323208E+01  0.12786854752E+02 -0.51471625558E+01  0.16501205259E+02  0.10500000000E+00 0. -1.
         13    1    6    6    0    0  0.15605558025E+02  0.21770466499E+02 -0.86970601334E+01  0.28162679788E+02  0.10500000000E+00 0.  1.
</event>
<event>
11    0  0.3448258E-009  0.9118800E+02  0.7816531E-02  0.1126479E+00
         25   -1    0    0    0    0  0.00000000000E+00  0.00000000000E+00  0.99999998245E-14  0.12500000000E+03  0.12500000000E+03 0.  0.
    3000001    1    3    3    0    0 -0.44398109910E+02 -0.15587953498E+02 -0.25354051430E+01  0.47133902205E+02  0.10000000000E+01 0.  1.
    1000022    2    1    0    0    0 -0.57811066737E+02 -0.21436239651E+02  0.21490872714E+01  0.62499995719E+02  0.99999540558E+01 0.  0.
    3000022    2    3    3    0    0 -0.13412956827E+02 -0.58482861526E+01  0.46844924145E+01  0.15366093514E+02  0.24999785101E+00 0.  0.
    1000022    2    1    0    0    0  0.57811066737E+02  0.21436239651E+02 -0.21490872714E+01  0.62500004281E+02  0.10000007570E+02 0.  0.
    3000022    2    5    5    0    0  0.48125755455E+02  0.21278184205E+02 -0.49713833165E+00  0.52622799643E+02  0.24986917554E+00 0.  0.
        -13    1    4    4    0    0 -0.76567010025E+01 -0.32672529913E+01  0.26717951681E+01  0.87435420037E+01  0.10500000000E+00 0.  1.
         13    1    4    4    0    0 -0.57562558245E+01 -0.25810331613E+01  0.20126972464E+01  0.66225515100E+01  0.10500000000E+00 0. -1.
    3000001    1    5    5    0    0  0.96853112824E+01  0.15805544535E+00 -0.16519489398E+01  0.98772046379E+01  0.10000000000E+01 0.  1.
        -13    1    6    6    0    0  0.34072186207E+02  0.15033488412E+02 -0.38471843686E+00  0.37243505206E+02  0.10500000000E+00 0. -1.
         13    1    6    6    0    0  0.14053569248E+02  0.62446957934E+01 -0.11241989479E+00  0.15379294437E+02  0.10500000000E+00 0.  1.
</event>
<event>
11    0  0.3448258E-009  0.9118800E+02  0.7816531E-02  0.1126479E+00
         25   -1    0    0    0    0  0.00000000000E+00  0.00000000000E+00  0.99999998245E-14  0.12500000000E+03  0.12500000000E+03 0.  0.
    3000001    1    3    3    0    0 -0.53439113707E+02 -0.28867469082E+02  0.98784239736E+01  0.61543910383E+02  0.10000000000E+01 0.  1.
    1000022    2    1    0    0    0 -0.53321099379E+02 -0.29108472775E+02  0.10761371787E+02  0.62499999847E+02  0.10000001593E+02 0.  0.
    3000022    2    3    3    0    0  0.11801432824E+00 -0.24100369316E+00  0.88294781384E+00  0.95608946432E+00  0.25000012009E+00 0.  0.
    1000022    2    1    0    0    0  0.53321099379E+02  0.29108472775E+02 -0.10761371787E+02  0.62500000153E+02  0.10000003505E+02 0.  0.
    3000022    2    5    5    0    0  0.25765939917E+02  0.18275896510E+02 -0.88834092368E+01  0.32815690074E+02  0.25000463151E+00 0.  0.
        -13    1    4    4    0    0  0.33995639655E-01 -0.51256674449E-01  0.43050471969E+00  0.44737262307E+00  0.10500000000E+00 0. -1.
         13    1    4    4    0    0  0.84018688585E-01 -0.18974701871E+00  0.45244309415E+00  0.50871684126E+00  0.10500000000E+00 0.  1.
    3000001    1    5    5    0    0  0.27555159462E+02  0.10832576265E+02 -0.18779625507E+01  0.29684310079E+02  0.10000000000E+01 0. -1.
        -13    1    6    6    0    0  0.93487913233E+01  0.65736314547E+01 -0.32500147357E+01  0.11882177851E+02  0.10500000000E+00 0.  1.
         13    1    6    6    0    0  0.16417148593E+02  0.11702265056E+02 -0.56333945012E+01  0.20933512223E+02  0.10500000000E+00 0. -1.
</event>
<event>
11    0  0.3448258E-009  0.9118800E+02  0.7816531E-02  0.1126479E+00
         25   -1    0    0    0    0  0.00000000000E+00  0.00000000000E+00  0.99999998245E-14  0.12500000000E+03  0.12500000000E+03 0.  0.
    3000001    1    3    3    0    0 -0.45914293139E+02  0.47775879902E+01 -0.28419276858E+02  0.54218105450E+02  0.10000000000E+01 0.  1.
    1000022    2    1    0    0    0 -0.54018157234E+02  0.35601324264E+01 -0.29590780278E+02  0.62499997917E+02  0.99999804135E+01 0.  0.
    3000022    2    3    3    0    0 -0.81038640949E+01 -0.12174555637E+01 -0.11715034198E+01  0.82818924665E+01  0.25002248897E+00 0.  0.
    1000022    2    1    0    0    0  0.54018157234E+02 -0.35601324264E+01  0.29590780278E+02  0.62500002083E+02  0.10000006456E+02 0.  0.
    3000022    2    5    5    0    0  0.44976568702E+02 -0.57813346222E+00  0.27434337997E+02  0.52687108304E+02  0.25001928501E+00 0.  0.
        -13    1    4    4    0    0 -0.21390337438E+01 -0.28897870824E+00 -0.29970516874E+00  0.21817016843E+01  0.10500000000E+00 0. -1.
         13    1    4    4    0    0 -0.59648303511E+01 -0.92847685551E+00 -0.87179825108E+00  0.61001907822E+01  0.10500000000E+00 0.  1.
    3000001    1    5    5    0    0  0.90415885325E+01 -0.29819989642E+01  0.21564422809E+01  0.98128937793E+01  0.10000000000E+01 0. -1.
        -13    1    6    6    0    0  0.30938581583E+02 -0.37606387025E+00  0.18922702994E+02  0.36268677506E+02  0.10500000000E+00 0.  1.
         13    1    6    6    0    0  0.14037987118E+02 -0.20206959196E+00  0.85116350027E+01  0.16418430798E+02  0.10500000000E+00 0. -1.
</event>
<event>
11    0  0.3448258E-009  0.9118800E+02  0.7816531E-02  0.1126479E+00
         25   -1    0    0    0    0  0.00000000000E+00  0.00000000000E+00  0.99999998245E-14  0.12500000000E+03  0.12500000000E+03 0.  0.
    3000001    1    3    3    0    0 -0.23569493513E+02 -0.24349690168E+02  0.19604971466E+02  0.39163546085E+02  0.10000000000E+01 0.  1.
    1000022    2    1    0    0    0 -0.42803947837E+02 -0.35388681032E+02  0.26864722593E+02  0.62499999056E+02  0.99999933195E+01 0.  0.
    3000022    2    3    3    0    0 -0.19234454324E+02 -0.11038990864E+02  0.72597511270E+01  0.23336452972E+02  0.24999685667E+00 0.  0.
    1000022    2    1    0    0    0  0.42803947837E+02  0.35388681032E+02 -0.26864722593E+02  0.62500000944E+02  0.10000005115E+02 0.  0.
    3000022    2    5    5    0    0  0.28156086318E+01  0.64609644992E+01 -0.28916978964E+01  0.76220821662E+01  0.25001119387E+00 0.  0.
        -13    1    4    4    0    0 -0.69808410956E+01 -0.40674407681E+01  0.26716772100E+01  0.85102938209E+01  0.10500000000E+00 0.  1.
         13    1    4    4    0    0 -0.12253613228E+02 -0.69715500959E+01  0.45880739170E+01  0.14826159151E+02  0.10500000000E+00 0. -1.
    3000001    1    5    5    0    0  0.39988339206E+02  0.28927716533E+02 -0.23973024696E+02  0.54877918777E+02  0.10000000000E+01 0.  1.
        -13    1    6    6    0    0  0.99920413482E+00  0.21626622224E+01 -0.99511591761E+00  0.25839499764E+01  0.10500000000E+00 0. -1.
         13    1    6    6    0    0  0.18164044969E+01  0.42983022769E+01 -0.18965819788E+01  0.50381321898E+01  0.10500000000E+00 0.  1.
</event>
<event>
11    0  0.3448258E-009  0.9118800E+02  0.7816531E-02  0.1126479E+00
         25   -1    0    0    0    0  0.00000000000E+00  0.00000000000E+00  0.99999998245E-14  0.12500000000E+03  0.12500000000E+03 0.  0.
    3000001    1    3    3    0    0  0.63752155755E+01 -0.54055719472E+00  0.51915608223E+01  0.82998722573E+01  0.10000000000E+01 0.  1.
    1000022    2    1    0    0    0  0.57574036249E+02  0.86751413225E+01  0.20401524345E+02  0.62499999844E+02  0.10000002895E+02 0.  0.
    3000022    2    3    3    0    0  0.51198820673E+02  0.92156985172E+01  0.15209963523E+02  0.54200127586E+02  0.25000501195E+00 0.  0.
    1000022    2    1    0    0    0 -0.57574036249E+02 -0.86751413225E+01 -0.20401524345E+02  0.62500000156E+02  0.10000004850E+02 0.  0.
    3000022    2    5    5    0    0 -0.28670552749E+02  0.67486282576E+00 -0.10176461895E+02  0.30431544657E+02  0.24999750613E+00 0.  0.
        -13    1    4    4    0    0  0.27565267316E+02  0.49120287108E+01  0.82343705187E+01  0.29185405104E+02  0.10500000000E+00 0.  1.
         13    1    4    4    0    0  0.23633553358E+02  0.43036698064E+01  0.69755930038E+01  0.25014722483E+02  0.10500000000E+00 0. -1.
    3000001    1    5    5    0    0 -0.28903483500E+02 -0.93500041482E+01 -0.10225062449E+02  0.32068455499E+02  0.10000000000E+01 0.  1.
        -13    1    6    6    0    0 -0.12982617546E+02  0.24210257544E+00 -0.45855734500E+01  0.13771182987E+02  0.10500000000E+00 0. -1.
         13    1    6    6    0    0 -0.15687935203E+02  0.43276025032E+00 -0.55908884455E+01  0.16660361670E+02  0.10500000000E+00 0.  1.
</event>
<event>
11    0  0.3448258E-009  0.9118800E+02  0.7816531E-02  0.1126479E+00
         25   -1    0    0    0    0  0.00000000000E+00  0.00000000000E+00  0.99999998245E-14  0.12500000000E+03  0.12500000000E+03 0.  0.
    3000001    1    3    3    0    0 -0.38578192838E+02 -0.17648932377E+02  0.66160401520E+01  0.42948035624E+02  0.10000000000E+01 0. -1.
    1000022    2    1    0    0    0 -0.52819673664E+02 -0.28204122415E+02  0.14861341002E+02  0.62500000558E+02  0.10000008314E+02 0.  0.
    3000022    2    3    3    0    0 -0.14241480826E+02 -0.10555190038E+02  0.82453008497E+01  0.19551964934E+02  0.25006766053E+00 0.  0.
    1000022    2    1    0    0    0  0.52819673664E+02  0.28204122415E+02 -0.14861341002E+02  0.62499999442E+02  0.10000001333E+02 0.  0.
    3000022    2    5    5    0    0  0.36150692085E+02  0.22550897641E+02 -0.69306051717E+01  0.43168406956E+02  0.25009684034E+00 0.  0.
        -13    1    4    4    0    0 -0.69849158832E+01 -0.52296995915E+01  0.41170746286E+01  0.96488411849E+01  0.10500000000E+00 0.  1.
         13    1    4    4    0    0 -0.72565649429E+01 -0.53254904464E+01  0.41282262211E+01  0.99031237494E+01  0.10500000000E+00 0. -1.
    3000001    1    5    5    0    0  0.16668981578E+02  0.56532247738E+01 -0.79307358300E+01  0.19331592485E+02  0.10000000000E+01 0. -1.
        -13    1    6    6    0    0  0.96522779531E+01  0.60090771204E+01 -0.18157770324E+01  0.11514492987E+02  0.10500000000E+00 0.  1.
         13    1    6    6    0    0  0.26498414132E+02  0.16541820521E+02 -0.51148281393E+01  0.31653913969E+02  0.10500000000E+00 0. -1.
</event>
<event>
11    0  0.3448258E-009  0.9118800E+02  0.7816531E-02  0.1126479E+00
         25   -1    0    0    0    0  0.00000000000E+00  0.00000000000E+00  0.99999998245E-14  0.12500000000E+03  0.12500000000E+03 0.  0.
    3000001    1    3    3    0    0 -0.24830941888E+02  0.48623738317E+02 -0.32770304531E+01  0.54704501932E+02  0.10000000000E+01 0.  1.
    1000022    2    1    0    0    0 -0.30916603935E+02  0.53347487586E+02 -0.21116185650E+01  0.62499999008E+02  0.10000005623E+02 0.  0.
    3000022    2    3    3    0    0 -0.60856620473E+01  0.47237492688E+01  0.11654118881E+01  0.77954970769E+01  0.25000019634E+00 0.  0.
    1000022    2    1    0    0    0  0.30916603935E+02 -0.53347487586E+02  0.21116185650E+01  0.62500000992E+02  0.10000018017E+02 0.  0.
    3000022    2    5    5    0    0  0.78792696359E+01 -0.20420317053E+02 -0.25280946136E+01  0.22034654467E+02  0.24999316968E+00 0.  0.
        -13    1    4    4    0    0 -0.17934715850E+01  0.13906849612E+01  0.29874556112E+00  0.22914665386E+01  0.10500000000E+00 0. -1.
         13    1    4    4    0    0 -0.42921904623E+01  0.33330643076E+01  0.86666632699E+00  0.55040305382E+01  0.10500000000E+00 0.  1.
    3000001    1    5    5    0    0  0.23037334299E+02 -0.32927170533E+02  0.46397131787E+01  0.40465346524E+02  0.10000000000E+01 0.  1.
        -13    1    6    6    0    0  0.52165031939E+01 -0.13519343730E+02 -0.16189307197E+01  0.14581375865E+02  0.10500000000E+00 0.  1.
         13    1    6    6    0    0  0.26627664420E+01 -0.69009733230E+01 -0.90916389393E+00  0.74532786018E+01  0.10500000000E+00 0. -1.
</event>
<event>
11    0  0.3448258E-009  0.9118800E+02  0.7816531E-02  0.1126479E+00
         25   -1    0    0    0    0  0.00000000000E+00  0.00000000000E+00  0.99999998245E-14  0.12500000000E+03  0.12500000000E+03 0.  0.
    3000001    1    3    3    0    0 -0.23468726116E+02  0.13272924219E+02 -0.48637542126E+02  0.55619799774E+02  0.10000000000E+01 0. -1.
    1000022    2    1    0    0    0 -0.29011457913E+02  0.13787872986E+02 -0.52673331374E+02  0.62500000303E+02  0.10000003403E+02 0.  0.
    3000022    2    3    3    0    0 -0.55427317976E+01  0.51494876632E+00 -0.40357892476E+01  0.68802005284E+01  0.25003289254E+00 0.  0.
    1000022    2    1    0    0    0  0.29011457913E+02 -0.13787872986E+02  0.52673331374E+02  0.62499999697E+02  0.99999996196E+01 0.  0.
    3000022    2    5    5    0    0  0.14975486718E+01 -0.21084025142E+01  0.10384089947E+02  0.10704197042E+02  0.24999419347E+00 0.  0.
        -13    1    4    4    0    0 -0.38495952120E+01  0.35445110479E+00 -0.27428196072E+01  0.47412132708E+01  0.10500000000E+00 0. -1.
         13    1    4    4    0    0 -0.16931365857E+01  0.16049766153E+00 -0.12929696403E+01  0.21389872575E+01  0.10500000000E+00 0.  1.
    3000001    1    5    5    0    0  0.27513909242E+02 -0.11679470471E+02  0.42289241427E+02  0.51795802656E+02  0.10000000000E+01 0. -1.
        -13    1    6    6    0    0  0.92110856074E+00 -0.12474777630E+01  0.59839559898E+01  0.61825072614E+01  0.10500000000E+00 0. -1.
         13    1    6    6    0    0  0.57644011103E+00 -0.86092475120E+00  0.44001339571E+01  0.45216897803E+01  0.10500000000E+00 0.  1.
</event>
<event>
11    0  0.3448258E-009  0.9118800E+02  0.7816531E-02  0.1126479E+00
         25   -1    0    0    0    0  0.00000000000E+00  0.00000000000E+00  0.99999998245E-14  0.12500000000E+03  0.12500000000E+03 0.  0.
    3000001    1    3    3    0    0  0.60460701858E+01 -0.41511564792E+01 -0.34034163437E+01  0.81467973839E+01  0.10000000000E+01 0. -1.
    1000022    2    1    0    0    0  0.57988859608E+02 -0.19481387444E+02 -0.80010973534E+01  0.62499999039E+02  0.10000001281E+02 0.  0.
    3000022    2    3    3    0    0  0.51942789422E+02 -0.15330230965E+02 -0.45976810097E+01  0.54353201655E+02  0.25001016881E+00 0.  0.
    1000022    2    1    0    0    0 -0.57988859608E+02  0.19481387444E+02  0.80010973534E+01  0.62500000961E+02  0.10000013294E+02 0.  0.
    3000022    2    5    5    0    0 -0.13864778942E+02  0.72140101859E+01 -0.15447551220E+01  0.15707412457E+02  0.24999926763E+00 0.  0.
        -13    1    4    4    0    0  0.39354670045E+02 -0.11617277030E+02 -0.34622670530E+01  0.41179479090E+02  0.10500000000E+00 0.  1.
         13    1    4    4    0    0  0.12588119377E+02 -0.37129539347E+01 -0.11354139567E+01  0.13173722565E+02  0.10500000000E+00 0. -1.
    3000001    1    5    5    0    0 -0.44124080666E+02  0.12267377258E+02  0.95458524754E+01  0.46792588504E+02  0.10000000000E+01 0. -1.
        -13    1    6    6    0    0 -0.10021061200E+02  0.52487334937E+01 -0.11410288424E+01  0.11370305303E+02  0.10500000000E+00 0.  1.
         13    1    6    6    0    0 -0.38437177420E+01  0.19652766922E+01 -0.40372627962E+00  0.43371071541E+01  0.10500000000E+00 0. -1.
</event>
<event>
11    0  0.3448258E-009  0.9118800E+02  0.7816531E-02  0.1126479E+00
         25   -1    0    0    0    0  0.00000000000E+00  0.00000000000E+00  0.99999998245E-14  0.12500000000E+03  0.12500000000E+03 0.  0.
    3000001    1    3    3    0    0  0.17894442862E+01 -0.29782523871E+01 -0.15282528875E+02  0.15704387507E+02  0.10000000000E+01 0. -1.
    1000022    2    1    0    0    0 -0.10070130556E+01  0.29514228483E+01 -0.61615947237E+02  0.62500000332E+02  0.10000005771E+02 0.  0.
    3000022    2    3    3    0    0 -0.27964573419E+01  0.59296752353E+01 -0.46333418362E+02  0.46795612825E+02  0.25000104956E+00 0.  0.
    1000022    2    1    0    0    0  0.10070130556E+01 -0.29514228483E+01  0.61615947237E+02  0.62499999668E+02  0.10000001623E+02 0.  0.
    3000022    2    5    5    0    0  0.23662866473E+01  0.16373894295E+01  0.58912815063E+01  0.65612546551E+01  0.25001644183E+00 0.  0.
        -13    1    4    4    0    0 -0.20387215226E+01  0.43943100683E+01 -0.34143229299E+02  0.34485322651E+02  0.10500000000E+00 0. -1.
         13    1    4    4    0    0 -0.75773581924E+00  0.15353651670E+01 -0.12190189063E+02  0.12310290174E+02  0.10500000000E+00 0.  1.
    3000001    1    5    5    0    0 -0.13592735917E+01 -0.45888122778E+01  0.55724665731E+02  0.55938745013E+02  0.10000000000E+01 0.  1.
        -13    1    6    6    0    0  0.12719044340E+01  0.81963438032E+00  0.31988431020E+01  0.35402208403E+01  0.10500000000E+00 0.  1.
         13    1    6    6    0    0  0.10943822133E+01  0.81775504922E+00  0.26924384043E+01  0.30210338148E+01  0.10500000000E+00 0. -1.
</event>
<event>
11    0  0.3448258E-009  0.9118800E+02  0.7816531E-02  0.1126479E+00
         25   -1    0    0    0    0  0.00000000000E+00  0.00000000000E+00  0.99999998245E-14  0.12500000000E+03  0.12500000000E+03 0.  0.
    3000001    1    3    3    0    0 -0.44907614090E+02 -0.30271337025E+02 -0.24859198495E+02  0.59598887560E+02  0.10000000000E+01 0.  1.
    1000022    2    1    0    0    0 -0.45371509830E+02 -0.33012941328E+02 -0.25648063690E+02  0.62499991165E+02  0.99998762611E+01 0.  0.
    3000022    2    3    3    0    0 -0.46389573972E+00 -0.27416043024E+01 -0.78886519494E+00  0.29011036051E+01  0.25000084714E+00 0.  0.
    1000022    2    1    0    0    0  0.45371509830E+02  0.33012941328E+02  0.25648063690E+02  0.62500008835E+02  0.99999867016E+01 0.  0.
    3000022    2    5    5    0    0  0.34560095994E+02  0.29426912371E+02  0.18511374608E+02  0.49021188269E+02  0.25000523043E+00 0.  0.
        -13    1    4    4    0    0 -0.30938530425E+00 -0.18826318645E+01 -0.59068588661E+00  0.19999892050E+01  0.10500000000E+00 0. -1.
         13    1    4    4    0    0 -0.15451043547E+00 -0.85897243789E+00 -0.19817930833E+00  0.90111440005E+00  0.10500000000E+00 0.  1.
    3000001    1    5    5    0    0  0.10811413835E+02  0.35860289566E+01  0.71366890824E+01  0.13478820566E+02  0.10000000000E+01 0.  1.
        -13    1    6    6    0    0  0.15823912410E+02  0.13556774406E+02  0.85215460417E+01  0.22512443408E+02  0.10500000000E+00 0. -1.
         13    1    6    6    0    0  0.18736183584E+02  0.15870137965E+02  0.99898285659E+01  0.26508744861E+02  0.10500000000E+00 0.  1.
</event>
<event>
11    0  0.3448258E-009  0.9118800E+02  0.7816531E-02  0.1126479E+00
         25   -1    0    0    0    0  0.00000000000E+00  0.00000000000E+00  0.99999998245E-14  0.12500000000E+03  0.12500000000E+03 0.  0.
    3000001    1    3    3    0    0 -0.71019394462E+00 -0.24264639982E+02 -0.14341437688E+02  0.28212656093E+02  0.10000000000E+01 0.  1.
    1000022    2    1    0    0    0  0.90373714309E+01 -0.51489158774E+02 -0.32763434076E+02  0.62499999258E+02  0.99999870556E+01 0.  0.
    3000022    2    3    3    0    0  0.97475653755E+01 -0.27224518793E+02 -0.18421996388E+02  0.34287343165E+02  0.24999224853E+00 0.  0.
    1000022    2    1    0    0    0 -0.90373714309E+01  0.51489158774E+02  0.32763434076E+02  0.62500000742E+02  0.99999963345E+01 0.  0.
    3000022    2    5    5    0    0  0.11326163616E+01  0.21522891507E+02  0.13842291563E+02  0.25616190478E+02  0.25000048192E+00 0.  0.
        -13    1    4    4    0    0  0.40498313122E+01 -0.11356223274E+02 -0.77554269579E+01  0.14336059884E+02  0.10500000000E+00 0. -1.
         13    1    4    4    0    0  0.56977340633E+01 -0.15868295519E+02 -0.10666569430E+02  0.19951283280E+02  0.10500000000E+00 0.  1.
    3000001    1    5    5    0    0 -0.10169987792E+02  0.29966267268E+02  0.18921142513E+02  0.36883810265E+02  0.10000000000E+01 0.  1.
        -13    1    6    6    0    0  0.43357109592E+00  0.94935870585E+01  0.61107186057E+01  0.11299030313E+02  0.10500000000E+00 0.  1.
         13    1    6    6    0    0  0.69904526564E+00  0.12029304448E+02  0.77315729575E+01  0.14317160165E+02  0.10500000000E+00 0. -1.
</event>
<event>
11    0  0.3448258E-009  0.9118800E+02  0.7816531E-02  0.1126479E+00
         25   -1    0    0    0    0  0.00000000000E+00  0.00000000000E+00  0.99999998245E-14  0.12500000000E+03  0.12500000000E+03 0.  0.
    3000001    1    3    3    0    0 -0.25438656649E+00 -0.83140326861E+00  0.45446070933E+00  0.14008848834E+01  0.10000000000E+01 0.  1.
    1000022    2    1    0    0    0  0.35583792512E+02 -0.48960674866E+02  0.11953913830E+02  0.62499999360E+02  0.99999945652E+01 0.  0.
    3000022    2    3    3    0    0  0.35838179079E+02 -0.48129271598E+02  0.11499453120E+02  0.61099114477E+02  0.25000723977E+00 0.  0.
    1000022    2    1    0    0    0 -0.35583792512E+02  0.48960674866E+02 -0.11953913830E+02  0.62500000640E+02  0.10000002559E+02 0.  0.
    3000022    2    5    5    0    0 -0.83338606985E+01  0.12245052249E+02 -0.73432261090E+01  0.16534207170E+02  0.24999665936E+00 0.  0.
        -13    1    4    4    0    0  0.24953680848E+02 -0.33582060119E+02  0.80382935075E+01  0.42603593008E+02  0.10500000000E+00 0.  1.
         13    1    4    4    0    0  0.10884498230E+02 -0.14547211479E+02  0.34611596128E+01  0.18495521469E+02  0.10500000000E+00 0. -1.
    3000001    1    5    5    0    0 -0.27249931814E+02  0.36715622617E+02 -0.46106877206E+01  0.45965793469E+02  0.10000000000E+01 0.  1.
        -13    1    6    6    0    0 -0.58256504243E+01  0.86230348195E+01 -0.51895880987E+01  0.11629178045E+02  0.10500000000E+00 0.  1.
         13    1    6    6    0    0 -0.25082102742E+01  0.36220174295E+01 -0.21536380104E+01  0.49050291252E+01  0.10500000000E+00 0. -1.
</event>
<event>
11    0  0.3448258E-009  0.9118800E+02  0.7816531E-02  0.1126479E+00
         25   -1    0    0    0    0  0.00000000000E+00  0.00000000000E+00  0.99999998245E-14  0.12500000000E+03  0.12500000000E+03 0.  0.
    3000001    1    3    3    0    0  0.52898875549E+00 -0.29811754259E+01  0.46002842949E+01  0.55973075328E+01  0.10000000000E+01 0.  1.
    1000022    2    1    0    0    0 -0.12260715577E+02 -0.10787135279E+02  0.59494222294E+02  0.62500000734E+02  0.10000008570E+02 0.  0.
    3000022    2    3    3    0    0 -0.12789704332E+02 -0.78059598536E+01  0.54893937999E+02  0.56902693201E+02  0.25003671785E+00 0.  0.
    1000022    2    1    0    0    0  0.12260715577E+02  0.10787135279E+02 -0.59494222294E+02  0.62499999266E+02  0.99999993927E+01 0.  0.
    3000022    2    5    5    0    0 -0.13353276650E+01  0.27443045810E+01 -0.13997205381E+02  0.14328243377E+02  0.24998433947E+00 0.  0.
        -13    1    4    4    0    0 -0.77788215637E+01 -0.47829514042E+01  0.33246519458E+02  0.34477946141E+02  0.10500000000E+00 0.  1.
         13    1    4    4    0    0 -0.50108827685E+01 -0.30230084494E+01  0.21647418541E+02  0.22424747060E+02  0.10500000000E+00 0. -1.
    3000001    1    5    5    0    0  0.13596043242E+02  0.80428306985E+01 -0.45497016913E+02  0.48171755889E+02  0.10000000000E+01 0. -1.
        -13    1    6    6    0    0 -0.34645569203E+00  0.79750520628E+00 -0.39205553538E+01  0.40171912306E+01  0.10500000000E+00 0. -1.
         13    1    6    6    0    0 -0.98887197294E+00  0.19467993747E+01 -0.10076650027E+02  0.10311052146E+02  0.10500000000E+00 0.  1.
</event>
<event>
11    0  0.3448258E-009  0.9118800E+02  0.7816531E-02  0.1126479E+00
         25   -1    0    0    0    0  0.00000000000E+00  0.00000000000E+00  0.99999998245E-14  0.12500000000E+03  0.12500000000E+03 0.  0.
    3000001    1    3    3    0    0  0.73671866442E+01 -0.58879159318E+00 -0.16664444147E+02  0.18257212638E+02  0.10000000000E+01 0. -1.
    1000022    2    1    0    0    0  0.11422063966E+02 -0.78469401244E+01 -0.60118315363E+02  0.62499999349E+02  0.10000003101E+02 0.  0.
    3000022    2    3    3    0    0  0.40548773219E+01 -0.72581485313E+01 -0.43453871216E+02  0.44242786711E+02  0.25000420927E+00 0.  0.
    1000022    2    1    0    0    0 -0.11422063966E+02  0.78469401244E+01  0.60118315363E+02  0.62500000651E+02  0.10000011233E+02 0.  0.
    3000022    2    5    5    0    0 -0.62342247348E+01  0.96318719063E+01  0.38502954348E+02  0.40176840275E+02  0.24997293503E+00 0.  0.
        -13    1    4    4    0    0  0.22928678719E+01 -0.40720170676E+01 -0.24763324174E+02  0.25200631246E+02  0.10500000000E+00 0.  1.
         13    1    4    4    0    0  0.17620094500E+01 -0.31861314636E+01 -0.18690547043E+02  0.19042155465E+02  0.10500000000E+00 0. -1.
    3000001    1    5    5    0    0 -0.51878392312E+01 -0.17849317818E+01  0.21615361015E+02  0.22323160375E+02  0.10000000000E+01 0.  1.
        -13    1    6    6    0    0 -0.39809938164E+01  0.61349051903E+01  0.24742498141E+02  0.25800922710E+02  0.10500000000E+00 0. -1.
         13    1    6    6    0    0 -0.22532309184E+01  0.34969667160E+01  0.13760456208E+02  0.14375917565E+02  0.10500000000E+00 0.  1.
</event>
<event>
11    0  0.3448258E-009  0.9118800E+02  0.7816531E-02  0.1126479E+00
         25   -1    0    0    0    0  0.00000000000E+00  0.00000000000E+00  0.99999998245E-14  0.12500000000E+03  0.12500000000E+03 0.  0.
    3000001    1    3    3    0    0  0.44019943176E+02  0.15109483916E+02 -0.42174099427E+01  0.46742255487E+02  0.10000000000E+01 0.  1.
    1000022    2    1    0    0    0  0.57544115001E+02  0.22243021581E+02 -0.41564384323E+00  0.62499999850E+02  0.10000002063E+02 0.  0.
    3000022    2    3    3    0    0  0.13524171825E+02  0.71335376654E+01  0.38017660994E+01  0.15757744363E+02  0.24999755345E+00 0.  0.
    1000022    2    1    0    0    0 -0.57544115001E+02 -0.22243021581E+02  0.41564384323E+00  0.62500000150E+02  0.10000003932E+02 0.  0.
    3000022    2    5    5    0    0 -0.64946068312E+01 -0.61509732396E+01 -0.41943000950E+00  0.89583934078E+01  0.25000245690E+00 0.  0.
        -13    1    4    4    0    0  0.45126397439E+01  0.23382513261E+01  0.13032616286E+01  0.52479379374E+01  0.10500000000E+00 0. -1.
         13    1    4    4    0    0  0.90115320810E+01  0.47952863393E+01  0.24985044708E+01  0.10509806426E+02  0.10500000000E+00 0.  1.
    3000001    1    5    5    0    0 -0.51049508169E+02 -0.16092048341E+02  0.83507385273E+00  0.53541606742E+02  0.10000000000E+01 0.  1.
        -13    1    6    6    0    0 -0.26153616946E+01 -0.25645342825E+01 -0.16488701710E+00  0.36681283522E+01  0.10500000000E+00 0. -1.
         13    1    6    6    0    0 -0.38792451366E+01 -0.35864389571E+01 -0.25454299240E+00  0.52902650555E+01  0.10500000000E+00 0.  1.
</event>
<event>
11    0  0.3448258E-009  0.9118800E+02  0.7816531E-02  0.1126479E+00
         25   -1    0    0    0    0  0.00000000000E+00  0.00000000000E+00  0.99999998245E-14  0.12500000000E+03  0.12500000000E+03 0.  0.
    3000001    1    3    3    0    0 -0.13984294675E+01  0.30319504929E+01  0.97668074640E+00  0.36197008229E+01  0.10000000000E+01 0. -1.
    1000022    2    1    0    0    0 -0.41449805636E+02  0.26968972822E+02  0.36889539432E+02  0.62500000485E+02  0.10000002939E+02 0.  0.
    3000022    2    3    3    0    0 -0.40051376168E+02  0.23937022329E+02  0.35912858686E+02  0.58880299662E+02  0.24999670788E+00 0.  0.
    1000022    2    1    0    0    0  0.41449805636E+02 -0.26968972822E+02 -0.36889539432E+02  0.62499999515E+02  0.99999968811E+01 0.  0.
    3000022    2    5    5    0    0  0.19004112567E+01 -0.30506972868E+01 -0.56620629831E+01  0.67111674280E+01  0.24998828286E+00 0.  0.
        -13    1    4    4    0    0 -0.30135948350E+02  0.17990086810E+02  0.26991532199E+02  0.44276093344E+02  0.10500000000E+00 0. -1.
         13    1    4    4    0    0 -0.99154278184E+01  0.59469355192E+01  0.89213264864E+01  0.14604206318E+02  0.10500000000E+00 0.  1.
    3000001    1    5    5    0    0  0.39549394379E+02 -0.23918275535E+02 -0.31227476449E+02  0.55788832087E+02  0.10000000000E+01 0.  1.
        -13    1    6    6    0    0  0.14438719814E+01 -0.23423946523E+01 -0.43397393270E+01  0.51396440959E+01  0.10500000000E+00 0.  1.
         13    1    6    6    0    0  0.45653927531E+00 -0.70830263451E+00 -0.13223236561E+01  0.15715233322E+01  0.10500000000E+00 0. -1.
</event>
<event>
11    0  0.3448258E-009  0.9118800E+02  0.7816531E-02  0.1126479E+00
         25   -1    0    0    0    0  0.00000000000E+00  0.00000000000E+00  0.99999998245E-14  0.12500000000E+03  0.12500000000E+03 0.  0.
    3000001    1    3    3    0    0  0.12704242768E+02 -0.12308707663E+02  0.72810652822E+01  0.19155051038E+02  0.10000000000E+01 0.  1.
    1000022    2    1    0    0    0  0.31887508807E+02 -0.49730290544E+02  0.17785799057E+02  0.62499998736E+02  0.10000008918E+02 0.  0.
    3000022    2    3    3    0    0  0.19183266039E+02 -0.37421582881E+02  0.10504733775E+02  0.43344947697E+02  0.24999593852E+00 0.  0.
    1000022    2    1    0    0    0 -0.31887508807E+02  0.49730290544E+02 -0.17785799057E+02  0.62500001264E+02  0.10000024723E+02 0.  0.
    3000022    2    5    5    0    0 -0.13860319201E+02  0.14515506043E+02 -0.32054337498E+01  0.20325984797E+02  0.24997677215E+00 0.  0.
        -13    1    4    4    0    0  0.13500957681E+02 -0.26279173320E+02  0.74179703604E+01  0.30461584298E+02  0.10500000000E+00 0.  1.
         13    1    4    4    0    0  0.56823083585E+01 -0.11142409561E+02  0.30867634148E+01  0.12883363400E+02  0.10500000000E+00 0. -1.
    3000001    1    5    5    0    0 -0.18027189605E+02  0.35214784501E+02 -0.14580365308E+02  0.42174016468E+02  0.10000000000E+01 0.  1.
        -13    1    6    6    0    0 -0.41007743767E+01  0.42328828110E+01 -0.95237484068E+00  0.59709036349E+01  0.10500000000E+00 0. -1.
         13    1    6    6    0    0 -0.97595448245E+01  0.10282623232E+02 -0.22530589091E+01  0.14355081162E+02  0.10500000000E+00 0.  1.
</event>
<event>
11    0  0.3448258E-009  0.9118800E+02  0.7816531E-02  0.1126479E+00
         25   -1    0    0    0    0  0.00000000000E+00  0.00000000000E+00  0.99999998245E-14  0.12500000000E+03  0.12500000000E+03 0.  0.
    3000001    1    3    3    0    0  0.18599617566E+01 -0.42601859521E+02 -0.39614723089E+02  0.58212577488E+02  0.10000000000E+01 0. -1.
    1000022    2    1    0    0    0  0.40196577337E+01 -0.46101460334E+02 -0.40801319240E+02  0.62500000364E+02  0.10000005030E+02 0.  0.
    3000022    2    3    3    0    0  0.21596959771E+01 -0.34996008134E+01 -0.11865961510E+01  0.42874228766E+01  0.24998386012E+00 0.  0.
    1000022    2    1    0    0    0 -0.40196577337E+01  0.46101460334E+02  0.40801319240E+02  0.62499999636E+02  0.10000000474E+02 0.  0.
    3000022    2    5    5    0    0 -0.70597168943E+01  0.24211839871E+02  0.21548986534E+02  0.33173394678E+02  0.25000248142E+00 0.  0.
        -13    1    4    4    0    0  0.11535308713E+01 -0.17414594072E+01 -0.61247157066E+00  0.21793257588E+01  0.10500000000E+00 0. -1.
         13    1    4    4    0    0  0.10061651058E+01 -0.17581414062E+01 -0.57412458030E+00  0.21080971178E+01  0.10500000000E+00 0.  1.
    3000001    1    5    5    0    0  0.30400591606E+01  0.21889620463E+02  0.19252332707E+02  0.29326604958E+02  0.10000000000E+01 0.  1.
        -13    1    6    6    0    0 -0.49740522513E+01  0.17079179200E+02  0.15256764377E+02  0.23435431342E+02  0.10500000000E+00 0. -1.
         13    1    6    6    0    0 -0.20856646430E+01  0.71326606714E+01  0.62922221569E+01  0.97379633357E+01  0.10500000000E+00 0.  1.
</event>
<event>
11    0  0.3448258E-009  0.9118800E+02  0.7816531E-02  0.1126479E+00
         25   -1    0    0    0    0  0.00000000000E+00  0.00000000000E+00  0.99999998245E-14  0.12500000000E+03  0.12500000000E+03 0.  0.
    3000001    1    3    3    0    0 -0.40613671120E+02  0.77919203184E+01  0.10943409025E+02  0.42789513963E+02  0.10000000000E+01 0.  1.
    1000022    2    1    0    0    0 -0.60228557541E+02  0.92330922675E+01  0.96706314342E+01  0.62499998742E+02  0.99999797095E+01 0.  0.
    3000022    2    3    3    0    0 -0.19614886420E+02  0.14411719491E+01 -0.12727775907E+01  0.19710484779E+02  0.25000311993E+00 0.  0.
    1000022    2    1    0    0    0  0.60228557541E+02 -0.92330922675E+01 -0.96706314342E+01  0.62500001258E+02  0.99999954290E+01 0.  0.
    3000022    2    5    5    0    0  0.34356682588E+02 -0.12039798891E+01 -0.25517879528E+01  0.34473255251E+02  0.24999973751E+00 0.  0.
        -13    1    4    4    0    0 -0.12602070839E+02  0.98321681950E+00 -0.82588536665E+00  0.12667754986E+02  0.10500000000E+00 0. -1.
         13    1    4    4    0    0 -0.70128155813E+01  0.45795512961E+00 -0.44689222401E+00  0.70427297930E+01  0.10500000000E+00 0.  1.
    3000001    1    5    5    0    0  0.25871874953E+02 -0.80291123784E+01 -0.71188434814E+01  0.28026746006E+02  0.10000000000E+01 0. -1.
        -13    1    6    6    0    0  0.10377353229E+02 -0.37057409724E+00 -0.81679561272E+00  0.10416571666E+02  0.10500000000E+00 0.  1.
         13    1    6    6    0    0  0.23979329359E+02 -0.83340579185E+00 -0.17349923401E+01  0.24056683585E+02  0.10500000000E+00 0. -1.
</event>
<event>
11    0  0.3448258E-009  0.9118800E+02  0.7816531E-02  0.1126479E+00
         25   -1    0    0    0    0  0.00000000000E+00  0.00000000000E+00  0.99999998245E-14  0.12500000000E+03  0.12500000000E+03 0.  0.
    3000001    1    3    3    0    0 -0.84015254357E+01 -0.57758092710E+02 -0.11846707764E+02  0.59564480926E+02  0.10000000000E+01 0.  1.
    1000022    2    1    0    0    0 -0.10693504852E+02 -0.59471465244E+02 -0.12451655146E+02  0.62500000910E+02  0.10000008680E+02 0.  0.
    3000022    2    3    3    0    0 -0.22919794160E+01 -0.17133725341E+01 -0.60494738171E+00  0.29355199841E+01  0.25000231651E+00 0.  0.
    1000022    2    1    0    0    0  0.10693504852E+02  0.59471465244E+02  0.12451655146E+02  0.62499999090E+02  0.99999973060E+01 0.  0.
    3000022    2    5    5    0    0 -0.11117609226E+01  0.20037805208E+02  0.38468425861E+01  0.20435517125E+02  0.25002473327E+00 0.  0.
        -13    1    4    4    0    0 -0.12488645291E+01 -0.85231206456E+00 -0.30109710832E+00  0.15452452673E+01  0.10500000000E+00 0.  1.
         13    1    4    4    0    0 -0.10431148869E+01 -0.86106046958E+00 -0.30385027339E+00  0.13902747168E+01  0.10500000000E+00 0. -1.
    3000001    1    5    5    0    0  0.11805265774E+02  0.39433660036E+02  0.86048125597E+01  0.42064481965E+02  0.10000000000E+01 0.  1.
        -13    1    6    6    0    0 -0.68811043751E+00  0.12148021541E+02  0.22703300500E+01  0.12377937909E+02  0.10500000000E+00 0. -1.
         13    1    6    6    0    0 -0.42365048511E+00  0.78897836673E+01  0.15765125361E+01  0.80575792163E+01  0.10500000000E+00 0.  1.
</event>
<event>
11    0  0.3448258E-009  0.9118800E+02  0.7816531E-02  0.1126479E+00
         25   -1    0    0    0    0  0.00000000000E+00  0.00000000000E+00  0.99999998245E-14  0.12500000000E+03  0.12500000000E+03 0.  0.
    3000001    1    3    3    0    0 -0.23544137447E+02 -0.39789652063E+01 -0.27847364695E+02  0.36696516084E+02  0.10000000000E+01 0. -1.
    1000022    2    1    0    0    0 -0.40063921784E+02 -0.14584709108E+02 -0.44591684619E+02  0.62500000854E+02  0.10000010058E+02 0.  0.
    3000022    2    3    3    0    0 -0.16519784337E+02 -0.10605743901E+02 -0.16744319924E+02  0.25803484770E+02  0.24999667847E+00 0.  0.
    1000022    2    1    0    0    0  0.40063921784E+02  0.14584709108E+02  0.44591684619E+02  0.62499999146E+02  0.99999993806E+01 0.  0.
    3000022    2    5    5    0    0  0.51507646223E+01 -0.13722437133E+01  0.65282958555E+01  0.84317603130E+01  0.25001239219E+00 0.  0.
        -13    1    4    4    0    0 -0.90567797385E+01 -0.58936465369E+01 -0.92142847525E+01  0.14201211119E+02  0.10500000000E+00 0.  1.
         13    1    4    4    0    0 -0.74630045984E+01 -0.47120973645E+01 -0.75300351715E+01  0.11602273652E+02  0.10500000000E+00 0. -1.
    3000001    1    5    5    0    0  0.34913157162E+02  0.15956952821E+02  0.38063388763E+02  0.54068238833E+02  0.10000000000E+01 0. -1.
        -13    1    6    6    0    0  0.19933977451E+01 -0.54051569933E+00  0.26275875493E+01  0.33438051858E+01  0.10500000000E+00 0.  1.
         13    1    6    6    0    0  0.31573668772E+01 -0.83172801401E+00  0.39007083061E+01  0.50879551272E+01  0.10500000000E+00 0. -1.
</event>
<event>
11    0  0.3448258E-009  0.9118800E+02  0.7816531E-02  0.1126479E+00
         25   -1    0    0    0    0  0.00000000000E+00  0.00000000000E+00  0.99999998245E-14  0.12500000000E+03  0.12500000000E+03 0.  0.
    3000001    1    3    3    0    0 -0.21918084818E+02  0.21965746775E+02  0.37605746055E+02  0.48765649896E+02  0.10000000000E+01 0. -1.
    1000022    2    1    0    0    0 -0.32057205721E+02  0.25287939972E+02  0.46250465067E+02  0.62500001255E+02  0.10000014564E+02 0.  0.
    3000022    2    3    3    0    0 -0.10139120903E+02  0.33221931972E+01  0.86447190123E+01  0.13734351359E+02  0.25000023403E+00 0.  0.
    1000022    2    1    0    0    0  0.32057205721E+02 -0.25287939972E+02 -0.46250465067E+02  0.62499998745E+02  0.99999988782E+01 0.  0.
    3000022    2    5    5    0    0  0.19760195267E+02 -0.18627251466E+02 -0.36176545520E+02  0.45235436992E+02  0.24999990514E+00 0.  0.
        -13    1    4    4    0    0 -0.40271511820E+01  0.13653097547E+01  0.35040988488E+01  0.55110571682E+01  0.10500000000E+00 0.  1.
         13    1    4    4    0    0 -0.61119697208E+01  0.19568834424E+01  0.51406201635E+01  0.82232941903E+01  0.10500000000E+00 0. -1.
    3000001    1    5    5    0    0  0.12297010454E+02 -0.66606885065E+01 -0.10073919547E+02  0.17264561753E+02  0.10000000000E+01 0. -1.
        -13    1    6    6    0    0  0.66337880496E+01 -0.62851268200E+01 -0.12092882468E+02  0.15157796489E+02  0.10500000000E+00 0. -1.
         13    1    6    6    0    0  0.13126407217E+02 -0.12342124646E+02 -0.24083663052E+02  0.30077640503E+02  0.10500000000E+00 0.  1.
</event>
<event>
11    0  0.3448258E-009  0.9118800E+02  0.7816531E-02  0.1126479E+00
         25   -1    0    0    0    0  0.00000000000E+00  0.00000000000E+00  0.99999998245E-14  0.12500000000E+03  0.12500000000E+03 0.  0.
    3000001    1    3    3    0    0 -0.13449231197E+02  0.21710974943E+02 -0.55264083170E+01  0.26149367901E+02  0.10000000000E+01 0. -1.
    1000022    2    1    0    0    0 -0.37376843327E+02  0.44558991188E+02 -0.20584414834E+02  0.62500000985E+02  0.99999938129E+01 0.  0.
    3000022    2    3    3    0    0 -0.23927612130E+02  0.22848016246E+02 -0.15058006517E+02  0.36350633084E+02  0.24999342993E+00 0.  0.
    1000022    2    1    0    0    0  0.37376843327E+02 -0.44558991188E+02  0.20584414834E+02  0.62499999015E+02  0.99999815009E+01 0.  0.
    3000022    2    5    5    0    0  0.26718361697E+02 -0.24475849093E+02  0.11861332646E+02  0.38127309587E+02  0.24996726092E+00 0.  0.
        -13    1    4    4    0    0 -0.97286337246E+01  0.92026992945E+01 -0.61046080686E+01  0.14717786964E+02  0.10500000000E+00 0.  1.
         13    1    4    4    0    0 -0.14198978406E+02  0.13645316951E+02 -0.89533984482E+01  0.21632846120E+02  0.10500000000E+00 0. -1.
    3000001    1    5    5    0    0  0.10658481630E+02 -0.20083142096E+02  0.87230821883E+01  0.24372689428E+02  0.10000000000E+01 0.  1.
        -13    1    6    6    0    0  0.84440653408E+01 -0.77323817744E+01  0.36957506871E+01  0.12031690053E+02  0.10500000000E+00 0.  1.
         13    1    6    6    0    0  0.18274296357E+02 -0.16743467318E+02  0.81655819584E+01  0.26095619535E+02  0.10500000000E+00 0. -1.
</event>
<event>
11    0  0.3448258E-009  0.9118800E+02  0.7816531E-02  0.1126479E+00
         25   -1    0    0    0    0  0.00000000000E+00  0.00000000000E+00  0.99999998245E-14  0.12500000000E+03  0.12500000000E+03 0.  0.
    3000001    1    3    3    0    0 -0.30564045151E+02  0.13498136400E+02  0.12949271972E+02  0.35847512980E+02  0.10000000000E+01 0. -1.
    1000022    2    1    0    0    0 -0.50732437555E+02  0.30203655618E+02  0.17894386352E+02  0.62500000574E+02  0.99999987922E+01 0.  0.
    3000022    2    3    3    0    0 -0.20168392404E+02  0.16705519219E+02  0.49451143793E+01  0.26652487593E+02  0.25002834940E+00 0.  0.
    1000022    2    1    0    0    0  0.50732437555E+02 -0.30203655618E+02 -0.17894386352E+02  0.62499999426E+02  0.99999916211E+01 0.  0.
    3000022    2    5    5    0    0  0.31975484122E+02 -0.22607731123E+02 -0.15421532498E+02  0.42088326854E+02  0.25000282091E+00 0.  0.
        -13    1    4    4    0    0 -0.10160918558E+02  0.84303455686E+01  0.24248995427E+01  0.13424088615E+02  0.10500000000E+00 0. -1.
         13    1    4    4    0    0 -0.10007473846E+02  0.82751736499E+01  0.25202148366E+01  0.13228398978E+02  0.10500000000E+00 0.  1.
    3000001    1    5    5    0    0  0.18756953433E+02 -0.75959244949E+01 -0.24728538537E+01  0.20411672572E+02  0.10000000000E+01 0. -1.
        -13    1    6    6    0    0  0.86573338322E+01 -0.61097931293E+01 -0.42106015415E+01  0.11402595823E+02  0.10500000000E+00 0.  1.
         13    1    6    6    0    0  0.23318150290E+02 -0.16497937994E+02 -0.11210930956E+02  0.30685731031E+02  0.10500000000E+00 0. -1.
</event>
<event>
11    0  0.3448258E-009  0.9118800E+02  0.7816531E-02  0.1126479E+00
         25   -1    0    0    0    0  0.00000000000E+00  0.00000000000E+00  0.99999998245E-14  0.12500000000E+03  0.12500000000E+03 0.  0.
    3000001    1    3    3    0    0  0.34662381621E+02 -0.14126346813E+02 -0.25636171526E+02  0.45378934148E+02  0.10000000000E+01 0. -1.
    1000022    2    1    0    0    0  0.43044992648E+02 -0.21363577590E+02 -0.38690776345E+02  0.62499999806E+02  0.99999981042E+01 0.  0.
    3000022    2    3    3    0    0  0.83826110267E+01 -0.72372307776E+01 -0.13054604820E+02  0.17121065658E+02  0.25001065206E+00 0.  0.
    1000022    2    1    0    0    0 -0.43044992648E+02  0.21363577590E+02  0.38690776345E+02  0.62500000194E+02  0.10000000527E+02 0.  0.
    3000022    2    5    5    0    0 -0.36157455808E+02  0.15481009575E+02  0.35060151821E+02  0.52690606502E+02  0.24999968360E+00 0.  0.
        -13    1    4    4    0    0  0.25459474644E+01 -0.21431717099E+01 -0.38935312972E+01  0.51230503054E+01  0.10500000000E+00 0.  1.
         13    1    4    4    0    0  0.58366635623E+01 -0.50940590677E+01 -0.91610735224E+01  0.11998015353E+02  0.10500000000E+00 0. -1.
    3000001    1    5    5    0    0 -0.68875368396E+01  0.58825680153E+01  0.36306245244E+01  0.98093936923E+01  0.10000000000E+01 0.  1.
        -13    1    6    6    0    0 -0.16002481665E+02  0.67833910299E+01  0.15464179346E+02  0.23264687428E+02  0.10500000000E+00 0.  1.
         13    1    6    6    0    0 -0.20154974143E+02  0.86976185450E+01  0.19595972475E+02  0.29425919073E+02  0.10500000000E+00 0. -1.
</event>
<event>
11    0  0.3448258E-009  0.9118800E+02  0.7816531E-02  0.1126479E+00
         25   -1    0    0    0    0  0.00000000000E+00  0.00000000000E+00  0.99999998245E-14  0.12500000000E+03  0.12500000000E+03 0.  0.
    3000001    1    3    3    0    0  0.48311563431E+01  0.24694140121E+01  0.12089857566E+02  0.13289196106E+02  0.10000000000E+01 0.  1.
    1000022    2    1    0    0    0  0.33815912214E+02  0.22574715992E+02  0.46401683522E+02  0.62499999261E+02  0.99999976500E+01 0.  0.
    3000022    2    3    3    0    0  0.28984755871E+02  0.20105301980E+02  0.34311825956E+02  0.49210803155E+02  0.25001232476E+00 0.  0.
    1000022    2    1    0    0    0 -0.33815912214E+02 -0.22574715992E+02 -0.46401683522E+02  0.62500000739E+02  0.10000006888E+02 0.  0.
    3000022    2    5    5    0    0 -0.22145043072E+02 -0.18927640041E+02 -0.36711671306E+02  0.46866489097E+02  0.25000004860E+00 0.  0.
        -13    1    4    4    0    0  0.74754857696E+01  0.51665479528E+01  0.88760140302E+01  0.12703178945E+02  0.10500000000E+00 0. -1.
         13    1    4    4    0    0  0.21509270101E+02  0.14938754027E+02  0.25435811925E+02  0.36507624210E+02  0.10500000000E+00 0.  1.
    3000001    1    5    5    0    0 -0.11670869142E+02 -0.36470759508E+01 -0.96900122152E+01  0.15633511642E+02  0.10000000000E+01 0.  1.
        -13    1    6    6    0    0 -0.12301882141E+02 -0.10451062037E+02 -0.20268220237E+02  0.25910862172E+02  0.10500000000E+00 0. -1.
         13    1    6    6    0    0 -0.98431609315E+01 -0.84765780035E+01 -0.16443451069E+02  0.20955626925E+02  0.10500000000E+00 0.  1.
</event>
<event>
11    0  0.3448258E-009  0.9118800E+02  0.7816531E-02  0.1126479E+00
         25   -1    0    0    0    0  0.00000000000E+00  0.00000000000E+00  0.99999998245E-14  0.12500000000E+03  0.12500000000E+03 0.  0.
    3000001    1    3    3    0    0 -0.52380401756E+01 -0.21975828106E+02  0.36438247474E+01  0.22905273292E+02  0.10000000000E+01 0.  1.
    1000022    2    1    0    0    0 -0.87537644847E+01 -0.61046274336E+02 -0.17245823190E+01  0.62499999986E+02  0.99999905600E+01 0.  0.
    3000022    2    3    3    0    0 -0.35157243092E+01 -0.39070446230E+02 -0.53684070664E+01  0.39594726694E+02  0.25000301493E+00 0.  0.
    1000022    2    1    0    0    0  0.87537644847E+01  0.61046274336E+02  0.17245823190E+01  0.62500000014E+02  0.99999907303E+01 0.  0.
    3000022    2    5    5    0    0  0.56236665312E+01  0.27356451237E+02  0.54150808773E+01  0.28449721406E+02  0.24999531687E+00 0.  0.
        -13    1    4    4    0    0 -0.24173002885E+01 -0.26821253547E+02 -0.37349067425E+01  0.27187929967E+02  0.10500000000E+00 0.  1.
         13    1    4    4    0    0 -0.10984240206E+01 -0.12249192683E+02 -0.16335003239E+01  0.12406796726E+02  0.10500000000E+00 0. -1.
    3000001    1    5    5    0    0  0.31300979535E+01  0.33689823099E+02 -0.36904985583E+01  0.34050278608E+02  0.10000000000E+01 0. -1.
        -13    1    6    6    0    0  0.14738080676E+01  0.73355689809E+01  0.14399789742E+01  0.76201868048E+01  0.10500000000E+00 0.  1.
         13    1    6    6    0    0  0.41498584636E+01  0.20020882256E+02  0.39751019030E+01  0.20829534601E+02  0.10500000000E+00 0. -1.
</event>
<event>
11    0  0.3448258E-009  0.9118800E+02  0.7816531E-02  0.1126479E+00
         25   -1    0    0    0    0  0.00000000000E+00  0.00000000000E+00  0.99999998245E-14  0.12500000000E+03  0.12500000000E+03 0.  0.
    3000001    1    3    3    0    0 -0.11402829692E+02 -0.40389254973E+01 -0.13320575147E+02  0.18021519536E+02  0.10000000000E+01 0.  1.
    1000022    2    1    0    0    0 -0.48013927864E+02 -0.36048871608E+01 -0.38573532738E+02  0.62500000353E+02  0.10000006794E+02 0.  0.
    3000022    2    3    3    0    0 -0.36611098173E+02  0.43403833656E+00 -0.25252957591E+02  0.44478480817E+02  0.24998003429E+00 0.  0.
    1000022    2    1    0    0    0  0.48013927864E+02  0.36048871608E+01  0.38573532738E+02  0.62499999647E+02  0.10000002377E+02 0.  0.
    3000022    2    5    5    0    0  0.35618149584E+02 -0.14391168575E+01  0.29835302871E+02  0.46485819776E+02  0.25001150347E+00 0.  0.
        -13    1    4    4    0    0 -0.17285670402E+02  0.24054588993E+00 -0.11992907129E+02  0.21040273524E+02  0.10500000000E+00 0. -1.
         13    1    4    4    0    0 -0.19325427770E+02  0.19349244663E+00 -0.13260050462E+02  0.23438207293E+02  0.10500000000E+00 0.  1.
    3000001    1    5    5    0    0  0.12395778280E+02  0.50440040183E+01  0.87382298672E+01  0.16014179870E+02  0.10000000000E+01 0. -1.
        -13    1    6    6    0    0  0.27371612707E+02 -0.11077977544E+01  0.22939876979E+02  0.35730678399E+02  0.10500000000E+00 0. -1.
         13    1    6    6    0    0  0.82465368771E+01 -0.33131910306E+00  0.68954258917E+01  0.10755141377E+02  0.10500000000E+00 0.  1.
</event>
<event>
11    0  0.3448258E-009  0.9118800E+02  0.7816531E-02  0.1126479E+00
         25   -1    0    0    0    0  0.00000000000E+00  0.00000000000E+00  0.99999998245E-14  0.12500000000E+03  0.12500000000E+03 0.  0.
    3000001    1    3    3    0    0 -0.15693349337E+02  0.39839623874E+02 -0.24435671330E+02  0.49311042143E+02  0.10000000000E+01 0. -1.
    1000022    2    1    0    0    0 -0.23304448750E+02  0.46980789047E+02 -0.32495510486E+02  0.62499998563E+02  0.99999873777E+01 0.  0.
    3000022    2    3    3    0    0 -0.76110994132E+01  0.71411651728E+01 -0.80598391563E+01  0.13188956420E+02  0.24997984258E+00 0.  0.
    1000022    2    1    0    0    0  0.23304448750E+02 -0.46980789047E+02  0.32495510486E+02  0.62500001437E+02  0.10000005345E+02 0.  0.
    3000022    2    5    5    0    0  0.17754264469E+02 -0.25093593759E+02  0.20000934064E+02  0.36674271959E+02  0.25001139708E+00 0.  0.
        -13    1    4    4    0    0 -0.20542069187E+01  0.19552357208E+01 -0.22296267631E+01  0.36090127863E+01  0.10500000000E+00 0. -1.
         13    1    4    4    0    0 -0.55568924945E+01  0.51859294520E+01 -0.58302123931E+01  0.95799436338E+01  0.10500000000E+00 0.  1.
    3000001    1    5    5    0    0  0.55501842807E+01 -0.21887195288E+02  0.12494576422E+02  0.25825729478E+02  0.10000000000E+01 0.  1.
        -13    1    6    6    0    0  0.59796632261E+01 -0.83592088659E+01  0.66951683613E+01  0.12266582635E+02  0.10500000000E+00 0.  1.
         13    1    6    6    0    0  0.11774601243E+02 -0.16734384893E+02  0.13305765703E+02  0.24407689324E+02  0.10500000000E+00 0. -1.
</event>
<event>
11    0  0.3448258E-009  0.9118800E+02  0.7816531E-02  0.1126479E+00
         25   -1    0    0    0    0  0.00000000000E+00  0.00000000000E+00  0.99999998245E-14  0.12500000000E+03  0.12500000000E+03 0.  0.
    3000001    1    3    3    0    0  0.17820447398E+01  0.14118624438E+01 -0.57359326459E+01  0.62505969581E+01  0.10000000000E+01 0.  1.
    1000022    2    1    0    0    0 -0.85853145125E+01  0.24609346492E+02 -0.55918882475E+02  0.62500009030E+02  0.10000107577E+02 0.  0.
    3000022    2    3    3    0    0 -0.10367359252E+02  0.23197484048E+02 -0.50182949829E+02  0.56249412072E+02  0.25000186413E+00 0.  0.
    1000022    2    1    0    0    0  0.85853145125E+01 -0.24609346492E+02  0.55918882475E+02  0.62499990970E+02  0.99999946974E+01 0.  0.
    3000022    2    5    5    0    0  0.37780756083E+01 -0.19545451034E+02  0.33204460890E+02  0.38715594172E+02  0.24999539001E+00 0.  0.
        -13    1    4    4    0    0 -0.26287449369E+01  0.58983647713E+01 -0.12693425608E+02  0.14242018312E+02  0.10500000000E+00 0. -1.
         13    1    4    4    0    0 -0.77386143155E+01  0.17299119277E+02 -0.37489524220E+02  0.42007393761E+02  0.10500000000E+00 0.  1.
    3000001    1    5    5    0    0  0.48072389042E+01 -0.50638954584E+01  0.22714421585E+02  0.23784396797E+02  0.10000000000E+01 0. -1.
        -13    1    6    6    0    0  0.28963806203E+01 -0.15030009555E+02  0.25533794966E+02  0.29770386599E+02  0.10500000000E+00 0.  1.
         13    1    6    6    0    0  0.88169498797E+00 -0.45154414789E+01  0.76706659242E+01  0.89452075729E+01  0.10500000000E+00 0. -1.
</event>
<event>
11    0  0.3448258E-009  0.9118800E+02  0.7816531E-02  0.1126479E+00
         25   -1    0    0    0    0  0.00000000000E+00  0.00000000000E+00  0.99999998245E-14  0.12500000000E+03  0.12500000000E+03 0.  0.
    3000001    1    3    3    0    0 -0.33796013096E+02 -0.49948090143E+01  0.40816675489E+02  0.53236450072E+02  0.10000000000E+01 0. -1.
    1000022    2    1    0    0    0 -0.36582300387E+02 -0.36492220236E+01  0.49544611291E+02  0.62500000400E+02  0.10000000949E+02 0.  0.
    3000022    2    3    3    0    0 -0.27862872907E+01  0.13455869907E+01  0.87279358019E+01  0.92635503275E+01  0.25000018267E+00 0.  0.
    1000022    2    1    0    0    0  0.36582300387E+02  0.36492220236E+01 -0.49544611291E+02  0.62499999600E+02  0.99999959537E+01 0.  0.
    3000022    2    5    5    0    0  0.17584093080E+02  0.22643505421E+01 -0.15858906235E+02  0.23788548129E+02  0.25000458411E+00 0.  0.
        -13    1    4    4    0    0 -0.12840110500E+01  0.54728594269E+00  0.38989984012E+01  0.41426344048E+01  0.10500000000E+00 0. -1.
         13    1    4    4    0    0 -0.15022762407E+01  0.79830104800E+00  0.48289374008E+01  0.51209159227E+01  0.10500000000E+00 0.  1.
    3000001    1    5    5    0    0  0.18998207307E+02  0.13848714816E+01 -0.33685705056E+02  0.38711451471E+02  0.10000000000E+01 0. -1.
        -13    1    6    6    0    0  0.13205755527E+02  0.17259923044E+01 -0.11918317303E+02  0.17872558317E+02  0.10500000000E+00 0. -1.
         13    1    6    6    0    0  0.43783375532E+01  0.53835823763E+00 -0.39405889325E+01  0.59159898121E+01  0.10500000000E+00 0.  1.
</event>
<event>
11    0  0.3448258E-009  0.9118800E+02  0.7816531E-02  0.1126479E+00
         25   -1    0    0    0    0  0.00000000000E+00  0.00000000000E+00  0.99999998245E-14  0.12500000000E+03  0.12500000000E+03 0.  0.
    3000001    1    3    3    0    0  0.18367439342E+02  0.12955865650E+02 -0.11221497295E+02  0.25142380243E+02  0.10000000000E+01 0. -1.
    1000022    2    1    0    0    0  0.45339928643E+02  0.38055708497E+02 -0.17386893513E+02  0.62500001131E+02  0.99999998383E+01 0.  0.
    3000022    2    3    3    0    0  0.26972489301E+02  0.25099842847E+02 -0.61653962174E+01  0.37357620888E+02  0.24987569164E+00 0.  0.
    1000022    2    1    0    0    0 -0.45339928643E+02 -0.38055708497E+02  0.17386893513E+02  0.62499998869E+02  0.99999857039E+01 0.  0.
    3000022    2    5    5    0    0 -0.25060412969E+02 -0.26153366936E+02  0.13440144606E+02  0.38635772137E+02  0.25000261255E+00 0.  0.
        -13    1    4    4    0    0  0.15432424712E+02  0.14433777389E+02 -0.35738703568E+01  0.21430754456E+02  0.10500000000E+00 0.  1.
         13    1    4    4    0    0  0.11540064589E+02  0.10666065458E+02 -0.25915258606E+01  0.15926866432E+02  0.10500000000E+00 0. -1.
    3000001    1    5    5    0    0 -0.20279515674E+02 -0.11902341560E+02  0.39467489069E+01  0.23864226732E+02  0.10000000000E+01 0.  1.
        -13    1    6    6    0    0 -0.17158277184E+02 -0.17910552584E+02  0.91501963631E+01  0.26437312425E+02  0.10500000000E+00 0.  1.
         13    1    6    6    0    0 -0.79021357846E+01 -0.82428143530E+01  0.42899482426E+01  0.12198459712E+02  0.10500000000E+00 0. -1.
</event>
<event>
11    0  0.3448258E-009  0.9118800E+02  0.7816531E-02  0.1126479E+00
         25   -1    0    0    0    0  0.00000000000E+00  0.00000000000E+00  0.99999998245E-14  0.12500000000E+03  0.12500000000E+03 0.  0.
    3000001    1    3    3    0    0  0.17123171693E+02  0.19618917031E+02 -0.41945946519E+01  0.26395066558E+02  0.10000000000E+01 0. -1.
    1000022    2    1    0    0    0  0.46290726913E+02  0.37880501015E+02 -0.15115760794E+02  0.62499998314E+02  0.99999904792E+01 0.  0.
    3000022    2    3    3    0    0  0.29167555220E+02  0.18261583984E+02 -0.10921166142E+02  0.36104931756E+02  0.25000018639E+00 0.  0.
    1000022    2    1    0    0    0 -0.46290726913E+02 -0.37880501015E+02  0.15115760794E+02  0.62500001686E+02  0.10000011554E+02 0.  0.
    3000022    2    5    5    0    0 -0.31724186254E+02 -0.25302089662E+02  0.14895997990E+02  0.43226993757E+02  0.24999680617E+00 0.  0.
        -13    1    4    4    0    0  0.17428112410E+02  0.10875255480E+02 -0.64613394476E+01  0.21535324850E+02  0.10500000000E+00 0.  1.
         13    1    4    4    0    0  0.11739442810E+02  0.73863285034E+01 -0.44598266945E+01  0.14569606906E+02  0.10500000000E+00 0. -1.
    3000001    1    5    5    0    0 -0.14566540659E+02 -0.12578411353E+02  0.21976280357E+00  0.19273007929E+02  0.10000000000E+01 0.  1.
        -13    1    6    6    0    0 -0.18415245792E+02 -0.14685096165E+02  0.87152337037E+01  0.25114530664E+02  0.10500000000E+00 0.  1.
         13    1    6    6    0    0 -0.13308940462E+02 -0.10616993497E+02  0.61807642867E+01  0.18112463094E+02  0.10500000000E+00 0. -1.
</event>
<event>
11    0  0.3448258E-009  0.9118800E+02  0.7816531E-02  0.1126479E+00
         25   -1    0    0    0    0  0.00000000000E+00  0.00000000000E+00  0.99999998245E-14  0.12500000000E+03  0.12500000000E+03 0.  0.
    3000001    1    3    3    0    0 -0.88603219720E+01  0.38395095191E+02 -0.17976652329E+02  0.43322611522E+02  0.10000000000E+01 0. -1.
    1000022    2    1    0    0    0 -0.66580992905E+01  0.56543044924E+02 -0.23765596662E+02  0.62500000299E+02  0.10000011860E+02 0.  0.
    3000022    2    3    3    0    0  0.22022226815E+01  0.18147949733E+02 -0.57889443329E+01  0.19177388777E+02  0.24999906498E+00 0.  0.
    1000022    2    1    0    0    0  0.66580992905E+01 -0.56543044924E+02  0.23765596662E+02  0.62499999701E+02  0.10000008123E+02 0.  0.
    3000022    2    5    5    0    0  0.10796657837E+01 -0.20174544566E+00  0.85929955006E+00  0.14167827368E+01  0.24999635442E+00 0.  0.
        -13    1    4    4    0    0  0.11959655438E+01  0.92932747808E+01 -0.29678313546E+01  0.98292592642E+01  0.10500000000E+00 0.  1.
         13    1    4    4    0    0  0.10062571377E+01  0.88546749526E+01 -0.28211129783E+01  0.93481295123E+01  0.10500000000E+00 0. -1.
    3000001    1    5    5    0    0  0.55784335068E+01 -0.56341299479E+02  0.22906297111E+02  0.61083216964E+02  0.10000000000E+01 0. -1.
        -13    1    6    6    0    0  0.61826702823E+00 -0.14233122371E+00  0.56762150485E+00  0.85774790481E+00  0.10500000000E+00 0.  1.
         13    1    6    6    0    0  0.46139875546E+00 -0.59414221949E-01  0.29167804521E+00  0.55903483198E+00  0.10500000000E+00 0. -1.
</event>
<event>
11    0  0.3448258E-009  0.9118800E+02  0.7816531E-02  0.1126479E+00
         25   -1    0    0    0    0  0.00000000000E+00  0.00000000000E+00  0.99999998245E-14  0.12500000000E+03  0.12500000000E+03 0.  0.
    3000001    1    3    3    0    0 -0.53470439661E+01  0.54447373027E+02  0.28595677607E+02  0.61739939152E+02  0.10000000000E+01 0.  1.
    1000022    2    1    0    0    0 -0.46317252674E+01  0.54491797399E+02  0.28555928630E+02  0.62500001066E+02  0.10000010526E+02 0.  0.
    3000022    2    3    3    0    0  0.71531869864E+00  0.44424372297E-01 -0.39748977423E-01  0.76006191316E+00  0.24991951734E+00 0.  0.
    1000022    2    1    0    0    0  0.46317252674E+01 -0.54491797399E+02 -0.28555928630E+02  0.62499998934E+02  0.99999972066E+01 0.  0.
    3000022    2    5    5    0    0  0.47797912652E+01 -0.10239989576E+02 -0.66205486468E+01  0.13099540291E+02  0.25000079769E+00 0.  0.
        -13    1    4    4    0    0  0.51216331899E+00  0.51775599989E-01  0.11871932953E-01  0.52550729859E+00  0.10500000000E+00 0. -1.
         13    1    4    4    0    0  0.20315537965E+00 -0.73512276921E-02 -0.51620910376E-01  0.23455461457E+00  0.10500000000E+00 0. -1.
    3000001    1    5    5    0    0 -0.14806599781E+00 -0.44251807823E+02 -0.21935379983E+02  0.49400458643E+02  0.10000000000E+01 0.  1.
        -13    1    6    6    0    0  0.24520387838E+01 -0.51211086390E+01 -0.32816475775E+01  0.65588477428E+01  0.10500000000E+00 0.  1.
         13    1    6    6    0    0  0.23277524814E+01 -0.51188809372E+01 -0.33389010692E+01  0.65406925485E+01  0.10500000000E+00 0. -1.
</event>
<event>
11    0  0.3448258E-009  0.9118800E+02  0.7816531E-02  0.1126479E+00
         25   -1    0    0    0    0  0.00000000000E+00  0.00000000000E+00  0.99999998245E-14  0.12500000000E+03  0.12500000000E+03 0.  0.
    3000001    1    3    3    0    0  0.98518409291E+01 -0.58860301415E+00 -0.53089950451E+01  0.11251251112E+02  0.10000000000E+01 0.  1.
    1000022    2    1    0    0    0  0.47704958090E+02 -0.22626060564E+02 -0.31914701968E+02  0.62499998956E+02  0.10000001236E+02 0.  0.
    3000022    2    3    3    0    0  0.37853117161E+02 -0.22037457550E+02 -0.26605706923E+02  0.51248747844E+02  0.25000116820E+00 0.  0.
    1000022    2    1    0    0    0 -0.47704958090E+02  0.22626060564E+02  0.31914701968E+02  0.62500001044E+02  0.10000014290E+02 0.  0.
    3000022    2    5    5    0    0 -0.39674648160E+02  0.17973828797E+02  0.21700866381E+02  0.48663398304E+02  0.25000920606E+00 0.  0.
        -13    1    4    4    0    0  0.93064243257E+01 -0.53933694352E+01 -0.65455358324E+01  0.12591784303E+02  0.10500000000E+00 0.  1.
         13    1    4    4    0    0  0.28546692835E+02 -0.16644088115E+02 -0.20060171091E+02  0.38656963541E+02  0.10500000000E+00 0. -1.
    3000001    1    5    5    0    0 -0.80303099303E+01  0.46522317672E+01  0.10213835587E+02  0.13836602740E+02  0.10000000000E+01 0. -1.
        -13    1    6    6    0    0 -0.12215431021E+02  0.54824709375E+01  0.66608728057E+01  0.14955015685E+02  0.10500000000E+00 0. -1.
         13    1    6    6    0    0 -0.27459217139E+02  0.12491357860E+02  0.15039993576E+02  0.33708382619E+02  0.10500000000E+00 0.  1.
</event>
<event>
11    0  0.3448258E-009  0.9118800E+02  0.7816531E-02  0.1126479E+00
         25   -1    0    0    0    0  0.00000000000E+00  0.00000000000E+00  0.99999998245E-14  0.12500000000E+03  0.12500000000E+03 0.  0.
    3000001    1    3    3    0    0 -0.51852343370E+02  0.18295857712E+02  0.48686367117E+01  0.55209668952E+02  0.10000000000E+01 0.  1.
    1000022    2    1    0    0    0 -0.57316008760E+02  0.22654524523E+02  0.28102830434E+01  0.62499999713E+02  0.99999965917E+01 0.  0.
    3000022    2    3    3    0    0 -0.54636653900E+01  0.43586668116E+01 -0.20583536683E+01  0.72903307613E+01  0.24997383226E+00 0.  0.
    1000022    2    1    0    0    0  0.57316008760E+02 -0.22654524523E+02 -0.28102830434E+01  0.62500000287E+02  0.10000000177E+02 0.  0.
    3000022    2    5    5    0    0  0.25394513678E+02 -0.74910435528E+01 -0.55035347468E+01  0.27043454937E+02  0.25000354676E+00 0.  0.
        -13    1    4    4    0    0 -0.17890691409E+01  0.14903483448E+01 -0.66456828977E+00  0.24237538224E+01  0.10500000000E+00 0.  1.
         13    1    4    4    0    0 -0.36745962491E+01  0.28683184668E+01 -0.13937853785E+01  0.48665769389E+01  0.10500000000E+00 0. -1.
    3000001    1    5    5    0    0  0.31921495081E+02 -0.15163480970E+02  0.26932517034E+01  0.35456545349E+02  0.10000000000E+01 0. -1.
        -13    1    6    6    0    0  0.13304314786E+02 -0.38803313427E+01 -0.28270211183E+01  0.14144427760E+02  0.10500000000E+00 0. -1.
         13    1    6    6    0    0  0.12090198892E+02 -0.36107122101E+01 -0.26765136285E+01  0.12899027177E+02  0.10500000000E+00 0.  1.
</event>
<event>
11    0  0.3448258E-009  0.9118800E+02  0.7816531E-02  0.1126479E+00
         25   -1    0    0    0    0  0.00000000000E+00  0.00000000000E+00  0.99999998245E-14  0.12500000000E+03  0.12500000000E+03 0.  0.
    3000001    1    3    3    0    0  0.52411641057E+01  0.65442547653E+01 -0.17193767566E+02  0.19155226826E+02  0.10000000000E+01 0.  1.
    1000022    2    1    0    0    0  0.28867319001E+01  0.18327779370E+02 -0.58838840977E+02  0.62500000866E+02  0.10000009151E+02 0.  0.
    3000022    2    3    3    0    0 -0.23544322056E+01  0.11783524605E+02 -0.41645073411E+02  0.43344774041E+02  0.24998821464E+00 0.  0.
    1000022    2    1    0    0    0 -0.28867319001E+01 -0.18327779370E+02  0.58838840977E+02  0.62499999134E+02  0.99999983231E+01 0.  0.
    3000022    2    5    5    0    0 -0.11952107535E+00 -0.45264952019E+01  0.46158892792E+01  0.64708871357E+01  0.25000476816E+00 0.  0.
        -13    1    4    4    0    0 -0.16034525311E+01  0.82198866189E+01 -0.29117163814E+02  0.30297819222E+02  0.10500000000E+00 0. -1.
         13    1    4    4    0    0 -0.75097967459E+00  0.35636379861E+01 -0.12527909597E+02  0.13046954819E+02  0.10500000000E+00 0.  1.
    3000001    1    5    5    0    0 -0.27672108247E+01 -0.13801284168E+02  0.54222951698E+02  0.56029111998E+02  0.10000000000E+01 0. -1.
        -13    1    6    6    0    0  0.86943469206E-02 -0.16584572567E+01  0.16531167218E+01  0.23440085239E+01  0.10500000000E+00 0.  1.
         13    1    6    6    0    0 -0.12821542227E+00 -0.28680379452E+01  0.29627725574E+01  0.41268786118E+01  0.10500000000E+00 0. -1.
</event>
<event>
11    0  0.3448258E-009  0.9118800E+02  0.7816531E-02  0.1126479E+00
         25   -1    0    0    0    0  0.00000000000E+00  0.00000000000E+00  0.99999998245E-14  0.12500000000E+03  0.12500000000E+03 0.  0.
    3000001    1    3    3    0    0 -0.98684380165E+01 -0.21426782501E+02 -0.36000823665E+01  0.23884171961E+02  0.10000000000E+01 0.  1.
    1000022    2    1    0    0    0 -0.13808850574E+02 -0.59532484852E+02 -0.84527363768E+01  0.62499999728E+02  0.10000005342E+02 0.  0.
    3000022    2    3    3    0    0 -0.39404125574E+01 -0.38105702351E+02 -0.48526540103E+01  0.38615827766E+02  0.25000065131E+00 0.  0.
    1000022    2    1    0    0    0  0.13808850574E+02  0.59532484852E+02  0.84527363768E+01  0.62500000272E+02  0.10000008748E+02 0.  0.
    3000022    2    5    5    0    0  0.91157013567E+01  0.51846001218E+02  0.90706447367E+01  0.53417627732E+02  0.25000596954E+00 0.  0.
        -13    1    4    4    0    0 -0.26183750497E+01 -0.25134629004E+02 -0.32528311298E+01  0.25479352394E+02  0.10500000000E+00 0. -1.
         13    1    4    4    0    0 -0.13220375077E+01 -0.12971073348E+02 -0.15998228805E+01  0.13136475372E+02  0.10500000000E+00 0.  1.
    3000001    1    5    5    0    0  0.46931492171E+01  0.76864836337E+01 -0.61790835983E+00  0.90823725406E+01  0.10000000000E+01 0. -1.
        -13    1    6    6    0    0  0.46953901561E+01  0.26850015601E+02  0.47605403915E+01  0.27670269176E+02  0.10500000000E+00 0. -1.
         13    1    6    6    0    0  0.44203112007E+01  0.24995985618E+02  0.43101043452E+01  0.25747358555E+02  0.10500000000E+00 0.  1.
</event>
<event>
11    0  0.3448258E-009  0.9118800E+02  0.7816531E-02  0.1126479E+00
         25   -1    0    0    0    0  0.00000000000E+00  0.00000000000E+00  0.99999998245E-14  0.12500000000E+03  0.12500000000E+03 0.  0.
    3000001    1    3    3    0    0  0.24328857307E+02 -0.13497264427E+02 -0.45251882307E+02  0.53130050793E+02  0.10000000000E+01 0.  1.
    1000022    2    1    0    0    0  0.31798582705E+02 -0.15338900112E+02 -0.50594642599E+02  0.62500003139E+02  0.10000040697E+02 0.  0.
    3000022    2    3    3    0    0  0.74697253985E+01 -0.18416356848E+01 -0.53427602915E+01  0.93699523461E+01  0.24999982459E+00 0.  0.
    1000022    2    1    0    0    0 -0.31798582705E+02  0.15338900112E+02  0.50594642599E+02  0.62499996861E+02  0.10000001460E+02 0.  0.
    3000022    2    5    5    0    0 -0.90897233520E+01  0.72436565206E+01  0.10294546393E+02  0.15528484046E+02  0.25000184112E+00 0.  0.
        -13    1    4    4    0    0  0.50758404960E+01 -0.12730081540E+01 -0.35768618307E+01  0.63395324793E+01  0.10500000000E+00 0. -1.
         13    1    4    4    0    0  0.23938849025E+01 -0.56862753083E+00 -0.17658984608E+01  0.30304198668E+01  0.10500000000E+00 0.  1.
    3000001    1    5    5    0    0 -0.22708859353E+02  0.80952435911E+01  0.40300096206E+02  0.46971512815E+02  0.10000000000E+01 0.  1.
        -13    1    6    6    0    0 -0.43405082344E+01  0.35445729541E+01  0.49498537026E+01  0.74777059207E+01  0.10500000000E+00 0. -1.
         13    1    6    6    0    0 -0.47492151177E+01  0.36990835665E+01  0.53446926902E+01  0.80507781250E+01  0.10500000000E+00 0.  1.
</event>
<event>
11    0  0.3448258E-009  0.9118800E+02  0.7816531E-02  0.1126479E+00
         25   -1    0    0    0    0  0.00000000000E+00  0.00000000000E+00  0.99999998245E-14  0.12500000000E+03  0.12500000000E+03 0.  0.
    3000001    1    3    3    0    0  0.23745075844E+02  0.38251516460E+01 -0.41167435224E+02  0.47688763193E+02  0.10000000000E+01 0.  1.
    1000022    2    1    0    0    0  0.25954586692E+02  0.43271353897E+01 -0.55802197810E+02  0.62499998796E+02  0.99999949060E+01 0.  0.
    3000022    2    3    3    0    0  0.22095108478E+01  0.50198374367E+00 -0.14634762586E+02  0.14811235604E+02  0.24999658358E+00 0.  0.
    1000022    2    1    0    0    0 -0.25954586692E+02 -0.43271353897E+01  0.55802197810E+02  0.62500001204E+02  0.10000009950E+02 0.  0.
    3000022    2    5    5    0    0 -0.52560987670E+01 -0.46544283273E+01  0.19091824385E+02  0.20343316798E+02  0.25000542025E+00 0.  0.
        -13    1    4    4    0    0  0.95433578748E+00  0.15794331083E+00 -0.64518574924E+01  0.65248136362E+01  0.10500000000E+00 0.  1.
         13    1    4    4    0    0  0.12551750603E+01  0.34404043283E+00 -0.81829050935E+01  0.82864219674E+01  0.10500000000E+00 0. -1.
    3000001    1    5    5    0    0 -0.20698487925E+02  0.32729293758E+00  0.36710373425E+02  0.42156684405E+02  0.10000000000E+01 0.  1.
        -13    1    6    6    0    0 -0.27547333320E+01 -0.24956754444E+01  0.10259264534E+02  0.10912400535E+02  0.10500000000E+00 0.  1.
         13    1    6    6    0    0 -0.25013654349E+01 -0.21587528829E+01  0.88325598506E+01  0.94309162632E+01  0.10500000000E+00 0. -1.
</event>
<event>
11    0  0.3448258E-009  0.9118800E+02  0.7816531E-02  0.1126479E+00
         25   -1    0    0    0    0  0.00000000000E+00  0.00000000000E+00  0.99999998245E-14  0.12500000000E+03  0.12500000000E+03 0.  0.
    3000001    1    3    3    0    0  0.12760805016E+01  0.19870278383E+01  0.11841487114E+02  0.12116000914E+02  0.10000000000E+01 0.  1.
    1000022    2    1    0    0    0 -0.59191615844E+01 -0.51696336146E+01  0.61192226338E+02  0.62499999018E+02  0.99999863732E+01 0.  0.
    3000022    2    3    3    0    0 -0.71952420860E+01 -0.71566614529E+01  0.49350739225E+02  0.50383998104E+02  0.24998230302E+00 0.  0.
    1000022    2    1    0    0    0  0.59191615844E+01  0.51696336146E+01 -0.61192226338E+02  0.62500000982E+02  0.99999986457E+01 0.  0.
    3000022    2    5    5    0    0  0.31309153090E+01  0.27965384842E+01 -0.69371428323E+01  0.81123186996E+01  0.25001168271E+00 0.  0.
        -13    1    4    4    0    0 -0.36730226628E+01 -0.35972187162E+01  0.25272331824E+02  0.25790169810E+02  0.10500000000E+00 0. -1.
         13    1    4    4    0    0 -0.35222194232E+01 -0.35594427367E+01  0.24078407400E+02  0.24593828295E+02  0.10500000000E+00 0.  1.
    3000001    1    5    5    0    0  0.27882462754E+01  0.23730951304E+01 -0.54255083506E+02  0.54387682282E+02  0.10000000000E+01 0. -1.
        -13    1    6    6    0    0  0.20443073599E+01  0.17575128939E+01 -0.43983420638E+01  0.51598916718E+01  0.10500000000E+00 0. -1.
         13    1    6    6    0    0  0.10866079492E+01  0.10390255903E+01 -0.25388007685E+01  0.29524270278E+01  0.10500000000E+00 0.  1.
</event>
<event>
11    0  0.3448258E-009  0.9118800E+02  0.7816531E-02  0.1126479E+00
         25   -1    0    0    0    0  0.00000000000E+00  0.00000000000E+00  0.99999998245E-14  0.12500000000E+03  0.12500000000E+03 0.  0.
    3000001    1    3    3    0    0  0.54389573753E+02  0.18066302824E+01 -0.80717662500E+01  0.55024022539E+02  0.10000000000E+01 0. -1.
    1000022    2    1    0    0    0  0.61413648170E+02  0.54600852565E+00 -0.58579575542E+01  0.62500000062E+02  0.10000001715E+02 0.  0.
    3000022    2    3    3    0    0  0.70240744165E+01 -0.12606217568E+01  0.22138086957E+01  0.74759775231E+01  0.25000472455E+00 0.  0.
    1000022    2    1    0    0    0 -0.61413648170E+02 -0.54600852565E+00  0.58579575542E+01  0.62499999938E+02  0.10000000935E+02 0.  0.
    3000022    2    5    5    0    0 -0.44709990596E+02  0.11576434336E+00  0.85998083995E+01  0.45530383981E+02  0.25000091262E+00 0.  0.
        -13    1    4    4    0    0  0.48862788829E+01 -0.85491908061E+00  0.15821437371E+01  0.52077645647E+01  0.10500000000E+00 0. -1.
         13    1    4    4    0    0  0.21377955335E+01 -0.40570267617E+00  0.63166495859E+00  0.22682129584E+01  0.10500000000E+00 0.  1.
    3000001    1    5    5    0    0 -0.16703657574E+02 -0.66177286901E+00 -0.27418508452E+01  0.16969615957E+02  0.10000000000E+01 0. -1.
        -13    1    6    6    0    0 -0.21527335251E+02 -0.11228500111E-01  0.41505539865E+01  0.21924060128E+02  0.10500000000E+00 0. -1.
         13    1    6    6    0    0 -0.23182655345E+02  0.12699284347E+00  0.44492544129E+01  0.23606323853E+02  0.10500000000E+00 0.  1.
</event>
<event>
11    0  0.3448258E-009  0.9118800E+02  0.7816531E-02  0.1126479E+00
         25   -1    0    0    0    0  0.00000000000E+00  0.00000000000E+00  0.99999998245E-14  0.12500000000E+03  0.12500000000E+03 0.  0.
    3000001    1    3    3    0    0 -0.25333568490E+02  0.40100258473E+02  0.34621650257E+02  0.58732266162E+02  0.10000000000E+01 0.  1.
    1000022    2    1    0    0    0 -0.24502935499E+02  0.42570221315E+02  0.37331391484E+02  0.62500003510E+02  0.10000002886E+02 0.  0.
    3000022    2    3    3    0    0  0.83063299146E+00  0.24699628424E+01  0.27097412278E+01  0.37677373481E+01  0.24995918333E+00 0.  0.
    1000022    2    1    0    0    0  0.24502935499E+02 -0.42570221315E+02 -0.37331391484E+02  0.62499996490E+02  0.99999590105E+01 0.  0.
    3000022    2    5    5    0    0  0.10298893537E+02 -0.13163294420E+02 -0.17874687511E+02  0.24472565772E+02  0.24998758840E+00 0.  0.
        -13    1    4    4    0    0  0.18698009362E+00  0.63882660183E+00  0.67788238243E+00  0.95582974792E+00  0.10500000000E+00 0. -1.
         13    1    4    4    0    0  0.64365289784E+00  0.18311362406E+01  0.20318588454E+01  0.28119076002E+01  0.10500000000E+00 0.  1.
    3000001    1    5    5    0    0  0.14204041962E+02 -0.29406926895E+02 -0.19456703973E+02  0.38027430718E+02  0.10000000000E+01 0.  1.
        -13    1    6    6    0    0  0.27088418006E+01 -0.34144473038E+01 -0.46803847277E+01  0.63963505603E+01  0.10500000000E+00 0.  1.
         13    1    6    6    0    0  0.75900517360E+01 -0.97488471157E+01 -0.13194302783E+02  0.18076215212E+02  0.10500000000E+00 0. -1.
</event>
<event>
11    0  0.3448258E-009  0.9118800E+02  0.7816531E-02  0.1126479E+00
         25   -1    0    0    0    0  0.00000000000E+00  0.00000000000E+00  0.99999998245E-14  0.12500000000E+03  0.12500000000E+03 0.  0.
    3000001    1    3    3    0    0 -0.21541807743E+02  0.18110046913E+02  0.13529226888E+02  0.31242011142E+02  0.10000000000E+01 0.  1.
    1000022    2    1    0    0    0 -0.47904306946E+02  0.27587344252E+02  0.27392805999E+02  0.62499999771E+02  0.99999982010E+01 0.  0.
    3000022    2    3    3    0    0 -0.26362499203E+02  0.94772973395E+01  0.13863579111E+02  0.31257988629E+02  0.24999653692E+00 0.  0.
    1000022    2    1    0    0    0  0.47904306946E+02 -0.27587344252E+02 -0.27392805999E+02  0.62500000229E+02  0.10000001058E+02 0.  0.
    3000022    2    5    5    0    0  0.32137839749E+02 -0.12981990842E+02 -0.16777459343E+02  0.38508680532E+02  0.25000875973E+00 0.  0.
        -13    1    4    4    0    0 -0.11844895196E+02  0.43133038908E+01  0.62850704043E+01  0.14086137428E+02  0.10500000000E+00 0.  1.
         13    1    4    4    0    0 -0.14517604008E+02  0.51639934487E+01  0.75785087072E+01  0.17171851201E+02  0.10500000000E+00 0. -1.
    3000001    1    5    5    0    0  0.15766467197E+02 -0.14605353411E+02 -0.10615346657E+02  0.23991319696E+02  0.10000000000E+01 0. -1.
        -13    1    6    6    0    0  0.11419914431E+02 -0.45785348440E+01 -0.60084485115E+01  0.13692695332E+02  0.10500000000E+00 0. -1.
         13    1    6    6    0    0  0.20717925318E+02 -0.84034559976E+01 -0.10769010831E+02  0.24815985201E+02  0.10500000000E+00 0.  1.
</event>
<event>
11    0  0.3448258E-009  0.9118800E+02  0.7816531E-02  0.1126479E+00
         25   -1    0    0    0    0  0.00000000000E+00  0.00000000000E+00  0.99999998245E-14  0.12500000000E+03  0.12500000000E+03 0.  0.
    3000001    1    3    3    0    0  0.35960540900E+02  0.84818788069E+01 -0.11226792512E+01  0.36977874176E+02  0.10000000000E+01 0. -1.
    1000022    2    1    0    0    0  0.61009186026E+02  0.83648382451E+01  0.37628192197E+01  0.62500000234E+02  0.99999961177E+01 0.  0.
    3000022    2    3    3    0    0  0.25048645126E+02 -0.11704056184E+00  0.48854984710E+01  0.25522126057E+02  0.25000408656E+00 0.  0.
    1000022    2    1    0    0    0 -0.61009186026E+02 -0.83648382451E+01 -0.37628192197E+01  0.62499999766E+02  0.99999931980E+01 0.  0.
    3000022    2    5    5    0    0 -0.49018998686E+02 -0.95315760956E+01 -0.34896167179E+00  0.49938937192E+02  0.24999708432E+00 0.  0.
        -13    1    4    4    0    0  0.81799432063E+01 -0.37101484171E-01  0.16486327698E+01  0.83451700035E+01  0.10500000000E+00 0. -1.
         13    1    4    4    0    0  0.16868701919E+02 -0.79939077665E-01  0.32368657012E+01  0.17176956054E+02  0.10500000000E+00 0.  1.
    3000001    1    5    5    0    0 -0.11990187339E+02  0.11667378506E+01 -0.34138575479E+01  0.12561062574E+02  0.10000000000E+01 0. -1.
        -13    1    6    6    0    0 -0.19450257842E+02 -0.38134078942E+01 -0.19316303129E+00  0.19821779609E+02  0.10500000000E+00 0.  1.
         13    1    6    6    0    0 -0.29568740844E+02 -0.57181682014E+01 -0.15579864050E+00  0.30117157583E+02  0.10500000000E+00 0. -1.
</event>
<event>
11    0  0.3448258E-009  0.9118800E+02  0.7816531E-02  0.1126479E+00
         25   -1    0    0    0    0  0.00000000000E+00  0.00000000000E+00  0.99999998245E-14  0.12500000000E+03  0.12500000000E+03 0.  0.
    3000001    1    3    3    0    0  0.35648429167E+01 -0.98574357361E+00 -0.12822212499E+02  0.13382411172E+02  0.10000000000E+01 0. -1.
    1000022    2    1    0    0    0  0.33326890592E+02 -0.18712379701E+01 -0.51885130164E+02  0.62500000920E+02  0.10000010744E+02 0.  0.
    3000022    2    3    3    0    0  0.29762047675E+02 -0.88549439645E+00 -0.39062917664E+02  0.49117589748E+02  0.25000809039E+00 0.  0.
    1000022    2    1    0    0    0 -0.33326890592E+02  0.18712379701E+01  0.51885130164E+02  0.62499999080E+02  0.99999992410E+01 0.  0.
    3000022    2    5    5    0    0 -0.10555823900E+02  0.50552367946E+01  0.20047806710E+02  0.23215466609E+02  0.24999742762E+00 0.  0.
        -13    1    4    4    0    0  0.14483652369E+02 -0.39081930449E+00 -0.18918287299E+02  0.23829426032E+02  0.10500000000E+00 0.  1.
         13    1    4    4    0    0  0.15278395306E+02 -0.49467509196E+00 -0.20144630365E+02  0.25288163716E+02  0.10500000000E+00 0. -1.
    3000001    1    5    5    0    0 -0.22771066691E+02 -0.31839988245E+01  0.31837323453E+02  0.39284532471E+02  0.10000000000E+01 0. -1.
        -13    1    6    6    0    0 -0.53548817058E+01  0.26284428652E+01  0.10146764546E+02  0.11770782715E+02  0.10500000000E+00 0.  1.
         13    1    6    6    0    0 -0.52009421946E+01  0.24267939294E+01  0.99010421640E+01  0.11444683893E+02  0.10500000000E+00 0. -1.
</event>
<event>
11    0  0.3448258E-009  0.9118800E+02  0.7816531E-02  0.1126479E+00
         25   -1    0    0    0    0  0.00000000000E+00  0.00000000000E+00  0.99999998245E-14  0.12500000000E+03  0.12500000000E+03 0.  0.
    3000001    1    3    3    0    0 -0.44739135734E+02  0.93223634603E+01  0.93885209607E+01  0.46665201731E+02  0.10000000000E+01 0. -1.
    1000022    2    1    0    0    0 -0.59122440670E+02  0.77734475625E+01  0.15822782757E+02  0.62499999994E+02  0.10000003366E+02 0.  0.
    3000022    2    3    3    0    0 -0.14383304936E+02 -0.15489158978E+01  0.64342617958E+01  0.15834798264E+02  0.25001970596E+00 0.  0.
    1000022    2    1    0    0    0  0.59122440670E+02 -0.77734475625E+01 -0.15822782757E+02  0.62500000006E+02  0.10000003439E+02 0.  0.
    3000022    2    5    5    0    0  0.39160945515E+02 -0.50287703152E+01 -0.15225018969E+02  0.42317040274E+02  0.25002077753E+00 0.  0.
        -13    1    4    4    0    0 -0.72484336137E+01 -0.84314282113E+00  0.32750946528E+01  0.79992468179E+01  0.10500000000E+00 0.  1.
         13    1    4    4    0    0 -0.71348713223E+01 -0.70577307669E+00  0.31591671431E+01  0.78355514457E+01  0.10500000000E+00 0. -1.
    3000001    1    5    5    0    0  0.19961495155E+02 -0.27446772473E+01 -0.59776378796E+00  0.20182959732E+02  0.10000000000E+01 0.  1.
        -13    1    6    6    0    0  0.19629389422E+02 -0.25882400355E+01 -0.76461054689E+01  0.21224652397E+02  0.10500000000E+00 0.  1.
         13    1    6    6    0    0  0.19531556094E+02 -0.24405302797E+01 -0.75789134997E+01  0.21092387876E+02  0.10500000000E+00 0. -1.
</event>
<event>
11    0  0.3448258E-009  0.9118800E+02  0.7816531E-02  0.1126479E+00
         25   -1    0    0    0    0  0.00000000000E+00  0.00000000000E+00  0.99999998245E-14  0.12500000000E+03  0.12500000000E+03 0.  0.
    3000001    1    3    3    0    0 -0.47709585631E+02 -0.94969406640E-02  0.88427223247E+01  0.48532446769E+02  0.10000000000E+01 0. -1.
    1000022    2    1    0    0    0 -0.60372780575E+02  0.51981037455E+01  0.11591252997E+02  0.62499999933E+02  0.99999964284E+01 0.  0.
    3000022    2    3    3    0    0 -0.12663194945E+02  0.52076006861E+01  0.27485306722E+01  0.13967553164E+02  0.25001882558E+00 0.  0.
    1000022    2    1    0    0    0  0.60372780575E+02 -0.51981037455E+01 -0.11591252997E+02  0.62500000067E+02  0.99999972713E+01 0.  0.
    3000022    2    5    5    0    0  0.35631729679E+02  0.10494762923E+01 -0.40786586979E+01  0.35880628759E+02  0.25000582379E+00 0.  0.
        -13    1    4    4    0    0 -0.61266946266E+01  0.25795542523E+01  0.12947782296E+01  0.67733273103E+01  0.10500000000E+00 0. -1.
         13    1    4    4    0    0 -0.65365003181E+01  0.26280464338E+01  0.14537524426E+01  0.71942258535E+01  0.10500000000E+00 0.  1.
    3000001    1    5    5    0    0  0.24741050896E+02 -0.62475800377E+01 -0.75125942991E+01  0.26619371309E+02  0.10000000000E+01 0. -1.
        -13    1    6    6    0    0  0.19246984193E+02  0.58095828728E+00 -0.21371664579E+01  0.19374272077E+02  0.10500000000E+00 0.  1.
         13    1    6    6    0    0  0.16384745486E+02  0.46851800498E+00 -0.19414922399E+01  0.16506356681E+02  0.10500000000E+00 0. -1.
</event>
<event>
11    0  0.3448258E-009  0.9118800E+02  0.7816531E-02  0.1126479E+00
         25   -1    0    0    0    0  0.00000000000E+00  0.00000000000E+00  0.99999998245E-14  0.12500000000E+03  0.12500000000E+03 0.  0.
    3000001    1    3    3    0    0  0.22250624947E+01  0.88532277826E+01 -0.34521804112E+01  0.98106113401E+01  0.10000000000E+01 0. -1.
    1000022    2    1    0    0    0 -0.62668454239E+01  0.59877466351E+02 -0.13478347966E+02  0.62500002655E+02  0.10000006992E+02 0.  0.
    3000022    2    3    3    0    0 -0.84919079186E+01  0.51024238569E+02 -0.10026167554E+02  0.52689391315E+02  0.24999948929E+00 0.  0.
    1000022    2    1    0    0    0  0.62668454239E+01 -0.59877466351E+02  0.13478347966E+02  0.62499997345E+02  0.99999737993E+01 0.  0.
    3000022    2    5    5    0    0 -0.39359932910E+00 -0.39528123178E+02  0.10096855110E+02  0.40799956197E+02  0.25000026236E+00 0.  0.
        -13    1    4    4    0    0 -0.53903852574E+01  0.32249581131E+02 -0.62820002280E+01  0.33295139108E+02  0.10500000000E+00 0. -1.
         13    1    4    4    0    0 -0.31015226611E+01  0.18774657437E+02 -0.37441673264E+01  0.19394252207E+02  0.10500000000E+00 0.  1.
    3000001    1    5    5    0    0  0.66604447530E+01 -0.20349343173E+02  0.33814928556E+01  0.21700041148E+02  0.10000000000E+01 0. -1.
        -13    1    6    6    0    0 -0.19564062305E+00 -0.16116864299E+02  0.41718595419E+01  0.16649535342E+02  0.10500000000E+00 0. -1.
         13    1    6    6    0    0 -0.19795870604E+00 -0.23411258880E+02  0.59249955681E+01  0.24150420855E+02  0.10500000000E+00 0.  1.
</event>
<event>
11    0  0.3448258E-009  0.9118800E+02  0.7816531E-02  0.1126479E+00
         25   -1    0    0    0    0  0.00000000000E+00  0.00000000000E+00  0.99999998245E-14  0.12500000000E+03  0.12500000000E+03 0.  0.
    3000001    1    3    3    0    0  0.44611151193E+01 -0.87126537894E+01 -0.85694305921E+01  0.13047874342E+02  0.10000000000E+01 0.  1.
    1000022    2    1    0    0    0  0.10889225105E+02 -0.52899863330E+02 -0.29820785741E+02  0.62499999464E+02  0.99999953538E+01 0.  0.
    3000022    2    3    3    0    0  0.64281099854E+01 -0.44187209541E+02 -0.21251355149E+02  0.49452125122E+02  0.24999696951E+00 0.  0.
    1000022    2    1    0    0    0 -0.10889225105E+02  0.52899863330E+02  0.29820785741E+02  0.62500000536E+02  0.10000002056E+02 0.  0.
    3000022    2    5    5    0    0 -0.10982174183E+02  0.42725016422E+02  0.27600701563E+02  0.52037451952E+02  0.25000157802E+00 0.  0.
        -13    1    4    4    0    0  0.37416967625E+01 -0.25891763258E+02 -0.12384780584E+02  0.28944386578E+02  0.10500000000E+00 0.  1.
         13    1    4    4    0    0  0.26864132229E+01 -0.18295446282E+02 -0.88665745650E+01  0.20507738544E+02  0.10500000000E+00 0. -1.
    3000001    1    5    5    0    0  0.92949078067E-01  0.10174846908E+02  0.22200841777E+01  0.10462548584E+02  0.10000000000E+01 0.  1.
        -13    1    6    6    0    0 -0.59017572396E+01  0.22703451874E+02  0.14651771731E+02  0.27657962784E+02  0.10500000000E+00 0. -1.
         13    1    6    6    0    0 -0.50804169431E+01  0.20021564549E+02  0.12948929832E+02  0.24379489168E+02  0.10500000000E+00 0.  1.
</event>
<event>
11    0  0.3448258E-009  0.9118800E+02  0.7816531E-02  0.1126479E+00
         25   -1    0    0    0    0  0.00000000000E+00  0.00000000000E+00  0.99999998245E-14  0.12500000000E+03  0.12500000000E+03 0.  0.
    3000001    1    3    3    0    0  0.34220690391E+02  0.35232434355E+02 -0.91085097353E+01  0.49963436942E+02  0.10000000000E+01 0. -1.
    1000022    2    1    0    0    0  0.38732475322E+02  0.46822579629E+02 -0.10662615971E+02  0.62500000009E+02  0.10000000701E+02 0.  0.
    3000022    2    3    3    0    0  0.45117849309E+01  0.11590145274E+02 -0.15541062361E+01  0.12536563067E+02  0.24999319754E+00 0.  0.
    1000022    2    1    0    0    0 -0.38732475322E+02 -0.46822579629E+02  0.10662615971E+02  0.62499999991E+02  0.10000000590E+02 0.  0.
    3000022    2    5    5    0    0 -0.32770164868E+02 -0.34701267868E+02  0.56762396410E+01  0.48066036791E+02  0.24999833304E+00 0.  0.
        -13    1    4    4    0    0  0.17940652785E+01  0.46747607063E+01 -0.56668774508E+00  0.50402597041E+01  0.10500000000E+00 0. -1.
         13    1    4    4    0    0  0.27177196524E+01  0.69153845677E+01 -0.98741849100E+00  0.74963033627E+01  0.10500000000E+00 0.  1.
    3000001    1    5    5    0    0 -0.59623104543E+01 -0.12121311761E+02  0.49863763304E+01  0.14433963201E+02  0.10000000000E+01 0. -1.
        -13    1    6    6    0    0 -0.15020338110E+02 -0.15858040033E+02  0.25386778830E+01  0.21989631671E+02  0.10500000000E+00 0. -1.
         13    1    6    6    0    0 -0.17749826758E+02 -0.18843227835E+02  0.31375617579E+01  0.26076405120E+02  0.10500000000E+00 0.  1.
</event>
<event>
11    0  0.3448258E-009  0.9118800E+02  0.7816531E-02  0.1126479E+00
         25   -1    0    0    0    0  0.00000000000E+00  0.00000000000E+00  0.99999998245E-14  0.12500000000E+03  0.12500000000E+03 0.  0.
    3000001    1    3    3    0    0 -0.14186858793E+01 -0.40215983578E+02 -0.18988415776E+02  0.44507279612E+02  0.10000000000E+01 0.  1.
    1000022    2    1    0    0    0  0.34068335515E+01 -0.54298516880E+02 -0.29091486960E+02  0.62499999662E+02  0.99999946981E+01 0.  0.
    3000022    2    3    3    0    0  0.48255194308E+01 -0.14082533302E+02 -0.10103071184E+02  0.17992720050E+02  0.25009090659E+00 0.  0.
    1000022    2    1    0    0    0 -0.34068335515E+01  0.54298516880E+02  0.29091486960E+02  0.62500000338E+02  0.99999989253E+01 0.  0.
    3000022    2    5    5    0    0 -0.22390334671E+01  0.18891170157E+02  0.15509807864E+02  0.24546002314E+02  0.25001762977E+00 0.  0.
        -13    1    4    4    0    0  0.23177142790E+01 -0.68672836928E+01 -0.49902239665E+01  0.88002696000E+01  0.10500000000E+00 0.  1.
         13    1    4    4    0    0  0.25078051519E+01 -0.72152496089E+01 -0.51128472177E+01  0.91924504497E+01  0.10500000000E+00 0. -1.
    3000001    1    5    5    0    0 -0.11678000844E+01  0.35407346723E+02  0.13581679095E+02  0.37953998024E+02  0.10000000000E+01 0. -1.
        -13    1    6    6    0    0 -0.13819042879E+01  0.11114722864E+02  0.91314941836E+01  0.14451364462E+02  0.10500000000E+00 0. -1.
         13    1    6    6    0    0 -0.85712917920E+00  0.77764472935E+01  0.63783136808E+01  0.10094637851E+02  0.10500000000E+00 0.  1.
</event>
<event>
11    0  0.3448258E-009  0.9118800E+02  0.7816531E-02  0.1126479E+00
         25   -1    0    0    0    0  0.00000000000E+00  0.00000000000E+00  0.99999998245E-14  0.12500000000E+03  0.12500000000E+03 0.  0.
    3000001    1    3    3    0    0  0.64022987589E+00 -0.92747969394E-01 -0.44752459616E+01  0.46310174797E+01  0.10000000000E+01 0. -1.
    1000022    2    1    0    0    0  0.25654075340E+02 -0.27030352286E+02 -0.49167858922E+02  0.62500000012E+02  0.10000006218E+02 0.  0.
    3000022    2    3    3    0    0  0.25013845464E+02 -0.26937604317E+02 -0.44692612960E+02  0.57868982533E+02  0.24998991469E+00 0.  0.
    1000022    2    1    0    0    0 -0.25654075340E+02  0.27030352286E+02  0.49167858922E+02  0.62499999988E+02  0.10000006065E+02 0.  0.
    3000022    2    5    5    0    0 -0.15715383115E+02  0.21702179057E+02  0.38767374572E+02  0.47126740483E+02  0.24999012301E+00 0.  0.
        -13    1    4    4    0    0  0.83315977801E+01 -0.89062790750E+01 -0.14782918680E+02  0.19164629875E+02  0.10500000000E+00 0. -1.
         13    1    4    4    0    0  0.16682247684E+02 -0.18031325242E+02 -0.29909694280E+02  0.38704352658E+02  0.10500000000E+00 0.  1.
    3000001    1    5    5    0    0 -0.99386922250E+01  0.53281732287E+01  0.10400484350E+02  0.15373259505E+02  0.10000000000E+01 0. -1.
        -13    1    6    6    0    0 -0.49215414867E+01  0.68212900611E+01  0.12253355983E+02  0.14862951475E+02  0.10500000000E+00 0. -1.
         13    1    6    6    0    0 -0.10793841628E+02  0.14880888996E+02  0.26514018588E+02  0.32263789007E+02  0.10500000000E+00 0.  1.
</event>
<event>
11    0  0.3448258E-009  0.9118800E+02  0.7816531E-02  0.1126479E+00
         25   -1    0    0    0    0  0.00000000000E+00  0.00000000000E+00  0.99999998245E-14  0.12500000000E+03  0.12500000000E+03 0.  0.
    3000001    1    3    3    0    0  0.36857845390E+01  0.22011011440E+00  0.28072797179E+01  0.47449210262E+01  0.10000000000E+01 0. -1.
    1000022    2    1    0    0    0  0.24717273110E+02  0.17144445192E+02  0.53864406615E+02  0.62500001655E+02  0.10000015800E+02 0.  0.
    3000022    2    3    3    0    0  0.21031488571E+02  0.16924335078E+02  0.51057126897E+02  0.57755080629E+02  0.25000433732E+00 0.  0.
    1000022    2    1    0    0    0 -0.24717273110E+02 -0.17144445192E+02 -0.53864406615E+02  0.62499998345E+02  0.99999951112E+01 0.  0.
    3000022    2    5    5    0    0 -0.17919975126E+02 -0.17073881007E+02 -0.40302008319E+02  0.47296482741E+02  0.24996795119E+00 0.  0.
        -13    1    4    4    0    0  0.15811362297E+02  0.12690861299E+02  0.38351474874E+02  0.43380915023E+02  0.10500000000E+00 0.  1.
         13    1    4    4    0    0  0.52201262739E+01  0.42334737786E+01  0.12705652023E+02  0.14374165606E+02  0.10500000000E+00 0. -1.
    3000001    1    5    5    0    0 -0.67972979839E+01 -0.70564185405E-01 -0.13562398296E+02  0.15203515604E+02  0.10000000000E+01 0. -1.
        -13    1    6    6    0    0 -0.44649388580E+01 -0.42687057487E+01 -0.10013583858E+02  0.11766070476E+02  0.10500000000E+00 0. -1.
         13    1    6    6    0    0 -0.13455036268E+02 -0.12805175258E+02 -0.30288424461E+02  0.35530412265E+02  0.10500000000E+00 0.  1.
</event>
<event>
11    0  0.3448258E-009  0.9118800E+02  0.7816531E-02  0.1126479E+00
         25   -1    0    0    0    0  0.00000000000E+00  0.00000000000E+00  0.99999998245E-14  0.12500000000E+03  0.12500000000E+03 0.  0.
    3000001    1    3    3    0    0  0.14394452765E+02  0.35424354304E+01 -0.83581499408E+01  0.17047222343E+02  0.10000000000E+01 0.  1.
    1000022    2    1    0    0    0  0.42869388148E+02  0.10777928520E+02 -0.43038376570E+02  0.62499999791E+02  0.99999966366E+01 0.  0.
    3000022    2    3    3    0    0  0.28474935383E+02  0.72354930893E+01 -0.34680226629E+02  0.45452777447E+02  0.25010669563E+00 0.  0.
    1000022    2    1    0    0    0 -0.42869388148E+02 -0.10777928520E+02  0.43038376570E+02  0.62500000209E+02  0.99999992532E+01 0.  0.
    3000022    2    5    5    0    0 -0.36080684356E+02 -0.12603172926E+02  0.36411429970E+02  0.52787408508E+02  0.25002631753E+00 0.  0.
        -13    1    4    4    0    0  0.13436049237E+02  0.34511893508E+01 -0.16463405559E+02  0.21528884658E+02  0.10500000000E+00 0. -1.
         13    1    4    4    0    0  0.15038886146E+02  0.37843037385E+01 -0.18216821070E+02  0.23923892789E+02  0.10500000000E+00 0.  1.
    3000001    1    5    5    0    0 -0.67887037920E+01  0.18252444063E+01  0.66269466001E+01  0.97125917014E+01  0.10000000000E+01 0. -1.
        -13    1    6    6    0    0 -0.26525202128E+02 -0.92760719149E+01  0.26726758787E+02  0.38780955614E+02  0.10500000000E+00 0.  1.
         13    1    6    6    0    0 -0.95554822276E+01 -0.33271010112E+01  0.96846711826E+01  0.14006452893E+02  0.10500000000E+00 0. -1.
</event>
<event>
11    0  0.3448258E-009  0.9118800E+02  0.7816531E-02  0.1126479E+00
         25   -1    0    0    0    0  0.00000000000E+00  0.00000000000E+00  0.99999998245E-14  0.12500000000E+03  0.12500000000E+03 0.  0.
    3000001    1    3    3    0    0  0.12466420154E+02 -0.19813414490E+01 -0.21744347246E+02  0.25162551194E+02  0.10000000000E+01 0.  1.
    1000022    2    1    0    0    0  0.21761063840E+02  0.18775876315E+01 -0.57699053206E+02  0.62500000507E+02  0.10000004391E+02 0.  0.
    3000022    2    3    3    0    0  0.92946436857E+01  0.38589290805E+01 -0.35954705960E+02  0.37337449314E+02  0.25001146863E+00 0.  0.
    1000022    2    1    0    0    0 -0.21761063840E+02 -0.18775876315E+01  0.57699053206E+02  0.62499999493E+02  0.99999980484E+01 0.  0.
    3000022    2    5    5    0    0 -0.15733850834E+02 -0.45533152169E+01  0.48085549797E+02  0.50799304534E+02  0.25000055317E+00 0.  0.
        -13    1    4    4    0    0  0.66829958543E+01  0.27377026625E+01 -0.25877861909E+02  0.26866935281E+02  0.10500000000E+00 0.  1.
         13    1    4    4    0    0  0.26116478315E+01  0.11212264180E+01 -0.10076844051E+02  0.10470514032E+02  0.10500000000E+00 0. -1.
    3000001    1    5    5    0    0 -0.60272130067E+01  0.26757275855E+01  0.96135034085E+01  0.11700694959E+02  0.10000000000E+01 0. -1.
        -13    1    6    6    0    0 -0.36257122467E+01 -0.10549368179E+01  0.11106380096E+02  0.11731214124E+02  0.10500000000E+00 0. -1.
         13    1    6    6    0    0 -0.12108138587E+02 -0.34983783990E+01  0.36979169701E+02  0.39068090409E+02  0.10500000000E+00 0.  1.
</event>
<event>
11    0  0.3448258E-009  0.9118800E+02  0.7816531E-02  0.1126479E+00
         25   -1    0    0    0    0  0.00000000000E+00  0.00000000000E+00  0.99999998245E-14  0.12500000000E+03  0.12500000000E+03 0.  0.
    3000001    1    3    3    0    0  0.35212288386E+01 -0.46735984817E+01  0.22227819459E+02  0.23006901861E+02  0.10000000000E+01 0.  1.
    1000022    2    1    0    0    0  0.66113904279E+01 -0.15891002966E+00  0.61339338020E+02  0.62500001233E+02  0.10000001479E+02 0.  0.
    3000022    2    3    3    0    0  0.30901615894E+01  0.45146884521E+01  0.39111518561E+02  0.39493099373E+02  0.25000687133E+00 0.  0.
    1000022    2    1    0    0    0 -0.66113904279E+01  0.15891002966E+00 -0.61339338020E+02  0.62499998767E+02  0.99999860640E+01 0.  0.
    3000022    2    5    5    0    0 -0.35269781722E+01 -0.48350084953E+01 -0.33459845913E+02  0.33991773614E+02  0.25000544967E+00 0.  0.
        -13    1    4    4    0    0  0.12902089518E+01  0.17889477396E+01  0.16007412979E+02  0.16158999611E+02  0.10500000000E+00 0.  1.
         13    1    4    4    0    0  0.17999526376E+01  0.27257407125E+01  0.23104105582E+02  0.23334099762E+02  0.10500000000E+00 0. -1.
    3000001    1    5    5    0    0 -0.30844122557E+01  0.49939185250E+01 -0.27879492108E+02  0.28508225153E+02  0.10000000000E+01 0. -1.
        -13    1    6    6    0    0 -0.23580387298E+01 -0.31386539384E+01 -0.21963819805E+02  0.22312146930E+02  0.10500000000E+00 0.  1.
         13    1    6    6    0    0 -0.11689394424E+01 -0.16963545569E+01 -0.11496026108E+02  0.11679626684E+02  0.10500000000E+00 0. -1.
</event>
<event>
11    0  0.3448258E-009  0.9118800E+02  0.7816531E-02  0.1126479E+00
         25   -1    0    0    0    0  0.00000000000E+00  0.00000000000E+00  0.99999998245E-14  0.12500000000E+03  0.12500000000E+03 0.  0.
    3000001    1    3    3    0    0 -0.74901712177E+01  0.37364136307E+02 -0.13765453106E+02  0.40529853763E+02  0.10000000000E+01 0.  1.
    1000022    2    1    0    0    0 -0.50740888178E+01  0.58772131853E+02 -0.18064887820E+02  0.62500000914E+02  0.10000004120E+02 0.  0.
    3000022    2    3    3    0    0  0.24160824000E+01  0.21407995547E+02 -0.42994347140E+01  0.21970147152E+02  0.24999901403E+00 0.  0.
    1000022    2    1    0    0    0  0.50740888178E+01 -0.58772131853E+02  0.18064887820E+02  0.62499999086E+02  0.99999926934E+01 0.  0.
    3000022    2    5    5    0    0  0.33122272206E+00 -0.45363280386E+02  0.15941924645E+02  0.48084762386E+02  0.24999288513E+00 0.  0.
        -13    1    4    4    0    0  0.10981273768E+01  0.99427860091E+01 -0.20604233730E+01  0.10213777305E+02  0.10500000000E+00 0.  1.
         13    1    4    4    0    0  0.13179550232E+01  0.11465209538E+02 -0.22390113410E+01  0.11756369847E+02  0.10500000000E+00 0. -1.
    3000001    1    5    5    0    0  0.47428660957E+01 -0.13408851467E+02  0.21229631747E+01  0.14415236700E+02  0.10000000000E+01 0. -1.
        -13    1    6    6    0    0  0.25510377163E+00 -0.33049893286E+02  0.11650435469E+02  0.35044317596E+02  0.10500000000E+00 0.  1.
         13    1    6    6    0    0  0.76118950427E-01 -0.12313387100E+02  0.42914891764E+01  0.13040444790E+02  0.10500000000E+00 0. -1.
</event>
<event>
11    0  0.3448258E-009  0.9118800E+02  0.7816531E-02  0.1126479E+00
         25   -1    0    0    0    0  0.00000000000E+00  0.00000000000E+00  0.99999998245E-14  0.12500000000E+03  0.12500000000E+03 0.  0.
    3000001    1    3    3    0    0 -0.44355966027E+00 -0.22095082047E+02 -0.50970975941E+01  0.22701757635E+02  0.10000000000E+01 0.  1.
    1000022    2    1    0    0    0  0.50443416217E+01 -0.61433217651E+02 -0.26007755939E+01  0.62500000034E+02  0.10000017862E+02 0.  0.
    3000022    2    3    3    0    0  0.54879012820E+01 -0.39338135604E+02  0.24963220002E+01  0.39798242400E+02  0.25000252658E+00 0.  0.
    1000022    2    1    0    0    0 -0.50443416217E+01  0.61433217651E+02  0.26007755939E+01  0.62499999966E+02  0.10000017433E+02 0.  0.
    3000022    2    5    5    0    0 -0.47195239899E+01  0.24024564320E+02  0.50355373228E+01  0.24997454516E+02  0.24999737146E+00 0.  0.
        -13    1    4    4    0    0  0.28766061986E+01 -0.20129787104E+02  0.12758659016E+01  0.20374544188E+02  0.10500000000E+00 0.  1.
         13    1    4    4    0    0  0.26112950833E+01 -0.19208348501E+02  0.12204560987E+01  0.19423698212E+02  0.10500000000E+00 0. -1.
    3000001    1    5    5    0    0 -0.32481763182E+00  0.37408653331E+02 -0.24347617289E+01  0.37502545449E+02  0.10000000000E+01 0.  1.
        -13    1    6    6    0    0 -0.14812501187E+01  0.74582844417E+01  0.15171211779E+01  0.77545335382E+01  0.10500000000E+00 0. -1.
         13    1    6    6    0    0 -0.32382738712E+01  0.16566279879E+02  0.35184161449E+01  0.17242920978E+02  0.10500000000E+00 0.  1.
</event>
<event>
11    0  0.3448258E-009  0.9118800E+02  0.7816531E-02  0.1126479E+00
         25   -1    0    0    0    0  0.00000000000E+00  0.00000000000E+00  0.99999998245E-14  0.12500000000E+03  0.12500000000E+03 0.  0.
    3000001    1    3    3    0    0  0.51960398755E+00  0.27454228749E+01  0.15209039068E+01  0.33347389343E+01  0.10000000000E+01 0. -1.
    1000022    2    1    0    0    0  0.38529906878E+02  0.48016388042E+02  0.40153026756E+01  0.62499998474E+02  0.99999954522E+01 0.  0.
    3000022    2    3    3    0    0  0.38010302891E+02  0.45270965167E+02  0.24943987688E+01  0.59165259540E+02  0.24999639789E+00 0.  0.
    1000022    2    1    0    0    0 -0.38529906878E+02 -0.48016388042E+02 -0.40153026756E+01  0.62500001526E+02  0.10000014523E+02 0.  0.
    3000022    2    5    5    0    0 -0.25389028970E+02 -0.23847494290E+02 -0.27686338252E+01  0.34943291260E+02  0.24998984589E+00 0.  0.
        -13    1    4    4    0    0  0.26304276928E+02  0.31402430810E+02  0.17344784686E+01  0.41000574216E+02  0.10500000000E+00 0.  1.
         13    1    4    4    0    0  0.11706025963E+02  0.13868534357E+02  0.75992030015E+00  0.18164685324E+02  0.10500000000E+00 0. -1.
    3000001    1    5    5    0    0 -0.13140877909E+02 -0.24168893752E+02 -0.12466688504E+01  0.27556710265E+02  0.10000000000E+01 0.  1.
        -13    1    6    6    0    0 -0.10368526513E+02 -0.97840675471E+01 -0.10781511498E+01  0.14297124001E+02  0.10500000000E+00 0.  1.
         13    1    6    6    0    0 -0.15020502457E+02 -0.14063426743E+02 -0.16904826755E+01  0.20646167259E+02  0.10500000000E+00 0. -1.
</event>
<event>
11    0  0.3448258E-009  0.9118800E+02  0.7816531E-02  0.1126479E+00
         25   -1    0    0    0    0  0.00000000000E+00  0.00000000000E+00  0.99999998245E-14  0.12500000000E+03  0.12500000000E+03 0.  0.
    3000001    1    3    3    0    0 -0.27685139757E+02  0.50111672324E+02 -0.18374776309E+02  0.60135505908E+02  0.10000000000E+01 0.  1.
    1000022    2    1    0    0    0 -0.28478165789E+02  0.50746291216E+02 -0.20495320368E+02  0.62500001656E+02  0.10000002559E+02 0.  0.
    3000022    2    3    3    0    0 -0.79302603241E+00  0.63461889184E+00 -0.21205440590E+01  0.23644957479E+01  0.25000321909E+00 0.  0.
    1000022    2    1    0    0    0  0.28478165789E+02 -0.50746291216E+02  0.20495320368E+02  0.62499998344E+02  0.99999818547E+01 0.  0.
    3000022    2    5    5    0    0  0.16357786046E+02 -0.35365201459E+02  0.17298011316E+02  0.42632831651E+02  0.25000103322E+00 0.  0.
        -13    1    4    4    0    0 -0.23498177072E+00  0.17961792946E+00 -0.54190939760E+00  0.62623464322E+00  0.10500000000E+00 0.  1.
         13    1    4    4    0    0 -0.55804426169E+00  0.45500096237E+00 -0.15786346614E+01  0.17382611047E+01  0.10500000000E+00 0. -1.
    3000001    1    5    5    0    0  0.12120379744E+02 -0.15381089756E+02  0.31973090522E+01  0.19867166693E+02  0.10000000000E+01 0. -1.
        -13    1    6    6    0    0  0.92091569547E+01 -0.19841714708E+02  0.97760467765E+01  0.23960056968E+02  0.10500000000E+00 0. -1.
         13    1    6    6    0    0  0.71486290913E+01 -0.15523486752E+02  0.75219645392E+01  0.18672774683E+02  0.10500000000E+00 0.  1.
</event>
<event>
11    0  0.3448258E-009  0.9118800E+02  0.7816531E-02  0.1126479E+00
         25   -1    0    0    0    0  0.00000000000E+00  0.00000000000E+00  0.99999998245E-14  0.12500000000E+03  0.12500000000E+03 0.  0.
    3000001    1    3    3    0    0 -0.13730305825E+02  0.23994792063E+02 -0.15997739170E+02  0.31956204449E+02  0.10000000000E+01 0. -1.
    1000022    2    1    0    0    0 -0.34822981408E+02  0.42207029679E+02 -0.28498714442E+02  0.62500000013E+02  0.99999944119E+01 0.  0.
    3000022    2    3    3    0    0 -0.21092675584E+02  0.18212237616E+02 -0.12500975272E+02  0.30543795564E+02  0.25000492856E+00 0.  0.
    1000022    2    1    0    0    0  0.34822981408E+02 -0.42207029679E+02  0.28498714442E+02  0.62499999987E+02  0.99999942533E+01 0.  0.
    3000022    2    5    5    0    0  0.21898160721E+02 -0.19766100743E+02  0.17855729003E+02  0.34483586577E+02  0.25000687173E+00 0.  0.
        -13    1    4    4    0    0 -0.96617462186E+01  0.83494787608E+01 -0.56551429094E+01  0.13966202129E+02  0.10500000000E+00 0. -1.
         13    1    4    4    0    0 -0.11430929365E+02  0.98627588551E+01 -0.68458323623E+01  0.16577593436E+02  0.10500000000E+00 0.  1.
    3000001    1    5    5    0    0  0.12924820687E+02 -0.22440928937E+02  0.10642985438E+02  0.28016413410E+02  0.10000000000E+01 0.  1.
        -13    1    6    6    0    0  0.12078890965E+02 -0.10853928419E+02  0.97638855529E+01  0.18948663677E+02  0.10500000000E+00 0.  1.
         13    1    6    6    0    0  0.98192697558E+01 -0.89121723237E+01  0.80918434505E+01  0.15534922899E+02  0.10500000000E+00 0. -1.
</event>
<event>
11    0  0.3448258E-009  0.9118800E+02  0.7816531E-02  0.1126479E+00
         25   -1    0    0    0    0  0.00000000000E+00  0.00000000000E+00  0.99999998245E-14  0.12500000000E+03  0.12500000000E+03 0.  0.
    3000001    1    3    3    0    0  0.37804886967E+01 -0.68817126066E+01 -0.10344966987E+02  0.13025682521E+02  0.10000000000E+01 0.  1.
    1000022    2    1    0    0    0  0.48088189377E+01 -0.44507483471E+02 -0.42452434420E+02  0.62499999661E+02  0.99999972422E+01 0.  0.
    3000022    2    3    3    0    0  0.10283302410E+01 -0.37625770865E+02 -0.32107467433E+02  0.49474317139E+02  0.24999033192E+00 0.  0.
    1000022    2    1    0    0    0 -0.48088189377E+01  0.44507483471E+02  0.42452434420E+02  0.62500000339E+02  0.10000001485E+02 0.  0.
    3000022    2    5    5    0    0 -0.77220916636E+01  0.32199462640E+02  0.29131793292E+02  0.44103967756E+02  0.24999482487E+00 0.  0.
        -13    1    4    4    0    0  0.68373683428E+00 -0.26600485173E+02 -0.22688414488E+02  0.34968964590E+02  0.10500000000E+00 0. -1.
         13    1    4    4    0    0  0.34459340670E+00 -0.11025285692E+02 -0.94190529453E+01  0.14505352549E+02  0.10500000000E+00 0.  1.
    3000001    1    5    5    0    0  0.29132727259E+01  0.12308020831E+02  0.13320641128E+02  0.18396032584E+02  0.10000000000E+01 0.  1.
        -13    1    6    6    0    0 -0.53131715907E+01  0.22022167742E+02  0.19982304922E+02  0.30207767203E+02  0.10500000000E+00 0. -1.
         13    1    6    6    0    0 -0.24089200729E+01  0.10177294899E+02  0.91494883701E+01  0.13896200553E+02  0.10500000000E+00 0.  1.
</event>
<event>
11    0  0.3448258E-009  0.9118800E+02  0.7816531E-02  0.1126479E+00
         25   -1    0    0    0    0  0.00000000000E+00  0.00000000000E+00  0.99999998245E-14  0.12500000000E+03  0.12500000000E+03 0.  0.
    3000001    1    3    3    0    0  0.49166461675E+02 -0.22388127711E+02 -0.14575472540E+02  0.55964395965E+02  0.10000000000E+01 0. -1.
    1000022    2    1    0    0    0  0.53147993858E+02 -0.27554071960E+02 -0.14910192426E+02  0.62500000045E+02  0.10000001734E+02 0.  0.
    3000022    2    3    3    0    0  0.39815321838E+01 -0.51659442494E+01 -0.33471988658E+00  0.65356040799E+01  0.25000953533E+00 0.  0.
    1000022    2    1    0    0    0 -0.53147993858E+02  0.27554071960E+02  0.14910192426E+02  0.62499999955E+02  0.10000001171E+02 0.  0.
    3000022    2    5    5    0    0 -0.26034022899E+02  0.17663478557E+02  0.43988451983E+01  0.31767611834E+02  0.24999905330E+00 0.  0.
        -13    1    4    4    0    0  0.22492618481E+01 -0.28190994548E+01 -0.21253963996E+00  0.36142355618E+01  0.10500000000E+00 0. -1.
         13    1    4    4    0    0  0.17322703357E+01 -0.23468447946E+01 -0.12218024662E+00  0.29213685181E+01  0.10500000000E+00 0.  1.
    3000001    1    5    5    0    0 -0.27113970960E+02  0.98905934029E+01  0.10511347228E+02  0.30732388121E+02  0.10000000000E+01 0. -1.
        -13    1    6    6    0    0 -0.12687489835E+02  0.86010541501E+01  0.20750426830E+01  0.15468269390E+02  0.10500000000E+00 0. -1.
         13    1    6    6    0    0 -0.13346533064E+02  0.90624244072E+01  0.23238025154E+01  0.16299342444E+02  0.10500000000E+00 0.  1.
</event>
<event>
11    0  0.3448258E-009  0.9118800E+02  0.7816531E-02  0.1126479E+00
         25   -1    0    0    0    0  0.00000000000E+00  0.00000000000E+00  0.99999998245E-14  0.12500000000E+03  0.12500000000E+03 0.  0.
    3000001    1    3    3    0    0 -0.55258934672E+01 -0.22631793755E+02 -0.44057377724E+02  0.49847629022E+02  0.10000000000E+01 0. -1.
    1000022    2    1    0    0    0 -0.89307143768E+01 -0.23892647840E+02 -0.56175016175E+02  0.62499989287E+02  0.99999969284E+01 0.  0.
    3000022    2    3    3    0    0 -0.34048209097E+01 -0.12608540847E+01 -0.12117638451E+02  0.12652360265E+02  0.25000041274E+00 0.  0.
    1000022    2    1    0    0    0  0.89307143768E+01  0.23892647840E+02  0.56175016175E+02  0.62500010713E+02  0.10000130836E+02 0.  0.
    3000022    2    5    5    0    0  0.13659255532E+01  0.16904640055E+02  0.32405097786E+02  0.36575749817E+02  0.25000834797E+00 0.  0.
        -13    1    4    4    0    0 -0.11258978999E+01 -0.46553838956E+00 -0.41732896583E+01  0.43487634616E+01  0.10500000000E+00 0. -1.
         13    1    4    4    0    0 -0.22789230097E+01 -0.79531569509E+00 -0.79443487927E+01  0.83035968037E+01  0.10500000000E+00 0.  1.
    3000001    1    5    5    0    0  0.75647888236E+01  0.69880077847E+01  0.23769918389E+02  0.25924260896E+02  0.10000000000E+01 0.  1.
        -13    1    6    6    0    0  0.74035771373E+00  0.88147122316E+01  0.16768708783E+02  0.18959111280E+02  0.10500000000E+00 0. -1.
         13    1    6    6    0    0  0.62556783945E+00  0.80899278237E+01  0.15636389003E+02  0.17616638537E+02  0.10500000000E+00 0.  1.
</event>
<event>
11    0  0.3448258E-009  0.9118800E+02  0.7816531E-02  0.1126479E+00
         25   -1    0    0    0    0  0.00000000000E+00  0.00000000000E+00  0.99999998245E-14  0.12500000000E+03  0.12500000000E+03 0.  0.
    3000001    1    3    3    0    0 -0.54406162580E+01 -0.90107306764E+00  0.22073503336E+02  0.22773927801E+02  0.10000000000E+01 0. -1.
    1000022    2    1    0    0    0 -0.26526632675E+02 -0.54057945730E+01  0.55437939393E+02  0.62499998576E+02  0.99999920925E+01 0.  0.
    3000022    2    3    3    0    0 -0.21086016417E+02 -0.45047215054E+01  0.33364436056E+02  0.39726070775E+02  0.25000337757E+00 0.  0.
    1000022    2    1    0    0    0  0.26526632675E+02  0.54057945730E+01 -0.55437939393E+02  0.62500001424E+02  0.10000009892E+02 0.  0.
    3000022    2    5    5    0    0  0.13445045370E+02  0.53526571220E+01 -0.38107487405E+02  0.40763504095E+02  0.24997308131E+00 0.  0.
        -13    1    4    4    0    0 -0.13721563244E+02 -0.28782548216E+01  0.21653110027E+02  0.25796004488E+02  0.10500000000E+00 0.  1.
         13    1    4    4    0    0 -0.73644531729E+01 -0.16264666838E+01  0.11711326029E+02  0.13930066287E+02  0.10500000000E+00 0. -1.
    3000001    1    5    5    0    0  0.13081587306E+02  0.53137451062E-01 -0.17330451987E+02  0.21736497329E+02  0.10000000000E+01 0.  1.
        -13    1    6    6    0    0  0.38746283152E+01  0.15555509171E+01 -0.10882355793E+02  0.11656293401E+02  0.10500000000E+00 0.  1.
         13    1    6    6    0    0  0.95704170543E+01  0.37971062048E+01 -0.27225131612E+02  0.29107210695E+02  0.10500000000E+00 0. -1.
</event>
<event>
11    0  0.3448258E-009  0.9118800E+02  0.7816531E-02  0.1126479E+00
         25   -1    0    0    0    0  0.00000000000E+00  0.00000000000E+00  0.99999998245E-14  0.12500000000E+03  0.12500000000E+03 0.  0.
    3000001    1    3    3    0    0 -0.64650342559E+01 -0.59089401168E+01  0.14615939962E+02  0.17068624496E+02  0.10000000000E+01 0. -1.
    1000022    2    1    0    0    0 -0.89778798572E+01 -0.17628632071E+02  0.58436964246E+02  0.62500004075E+02  0.10000036186E+02 0.  0.
    3000022    2    3    3    0    0 -0.25128456013E+01 -0.11719691955E+02  0.43821024284E+02  0.45431379579E+02  0.25001724952E+00 0.  0.
    1000022    2    1    0    0    0  0.89778798572E+01  0.17628632071E+02 -0.58436964246E+02  0.62499995925E+02  0.99999852454E+01 0.  0.
    3000022    2    5    5    0    0  0.49160563723E+01  0.23406406960E+01 -0.84065731489E+01  0.10018941023E+02  0.24999597855E+00 0.  0.
        -13    1    4    4    0    0 -0.14787053800E+01 -0.66387886743E+01  0.24722448640E+02  0.25641189060E+02  0.10500000000E+00 0. -1.
         13    1    4    4    0    0 -0.10341402213E+01 -0.50809032802E+01  0.19098575644E+02  0.19790190519E+02  0.10500000000E+00 0.  1.
    3000001    1    5    5    0    0  0.40618234849E+01  0.15287991375E+02 -0.50030391097E+02  0.52481054902E+02  0.10000000000E+01 0. -1.
        -13    1    6    6    0    0  0.20080963725E+01  0.89258866130E+00 -0.33437762238E+01  0.40026278861E+01  0.10500000000E+00 0.  1.
         13    1    6    6    0    0  0.29079599998E+01  0.14480520347E+01 -0.50627969251E+01  0.60163131368E+01  0.10500000000E+00 0. -1.
</event>
<event>
11    0  0.3448258E-009  0.9118800E+02  0.7816531E-02  0.1126479E+00
         25   -1    0    0    0    0  0.00000000000E+00  0.00000000000E+00  0.99999998245E-14  0.12500000000E+03  0.12500000000E+03 0.  0.
    3000001    1    3    3    0    0  0.57449065972E+01 -0.52286018921E+01  0.15803893463E+02  0.17638176724E+02  0.10000000000E+01 0. -1.
    1000022    2    1    0    0    0  0.15698751018E+02 -0.32290693739E+02  0.50170809724E+02  0.62500000907E+02  0.10000013970E+02 0.  0.
    3000022    2    3    3    0    0  0.99538444206E+01 -0.27062091847E+02  0.34366916261E+02  0.44861824183E+02  0.25000380595E+00 0.  0.
    1000022    2    1    0    0    0 -0.15698751018E+02  0.32290693739E+02 -0.50170809724E+02  0.62499999093E+02  0.10000002631E+02 0.  0.
    3000022    2    5    5    0    0 -0.12658328603E+02  0.15460125066E+02 -0.24146374019E+02  0.31342600870E+02  0.25000182588E+00 0.  0.
        -13    1    4    4    0    0  0.38411132965E+01 -0.10489569761E+02  0.13221552743E+02  0.17309122077E+02  0.10500000000E+00 0. -1.
         13    1    4    4    0    0  0.61127311241E+01 -0.16572522086E+02  0.21145363518E+02  0.27552702107E+02  0.10500000000E+00 0.  1.
    3000001    1    5    5    0    0 -0.30404224148E+01  0.16830568672E+02 -0.26024435705E+02  0.31157398223E+02  0.10000000000E+01 0. -1.
        -13    1    6    6    0    0 -0.96670226413E+01  0.11788161406E+02 -0.18403372687E+02  0.23897849847E+02  0.10500000000E+00 0. -1.
         13    1    6    6    0    0 -0.29913059617E+01  0.36719636607E+01 -0.57430013320E+01  0.74447510221E+01  0.10500000000E+00 0.  1.
</event>
<event>
11    0  0.3448258E-009  0.9118800E+02  0.7816531E-02  0.1126479E+00
         25   -1    0    0    0    0  0.00000000000E+00  0.00000000000E+00  0.99999998245E-14  0.12500000000E+03  0.12500000000E+03 0.  0.
    3000001    1    3    3    0    0  0.69726750708E+01 -0.38827633669E+02 -0.14615997200E+02  0.42081239384E+02  0.10000000000E+01 0. -1.
    1000022    2    1    0    0    0  0.76353546753E+01 -0.59212713925E+02 -0.15550104714E+02  0.62499997954E+02  0.99999928124E+01 0.  0.
    3000022    2    3    3    0    0  0.66267960450E+00 -0.20385080256E+02 -0.93410751379E+00  0.20418758570E+02  0.25000673617E+00 0.  0.
    1000022    2    1    0    0    0 -0.76353546753E+01  0.59212713925E+02  0.15550104714E+02  0.62500002046E+02  0.10000018384E+02 0.  0.
    3000022    2    5    5    0    0 -0.82885899892E+00 -0.43915135255E-01  0.38148880725E+00  0.94707051899E+00  0.24994615158E+00 0.  0.
        -13    1    4    4    0    0  0.49404324718E+00 -0.15093501431E+02 -0.66031226458E+00  0.15116378583E+02  0.10500000000E+00 0.  1.
         13    1    4    4    0    0  0.16863635733E+00 -0.52915788251E+01 -0.27379524921E+00  0.53023799865E+01  0.10500000000E+00 0. -1.
    3000001    1    5    5    0    0 -0.68064956764E+01  0.59256629060E+02  0.15168615907E+02  0.61552931527E+02  0.10000000000E+01 0.  1.
        -13    1    6    6    0    0 -0.29912102750E+00  0.21006821811E-01  0.91286121009E-01  0.33056441361E+00  0.10500000000E+00 0. -1.
         13    1    6    6    0    0 -0.52973797141E+00 -0.64921957067E-01  0.29020268624E+00  0.61650610538E+00  0.10500000000E+00 0.  1.
</event>
<event>
11    0  0.3448258E-009  0.9118800E+02  0.7816531E-02  0.1126479E+00
         25   -1    0    0    0    0  0.00000000000E+00  0.00000000000E+00  0.99999998245E-14  0.12500000000E+03  0.12500000000E+03 0.  0.
    3000001    1    3    3    0    0  0.21517132165E+02  0.74687368645E+01 -0.47260296289E+01  0.23283134733E+02  0.10000000000E+01 0.  1.
    1000022    2    1    0    0    0  0.53588795991E+02  0.18110088390E+02 -0.24627537836E+02  0.62499999859E+02  0.10000000259E+02 0.  0.
    3000022    2    3    3    0    0  0.32071663826E+02  0.10641351526E+02 -0.19901508207E+02  0.39216865125E+02  0.24999692349E+00 0.  0.
    1000022    2    1    0    0    0 -0.53588795991E+02 -0.18110088390E+02  0.24627537836E+02  0.62500000141E+02  0.10000002027E+02 0.  0.
    3000022    2    5    5    0    0 -0.12576910512E+01  0.36081805126E+00  0.23311046597E+01  0.26848694354E+01  0.24999700850E+00 0.  0.
        -13    1    4    4    0    0  0.15948170550E+02  0.53162439141E+01 -0.98270611532E+01  0.19472769427E+02  0.10500000000E+00 0.  1.
         13    1    4    4    0    0  0.16123493276E+02  0.53251076119E+01 -0.10074447054E+02  0.19744095698E+02  0.10500000000E+00 0. -1.
    3000001    1    5    5    0    0 -0.52331104940E+02 -0.18470906442E+02  0.22296433177E+02  0.59815130706E+02  0.10000000000E+01 0. -1.
        -13    1    6    6    0    0 -0.95639737885E+00  0.24932083705E+00  0.17589158900E+01  0.20203135732E+01  0.10500000000E+00 0.  1.
         13    1    6    6    0    0 -0.30129367236E+00  0.11149721421E+00  0.57218876969E+00  0.66455586216E+00  0.10500000000E+00 0. -1.
</event>
<event>
11    0  0.3448258E-009  0.9118800E+02  0.7816531E-02  0.1126479E+00
         25   -1    0    0    0    0  0.00000000000E+00  0.00000000000E+00  0.99999998245E-14  0.12500000000E+03  0.12500000000E+03 0.  0.
    3000001    1    3    3    0    0  0.67076726398E+01 -0.10415990185E+02 -0.53198861450E+02  0.54631534697E+02  0.10000000000E+01 0.  1.
    1000022    2    1    0    0    0  0.61988455985E+01 -0.84539413329E+01 -0.60797657869E+02  0.62500000105E+02  0.99999999995E+01 0.  0.
    3000022    2    3    3    0    0 -0.50882704128E+00  0.19620488522E+01 -0.75987964195E+01  0.78684654087E+01  0.25000041361E+00 0.  0.
    1000022    2    1    0    0    0 -0.61988455985E+01  0.84539413329E+01  0.60797657869E+02  0.62499999895E+02  0.99999986813E+01 0.  0.
    3000022    2    5    5    0    0 -0.33854666615E+00 -0.73166206420E+00  0.26196108745E+02  0.26209703462E+02  0.24999796404E+00 0.  0.
        -13    1    4    4    0    0 -0.27438656986E+00  0.11616301101E+01 -0.46894230810E+01  0.48400812323E+01  0.10500000000E+00 0.  1.
         13    1    4    4    0    0 -0.23444047142E+00  0.80041874209E+00 -0.29093733385E+01  0.30283841764E+01  0.10500000000E+00 0. -1.
    3000001    1    5    5    0    0 -0.58602989324E+01  0.91856033971E+01  0.34601549124E+02  0.36290296432E+02  0.10000000000E+01 0. -1.
        -13    1    6    6    0    0 -0.13831550341E+00 -0.28995404441E+00  0.87080649030E+01  0.87146212701E+01  0.10500000000E+00 0.  1.
         13    1    6    6    0    0 -0.20023116275E+00 -0.44170801979E+00  0.17488043842E+02  0.17495082192E+02  0.10500000000E+00 0. -1.
</event>
<event>
11    0  0.3448258E-009  0.9118800E+02  0.7816531E-02  0.1126479E+00
         25   -1    0    0    0    0  0.00000000000E+00  0.00000000000E+00  0.99999998245E-14  0.12500000000E+03  0.12500000000E+03 0.  0.
    3000001    1    3    3    0    0 -0.15538604008E+02  0.24649259492E+02  0.36588473473E+01  0.29384032601E+02  0.10000000000E+01 0.  1.
    1000022    2    1    0    0    0 -0.40832221834E+02  0.45984675829E+02  0.49385703269E+01  0.62499999753E+02  0.99999870674E+01 0.  0.
    3000022    2    3    3    0    0 -0.25293617826E+02  0.21335416337E+02  0.12797229795E+01  0.33115967152E+02  0.24999303149E+00 0.  0.
    1000022    2    1    0    0    0  0.40832221834E+02 -0.45984675829E+02 -0.49385703269E+01  0.62500000247E+02  0.99999901492E+01 0.  0.
    3000022    2    5    5    0    0  0.37471236974E+02 -0.37047917832E+02 -0.37718134591E+01  0.52829261686E+02  0.24999488085E+00 0.  0.
        -13    1    4    4    0    0 -0.19033689286E+02  0.16041832585E+02  0.98546939967E+00  0.24911922757E+02  0.10500000000E+00 0. -1.
         13    1    4    4    0    0 -0.62599285400E+01  0.52935837519E+01  0.29425357987E+00  0.82040443949E+01  0.10500000000E+00 0.  1.
    3000001    1    5    5    0    0  0.33609848595E+01 -0.89367579969E+01 -0.11667568678E+01  0.96707385607E+01  0.10000000000E+01 0. -1.
        -13    1    6    6    0    0  0.10210657275E+02 -0.10144781226E+02 -0.10182081710E+01  0.14429895390E+02  0.10500000000E+00 0. -1.
         13    1    6    6    0    0  0.27260579700E+02 -0.26903136606E+02 -0.27536052881E+01  0.38399366295E+02  0.10500000000E+00 0.  1.
</event>
<event>
11    0  0.3448258E-009  0.9118800E+02  0.7816531E-02  0.1126479E+00
         25   -1    0    0    0    0  0.00000000000E+00  0.00000000000E+00  0.99999998245E-14  0.12500000000E+03  0.12500000000E+03 0.  0.
    3000001    1    3    3    0    0  0.15659654185E+02  0.98851219047E+01 -0.34536602813E+02  0.39200986443E+02  0.10000000000E+01 0. -1.
    1000022    2    1    0    0    0  0.23517948542E+02  0.22738528483E+02 -0.52307899029E+02  0.62500006088E+02  0.99999939517E+01 0.  0.
    3000022    2    3    3    0    0  0.78582943564E+01  0.12853406578E+02 -0.17771296216E+02  0.23299019644E+02  0.24999272126E+00 0.  0.
    1000022    2    1    0    0    0 -0.23517948542E+02 -0.22738528483E+02  0.52307899029E+02  0.62499993912E+02  0.99999178524E+01 0.  0.
    3000022    2    5    5    0    0 -0.20773927460E+02 -0.18293669897E+02  0.48875139168E+02  0.56169886504E+02  0.25000143961E+00 0.  0.
        -13    1    4    4    0    0  0.33972253809E+01  0.54863353646E+01 -0.75285561179E+01  0.99162088644E+01  0.10500000000E+00 0. -1.
         13    1    4    4    0    0  0.44610689755E+01  0.73670712133E+01 -0.10242740098E+02  0.13382810780E+02  0.10500000000E+00 0.  1.
    3000001    1    5    5    0    0 -0.27440210814E+01 -0.44448585855E+01  0.34327598606E+01  0.63301074083E+01  0.10000000000E+01 0. -1.
        -13    1    6    6    0    0 -0.11475713379E+02 -0.10036427084E+02  0.26833420273E+02  0.30862037112E+02  0.10500000000E+00 0.  1.
         13    1    6    6    0    0 -0.92982140817E+01 -0.82572428129E+01  0.22041718895E+02  0.25307849392E+02  0.10500000000E+00 0. -1.
</event>
<event>
11    0  0.3448258E-009  0.9118800E+02  0.7816531E-02  0.1126479E+00
         25   -1    0    0    0    0  0.00000000000E+00  0.00000000000E+00  0.99999998245E-14  0.12500000000E+03  0.12500000000E+03 0.  0.
    3000001    1    3    3    0    0 -0.18956015639E+01  0.17487744583E+01  0.17260467254E+01  0.32604838127E+01  0.10000000000E+01 0.  1.
    1000022    2    1    0    0    0 -0.41180341341E+02  0.45850463521E+02 -0.28573898097E+01  0.62499998879E+02  0.99999832680E+01 0.  0.
    3000022    2    3    3    0    0 -0.39284739777E+02  0.44101689062E+02 -0.45834365351E+01  0.59239515067E+02  0.24999466872E+00 0.  0.
    1000022    2    1    0    0    0  0.41180341341E+02 -0.45850463521E+02  0.28573898097E+01  0.62500001121E+02  0.99999972750E+01 0.  0.
    3000022    2    5    5    0    0  0.17796261693E+02 -0.25978154385E+02  0.41873491221E+01  0.31767402090E+02  0.25001478756E+00 0.  0.
        -13    1    4    4    0    0 -0.15968506312E+02  0.17958707609E+02 -0.18047845901E+01  0.24099307982E+02  0.10500000000E+00 0. -1.
         13    1    4    4    0    0 -0.23316233465E+02  0.26142981454E+02 -0.27786519450E+01  0.35140207084E+02  0.10500000000E+00 0.  1.
    3000001    1    5    5    0    0  0.23384079649E+02 -0.19872309135E+02 -0.13299593124E+01  0.30732599030E+02  0.10000000000E+01 0. -1.
        -13    1    6    6    0    0  0.68975840910E+01 -0.10162279893E+02  0.16005050201E+01  0.12386332800E+02  0.10500000000E+00 0. -1.
         13    1    6    6    0    0  0.10898677602E+02 -0.15815874492E+02  0.25868441020E+01  0.19381069290E+02  0.10500000000E+00 0.  1.
</event>
<event>
11    0  0.3448258E-009  0.9118800E+02  0.7816531E-02  0.1126479E+00
         25   -1    0    0    0    0  0.00000000000E+00  0.00000000000E+00  0.99999998245E-14  0.12500000000E+03  0.12500000000E+03 0.  0.
    3000001    1    3    3    0    0  0.96331950692E+01  0.11982324567E+01  0.14266297809E+02  0.17284717569E+02  0.10000000000E+01 0.  1.
    1000022    2    1    0    0    0  0.38569259509E+02  0.18097074006E+02  0.44622395658E+02  0.62500000903E+02  0.10000002594E+02 0.  0.
    3000022    2    3    3    0    0  0.28936064440E+02  0.16898841549E+02  0.30356097849E+02  0.45215283334E+02  0.24999866437E+00 0.  0.
    1000022    2    1    0    0    0 -0.38569259509E+02 -0.18097074006E+02 -0.44622395658E+02  0.62499999097E+02  0.99999913116E+01 0.  0.
    3000022    2    5    5    0    0 -0.18898232454E+01 -0.87136218649E+00 -0.65930109546E+01  0.69181648955E+01  0.25001622763E+00 0.  0.
        -13    1    4    4    0    0  0.68665419235E+01  0.40030483395E+01  0.72219146769E+01  0.10739686708E+02  0.10500000000E+00 0.  1.
         13    1    4    4    0    0  0.22069522517E+02  0.12895793210E+02  0.23134183172E+02  0.34475596625E+02  0.10500000000E+00 0. -1.
    3000001    1    5    5    0    0 -0.36679436264E+02 -0.17225711820E+02 -0.38029384703E+02  0.55581834202E+02  0.10000000000E+01 0.  1.
        -13    1    6    6    0    0 -0.14514466251E+01 -0.66874256157E+00 -0.50819367543E+01  0.53283224465E+01  0.10500000000E+00 0. -1.
         13    1    6    6    0    0 -0.43837662037E+00 -0.20261962492E+00 -0.15110742003E+01  0.15898424489E+01  0.10500000000E+00 0.  1.
</event>
<event>
11    0  0.3448258E-009  0.9118800E+02  0.7816531E-02  0.1126479E+00
         25   -1    0    0    0    0  0.00000000000E+00  0.00000000000E+00  0.99999998245E-14  0.12500000000E+03  0.12500000000E+03 0.  0.
    3000001    1    3    3    0    0 -0.20104578531E+02 -0.29780187862E+02 -0.13141343545E+01  0.35969162016E+02  0.10000000000E+01 0.  1.
    1000022    2    1    0    0    0 -0.37644517413E+02 -0.47965317699E+02 -0.94057734892E+01  0.62500003032E+02  0.10000020541E+02 0.  0.
    3000022    2    3    3    0    0 -0.17539938882E+02 -0.18185129837E+02 -0.80916391347E+01  0.26530841016E+02  0.24999592994E+00 0.  0.
    1000022    2    1    0    0    0  0.37644517413E+02  0.47965317699E+02  0.94057734892E+01  0.62499996968E+02  0.99999826359E+01 0.  0.
    3000022    2    5    5    0    0  0.22091766543E+02  0.20551250883E+02  0.61879038863E+01  0.30801829768E+02  0.25000136088E+00 0.  0.
        -13    1    4    4    0    0 -0.12299694484E+02 -0.12747619865E+02 -0.57206599852E+01  0.18615081850E+02  0.10500000000E+00 0.  1.
         13    1    4    4    0    0 -0.52402443979E+01 -0.54375099720E+01 -0.23709791495E+01  0.79157591660E+01  0.10500000000E+00 0. -1.
    3000001    1    5    5    0    0  0.15552750870E+02  0.27414066816E+02  0.32178696029E+01  0.31698167200E+02  0.10000000000E+01 0. -1.
        -13    1    6    6    0    0  0.10247895117E+02  0.96211831966E+01  0.29027674541E+01  0.14353522366E+02  0.10500000000E+00 0.  1.
         13    1    6    6    0    0  0.11843871427E+02  0.10930067687E+02  0.32851364322E+01  0.16448307402E+02  0.10500000000E+00 0. -1.
</event>
<event>
11    0  0.3448258E-009  0.9118800E+02  0.7816531E-02  0.1126479E+00
         25   -1    0    0    0    0  0.00000000000E+00  0.00000000000E+00  0.99999998245E-14  0.12500000000E+03  0.12500000000E+03 0.  0.
    3000001    1    3    3    0    0  0.53270698435E+01  0.14055975885E+02 -0.48038907137E+02  0.50345652544E+02  0.10000000000E+01 0.  1.
    1000022    2    1    0    0    0  0.11185342492E+02  0.17838376960E+02 -0.57990779395E+02  0.62500000492E+02  0.99999993713E+01 0.  0.
    3000022    2    3    3    0    0  0.58582726487E+01  0.37824010746E+01 -0.99518722580E+01  0.12154347948E+02  0.24999254970E+00 0.  0.
    1000022    2    1    0    0    0 -0.11185342492E+02 -0.17838376960E+02  0.57990779395E+02  0.62499999508E+02  0.99999932213E+01 0.  0.
    3000022    2    5    5    0    0 -0.91322306091E+01 -0.12848916514E+02  0.29134540203E+02  0.33126669355E+02  0.24999651899E+00 0.  0.
        -13    1    4    4    0    0  0.32351828282E+01  0.21602125850E+01 -0.55993798950E+01  0.68188713548E+01  0.10500000000E+00 0. -1.
         13    1    4    4    0    0  0.26230898205E+01  0.16221884896E+01 -0.43524923630E+01  0.53354765927E+01  0.10500000000E+00 0.  1.
    3000001    1    5    5    0    0 -0.20531118831E+01 -0.49894604460E+01  0.28856239192E+02  0.29373330153E+02  0.10000000000E+01 0. -1.
        -13    1    6    6    0    0 -0.56814742968E+01 -0.78954310903E+01  0.18023564222E+02  0.20481134601E+02  0.10500000000E+00 0.  1.
         13    1    6    6    0    0 -0.34507563123E+01 -0.49534854237E+01  0.11110975981E+02  0.12645534754E+02  0.10500000000E+00 0. -1.
</event>
<event>
11    0  0.3448258E-009  0.9118800E+02  0.7816531E-02  0.1126479E+00
         25   -1    0    0    0    0  0.00000000000E+00  0.00000000000E+00  0.99999998245E-14  0.12500000000E+03  0.12500000000E+03 0.  0.
    3000001    1    3    3    0    0 -0.12979553732E+02 -0.20361750609E+02  0.13439298626E+02  0.27652928426E+02  0.10000000000E+01 0.  1.
    1000022    2    1    0    0    0 -0.20733835197E+02 -0.44609688351E+02  0.37233507593E+02  0.62499997876E+02  0.99999715056E+01 0.  0.
    3000022    2    3    3    0    0 -0.77542814652E+01 -0.24247937742E+02  0.23794208967E+02  0.34847069451E+02  0.25000633749E+00 0.  0.
    1000022    2    1    0    0    0  0.20733835197E+02  0.44609688351E+02 -0.37233507593E+02  0.62500002124E+02  0.99999980515E+01 0.  0.
    3000022    2    5    5    0    0  0.11847335488E+02  0.34975656817E+02 -0.25470752698E+02  0.44860647163E+02  0.24998600630E+00 0.  0.
        -13    1    4    4    0    0 -0.28563646446E+01 -0.90360969631E+01  0.87883706529E+01  0.12925028087E+02  0.10500000000E+00 0.  1.
         13    1    4    4    0    0 -0.48979168206E+01 -0.15211840778E+02  0.15005838314E+02  0.21922041364E+02  0.10500000000E+00 0. -1.
    3000001    1    5    5    0    0  0.88864997096E+01  0.96340315339E+01 -0.11762754895E+02  0.17639354960E+02  0.10000000000E+01 0. -1.
        -13    1    6    6    0    0  0.64873761440E+01  0.19290661328E+02 -0.14098025620E+02  0.24758453407E+02  0.10500000000E+00 0.  1.
         13    1    6    6    0    0  0.53599593437E+01  0.15684995489E+02 -0.11372727078E+02  0.20102193757E+02  0.10500000000E+00 0. -1.
</event>
<event>
11    0  0.3448258E-009  0.9118800E+02  0.7816531E-02  0.1126479E+00
         25   -1    0    0    0    0  0.00000000000E+00  0.00000000000E+00  0.99999998245E-14  0.12500000000E+03  0.12500000000E+03 0.  0.
    3000001    1    3    3    0    0 -0.17689539527E+02  0.14863819607E+02 -0.57419710354E+02  0.61902149229E+02  0.10000000000E+01 0. -1.
    1000022    2    1    0    0    0 -0.17782765879E+02  0.15268127708E+02 -0.57069322300E+02  0.62500000213E+02  0.99999996451E+01 0.  0.
    3000022    2    3    3    0    0 -0.93226352024E-01  0.40430810111E+00  0.35038805476E+00  0.59785098428E+00  0.24999563426E+00 0.  0.
    1000022    2    1    0    0    0  0.17782765879E+02 -0.15268127708E+02  0.57069322300E+02  0.62499999787E+02  0.99999969794E+01 0.  0.
    3000022    2    5    5    0    0  0.16322086496E+01 -0.34417125985E+01  0.19982945642E+02  0.20344289298E+02  0.24999970235E+00 0.  0.
        -13    1    4    4    0    0 -0.29479347169E-01  0.30666594277E+00  0.21037861773E+00  0.38755282886E+00  0.10500000000E+00 0. -1.
         13    1    4    4    0    0 -0.63747004855E-01  0.97642158345E-01  0.14000943703E+00  0.21029815542E+00  0.10500000000E+00 0.  1.
    3000001    1    5    5    0    0  0.16150557229E+02 -0.11826415110E+02  0.37086376658E+02  0.42155710488E+02  0.10000000000E+01 0. -1.
        -13    1    6    6    0    0  0.75454666658E+00 -0.15171307097E+01  0.85811029700E+01  0.87474213025E+01  0.10500000000E+00 0. -1.
         13    1    6    6    0    0  0.87766198304E+00 -0.19245818888E+01  0.11401842672E+02  0.11596867996E+02  0.10500000000E+00 0.  1.
</event>
<event>
11    0  0.3448258E-009  0.9118800E+02  0.7816531E-02  0.1126479E+00
         25   -1    0    0    0    0  0.00000000000E+00  0.00000000000E+00  0.99999998245E-14  0.12500000000E+03  0.12500000000E+03 0.  0.
    3000001    1    3    3    0    0 -0.21453140100E+02  0.30582612603E+01  0.21446852469E+01  0.21798849898E+02  0.10000000000E+01 0.  1.
    1000022    2    1    0    0    0 -0.57265311991E+02  0.15252778299E+02  0.17154787121E+02  0.62500000080E+02  0.10000004282E+02 0.  0.
    3000022    2    3    3    0    0 -0.35812171891E+02  0.12194517039E+02  0.15010101874E+02  0.40701150182E+02  0.25013300386E+00 0.  0.
    1000022    2    1    0    0    0  0.57265311991E+02 -0.15252778299E+02 -0.17154787121E+02  0.62499999920E+02  0.10000003279E+02 0.  0.
    3000022    2    5    5    0    0  0.43222169909E+02 -0.10030296740E+02 -0.16902402074E+02  0.47481749310E+02  0.24999469508E+00 0.  0.
        -13    1    4    4    0    0 -0.24913574201E+02  0.85314610267E+01  0.10435355487E+02  0.28326307135E+02  0.10500000000E+00 0.  1.
         13    1    4    4    0    0 -0.10898597690E+02  0.36630560119E+01  0.45747463867E+01  0.12374843047E+02  0.10500000000E+00 0. -1.
    3000001    1    5    5    0    0  0.14043142082E+02 -0.52224815586E+01 -0.25238504673E+00  0.15018250610E+02  0.10000000000E+01 0. -1.
        -13    1    6    6    0    0  0.31658107945E+02 -0.73784081352E+01 -0.12400157132E+02  0.34791545340E+02  0.10500000000E+00 0. -1.
         13    1    6    6    0    0  0.11564061963E+02 -0.26518886052E+01 -0.45022449423E+01  0.12690203970E+02  0.10500000000E+00 0.  1.
</event>
<event>
11    0  0.3448258E-009  0.9118800E+02  0.7816531E-02  0.1126479E+00
         25   -1    0    0    0    0  0.00000000000E+00  0.00000000000E+00  0.99999998245E-14  0.12500000000E+03  0.12500000000E+03 0.  0.
    3000001    1    3    3    0    0  0.62582752565E+00 -0.11319777695E+02 -0.17556902259E+02  0.20923045765E+02  0.10000000000E+01 0.  1.
    1000022    2    1    0    0    0 -0.65541578747E+01 -0.41831107931E+02 -0.44871498606E+02  0.62500000213E+02  0.10000003161E+02 0.  0.
    3000022    2    3    3    0    0 -0.71799854003E+01 -0.30511330236E+02 -0.27314596347E+02  0.41576954448E+02  0.25000878020E+00 0.  0.
    1000022    2    1    0    0    0  0.65541578747E+01  0.41831107931E+02  0.44871498606E+02  0.62499999787E+02  0.10000000503E+02 0.  0.
    3000022    2    5    5    0    0  0.89649930186E+00  0.28785696004E+02  0.25629498046E+02  0.38553257661E+02  0.25000163127E+00 0.  0.
        -13    1    4    4    0    0 -0.22337118206E+01 -0.93365257289E+01 -0.84075847040E+01  0.12761609880E+02  0.10500000000E+00 0.  1.
         13    1    4    4    0    0 -0.49462735797E+01 -0.21174804508E+02 -0.18907011643E+02  0.28815344567E+02  0.10500000000E+00 0. -1.
    3000001    1    5    5    0    0  0.56576585728E+01  0.13045411928E+02  0.19242000560E+02  0.23946742126E+02  0.10000000000E+01 0. -1.
        -13    1    6    6    0    0  0.44758243125E+00  0.16469664445E+02  0.14666004988E+02  0.22057944244E+02  0.10500000000E+00 0. -1.
         13    1    6    6    0    0  0.44891687061E+00  0.12316031559E+02  0.10963493058E+02  0.16495313418E+02  0.10500000000E+00 0.  1.
</event>
<event>
11    0  0.3448258E-009  0.9118800E+02  0.7816531E-02  0.1126479E+00
         25   -1    0    0    0    0  0.00000000000E+00  0.00000000000E+00  0.99999998245E-14  0.12500000000E+03  0.12500000000E+03 0.  0.
    3000001    1    3    3    0    0  0.70038167995E+01  0.11694813693E+02  0.10485574838E+02  0.17226996161E+02  0.10000000000E+01 0. -1.
    1000022    2    1    0    0    0  0.10665750650E+02  0.41920203104E+02  0.43990775104E+02  0.62499999900E+02  0.10000001404E+02 0.  0.
    3000022    2    3    3    0    0  0.36619338503E+01  0.30225389411E+02  0.33505200266E+02  0.45273003739E+02  0.24999614673E+00 0.  0.
    1000022    2    1    0    0    0 -0.10665750650E+02 -0.41920203104E+02 -0.43990775104E+02  0.62500000100E+02  0.10000002655E+02 0.  0.
    3000022    2    5    5    0    0 -0.54094648177E+01 -0.12439941401E+02 -0.83196391696E+01  0.15915192387E+02  0.25000227989E+00 0.  0.
        -13    1    4    4    0    0  0.24640930036E+01  0.20719866480E+02  0.22933908229E+02  0.31005802569E+02  0.10500000000E+00 0. -1.
         13    1    4    4    0    0  0.11978408467E+01  0.95055229306E+01  0.10571292037E+02  0.14267201170E+02  0.10500000000E+00 0.  1.
    3000001    1    5    5    0    0 -0.52562858321E+01 -0.29480261703E+02 -0.35671135934E+02  0.46584807713E+02  0.10000000000E+01 0. -1.
        -13    1    6    6    0    0 -0.17801446687E+01 -0.41868469380E+01 -0.27448037799E+01  0.53144684696E+01  0.10500000000E+00 0. -1.
         13    1    6    6    0    0 -0.36293201490E+01 -0.82530944625E+01 -0.55748353897E+01  0.10600723917E+02  0.10500000000E+00 0. -1.
</event>
<event>
11    0  0.3448258E-009  0.9118800E+02  0.7816531E-02  0.1126479E+00
         25   -1    0    0    0    0  0.00000000000E+00  0.00000000000E+00  0.99999998245E-14  0.12500000000E+03  0.12500000000E+03 0.  0.
    3000001    1    3    3    0    0 -0.38202799107E+02  0.97222072307E+01 -0.47199892730E+02  0.61504512410E+02  0.10000000000E+01 0.  1.
    1000022    2    1    0    0    0 -0.39059336463E+02  0.95611657700E+01 -0.46788913726E+02  0.62499998990E+02  0.99999885161E+01 0.  0.
    3000022    2    3    3    0    0 -0.85653735617E+00 -0.16104146065E+00  0.41097900376E+00  0.99548658081E+00  0.24999839294E+00 0.  0.
    1000022    2    1    0    0    0  0.39059336463E+02 -0.95611657700E+01  0.46788913726E+02  0.62500001010E+02  0.10000001136E+02 0.  0.
    3000022    2    5    5    0    0  0.21038766236E+02 -0.77719138097E+00  0.27761148223E+02  0.34842180824E+02  0.25000548398E+00 0.  0.
        -13    1    4    4    0    0 -0.46511604971E+00 -0.13308356981E+00  0.17139887290E+00  0.52387665522E+00  0.10500000000E+00 0.  1.
         13    1    4    4    0    0 -0.39142130646E+00 -0.27957890839E-01  0.23958013086E+00  0.47160992559E+00  0.10500000000E+00 0. -1.
    3000001    1    5    5    0    0  0.18020570227E+02 -0.87839743890E+01  0.19027765503E+02  0.27657820185E+02  0.10000000000E+01 0.  1.
        -13    1    6    6    0    0  0.14114799176E+02 -0.57227417925E+00  0.18603783835E+02  0.23359513083E+02  0.10500000000E+00 0.  1.
         13    1    6    6    0    0  0.69239670601E+01 -0.20491720172E+00  0.91573643882E+01  0.11482667741E+02  0.10500000000E+00 0. -1.
</event>
<event>
11    0  0.3448258E-009  0.9118800E+02  0.7816531E-02  0.1126479E+00
         25   -1    0    0    0    0  0.00000000000E+00  0.00000000000E+00  0.99999998245E-14  0.12500000000E+03  0.12500000000E+03 0.  0.
    3000001    1    3    3    0    0  0.74968111993E+01 -0.54233848733E+01 -0.16129362706E+01  0.94454669051E+01  0.10000000000E+01 0. -1.
    1000022    2    1    0    0    0  0.47498976544E+02 -0.24790431592E+02 -0.30586463520E+02  0.62500000265E+02  0.10000000558E+02 0.  0.
    3000022    2    3    3    0    0  0.40002165345E+02 -0.19367046718E+02 -0.28973527249E+02  0.53054533359E+02  0.24999570881E+00 0.  0.
    1000022    2    1    0    0    0 -0.47498976544E+02  0.24790431592E+02  0.30586463520E+02  0.62499999735E+02  0.99999972518E+01 0.  0.
    3000022    2    5    5    0    0 -0.23073854529E+02  0.16872359952E+02  0.13283022945E+02  0.31521111769E+02  0.24999077452E+00 0.  0.
        -13    1    4    4    0    0  0.17698909821E+02 -0.85479703788E+01 -0.12889231334E+02  0.23504521178E+02  0.10500000000E+00 0.  1.
         13    1    4    4    0    0  0.22303255524E+02 -0.10819076340E+02 -0.16084295915E+02  0.29550012181E+02  0.10500000000E+00 0. -1.
    3000001    1    5    5    0    0 -0.24425122015E+02  0.79180716399E+01  0.17303440575E+02  0.30978887967E+02  0.10000000000E+01 0. -1.
        -13    1    6    6    0    0 -0.14749638823E+02  0.10818478952E+02  0.84430051502E+01  0.20146629822E+02  0.10500000000E+00 0. -1.
         13    1    6    6    0    0 -0.83242157066E+01  0.60538810002E+01  0.48400177945E+01  0.11374481946E+02  0.10500000000E+00 0.  1.
</event>
<event>
11    0  0.3448258E-009  0.9118800E+02  0.7816531E-02  0.1126479E+00
         25   -1    0    0    0    0  0.00000000000E+00  0.00000000000E+00  0.99999998245E-14  0.12500000000E+03  0.12500000000E+03 0.  0.
    3000001    1    3    3    0    0  0.15132256421E+02  0.15138195874E+02  0.26921625229E+02  0.34408197623E+02  0.10000000000E+01 0. -1.
    1000022    2    1    0    0    0  0.31836661005E+02  0.31680955076E+02  0.42296500807E+02  0.62499999178E+02  0.10000000914E+02 0.  0.
    3000022    2    3    3    0    0  0.16704404585E+02  0.16542759202E+02  0.15374875579E+02  0.28091801556E+02  0.25000208491E+00 0.  0.
    1000022    2    1    0    0    0 -0.31836661005E+02 -0.31680955076E+02 -0.42296500807E+02  0.62500000822E+02  0.10000011183E+02 0.  0.
    3000022    2    5    5    0    0 -0.19136621315E+02 -0.18346806827E+02 -0.18205567456E+02  0.32160857996E+02  0.25000907276E+00 0.  0.
        -13    1    4    4    0    0  0.12778663527E+02  0.12671534826E+02  0.11759657441E+02  0.21497967450E+02  0.10500000000E+00 0. -1.
         13    1    4    4    0    0  0.39257410576E+01  0.38712243766E+01  0.36152181376E+01  0.65938341052E+01  0.10500000000E+00 0.  1.
    3000001    1    5    5    0    0 -0.12700039690E+02 -0.13334148249E+02 -0.24090933351E+02  0.30339142826E+02  0.10000000000E+01 0.  1.
        -13    1    6    6    0    0 -0.12924075343E+02 -0.12442529238E+02 -0.12362496090E+02  0.21787395252E+02  0.10500000000E+00 0. -1.
         13    1    6    6    0    0 -0.62125459718E+01 -0.59042775892E+01 -0.58430713664E+01  0.10373462744E+02  0.10500000000E+00 0.  1.
</event>
<event>
11    0  0.3448258E-009  0.9118800E+02  0.7816531E-02  0.1126479E+00
         25   -1    0    0    0    0  0.00000000000E+00  0.00000000000E+00  0.99999998245E-14  0.12500000000E+03  0.12500000000E+03 0.  0.
    3000001    1    3    3    0    0 -0.32658486199E+02  0.26779793071E+02  0.49313197428E+01  0.42532951368E+02  0.10000000000E+01 0.  1.
    1000022    2    1    0    0    0 -0.44214007279E+02  0.42931274899E+02  0.28770300625E+01  0.62500000140E+02  0.99999955692E+01 0.  0.
    3000022    2    3    3    0    0 -0.11555521080E+02  0.16151481828E+02 -0.20542896803E+01  0.19967048771E+02  0.24999572770E+00 0.  0.
    1000022    2    1    0    0    0  0.44214007279E+02 -0.42931274899E+02 -0.28770300625E+01  0.62499999860E+02  0.99999938212E+01 0.  0.
    3000022    2    5    5    0    0  0.15131787873E+02 -0.18545069056E+02 -0.50799288834E+01  0.24469547796E+02  0.25000270192E+00 0.  0.
        -13    1    4    4    0    0 -0.40662882055E+01  0.56387670616E+01 -0.76958438102E+00  0.69952611720E+01  0.10500000000E+00 0.  1.
         13    1    4    4    0    0 -0.74892328746E+01  0.10512714767E+02 -0.12847052993E+01  0.12971787599E+02  0.10500000000E+00 0. -1.
    3000001    1    5    5    0    0  0.29082219406E+02 -0.24386205843E+02  0.22028988208E+01  0.38030452065E+02  0.10000000000E+01 0. -1.
        -13    1    6    6    0    0  0.11348205700E+02 -0.13946174815E+02 -0.38247397871E+01  0.18382524963E+02  0.10500000000E+00 0.  1.
         13    1    6    6    0    0  0.37835821726E+01 -0.45988942409E+01 -0.12551890963E+01  0.60870228325E+01  0.10500000000E+00 0. -1.
</event>
<event>
11    0  0.3448258E-009  0.9118800E+02  0.7816531E-02  0.1126479E+00
         25   -1    0    0    0    0  0.00000000000E+00  0.00000000000E+00  0.99999998245E-14  0.12500000000E+03  0.12500000000E+03 0.  0.
    3000001    1    3    3    0    0 -0.30998954494E+02 -0.90101811964E+01  0.27100570691E+02  0.42161113324E+02  0.10000000000E+01 0.  1.
    1000022    2    1    0    0    0 -0.49099637617E+02 -0.85610255012E+01  0.36361853650E+02  0.62500000492E+02  0.10000004445E+02 0.  0.
    3000022    2    3    3    0    0 -0.18100683123E+02  0.44915569520E+00  0.92612829586E+01  0.20338887168E+02  0.24999768561E+00 0.  0.
    1000022    2    1    0    0    0  0.49099637617E+02  0.85610255012E+01 -0.36361853650E+02  0.62499999508E+02  0.99999982961E+01 0.  0.
    3000022    2    5    5    0    0  0.82517446102E+01 -0.28362291434E+00 -0.10426958795E+02  0.13302469694E+02  0.24999835133E+00 0.  0.
        -13    1    4    4    0    0 -0.94233833682E+01  0.27210953368E+00  0.48845864288E+01  0.10618116937E+02  0.10500000000E+00 0. -1.
         13    1    4    4    0    0 -0.86772997546E+01  0.17704616151E+00  0.43766965298E+01  0.97207702312E+01  0.10500000000E+00 0.  1.
    3000001    1    5    5    0    0  0.40847893007E+02  0.88446484156E+01 -0.25934894854E+02  0.49197529814E+02  0.10000000000E+01 0. -1.
        -13    1    6    6    0    0  0.43051648845E+01 -0.20904218321E+00 -0.53956700960E+01  0.69066941515E+01  0.10500000000E+00 0.  1.
         13    1    6    6    0    0  0.39465797257E+01 -0.74580731130E-01 -0.50312886992E+01  0.63957755426E+01  0.10500000000E+00 0. -1.
</event>
<event>
11    0  0.3448258E-009  0.9118800E+02  0.7816531E-02  0.1126479E+00
         25   -1    0    0    0    0  0.00000000000E+00  0.00000000000E+00  0.99999998245E-14  0.12500000000E+03  0.12500000000E+03 0.  0.
    3000001    1    3    3    0    0 -0.68267622175E+01 -0.77552043237E+01 -0.15819613950E+02  0.18921100972E+02  0.10000000000E+01 0. -1.
    1000022    2    1    0    0    0 -0.32827745721E+02 -0.30332321512E+02 -0.42526926398E+02  0.62499999549E+02  0.99999928682E+01 0.  0.
    3000022    2    3    3    0    0 -0.26000983503E+02 -0.22577117188E+02 -0.26707312448E+02  0.43578898577E+02  0.24999862418E+00 0.  0.
    1000022    2    1    0    0    0  0.32827745721E+02  0.30332321512E+02  0.42526926398E+02  0.62500000451E+02  0.99999985054E+01 0.  0.
    3000022    2    5    5    0    0  0.17484848609E+02  0.15085109037E+02  0.15258155535E+02  0.27679491489E+02  0.24998637610E+00 0.  0.
        -13    1    4    4    0    0 -0.66972714731E+01 -0.57802853926E+01 -0.68798476864E+01  0.11207518619E+02  0.10500000000E+00 0. -1.
         13    1    4    4    0    0 -0.19303712030E+02 -0.16796831795E+02 -0.19827464762E+02  0.32371379958E+02  0.10500000000E+00 0.  1.
    3000001    1    5    5    0    0  0.15342897111E+02  0.15247212475E+02  0.27268770863E+02  0.34820508962E+02  0.10000000000E+01 0.  1.
        -13    1    6    6    0    0  0.64920546726E+01  0.55254673320E+01  0.56520223487E+01  0.10229073503E+02  0.10500000000E+00 0. -1.
         13    1    6    6    0    0  0.10992793937E+02  0.95596417045E+01  0.96061331865E+01  0.17450417985E+02  0.10500000000E+00 0.  1.
</event>
<event>
11    0  0.3448258E-009  0.9118800E+02  0.7816531E-02  0.1126479E+00
         25   -1    0    0    0    0  0.00000000000E+00  0.00000000000E+00  0.99999998245E-14  0.12500000000E+03  0.12500000000E+03 0.  0.
    3000001    1    3    3    0    0 -0.46971356518E+01 -0.15019599721E+02 -0.81306255983E+01  0.17741435447E+02  0.10000000000E+01 0. -1.
    1000022    2    1    0    0    0 -0.28534824396E+02 -0.51371103805E+02 -0.18788932629E+02  0.62500001794E+02  0.99999862751E+01 0.  0.
    3000022    2    3    3    0    0 -0.23837688744E+02 -0.36351504084E+02 -0.10658307030E+02  0.44758566347E+02  0.24999769166E+00 0.  0.
    1000022    2    1    0    0    0  0.28534824396E+02  0.51371103805E+02  0.18788932629E+02  0.62499998206E+02  0.99999638487E+01 0.  0.
    3000022    2    5    5    0    0  0.80237814921E+01  0.23492760560E+02  0.56165730985E+01  0.25453865362E+02  0.25000068330E+00 0.  0.
        -13    1    4    4    0    0 -0.11235455561E+02 -0.17012593307E+02 -0.49868022824E+01  0.20989116578E+02  0.10500000000E+00 0. -1.
         13    1    4    4    0    0 -0.12602233183E+02 -0.19338910776E+02 -0.56715047479E+01  0.23769449769E+02  0.10500000000E+00 0.  1.
    3000001    1    5    5    0    0  0.20511042904E+02  0.27878343245E+02  0.13172359530E+02  0.37046132844E+02  0.10000000000E+01 0.  1.
        -13    1    6    6    0    0  0.51040156837E+01  0.14852346925E+02  0.35005512938E+01  0.16090620549E+02  0.10500000000E+00 0. -1.
         13    1    6    6    0    0  0.29197658085E+01  0.86404136350E+01  0.21160218047E+01  0.93632448136E+01  0.10500000000E+00 0.  1.
</event>
<event>
11    0  0.3448258E-009  0.9118800E+02  0.7816531E-02  0.1126479E+00
         25   -1    0    0    0    0  0.00000000000E+00  0.00000000000E+00  0.99999998245E-14  0.12500000000E+03  0.12500000000E+03 0.  0.
    3000001    1    3    3    0    0 -0.43294517506E+01 -0.23823092008E+01 -0.54245992573E+01  0.74057968303E+01  0.10000000000E+01 0. -1.
    1000022    2    1    0    0    0 -0.28796794230E+02  0.32458804753E+01 -0.54465207847E+02  0.62499999408E+02  0.99999981101E+01 0.  0.
    3000022    2    3    3    0    0 -0.24467342479E+02  0.56281896762E+01 -0.49040608589E+02  0.55094202577E+02  0.24999959010E+00 0.  0.
    1000022    2    1    0    0    0  0.28796794230E+02 -0.32458804753E+01  0.54465207847E+02  0.62500000592E+02  0.10000005515E+02 0.  0.
    3000022    2    5    5    0    0  0.30318215767E+01 -0.34074211691E+01  0.11736543533E+02  0.12594102492E+02  0.25000474295E+00 0.  0.
        -13    1    4    4    0    0 -0.84155120431E+01  0.19496915436E+01 -0.16756176807E+02  0.18852125245E+02  0.10500000000E+00 0.  1.
         13    1    4    4    0    0 -0.16051830436E+02  0.36784981326E+01 -0.32284431783E+02  0.36242077333E+02  0.10500000000E+00 0. -1.
    3000001    1    5    5    0    0  0.25764972653E+02  0.16154069380E+00  0.42728664314E+02  0.49905898101E+02  0.10000000000E+01 0.  1.
        -13    1    6    6    0    0  0.11433161764E+01 -0.12110978892E+01  0.43782064530E+01  0.46854718782E+01  0.10500000000E+00 0.  1.
         13    1    6    6    0    0  0.18885054003E+01 -0.21963232800E+01  0.73583370799E+01  0.79086306134E+01  0.10500000000E+00 0. -1.
</event>
<event>
11    0  0.3448258E-009  0.9118800E+02  0.7816531E-02  0.1126479E+00
         25   -1    0    0    0    0  0.00000000000E+00  0.00000000000E+00  0.99999998245E-14  0.12500000000E+03  0.12500000000E+03 0.  0.
    3000001    1    3    3    0    0  0.47342958766E+01  0.11245216022E+01  0.45030631186E+01  0.67048999793E+01  0.10000000000E+01 0. -1.
    1000022    2    1    0    0    0  0.29702735651E+02 -0.10044216011E+02  0.53132958718E+02  0.62499997722E+02  0.99999816331E+01 0.  0.
    3000022    2    3    3    0    0  0.24968439774E+02 -0.11168737613E+02  0.48629895600E+02  0.55795097743E+02  0.25000290089E+00 0.  0.
    1000022    2    1    0    0    0 -0.29702735651E+02  0.10044216011E+02 -0.53132958718E+02  0.62500002278E+02  0.10000010110E+02 0.  0.
    3000022    2    5    5    0    0 -0.20317393450E+02  0.42379224030E+01 -0.26554900950E+02  0.33704328151E+02  0.25001751844E+00 0.  0.
        -13    1    4    4    0    0  0.17267962422E+02 -0.76718588544E+01  0.33580073553E+02  0.38531445720E+02  0.10500000000E+00 0.  1.
         13    1    4    4    0    0  0.77004773522E+01 -0.34968787588E+01  0.15049822047E+02  0.17263652022E+02  0.10500000000E+00 0. -1.
    3000001    1    5    5    0    0 -0.93853422002E+01  0.58062936080E+01 -0.26578057769E+02  0.28795674127E+02  0.10000000000E+01 0. -1.
        -13    1    6    6    0    0 -0.96974421881E+01  0.19723962704E+01 -0.12736620110E+02  0.16129576835E+02  0.10500000000E+00 0.  1.
         13    1    6    6    0    0 -0.10619951262E+02  0.22655261327E+01 -0.13818280839E+02  0.17574751316E+02  0.10500000000E+00 0. -1.
</event>
<event>
11    0  0.3448258E-009  0.9118800E+02  0.7816531E-02  0.1126479E+00
         25   -1    0    0    0    0  0.00000000000E+00  0.00000000000E+00  0.99999998245E-14  0.12500000000E+03  0.12500000000E+03 0.  0.
    3000001    1    3    3    0    0  0.10232306513E+02  0.46794920307E+01 -0.64109843542E+01  0.12988397231E+02  0.10000000000E+01 0. -1.
    1000022    2    1    0    0    0  0.35660823812E+02  0.34563225331E+02 -0.36605176994E+02  0.62499999651E+02  0.10000003668E+02 0.  0.
    3000022    2    3    3    0    0  0.25428517299E+02  0.29883733301E+02 -0.30194192640E+02  0.49511602421E+02  0.24999405493E+00 0.  0.
    1000022    2    1    0    0    0 -0.35660823812E+02 -0.34563225331E+02  0.36605176994E+02  0.62500000349E+02  0.10000008027E+02 0.  0.
    3000022    2    5    5    0    0 -0.25743764359E+02 -0.29557301486E+02  0.25509681001E+02  0.46767315483E+02  0.24999642194E+00 0.  0.
        -13    1    4    4    0    0  0.14296107915E+02  0.16896081826E+02 -0.17060322612E+02  0.27944980144E+02  0.10500000000E+00 0. -1.
         13    1    4    4    0    0  0.11132409384E+02  0.12987651474E+02 -0.13133870028E+02  0.21566622277E+02  0.10500000000E+00 0.  1.
    3000001    1    5    5    0    0 -0.99170594527E+01 -0.50059238451E+01  0.11095495994E+02  0.15732684866E+02  0.10000000000E+01 0.  1.
        -13    1    6    6    0    0 -0.14688195430E+02 -0.16960380108E+02  0.14582365492E+02  0.26759185091E+02  0.10500000000E+00 0.  1.
         13    1    6    6    0    0 -0.11055568929E+02 -0.12596921379E+02  0.10927315509E+02  0.20008130392E+02  0.10500000000E+00 0. -1.
</event>
<event>
11    0  0.3448258E-009  0.9118800E+02  0.7816531E-02  0.1126479E+00
         25   -1    0    0    0    0  0.00000000000E+00  0.00000000000E+00  0.99999998245E-14  0.12500000000E+03  0.12500000000E+03 0.  0.
    3000001    1    3    3    0    0 -0.24295001739E+01  0.12748997688E+02 -0.21079899633E+02  0.24775019308E+02  0.10000000000E+01 0.  1.
    1000022    2    1    0    0    0 -0.12041554240E+02  0.39700633926E+02 -0.45663012132E+02  0.62500000400E+02  0.10000000518E+02 0.  0.
    3000022    2    3    3    0    0 -0.96120540665E+01  0.26951636238E+02 -0.24583112499E+02  0.37724981092E+02  0.24999801220E+00 0.  0.
    1000022    2    1    0    0    0  0.12041554240E+02 -0.39700633926E+02  0.45663012132E+02  0.62499999600E+02  0.99999955187E+01 0.  0.
    3000022    2    5    5    0    0  0.17937928650E+01 -0.14381607412E+02  0.22008045243E+02  0.26352701287E+02  0.24997018145E+00 0.  0.
        -13    1    4    4    0    0 -0.55646429009E+01  0.15424467793E+02 -0.14053004563E+02  0.21595773188E+02  0.10500000000E+00 0.  1.
         13    1    4    4    0    0 -0.40474111656E+01  0.11527168444E+02 -0.10530107936E+02  0.16129207904E+02  0.10500000000E+00 0. -1.
    3000001    1    5    5    0    0  0.10247761375E+02 -0.25319026514E+02  0.23654966889E+02  0.36147298313E+02  0.10000000000E+01 0.  1.
        -13    1    6    6    0    0  0.65526015945E+00 -0.56119552957E+01  0.85016278202E+01  0.10208433215E+02  0.10500000000E+00 0. -1.
         13    1    6    6    0    0  0.11385327055E+01 -0.87696521166E+01  0.13506417423E+02  0.16144268072E+02  0.10500000000E+00 0.  1.
</event>
<event>
11    0  0.3448258E-009  0.9118800E+02  0.7816531E-02  0.1126479E+00
         25   -1    0    0    0    0  0.00000000000E+00  0.00000000000E+00  0.99999998245E-14  0.12500000000E+03  0.12500000000E+03 0.  0.
    3000001    1    3    3    0    0 -0.22399877519E+02  0.20990756989E+02  0.27167178825E+02  0.41005145983E+02  0.10000000000E+01 0. -1.
    1000022    2    1    0    0    0 -0.28069178583E+02  0.31277009288E+02  0.45167686958E+02  0.62500000133E+02  0.99999987562E+01 0.  0.
    3000022    2    3    3    0    0 -0.56693010647E+01  0.10286252299E+02  0.18000508134E+02  0.21494854150E+02  0.25000185848E+00 0.  0.
    1000022    2    1    0    0    0  0.28069178583E+02 -0.31277009288E+02 -0.45167686958E+02  0.62499999867E+02  0.99999970953E+01 0.  0.
    3000022    2    5    5    0    0  0.23646694346E+02 -0.24351495878E+02 -0.30384366448E+02  0.45556928477E+02  0.25000567956E+00 0.  0.
        -13    1    4    4    0    0 -0.14400961053E+01  0.26532618977E+01  0.46708196040E+01  0.55624865180E+01  0.10500000000E+00 0. -1.
         13    1    4    4    0    0 -0.42292049594E+01  0.76329904011E+01  0.13329688530E+02  0.15932367632E+02  0.10500000000E+00 0.  1.
    3000001    1    5    5    0    0  0.44224842377E+01 -0.69255134093E+01 -0.14783320510E+02  0.16943071390E+02  0.10000000000E+01 0. -1.
        -13    1    6    6    0    0  0.11833814327E+02 -0.12233463981E+02 -0.15315527903E+02  0.22897013396E+02  0.10500000000E+00 0.  1.
         13    1    6    6    0    0  0.11812880018E+02 -0.12118031898E+02 -0.15068838545E+02  0.22659915081E+02  0.10500000000E+00 0. -1.
</event>
<event>
11    0  0.3448258E-009  0.9118800E+02  0.7816531E-02  0.1126479E+00
         25   -1    0    0    0    0  0.00000000000E+00  0.00000000000E+00  0.99999998245E-14  0.12500000000E+03  0.12500000000E+03 0.  0.
    3000001    1    3    3    0    0  0.15687483970E+00  0.26060900832E+01 -0.46225498498E+01  0.54022478979E+01  0.10000000000E+01 0. -1.
    1000022    2    1    0    0    0 -0.25520528253E+02  0.37406230002E+02 -0.41901390679E+02  0.62499999518E+02  0.99999996825E+01 0.  0.
    3000022    2    3    3    0    0 -0.25677403092E+02  0.34800139919E+02 -0.37278840829E+02  0.57097751620E+02  0.24999710623E+00 0.  0.
    1000022    2    1    0    0    0  0.25520528253E+02 -0.37406230002E+02  0.41901390679E+02  0.62500000482E+02  0.10000005707E+02 0.  0.
    3000022    2    5    5    0    0  0.87334990669E+01 -0.11060967765E+02  0.19434509860E+02  0.24007950329E+02  0.24998332832E+00 0.  0.
        -13    1    4    4    0    0 -0.61871414771E+01  0.83811411540E+01 -0.90063179495E+01  0.13771312018E+02  0.10500000000E+00 0. -1.
         13    1    4    4    0    0 -0.19490261615E+02  0.26418998765E+02 -0.28272522880E+02  0.43326439602E+02  0.10500000000E+00 0.  1.
    3000001    1    5    5    0    0  0.16787029186E+02 -0.26345262237E+02  0.22466880819E+02  0.38492050153E+02  0.10000000000E+01 0. -1.
        -13    1    6    6    0    0  0.20703076353E+01 -0.26022707094E+01  0.46035888794E+01  0.56799684964E+01  0.10500000000E+00 0.  1.
         13    1    6    6    0    0  0.66631914317E+01 -0.84586970557E+01  0.14830920981E+02  0.18327981833E+02  0.10500000000E+00 0. -1.
</event>
<event>
11    0  0.3448258E-009  0.9118800E+02  0.7816531E-02  0.1126479E+00
         25   -1    0    0    0    0  0.00000000000E+00  0.00000000000E+00  0.99999998245E-14  0.12500000000E+03  0.12500000000E+03 0.  0.
    3000001    1    3    3    0    0  0.11522693599E+02  0.51560283413E+02  0.16652929583E+02  0.55403568090E+02  0.10000000000E+01 0. -1.
    1000022    2    1    0    0    0  0.99790680534E+01  0.57341894793E+02  0.20459114394E+02  0.62500000353E+02  0.99999992346E+01 0.  0.
    3000022    2    3    3    0    0 -0.15436255455E+01  0.57816113791E+01  0.38061848112E+01  0.70964322624E+01  0.24999614905E+00 0.  0.
    1000022    2    1    0    0    0 -0.99790680534E+01 -0.57341894793E+02 -0.20459114394E+02  0.62499999647E+02  0.99999948250E+01 0.  0.
    3000022    2    5    5    0    0 -0.41964548418E+01 -0.34507658247E+02 -0.16912139369E+02  0.38658397226E+02  0.25001426810E+00 0.  0.
        -13    1    4    4    0    0 -0.35723568214E+00  0.13718696673E+01  0.88646301226E+00  0.16752568128E+01  0.10500000000E+00 0. -1.
         13    1    4    4    0    0 -0.11863898634E+01  0.44097417118E+01  0.29197217989E+01  0.54211754496E+01  0.10500000000E+00 0.  1.
    3000001    1    5    5    0    0 -0.57826132116E+01 -0.22834236546E+02 -0.35469750252E+01  0.23841602422E+02  0.10000000000E+01 0. -1.
        -13    1    6    6    0    0 -0.32029581336E+01 -0.26387624914E+02 -0.12947175238E+02  0.29566975852E+02  0.10500000000E+00 0.  1.
         13    1    6    6    0    0 -0.99349670818E+00 -0.81200333328E+01 -0.39649641305E+01  0.90914213735E+01  0.10500000000E+00 0. -1.
</event>
<event>
11    0  0.3448258E-009  0.9118800E+02  0.7816531E-02  0.1126479E+00
         25   -1    0    0    0    0  0.00000000000E+00  0.00000000000E+00  0.99999998245E-14  0.12500000000E+03  0.12500000000E+03 0.  0.
    3000001    1    3    3    0    0  0.37195025772E+02 -0.28027158531E+02  0.16795918434E+02  0.49518627137E+02  0.10000000000E+01 0. -1.
    1000022    2    1    0    0    0  0.46116532776E+02 -0.32332440377E+02  0.25181906122E+02  0.62499998833E+02  0.10000008110E+02 0.  0.
    3000022    2    3    3    0    0  0.89215070044E+01 -0.43052818451E+01  0.83859876885E+01  0.12981371696E+02  0.24996520901E+00 0.  0.
    1000022    2    1    0    0    0 -0.46116532776E+02  0.32332440377E+02 -0.25181906122E+02  0.62500001167E+02  0.10000022698E+02 0.  0.
    3000022    2    5    5    0    0 -0.20577701939E+02  0.19473106717E+02 -0.15501927278E+02  0.32295757539E+02  0.25000683468E+00 0.  0.
        -13    1    4    4    0    0  0.46458744037E+01 -0.23154960632E+01  0.43765718392E+01  0.67905137550E+01  0.10500000000E+00 0.  1.
         13    1    4    4    0    0  0.42756326007E+01 -0.19897857820E+01  0.40094158493E+01  0.61908579411E+01  0.10500000000E+00 0. -1.
    3000001    1    5    5    0    0 -0.25538830837E+02  0.12859333660E+02 -0.96799788443E+01  0.30204243628E+02  0.10000000000E+01 0.  1.
        -13    1    6    6    0    0 -0.99542100366E+01  0.95027526133E+01 -0.74946507032E+01  0.15670654704E+02  0.10500000000E+00 0.  1.
         13    1    6    6    0    0 -0.10623491902E+02  0.99703541034E+01 -0.80072765747E+01  0.16625102835E+02  0.10500000000E+00 0. -1.
</event>
<event>
11    0  0.3448258E-009  0.9118800E+02  0.7816531E-02  0.1126479E+00
         25   -1    0    0    0    0  0.00000000000E+00  0.00000000000E+00  0.99999998245E-14  0.12500000000E+03  0.12500000000E+03 0.  0.
    3000001    1    3    3    0    0  0.55880577938E+01 -0.11171072100E+02 -0.14654236548E+02  0.19281231562E+02  0.10000000000E+01 0.  1.
    1000022    2    1    0    0    0  0.37046040521E+01 -0.35391652322E+02 -0.50397985929E+02  0.62500000888E+02  0.99999990049E+01 0.  0.
    3000022    2    3    3    0    0 -0.18834537417E+01 -0.24220580223E+02 -0.35743749381E+02  0.43218769326E+02  0.24999587094E+00 0.  0.
    1000022    2    1    0    0    0 -0.37046040521E+01  0.35391652322E+02  0.50397985929E+02  0.62499999112E+02  0.99999878992E+01 0.  0.
    3000022    2    5    5    0    0 -0.52028895692E+01  0.12888645170E+02  0.24278629491E+02  0.27976804429E+02  0.25000378747E+00 0.  0.
        -13    1    4    4    0    0 -0.47733270428E+00 -0.65223718641E+01 -0.96577805658E+01  0.11664172997E+02  0.10500000000E+00 0. -1.
         13    1    4    4    0    0 -0.14061210374E+01 -0.17698208359E+02 -0.26085968815E+02  0.31554596329E+02  0.10500000000E+00 0.  1.
    3000001    1    5    5    0    0  0.14982855171E+01  0.22503007152E+02  0.26119356438E+02  0.34523194683E+02  0.10000000000E+01 0.  1.
        -13    1    6    6    0    0 -0.21264852882E+01  0.52206487466E+01  0.97244742075E+01  0.11240708902E+02  0.10500000000E+00 0. -1.
         13    1    6    6    0    0 -0.30764042810E+01  0.76679964235E+01  0.14554155284E+02  0.16736095526E+02  0.10500000000E+00 0.  1.
</event>
<event>
11    0  0.3448258E-009  0.9118800E+02  0.7816531E-02  0.1126479E+00
         25   -1    0    0    0    0  0.00000000000E+00  0.00000000000E+00  0.99999998245E-14  0.12500000000E+03  0.12500000000E+03 0.  0.
    3000001    1    3    3    0    0  0.50123093704E+02 -0.12331980277E+02  0.13814460071E+02  0.53443816921E+02  0.10000000000E+01 0.  1.
    1000022    2    1    0    0    0  0.57522135869E+02 -0.17547713163E+02  0.13767048411E+02  0.62499999426E+02  0.99999977080E+01 0.  0.
    3000022    2    3    3    0    0  0.73990421653E+01 -0.52157328853E+01 -0.47411659751E-01  0.90561825057E+01  0.24999843266E+00 0.  0.
    1000022    2    1    0    0    0 -0.57522135869E+02  0.17547713163E+02 -0.13767048411E+02  0.62500000574E+02  0.10000004881E+02 0.  0.
    3000022    2    5    5    0    0 -0.44502502018E+02  0.96846655071E+01 -0.82275177291E+01  0.46281961721E+02  0.25000188497E+00 0.  0.
        -13    1    4    4    0    0  0.28630271692E+01 -0.20882144022E+01 -0.42830588725E-01  0.35454792935E+01  0.10500000000E+00 0.  1.
         13    1    4    4    0    0  0.45360149960E+01 -0.31275184830E+01 -0.45810710265E-02  0.55107032121E+01  0.10500000000E+00 0. -1.
    3000001    1    5    5    0    0 -0.13019633851E+02  0.78630476555E+01 -0.55395306821E+01  0.16218038853E+02  0.10000000000E+01 0.  1.
        -13    1    6    6    0    0 -0.26138107991E+02  0.57472993745E+01 -0.48061311980E+01  0.27190845179E+02  0.10500000000E+00 0.  1.
         13    1    6    6    0    0 -0.18364394027E+02  0.39373661326E+01 -0.34213865312E+01  0.19091116542E+02  0.10500000000E+00 0. -1.
</event>
<event>
11    0  0.3448258E-009  0.9118800E+02  0.7816531E-02  0.1126479E+00
         25   -1    0    0    0    0  0.00000000000E+00  0.00000000000E+00  0.99999998245E-14  0.12500000000E+03  0.12500000000E+03 0.  0.
    3000001    1    3    3    0    0  0.96894292252E+01  0.10578616015E+02 -0.63942492964E+01  0.15737807330E+02  0.10000000000E+01 0. -1.
    1000022    2    1    0    0    0  0.46170564038E+02  0.39532816022E+02 -0.10568149454E+02  0.62500001884E+02  0.99999963247E+01 0.  0.
    3000022    2    3    3    0    0  0.36481134813E+02  0.28954200007E+02 -0.41739001577E+01  0.46762194554E+02  0.25000348586E+00 0.  0.
    1000022    2    1    0    0    0 -0.46170564038E+02 -0.39532816022E+02  0.10568149454E+02  0.62499998116E+02  0.99999727688E+01 0.  0.
    3000022    2    5    5    0    0 -0.41584993358E+02 -0.34509868595E+02  0.12275934547E+02  0.55416638090E+02  0.25001054505E+00 0.  0.
        -13    1    4    4    0    0  0.21553850799E+02  0.17090337666E+02 -0.24022307061E+01  0.27612132536E+02  0.10500000000E+00 0.  1.
         13    1    4    4    0    0  0.14927284013E+02  0.11863862341E+02 -0.17716694517E+01  0.19150062018E+02  0.10500000000E+00 0. -1.
    3000001    1    5    5    0    0 -0.45855706803E+01 -0.50229474272E+01 -0.17077850933E+01  0.70833600251E+01  0.10000000000E+01 0.  1.
        -13    1    6    6    0    0 -0.97097333971E+01 -0.80611779503E+01  0.28797094230E+01  0.12944700226E+02  0.10500000000E+00 0. -1.
         13    1    6    6    0    0 -0.31875259960E+02 -0.26448690644E+02  0.93962251244E+01  0.42471937864E+02  0.10500000000E+00 0.  1.
</event>
<event>
11    0  0.3448258E-009  0.9118800E+02  0.7816531E-02  0.1126479E+00
         25   -1    0    0    0    0  0.00000000000E+00  0.00000000000E+00  0.99999998245E-14  0.12500000000E+03  0.12500000000E+03 0.  0.
    3000001    1    3    3    0    0 -0.75487330687E+01 -0.25192752217E+00  0.60797707966E+02  0.61273225248E+02  0.10000000000E+01 0. -1.
    1000022    2    1    0    0    0 -0.67535846611E+01 -0.98774903355E+00  0.61316090816E+02  0.62500004856E+02  0.10000053008E+02 0.  0.
    3000022    2    3    3    0    0  0.79514840764E+00 -0.73582151137E+00  0.51838285027E+00  0.12267796082E+01  0.25014623918E+00 0.  0.
    1000022    2    1    0    0    0  0.67535846611E+01  0.98774903355E+00 -0.61316090816E+02  0.62499995144E+02  0.99999923050E+01 0.  0.
    3000022    2    5    5    0    0  0.21433899087E+01 -0.41576147881E+01 -0.33274467433E+02  0.33602567811E+02  0.24999901567E+00 0.  0.
        -13    1    4    4    0    0  0.52661119394E+00 -0.49312254825E+00  0.40092387842E+00  0.83201812087E+00  0.10500000000E+00 0. -1.
         13    1    4    4    0    0  0.26853721370E+00 -0.24269896313E+00  0.11745897185E+00  0.39476148737E+00  0.10500000000E+00 0. -1.
    3000001    1    5    5    0    0  0.46101947524E+01  0.51453638216E+01 -0.28041623383E+02  0.28897427333E+02  0.10000000000E+01 0.  1.
        -13    1    6    6    0    0  0.96831681139E+00 -0.20063564984E+01 -0.15604351519E+02  0.15762928509E+02  0.10500000000E+00 0. -1.
         13    1    6    6    0    0  0.11750730973E+01 -0.21512582897E+01 -0.17670115914E+02  0.17839639302E+02  0.10500000000E+00 0.  1.
</event>
<event>
11    0  0.3448258E-009  0.9118800E+02  0.7816531E-02  0.1126479E+00
         25   -1    0    0    0    0  0.00000000000E+00  0.00000000000E+00  0.99999998245E-14  0.12500000000E+03  0.12500000000E+03 0.  0.
    3000001    1    3    3    0    0  0.28110388705E+02 -0.62317362755E+01  0.42180734399E+02  0.51080748278E+02  0.10000000000E+01 0. -1.
    1000022    2    1    0    0    0  0.32566985526E+02 -0.33584951019E+01  0.52291126787E+02  0.62499999730E+02  0.99999994951E+01 0.  0.
    3000022    2    3    3    0    0  0.44565968211E+01  0.28732411736E+01  0.10110392388E+02  0.11419251451E+02  0.24999882404E+00 0.  0.
    1000022    2    1    0    0    0 -0.32566985526E+02  0.33584951019E+01 -0.52291126787E+02  0.62500000270E+02  0.10000002876E+02 0.  0.
    3000022    2    5    5    0    0 -0.30691734437E+02  0.54921338425E+01 -0.48503893904E+02  0.57661393670E+02  0.24999842663E+00 0.  0.
        -13    1    4    4    0    0  0.34255918955E+01  0.21940592319E+01  0.77516185854E+01  0.87548381733E+01  0.10500000000E+00 0. -1.
         13    1    4    4    0    0  0.10310049256E+01  0.67918194172E+00  0.23587738022E+01  0.26644132781E+01  0.10500000000E+00 0.  1.
    3000001    1    5    5    0    0 -0.18752510897E+01 -0.21336387406E+01 -0.37872328830E+01  0.48386066006E+01  0.10000000000E+01 0. -1.
        -13    1    6    6    0    0 -0.82802692430E+01  0.14610785821E+01 -0.13135446645E+02  0.15596428852E+02  0.10500000000E+00 0.  1.
         13    1    6    6    0    0 -0.22411465194E+02  0.40310552605E+01 -0.35368447259E+02  0.42064964818E+02  0.10500000000E+00 0. -1.
</event>
<event>
11    0  0.3448258E-009  0.9118800E+02  0.7816531E-02  0.1126479E+00
         25   -1    0    0    0    0  0.00000000000E+00  0.00000000000E+00  0.99999998245E-14  0.12500000000E+03  0.12500000000E+03 0.  0.
    3000001    1    3    3    0    0  0.27376905406E+02  0.64474511856E+01  0.18924975551E+01  0.28207199851E+02  0.10000000000E+01 0. -1.
    1000022    2    1    0    0    0  0.60727925895E+02  0.48931965774E+01  0.97172888059E+01  0.62499999900E+02  0.99999964728E+01 0.  0.
    3000022    2    3    3    0    0  0.33351020489E+02 -0.15542546082E+01  0.78247912508E+01  0.34292800049E+02  0.25000410970E+00 0.  0.
    1000022    2    1    0    0    0 -0.60727925895E+02 -0.48931965774E+01 -0.97172888059E+01  0.62500000100E+02  0.99999977282E+01 0.  0.
    3000022    2    5    5    0    0 -0.24465655817E+02  0.88610315803E+00 -0.78827393147E+01  0.25720683787E+02  0.25000401994E+00 0.  0.
        -13    1    4    4    0    0  0.24077165823E+02 -0.11032249970E+01  0.56135504412E+01  0.24747727028E+02  0.10500000000E+00 0. -1.
         13    1    4    4    0    0  0.92738546652E+01 -0.45102961128E+00  0.22112408096E+01  0.95450730212E+01  0.10500000000E+00 0.  1.
    3000001    1    5    5    0    0 -0.36262270078E+02 -0.57792997354E+01 -0.18345494913E+01  0.36779316313E+02  0.10000000000E+01 0.  1.
        -13    1    6    6    0    0 -0.18461278905E+02  0.66882060129E+00 -0.59725848935E+01  0.19415172806E+02  0.10500000000E+00 0. -1.
         13    1    6    6    0    0 -0.60043769123E+01  0.21728255674E+00 -0.19101544212E+01  0.63055109807E+01  0.10500000000E+00 0.  1.
</event>
<event>
11    0  0.3448258E-009  0.9118800E+02  0.7816531E-02  0.1126479E+00
         25   -1    0    0    0    0  0.00000000000E+00  0.00000000000E+00  0.99999998245E-14  0.12500000000E+03  0.12500000000E+03 0.  0.
    3000001    1    3    3    0    0 -0.18188007354E+02 -0.11667164555E+02  0.53442411264E+02  0.57654294393E+02  0.10000000000E+01 0. -1.
    1000022    2    1    0    0    0 -0.17368107451E+02 -0.11011853608E+02  0.58166466833E+02  0.62500000883E+02  0.10000008515E+02 0.  0.
    3000022    2    3    3    0    0  0.81989990361E+00  0.65531094769E+00  0.47240555694E+01  0.48457064904E+01  0.25000415778E+00 0.  0.
    1000022    2    1    0    0    0  0.17368107451E+02  0.11011853608E+02 -0.58166466833E+02  0.62499999117E+02  0.99999974720E+01 0.  0.
    3000022    2    5    5    0    0  0.10530758767E+02  0.10740572034E+01 -0.23321791949E+02  0.25612867185E+02  0.25001324416E+00 0.  0.
        -13    1    4    4    0    0  0.62566889824E+00  0.47659917988E+00  0.35851685804E+01  0.36719296151E+01  0.10500000000E+00 0.  1.
         13    1    4    4    0    0  0.19423100537E+00  0.17871176781E+00  0.11388869890E+01  0.11737768753E+01  0.10500000000E+00 0. -1.
    3000001    1    5    5    0    0  0.68373486840E+01  0.99377964042E+01 -0.34844674884E+02  0.36887131932E+02  0.10000000000E+01 0. -1.
        -13    1    6    6    0    0  0.30128257525E+01  0.34428439872E+00 -0.67316132479E+01  0.73838535117E+01  0.10500000000E+00 0. -1.
         13    1    6    6    0    0  0.75179330142E+01  0.72977280466E+00 -0.16590178701E+02  0.18229013673E+02  0.10500000000E+00 0.  1.
</event>
<event>
11    0  0.3448258E-009  0.9118800E+02  0.7816531E-02  0.1126479E+00
         25   -1    0    0    0    0  0.00000000000E+00  0.00000000000E+00  0.99999998245E-14  0.12500000000E+03  0.12500000000E+03 0.  0.
    3000001    1    3    3    0    0 -0.15673308035E+02 -0.30380885207E+01  0.24138154649E+01  0.16177424755E+02  0.10000000000E+01 0.  1.
    1000022    2    1    0    0    0 -0.59802392374E+02  0.39550763884E+01  0.14638313320E+02  0.62500003314E+02  0.10000071723E+02 0.  0.
    3000022    2    3    3    0    0 -0.44129084340E+02  0.69931649091E+01  0.12224497855E+02  0.46322578559E+02  0.24999285482E+00 0.  0.
    1000022    2    1    0    0    0  0.59802392374E+02 -0.39550763884E+01 -0.14638313320E+02  0.62499996686E+02  0.10000030299E+02 0.  0.
    3000022    2    5    5    0    0  0.36801564704E+02  0.14349022359E+01 -0.59430283349E+01  0.37306784821E+02  0.24999766644E+00 0.  0.
        -13    1    4    4    0    0 -0.19112959549E+02  0.29625443975E+01  0.52974505058E+01  0.20053825044E+02  0.10500000000E+00 0.  1.
         13    1    4    4    0    0 -0.25016124790E+02  0.40306205116E+01  0.69270473489E+01  0.26268753515E+02  0.10500000000E+00 0. -1.
    3000001    1    5    5    0    0  0.23000827671E+02 -0.53899786244E+01 -0.86952849848E+01  0.25193211865E+02  0.10000000000E+01 0.  1.
        -13    1    6    6    0    0  0.23598814387E+02  0.92352417570E+00 -0.37523674372E+01  0.23913348234E+02  0.10500000000E+00 0. -1.
         13    1    6    6    0    0  0.13202750316E+02  0.51137806025E+00 -0.21906608976E+01  0.13393436587E+02  0.10500000000E+00 0.  1.
</event>
<event>
11    0  0.3448258E-009  0.9118800E+02  0.7816531E-02  0.1126479E+00
         25   -1    0    0    0    0  0.00000000000E+00  0.00000000000E+00  0.99999998245E-14  0.12500000000E+03  0.12500000000E+03 0.  0.
    3000001    1    3    3    0    0 -0.11102630068E+02  0.15010874623E+02  0.43852571346E+02  0.47672243130E+02  0.10000000000E+01 0.  1.
    1000022    2    1    0    0    0 -0.18845268848E+02  0.16351827901E+02  0.56424494088E+02  0.62499999417E+02  0.99999980149E+01 0.  0.
    3000022    2    3    3    0    0 -0.77426387800E+01  0.13409532779E+01  0.12571922742E+02  0.14827756286E+02  0.25000817868E+00 0.  0.
    1000022    2    1    0    0    0  0.18845268848E+02 -0.16351827901E+02 -0.56424494088E+02  0.62500000583E+02  0.10000005305E+02 0.  0.
    3000022    2    5    5    0    0  0.15625162821E+02 -0.13090745995E+02 -0.34444035645E+02  0.40024585316E+02  0.24998872366E+00 0.  0.
        -13    1    4    4    0    0 -0.37146335584E+01  0.70907279126E+00  0.60866895814E+01  0.71665962462E+01  0.10500000000E+00 0. -1.
         13    1    4    4    0    0 -0.40280052216E+01  0.63188048664E+00  0.64852331605E+01  0.76611600402E+01  0.10500000000E+00 0.  1.
    3000001    1    5    5    0    0  0.32201060276E+01 -0.32610819059E+01 -0.21980458444E+02  0.22475415267E+02  0.10000000000E+01 0.  1.
        -13    1    6    6    0    0  0.88673055951E+01 -0.74602466970E+01 -0.19700529641E+02  0.22856208837E+02  0.10500000000E+00 0. -1.
         13    1    6    6    0    0  0.67578572256E+01 -0.56304992984E+01 -0.14743506004E+02  0.17168376479E+02  0.10500000000E+00 0.  1.
</event>
<event>
11    0  0.3448258E-009  0.9118800E+02  0.7816531E-02  0.1126479E+00
         25   -1    0    0    0    0  0.00000000000E+00  0.00000000000E+00  0.99999998245E-14  0.12500000000E+03  0.12500000000E+03 0.  0.
    3000001    1    3    3    0    0  0.24101213510E+02 -0.23051265853E+02 -0.28618731833E+02  0.43957492670E+02  0.10000000000E+01 0. -1.
    1000022    2    1    0    0    0  0.38737828757E+02 -0.31515720602E+02 -0.36226922457E+02  0.62499999619E+02  0.10000000993E+02 0.  0.
    3000022    2    3    3    0    0  0.14636615247E+02 -0.84644547493E+01 -0.76081906235E+01  0.18542506950E+02  0.24999863756E+00 0.  0.
    1000022    2    1    0    0    0 -0.38737828757E+02  0.31515720602E+02  0.36226922457E+02  0.62500000381E+02  0.10000005752E+02 0.  0.
    3000022    2    5    5    0    0 -0.26256743008E+02  0.19800094508E+02  0.29163090893E+02  0.43954620562E+02  0.25000483832E+00 0.  0.
        -13    1    4    4    0    0  0.41107299271E+01 -0.23617600952E+01 -0.21747725919E+01  0.52169600446E+01  0.10500000000E+00 0.  1.
         13    1    4    4    0    0  0.10525885320E+02 -0.61026946540E+01 -0.54334180316E+01  0.13325546905E+02  0.10500000000E+00 0. -1.
    3000001    1    5    5    0    0 -0.12481085749E+02  0.11715626094E+02  0.70638315635E+01  0.18545379819E+02  0.10000000000E+01 0. -1.
        -13    1    6    6    0    0 -0.88057344691E+01  0.65744234627E+01  0.97595093252E+01  0.14697722636E+02  0.10500000000E+00 0. -1.
         13    1    6    6    0    0 -0.17451008539E+02  0.13225671045E+02  0.19403581568E+02  0.29256897926E+02  0.10500000000E+00 0.  1.
</event>
<event>
11    0  0.3448258E-009  0.9118800E+02  0.7816531E-02  0.1126479E+00
         25   -1    0    0    0    0  0.00000000000E+00  0.00000000000E+00  0.99999998245E-14  0.12500000000E+03  0.12500000000E+03 0.  0.
    3000001    1    3    3    0    0  0.18025273464E+02 -0.49882723712E+01 -0.40659587987E+02  0.44766007639E+02  0.10000000000E+01 0. -1.
    1000022    2    1    0    0    0  0.22086533075E+02 -0.12371450103E+02 -0.56261734334E+02  0.62500003726E+02  0.99999997278E+01 0.  0.
    3000022    2    3    3    0    0  0.40612596112E+01 -0.73831777316E+01 -0.15602146347E+02  0.17733996087E+02  0.25000704246E+00 0.  0.
    1000022    2    1    0    0    0 -0.22086533075E+02  0.12371450103E+02  0.56261734334E+02  0.62499996274E+02  0.99999531571E+01 0.  0.
    3000022    2    5    5    0    0 -0.15379518634E+02  0.70588390203E+01  0.25894170903E+02  0.30934242871E+02  0.24998700596E+00 0.  0.
        -13    1    4    4    0    0  0.29101194798E+01 -0.52076962676E+01 -0.11005692774E+02  0.12518993340E+02  0.10500000000E+00 0. -1.
         13    1    4    4    0    0  0.11511401315E+01 -0.21754814640E+01 -0.45964535728E+01  0.52150027469E+01  0.10500000000E+00 0.  1.
    3000001    1    5    5    0    0 -0.67070144410E+01  0.53126110825E+01  0.30367563431E+02  0.31565753404E+02  0.10000000000E+01 0. -1.
        -13    1    6    6    0    0 -0.74337832423E+01  0.33375942111E+01  0.12475205908E+02  0.14901089083E+02  0.10500000000E+00 0. -1.
         13    1    6    6    0    0 -0.79457353915E+01  0.37212448092E+01  0.13418964995E+02  0.16033153787E+02  0.10500000000E+00 0.  1.
</event>
<event>
11    0  0.3448258E-009  0.9118800E+02  0.7816531E-02  0.1126479E+00
         25   -1    0    0    0    0  0.00000000000E+00  0.00000000000E+00  0.99999998245E-14  0.12500000000E+03  0.12500000000E+03 0.  0.
    3000001    1    3    3    0    0  0.25709708171E+02 -0.78353632421E+00  0.11669637677E+02  0.28262757596E+02  0.10000000000E+01 0.  1.
    1000022    2    1    0    0    0  0.59737800121E+02 -0.32751814733E+00  0.15412266918E+02  0.62499999920E+02  0.99999993464E+01 0.  0.
    3000022    2    3    3    0    0  0.34028091950E+02  0.45601817688E+00  0.37426292410E+01  0.34237242323E+02  0.24998788010E+00 0.  0.
    1000022    2    1    0    0    0 -0.59737800121E+02  0.32751814733E+00 -0.15412266918E+02  0.62500000080E+02  0.10000000351E+02 0.  0.
    3000022    2    5    5    0    0 -0.19192444095E+02  0.75497215533E+00 -0.97659868409E+01  0.21548942817E+02  0.25008854988E+00 0.  0.
        -13    1    4    4    0    0  0.25181619526E+02  0.32771942390E+00  0.27393354448E+01  0.25332515581E+02  0.10500000000E+00 0.  1.
         13    1    4    4    0    0  0.88464724240E+01  0.12829875298E+00  0.10032937962E+01  0.89047267426E+01  0.10500000000E+00 0. -1.
    3000001    1    5    5    0    0 -0.40545356026E+02 -0.42745400801E+00 -0.56462800775E+01  0.40951057263E+02  0.10000000000E+01 0.  1.
        -13    1    6    6    0    0 -0.49892733667E+01  0.21868480882E+00 -0.25143459429E+01  0.55922832809E+01  0.10500000000E+00 0. -1.
         13    1    6    6    0    0 -0.14203170728E+02  0.53628734652E+00 -0.72516408980E+01  0.15956659537E+02  0.10500000000E+00 0.  1.
</event>
<event>
11    0  0.3448258E-009  0.9118800E+02  0.7816531E-02  0.1126479E+00
         25   -1    0    0    0    0  0.00000000000E+00  0.00000000000E+00  0.99999998245E-14  0.12500000000E+03  0.12500000000E+03 0.  0.
    3000001    1    3    3    0    0  0.11551969925E+02 -0.18258345151E+02  0.20679569884E+02  0.29924234116E+02  0.10000000000E+01 0. -1.
    1000022    2    1    0    0    0  0.14320079357E+02 -0.41322870698E+02  0.43515578965E+02  0.62500000867E+02  0.10000009007E+02 0.  0.
    3000022    2    3    3    0    0  0.27681094317E+01 -0.23064525546E+02  0.22836009082E+02  0.32575766751E+02  0.25000027355E+00 0.  0.
    1000022    2    1    0    0    0 -0.14320079357E+02  0.41322870698E+02 -0.43515578965E+02  0.62499999133E+02  0.99999981733E+01 0.  0.
    3000022    2    5    5    0    0  0.44552204418E+00  0.11066171635E+02 -0.89977349513E+01  0.14271663289E+02  0.24998847391E+00 0.  0.
        -13    1    4    4    0    0  0.16481143883E+01 -0.13299070235E+02  0.13228645198E+02  0.18830550415E+02  0.10500000000E+00 0. -1.
         13    1    4    4    0    0  0.11199950433E+01 -0.97654553116E+01  0.96073638839E+01  0.13745216336E+02  0.10500000000E+00 0.  1.
    3000001    1    5    5    0    0 -0.14765601401E+02  0.30256699063E+02 -0.34517844014E+02  0.48228335844E+02  0.10000000000E+01 0.  1.
        -13    1    6    6    0    0  0.31932642330E+00  0.76274153123E+01 -0.61406974951E+01  0.97978887745E+01  0.10500000000E+00 0. -1.
         13    1    6    6    0    0  0.12619562088E+00  0.34387563226E+01 -0.28570374562E+01  0.44737745145E+01  0.10500000000E+00 0.  1.
</event>
<event>
11    0  0.3448258E-009  0.9118800E+02  0.7816531E-02  0.1126479E+00
         25   -1    0    0    0    0  0.00000000000E+00  0.00000000000E+00  0.99999998245E-14  0.12500000000E+03  0.12500000000E+03 0.  0.
    3000001    1    3    3    0    0  0.56624721808E+01 -0.61773441476E+01  0.14612574382E+02  0.16874551905E+02  0.10000000000E+01 0.  1.
    1000022    2    1    0    0    0  0.10092412644E+02 -0.34176485214E+02  0.50362297472E+02  0.62499999554E+02  0.10000000148E+02 0.  0.
    3000022    2    3    3    0    0  0.44299404632E+01 -0.27999141067E+02  0.35749723090E+02  0.45625447649E+02  0.24999833620E+00 0.  0.
    1000022    2    1    0    0    0 -0.10092412644E+02  0.34176485214E+02 -0.50362297472E+02  0.62500000446E+02  0.10000005727E+02 0.  0.
    3000022    2    5    5    0    0 -0.19023345034E+01  0.19530833916E+02 -0.32548227149E+02  0.38006867054E+02  0.25000537272E+00 0.  0.
        -13    1    4    4    0    0  0.14846654465E+01 -0.93173471786E+01  0.11814728518E+02  0.15120053733E+02  0.10500000000E+00 0. -1.
         13    1    4    4    0    0  0.29452750167E+01 -0.18681793888E+02  0.23934994571E+02  0.30505393915E+02  0.10500000000E+00 0.  1.
    3000001    1    5    5    0    0 -0.81900781406E+01  0.14645651299E+02 -0.17814070323E+02  0.24493133392E+02  0.10000000000E+01 0. -1.
        -13    1    6    6    0    0 -0.14484489252E+01  0.14967532387E+02 -0.24923118234E+02  0.29108381569E+02  0.10500000000E+00 0. -1.
         13    1    6    6    0    0 -0.45388557827E+00  0.45633015280E+01 -0.76251089150E+01  0.88984854846E+01  0.10500000000E+00 0.  1.
</event>
<event>
11    0  0.3448258E-009  0.9118800E+02  0.7816531E-02  0.1126479E+00
         25   -1    0    0    0    0  0.00000000000E+00  0.00000000000E+00  0.99999998245E-14  0.12500000000E+03  0.12500000000E+03 0.  0.
    3000001    1    3    3    0    0 -0.66276771778E+01  0.39625444175E+01 -0.16787405555E+02  0.18505265421E+02  0.10000000000E+01 0. -1.
    1000022    2    1    0    0    0 -0.34709336750E+02  0.16218747146E+02 -0.48357659030E+02  0.62500009580E+02  0.10000109697E+02 0.  0.
    3000022    2    3    3    0    0 -0.28081659572E+02  0.12256202728E+02 -0.31570253475E+02  0.43994744159E+02  0.24999887259E+00 0.  0.
    1000022    2    1    0    0    0  0.34709336750E+02 -0.16218747146E+02  0.48357659030E+02  0.62499990420E+02  0.99999899536E+01 0.  0.
    3000022    2    5    5    0    0  0.31062813550E+02 -0.14074959510E+02  0.36902898616E+02  0.50248276540E+02  0.24999614131E+00 0.  0.
        -13    1    4    4    0    0 -0.15841848515E+02  0.68732708734E+01 -0.17870796749E+02  0.24851205570E+02  0.10500000000E+00 0. -1.
         13    1    4    4    0    0 -0.12239811058E+02  0.53829318551E+01 -0.13699456727E+02  0.19143538588E+02  0.10500000000E+00 0.  1.
    3000001    1    5    5    0    0  0.36465231997E+01 -0.21437876363E+01  0.11454760414E+02  0.12251713881E+02  0.10000000000E+01 0.  1.
        -13    1    6    6    0    0  0.16105211408E+02 -0.72234833177E+01  0.19109092101E+02  0.26013938027E+02  0.10500000000E+00 0. -1.
         13    1    6    6    0    0  0.14957602142E+02 -0.68514761919E+01  0.17793806515E+02  0.24234338512E+02  0.10500000000E+00 0.  1.
</event>
<event>
11    0  0.3448258E-009  0.9118800E+02  0.7816531E-02  0.1126479E+00
         25   -1    0    0    0    0  0.00000000000E+00  0.00000000000E+00  0.99999998245E-14  0.12500000000E+03  0.12500000000E+03 0.  0.
    3000001    1    3    3    0    0 -0.51555333521E+02 -0.17751371840E+02  0.51228456872E+00  0.54537382153E+02  0.10000000000E+01 0. -1.
    1000022    2    1    0    0    0 -0.57722933023E+02 -0.21608692185E+02 -0.27161172001E+01  0.62500000627E+02  0.10000010553E+02 0.  0.
    3000022    2    3    3    0    0 -0.61675995022E+01 -0.38573203451E+01 -0.32284017688E+01  0.79626184744E+01  0.25002224461E+00 0.  0.
    1000022    2    1    0    0    0  0.57722933023E+02  0.21608692185E+02  0.27161172001E+01  0.62499999373E+02  0.10000002711E+02 0.  0.
    3000022    2    5    5    0    0  0.47895783374E+02  0.16907995795E+02  0.58284835336E+01  0.51126510859E+02  0.25001103747E+00 0.  0.
        -13    1    4    4    0    0 -0.42998250697E+01 -0.27131083457E+01 -0.23009790064E+01  0.55816647976E+01  0.10500000000E+00 0. -1.
         13    1    4    4    0    0 -0.18677744326E+01 -0.11442119994E+01 -0.92742276246E+00  0.23809536767E+01  0.10500000000E+00 0.  1.
    3000001    1    5    5    0    0  0.98271496488E+01  0.47006963899E+01 -0.31123663335E+01  0.11373488513E+02  0.10000000000E+01 0.  1.
        -13    1    6    6    0    0  0.25329591092E+02  0.88832709588E+01  0.31192421164E+01  0.27022978818E+02  0.10500000000E+00 0.  1.
         13    1    6    6    0    0  0.22566192282E+02  0.80247248367E+01  0.27092414172E+01  0.24103532042E+02  0.10500000000E+00 0. -1.
</event>
<event>
11    0  0.3448258E-009  0.9118800E+02  0.7816531E-02  0.1126479E+00
         25   -1    0    0    0    0  0.00000000000E+00  0.00000000000E+00  0.99999998245E-14  0.12500000000E+03  0.12500000000E+03 0.  0.
    3000001    1    3    3    0    0 -0.40518763818E+01  0.47800239333E+01 -0.37276642986E+02  0.37812887265E+02  0.10000000000E+01 0.  1.
    1000022    2    1    0    0    0 -0.71975928400E+00  0.25739749616E+01 -0.61636888993E+02  0.62500004289E+02  0.10000052541E+02 0.  0.
    3000022    2    3    3    0    0  0.33321170978E+01 -0.22060489717E+01 -0.24360246008E+02  0.24687117024E+02  0.25000999196E+00 0.  0.
    1000022    2    1    0    0    0  0.71975928400E+00 -0.25739749616E+01  0.61636888993E+02  0.62499995711E+02  0.99999989265E+01 0.  0.
    3000022    2    5    5    0    0 -0.13176991433E+01 -0.60029750082E+01  0.32852124365E+02  0.33422995300E+02  0.24999912669E+00 0.  0.
        -13    1    4    4    0    0  0.16340715547E+01 -0.10634746431E+01 -0.11478607274E+02  0.11643479640E+02  0.10500000000E+00 0. -1.
         13    1    4    4    0    0  0.16980455431E+01 -0.11425743286E+01 -0.12881638734E+02  0.13043637385E+02  0.10500000000E+00 0.  1.
    3000001    1    5    5    0    0  0.20374584273E+01  0.34290000466E+01  0.28784764628E+02  0.29077000410E+02  0.10000000000E+01 0.  1.
        -13    1    6    6    0    0 -0.98425924659E+00 -0.43056720822E+01  0.23528340806E+02  0.23939536847E+02  0.10500000000E+00 0.  1.
         13    1    6    6    0    0 -0.33343989669E+00 -0.16973029261E+01  0.93237835591E+01  0.94834584538E+01  0.10500000000E+00 0. -1.
</event>
<event>
11    0  0.3448258E-009  0.9118800E+02  0.7816531E-02  0.1126479E+00
         25   -1    0    0    0    0  0.00000000000E+00  0.00000000000E+00  0.99999998245E-14  0.12500000000E+03  0.12500000000E+03 0.  0.
    3000001    1    3    3    0    0  0.52841052850E+01  0.16971848204E+01  0.57852333360E+01  0.80790550023E+01  0.10000000000E+01 0. -1.
    1000022    2    1    0    0    0  0.25664517515E+02 -0.30779289814E+01  0.56018824231E+02  0.62499998221E+02  0.10000000164E+02 0.  0.
    3000022    2    3    3    0    0  0.20380412230E+02 -0.47751138018E+01  0.50233590895E+02  0.54420943219E+02  0.24998419186E+00 0.  0.
    1000022    2    1    0    0    0 -0.25664517515E+02  0.30779289814E+01 -0.56018824231E+02  0.62500001779E+02  0.10000022400E+02 0.  0.
    3000022    2    5    5    0    0 -0.13876529260E+02  0.34237383426E+01 -0.40728614893E+02  0.43164367504E+02  0.25000470945E+00 0.  0.
        -13    1    4    4    0    0  0.15570194913E+02 -0.36583982301E+01  0.38411821702E+02  0.41608820203E+02  0.10500000000E+00 0. -1.
         13    1    4    4    0    0  0.48102173165E+01 -0.11167155717E+01  0.11821769193E+02  0.12812123016E+02  0.10500000000E+00 0.  1.
    3000001    1    5    5    0    0 -0.11787988255E+02 -0.34580936117E+00 -0.15290209339E+02  0.19335634275E+02  0.10000000000E+01 0.  1.
        -13    1    6    6    0    0 -0.97083682880E+01  0.24400520144E+01 -0.28566222045E+02  0.30269561205E+02  0.10500000000E+00 0. -1.
         13    1    6    6    0    0 -0.41681609724E+01  0.98368632813E+00 -0.12162392848E+02  0.12894806299E+02  0.10500000000E+00 0.  1.
</event>
<event>
11    0  0.3448258E-009  0.9118800E+02  0.7816531E-02  0.1126479E+00
         25   -1    0    0    0    0  0.00000000000E+00  0.00000000000E+00  0.99999998245E-14  0.12500000000E+03  0.12500000000E+03 0.  0.
    3000001    1    3    3    0    0  0.19504886540E+01 -0.16855914053E+02 -0.31530424878E+02  0.35820300635E+02  0.10000000000E+01 0. -1.
    1000022    2    1    0    0    0 -0.50102443094E+01 -0.30053496491E+02 -0.53646388269E+02  0.62500000709E+02  0.99999957456E+01 0.  0.
    3000022    2    3    3    0    0 -0.69607329635E+01 -0.13197582438E+02 -0.22115963391E+02  0.26679700074E+02  0.25014745348E+00 0.  0.
    1000022    2    1    0    0    0  0.50102443094E+01  0.30053496491E+02  0.53646388269E+02  0.62499999291E+02  0.99999868858E+01 0.  0.
    3000022    2    5    5    0    0  0.10249302527E+00  0.16495253417E+02  0.36629370536E+02  0.40173090180E+02  0.24999731773E+00 0.  0.
        -13    1    4    4    0    0 -0.46425108245E+01 -0.89125344530E+01 -0.14910630439E+02  0.17981215260E+02  0.10500000000E+00 0.  1.
         13    1    4    4    0    0 -0.23182221390E+01 -0.42850479848E+01 -0.72053329511E+01  0.86984848137E+01  0.10500000000E+00 0. -1.
    3000001    1    5    5    0    0  0.49077512842E+01  0.13558243074E+02  0.17017017733E+02  0.22326909111E+02  0.10000000000E+01 0. -1.
        -13    1    6    6    0    0  0.73985294618E-01  0.90625973853E+01  0.19967656443E+02  0.21928394241E+02  0.10500000000E+00 0. -1.
         13    1    6    6    0    0  0.28507730653E-01  0.74326560318E+01  0.16661714093E+02  0.18244695939E+02  0.10500000000E+00 0.  1.
</event>
<event>
11    0  0.3448258E-009  0.9118800E+02  0.7816531E-02  0.1126479E+00
         25   -1    0    0    0    0  0.00000000000E+00  0.00000000000E+00  0.99999998245E-14  0.12500000000E+03  0.12500000000E+03 0.  0.
    3000001    1    3    3    0    0 -0.21987975369E+01 -0.69379785395E-01 -0.30987801903E+01  0.39296262966E+01  0.10000000000E+01 0.  1.
    1000022    2    1    0    0    0 -0.11591980317E+02  0.24774153842E+02 -0.55300250026E+02  0.62500002703E+02  0.99999989340E+01 0.  0.
    3000022    2    3    3    0    0 -0.93931827800E+01  0.24843533627E+02 -0.52201469836E+02  0.58570376407E+02  0.24998709133E+00 0.  0.
    1000022    2    1    0    0    0  0.11591980317E+02 -0.24774153842E+02  0.55300250026E+02  0.62499997297E+02  0.99999651442E+01 0.  0.
    3000022    2    5    5    0    0 -0.64763804921E+00  0.35110374614E+00  0.39738306222E+01  0.40492645772E+01  0.25000983832E+00 0.  0.
        -13    1    4    4    0    0 -0.70940844310E+01  0.18820315151E+02 -0.39513764680E+02  0.44338233168E+02  0.10500000000E+00 0. -1.
         13    1    4    4    0    0 -0.22990983490E+01  0.60232184761E+01 -0.12687705156E+02  0.14232143238E+02  0.10500000000E+00 0.  1.
    3000001    1    5    5    0    0  0.12239618366E+02 -0.25125257588E+02  0.51326419404E+02  0.58450732720E+02  0.10000000000E+01 0. -1.
        -13    1    6    6    0    0 -0.50029834266E+00  0.25122450390E+00  0.27935917616E+01  0.28510685916E+01  0.10500000000E+00 0. -1.
         13    1    6    6    0    0 -0.14733970655E+00  0.99879242242E-01  0.11802388605E+01  0.11981959857E+01  0.10500000000E+00 0.  1.
</event>
<event>
11    0  0.3448258E-009  0.9118800E+02  0.7816531E-02  0.1126479E+00
         25   -1    0    0    0    0  0.00000000000E+00  0.00000000000E+00  0.99999998245E-14  0.12500000000E+03  0.12500000000E+03 0.  0.
    3000001    1    3    3    0    0 -0.15571942086E+02 -0.13544506796E+02 -0.44176654250E+02  0.48770029992E+02  0.10000000000E+01 0. -1.
    1000022    2    1    0    0    0 -0.23278280006E+02 -0.13418957683E+02 -0.55536506823E+02  0.62500002571E+02  0.99999992992E+01 0.  0.
    3000022    2    3    3    0    0 -0.77063379200E+01  0.12554911326E+00 -0.11359852573E+02  0.13729972579E+02  0.24997967296E+00 0.  0.
    1000022    2    1    0    0    0  0.23278280006E+02  0.13418957683E+02  0.55536506823E+02  0.62499997429E+02  0.99999671584E+01 0.  0.
    3000022    2    5    5    0    0  0.21347069160E+02  0.13968536941E+02  0.45014261696E+02  0.51741314646E+02  0.24999867016E+00 0.  0.
        -13    1    4    4    0    0 -0.42186853268E+01  0.15441395170E-01 -0.61452500126E+01  0.74547077099E+01  0.10500000000E+00 0.  1.
         13    1    4    4    0    0 -0.34876525932E+01  0.11010771810E+00 -0.52146025603E+01  0.62752648695E+01  0.10500000000E+00 0. -1.
    3000001    1    5    5    0    0  0.19312108464E+01 -0.54957925854E+00  0.10522245127E+02  0.10758682782E+02  0.10000000000E+01 0.  1.
        -13    1    6    6    0    0  0.71198878226E+01  0.46348960036E+01  0.14890666316E+02  0.17144037795E+02  0.10500000000E+00 0. -1.
         13    1    6    6    0    0  0.14227181337E+02  0.93336409378E+01  0.30123595379E+02  0.34597276852E+02  0.10500000000E+00 0.  1.
</event>
<event>
11    0  0.3448258E-009  0.9118800E+02  0.7816531E-02  0.1126479E+00
         25   -1    0    0    0    0  0.00000000000E+00  0.00000000000E+00  0.99999998245E-14  0.12500000000E+03  0.12500000000E+03 0.  0.
    3000001    1    3    3    0    0  0.14916947722E+01 -0.16456932458E+01 -0.73449378621E-02  0.24358804365E+01  0.10000000000E+01 0.  1.
    1000022    2    1    0    0    0  0.21153933850E+02 -0.42842264997E+02  0.39029495994E+02  0.62500001326E+02  0.10000001040E+02 0.  0.
    3000022    2    3    3    0    0  0.19662239078E+02 -0.41196571751E+02  0.39036840932E+02  0.60064120889E+02  0.24999736504E+00 0.  0.
    1000022    2    1    0    0    0 -0.21153933850E+02  0.42842264997E+02 -0.39029495994E+02  0.62499998674E+02  0.99999844694E+01 0.  0.
    3000022    2    5    5    0    0 -0.12430074539E+02  0.31676419847E+02 -0.22950261211E+02  0.41044845205E+02  0.25000181125E+00 0.  0.
        -13    1    4    4    0    0  0.13659319900E+02 -0.28678072270E+02  0.27215988253E+02  0.41829772780E+02  0.10500000000E+00 0.  1.
         13    1    4    4    0    0  0.60029191772E+01 -0.12518499481E+02  0.11820852679E+02  0.18234348109E+02  0.10500000000E+00 0. -1.
    3000001    1    5    5    0    0 -0.87238593108E+01  0.11165845150E+02 -0.16079234783E+02  0.21455153470E+02  0.10000000000E+01 0.  1.
        -13    1    6    6    0    0 -0.74299920674E+01  0.18879606949E+02 -0.13611280376E+02  0.24431993761E+02  0.10500000000E+00 0. -1.
         13    1    6    6    0    0 -0.50000824716E+01  0.12796812897E+02 -0.93389808350E+01  0.16612851444E+02  0.10500000000E+00 0.  1.
</event>
<event>
11    0  0.3448258E-009  0.9118800E+02  0.7816531E-02  0.1126479E+00
         25   -1    0    0    0    0  0.00000000000E+00  0.00000000000E+00  0.99999998245E-14  0.12500000000E+03  0.12500000000E+03 0.  0.
    3000001    1    3    3    0    0  0.98533803950E+01 -0.67020493111E+01  0.37737136293E+01  0.12539835913E+02  0.10000000000E+01 0.  1.
    1000022    2    1    0    0    0  0.54023862575E+02 -0.29791870108E+02  0.34083138602E+00  0.62500005057E+02  0.10000060700E+02 0.  0.
    3000022    2    3    3    0    0  0.44170482180E+02 -0.23089820797E+02 -0.34328822433E+01  0.49960169144E+02  0.24999977956E+00 0.  0.
    1000022    2    1    0    0    0 -0.54023862575E+02  0.29791870108E+02 -0.34083138602E+00  0.62499994943E+02  0.99999974891E+01 0.  0.
    3000022    2    5    5    0    0 -0.18858065383E+02  0.14127952485E+02  0.34021938360E+01  0.23808886852E+02  0.24999769791E+00 0.  0.
        -13    1    4    4    0    0  0.18226756696E+02 -0.94802107042E+01 -0.13666545640E+01  0.20590478973E+02  0.10500000000E+00 0. -1.
         13    1    4    4    0    0  0.25943725485E+02 -0.13609610092E+02 -0.20662276793E+01  0.29369690171E+02  0.10500000000E+00 0.  1.
    3000001    1    5    5    0    0 -0.35165797193E+02  0.15663917623E+02 -0.37430252220E+01  0.38691108091E+02  0.10000000000E+01 0. -1.
        -13    1    6    6    0    0 -0.86835746677E+01  0.65438861437E+01  0.15096365293E+01  0.10978020875E+02  0.10500000000E+00 0. -1.
         13    1    6    6    0    0 -0.10174490715E+02  0.75840663414E+01  0.18925573066E+01  0.12830865978E+02  0.10500000000E+00 0.  1.
</event>
<event>
11    0  0.3448258E-009  0.9118800E+02  0.7816531E-02  0.1126479E+00
         25   -1    0    0    0    0  0.00000000000E+00  0.00000000000E+00  0.99999998245E-14  0.12500000000E+03  0.12500000000E+03 0.  0.
    3000001    1    3    3    0    0  0.57327183609E+02 -0.10340258585E+02 -0.95778518091E+01  0.59042884190E+02  0.10000000000E+01 0. -1.
    1000022    2    1    0    0    0  0.59453074437E+02 -0.11094666040E+02 -0.12185646952E+02  0.62499997678E+02  0.10000002179E+02 0.  0.
    3000022    2    3    3    0    0  0.21258908277E+01 -0.75440745499E+00 -0.26077951426E+01  0.34571134882E+01  0.24999149031E+00 0.  0.
    1000022    2    1    0    0    0 -0.59453074437E+02  0.11094666040E+02  0.12185646952E+02  0.62500002322E+02  0.10000031207E+02 0.  0.
    3000022    2    5    5    0    0 -0.31466846576E+02  0.40946111418E+01  0.16648101743E+01  0.31776758272E+02  0.24999909458E+00 0.  0.
        -13    1    4    4    0    0  0.53824449480E+00 -0.16653211254E+00 -0.67997364715E+00  0.88928580417E+00  0.10500000000E+00 0.  1.
         13    1    4    4    0    0  0.15876463329E+01 -0.58787534245E+00 -0.19278214954E+01  0.25678276840E+01  0.10500000000E+00 0. -1.
    3000001    1    5    5    0    0 -0.27986227861E+02  0.70000548983E+01  0.10520836777E+02  0.30723244050E+02  0.10000000000E+01 0.  1.
        -13    1    6    6    0    0 -0.23740867182E+02  0.31129007403E+01  0.12570738133E+01  0.23977284774E+02  0.10500000000E+00 0.  1.
         13    1    6    6    0    0 -0.77259793941E+01  0.98171040155E+00  0.40773636094E+00  0.77994734983E+01  0.10500000000E+00 0. -1.
</event>
<event>
11    0  0.3448258E-009  0.9118800E+02  0.7816531E-02  0.1126479E+00
         25   -1    0    0    0    0  0.00000000000E+00  0.00000000000E+00  0.99999998245E-14  0.12500000000E+03  0.12500000000E+03 0.  0.
    3000001    1    3    3    0    0  0.30232367941E+02 -0.42288599812E+02 -0.34506752136E+00  0.51994622963E+02  0.10000000000E+01 0.  1.
    1000022    2    1    0    0    0  0.36311967140E+02 -0.49653365391E+02 -0.47153241346E+01  0.62499999673E+02  0.10000001262E+02 0.  0.
    3000022    2    3    3    0    0  0.60795991986E+01 -0.73647655783E+01 -0.43702566132E+01  0.10505376710E+02  0.24999704759E+00 0.  0.
    1000022    2    1    0    0    0 -0.36311967140E+02  0.49653365391E+02  0.47153241346E+01  0.62500000327E+02  0.10000005350E+02 0.  0.
    3000022    2    5    5    0    0  0.46569821832E+00  0.17715581549E+01 -0.42611637602E+00  0.18972071250E+01  0.25005315919E+00 0.  0.
        -13    1    4    4    0    0  0.33305225148E+01 -0.39820321390E+01 -0.23116739402E+01  0.56836450965E+01  0.10500000000E+00 0. -1.
         13    1    4    4    0    0  0.27490766838E+01 -0.33827334393E+01 -0.20585826730E+01  0.48217316139E+01  0.10500000000E+00 0.  1.
    3000001    1    5    5    0    0 -0.36777665358E+02  0.47881807236E+02  0.51414405106E+01  0.60602793202E+02  0.10000000000E+01 0.  1.
        -13    1    6    6    0    0  0.20642292145E+00  0.62167695526E+00 -0.11188706553E+00  0.67278256118E+00  0.10500000000E+00 0. -1.
         13    1    6    6    0    0  0.25927529686E+00  0.11498811996E+01 -0.31422931049E+00  0.12244245638E+01  0.10500000000E+00 0.  1.
</event>
<event>
11    0  0.3448258E-009  0.9118800E+02  0.7816531E-02  0.1126479E+00
         25   -1    0    0    0    0  0.00000000000E+00  0.00000000000E+00  0.99999998245E-14  0.12500000000E+03  0.12500000000E+03 0.  0.
    3000001    1    3    3    0    0  0.41734573221E+02  0.36983899563E+02  0.35215184413E+00  0.55773716388E+02  0.10000000000E+01 0.  1.
    1000022    2    1    0    0    0  0.47498043942E+02  0.39261332910E+02  0.29552463701E+01  0.62499999795E+02  0.10000002652E+02 0.  0.
    3000022    2    3    3    0    0  0.57634707207E+01  0.22774333474E+01  0.26030945260E+01  0.67262834065E+01  0.24997990733E+00 0.  0.
    1000022    2    1    0    0    0 -0.47498043942E+02 -0.39261332910E+02 -0.29552463701E+01  0.62500000205E+02  0.10000005218E+02 0.  0.
    3000022    2    5    5    0    0 -0.93872361221E+01 -0.13397805430E+02 -0.75669091811E+00  0.16378536954E+02  0.24999848501E+00 0.  0.
        -13    1    4    4    0    0  0.35825067807E+01  0.13514984673E+01  0.15933106116E+01  0.41485619974E+01  0.10500000000E+00 0.  1.
         13    1    4    4    0    0  0.21809639400E+01  0.92593488006E+00  0.10097839144E+01  0.25777214092E+01  0.10500000000E+00 0. -1.
    3000001    1    5    5    0    0 -0.38110807820E+02 -0.25863527480E+02 -0.21985554520E+01  0.46121463251E+02  0.10000000000E+01 0.  1.
        -13    1    6    6    0    0 -0.42392122206E+01 -0.60570209153E+01 -0.27526690231E+00  0.73990012494E+01  0.10500000000E+00 0. -1.
         13    1    6    6    0    0 -0.51480239015E+01 -0.73407845151E+01 -0.48142401579E+00  0.89795357046E+01  0.10500000000E+00 0.  1.
</event>
<event>
11    0  0.3448258E-009  0.9118800E+02  0.7816531E-02  0.1126479E+00
         25   -1    0    0    0    0  0.00000000000E+00  0.00000000000E+00  0.99999998245E-14  0.12500000000E+03  0.12500000000E+03 0.  0.
    3000001    1    3    3    0    0 -0.54666023016E+02  0.83622232606E+01 -0.24713612723E+02  0.60581049050E+02  0.10000000000E+01 0.  1.
    1000022    2    1    0    0    0 -0.55209909869E+02  0.99004432355E+01 -0.25692354530E+02  0.62499999150E+02  0.99999944245E+01 0.  0.
    3000022    2    3    3    0    0 -0.54388685310E+00  0.15382199749E+01 -0.97874180647E+00  0.19189500996E+01  0.25000072150E+00 0.  0.
    1000022    2    1    0    0    0  0.55209909869E+02 -0.99004432355E+01  0.25692354530E+02  0.62500000850E+02  0.10000005050E+02 0.  0.
    3000022    2    5    5    0    0  0.35706154295E+02 -0.91732968010E+01  0.20897683313E+02  0.42377523480E+02  0.24999947880E+00 0.  0.
        -13    1    4    4    0    0 -0.24511099169E+00  0.55193326610E+00 -0.32165320545E+00  0.69223949111E+00  0.10500000000E+00 0.  1.
         13    1    4    4    0    0 -0.29877586140E+00  0.98628670884E+00 -0.65708860102E+00  0.12267106085E+01  0.10500000000E+00 0. -1.
    3000001    1    5    5    0    0  0.19503755574E+02 -0.72714643447E+00  0.47946712172E+01  0.20122477370E+02  0.10000000000E+01 0. -1.
        -13    1    6    6    0    0  0.17078669664E+02 -0.43229822880E+01  0.99573979268E+01  0.20236845896E+02  0.10500000000E+00 0. -1.
         13    1    6    6    0    0  0.18627484631E+02 -0.48503145130E+01  0.10940285386E+02  0.22140677584E+02  0.10500000000E+00 0.  1.
</event>
<event>
11    0  0.3448258E-009  0.9118800E+02  0.7816531E-02  0.1126479E+00
         25   -1    0    0    0    0  0.00000000000E+00  0.00000000000E+00  0.99999998245E-14  0.12500000000E+03  0.12500000000E+03 0.  0.
    3000001    1    3    3    0    0 -0.20175345292E+01 -0.43020550964E+01  0.33821075538E+01  0.59174973709E+01  0.10000000000E+01 0.  1.
    1000022    2    1    0    0    0 -0.84335202471E+01 -0.27293230047E+02  0.54682771938E+02  0.62500000533E+02  0.99999924787E+01 0.  0.
    3000022    2    3    3    0    0 -0.64159857179E+01 -0.22991174951E+02  0.51300664384E+02  0.56582503162E+02  0.24999885896E+00 0.  0.
    1000022    2    1    0    0    0  0.84335202471E+01  0.27293230047E+02 -0.54682771938E+02  0.62499999467E+02  0.99999858220E+01 0.  0.
    3000022    2    5    5    0    0  0.10576135084E+01  0.15763683394E+02 -0.36031459985E+02  0.39343879675E+02  0.24999760913E+00 0.  0.
        -13    1    4    4    0    0 -0.27034925558E+01 -0.98072532602E+01  0.21729603887E+02  0.23993286532E+02  0.10500000000E+00 0.  1.
         13    1    4    4    0    0 -0.37124931622E+01 -0.13183921691E+02  0.29571060497E+02  0.32589216630E+02  0.10500000000E+00 0. -1.
    3000001    1    5    5    0    0  0.73759067387E+01  0.11529546653E+02 -0.18651311953E+02  0.23156119792E+02  0.10000000000E+01 0.  1.
        -13    1    6    6    0    0  0.23861086840E+00  0.39587757659E+01 -0.90442702438E+01  0.98761677767E+01  0.10500000000E+00 0. -1.
         13    1    6    6    0    0  0.81900264003E+00  0.11804907629E+02 -0.26987189741E+02  0.29467711899E+02  0.10500000000E+00 0.  1.
</event>
<event>
11    0  0.3448258E-009  0.9118800E+02  0.7816531E-02  0.1126479E+00
         25   -1    0    0    0    0  0.00000000000E+00  0.00000000000E+00  0.99999998245E-14  0.12500000000E+03  0.12500000000E+03 0.  0.
    3000001    1    3    3    0    0 -0.33006346419E+02 -0.18402975973E+02  0.44106341026E+02  0.58090083037E+02  0.10000000000E+01 0. -1.
    1000022    2    1    0    0    0 -0.36664946051E+02 -0.20630183265E+02  0.45125683270E+02  0.62500000183E+02  0.10000000085E+02 0.  0.
    3000022    2    3    3    0    0 -0.36585996322E+01 -0.22272072914E+01  0.10193422449E+01  0.44099171451E+01  0.25001405388E+00 0.  0.
    1000022    2    1    0    0    0  0.36664946051E+02  0.20630183265E+02 -0.45125683270E+02  0.62499999817E+02  0.99999978030E+01 0.  0.
    3000022    2    5    5    0    0  0.34903757671E+02  0.18426938090E+02 -0.44425473664E+02  0.59426505502E+02  0.24999805969E+00 0.  0.
        -13    1    4    4    0    0 -0.10095360413E+01 -0.66100084250E+00  0.28005867666E+00  0.12431986948E+01  0.10500000000E+00 0.  1.
         13    1    4    4    0    0 -0.26490635909E+01 -0.15662064489E+01  0.73928356826E+00  0.31667184503E+01  0.10500000000E+00 0. -1.
    3000001    1    5    5    0    0  0.17611883809E+01  0.22032451748E+01 -0.70020960648E+00  0.30734943153E+01  0.10000000000E+01 0. -1.
        -13    1    6    6    0    0  0.20676803916E+02  0.10893261540E+02 -0.26214155426E+02  0.35119600465E+02  0.10500000000E+00 0.  1.
         13    1    6    6    0    0  0.14226953755E+02  0.75336765506E+01 -0.18211318238E+02  0.24306905037E+02  0.10500000000E+00 0. -1.
</event>
<event>
11    0  0.3448258E-009  0.9118800E+02  0.7816531E-02  0.1126479E+00
         25   -1    0    0    0    0  0.00000000000E+00  0.00000000000E+00  0.99999998245E-14  0.12500000000E+03  0.12500000000E+03 0.  0.
    3000001    1    3    3    0    0  0.30268701960E+02 -0.11732896053E+02 -0.17582802555E+02  0.36932507548E+02  0.10000000000E+01 0.  1.
    1000022    2    1    0    0    0  0.51523017588E+02 -0.24798923005E+02 -0.23165546167E+02  0.62499997063E+02  0.99999590052E+01 0.  0.
    3000022    2    3    3    0    0  0.21254315628E+02 -0.13066026951E+02 -0.55827436119E+01  0.25567489515E+02  0.25000144837E+00 0.  0.
    1000022    2    1    0    0    0 -0.51523017588E+02  0.24798923005E+02  0.23165546167E+02  0.62500002937E+02  0.99999957187E+01 0.  0.
    3000022    2    5    5    0    0 -0.48174157938E+02  0.24223005346E+02  0.23731307606E+02  0.58912994697E+02  0.25000506759E+00 0.  0.
        -13    1    4    4    0    0  0.15675258847E+02 -0.96044483041E+01 -0.41328344640E+01  0.18842784106E+02  0.10500000000E+00 0. -1.
         13    1    4    4    0    0  0.55790567813E+01 -0.34615786474E+01 -0.14499091479E+01  0.67247054090E+01  0.10500000000E+00 0.  1.
    3000001    1    5    5    0    0 -0.33488596502E+01  0.57591765855E+00 -0.56576143883E+00  0.35870082397E+01  0.10000000000E+01 0. -1.
        -13    1    6    6    0    0 -0.19678654868E+02  0.99524197207E+01  0.97468499531E+01  0.24110417348E+02  0.10500000000E+00 0.  1.
         13    1    6    6    0    0 -0.28495503070E+02  0.14270585625E+02  0.13984457652E+02  0.34802577349E+02  0.10500000000E+00 0. -1.
</event>
<event>
11    0  0.3448258E-009  0.9118800E+02  0.7816531E-02  0.1126479E+00
         25   -1    0    0    0    0  0.00000000000E+00  0.00000000000E+00  0.99999998245E-14  0.12500000000E+03  0.12500000000E+03 0.  0.
    3000001    1    3    3    0    0  0.15500521863E+02 -0.72063355906E+01 -0.57434930160E+01  0.18060596964E+02  0.10000000000E+01 0. -1.
    1000022    2    1    0    0    0  0.47705942155E+02 -0.20433577027E+02 -0.33359589572E+02  0.62499997241E+02  0.99999725860E+01 0.  0.
    3000022    2    3    3    0    0  0.32205420292E+02 -0.13227241437E+02 -0.27616096556E+02  0.44439400277E+02  0.24999160328E+00 0.  0.
    1000022    2    1    0    0    0 -0.47705942155E+02  0.20433577027E+02  0.33359589572E+02  0.62500002759E+02  0.10000007070E+02 0.  0.
    3000022    2    5    5    0    0 -0.18395314438E+02  0.35508086658E+01  0.88815363395E+01  0.20734995220E+02  0.25000706838E+00 0.  0.
        -13    1    4    4    0    0  0.23748727699E+02 -0.97877330130E+01 -0.20362282685E+02  0.32778580903E+02  0.10500000000E+00 0.  1.
         13    1    4    4    0    0  0.84566925929E+01 -0.34395084236E+01 -0.72538138709E+01  0.11660819374E+02  0.10500000000E+00 0. -1.
    3000001    1    5    5    0    0 -0.29310627716E+02  0.16882768361E+02  0.24478053233E+02  0.41765007539E+02  0.10000000000E+01 0.  1.
        -13    1    6    6    0    0 -0.96165096488E+01  0.19250188361E+01  0.46460470313E+01  0.10852637162E+02  0.10500000000E+00 0. -1.
         13    1    6    6    0    0 -0.87788047897E+01  0.16257898297E+01  0.42354893082E+01  0.98823580580E+01  0.10500000000E+00 0.  1.
</event>
<event>
11    0  0.3448258E-009  0.9118800E+02  0.7816531E-02  0.1126479E+00
         25   -1    0    0    0    0  0.00000000000E+00  0.00000000000E+00  0.99999998245E-14  0.12500000000E+03  0.12500000000E+03 0.  0.
    3000001    1    3    3    0    0 -0.28200717905E+02 -0.37289782095E+02  0.21327521478E+02  0.51397193615E+02  0.10000000000E+01 0.  1.
    1000022    2    1    0    0    0 -0.37267366683E+02 -0.43486672519E+02  0.22941286946E+02  0.62499999878E+02  0.10000001588E+02 0.  0.
    3000022    2    3    3    0    0 -0.90666487777E+01 -0.61968904236E+01  0.16137654680E+01  0.11102806263E+02  0.24999389914E+00 0.  0.
    1000022    2    1    0    0    0  0.37267366683E+02  0.43486672519E+02 -0.22941286946E+02  0.62500000122E+02  0.10000003115E+02 0.  0.
    3000022    2    5    5    0    0  0.18333110327E+02  0.14318368515E+02 -0.10852679904E+02  0.25670250701E+02  0.24999753133E+00 0.  0.
        -13    1    4    4    0    0 -0.64261340294E+01 -0.43966668055E+01  0.11004290171E+01  0.78643401875E+01  0.10500000000E+00 0. -1.
         13    1    4    4    0    0 -0.26405147483E+01 -0.18002236181E+01  0.51333645093E+00  0.32384660756E+01  0.10500000000E+00 0.  1.
    3000001    1    5    5    0    0  0.18934256356E+02  0.29168304003E+02 -0.12088607042E+02  0.36829749421E+02  0.10000000000E+01 0. -1.
        -13    1    6    6    0    0  0.10501544966E+02  0.81949547445E+01 -0.62864095214E+01  0.14729891364E+02  0.10500000000E+00 0.  1.
         13    1    6    6    0    0  0.78315653617E+01  0.61234137710E+01 -0.45662703822E+01  0.10940359337E+02  0.10500000000E+00 0. -1.
</event>
<event>
11    0  0.3448258E-009  0.9118800E+02  0.7816531E-02  0.1126479E+00
         25   -1    0    0    0    0  0.00000000000E+00  0.00000000000E+00  0.99999998245E-14  0.12500000000E+03  0.12500000000E+03 0.  0.
    3000001    1    3    3    0    0  0.34009529263E+01 -0.33119580325E+01  0.40547680388E+01  0.63227122870E+01  0.10000000000E+01 0.  1.
    1000022    2    1    0    0    0  0.49042910753E+02 -0.33651566198E+02  0.16389477313E+02  0.62500000265E+02  0.10000003191E+02 0.  0.
    3000022    2    3    3    0    0  0.45641957826E+02 -0.30339608165E+02  0.12334709275E+02  0.56177287978E+02  0.24998759152E+00 0.  0.
    1000022    2    1    0    0    0 -0.49042910753E+02  0.33651566198E+02 -0.16389477313E+02  0.62499999735E+02  0.99999998822E+01 0.  0.
    3000022    2    5    5    0    0 -0.16890534889E+02  0.61223924507E+01 -0.44909108447E+01  0.18520384402E+02  0.25000002744E+00 0.  0.
        -13    1    4    4    0    0  0.33862990657E+02 -0.22537663827E+02  0.91345543974E+01  0.41690520938E+02  0.10500000000E+00 0.  1.
         13    1    4    4    0    0  0.11778967169E+02 -0.78019443382E+01  0.32001548772E+01  0.14486767040E+02  0.10500000000E+00 0. -1.
    3000001    1    5    5    0    0 -0.32152375863E+02  0.27529173747E+02 -0.11898566469E+02  0.43979615333E+02  0.10000000000E+01 0. -1.
        -13    1    6    6    0    0 -0.69143517560E+01  0.24770424628E+01 -0.18954352181E+01  0.75860199864E+01  0.10500000000E+00 0.  1.
         13    1    6    6    0    0 -0.99761831334E+01  0.36453499878E+01 -0.25954756266E+01  0.10934364416E+02  0.10500000000E+00 0. -1.
</event>
<event>
11    0  0.3448258E-009  0.9118800E+02  0.7816531E-02  0.1126479E+00
         25   -1    0    0    0    0  0.00000000000E+00  0.00000000000E+00  0.99999998245E-14  0.12500000000E+03  0.12500000000E+03 0.  0.
    3000001    1    3    3    0    0  0.30082450752E+01 -0.22866541684E+01 -0.66543316184E+01  0.77174124553E+01  0.10000000000E+01 0. -1.
    1000022    2    1    0    0    0 -0.69705426022E+00 -0.18751726417E+02 -0.58771905534E+02  0.62499999631E+02  0.99999972780E+01 0.  0.
    3000022    2    3    3    0    0 -0.37052993354E+01 -0.16465072249E+02 -0.52117573915E+02  0.54782587176E+02  0.24999906548E+00 0.  0.
    1000022    2    1    0    0    0  0.69705426022E+00  0.18751726417E+02  0.58771905534E+02  0.62500000369E+02  0.10000001892E+02 0.  0.
    3000022    2    5    5    0    0  0.14992008027E+01  0.75809228132E+01  0.11148659244E+02  0.13567354014E+02  0.24999647506E+00 0.  0.
        -13    1    4    4    0    0 -0.22124391603E+01 -0.96161442706E+01 -0.30612469784E+02  0.32163635506E+02  0.10500000000E+00 0.  1.
         13    1    4    4    0    0 -0.14928601751E+01 -0.68489279779E+01 -0.21505104131E+02  0.22618951670E+02  0.10500000000E+00 0. -1.
    3000001    1    5    5    0    0 -0.80214654249E+00  0.11170803604E+02  0.47623246289E+02  0.48932646355E+02  0.10000000000E+01 0.  1.
        -13    1    6    6    0    0  0.95361304184E+00  0.47636371521E+01  0.71101182402E+01  0.86119929830E+01  0.10500000000E+00 0. -1.
         13    1    6    6    0    0  0.54558776087E+00  0.28172856612E+01  0.40385410042E+01  0.49553610307E+01  0.10500000000E+00 0.  1.
</event>
<event>
11    0  0.3448258E-009  0.9118800E+02  0.7816531E-02  0.1126479E+00
         25   -1    0    0    0    0  0.00000000000E+00  0.00000000000E+00  0.99999998245E-14  0.12500000000E+03  0.12500000000E+03 0.  0.
    3000001    1    3    3    0    0 -0.16303749878E+02 -0.32217359559E+02 -0.30122655581E+02  0.47033444444E+02  0.10000000000E+01 0.  1.
    1000022    2    1    0    0    0 -0.16225086791E+02 -0.44424466386E+02 -0.39616452784E+02  0.62499999699E+02  0.99999988088E+01 0.  0.
    3000022    2    3    3    0    0  0.78663086728E-01 -0.12207106827E+02 -0.94937972029E+01  0.15466555255E+02  0.25000232833E+00 0.  0.
    1000022    2    1    0    0    0  0.16225086791E+02  0.44424466386E+02  0.39616452784E+02  0.62500000301E+02  0.10000002565E+02 0.  0.
    3000022    2    5    5    0    0  0.13136045418E+02  0.25483796179E+02  0.19464494703E+02  0.34654128452E+02  0.25001561337E+00 0.  0.
        -13    1    4    4    0    0  0.54134652578E-01 -0.94010387039E+01 -0.73099308803E+01  0.11909180230E+02  0.10500000000E+00 0. -1.
         13    1    4    4    0    0  0.24528434151E-01 -0.28060681232E+01 -0.21838663226E+01  0.35573750253E+01  0.10500000000E+00 0.  1.
    3000001    1    5    5    0    0  0.30890413725E+01  0.18940670207E+02  0.20151958081E+02  0.27845871848E+02  0.10000000000E+01 0.  1.
        -13    1    6    6    0    0  0.95190234590E+01  0.18527808082E+02  0.14171332518E+02  0.25193831989E+02  0.10500000000E+00 0.  1.
         13    1    6    6    0    0  0.36170219593E+01  0.69559880978E+01  0.52931621848E+01  0.94602964639E+01  0.10500000000E+00 0. -1.
</event>
<event>
11    0  0.3448258E-009  0.9118800E+02  0.7816531E-02  0.1126479E+00
         25   -1    0    0    0    0  0.00000000000E+00  0.00000000000E+00  0.99999998245E-14  0.12500000000E+03  0.12500000000E+03 0.  0.
    3000001    1    3    3    0    0 -0.15807578771E+01  0.37915235028E+01 -0.49722606605E+00  0.42569566241E+01  0.10000000000E+01 0.  1.
    1000022    2    1    0    0    0 -0.13211894408E+02  0.46293238640E+02 -0.38582792952E+02  0.62499999391E+02  0.99999957109E+01 0.  0.
    3000022    2    3    3    0    0 -0.11631136531E+02  0.42501715137E+02 -0.38085566886E+02  0.58243042767E+02  0.24999814676E+00 0.  0.
    1000022    2    1    0    0    0  0.13211894408E+02 -0.46293238640E+02  0.38582792952E+02  0.62500000609E+02  0.10000003325E+02 0.  0.
    3000022    2    5    5    0    0  0.52919111266E+01 -0.34388126734E+02  0.26142543715E+02  0.43520600572E+02  0.24999723187E+00 0.  0.
        -13    1    4    4    0    0 -0.36381661621E+01  0.13142564460E+02 -0.11751077979E+02  0.18001725259E+02  0.10500000000E+00 0. -1.
         13    1    4    4    0    0 -0.79929703691E+01  0.29359150677E+02 -0.26334488907E+02  0.40241317508E+02  0.10500000000E+00 0.  1.
    3000001    1    5    5    0    0  0.79199832817E+01 -0.11905111906E+02  0.12440249238E+02  0.18979400037E+02  0.10000000000E+01 0. -1.
        -13    1    6    6    0    0  0.21719769227E+01 -0.13751479284E+02  0.10498919568E+02  0.17437287729E+02  0.10500000000E+00 0.  1.
         13    1    6    6    0    0  0.31199342038E+01 -0.20636647450E+02  0.15643624146E+02  0.26083312842E+02  0.10500000000E+00 0. -1.
</event>
<event>
11    0  0.3448258E-009  0.9118800E+02  0.7816531E-02  0.1126479E+00
         25   -1    0    0    0    0  0.00000000000E+00  0.00000000000E+00  0.99999998245E-14  0.12500000000E+03  0.12500000000E+03 0.  0.
    3000001    1    3    3    0    0 -0.19416953988E+02  0.45121127127E+02 -0.11411065599E+02  0.50439534429E+02  0.10000000000E+01 0.  1.
    1000022    2    1    0    0    0 -0.26975322902E+02  0.54475244025E+02 -0.10537065158E+02  0.62499999619E+02  0.99999976502E+01 0.  0.
    3000022    2    3    3    0    0 -0.75583689145E+01  0.93541168985E+01  0.87400044162E+00  0.12060465190E+02  0.25000045732E+00 0.  0.
    1000022    2    1    0    0    0  0.26975322902E+02 -0.54475244025E+02  0.10537065158E+02  0.62500000381E+02  0.10000002407E+02 0.  0.
    3000022    2    5    5    0    0  0.93050793109E+01 -0.29622297469E+02  0.64981202972E+01  0.31723068488E+02  0.24999720768E+00 0.  0.
        -13    1    4    4    0    0 -0.21472169657E+01  0.26412789988E+01  0.28702957507E+00  0.34176463282E+01  0.10500000000E+00 0.  1.
         13    1    4    4    0    0 -0.54111519488E+01  0.67128378997E+01  0.58697086655E+00  0.86428188618E+01  0.10500000000E+00 0. -1.
    3000001    1    5    5    0    0  0.17670243592E+02 -0.24852946556E+02  0.40389448604E+01  0.30776931892E+02  0.10000000000E+01 0.  1.
        -13    1    6    6    0    0  0.40414792416E+01 -0.13081830088E+02  0.28512842332E+01  0.13986017292E+02  0.10500000000E+00 0. -1.
         13    1    6    6    0    0  0.52636000693E+01 -0.16540467381E+02  0.36468360640E+01  0.17737051197E+02  0.10500000000E+00 0.  1.
</event>
<event>
11    0  0.3448258E-009  0.9118800E+02  0.7816531E-02  0.1126479E+00
         25   -1    0    0    0    0  0.00000000000E+00  0.00000000000E+00  0.99999998245E-14  0.12500000000E+03  0.12500000000E+03 0.  0.
    3000001    1    3    3    0    0 -0.15668470280E+02 -0.25330231891E+02  0.34924156416E+02  0.45910982454E+02  0.10000000000E+01 0.  1.
    1000022    2    1    0    0    0 -0.15936936200E+02 -0.33015212548E+02  0.49621162371E+02  0.62499999391E+02  0.99999986888E+01 0.  0.
    3000022    2    3    3    0    0 -0.26846592032E+00 -0.76849806570E+01  0.14697005955E+02  0.16589016937E+02  0.24999445372E+00 0.  0.
    1000022    2    1    0    0    0  0.15936936200E+02  0.33015212548E+02 -0.49621162371E+02  0.62500000609E+02  0.10000006304E+02 0.  0.
    3000022    2    5    5    0    0  0.14143112910E+02  0.32692332723E+02 -0.44697678863E+02  0.57155588272E+02  0.25002662175E+00 0.  0.
        -13    1    4    4    0    0 -0.53036597949E-01 -0.18335098476E+01  0.34785376346E+01  0.39339319157E+01  0.10500000000E+00 0.  1.
         13    1    4    4    0    0 -0.21542932237E+00 -0.58514708095E+01  0.11218468321E+02  0.12655085021E+02  0.10500000000E+00 0. -1.
    3000001    1    5    5    0    0  0.17938232897E+01  0.32287982486E+00 -0.49234835081E+01  0.53444123373E+01  0.10000000000E+01 0.  1.
        -13    1    6    6    0    0  0.79857486325E+01  0.18522499780E+02 -0.25213011049E+02  0.32288730704E+02  0.10500000000E+00 0.  1.
         13    1    6    6    0    0  0.61573642778E+01  0.14169832944E+02 -0.19484667814E+02  0.24866857568E+02  0.10500000000E+00 0. -1.
</event>
<event>
11    0  0.3448258E-009  0.9118800E+02  0.7816531E-02  0.1126479E+00
         25   -1    0    0    0    0  0.00000000000E+00  0.00000000000E+00  0.99999998245E-14  0.12500000000E+03  0.12500000000E+03 0.  0.
    3000001    1    3    3    0    0  0.25284334114E+02  0.13898105854E+02  0.20361329940E+02  0.35327590561E+02  0.10000000000E+01 0.  1.
    1000022    2    1    0    0    0  0.40601975022E+02  0.19833532225E+02  0.42004293375E+02  0.62499998972E+02  0.99999916723E+01 0.  0.
    3000022    2    3    3    0    0  0.15317640908E+02  0.59354263706E+01  0.21642963435E+02  0.27172408411E+02  0.25000690724E+00 0.  0.
    1000022    2    1    0    0    0 -0.40601975022E+02 -0.19833532225E+02 -0.42004293375E+02  0.62500001028E+02  0.10000004519E+02 0.  0.
    3000022    2    5    5    0    0 -0.35713180253E+02 -0.17301689173E+02 -0.40508692971E+02  0.56707992387E+02  0.25000462999E+00 0.  0.
        -13    1    4    4    0    0  0.80254363320E+01  0.30618588685E+01  0.11232687456E+02  0.14140965333E+02  0.10500000000E+00 0. -1.
         13    1    4    4    0    0  0.72922045757E+01  0.28735675021E+01  0.10410275978E+02  0.13031443079E+02  0.10500000000E+00 0.  1.
    3000001    1    5    5    0    0 -0.48887947687E+01 -0.25318430519E+01 -0.14956004043E+01  0.57920086412E+01  0.10000000000E+01 0. -1.
        -13    1    6    6    0    0 -0.11560656806E+02 -0.56526040959E+01 -0.13167985093E+02  0.18412158354E+02  0.10500000000E+00 0. -1.
         13    1    6    6    0    0 -0.24152523447E+02 -0.11649085077E+02 -0.27340707878E+02  0.38295834032E+02  0.10500000000E+00 0.  1.
</event>
<event>
11    0  0.3448258E-009  0.9118800E+02  0.7816531E-02  0.1126479E+00
         25   -1    0    0    0    0  0.00000000000E+00  0.00000000000E+00  0.99999998245E-14  0.12500000000E+03  0.12500000000E+03 0.  0.
    3000001    1    3    3    0    0  0.13003823174E+01  0.13608511777E+00 -0.61089575924E+01  0.63268377723E+01  0.10000000000E+01 0.  1.
    1000022    2    1    0    0    0  0.18558364451E+02 -0.25378646602E+02 -0.53082590551E+02  0.62500000178E+02  0.10000000405E+02 0.  0.
    3000022    2    3    3    0    0  0.17257982134E+02 -0.25514731719E+02 -0.46973632959E+02  0.56173162405E+02  0.24999838734E+00 0.  0.
    1000022    2    1    0    0    0 -0.18558364451E+02  0.25378646602E+02  0.53082590551E+02  0.62499999822E+02  0.99999981853E+01 0.  0.
    3000022    2    5    5    0    0 -0.13415638520E+01 -0.27652361265E+00  0.45469972176E+00  0.14647569312E+01  0.25000430640E+00 0.  0.
        -13    1    4    4    0    0  0.75476179970E+01 -0.11275084853E+02 -0.20710856390E+02  0.24759738958E+02  0.10500000000E+00 0. -1.
         13    1    4    4    0    0  0.97103641371E+01 -0.14239646866E+02 -0.26262776570E+02  0.31413423448E+02  0.10500000000E+00 0.  1.
    3000001    1    5    5    0    0 -0.17216800599E+02  0.25655170214E+02  0.52627890830E+02  0.61035242891E+02  0.10000000000E+01 0. -1.
        -13    1    6    6    0    0 -0.45373278925E+00 -0.12205722804E+00  0.20864932961E+00  0.52471988118E+00  0.10500000000E+00 0.  1.
         13    1    6    6    0    0 -0.88783106276E+00 -0.15446638461E+00  0.24605039216E+00  0.94003705005E+00  0.10500000000E+00 0. -1.
</event>
<event>
11    0  0.3448258E-009  0.9118800E+02  0.7816531E-02  0.1126479E+00
         25   -1    0    0    0    0  0.00000000000E+00  0.00000000000E+00  0.99999998245E-14  0.12500000000E+03  0.12500000000E+03 0.  0.
    3000001    1    3    3    0    0  0.30896152013E+01 -0.39779635529E+01  0.13275401798E+02  0.14233980786E+02  0.10000000000E+01 0. -1.
    1000022    2    1    0    0    0  0.21912515661E+02 -0.15339029334E+01  0.57651871956E+02  0.62499999973E+02  0.10000022789E+02 0.  0.
    3000022    2    3    3    0    0  0.18822900459E+02  0.24440606195E+01  0.44376470158E+02  0.48266019187E+02  0.24998087783E+00 0.  0.
    1000022    2    1    0    0    0 -0.21912515661E+02  0.15339029334E+01 -0.57651871956E+02  0.62500000027E+02  0.10000023126E+02 0.  0.
    3000022    2    5    5    0    0 -0.21039207475E+02  0.37821415819E+01 -0.53265093291E+02  0.57394995496E+02  0.24999702052E+00 0.  0.
        -13    1    4    4    0    0  0.72015503072E+01  0.99164589809E+00  0.17058223955E+02  0.18542915572E+02  0.10500000000E+00 0. -1.
         13    1    4    4    0    0  0.11621350152E+02  0.14524147214E+01  0.27318246203E+02  0.29723103615E+02  0.10500000000E+00 0.  1.
    3000001    1    5    5    0    0 -0.87330818557E+00 -0.22482386485E+01 -0.43867786650E+01  0.51050045312E+01  0.10000000000E+01 0. -1.
        -13    1    6    6    0    0 -0.54551156751E+01  0.94950352790E+00 -0.13783729211E+02  0.14854698245E+02  0.10500000000E+00 0.  1.
         13    1    6    6    0    0 -0.15584091800E+02  0.28326380540E+01 -0.39481364080E+02  0.42540297251E+02  0.10500000000E+00 0. -1.
</event>
<event>
11    0  0.3448258E-009  0.9118800E+02  0.7816531E-02  0.1126479E+00
         25   -1    0    0    0    0  0.00000000000E+00  0.00000000000E+00  0.99999998245E-14  0.12500000000E+03  0.12500000000E+03 0.  0.
    3000001    1    3    3    0    0 -0.79256365469E+01 -0.27085208553E+02 -0.38931455897E+02  0.48094516271E+02  0.10000000000E+01 0.  1.
    1000022    2    1    0    0    0 -0.52970396050E+01 -0.36808370376E+02 -0.49227381721E+02  0.62500000829E+02  0.10000011710E+02 0.  0.
    3000022    2    3    3    0    0  0.26285969418E+01 -0.97231618230E+01 -0.10295925824E+02  0.14405484559E+02  0.24999814144E+00 0.  0.
    1000022    2    1    0    0    0  0.52970396050E+01  0.36808370376E+02  0.49227381721E+02  0.62499999171E+02  0.10000001346E+02 0.  0.
    3000022    2    5    5    0    0  0.10166926400E+01  0.11791647754E+02  0.87800449397E+01  0.14738667179E+02  0.25000079953E+00 0.  0.
        -13    1    4    4    0    0  0.64055673597E+00 -0.23585995484E+01 -0.25304520582E+01  0.35195905132E+01  0.10500000000E+00 0. -1.
         13    1    4    4    0    0  0.19880402059E+01 -0.73645622747E+01 -0.77654737659E+01  0.10885894045E+02  0.10500000000E+00 0.  1.
    3000001    1    5    5    0    0  0.42803469650E+01  0.25016722622E+02  0.40447336781E+02  0.47761331991E+02  0.10000000000E+01 0.  1.
        -13    1    6    6    0    0  0.69215522523E+00  0.78057212427E+01  0.57492920006E+01  0.97197606186E+01  0.10500000000E+00 0.  1.
         13    1    6    6    0    0  0.32453741480E+00  0.39859265115E+01  0.30307529391E+01  0.50189065609E+01  0.10500000000E+00 0.  1.
</event>
<event>
11    0  0.3448258E-009  0.9118800E+02  0.7816531E-02  0.1126479E+00
         25   -1    0    0    0    0  0.00000000000E+00  0.00000000000E+00  0.99999998245E-14  0.12500000000E+03  0.12500000000E+03 0.  0.
    3000001    1    3    3    0    0 -0.34144718446E+00 -0.16746153910E+01  0.72885292517E+00  0.21100117237E+01  0.10000000000E+01 0. -1.
    1000022    2    1    0    0    0  0.11540326025E+02 -0.27447760317E+02  0.54034168577E+02  0.62500000253E+02  0.99999993301E+01 0.  0.
    3000022    2    3    3    0    0  0.11881773210E+02 -0.25773144926E+02  0.53305315652E+02  0.60389988529E+02  0.25000764325E+00 0.  0.
    1000022    2    1    0    0    0 -0.11540326025E+02  0.27447760317E+02 -0.54034168577E+02  0.62499999747E+02  0.99999961712E+01 0.  0.
    3000022    2    5    5    0    0 -0.44773803100E+01  0.20584149687E+02 -0.31597269180E+02  0.37976362015E+02  0.24999903363E+00 0.  0.
        -13    1    4    4    0    0  0.64826675290E+01 -0.14212573184E+02  0.29294854900E+02  0.33199725352E+02  0.10500000000E+00 0. -1.
         13    1    4    4    0    0  0.53991056809E+01 -0.11560571742E+02  0.24010460752E+02  0.27190263178E+02  0.10500000000E+00 0.  1.
    3000001    1    5    5    0    0 -0.70629457155E+01  0.68636106303E+01 -0.22436899397E+02  0.24523637732E+02  0.10000000000E+01 0. -1.
        -13    1    6    6    0    0 -0.24117616668E+01  0.10811810309E+02 -0.16555179818E+02  0.19919760046E+02  0.10500000000E+00 0. -1.
         13    1    6    6    0    0 -0.20656186432E+01  0.97723393783E+01 -0.15042089362E+02  0.18056601969E+02  0.10500000000E+00 0.  1.
</event>
<event>
11    0  0.3448258E-009  0.9118800E+02  0.7816531E-02  0.1126479E+00
         25   -1    0    0    0    0  0.00000000000E+00  0.00000000000E+00  0.99999998245E-14  0.12500000000E+03  0.12500000000E+03 0.  0.
    3000001    1    3    3    0    0 -0.20830236635E+02  0.12923307005E+02  0.91328755372E+01  0.26178617950E+02  0.10000000000E+01 0. -1.
    1000022    2    1    0    0    0 -0.54952103621E+02  0.24566314059E+02  0.13528208965E+02  0.62500001159E+02  0.10000011411E+02 0.  0.
    3000022    2    3    3    0    0 -0.34121866987E+02  0.11643007054E+02  0.43953334280E+01  0.36321383209E+02  0.25000471873E+00 0.  0.
    1000022    2    1    0    0    0  0.54952103621E+02 -0.24566314059E+02 -0.13528208965E+02  0.62499998841E+02  0.99999969236E+01 0.  0.
    3000022    2    5    5    0    0  0.43200126131E+02 -0.15178030548E+02 -0.82432869547E+01  0.46525668092E+02  0.25000513355E+00 0.  0.
        -13    1    4    4    0    0 -0.18661655124E+02  0.63952551279E+01  0.24668838162E+01  0.19880975853E+02  0.10500000000E+00 0.  1.
         13    1    4    4    0    0 -0.15460211863E+02  0.52477519265E+01  0.19284496117E+01  0.16440407356E+02  0.10500000000E+00 0. -1.
    3000001    1    5    5    0    0  0.11751977491E+02 -0.93882835109E+01 -0.52849220105E+01  0.15974330749E+02  0.10000000000E+01 0.  1.
        -13    1    6    6    0    0  0.26675490693E+02 -0.94355536145E+01 -0.51067857074E+01  0.28752421828E+02  0.10500000000E+00 0.  1.
         13    1    6    6    0    0  0.16524635438E+02 -0.57424769335E+01 -0.31365012473E+01  0.17773246264E+02  0.10500000000E+00 0. -1.
</event>
<event>
11    0  0.3448258E-009  0.9118800E+02  0.7816531E-02  0.1126479E+00
         25   -1    0    0    0    0  0.00000000000E+00  0.00000000000E+00  0.99999998245E-14  0.12500000000E+03  0.12500000000E+03 0.  0.
    3000001    1    3    3    0    0  0.95234311674E+00 -0.20172040151E+02 -0.43015234886E+02  0.47530291326E+02  0.10000000000E+01 0.  1.
    1000022    2    1    0    0    0  0.66665469489E+01 -0.25483437684E+02 -0.55788901859E+02  0.62499998993E+02  0.99999929558E+01 0.  0.
    3000022    2    3    3    0    0  0.57142038321E+01 -0.53113975328E+01 -0.12773666973E+02  0.14969707667E+02  0.25002101816E+00 0.  0.
    1000022    2    1    0    0    0 -0.66665469489E+01  0.25483437684E+02  0.55788901859E+02  0.62500001007E+02  0.10000005544E+02 0.  0.
    3000022    2    5    5    0    0 -0.33157397984E+01  0.23455552843E+02  0.50996517042E+02  0.56230457346E+02  0.24998671691E+00 0.  0.
        -13    1    4    4    0    0  0.29408463542E+01 -0.26660927912E+01 -0.64096598567E+01  0.75399862419E+01  0.10500000000E+00 0.  1.
         13    1    4    4    0    0  0.27733574779E+01 -0.26453047416E+01 -0.63640071163E+01  0.74297214250E+01  0.10500000000E+00 0. -1.
    3000001    1    5    5    0    0 -0.33508071504E+01  0.20278848414E+01  0.47923848169E+01  0.62695436615E+01  0.10000000000E+01 0.  1.
        -13    1    6    6    0    0 -0.19073404709E+01  0.13502008338E+02  0.29509459925E+02  0.32507867154E+02  0.10500000000E+00 0.  1.
         13    1    6    6    0    0 -0.14083993275E+01  0.99535445042E+01  0.21487057116E+02  0.23722590191E+02  0.10500000000E+00 0. -1.
</event>
<event>
11    0  0.3448258E-009  0.9118800E+02  0.7816531E-02  0.1126479E+00
         25   -1    0    0    0    0  0.00000000000E+00  0.00000000000E+00  0.99999998245E-14  0.12500000000E+03  0.12500000000E+03 0.  0.
    3000001    1    3    3    0    0 -0.87549085720E+00 -0.75129259443E+01 -0.95970366542E+00  0.76897055607E+01  0.10000000000E+01 0.  1.
    1000022    2    1    0    0    0 -0.15683005799E+02 -0.57473623758E+02  0.16033589815E+02  0.62499999767E+02  0.99999934852E+01 0.  0.
    3000022    2    3    3    0    0 -0.14807514942E+02 -0.49960697814E+02  0.16993293481E+02  0.54810294206E+02  0.25000567566E+00 0.  0.
    1000022    2    1    0    0    0  0.15683005799E+02  0.57473623758E+02 -0.16033589815E+02  0.62500000233E+02  0.99999964029E+01 0.  0.
    3000022    2    5    5    0    0  0.96693433832E+01  0.19774595822E+02 -0.83628779912E+01  0.23548483410E+02  0.25000246398E+00 0.  0.
        -13    1    4    4    0    0 -0.75717814444E+01 -0.25311390969E+02  0.86049394890E+01  0.27785866832E+02  0.10500000000E+00 0. -1.
         13    1    4    4    0    0 -0.72357334979E+01 -0.24649306845E+02  0.83883539916E+01  0.27024427373E+02  0.10500000000E+00 0.  1.
    3000001    1    5    5    0    0  0.60136624163E+01  0.37699027935E+02 -0.76707118240E+01  0.38951516823E+02  0.10000000000E+01 0. -1.
        -13    1    6    6    0    0  0.44146505129E+01  0.88898352991E+01 -0.37416786957E+01  0.10607992046E+02  0.10500000000E+00 0.  1.
         13    1    6    6    0    0  0.52546928703E+01  0.10884760523E+02 -0.46211992955E+01  0.12940491364E+02  0.10500000000E+00 0. -1.
</event>
<event>
11    0  0.3448258E-009  0.9118800E+02  0.7816531E-02  0.1126479E+00
         25   -1    0    0    0    0  0.00000000000E+00  0.00000000000E+00  0.99999998245E-14  0.12500000000E+03  0.12500000000E+03 0.  0.
    3000001    1    3    3    0    0  0.35164690739E+02 -0.30113922767E+00 -0.28308040856E+02  0.45155191692E+02  0.10000000000E+01 0. -1.
    1000022    2    1    0    0    0  0.44240865912E+02 -0.24426749641E+01 -0.42930514725E+02  0.62500000173E+02  0.10000002470E+02 0.  0.
    3000022    2    3    3    0    0  0.90761751733E+01 -0.21415357364E+01 -0.14622473869E+02  0.17344808481E+02  0.25001623715E+00 0.  0.
    1000022    2    1    0    0    0 -0.44240865912E+02  0.24426749641E+01  0.42930514725E+02  0.62499999827E+02  0.10000000314E+02 0.  0.
    3000022    2    5    5    0    0 -0.27407955494E+02  0.49532310859E+01  0.31097409577E+02  0.41747358004E+02  0.24999087359E+00 0.  0.
        -13    1    4    4    0    0  0.29262363658E+01 -0.64069368164E+00 -0.46684111160E+01  0.55478315593E+01  0.10500000000E+00 0.  1.
         13    1    4    4    0    0  0.61499388075E+01 -0.15008420548E+01 -0.99540627525E+01  0.11796976922E+02  0.10500000000E+00 0. -1.
    3000001    1    5    5    0    0 -0.16832910418E+02 -0.25105561217E+01  0.11833105148E+02  0.20752641823E+02  0.10000000000E+01 0.  1.
        -13    1    6    6    0    0 -0.72539729736E+01  0.13286952745E+01  0.81912075842E+01  0.11022361894E+02  0.10500000000E+00 0.  1.
         13    1    6    6    0    0 -0.20153982520E+02  0.36245358113E+01  0.22906201992E+02  0.30724996110E+02  0.10500000000E+00 0. -1.
</event>
<event>
11    0  0.3448258E-009  0.9118800E+02  0.7816531E-02  0.1126479E+00
         25   -1    0    0    0    0  0.00000000000E+00  0.00000000000E+00  0.99999998245E-14  0.12500000000E+03  0.12500000000E+03 0.  0.
    3000001    1    3    3    0    0  0.35052977097E+02  0.38227221771E+02  0.29442224980E+02  0.59647936255E+02  0.10000000000E+01 0.  1.
    1000022    2    1    0    0    0  0.37117402369E+02  0.37997488196E+02  0.31380560555E+02  0.62500002359E+02  0.10000002315E+02 0.  0.
    3000022    2    3    3    0    0  0.20644252714E+01 -0.22973357463E+00  0.19383355753E+01  0.28520661042E+01  0.25001408628E+00 0.  0.
    1000022    2    1    0    0    0 -0.37117402369E+02 -0.37997488196E+02 -0.31380560555E+02  0.62499997641E+02  0.99999728249E+01 0.  0.
    3000022    2    5    5    0    0 -0.19304869754E+02 -0.13433266072E+02 -0.11242847682E+02  0.26069038190E+02  0.24998917446E+00 0.  0.
        -13    1    4    4    0    0  0.84230593823E+00 -0.14995886552E+00  0.84204361612E+00  0.12050018284E+01  0.10500000000E+00 0.  1.
         13    1    4    4    0    0  0.12221193332E+01 -0.79774709111E-01  0.10962919592E+01  0.16470642758E+01  0.10500000000E+00 0. -1.
    3000001    1    5    5    0    0 -0.17812532615E+02 -0.24564222124E+02 -0.20137712873E+02  0.36430959450E+02  0.10000000000E+01 0. -1.
        -13    1    6    6    0    0 -0.56801946961E+01 -0.39835219597E+01 -0.33571342643E+01  0.77080759244E+01  0.10500000000E+00 0. -1.
         13    1    6    6    0    0 -0.13624675058E+02 -0.94497441128E+01 -0.78857134177E+01  0.18360962266E+02  0.10500000000E+00 0.  1.
</event>
<event>
11    0  0.3448258E-009  0.9118800E+02  0.7816531E-02  0.1126479E+00
         25   -1    0    0    0    0  0.00000000000E+00  0.00000000000E+00  0.99999998245E-14  0.12500000000E+03  0.12500000000E+03 0.  0.
    3000001    1    3    3    0    0 -0.23819033078E+01 -0.19728486358E+00 -0.18669627014E+02  0.18848537278E+02  0.10000000000E+01 0. -1.
    1000022    2    1    0    0    0 -0.35544494894E+01  0.13541427234E+02 -0.60085317583E+02  0.62499986094E+02  0.99999254972E+01 0.  0.
    3000022    2    3    3    0    0 -0.11725461815E+01  0.13738712098E+02 -0.41415690569E+02  0.43651448816E+02  0.24996745779E+00 0.  0.
    1000022    2    1    0    0    0  0.35544494894E+01 -0.13541427234E+02  0.60085317583E+02  0.62500013906E+02  0.10000099327E+02 0.  0.
    3000022    2    5    5    0    0 -0.31293938130E+01 -0.63251357094E+01  0.30487383157E+02  0.31294463968E+02  0.24999183201E+00 0.  0.
        -13    1    4    4    0    0 -0.28518045035E+00  0.37588819575E+01 -0.11289421139E+02  0.11902628958E+02  0.10500000000E+00 0.  1.
         13    1    4    4    0    0 -0.88736573118E+00  0.99798301406E+01 -0.30126269430E+02  0.31748819858E+02  0.10500000000E+00 0. -1.
    3000001    1    5    5    0    0  0.66838433024E+01 -0.72162915251E+01  0.29597934426E+02  0.31205549938E+02  0.10000000000E+01 0.  1.
        -13    1    6    6    0    0 -0.10800557668E+01 -0.20765113453E+01  0.10007804671E+02  0.10278404504E+02  0.10500000000E+00 0. -1.
         13    1    6    6    0    0 -0.20493380462E+01 -0.42486243642E+01  0.20479578486E+02  0.21016059464E+02  0.10500000000E+00 0.  1.
</event>
<event>
11    0  0.3448258E-009  0.9118800E+02  0.7816531E-02  0.1126479E+00
         25   -1    0    0    0    0  0.00000000000E+00  0.00000000000E+00  0.99999998245E-14  0.12500000000E+03  0.12500000000E+03 0.  0.
    3000001    1    3    3    0    0 -0.29057437264E+02  0.33907953952E+02 -0.19061084139E+02  0.48563452618E+02  0.10000000000E+01 0. -1.
    1000022    2    1    0    0    0 -0.39678896876E+02  0.39202350712E+02 -0.26363057331E+02  0.62500000056E+02  0.10000002831E+02 0.  0.
    3000022    2    3    3    0    0 -0.10621459611E+02  0.52943967595E+01 -0.73019731921E+01  0.13936547439E+02  0.25000138430E+00 0.  0.
    1000022    2    1    0    0    0  0.39678896876E+02 -0.39202350712E+02  0.26363057331E+02  0.62499999944E+02  0.10000002127E+02 0.  0.
    3000022    2    5    5    0    0  0.58353359629E+01 -0.65380599361E+01  0.42487622826E+00  0.87772696889E+01  0.25013966844E+00 0.  0.
        -13    1    4    4    0    0 -0.61514024697E+01  0.31179721136E+01 -0.42959674317E+01  0.81257531110E+01  0.10500000000E+00 0.  1.
         13    1    4    4    0    0 -0.44700571416E+01  0.21764246458E+01 -0.30060057604E+01  0.58107943278E+01  0.10500000000E+00 0. -1.
    3000001    1    5    5    0    0  0.33843560913E+02 -0.32664290775E+02  0.25938181103E+02  0.53722730255E+02  0.10000000000E+01 0. -1.
        -13    1    6    6    0    0  0.33288712430E+01 -0.37103166723E+01  0.30617799137E+00  0.49952581038E+01  0.10500000000E+00 0.  1.
         13    1    6    6    0    0  0.25064647198E+01 -0.28277432639E+01  0.11869823689E+00  0.37820115851E+01  0.10500000000E+00 0. -1.
</event>
<event>
11    0  0.3448258E-009  0.9118800E+02  0.7816531E-02  0.1126479E+00
         25   -1    0    0    0    0  0.00000000000E+00  0.00000000000E+00  0.99999998245E-14  0.12500000000E+03  0.12500000000E+03 0.  0.
    3000001    1    3    3    0    0 -0.14182435974E+02  0.26505643899E+02 -0.27928085354E+02  0.41044714644E+02  0.10000000000E+01 0. -1.
    1000022    2    1    0    0    0 -0.17637336688E+02  0.36157239727E+02 -0.46774228013E+02  0.62499999236E+02  0.99999934121E+01 0.  0.
    3000022    2    3    3    0    0 -0.34549007133E+01  0.96515958282E+01 -0.18846142659E+02  0.21455284592E+02  0.25000572112E+00 0.  0.
    1000022    2    1    0    0    0  0.17637336688E+02 -0.36157239727E+02  0.46774228013E+02  0.62500000764E+02  0.10000002960E+02 0.  0.
    3000022    2    5    5    0    0  0.49095162959E+01 -0.21040126880E+02  0.26092759648E+02  0.33877498315E+02  0.24999320031E+00 0.  0.
        -13    1    4    4    0    0 -0.24656271358E+01  0.68448638275E+01 -0.13457604595E+02  0.15298680480E+02  0.10500000000E+00 0.  1.
         13    1    4    4    0    0 -0.98927357757E+00  0.28067320007E+01 -0.53885380637E+01  0.61566041126E+01  0.10500000000E+00 0. -1.
    3000001    1    5    5    0    0  0.12727820392E+02 -0.15117112846E+02  0.20681468364E+02  0.28622502449E+02  0.10000000000E+01 0.  1.
        -13    1    6    6    0    0  0.15276078684E+01 -0.64735187545E+01  0.81038365442E+01  0.10484427624E+02  0.10500000000E+00 0.  1.
         13    1    6    6    0    0  0.33819084275E+01 -0.14566608126E+02  0.17988923104E+02  0.23393070691E+02  0.10500000000E+00 0. -1.
</event>
<event>
11    0  0.3448258E-009  0.9118800E+02  0.7816531E-02  0.1126479E+00
         25   -1    0    0    0    0  0.00000000000E+00  0.00000000000E+00  0.99999998245E-14  0.12500000000E+03  0.12500000000E+03 0.  0.
    3000001    1    3    3    0    0 -0.20207014816E+02  0.84297978954E+01  0.27547692281E+02  0.35203128985E+02  0.10000000000E+01 0. -1.
    1000022    2    1    0    0    0 -0.35718623115E+02  0.22703775859E+02  0.44888400149E+02  0.62499998607E+02  0.99999941248E+01 0.  0.
    3000022    2    3    3    0    0 -0.15511608298E+02  0.14273977964E+02  0.17340707868E+02  0.27296869622E+02  0.25000576809E+00 0.  0.
    1000022    2    1    0    0    0  0.35718623115E+02 -0.22703775859E+02 -0.44888400149E+02  0.62500001393E+02  0.10000011534E+02 0.  0.
    3000022    2    5    5    0    0  0.10652102344E+02 -0.71546448581E+01 -0.74965062354E+01  0.14863254349E+02  0.24999343663E+00 0.  0.
        -13    1    4    4    0    0 -0.95389371797E+01  0.87028777373E+01  0.10585888340E+02  0.16697408792E+02  0.10500000000E+00 0.  1.
         13    1    4    4    0    0 -0.59726711186E+01  0.55711002266E+01  0.67548195280E+01  0.10599460830E+02  0.10500000000E+00 0. -1.
    3000001    1    5    5    0    0  0.25066520770E+02 -0.15549131001E+02 -0.37391893914E+02  0.47636747043E+02  0.10000000000E+01 0. -1.
        -13    1    6    6    0    0  0.79887658279E+01 -0.53330533917E+01 -0.56091661411E+01  0.11123650827E+02  0.10500000000E+00 0.  1.
         13    1    6    6    0    0  0.26633365165E+01 -0.18215914664E+01 -0.18873400943E+01  0.37396035221E+01  0.10500000000E+00 0. -1.
</event>
<event>
11    0  0.3448258E-009  0.9118800E+02  0.7816531E-02  0.1126479E+00
         25   -1    0    0    0    0  0.00000000000E+00  0.00000000000E+00  0.99999998245E-14  0.12500000000E+03  0.12500000000E+03 0.  0.
    3000001    1    3    3    0    0  0.11494046241E+02  0.35461212321E+02  0.21462258912E+02  0.43026029748E+02  0.10000000000E+01 0. -1.
    1000022    2    1    0    0    0  0.21577472135E+02  0.51296645054E+02  0.26633006827E+02  0.62500000542E+02  0.99999958748E+01 0.  0.
    3000022    2    3    3    0    0  0.10083425894E+02  0.15835432733E+02  0.51707479148E+01  0.19473970793E+02  0.24999372635E+00 0.  0.
    1000022    2    1    0    0    0 -0.21577472135E+02 -0.51296645054E+02 -0.26633006827E+02  0.62499999458E+02  0.99999891007E+01 0.  0.
    3000022    2    5    5    0    0 -0.18739326466E+02 -0.37007457927E+02 -0.16109183457E+02  0.44500366186E+02  0.25000084724E+00 0.  0.
        -13    1    4    4    0    0  0.68198961460E+01  0.10669534782E+02  0.34387534620E+01  0.13121966556E+02  0.10500000000E+00 0. -1.
         13    1    4    4    0    0  0.32635297477E+01  0.51658979510E+01  0.17319944528E+01  0.63520042380E+01  0.10500000000E+00 0.  1.
    3000001    1    5    5    0    0 -0.28381456693E+01 -0.14289187127E+02 -0.10523823370E+02  0.17999633272E+02  0.10000000000E+01 0.  1.
        -13    1    6    6    0    0 -0.10000657735E+02 -0.19897508509E+02 -0.86568614674E+01  0.23893017295E+02  0.10500000000E+00 0. -1.
         13    1    6    6    0    0 -0.87386687310E+01 -0.17109949418E+02 -0.74523219900E+01  0.20607348891E+02  0.10500000000E+00 0.  1.
</event>
<event>
11    0  0.3448258E-009  0.9118800E+02  0.7816531E-02  0.1126479E+00
         25   -1    0    0    0    0  0.00000000000E+00  0.00000000000E+00  0.99999998245E-14  0.12500000000E+03  0.12500000000E+03 0.  0.
    3000001    1    3    3    0    0  0.11309536707E+02 -0.61844552761E+01  0.19237821178E+02  0.23178586481E+02  0.10000000000E+01 0. -1.
    1000022    2    1    0    0    0  0.20743702480E+02 -0.10234551688E+02  0.57194431006E+02  0.62499999158E+02  0.99999857882E+01 0.  0.
    3000022    2    3    3    0    0  0.94341657728E+01 -0.40500964123E+01  0.37956609828E+02  0.39321412677E+02  0.25000090086E+00 0.  0.
    1000022    2    1    0    0    0 -0.20743702480E+02  0.10234551688E+02 -0.57194431006E+02  0.62500000842E+02  0.99999963140E+01 0.  0.
    3000022    2    5    5    0    0 -0.17336921713E+02  0.40670170831E+01 -0.44763259396E+02  0.48175941854E+02  0.24999855181E+00 0.  0.
        -13    1    4    4    0    0  0.55104326353E+01 -0.23853522614E+01  0.21960338911E+02  0.22766692410E+02  0.10500000000E+00 0. -1.
         13    1    4    4    0    0  0.39237331375E+01 -0.16647441508E+01  0.15996270918E+02  0.16554720266E+02  0.10500000000E+00 0.  1.
    3000001    1    5    5    0    0 -0.34067807666E+01  0.61675346053E+01 -0.12431171610E+02  0.14324058988E+02  0.10000000000E+01 0.  1.
        -13    1    6    6    0    0 -0.11189970848E+02  0.26804550991E+01 -0.28973395569E+02  0.31174812958E+02  0.10500000000E+00 0.  1.
         13    1    6    6    0    0 -0.61469508650E+01  0.13865619840E+01 -0.15789863827E+02  0.17001128896E+02  0.10500000000E+00 0. -1.
</event>
<event>
11    0  0.3448258E-009  0.9118800E+02  0.7816531E-02  0.1126479E+00
         25   -1    0    0    0    0  0.00000000000E+00  0.00000000000E+00  0.99999998245E-14  0.12500000000E+03  0.12500000000E+03 0.  0.
    3000001    1    3    3    0    0  0.35689164531E+01  0.20705788488E+01  0.39141745780E+01  0.57745323660E+01  0.10000000000E+01 0. -1.
    1000022    2    1    0    0    0  0.36540033124E+02 -0.62721934495E+01  0.49312631659E+02  0.62500001011E+02  0.10000002695E+02 0.  0.
    3000022    2    3    3    0    0  0.32971116671E+02 -0.83427722983E+01  0.45398457081E+02  0.56725468645E+02  0.25000708925E+00 0.  0.
    1000022    2    1    0    0    0 -0.36540033124E+02  0.62721934495E+01 -0.49312631659E+02  0.62499998989E+02  0.99999900598E+01 0.  0.
    3000022    2    5    5    0    0 -0.75542180147E+00  0.22148540916E+01 -0.25821579494E+01  0.34937486149E+01  0.24999792552E+00 0.  0.
        -13    1    4    4    0    0  0.86807242132E+01 -0.22028590152E+01  0.12009643726E+02  0.14981659726E+02  0.10500000000E+00 0.  1.
         13    1    4    4    0    0  0.24290392458E+02 -0.61399132831E+01  0.33388813354E+02  0.41743808919E+02  0.10500000000E+00 0. -1.
    3000001    1    5    5    0    0 -0.35784611322E+02  0.40573393579E+01 -0.46730473709E+02  0.59006250374E+02  0.10000000000E+01 0.  1.
        -13    1    6    6    0    0 -0.26648067685E+00  0.76952893337E+00 -0.81958724435E+00  0.11601443796E+01  0.10500000000E+00 0. -1.
         13    1    6    6    0    0 -0.48894112463E+00  0.14453251582E+01 -0.17625707051E+01  0.23336042353E+01  0.10500000000E+00 0.  1.
</event>
<event>
11    0  0.3448258E-009  0.9118800E+02  0.7816531E-02  0.1126479E+00
         25   -1    0    0    0    0  0.00000000000E+00  0.00000000000E+00  0.99999998245E-14  0.12500000000E+03  0.12500000000E+03 0.  0.
    3000001    1    3    3    0    0  0.96423499727E+01 -0.16281897197E+01 -0.48880510915E+00  0.98419939644E+01  0.10000000000E+01 0. -1.
    1000022    2    1    0    0    0  0.53009527553E+02 -0.29504045569E+02 -0.11213908150E+02  0.62500001572E+02  0.99999872035E+01 0.  0.
    3000022    2    3    3    0    0  0.43367177581E+02 -0.27875855849E+02 -0.10725103041E+02  0.52658007607E+02  0.24999854925E+00 0.  0.
    1000022    2    1    0    0    0 -0.53009527553E+02  0.29504045569E+02  0.11213908150E+02  0.62499998428E+02  0.99999675586E+01 0.  0.
    3000022    2    5    5    0    0 -0.40568391115E+02  0.24530459155E+02  0.12424422648E+02  0.49009861919E+02  0.25000627660E+00 0.  0.
        -13    1    4    4    0    0  0.10046945641E+02 -0.64501036460E+01 -0.24912805140E+01  0.12196821609E+02  0.10500000000E+00 0.  1.
         13    1    4    4    0    0  0.33320231940E+02 -0.21425752203E+02 -0.82338225267E+01  0.40461185999E+02  0.10500000000E+00 0. -1.
    3000001    1    5    5    0    0 -0.12441136439E+02  0.49735864141E+01 -0.12105144983E+01  0.13490136510E+02  0.10000000000E+01 0. -1.
        -13    1    6    6    0    0 -0.21226064643E+02  0.12859551145E+02  0.64377007173E+01  0.25639206138E+02  0.10500000000E+00 0. -1.
         13    1    6    6    0    0 -0.19342326472E+02  0.11670908010E+02  0.59867219308E+01  0.23370655781E+02  0.10500000000E+00 0.  1.
</event>
<event>
11    0  0.3448258E-009  0.9118800E+02  0.7816531E-02  0.1126479E+00
         25   -1    0    0    0    0  0.00000000000E+00  0.00000000000E+00  0.99999998245E-14  0.12500000000E+03  0.12500000000E+03 0.  0.
    3000001    1    3    3    0    0  0.14302630693E+01 -0.27618431507E+02 -0.23998133664E+02  0.36629685102E+02  0.10000000000E+01 0.  1.
    1000022    2    1    0    0    0 -0.39950014161E+01 -0.49699444697E+02 -0.36335314433E+02  0.62499999471E+02  0.10000000967E+02 0.  0.
    3000022    2    3    3    0    0 -0.54252644854E+01 -0.22081013190E+02 -0.12337180770E+02  0.25870314368E+02  0.24999586892E+00 0.  0.
    1000022    2    1    0    0    0  0.39950014161E+01  0.49699444697E+02  0.36335314433E+02  0.62500000529E+02  0.10000007585E+02 0.  0.
    3000022    2    5    5    0    0  0.71395193643E+01  0.28708073774E+02  0.22007648516E+02  0.36871741576E+02  0.24999412320E+00 0.  0.
        -13    1    4    4    0    0 -0.22527860603E+01 -0.93089239980E+01 -0.51334781166E+01  0.10867140084E+02  0.10500000000E+00 0.  1.
         13    1    4    4    0    0 -0.31724784251E+01 -0.12772089192E+02 -0.72037026531E+01  0.15003174284E+02  0.10500000000E+00 0. -1.
    3000001    1    5    5    0    0 -0.31445179482E+01  0.20991370923E+02  0.14327665917E+02  0.25628258954E+02  0.10000000000E+01 0. -1.
        -13    1    6    6    0    0  0.25681061924E+01  0.10275382838E+02  0.79499974655E+01  0.13243570009E+02  0.10500000000E+00 0. -1.
         13    1    6    6    0    0  0.45714131719E+01  0.18432690936E+02  0.14057651051E+02  0.23628171567E+02  0.10500000000E+00 0.  1.
</event>
<event>
11    0  0.3448258E-009  0.9118800E+02  0.7816531E-02  0.1126479E+00
         25   -1    0    0    0    0  0.00000000000E+00  0.00000000000E+00  0.99999998245E-14  0.12500000000E+03  0.12500000000E+03 0.  0.
    3000001    1    3    3    0    0 -0.96762679322E+01  0.63529794120E+01 -0.11211097870E+01  0.11672505972E+02  0.10000000000E+01 0.  1.
    1000022    2    1    0    0    0 -0.40545859297E+02  0.41394938521E+02 -0.21183534112E+02  0.62499997958E+02  0.99999992968E+01 0.  0.
    3000022    2    3    3    0    0 -0.30869591365E+02  0.35041959109E+02 -0.20062424325E+02  0.50827491986E+02  0.25000510151E+00 0.  0.
    1000022    2    1    0    0    0  0.40545859297E+02 -0.41394938521E+02  0.21183534112E+02  0.62500002042E+02  0.10000024822E+02 0.  0.
    3000022    2    5    5    0    0  0.26275058759E+02 -0.20498240068E+02  0.98181339430E+01  0.34742118923E+02  0.25002890989E+00 0.  0.
        -13    1    4    4    0    0 -0.13783851695E+02  0.15594847086E+02 -0.90033839594E+01  0.22677428666E+02  0.10500000000E+00 0. -1.
         13    1    4    4    0    0 -0.17085739669E+02  0.19447112024E+02 -0.11059040366E+02  0.28150063320E+02  0.10500000000E+00 0.  1.
    3000001    1    5    5    0    0  0.14270800538E+02 -0.20896698453E+02  0.11365400169E+02  0.27757883119E+02  0.10000000000E+01 0.  1.
        -13    1    6    6    0    0  0.14977895735E+02 -0.11725073222E+02  0.56637531868E+01  0.19847010553E+02  0.10500000000E+00 0. -1.
         13    1    6    6    0    0  0.11297163024E+02 -0.87731668461E+01  0.41543807562E+01  0.14895108370E+02  0.10500000000E+00 0.  1.
</event>
<event>
11    0  0.3448258E-009  0.9118800E+02  0.7816531E-02  0.1126479E+00
         25   -1    0    0    0    0  0.00000000000E+00  0.00000000000E+00  0.99999998245E-14  0.12500000000E+03  0.12500000000E+03 0.  0.
    3000001    1    3    3    0    0 -0.79751335522E+01  0.16699865148E+02  0.97475734027E+01  0.20940473690E+02  0.10000000000E+01 0. -1.
    1000022    2    1    0    0    0 -0.10693186842E+02  0.50662164903E+02  0.33544760696E+02  0.62500000221E+02  0.99999929958E+01 0.  0.
    3000022    2    3    3    0    0 -0.27180532893E+01  0.33962299756E+02  0.23797187293E+02  0.41559526530E+02  0.25000799177E+00 0.  0.
    1000022    2    1    0    0    0  0.10693186842E+02 -0.50662164903E+02 -0.33544760696E+02  0.62499999779E+02  0.99999902365E+01 0.  0.
    3000022    2    5    5    0    0  0.12974094545E+01 -0.21928924140E+02 -0.18486766996E+02  0.28712088750E+02  0.25000234183E+00 0.  0.
        -13    1    4    4    0    0 -0.13052283318E+01  0.17039723196E+02  0.11894085758E+02  0.20821529450E+02  0.10500000000E+00 0.  1.
         13    1    4    4    0    0 -0.14128249575E+01  0.16922576559E+02  0.11903101535E+02  0.20737997081E+02  0.10500000000E+00 0. -1.
    3000001    1    5    5    0    0  0.93957773870E+01 -0.28733240764E+02 -0.15057993700E+02  0.33787911030E+02  0.10000000000E+01 0.  1.
        -13    1    6    6    0    0  0.61450767870E+00 -0.11163815092E+02 -0.93439538436E+01  0.14571509377E+02  0.10500000000E+00 0.  1.
         13    1    6    6    0    0  0.68290177583E+00 -0.10765109048E+02 -0.91428131527E+01  0.14140579373E+02  0.10500000000E+00 0. -1.
</event>
<event>
11    0  0.3448258E-009  0.9118800E+02  0.7816531E-02  0.1126479E+00
         25   -1    0    0    0    0  0.00000000000E+00  0.00000000000E+00  0.99999998245E-14  0.12500000000E+03  0.12500000000E+03 0.  0.
    3000001    1    3    3    0    0  0.16482652645E+02  0.31960496188E+02 -0.25235126971E+02  0.43942721673E+02  0.10000000000E+01 0.  1.
    1000022    2    1    0    0    0  0.26134115188E+02  0.46997035589E+02 -0.30241308796E+02  0.62500000559E+02  0.99999990707E+01 0.  0.
    3000022    2    3    3    0    0  0.96514625434E+01  0.15036539401E+02 -0.50061818249E+01  0.18557278886E+02  0.24999363410E+00 0.  0.
    1000022    2    1    0    0    0 -0.26134115188E+02 -0.46997035589E+02  0.30241308796E+02  0.62499999441E+02  0.99999920785E+01 0.  0.
    3000022    2    5    5    0    0 -0.19280412984E+02 -0.34869205755E+02  0.27091075407E+02  0.48182825809E+02  0.25000287782E+00 0.  0.
        -13    1    4    4    0    0  0.24360525046E+01  0.38296661874E+01 -0.12493364240E+01  0.47087749376E+01  0.10500000000E+00 0. -1.
         13    1    4    4    0    0  0.72154100387E+01  0.11206873213E+02 -0.37568454009E+01  0.13848503949E+02  0.10500000000E+00 0.  1.
    3000001    1    5    5    0    0 -0.68537022047E+01 -0.12127829834E+02  0.31502333889E+01  0.14317173631E+02  0.10000000000E+01 0. -1.
        -13    1    6    6    0    0 -0.14425684796E+02 -0.26129767959E+02  0.20271223022E+02  0.36080447104E+02  0.10500000000E+00 0.  1.
         13    1    6    6    0    0 -0.48547281873E+01 -0.87394377955E+01  0.68198523854E+01  0.12102378705E+02  0.10500000000E+00 0. -1.
</event>
<event>
11    0  0.3448258E-009  0.9118800E+02  0.7816531E-02  0.1126479E+00
         25   -1    0    0    0    0  0.00000000000E+00  0.00000000000E+00  0.99999998245E-14  0.12500000000E+03  0.12500000000E+03 0.  0.
    3000001    1    3    3    0    0 -0.18030051927E+02  0.45778362028E+02 -0.21004632403E+02  0.53506408820E+02  0.10000000000E+01 0.  1.
    1000022    2    1    0    0    0 -0.17672392476E+02  0.54618630539E+02 -0.22599583262E+02  0.62499995862E+02  0.10000003061E+02 0.  0.
    3000022    2    3    3    0    0  0.35765945073E+00  0.88402685118E+01 -0.15949508594E+01  0.89935870416E+01  0.24994396910E+00 0.  0.
    1000022    2    1    0    0    0  0.17672392476E+02 -0.54618630539E+02  0.22599583262E+02  0.62500004138E+02  0.10000054791E+02 0.  0.
    3000022    2    5    5    0    0  0.65328563390E+00  0.29623790778E+00  0.16047656863E+00  0.77637589520E+00  0.24993555991E+00 0.  0.
        -13    1    4    4    0    0  0.70382603872E-01  0.22876240271E+01 -0.39092071186E+00  0.23242249037E+01  0.10500000000E+00 0. -1.
         13    1    4    4    0    0  0.28727684686E+00  0.65526444847E+01 -0.12040301476E+01  0.66693621379E+01  0.10500000000E+00 0.  1.
    3000001    1    5    5    0    0  0.17019106843E+02 -0.54914868447E+02  0.22439106694E+02  0.61723628243E+02  0.10000000000E+01 0.  1.
        -13    1    6    6    0    0  0.36631618536E+00  0.23577370842E+00  0.94331085788E-01  0.45793028179E+00  0.10500000000E+00 0.  1.
         13    1    6    6    0    0  0.28696944854E+00  0.60464199361E-01  0.66145482846E-01  0.31844561341E+00  0.10500000000E+00 0. -1.
</event>
<event>
11    0  0.3448258E-009  0.9118800E+02  0.7816531E-02  0.1126479E+00
         25   -1    0    0    0    0  0.00000000000E+00  0.00000000000E+00  0.99999998245E-14  0.12500000000E+03  0.12500000000E+03 0.  0.
    3000001    1    3    3    0    0  0.43517783174E+02 -0.30585401351E+02  0.17874136619E+02  0.56122624565E+02  0.10000000000E+01 0. -1.
    1000022    2    1    0    0    0  0.49706239256E+02 -0.31012303882E+02  0.19333307043E+02  0.62499999217E+02  0.99999963972E+01 0.  0.
    3000022    2    3    3    0    0  0.61884560819E+01 -0.42690253067E+00  0.14591704240E+01  0.63773746525E+01  0.24998936675E+00 0.  0.
    1000022    2    1    0    0    0 -0.49706239256E+02  0.31012303882E+02 -0.19333307043E+02  0.62500000783E+02  0.10000006180E+02 0.  0.
    3000022    2    5    5    0    0 -0.48824446852E+02  0.31311382083E+02 -0.19313458994E+02  0.61133472496E+02  0.25000541399E+00 0.  0.
        -13    1    4    4    0    0  0.29081977868E+01 -0.21735919031E+00  0.61898386327E+00  0.29831234315E+01  0.10500000000E+00 0. -1.
         13    1    4    4    0    0  0.32802582951E+01 -0.20954334036E+00  0.84018656076E+00  0.33942512209E+01  0.10500000000E+00 0.  1.
    3000001    1    5    5    0    0 -0.88179240378E+00 -0.29907820126E+00 -0.19848048840E-01  0.13665282869E+01  0.10000000000E+01 0.  1.
        -13    1    6    6    0    0 -0.34138227287E+02  0.21847103920E+02 -0.13469120228E+02  0.42709984040E+02  0.10500000000E+00 0.  1.
         13    1    6    6    0    0 -0.14686219565E+02  0.94642781634E+01 -0.58443387667E+01  0.18423488456E+02  0.10500000000E+00 0. -1.
</event>
<event>
11    0  0.3448258E-009  0.9118800E+02  0.7816531E-02  0.1126479E+00
         25   -1    0    0    0    0  0.00000000000E+00  0.00000000000E+00  0.99999998245E-14  0.12500000000E+03  0.12500000000E+03 0.  0.
    3000001    1    3    3    0    0 -0.23911720118E+02  0.14899855137E+01 -0.15326443033E+02  0.28458571150E+02  0.10000000000E+01 0.  1.
    1000022    2    1    0    0    0 -0.54260473962E+02 -0.61748036275E+01 -0.28704056029E+02  0.62500000004E+02  0.99999966802E+01 0.  0.
    3000022    2    3    3    0    0 -0.30348753843E+02 -0.76647891412E+01 -0.13377612996E+02  0.34041428854E+02  0.24999307273E+00 0.  0.
    1000022    2    1    0    0    0  0.54260473962E+02  0.61748036275E+01  0.28704056029E+02  0.62499999996E+02  0.99999966281E+01 0.  0.
    3000022    2    5    5    0    0  0.58078192840E+01 -0.20225894567E+01  0.15522343965E+01  0.63477211760E+01  0.24999911973E+00 0.  0.
        -13    1    4    4    0    0 -0.22579856181E+02 -0.56835527920E+01 -0.99256739910E+01  0.25311710860E+02  0.10500000000E+00 0.  1.
         13    1    4    4    0    0 -0.77688976626E+01 -0.19812363492E+01 -0.34519390049E+01  0.87297179941E+01  0.10500000000E+00 0. -1.
    3000001    1    5    5    0    0  0.48452654678E+02  0.81973930842E+01  0.27151821633E+02  0.56152278820E+02  0.10000000000E+01 0. -1.
        -13    1    6    6    0    0  0.39849027999E+01 -0.13359976209E+01  0.10712335075E+01  0.43385373337E+01  0.10500000000E+00 0. -1.
         13    1    6    6    0    0  0.18229164841E+01 -0.68659183581E+00  0.48100088903E+00  0.20091838423E+01  0.10500000000E+00 0.  1.
</event>
<event>
11    0  0.3448258E-009  0.9118800E+02  0.7816531E-02  0.1126479E+00
         25   -1    0    0    0    0  0.00000000000E+00  0.00000000000E+00  0.99999998245E-14  0.12500000000E+03  0.12500000000E+03 0.  0.
    3000001    1    3    3    0    0  0.22155295970E+02 -0.30956501538E+01  0.21350464851E+01  0.22494412926E+02  0.10000000000E+01 0. -1.
    1000022    2    1    0    0    0  0.61116023496E+02  0.44781988182E+01  0.71433465506E+01  0.62500000582E+02  0.10000004006E+02 0.  0.
    3000022    2    3    3    0    0  0.38960727526E+02  0.75738489720E+01  0.50083000655E+01  0.40005587655E+02  0.24999300817E+00 0.  0.
    1000022    2    1    0    0    0 -0.61116023496E+02 -0.44781988182E+01 -0.71433465506E+01  0.62499999418E+02  0.99999967346E+01 0.  0.
    3000022    2    5    5    0    0 -0.15484235435E+02 -0.26353925581E+01 -0.59698098069E+01  0.16804997448E+02  0.24993829750E+00 0.  0.
        -13    1    4    4    0    0  0.19029034788E+02  0.36931437727E+01  0.23779599901E+01  0.19529700320E+02  0.10500000000E+00 0. -1.
         13    1    4    4    0    0  0.19931692738E+02  0.38807051993E+01  0.26303400754E+01  0.20475887335E+02  0.10500000000E+00 0.  1.
    3000001    1    5    5    0    0 -0.45631788061E+02 -0.18428062601E+01 -0.11735367437E+01  0.45695001971E+02  0.10000000000E+01 0. -1.
        -13    1    6    6    0    0 -0.11391851533E+02 -0.19539065647E+01 -0.43605679100E+01  0.12353849996E+02  0.10500000000E+00 0.  1.
         13    1    6    6    0    0 -0.40923839014E+01 -0.68148599340E+00 -0.16092418970E+01  0.44511474519E+01  0.10500000000E+00 0. -1.
</event>
<event>
11    0  0.3448258E-009  0.9118800E+02  0.7816531E-02  0.1126479E+00
         25   -1    0    0    0    0  0.00000000000E+00  0.00000000000E+00  0.99999998245E-14  0.12500000000E+03  0.12500000000E+03 0.  0.
    3000001    1    3    3    0    0  0.17472494084E+02  0.17498479659E+02  0.16925831759E+02  0.29982805416E+02  0.10000000000E+01 0.  1.
    1000022    2    1    0    0    0  0.41778660915E+02  0.36862017856E+02  0.26495003772E+02  0.62499999458E+02  0.99999919553E+01 0.  0.
    3000022    2    3    3    0    0  0.24306166831E+02  0.19363538198E+02  0.95691720128E+01  0.32517194042E+02  0.24999562661E+00 0.  0.
    1000022    2    1    0    0    0 -0.41778660915E+02 -0.36862017856E+02 -0.26495003772E+02  0.62500000542E+02  0.99999987275E+01 0.  0.
    3000022    2    5    5    0    0 -0.23457458718E+02 -0.22280191872E+02 -0.20525256411E+02  0.38314592078E+02  0.24999209132E+00 0.  0.
        -13    1    4    4    0    0  0.77029873137E+01  0.61870126615E+01  0.30097674394E+01  0.10328836540E+02  0.10500000000E+00 0.  1.
         13    1    4    4    0    0  0.16603179518E+02  0.13176525536E+02  0.65594045734E+01  0.22188357502E+02  0.10500000000E+00 0. -1.
    3000001    1    5    5    0    0 -0.18321202197E+02 -0.14581825984E+02 -0.59697473609E+01  0.24185408463E+02  0.10000000000E+01 0.  1.
        -13    1    6    6    0    0 -0.15943151528E+02 -0.15193652960E+02 -0.14013330118E+02  0.26103938724E+02  0.10500000000E+00 0.  1.
         13    1    6    6    0    0 -0.75143071903E+01 -0.70865389114E+01 -0.65119262928E+01  0.12210653354E+02  0.10500000000E+00 0. -1.
</event>
<event>
11    0  0.3448258E-009  0.9118800E+02  0.7816531E-02  0.1126479E+00
         25   -1    0    0    0    0  0.00000000000E+00  0.00000000000E+00  0.99999998245E-14  0.12500000000E+03  0.12500000000E+03 0.  0.
    3000001    1    3    3    0    0  0.61907513645E+01  0.29202434915E+01  0.38491566238E+02  0.39108233097E+02  0.10000000000E+01 0.  1.
    1000022    2    1    0    0    0  0.55118773808E+01 -0.16219350315E+01  0.61426696498E+02  0.62500004151E+02  0.10000000536E+02 0.  0.
    3000022    2    3    3    0    0 -0.67887398373E+00 -0.45421785230E+01  0.22935130260E+02  0.23391771054E+02  0.24999477470E+00 0.  0.
    1000022    2    1    0    0    0 -0.55118773808E+01  0.16219350315E+01 -0.61426696498E+02  0.62499995849E+02  0.99999486456E+01 0.  0.
    3000022    2    5    5    0    0  0.25678282216E+00 -0.21071246075E+01 -0.31220315289E+01  0.37835817595E+01  0.24999706820E+00 0.  0.
        -13    1    4    4    0    0 -0.30630269832E+00 -0.20203587395E+01  0.10545516181E+02  0.10742188199E+02  0.10500000000E+00 0. -1.
         13    1    4    4    0    0 -0.37257128541E+00 -0.25218197836E+01  0.12389614079E+02  0.12649582855E+02  0.10500000000E+00 0.  1.
    3000001    1    5    5    0    0 -0.57686602029E+01  0.37290596390E+01 -0.58304664969E+02  0.58716414089E+02  0.10000000000E+01 0.  1.
        -13    1    6    6    0    0  0.20137525478E+00 -0.16207592038E+01 -0.24092406714E+01  0.29125380689E+01  0.10500000000E+00 0. -1.
         13    1    6    6    0    0  0.55407567378E-01 -0.48636540374E+00 -0.71279085744E+00  0.87104369059E+00  0.10500000000E+00 0.  1.
</event>
<event>
11    0  0.3448258E-009  0.9118800E+02  0.7816531E-02  0.1126479E+00
         25   -1    0    0    0    0  0.00000000000E+00  0.00000000000E+00  0.99999998245E-14  0.12500000000E+03  0.12500000000E+03 0.  0.
    3000001    1    3    3    0    0  0.44029557386E+02  0.21721137941E+02  0.25724013256E+02  0.55435860371E+02  0.10000000000E+01 0. -1.
    1000022    2    1    0    0    0  0.47114362812E+02  0.26946691957E+02  0.29331938463E+02  0.62499999649E+02  0.99999975792E+01 0.  0.
    3000022    2    3    3    0    0  0.30848054254E+01  0.52255540164E+01  0.36079252064E+01  0.70641392781E+01  0.25000030789E+00 0.  0.
    1000022    2    1    0    0    0 -0.47114362812E+02 -0.26946691957E+02 -0.29331938463E+02  0.62500000351E+02  0.10000001963E+02 0.  0.
    3000022    2    5    5    0    0 -0.20248958835E+02 -0.13566403769E+02 -0.18409234391E+02  0.30545540458E+02  0.24997167575E+00 0.  0.
        -13    1    4    4    0    0  0.22520718854E+01  0.38720052465E+01  0.26789738963E+01  0.52203619168E+01  0.10500000000E+00 0.  1.
         13    1    4    4    0    0  0.83273353999E+00  0.13535487699E+01  0.92895131017E+00  0.18437773612E+01  0.10500000000E+00 0. -1.
    3000001    1    5    5    0    0 -0.26865403977E+02 -0.13380288188E+02 -0.10922704071E+02  0.31954459893E+02  0.10000000000E+01 0. -1.
        -13    1    6    6    0    0 -0.87296096704E+01 -0.57706942421E+01 -0.78920599073E+01  0.13107350290E+02  0.10500000000E+00 0. -1.
         13    1    6    6    0    0 -0.11519349165E+02 -0.77957095273E+01 -0.10517174484E+02  0.17438190168E+02  0.10500000000E+00 0.  1.
</event>
<event>
11    0  0.3448258E-009  0.9118800E+02  0.7816531E-02  0.1126479E+00
         25   -1    0    0    0    0  0.00000000000E+00  0.00000000000E+00  0.99999998245E-14  0.12500000000E+03  0.12500000000E+03 0.  0.
    3000001    1    3    3    0    0  0.76079367383E+01 -0.18367834426E+01 -0.26585431563E+02  0.27731564078E+02  0.10000000000E+01 0.  1.
    1000022    2    1    0    0    0  0.67888443611E+01 -0.79264518793E+01 -0.60805698112E+02  0.62499999774E+02  0.10000000082E+02 0.  0.
    3000022    2    3    3    0    0 -0.81909237722E+00 -0.60896684367E+01 -0.34220266549E+02  0.34768435696E+02  0.25000804892E+00 0.  0.
    1000022    2    1    0    0    0 -0.67888443611E+01  0.79264518793E+01  0.60805698112E+02  0.62500000226E+02  0.10000002909E+02 0.  0.
    3000022    2    5    5    0    0 -0.20429608235E+01  0.78837532072E+01  0.49947698328E+02  0.50607927528E+02  0.25001381317E+00 0.  0.
        -13    1    4    4    0    0 -0.25731014039E+00 -0.21011535931E+01 -0.12077806898E+02  0.12262361086E+02  0.10500000000E+00 0.  1.
         13    1    4    4    0    0 -0.56178223682E+00 -0.39885148436E+01 -0.22142459651E+02  0.22506074610E+02  0.10500000000E+00 0. -1.
    3000001    1    5    5    0    0 -0.47458835375E+01  0.42698672176E-01  0.10857999785E+02  0.11892072698E+02  0.10000000000E+01 0. -1.
        -13    1    6    6    0    0 -0.62985531226E+00  0.22792762280E+01  0.14384042701E+02  0.14577500721E+02  0.10500000000E+00 0. -1.
         13    1    6    6    0    0 -0.14131055113E+01  0.56044769792E+01  0.35563655627E+02  0.36030426807E+02  0.10500000000E+00 0.  1.
</event>
<event>
11    0  0.3448258E-009  0.9118800E+02  0.7816531E-02  0.1126479E+00
         25   -1    0    0    0    0  0.00000000000E+00  0.00000000000E+00  0.99999998245E-14  0.12500000000E+03  0.12500000000E+03 0.  0.
    3000001    1    3    3    0    0  0.50162899857E+02  0.31604740023E+01 -0.17809169153E+02  0.53333588140E+02  0.10000000000E+01 0. -1.
    1000022    2    1    0    0    0  0.56687591012E+02  0.59403983022E+01 -0.23610977361E+02  0.62499997124E+02  0.10000004095E+02 0.  0.
    3000022    2    3    3    0    0  0.65246911550E+01  0.27799242999E+01 -0.58018082077E+01  0.91664089842E+01  0.25000281388E+00 0.  0.
    1000022    2    1    0    0    0 -0.56687591012E+02 -0.59403983022E+01  0.23610977361E+02  0.62500002876E+02  0.10000040042E+02 0.  0.
    3000022    2    5    5    0    0 -0.26433428835E+02 -0.23296602219E+01  0.16324117190E+02  0.31155942998E+02  0.25001062842E+00 0.  0.
        -13    1    4    4    0    0  0.37624495557E+01  0.15322923654E+01 -0.33148450703E+01  0.52443464218E+01  0.10500000000E+00 0.  1.
         13    1    4    4    0    0  0.27622415993E+01  0.12476319346E+01 -0.24869631373E+01  0.39220625624E+01  0.10500000000E+00 0. -1.
    3000001    1    5    5    0    0 -0.30254162176E+02 -0.36107380803E+01  0.72868601707E+01  0.31344059878E+02  0.10000000000E+01 0. -1.
        -13    1    6    6    0    0 -0.72226979240E+01 -0.61295359515E+00  0.44255979392E+01  0.84935280968E+01  0.10500000000E+00 0. -1.
         13    1    6    6    0    0 -0.19210730911E+02 -0.17167066268E+01  0.11898519251E+02  0.22662414901E+02  0.10500000000E+00 0.  1.
</event>
<event>
11    0  0.3448258E-009  0.9118800E+02  0.7816531E-02  0.1126479E+00
         25   -1    0    0    0    0  0.00000000000E+00  0.00000000000E+00  0.99999998245E-14  0.12500000000E+03  0.12500000000E+03 0.  0.
    3000001    1    3    3    0    0  0.64143344331E+01  0.71551258305E+01  0.23850060550E+01  0.99512695548E+01  0.10000000000E+01 0. -1.
    1000022    2    1    0    0    0  0.25870684001E+02  0.55967966451E+02  0.21319089320E+01  0.62500004150E+02  0.99999961845E+01 0.  0.
    3000022    2    3    3    0    0  0.19456349568E+02  0.48812840620E+02 -0.25309712304E+00  0.52548734595E+02  0.25000286181E+00 0.  0.
    1000022    2    1    0    0    0 -0.25870684001E+02 -0.55967966451E+02 -0.21319089320E+01  0.62499995850E+02  0.99999443156E+01 0.  0.
    3000022    2    5    5    0    0 -0.12647761034E+02 -0.32006424243E+02  0.33234159742E+01  0.34575781151E+02  0.24999290896E+00 0.  0.
        -13    1    4    4    0    0  0.13754820098E+02  0.34553579220E+02 -0.21944959267E+00  0.37191451921E+02  0.10500000000E+00 0. -1.
         13    1    4    4    0    0  0.57015294696E+01  0.14259261400E+02 -0.33647530367E-01  0.15357282674E+02  0.10500000000E+00 0.  1.
    3000001    1    5    5    0    0 -0.13222922967E+02 -0.23961542208E+02 -0.54553249062E+01  0.27924214700E+02  0.10000000000E+01 0.  1.
        -13    1    6    6    0    0 -0.52916001414E+01 -0.13556305240E+02  0.13821306104E+01  0.14618336220E+02  0.10500000000E+00 0. -1.
         13    1    6    6    0    0 -0.73561608923E+01 -0.18450119003E+02  0.19412853639E+01  0.19957444931E+02  0.10500000000E+00 0.  1.
</event>
<event>
11    0  0.3448258E-009  0.9118800E+02  0.7816531E-02  0.1126479E+00
         25   -1    0    0    0    0  0.00000000000E+00  0.00000000000E+00  0.99999998245E-14  0.12500000000E+03  0.12500000000E+03 0.  0.
    3000001    1    3    3    0    0 -0.88497451275E+01 -0.59898220380E+01 -0.17652209162E+01  0.10877130217E+02  0.10000000000E+01 0.  1.
    1000022    2    1    0    0    0 -0.51105386116E+02 -0.21616626976E+02 -0.26966852317E+02  0.62500002797E+02  0.10000008694E+02 0.  0.
    3000022    2    3    3    0    0 -0.42255640988E+02 -0.15626804938E+02 -0.25201631401E+02  0.51622872580E+02  0.25004054942E+00 0.  0.
    1000022    2    1    0    0    0  0.51105386116E+02  0.21616626976E+02  0.26966852317E+02  0.62499997203E+02  0.99999737328E+01 0.  0.
    3000022    2    5    5    0    0  0.19839357768E+02  0.95307751828E+01  0.16016929537E+02  0.27222055780E+02  0.24999366559E+00 0.  0.
        -13    1    4    4    0    0 -0.18985107517E+02 -0.69987422132E+01 -0.11246067829E+02  0.23149552191E+02  0.10500000000E+00 0.  1.
         13    1    4    4    0    0 -0.23270533471E+02 -0.86280627245E+01 -0.13955563571E+02  0.28473320390E+02  0.10500000000E+00 0. -1.
    3000001    1    5    5    0    0  0.31266028348E+02  0.12085851793E+02  0.10949922780E+02  0.35277941423E+02  0.10000000000E+01 0. -1.
        -13    1    6    6    0    0  0.10497343049E+02  0.49790483161E+01  0.84981785144E+01  0.14394971215E+02  0.10500000000E+00 0. -1.
         13    1    6    6    0    0  0.93420147194E+01  0.45517268667E+01  0.75187510228E+01  0.12827084565E+02  0.10500000000E+00 0.  1.
</event>
<event>
11    0  0.3448258E-009  0.9118800E+02  0.7816531E-02  0.1126479E+00
         25   -1    0    0    0    0  0.00000000000E+00  0.00000000000E+00  0.99999998245E-14  0.12500000000E+03  0.12500000000E+03 0.  0.
    3000001    1    3    3    0    0  0.40947929174E+02 -0.16598856722E+02 -0.58689713690E+01  0.44583626738E+02  0.10000000000E+01 0. -1.
    1000022    2    1    0    0    0  0.55125137945E+02 -0.23872018721E+02 -0.14056873304E+02  0.62499998382E+02  0.99999999755E+01 0.  0.
    3000022    2    3    3    0    0  0.14177208770E+02 -0.72731619987E+01 -0.81879019355E+01  0.17916371645E+02  0.25000168266E+00 0.  0.
    1000022    2    1    0    0    0 -0.55125137945E+02  0.23872018721E+02  0.14056873304E+02  0.62500001618E+02  0.10000020194E+02 0.  0.
    3000022    2    5    5    0    0 -0.29211993199E+02  0.17257089328E+02  0.10405679445E+02  0.35489270823E+02  0.25000016048E+00 0.  0.
        -13    1    4    4    0    0  0.76435852901E+01 -0.39964596948E+01 -0.44371942566E+01  0.97002991732E+01  0.10500000000E+00 0.  1.
         13    1    4    4    0    0  0.65336234800E+01 -0.32767023039E+01 -0.37507076790E+01  0.82160724717E+01  0.10500000000E+00 0. -1.
    3000001    1    5    5    0    0 -0.25913144745E+02  0.66149293929E+01  0.36511938590E+01  0.27010730795E+02  0.10000000000E+01 0.  1.
        -13    1    6    6    0    0 -0.21540202793E+02  0.12751252236E+02  0.77014797714E+01  0.26189665627E+02  0.10500000000E+00 0.  1.
         13    1    6    6    0    0 -0.76717904060E+01  0.45058370912E+01  0.27041996741E+01  0.92996051961E+01  0.10500000000E+00 0. -1.
</event>
<event>
11    0  0.3448258E-009  0.9118800E+02  0.7816531E-02  0.1126479E+00
         25   -1    0    0    0    0  0.00000000000E+00  0.00000000000E+00  0.99999998245E-14  0.12500000000E+03  0.12500000000E+03 0.  0.
    3000001    1    3    3    0    0  0.13836718627E+02 -0.42752301660E+02 -0.42022649715E+02  0.61531432364E+02  0.10000000000E+01 0. -1.
    1000022    2    1    0    0    0  0.12976232258E+02 -0.43008288493E+02 -0.42286577183E+02  0.62499999330E+02  0.99999911879E+01 0.  0.
    3000022    2    3    3    0    0 -0.86048636939E+00 -0.25598683223E+00 -0.26392746798E+00  0.96856696680E+00  0.24999642125E+00 0.  0.
    1000022    2    1    0    0    0 -0.12976232258E+02  0.43008288493E+02  0.42286577183E+02  0.62500000670E+02  0.99999995572E+01 0.  0.
    3000022    2    5    5    0    0 -0.12566891569E+02  0.37020095464E+02  0.40177729750E+02  0.56060027607E+02  0.24999118858E+00 0.  0.
        -13    1    4    4    0    0 -0.39882403312E+00 -0.18056331022E+00 -0.16169286823E+00  0.47836523915E+00  0.10500000000E+00 0.  1.
         13    1    4    4    0    0 -0.46166233627E+00 -0.75423522007E-01 -0.10223459975E+00  0.49020172765E+00  0.10500000000E+00 0.  1.
    3000001    1    5    5    0    0 -0.40934068844E+00  0.59881930287E+01  0.21088474338E+01  0.64399730626E+01  0.10000000000E+01 0.  1.
        -13    1    6    6    0    0 -0.56839450808E+01  0.16537607722E+02  0.17978335040E+02  0.25080495542E+02  0.10500000000E+00 0. -1.
         13    1    6    6    0    0 -0.68829464883E+01  0.20482487742E+02  0.22199394709E+02  0.30979532065E+02  0.10500000000E+00 0.  1.
</event>
<event>
11    0  0.3448258E-009  0.9118800E+02  0.7816531E-02  0.1126479E+00
         25   -1    0    0    0    0  0.00000000000E+00  0.00000000000E+00  0.99999998245E-14  0.12500000000E+03  0.12500000000E+03 0.  0.
    3000001    1    3    3    0    0  0.16334971600E+01 -0.28011978451E+02 -0.20617172653E+02  0.34833992851E+02  0.10000000000E+01 0.  1.
    1000022    2    1    0    0    0  0.11568875123E+02 -0.48869399306E+02 -0.35835642537E+02  0.62500002065E+02  0.99999960967E+01 0.  0.
    3000022    2    3    3    0    0  0.99353779626E+01 -0.20857420854E+02 -0.15218469885E+02  0.27666009214E+02  0.25000050243E+00 0.  0.
    1000022    2    1    0    0    0 -0.11568875123E+02  0.48869399306E+02  0.35835642537E+02  0.62499997935E+02  0.99999702855E+01 0.  0.
    3000022    2    5    5    0    0  0.17737004394E+00  0.10906219566E+01 -0.58693736581E+00  0.12759000054E+01  0.25001793497E+00 0.  0.
        -13    1    4    4    0    0  0.41645661337E+01 -0.88593514660E+01 -0.63988947360E+01  0.11695665792E+02  0.10500000000E+00 0.  1.
         13    1    4    4    0    0  0.57708118289E+01 -0.11998069389E+02 -0.88195751489E+01  0.15970343422E+02  0.10500000000E+00 0. -1.
    3000001    1    5    5    0    0 -0.11746245167E+02  0.47778777349E+02  0.36422579903E+02  0.61224097930E+02  0.10000000000E+01 0.  1.
        -13    1    6    6    0    0  0.85900384387E-01  0.49829205514E+00 -0.19447396463E+00  0.55183237597E+00  0.10500000000E+00 0. -1.
         13    1    6    6    0    0  0.91469659555E-01  0.59232990143E+00 -0.39246340118E+00  0.72406762944E+00  0.10500000000E+00 0.  1.
</event>
<event>
11    0  0.3448258E-009  0.9118800E+02  0.7816531E-02  0.1126479E+00
         25   -1    0    0    0    0  0.00000000000E+00  0.00000000000E+00  0.99999998245E-14  0.12500000000E+03  0.12500000000E+03 0.  0.
    3000001    1    3    3    0    0  0.16299042912E+02  0.94424926488E+01  0.24468404444E+02  0.30895344039E+02  0.10000000000E+01 0. -1.
    1000022    2    1    0    0    0  0.34289889659E+02  0.27054170498E+02  0.43572069365E+02  0.62499999946E+02  0.10000004514E+02 0.  0.
    3000022    2    3    3    0    0  0.17990846748E+02  0.17611677849E+02  0.19103664921E+02  0.31604655907E+02  0.24999639588E+00 0.  0.
    1000022    2    1    0    0    0 -0.34289889659E+02 -0.27054170498E+02 -0.43572069365E+02  0.62500000054E+02  0.10000005194E+02 0.  0.
    3000022    2    5    5    0    0 -0.11734856620E+02 -0.11225859102E+02 -0.22729036272E+02  0.27935611074E+02  0.25000754780E+00 0.  0.
        -13    1    4    4    0    0  0.56621921222E+01  0.56120630813E+01  0.60403642268E+01  0.10002634485E+02  0.10500000000E+00 0. -1.
         13    1    4    4    0    0  0.12328654625E+02  0.11999614768E+02  0.13063300694E+02  0.21602021421E+02  0.10500000000E+00 0.  1.
    3000001    1    5    5    0    0 -0.22555033039E+02 -0.15828311396E+02 -0.20843033093E+02  0.34564388980E+02  0.10000000000E+01 0. -1.
        -13    1    6    6    0    0 -0.61264843732E+01 -0.57997021136E+01 -0.11718882384E+02  0.14439999470E+02  0.10500000000E+00 0. -1.
         13    1    6    6    0    0 -0.56083722472E+01 -0.54261569880E+01 -0.11010153888E+02  0.13495611604E+02  0.10500000000E+00 0.  1.
</event>
<event>
11    0  0.3448258E-009  0.9118800E+02  0.7816531E-02  0.1126479E+00
         25   -1    0    0    0    0  0.00000000000E+00  0.00000000000E+00  0.99999998245E-14  0.12500000000E+03  0.12500000000E+03 0.  0.
    3000001    1    3    3    0    0  0.27285914177E+02  0.17338746998E+02  0.11319927525E+02  0.34267973665E+02  0.10000000000E+01 0.  1.
    1000022    2    1    0    0    0  0.46616363832E+02  0.28636283536E+02  0.28515399008E+02  0.62500000775E+02  0.10000000227E+02 0.  0.
    3000022    2    3    3    0    0  0.19330449655E+02  0.11297536538E+02  0.17195471483E+02  0.28232027110E+02  0.24999897913E+00 0.  0.
    1000022    2    1    0    0    0 -0.46616363832E+02 -0.28636283536E+02 -0.28515399008E+02  0.62499999225E+02  0.99999905422E+01 0.  0.
    3000022    2    5    5    0    0 -0.15264387839E+01 -0.36401592968E+01 -0.11244810070E+01  0.41119014928E+01  0.25000256840E+00 0.  0.
        -13    1    4    4    0    0  0.56688737159E+01  0.33042663418E+01  0.49853218817E+01  0.82412841553E+01  0.10500000000E+00 0.  1.
         13    1    4    4    0    0  0.13661575940E+02  0.79932701960E+01  0.12210149601E+02  0.19990742954E+02  0.10500000000E+00 0. -1.
    3000001    1    5    5    0    0 -0.45089925048E+02 -0.24996124239E+02 -0.27390918001E+02  0.58388097732E+02  0.10000000000E+01 0. -1.
        -13    1    6    6    0    0 -0.89245953727E+00 -0.20476250509E+01 -0.69620387266E+00  0.23420028196E+01  0.10500000000E+00 0. -1.
         13    1    6    6    0    0 -0.63397924664E+00 -0.15925342460E+01 -0.42827713432E+00  0.17698986732E+01  0.10500000000E+00 0.  1.
</event>
<event>
11    0  0.3448258E-009  0.9118800E+02  0.7816531E-02  0.1126479E+00
         25   -1    0    0    0    0  0.00000000000E+00  0.00000000000E+00  0.99999998245E-14  0.12500000000E+03  0.12500000000E+03 0.  0.
    3000001    1    3    3    0    0 -0.11194461313E+02  0.18907657585E+02  0.84983399740E+01  0.23580442357E+02  0.10000000000E+01 0. -1.
    1000022    2    1    0    0    0 -0.39710149069E+02  0.43065024495E+02  0.19358662688E+02  0.62499999547E+02  0.99999924261E+01 0.  0.
    3000022    2    3    3    0    0 -0.28515687757E+02  0.24157366910E+02  0.10860322714E+02  0.38919557190E+02  0.24999641508E+00 0.  0.
    1000022    2    1    0    0    0  0.39710149069E+02 -0.43065024495E+02 -0.19358662688E+02  0.62500000453E+02  0.99999980834E+01 0.  0.
    3000022    2    5    5    0    0  0.34925663317E+02 -0.32726044659E+02 -0.17214947227E+02  0.50864652416E+02  0.25000037488E+00 0.  0.
        -13    1    4    4    0    0 -0.21886364488E+02  0.18532134003E+02  0.83431970519E+01  0.29867589511E+02  0.10500000000E+00 0. -1.
         13    1    4    4    0    0 -0.66293232688E+01  0.56252329073E+01  0.25171256616E+01  0.90519676789E+01  0.10500000000E+00 0.  1.
    3000001    1    5    5    0    0  0.47844857522E+01 -0.10338979836E+02 -0.21437154603E+01  0.11635348037E+02  0.10000000000E+01 0.  1.
        -13    1    6    6    0    0  0.26497512981E+02 -0.24808552588E+02 -0.13040177502E+02  0.38569932979E+02  0.10500000000E+00 0. -1.
         13    1    6    6    0    0  0.84281503357E+01 -0.79174920707E+01 -0.41747697252E+01  0.12294719437E+02  0.10500000000E+00 0.  1.
</event>
<event>
11    0  0.3448258E-009  0.9118800E+02  0.7816531E-02  0.1126479E+00
         25   -1    0    0    0    0  0.00000000000E+00  0.00000000000E+00  0.99999998245E-14  0.12500000000E+03  0.12500000000E+03 0.  0.
    3000001    1    3    3    0    0 -0.85727332659E+01  0.52976442662E+00 -0.10301400496E+02  0.13449582081E+02  0.10000000000E+01 0. -1.
    1000022    2    1    0    0    0 -0.49099499829E+02 -0.88384367195E+01 -0.36295609311E+02  0.62499998942E+02  0.99999882706E+01 0.  0.
    3000022    2    3    3    0    0 -0.40526766563E+02 -0.93682011461E+01 -0.25994208815E+02  0.49050416860E+02  0.25000298858E+00 0.  0.
    1000022    2    1    0    0    0  0.49099499829E+02  0.88384367195E+01  0.36295609311E+02  0.62500001058E+02  0.10000001497E+02 0.  0.
    3000022    2    5    5    0    0  0.21497965297E+02  0.67487559190E+01  0.11380765993E+02  0.25244653900E+02  0.24999509888E+00 0.  0.
        -13    1    4    4    0    0 -0.18839705028E+02 -0.43215356805E+01 -0.12009912529E+02  0.22756519509E+02  0.10500000000E+00 0. -1.
         13    1    4    4    0    0 -0.21687061535E+02 -0.50466654656E+01 -0.13984296286E+02  0.26293897352E+02  0.10500000000E+00 0.  1.
    3000001    1    5    5    0    0  0.27601534531E+02  0.20896808005E+01  0.24914843318E+02  0.37255347158E+02  0.10000000000E+01 0.  1.
        -13    1    6    6    0    0  0.10793444288E+02  0.33661827883E+01  0.57827586454E+01  0.12699643645E+02  0.10500000000E+00 0. -1.
         13    1    6    6    0    0  0.10704521010E+02  0.33825731307E+01  0.55980073476E+01  0.12545010255E+02  0.10500000000E+00 0.  1.
</event>
<event>
11    0  0.3448258E-009  0.9118800E+02  0.7816531E-02  0.1126479E+00
         25   -1    0    0    0    0  0.00000000000E+00  0.00000000000E+00  0.99999998245E-14  0.12500000000E+03  0.12500000000E+03 0.  0.
    3000001    1    3    3    0    0 -0.10557084996E+01  0.47031082688E+01 -0.99939468614E+01  0.11140588929E+02  0.10000000000E+01 0. -1.
    1000022    2    1    0    0    0 -0.25794200038E+02  0.21951129912E+02 -0.51566046293E+02  0.62500000579E+02  0.10000004108E+02 0.  0.
    3000022    2    3    3    0    0 -0.24738491538E+02  0.17248021643E+02 -0.41572099431E+02  0.51359411650E+02  0.24999945615E+00 0.  0.
    1000022    2    1    0    0    0  0.25794200038E+02 -0.21951129912E+02  0.51566046293E+02  0.62499999421E+02  0.99999968661E+01 0.  0.
    3000022    2    5    5    0    0  0.24565250858E+02 -0.20699874843E+02  0.42859513153E+02  0.53562456433E+02  0.25000648310E+00 0.  0.
        -13    1    4    4    0    0 -0.18052472610E+02  0.12621674261E+02 -0.30327622909E+02  0.37482985004E+02  0.10500000000E+00 0.  1.
         13    1    4    4    0    0 -0.66860189285E+01  0.46263473816E+01 -0.11244476522E+02  0.13876426646E+02  0.10500000000E+00 0. -1.
    3000001    1    5    5    0    0  0.12289491799E+01 -0.12512550688E+01  0.87065331401E+01  0.89375429875E+01  0.10000000000E+01 0.  1.
        -13    1    6    6    0    0  0.17216517570E+02 -0.14466260930E+02  0.30057545158E+02  0.37538623157E+02  0.10500000000E+00 0.  1.
         13    1    6    6    0    0  0.73487332879E+01 -0.62336139127E+01  0.12801967994E+02  0.16023833277E+02  0.10500000000E+00 0. -1.
</event>
<event>
11    0  0.3448258E-009  0.9118800E+02  0.7816531E-02  0.1126479E+00
         25   -1    0    0    0    0  0.00000000000E+00  0.00000000000E+00  0.99999998245E-14  0.12500000000E+03  0.12500000000E+03 0.  0.
    3000001    1    3    3    0    0  0.32664846151E+01  0.21667222679E+02  0.99796868645E+01  0.24098394350E+02  0.10000000000E+01 0.  1.
    1000022    2    1    0    0    0  0.16185972856E+01  0.50897726045E+02  0.34828890899E+02  0.62499999797E+02  0.99999979805E+01 0.  0.
    3000022    2    3    3    0    0 -0.16478873296E+01  0.29230503366E+02  0.24849204034E+02  0.38401605446E+02  0.25000003505E+00 0.  0.
    1000022    2    1    0    0    0 -0.16185972856E+01 -0.50897726045E+02 -0.34828890899E+02  0.62500000203E+02  0.10000000522E+02 0.  0.
    3000022    2    5    5    0    0 -0.14839336903E+01 -0.41406791906E+02 -0.32541643383E+02  0.52685344513E+02  0.24999447273E+00 0.  0.
        -13    1    4    4    0    0 -0.69321776791E+00  0.13365495708E+02  0.11320810530E+02  0.17529654944E+02  0.10500000000E+00 0. -1.
         13    1    4    4    0    0 -0.95466956164E+00  0.15865007658E+02  0.13528393504E+02  0.20871950502E+02  0.10500000000E+00 0.  1.
    3000001    1    5    5    0    0 -0.13466359526E+00 -0.94909341397E+01 -0.22872475152E+01  0.98146556905E+01  0.10000000000E+01 0. -1.
        -13    1    6    6    0    0 -0.42413891344E+00 -0.13144834567E+02 -0.10306870780E+02  0.16709553551E+02  0.10500000000E+00 0. -1.
         13    1    6    6    0    0 -0.10597947769E+01 -0.28261957339E+02 -0.22234772604E+02  0.35975790962E+02  0.10500000000E+00 0.  1.
</event>
<event>
11    0  0.3448258E-009  0.9118800E+02  0.7816531E-02  0.1126479E+00
         25   -1    0    0    0    0  0.00000000000E+00  0.00000000000E+00  0.99999998245E-14  0.12500000000E+03  0.12500000000E+03 0.  0.
    3000001    1    3    3    0    0  0.46488448370E+02 -0.19692987391E+02 -0.25908152856E+02  0.56755809999E+02  0.10000000000E+01 0. -1.
    1000022    2    1    0    0    0  0.52012831099E+02 -0.18920803418E+02 -0.27256551779E+02  0.62500003051E+02  0.99999682832E+01 0.  0.
    3000022    2    3    3    0    0  0.55243827285E+01  0.77218397344E+00 -0.13483989229E+01  0.57441930521E+01  0.25000308903E+00 0.  0.
    1000022    2    1    0    0    0 -0.52012831099E+02  0.18920803418E+02  0.27256551779E+02  0.62499996949E+02  0.99999301408E+01 0.  0.
    3000022    2    5    5    0    0 -0.10034244499E+02  0.62208033715E+01  0.95703808022E+01  0.15199971813E+02  0.24999428954E+00 0.  0.
        -13    1    4    4    0    0  0.28121212572E+01  0.45038700124E+00 -0.65017923291E+00  0.29231203279E+01  0.10500000000E+00 0. -1.
         13    1    4    4    0    0  0.27122614713E+01  0.32179697220E+00 -0.69821968996E+00  0.28210727242E+01  0.10500000000E+00 0.  1.
    3000001    1    5    5    0    0 -0.41978586599E+02  0.12700000047E+02  0.17686170977E+02  0.47300025136E+02  0.10000000000E+01 0. -1.
        -13    1    6    6    0    0 -0.45359063686E+01  0.28513336450E+01  0.42686644708E+01  0.68510635309E+01  0.10500000000E+00 0.  1.
         13    1    6    6    0    0 -0.54983381308E+01  0.33694697265E+01  0.53017163314E+01  0.83489082817E+01  0.10500000000E+00 0. -1.
</event>
<event>
11    0  0.3448258E-009  0.9118800E+02  0.7816531E-02  0.1126479E+00
         25   -1    0    0    0    0  0.00000000000E+00  0.00000000000E+00  0.99999998245E-14  0.12500000000E+03  0.12500000000E+03 0.  0.
    3000001    1    3    3    0    0 -0.12213556290E+01 -0.33067065366E+00  0.85639721079E+00  0.18260528022E+01  0.10000000000E+01 0. -1.
    1000022    2    1    0    0    0 -0.53510872582E+02  0.29258173141E+02  0.93164335657E+01  0.62500000886E+02  0.99999998192E+01 0.  0.
    3000022    2    3    3    0    0 -0.52289516953E+02  0.29588843795E+02  0.84600363550E+01  0.60673948084E+02  0.25000144594E+00 0.  0.
    1000022    2    1    0    0    0  0.53510872582E+02 -0.29258173141E+02 -0.93164335657E+01  0.62499999114E+02  0.99999887387E+01 0.  0.
    3000022    2    5    5    0    0  0.47289770988E+01 -0.10161396361E+01 -0.31725173004E+01  0.57899163196E+01  0.25000161031E+00 0.  0.
        -13    1    4    4    0    0 -0.16316189816E+02  0.92885095536E+01  0.26508357926E+01  0.18961340017E+02  0.10500000000E+00 0. -1.
         13    1    4    4    0    0 -0.35973327137E+02  0.20300334241E+02  0.58092005623E+01  0.41712608067E+02  0.10500000000E+00 0.  1.
    3000001    1    5    5    0    0  0.48781895483E+02 -0.28242033505E+02 -0.61439162653E+01  0.56710082794E+02  0.10000000000E+01 0. -1.
        -13    1    6    6    0    0  0.32987725617E+01 -0.66774776887E+00 -0.22349599084E+01  0.40415168302E+01  0.10500000000E+00 0.  1.
         13    1    6    6    0    0  0.14302045372E+01 -0.34839186726E+00 -0.93755739201E+00  0.17483994894E+01  0.10500000000E+00 0. -1.
</event>
<event>
11    0  0.3448258E-009  0.9118800E+02  0.7816531E-02  0.1126479E+00
         25   -1    0    0    0    0  0.00000000000E+00  0.00000000000E+00  0.99999998245E-14  0.12500000000E+03  0.12500000000E+03 0.  0.
    3000001    1    3    3    0    0  0.42345981707E+02 -0.93362057316E+01  0.28693115552E+02  0.52006170636E+02  0.10000000000E+01 0.  1.
    1000022    2    1    0    0    0  0.51549890976E+02 -0.13841555750E+02  0.30939804274E+02  0.62499989007E+02  0.99998606087E+01 0.  0.
    3000022    2    3    3    0    0  0.92039092691E+01 -0.45053500187E+01  0.22466887224E+01  0.10493818371E+02  0.24997833732E+00 0.  0.
    1000022    2    1    0    0    0 -0.51549890976E+02  0.13841555750E+02 -0.30939804274E+02  0.62500010993E+02  0.99999980207E+01 0.  0.
    3000022    2    5    5    0    0 -0.23568502659E+02  0.11271183322E+02 -0.16387569446E+02  0.30840376677E+02  0.25002028958E+00 0.  0.
        -13    1    4    4    0    0  0.70054912427E+01 -0.34234896178E+01  0.16908407014E+01  0.79791701318E+01  0.10500000000E+00 0.  1.
         13    1    4    4    0    0  0.21984180264E+01 -0.10818604009E+01  0.55584802100E+00  0.25146482394E+01  0.10500000000E+00 0. -1.
    3000001    1    5    5    0    0 -0.27981388317E+02  0.25703724281E+01 -0.14552234828E+02  0.31659634316E+02  0.10000000000E+01 0. -1.
        -13    1    6    6    0    0 -0.79755599721E+01  0.38727911812E+01 -0.55452984292E+01  0.10457983939E+02  0.10500000000E+00 0.  1.
         13    1    6    6    0    0 -0.15592942687E+02  0.73983921410E+01 -0.10842271017E+02  0.20382392738E+02  0.10500000000E+00 0. -1.
</event>
<event>
11    0  0.3448258E-009  0.9118800E+02  0.7816531E-02  0.1126479E+00
         25   -1    0    0    0    0  0.00000000000E+00  0.00000000000E+00  0.99999998245E-14  0.12500000000E+03  0.12500000000E+03 0.  0.
    3000001    1    3    3    0    0 -0.27334167516E+00 -0.23176274831E+02 -0.14730022922E+02  0.27480684234E+02  0.10000000000E+01 0. -1.
    1000022    2    1    0    0    0  0.78838548435E+01 -0.55065368748E+02 -0.26681437540E+02  0.62500007160E+02  0.10000089161E+02 0.  0.
    3000022    2    3    3    0    0  0.81571965186E+01 -0.31889093918E+02 -0.11951414618E+02  0.35019322926E+02  0.25000176274E+00 0.  0.
    1000022    2    1    0    0    0 -0.78838548435E+01  0.55065368748E+02  0.26681437540E+02  0.62499992840E+02  0.99999996576E+01 0.  0.
    3000022    2    5    5    0    0  0.10369840626E+01  0.15206201557E+02  0.10719177361E+02  0.18635105674E+02  0.24999692623E+00 0.  0.
        -13    1    4    4    0    0  0.52220004122E+01 -0.20457865843E+02 -0.76056133820E+01  0.22442146579E+02  0.10500000000E+00 0.  1.
         13    1    4    4    0    0  0.29351961064E+01 -0.11431228075E+02 -0.43458012360E+01  0.12577176347E+02  0.10500000000E+00 0. -1.
    3000001    1    5    5    0    0 -0.89208389061E+01  0.39859167192E+02  0.15962260179E+02  0.43864887166E+02  0.10000000000E+01 0. -1.
        -13    1    6    6    0    0  0.24952955650E+00  0.35181264945E+01  0.24813050824E+01  0.43136271214E+01  0.10500000000E+00 0.  1.
         13    1    6    6    0    0  0.78745450611E+00  0.11688075062E+02  0.82378722787E+01  0.14321478553E+02  0.10500000000E+00 0. -1.
</event>
<event>
11    0  0.3448258E-009  0.9118800E+02  0.7816531E-02  0.1126479E+00
         25   -1    0    0    0    0  0.00000000000E+00  0.00000000000E+00  0.99999998245E-14  0.12500000000E+03  0.12500000000E+03 0.  0.
    3000001    1    3    3    0    0 -0.21495791306E+02 -0.18576068301E+02  0.68066718208E+01  0.29231321193E+02  0.10000000000E+01 0. -1.
    1000022    2    1    0    0    0 -0.51707005374E+02 -0.30989502606E+02  0.13125806228E+02  0.62499996591E+02  0.99999554101E+01 0.  0.
    3000022    2    3    3    0    0 -0.30211214069E+02 -0.12413434304E+02  0.63191344074E+01  0.33268675398E+02  0.24999272748E+00 0.  0.
    1000022    2    1    0    0    0  0.51707005374E+02  0.30989502606E+02 -0.13125806228E+02  0.62500003409E+02  0.99999980225E+01 0.  0.
    3000022    2    5    5    0    0  0.47614489612E+02  0.25092409747E+02 -0.12261971026E+02  0.55201332249E+02  0.25000137963E+00 0.  0.
        -13    1    4    4    0    0 -0.17199836362E+02 -0.70187799656E+01  0.35452062717E+01  0.18912354576E+02  0.10500000000E+00 0. -1.
         13    1    4    4    0    0 -0.13011377707E+02 -0.53946543384E+01  0.27739281358E+01  0.14356320823E+02  0.10500000000E+00 0.  1.
    3000001    1    5    5    0    0  0.40925157624E+01  0.58970928580E+01 -0.86383520193E+00  0.72986711597E+01  0.10000000000E+01 0. -1.
        -13    1    6    6    0    0  0.31823132465E+02  0.16712738710E+02 -0.81736311218E+01  0.36862537430E+02  0.10500000000E+00 0. -1.
         13    1    6    6    0    0  0.15791357147E+02  0.83796710379E+01 -0.40883399046E+01  0.18338794819E+02  0.10500000000E+00 0.  1.
</event>
<event>
11    0  0.3448258E-009  0.9118800E+02  0.7816531E-02  0.1126479E+00
         25   -1    0    0    0    0  0.00000000000E+00  0.00000000000E+00  0.99999998245E-14  0.12500000000E+03  0.12500000000E+03 0.  0.
    3000001    1    3    3    0    0  0.16778846531E+02 -0.14291940424E+02  0.65144294324E+01  0.23004935184E+02  0.10000000000E+01 0. -1.
    1000022    2    1    0    0    0  0.35511556564E+02 -0.44858075377E+02  0.23085321926E+02  0.62499997915E+02  0.10000003740E+02 0.  0.
    3000022    2    3    3    0    0  0.18732710034E+02 -0.30566134953E+02  0.16570892494E+02  0.39495062731E+02  0.24994185738E+00 0.  0.
    1000022    2    1    0    0    0 -0.35511556564E+02  0.44858075377E+02 -0.23085321926E+02  0.62500002085E+02  0.10000029800E+02 0.  0.
    3000022    2    5    5    0    0 -0.21749829086E+02  0.20252113933E+02 -0.95990040259E+01  0.31231499526E+02  0.25000061959E+00 0.  0.
        -13    1    4    4    0    0  0.89734841631E+01 -0.14691559755E+02  0.80262360637E+01  0.18994652837E+02  0.10500000000E+00 0. -1.
         13    1    4    4    0    0  0.97592258704E+01 -0.15874575198E+02  0.85446564301E+01  0.20500409894E+02  0.10500000000E+00 0.  1.
    3000001    1    5    5    0    0 -0.13761727478E+02  0.24605961444E+02 -0.13486317900E+02  0.31268502559E+02  0.10000000000E+01 0. -1.
        -13    1    6    6    0    0 -0.70147205569E+01  0.65312095819E+01 -0.30419691464E+01  0.10056222172E+02  0.10500000000E+00 0.  1.
         13    1    6    6    0    0 -0.14735108530E+02  0.13720904351E+02 -0.65570348795E+01  0.21175277353E+02  0.10500000000E+00 0. -1.
</event>
<event>
11    0  0.3448258E-009  0.9118800E+02  0.7816531E-02  0.1126479E+00
         25   -1    0    0    0    0  0.00000000000E+00  0.00000000000E+00  0.99999998245E-14  0.12500000000E+03  0.12500000000E+03 0.  0.
    3000001    1    3    3    0    0 -0.21733707928E+02 -0.43062331687E+02  0.10321063080E-01  0.48246435901E+02  0.10000000000E+01 0. -1.
    1000022    2    1    0    0    0 -0.27475413427E+02 -0.54983927643E+02  0.53027646664E+01  0.62500000152E+02  0.10000003195E+02 0.  0.
    3000022    2    3    3    0    0 -0.57417054990E+01 -0.11921595956E+02  0.52924436033E+01  0.14253564251E+02  0.25000479835E+00 0.  0.
    1000022    2    1    0    0    0  0.27475413427E+02  0.54983927643E+02 -0.53027646664E+01  0.62499999848E+02  0.10000001290E+02 0.  0.
    3000022    2    5    5    0    0  0.16082806414E+02  0.41143668035E+02 -0.56961547678E+01  0.44541741681E+02  0.24998279263E+00 0.  0.
        -13    1    4    4    0    0 -0.21734778649E+01 -0.45263820427E+01  0.20736657647E+01  0.54335306321E+01  0.10500000000E+00 0.  1.
         13    1    4    4    0    0 -0.35682276341E+01 -0.73952139132E+01  0.32187778386E+01  0.88200336193E+01  0.10500000000E+00 0. -1.
    3000001    1    5    5    0    0  0.11392607014E+02  0.13840259608E+02  0.39339010139E+00  0.17958258166E+02  0.10000000000E+01 0.  1.
        -13    1    6    6    0    0  0.49802295556E+01  0.12691271605E+02 -0.17130521176E+01  0.13741056507E+02  0.10500000000E+00 0. -1.
         13    1    6    6    0    0  0.11102576858E+02  0.28452396430E+02 -0.39831026502E+01  0.30800685175E+02  0.10500000000E+00 0.  1.
</event>
<event>
11    0  0.3448258E-009  0.9118800E+02  0.7816531E-02  0.1126479E+00
         25   -1    0    0    0    0  0.00000000000E+00  0.00000000000E+00  0.99999998245E-14  0.12500000000E+03  0.12500000000E+03 0.  0.
    3000001    1    3    3    0    0  0.86756974350E+01  0.17213554907E+02 -0.19996975704E+02  0.27793042939E+02  0.10000000000E+01 0. -1.
    1000022    2    1    0    0    0  0.14534920434E+02  0.46053885144E+02 -0.38393042037E+02  0.62500000397E+02  0.10000006196E+02 0.  0.
    3000022    2    3    3    0    0  0.58592229986E+01  0.28840330237E+02 -0.18396066333E+02  0.34706957458E+02  0.24999425068E+00 0.  0.
    1000022    2    1    0    0    0 -0.14534920434E+02 -0.46053885144E+02  0.38393042037E+02  0.62499999603E+02  0.10000001229E+02 0.  0.
    3000022    2    5    5    0    0 -0.85411186835E+01 -0.29157803246E+02  0.17945772315E+02  0.35287978692E+02  0.24999544749E+00 0.  0.
        -13    1    4    4    0    0  0.22875896279E+01  0.11577122150E+02 -0.73760541645E+01  0.13916897054E+02  0.10500000000E+00 0. -1.
         13    1    4    4    0    0  0.35716333707E+01  0.17263208087E+02 -0.11020012169E+02  0.20790060404E+02  0.10500000000E+00 0.  1.
    3000001    1    5    5    0    0 -0.59938017502E+01 -0.16896081898E+02  0.20447269722E+02  0.27212020910E+02  0.10000000000E+01 0.  1.
        -13    1    6    6    0    0 -0.25407129916E+01 -0.86030452822E+01  0.53448624390E+01  0.10442518380E+02  0.10500000000E+00 0.  1.
         13    1    6    6    0    0 -0.60004056919E+01 -0.20554757963E+02  0.12600909876E+02  0.24845460312E+02  0.10500000000E+00 0. -1.
</event>
<event>
11    0  0.3448258E-009  0.9118800E+02  0.7816531E-02  0.1126479E+00
         25   -1    0    0    0    0  0.00000000000E+00  0.00000000000E+00  0.99999998245E-14  0.12500000000E+03  0.12500000000E+03 0.  0.
    3000001    1    3    3    0    0  0.52250245070E+01  0.90471341159E+00  0.93065257410E+00  0.54759019047E+01  0.10000000000E+01 0. -1.
    1000022    2    1    0    0    0  0.49426143486E+02  0.36922760347E+02  0.12656454513E+00  0.62499999293E+02  0.10000000075E+02 0.  0.
    3000022    2    3    3    0    0  0.44201118979E+02  0.36018046936E+02 -0.80408802897E+00  0.57024097389E+02  0.25000270314E+00 0.  0.
    1000022    2    1    0    0    0 -0.49426143486E+02 -0.36922760347E+02 -0.12656454513E+00  0.62500000707E+02  0.10000008908E+02 0.  0.
    3000022    2    5    5    0    0 -0.16751073115E+02 -0.96818263778E+01 -0.40437889387E+01  0.19767421166E+02  0.24999608189E+00 0.  0.
        -13    1    4    4    0    0  0.11582812119E+02  0.94195082371E+01 -0.23952199974E+00  0.14931746977E+02  0.10500000000E+00 0. -1.
         13    1    4    4    0    0  0.32618306861E+02  0.26598538698E+02 -0.56456602923E+00  0.42092350411E+02  0.10500000000E+00 0.  1.
    3000001    1    5    5    0    0 -0.32675070371E+02 -0.27240933969E+02  0.39172243935E+01  0.42732579541E+02  0.10000000000E+01 0.  1.
        -13    1    6    6    0    0 -0.86670416377E+01 -0.50803787502E+01 -0.20707850825E+01  0.10258022950E+02  0.10500000000E+00 0. -1.
         13    1    6    6    0    0 -0.80840314773E+01 -0.46014476276E+01 -0.19730038562E+01  0.95093982150E+01  0.10500000000E+00 0.  1.
</event>
<event>
11    0  0.3448258E-009  0.9118800E+02  0.7816531E-02  0.1126479E+00
         25   -1    0    0    0    0  0.00000000000E+00  0.00000000000E+00  0.99999998245E-14  0.12500000000E+03  0.12500000000E+03 0.  0.
    3000001    1    3    3    0    0 -0.32915954276E+02 -0.28231236150E+02  0.25025610412E+02  0.50077379293E+02  0.10000000000E+01 0.  1.
    1000022    2    1    0    0    0 -0.44063506554E+02 -0.31969802307E+02  0.29027386282E+02  0.62500000196E+02  0.10000000034E+02 0.  0.
    3000022    2    3    3    0    0 -0.11147552279E+02 -0.37385661570E+01  0.40017758706E+01  0.12422620902E+02  0.25000249141E+00 0.  0.
    1000022    2    1    0    0    0  0.44063506554E+02  0.31969802307E+02 -0.29027386282E+02  0.62499999804E+02  0.99999975886E+01 0.  0.
    3000022    2    5    5    0    0  0.16625455801E+02  0.79207520245E+01 -0.13498446903E+02  0.22834505898E+02  0.24999513888E+00 0.  0.
        -13    1    4    4    0    0 -0.72050824690E+01 -0.23589583615E+01  0.25609143023E+01  0.80029497687E+01  0.10500000000E+00 0. -1.
         13    1    4    4    0    0 -0.39424698099E+01 -0.13796077955E+01  0.14408615683E+01  0.44196711337E+01  0.10500000000E+00 0.  1.
    3000001    1    5    5    0    0  0.27438050753E+02  0.24049050282E+02 -0.15528939379E+02  0.39665493906E+02  0.10000000000E+01 0. -1.
        -13    1    6    6    0    0  0.83963031517E+01  0.40286874733E+01 -0.67482684122E+01  0.11501233888E+02  0.10500000000E+00 0. -1.
         13    1    6    6    0    0  0.82291526494E+01  0.38920645512E+01 -0.67501784911E+01  0.11333272010E+02  0.10500000000E+00 0.  1.
</event>
<event>
11    0  0.3448258E-009  0.9118800E+02  0.7816531E-02  0.1126479E+00
         25   -1    0    0    0    0  0.00000000000E+00  0.00000000000E+00  0.99999998245E-14  0.12500000000E+03  0.12500000000E+03 0.  0.
    3000001    1    3    3    0    0 -0.43965127628E+02  0.23684895713E+01 -0.61624375699E+01  0.44469290831E+02  0.10000000000E+01 0. -1.
    1000022    2    1    0    0    0 -0.60884168889E+02 -0.28578941709E+01 -0.95498965249E+01  0.62499998641E+02  0.99999863084E+01 0.  0.
    3000022    2    3    3    0    0 -0.16919041260E+02 -0.52263837422E+01 -0.33874589549E+01  0.18030707810E+02  0.25000354446E+00 0.  0.
    1000022    2    1    0    0    0  0.60884168889E+02  0.28578941709E+01  0.95498965249E+01  0.62500001359E+02  0.10000003292E+02 0.  0.
    3000022    2    5    5    0    0  0.47599343611E+02  0.59831627656E+01  0.89537370590E+01  0.48802947203E+02  0.24999888741E+00 0.  0.
        -13    1    4    4    0    0 -0.65164583619E+01 -0.20452698632E+01 -0.12524218508E+01  0.69445621812E+01  0.10500000000E+00 0.  1.
         13    1    4    4    0    0 -0.10402582899E+02 -0.31811138789E+01 -0.21350371041E+01  0.11086145629E+02  0.10500000000E+00 0. -1.
    3000001    1    5    5    0    0  0.13284825278E+02 -0.31252685948E+01  0.59615946587E+00  0.13697054156E+02  0.10000000000E+01 0.  1.
        -13    1    6    6    0    0  0.28444691685E+02  0.35116639463E+01  0.53501108639E+01  0.29155908149E+02  0.10500000000E+00 0. -1.
         13    1    6    6    0    0  0.19154651926E+02  0.24714988193E+01  0.36036261951E+01  0.19647039054E+02  0.10500000000E+00 0.  1.
</event>
<event>
11    0  0.3448258E-009  0.9118800E+02  0.7816531E-02  0.1126479E+00
         25   -1    0    0    0    0  0.00000000000E+00  0.00000000000E+00  0.99999998245E-14  0.12500000000E+03  0.12500000000E+03 0.  0.
    3000001    1    3    3    0    0  0.24389071217E+02  0.58893563203E+01 -0.41127946122E+02  0.48187335110E+02  0.10000000000E+01 0. -1.
    1000022    2    1    0    0    0  0.34799763916E+02  0.40844844462E+01 -0.50779360337E+02  0.62500000051E+02  0.99999994150E+01 0.  0.
    3000022    2    3    3    0    0  0.10410692698E+02 -0.18048718740E+01 -0.96514142148E+01  0.14312664941E+02  0.24999286156E+00 0.  0.
    1000022    2    1    0    0    0 -0.34799763916E+02 -0.40844844462E+01  0.50779360337E+02  0.62499999949E+02  0.99999987809E+01 0.  0.
    3000022    2    5    5    0    0 -0.21333034251E+02 -0.24746188516E+01  0.22413953227E+02  0.31043032587E+02  0.24996827493E+00 0.  0.
        -13    1    4    4    0    0  0.29577674696E+01 -0.55203053553E+00 -0.27689259753E+01  0.40903669974E+01  0.10500000000E+00 0. -1.
         13    1    4    4    0    0  0.74529252288E+01 -0.12528413385E+01 -0.68824882395E+01  0.10222297944E+02  0.10500000000E+00 0.  1.
    3000001    1    5    5    0    0 -0.13466729665E+02 -0.16098655947E+01  0.28365407110E+02  0.31456967362E+02  0.10000000000E+01 0.  1.
        -13    1    6    6    0    0 -0.12725242211E+02 -0.14162869295E+01  0.13330677742E+02  0.18483929562E+02  0.10500000000E+00 0.  1.
         13    1    6    6    0    0 -0.86077920401E+01 -0.10583319220E+01  0.90832754852E+01  0.12559103025E+02  0.10500000000E+00 0. -1.
</event>
<event>
11    0  0.3448258E-009  0.9118800E+02  0.7816531E-02  0.1126479E+00
         25   -1    0    0    0    0  0.00000000000E+00  0.00000000000E+00  0.99999998245E-14  0.12500000000E+03  0.12500000000E+03 0.  0.
    3000001    1    3    3    0    0  0.32932291067E+02  0.76327606016E+01  0.65112229309E+01  0.34441121546E+02  0.10000000000E+01 0.  1.
    1000022    2    1    0    0    0  0.60169390930E+02  0.49665988261E+01  0.12697514927E+02  0.62500001357E+02  0.10000028775E+02 0.  0.
    3000022    2    3    3    0    0  0.27237099863E+02 -0.26661617755E+01  0.61862919963E+01  0.28058879811E+02  0.24999998796E+00 0.  0.
    1000022    2    1    0    0    0 -0.60169390930E+02 -0.49665988261E+01 -0.12697514927E+02  0.62499998643E+02  0.10000011812E+02 0.  0.
    3000022    2    5    5    0    0 -0.17987139218E+02 -0.79334753930E-01  0.57565608772E+00  0.17998259594E+02  0.24999443948E+00 0.  0.
        -13    1    4    4    0    0  0.13525429258E+02 -0.13909474569E+01  0.30606930185E+01  0.13937389934E+02  0.10500000000E+00 0. -1.
         13    1    4    4    0    0  0.13711670606E+02 -0.12752143186E+01  0.31255989778E+01  0.14121489876E+02  0.10500000000E+00 0.  1.
    3000001    1    5    5    0    0 -0.42182251712E+02 -0.48872640722E+01 -0.13273171015E+02  0.44501739049E+02  0.10000000000E+01 0.  1.
        -13    1    6    6    0    0 -0.76036592940E+01  0.29147082064E-01  0.26058328855E+00  0.76089035256E+01  0.10500000000E+00 0.  1.
         13    1    6    6    0    0 -0.10383479924E+02 -0.10848183599E+00  0.31507279917E+00  0.10389356068E+02  0.10500000000E+00 0. -1.
</event>
<event>
11    0  0.3448258E-009  0.9118800E+02  0.7816531E-02  0.1126479E+00
         25   -1    0    0    0    0  0.00000000000E+00  0.00000000000E+00  0.99999998245E-14  0.12500000000E+03  0.12500000000E+03 0.  0.
    3000001    1    3    3    0    0  0.46869579496E+01  0.36654922746E+01 -0.56690329729E+01  0.82789699410E+01  0.10000000000E+01 0.  1.
    1000022    2    1    0    0    0  0.21360223739E+02  0.46237046647E+02 -0.34815607173E+02  0.62500002061E+02  0.10000005699E+02 0.  0.
    3000022    2    3    3    0    0  0.16673265790E+02  0.42571554373E+02 -0.29146574200E+02  0.54221032120E+02  0.25000556676E+00 0.  0.
    1000022    2    1    0    0    0 -0.21360223739E+02 -0.46237046647E+02  0.34815607173E+02  0.62499997939E+02  0.99999799305E+01 0.  0.
    3000022    2    5    5    0    0 -0.13676979426E+02 -0.36406486385E+02  0.22454883447E+02  0.44908532699E+02  0.25000281770E+00 0.  0.
        -13    1    4    4    0    0  0.10124786611E+02  0.25710928803E+02 -0.17573005555E+02  0.32747285583E+02  0.10500000000E+00 0. -1.
         13    1    4    4    0    0  0.65484791781E+01  0.16860625570E+02 -0.11573568646E+02  0.21473746537E+02  0.10500000000E+00 0.  1.
    3000001    1    5    5    0    0 -0.76832443134E+01 -0.98305602623E+01  0.12360723726E+02  0.17591465240E+02  0.10000000000E+01 0. -1.
        -13    1    6    6    0    0 -0.74298315464E+01 -0.19863746548E+02  0.12176193342E+02  0.24454887712E+02  0.10500000000E+00 0. -1.
         13    1    6    6    0    0 -0.62471478793E+01 -0.16542739838E+02  0.10278690105E+02  0.20453644987E+02  0.10500000000E+00 0.  1.
</event>
<event>
11    0  0.3448258E-009  0.9118800E+02  0.7816531E-02  0.1126479E+00
         25   -1    0    0    0    0  0.00000000000E+00  0.00000000000E+00  0.99999998245E-14  0.12500000000E+03  0.12500000000E+03 0.  0.
    3000001    1    3    3    0    0 -0.28977138184E+01  0.52805066839E+02 -0.20744920058E+02  0.56816578016E+02  0.10000000000E+01 0. -1.
    1000022    2    1    0    0    0 -0.21962187906E+01  0.56279268700E+02 -0.25180753621E+02  0.62500001146E+02  0.10000016398E+02 0.  0.
    3000022    2    3    3    0    0  0.70149502783E+00  0.34742018608E+01 -0.44358335623E+01  0.56834231297E+01  0.25001046896E+00 0.  0.
    1000022    2    1    0    0    0  0.21962187906E+01 -0.56279268700E+02  0.25180753621E+02  0.62499998854E+02  0.10000002072E+02 0.  0.
    3000022    2    5    5    0    0 -0.33944315534E+01 -0.33406592019E+02  0.13428447170E+02  0.36165014200E+02  0.25000554953E+00 0.  0.
        -13    1    4    4    0    0  0.34508376868E+00  0.20024497073E+01 -0.25883431143E+01  0.32923293752E+01  0.10500000000E+00 0. -1.
         13    1    4    4    0    0  0.35641125915E+00  0.14717521535E+01 -0.18474904481E+01  0.23910937545E+01  0.10500000000E+00 0.  1.
    3000001    1    5    5    0    0  0.55906503440E+01 -0.22872676681E+02  0.11752306451E+02  0.26334984654E+02  0.10000000000E+01 0. -1.
        -13    1    6    6    0    0 -0.24490940926E+01 -0.23677742412E+02  0.95247557090E+01  0.25639140858E+02  0.10500000000E+00 0. -1.
         13    1    6    6    0    0 -0.94533746076E+00 -0.97288496072E+01  0.39036914607E+01  0.10525873342E+02  0.10500000000E+00 0.  1.
</event>
<event>
11    0  0.3448258E-009  0.9118800E+02  0.7816531E-02  0.1126479E+00
         25   -1    0    0    0    0  0.00000000000E+00  0.00000000000E+00  0.99999998245E-14  0.12500000000E+03  0.12500000000E+03 0.  0.
    3000001    1    3    3    0    0  0.54070242983E+00  0.35455932744E+02 -0.35921671943E+02  0.50485463661E+02  0.10000000000E+01 0.  1.
    1000022    2    1    0    0    0  0.52676205703E+01  0.42383888545E+02 -0.44520874282E+02  0.62500001117E+02  0.10000002907E+02 0.  0.
    3000022    2    3    3    0    0  0.47269181405E+01  0.69279558002E+01 -0.85992023388E+01  0.12014537456E+02  0.25000546986E+00 0.  0.
    1000022    2    1    0    0    0 -0.52676205703E+01 -0.42383888545E+02  0.44520874282E+02  0.62499998883E+02  0.99999889485E+01 0.  0.
    3000022    2    5    5    0    0 -0.31334273131E+01 -0.29316968865E+01  0.52385999978E+01  0.67763299408E+01  0.25000833999E+00 0.  0.
        -13    1    4    4    0    0  0.29897380928E+01  0.44653966485E+01 -0.55571127638E+01  0.77311595741E+01  0.10500000000E+00 0. -1.
         13    1    4    4    0    0  0.17371800477E+01  0.24625591518E+01 -0.30420895751E+01  0.42833778816E+01  0.10500000000E+00 0.  1.
    3000001    1    5    5    0    0 -0.21341932572E+01 -0.39452191658E+02  0.39282274284E+02  0.55723668942E+02  0.10000000000E+01 0.  1.
        -13    1    6    6    0    0 -0.15500547203E+01 -0.14262876009E+01  0.26748643561E+01  0.34063015544E+01  0.10500000000E+00 0. -1.
         13    1    6    6    0    0 -0.15833725928E+01 -0.15054092856E+01  0.25637356417E+01  0.33700283864E+01  0.10500000000E+00 0.  1.
</event>
<event>
11    0  0.3448258E-009  0.9118800E+02  0.7816531E-02  0.1126479E+00
         25   -1    0    0    0    0  0.00000000000E+00  0.00000000000E+00  0.99999998245E-14  0.12500000000E+03  0.12500000000E+03 0.  0.
    3000001    1    3    3    0    0  0.37413706218E+02  0.81975073519E+00 -0.40080462867E+02  0.54844333416E+02  0.10000000000E+01 0.  1.
    1000022    2    1    0    0    0  0.39585799087E+02  0.23125378098E+01 -0.47263799215E+02  0.62499999105E+02  0.99999925689E+01 0.  0.
    3000022    2    3    3    0    0  0.21720928688E+01  0.14927870746E+01 -0.71833363488E+01  0.76556656890E+01  0.24999072115E+00 0.  0.
    1000022    2    1    0    0    0 -0.39585799087E+02 -0.23125378098E+01  0.47263799215E+02  0.62500000895E+02  0.10000003756E+02 0.  0.
    3000022    2    5    5    0    0 -0.74156529189E+01 -0.28306231189E+01  0.50413857409E+01  0.94065086716E+01  0.24999949164E+00 0.  0.
        -13    1    4    4    0    0  0.13604844850E+01  0.88752680352E+00 -0.45551642474E+01  0.48372686695E+01  0.10500000000E+00 0.  1.
         13    1    4    4    0    0  0.81160838377E+00  0.60526027110E+00 -0.26281721015E+01  0.28183970195E+01  0.10500000000E+00 0. -1.
    3000001    1    5    5    0    0 -0.32170146168E+02  0.51808530907E+00  0.42222413474E+02  0.53093492223E+02  0.10000000000E+01 0.  1.
        -13    1    6    6    0    0 -0.50658280960E+01 -0.19727014894E+01  0.34917471566E+01  0.64620034564E+01  0.10500000000E+00 0.  1.
         13    1    6    6    0    0 -0.23498248229E+01 -0.85792162949E+00  0.15496385844E+01  0.29445052153E+01  0.10500000000E+00 0. -1.
</event>
<event>
11    0  0.3448258E-009  0.9118800E+02  0.7816531E-02  0.1126479E+00
         25   -1    0    0    0    0  0.00000000000E+00  0.00000000000E+00  0.99999998245E-14  0.12500000000E+03  0.12500000000E+03 0.  0.
    3000001    1    3    3    0    0 -0.10702904167E+02  0.92672805419E+01  0.10599465319E+02  0.17713929866E+02  0.10000000000E+01 0.  1.
    1000022    2    1    0    0    0 -0.40065192520E+02  0.40326727399E+02  0.23974682378E+02  0.62500000796E+02  0.10000005501E+02 0.  0.
    3000022    2    3    3    0    0 -0.29362288353E+02  0.31059446857E+02  0.13375217059E+02  0.44786070930E+02  0.25000318293E+00 0.  0.
    1000022    2    1    0    0    0  0.40065192520E+02 -0.40326727399E+02 -0.23974682378E+02  0.62499999204E+02  0.99999955546E+01 0.  0.
    3000022    2    5    5    0    0  0.56561860373E+01 -0.79848192025E+01 -0.79897838905E+01  0.12635224738E+02  0.24995877635E+00 0.  0.
        -13    1    4    4    0    0 -0.22302423014E+02  0.23569412590E+02  0.10167850834E+02  0.34004580540E+02  0.10500000000E+00 0.  1.
         13    1    4    4    0    0 -0.70598653390E+01  0.74900342673E+01  0.32073662245E+01  0.10781490390E+02  0.10500000000E+00 0. -1.
    3000001    1    5    5    0    0  0.34409006482E+02 -0.32341908196E+02 -0.15984898487E+02  0.49864774466E+02  0.10000000000E+01 0.  1.
        -13    1    6    6    0    0  0.37503771094E+01 -0.52553678675E+01 -0.52064195527E+01  0.82947000816E+01  0.10500000000E+00 0.  1.
         13    1    6    6    0    0  0.19058089279E+01 -0.27294513350E+01 -0.27833643377E+01  0.43405246568E+01  0.10500000000E+00 0. -1.
</event>
<event>
11    0  0.3448258E-009  0.9118800E+02  0.7816531E-02  0.1126479E+00
         25   -1    0    0    0    0  0.00000000000E+00  0.00000000000E+00  0.99999998245E-14  0.12500000000E+03  0.12500000000E+03 0.  0.
    3000001    1    3    3    0    0 -0.28709070365E+02 -0.74948748670E+01  0.96899198406E-01  0.29688268052E+02  0.10000000000E+01 0.  1.
    1000022    2    1    0    0    0 -0.60323701730E+02 -0.96568373800E+01  0.86050212508E+01  0.62499998321E+02  0.99999950404E+01 0.  0.
    3000022    2    3    3    0    0 -0.31614631365E+02 -0.21619625131E+01  0.85081220523E+01  0.32811730268E+02  0.25000822623E+00 0.  0.
    1000022    2    1    0    0    0  0.60323701730E+02  0.96568373800E+01 -0.86050212508E+01  0.62500001679E+02  0.10000016032E+02 0.  0.
    3000022    2    5    5    0    0  0.16421801968E+02  0.69178554756E+01 -0.39689653851E+01  0.18257806452E+02  0.25001189847E+00 0.  0.
        -13    1    4    4    0    0 -0.12765913520E+02 -0.88837805608E+00  0.33721703918E+01  0.13234059155E+02  0.10500000000E+00 0. -1.
         13    1    4    4    0    0 -0.18848717845E+02 -0.12735844570E+01  0.51359516605E+01  0.19577671113E+02  0.10500000000E+00 0.  1.
    3000001    1    5    5    0    0  0.43901899762E+02  0.27389819044E+01 -0.46360558657E+01  0.44242195228E+02  0.10000000000E+01 0.  1.
        -13    1    6    6    0    0  0.10667276879E+02  0.44680006940E+01 -0.25230562382E+01  0.11837679840E+02  0.10500000000E+00 0. -1.
         13    1    6    6    0    0  0.57545250889E+01  0.24498547815E+01 -0.14459091469E+01  0.64201266118E+01  0.10500000000E+00 0.  1.
</event>
<event>
11    0  0.3448258E-009  0.9118800E+02  0.7816531E-02  0.1126479E+00
         25   -1    0    0    0    0  0.00000000000E+00  0.00000000000E+00  0.99999998245E-14  0.12500000000E+03  0.12500000000E+03 0.  0.
    3000001    1    3    3    0    0 -0.34422008074E+02  0.12702448058E+02  0.12222912111E+02  0.38686256048E+02  0.10000000000E+01 0. -1.
    1000022    2    1    0    0    0 -0.51970416295E+02  0.19952053531E+02  0.26594008457E+02  0.62499998434E+02  0.99999954217E+01 0.  0.
    3000022    2    3    3    0    0 -0.17548408221E+02  0.72496054729E+01  0.14371096346E+02  0.23813742386E+02  0.25001128638E+00 0.  0.
    1000022    2    1    0    0    0  0.51970416295E+02 -0.19952053531E+02 -0.26594008457E+02  0.62500001566E+02  0.10000014999E+02 0.  0.
    3000022    2    5    5    0    0  0.35521620936E+02 -0.10796580998E+02 -0.21777740955E+02  0.43042818350E+02  0.24999041010E+00 0.  0.
        -13    1    4    4    0    0 -0.12704707333E+02  0.52893800349E+01  0.10409907224E+02  0.17255848950E+02  0.10500000000E+00 0.  1.
         13    1    4    4    0    0 -0.48437008876E+01  0.19602254380E+01  0.39611891217E+01  0.65578934357E+01  0.10500000000E+00 0. -1.
    3000001    1    5    5    0    0  0.16448795359E+02 -0.91554725335E+01 -0.48162675013E+01  0.19457183216E+02  0.10000000000E+01 0.  1.
        -13    1    6    6    0    0  0.15693094759E+02 -0.48215748278E+01 -0.96811100964E+01  0.19059268733E+02  0.10500000000E+00 0.  1.
         13    1    6    6    0    0  0.19828526177E+02 -0.59750061698E+01 -0.12096630859E+02  0.23983549617E+02  0.10500000000E+00 0. -1.
</event>
<event>
11    0  0.3448258E-009  0.9118800E+02  0.7816531E-02  0.1126479E+00
         25   -1    0    0    0    0  0.00000000000E+00  0.00000000000E+00  0.99999998245E-14  0.12500000000E+03  0.12500000000E+03 0.  0.
    3000001    1    3    3    0    0  0.53337458606E+02  0.15371466374E+02 -0.22638924761E+02  0.59955711849E+02  0.10000000000E+01 0. -1.
    1000022    2    1    0    0    0  0.55299199459E+02  0.16662979480E+02 -0.21693171344E+02  0.62499998666E+02  0.99999902157E+01 0.  0.
    3000022    2    3    3    0    0  0.19617408537E+01  0.12915131060E+01  0.94575341625E+00  0.25442868174E+01  0.25002520779E+00 0.  0.
    1000022    2    1    0    0    0 -0.55299199459E+02 -0.16662979480E+02  0.21693171344E+02  0.62500001334E+02  0.10000006886E+02 0.  0.
    3000022    2    5    5    0    0 -0.84357830887E+01 -0.64809098557E+01  0.42969370983E+01  0.11475661047E+02  0.24999831226E+00 0.  0.
        -13    1    4    4    0    0  0.11987922826E+01  0.71427852173E+00  0.54743791555E+00  0.15026676328E+01  0.10500000000E+00 0. -1.
         13    1    4    4    0    0  0.76294857112E+00  0.57723458427E+00  0.39831550070E+00  0.10416191845E+01  0.10500000000E+00 0.  1.
    3000001    1    5    5    0    0 -0.46863416371E+02 -0.10182069625E+02  0.17396234246E+02  0.51024340287E+02  0.10000000000E+01 0.  1.
        -13    1    6    6    0    0 -0.59112182045E+01 -0.45847245959E+01  0.30524156954E+01  0.80802516582E+01  0.10500000000E+00 0. -1.
         13    1    6    6    0    0 -0.25245648842E+01 -0.18961852598E+01  0.12445214028E+01  0.33954093886E+01  0.10500000000E+00 0.  1.
</event>
<event>
11    0  0.3448258E-009  0.9118800E+02  0.7816531E-02  0.1126479E+00
         25   -1    0    0    0    0  0.00000000000E+00  0.00000000000E+00  0.99999998245E-14  0.12500000000E+03  0.12500000000E+03 0.  0.
    3000001    1    3    3    0    0  0.36865973791E+02  0.13126180626E+02  0.26144672300E+02  0.47073777531E+02  0.10000000000E+01 0.  1.
    1000022    2    1    0    0    0  0.51203564012E+02  0.13084872095E+02  0.31831292659E+02  0.62500000252E+02  0.99999996944E+01 0.  0.
    3000022    2    3    3    0    0  0.14337590221E+02 -0.41308530640E-01  0.56866203592E+01  0.15426222721E+02  0.24999317604E+00 0.  0.
    1000022    2    1    0    0    0 -0.51203564012E+02 -0.13084872095E+02 -0.31831292659E+02  0.62499999748E+02  0.99999965439E+01 0.  0.
    3000022    2    5    5    0    0 -0.50063522887E+02 -0.11085144826E+02 -0.30295290163E+02  0.59557567661E+02  0.24999992078E+00 0.  0.
        -13    1    4    4    0    0  0.59242876592E+01 -0.66830632646E-01  0.23061885371E+01  0.63585518139E+01  0.10500000000E+00 0. -1.
         13    1    4    4    0    0  0.84133025618E+01  0.25522102006E-01  0.33804318221E+01  0.90676709070E+01  0.10500000000E+00 0.  1.
    3000001    1    5    5    0    0 -0.11400411246E+01 -0.19997272693E+01 -0.15360024964E+01  0.29424320869E+01  0.10000000000E+01 0.  1.
        -13    1    6    6    0    0 -0.28758579363E+02 -0.63026178040E+01 -0.17377684307E+02  0.34187334132E+02  0.10500000000E+00 0. -1.
         13    1    6    6    0    0 -0.21304943524E+02 -0.47825270220E+01 -0.12917605855E+02  0.25370233529E+02  0.10500000000E+00 0.  1.
</event>
<event>
11    0  0.3448258E-009  0.9118800E+02  0.7816531E-02  0.1126479E+00
         25   -1    0    0    0    0  0.00000000000E+00  0.00000000000E+00  0.99999998245E-14  0.12500000000E+03  0.12500000000E+03 0.  0.
    3000001    1    3    3    0    0  0.44747863898E+02 -0.30705848363E+02  0.17642344624E+02  0.57074274160E+02  0.10000000000E+01 0. -1.
    1000022    2    1    0    0    0  0.49596466784E+02 -0.30722257193E+02  0.20064489701E+02  0.62500000488E+02  0.99999854809E+01 0.  0.
    3000022    2    3    3    0    0  0.48486028860E+01 -0.16408829962E-01  0.24221450764E+01  0.54257263278E+01  0.25000043382E+00 0.  0.
    1000022    2    1    0    0    0 -0.49596466784E+02  0.30722257193E+02 -0.20064489701E+02  0.62499999512E+02  0.99999793804E+01 0.  0.
    3000022    2    5    5    0    0 -0.14310575559E+02  0.10494819870E+02 -0.10793146658E+02  0.20772297179E+02  0.24999676685E+00 0.  0.
        -13    1    4    4    0    0  0.21676489458E+01 -0.49702653083E-01  0.11405903610E+01  0.24521712171E+01  0.10500000000E+00 0.  1.
         13    1    4    4    0    0  0.26809539402E+01  0.33293823121E-01  0.12815547154E+01  0.29735551107E+01  0.10500000000E+00 0. -1.
    3000001    1    5    5    0    0 -0.35285891225E+02  0.20227437322E+02 -0.92713430427E+01  0.41727702333E+02  0.10000000000E+01 0. -1.
        -13    1    6    6    0    0 -0.59112557787E+01  0.43927046445E+01 -0.45314197770E+01  0.86477505266E+01  0.10500000000E+00 0.  1.
         13    1    6    6    0    0 -0.83993197805E+01  0.61021152260E+01 -0.62617268810E+01  0.12124546653E+02  0.10500000000E+00 0. -1.
</event>
<event>
11    0  0.3448258E-009  0.9118800E+02  0.7816531E-02  0.1126479E+00
         25   -1    0    0    0    0  0.00000000000E+00  0.00000000000E+00  0.99999998245E-14  0.12500000000E+03  0.12500000000E+03 0.  0.
    3000001    1    3    3    0    0 -0.14589115141E+02  0.10326847737E+02 -0.11106474093E+02  0.21067506534E+02  0.10000000000E+01 0.  1.
    1000022    2    1    0    0    0 -0.50317885888E+02  0.19086881707E+02 -0.30167056279E+02  0.62500000461E+02  0.10000003976E+02 0.  0.
    3000022    2    3    3    0    0 -0.35728770747E+02  0.87600339707E+01 -0.19060582186E+02  0.41432493927E+02  0.25001097188E+00 0.  0.
    1000022    2    1    0    0    0  0.50317885888E+02 -0.19086881707E+02  0.30167056279E+02  0.62499999539E+02  0.99999982164E+01 0.  0.
    3000022    2    5    5    0    0  0.23421896792E+01  0.32027800956E+00  0.36111817978E+01  0.43233741263E+01  0.24999872354E+00 0.  0.
        -13    1    4    4    0    0 -0.12753163827E+02  0.30921279625E+01 -0.67467952023E+01  0.14755836589E+02  0.10500000000E+00 0.  1.
         13    1    4    4    0    0 -0.22975606920E+02  0.56679060081E+01 -0.12313786984E+02  0.26676657338E+02  0.10500000000E+00 0. -1.
    3000001    1    5    5    0    0  0.47975696208E+02 -0.19407159717E+02  0.26555874481E+02  0.58176625413E+02  0.10000000000E+01 0. -1.
        -13    1    6    6    0    0  0.79535377652E+00  0.16444584773E+00  0.12345007497E+01  0.14814341591E+01  0.10500000000E+00 0. -1.
         13    1    6    6    0    0  0.15468359027E+01  0.15583216183E+00  0.23766810481E+01  0.28419399672E+01  0.10500000000E+00 0.  1.
</event>
<event>
11    0  0.3448258E-009  0.9118800E+02  0.7816531E-02  0.1126479E+00
         25   -1    0    0    0    0  0.00000000000E+00  0.00000000000E+00  0.99999998245E-14  0.12500000000E+03  0.12500000000E+03 0.  0.
    3000001    1    3    3    0    0 -0.20919202429E+02  0.55802142090E+02 -0.14864357657E+02  0.61428342161E+02  0.10000000000E+01 0.  1.
    1000022    2    1    0    0    0 -0.21769961131E+02  0.55932885550E+02 -0.14276936207E+02  0.62499998530E+02  0.10000000756E+02 0.  0.
    3000022    2    3    3    0    0 -0.85075870186E+00  0.13074346029E+00  0.58742144914E+00  0.10716563688E+01  0.24999838520E+00 0.  0.
    1000022    2    1    0    0    0  0.21769961131E+02 -0.55932885550E+02  0.14276936207E+02  0.62500001470E+02  0.10000019136E+02 0.  0.
    3000022    2    5    5    0    0  0.95120698524E+01 -0.31596699056E+02  0.12096420100E+02  0.35145650406E+02  0.24999819941E+00 0.  0.
        -13    1    4    4    0    0 -0.53100040900E+00  0.25114373487E-01  0.38789065226E+00  0.66639051930E+00  0.10500000000E+00 0. -1.
         13    1    4    4    0    0 -0.31975829287E+00  0.10562908680E+00  0.19953079688E+00  0.40526584946E+00  0.10500000000E+00 0.  1.
    3000001    1    5    5    0    0  0.12257891278E+02 -0.24336186494E+02  0.21805161080E+01  0.27354351065E+02  0.10000000000E+01 0.  1.
        -13    1    6    6    0    0  0.63979083371E+01 -0.21139801833E+02  0.80519370416E+01  0.23508916771E+02  0.10500000000E+00 0. -1.
         13    1    6    6    0    0  0.31141615154E+01 -0.10456897223E+02  0.40444830579E+01  0.11636733635E+02  0.10500000000E+00 0.  1.
</event>
<event>
11    0  0.3448258E-009  0.9118800E+02  0.7816531E-02  0.1126479E+00
         25   -1    0    0    0    0  0.00000000000E+00  0.00000000000E+00  0.99999998245E-14  0.12500000000E+03  0.12500000000E+03 0.  0.
    3000001    1    3    3    0    0 -0.32867604644E+02 -0.11241237058E+02  0.85608091778E+01  0.35790114549E+02  0.10000000000E+01 0.  1.
    1000022    2    1    0    0    0 -0.53096683554E+02 -0.22764735079E+02  0.21650841199E+02  0.62500001829E+02  0.10000016818E+02 0.  0.
    3000022    2    3    3    0    0 -0.20229078910E+02 -0.11523498021E+02  0.13090032021E+02  0.26709887280E+02  0.25000006315E+00 0.  0.
    1000022    2    1    0    0    0  0.53096683554E+02  0.22764735079E+02 -0.21650841199E+02  0.62499998171E+02  0.99999939597E+01 0.  0.
    3000022    2    5    5    0    0  0.22648699423E+02  0.64825569098E+01 -0.12926410209E+02  0.26872694601E+02  0.25000923610E+00 0.  0.
        -13    1    4    4    0    0 -0.99177118256E+01 -0.55864837303E+01  0.63544623196E+01  0.13036871737E+02  0.10500000000E+00 0. -1.
         13    1    4    4    0    0 -0.10311367084E+02 -0.59370142908E+01  0.67355697013E+01  0.13673015543E+02  0.10500000000E+00 0.  1.
    3000001    1    5    5    0    0  0.30447984131E+02  0.16282178169E+02 -0.87244309896E+01  0.35627303570E+02  0.10000000000E+01 0. -1.
        -13    1    6    6    0    0  0.11827222153E+02  0.33181628252E+01 -0.67633592165E+01  0.14023103839E+02  0.10500000000E+00 0. -1.
         13    1    6    6    0    0  0.10821477269E+02  0.31643940846E+01 -0.61630509925E+01  0.12849590762E+02  0.10500000000E+00 0.  1.
</event>
<event>
11    0  0.3448258E-009  0.9118800E+02  0.7816531E-02  0.1126479E+00
         25   -1    0    0    0    0  0.00000000000E+00  0.00000000000E+00  0.99999998245E-14  0.12500000000E+03  0.12500000000E+03 0.  0.
    3000001    1    3    3    0    0 -0.35017151224E+01 -0.48508354845E+01 -0.97058683468E+01  0.11445369984E+02  0.10000000000E+01 0. -1.
    1000022    2    1    0    0    0 -0.17374588420E+02 -0.68746850896E+01 -0.58797213091E+02  0.62499999667E+02  0.10000003664E+02 0.  0.
    3000022    2    3    3    0    0 -0.13872873297E+02 -0.20238496052E+01 -0.49091344744E+02  0.51054629683E+02  0.25000515243E+00 0.  0.
    1000022    2    1    0    0    0  0.17374588420E+02  0.68746850896E+01  0.58797213091E+02  0.62500000333E+02  0.10000007829E+02 0.  0.
    3000022    2    5    5    0    0  0.15008396356E+02  0.92432418099E+01  0.47041074375E+02  0.50235591529E+02  0.24999510803E+00 0.  0.
        -13    1    4    4    0    0 -0.85977975007E+01 -0.11977302486E+01 -0.30306477569E+02  0.31525391151E+02  0.10500000000E+00 0. -1.
         13    1    4    4    0    0 -0.52750757965E+01 -0.82611935659E+00 -0.18784867175E+02  0.19529238532E+02  0.10500000000E+00 0.  1.
    3000001    1    5    5    0    0  0.23661920632E+01 -0.23685567202E+01  0.11756138715E+02  0.12264408804E+02  0.10000000000E+01 0. -1.
        -13    1    6    6    0    0  0.61002289974E+01  0.37405898612E+01  0.18921153838E+02  0.20229332512E+02  0.10500000000E+00 0. -1.
         13    1    6    6    0    0  0.89081673590E+01  0.55026519487E+01  0.28119920537E+02  0.30006259017E+02  0.10500000000E+00 0.  1.
</event>
<event>
11    0  0.3448258E-009  0.9118800E+02  0.7816531E-02  0.1126479E+00
         25   -1    0    0    0    0  0.00000000000E+00  0.00000000000E+00  0.99999998245E-14  0.12500000000E+03  0.12500000000E+03 0.  0.
    3000001    1    3    3    0    0 -0.40914821296E+01 -0.31863184498E+02  0.10545866544E+02  0.33826292341E+02  0.10000000000E+01 0. -1.
    1000022    2    1    0    0    0 -0.15057456826E+02 -0.55180106076E+02  0.23123128184E+02  0.62499998823E+02  0.99999841659E+01 0.  0.
    3000022    2    3    3    0    0 -0.10965974696E+02 -0.23316921578E+02  0.12577261640E+02  0.28673706482E+02  0.25000036676E+00 0.  0.
    1000022    2    1    0    0    0  0.15057456826E+02  0.55180106076E+02 -0.23123128184E+02  0.62500001177E+02  0.99999988773E+01 0.  0.
    3000022    2    5    5    0    0  0.89701312511E+01  0.36869707319E+02 -0.20107933734E+02  0.42944499832E+02  0.24998864800E+00 0.  0.
        -13    1    4    4    0    0 -0.78720071646E+01 -0.16649606354E+02  0.89701504181E+01  0.20485421940E+02  0.10500000000E+00 0. -1.
         13    1    4    4    0    0 -0.30939675315E+01 -0.66673152240E+01  0.36071112217E+01  0.81882845424E+01  0.10500000000E+00 0.  1.
    3000001    1    5    5    0    0  0.60873255746E+01  0.18310398756E+02 -0.30151944493E+01  0.19555501344E+02  0.10000000000E+01 0.  1.
        -13    1    6    6    0    0  0.45400208006E+01  0.18528057654E+02 -0.10176878708E+02  0.21621299557E+02  0.10500000000E+00 0.  1.
         13    1    6    6    0    0  0.44301104505E+01  0.18341649666E+02 -0.99310550263E+01  0.21323200276E+02  0.10500000000E+00 0. -1.
</event>
<event>
11    0  0.3448258E-009  0.9118800E+02  0.7816531E-02  0.1126479E+00
         25   -1    0    0    0    0  0.00000000000E+00  0.00000000000E+00  0.99999998245E-14  0.12500000000E+03  0.12500000000E+03 0.  0.
    3000001    1    3    3    0    0 -0.82070658728E+01  0.70733188890E+01  0.12926609645E+01  0.10957132048E+02  0.10000000000E+01 0.  1.
    1000022    2    1    0    0    0 -0.56857191523E+02  0.21970219762E+02  0.95299157950E+01  0.62500000111E+02  0.99999967253E+01 0.  0.
    3000022    2    3    3    0    0 -0.48650125650E+02  0.14896900873E+02  0.82372548305E+01  0.51542868063E+02  0.24999919731E+00 0.  0.
    1000022    2    1    0    0    0  0.56857191523E+02 -0.21970219762E+02 -0.95299157950E+01  0.62499999889E+02  0.99999953437E+01 0.  0.
    3000022    2    5    5    0    0  0.25487592795E+02 -0.13489682569E+02 -0.85323077132E+00  0.28850986554E+02  0.25000024430E+00 0.  0.
        -13    1    4    4    0    0 -0.21767310107E+02  0.67226120791E+01  0.37264803111E+01  0.23084778166E+02  0.10500000000E+00 0.  1.
         13    1    4    4    0    0 -0.26882815543E+02  0.81742887941E+01  0.45107745194E+01  0.28458089896E+02  0.10500000000E+00 0. -1.
    3000001    1    5    5    0    0  0.31369598728E+02 -0.84805371936E+01 -0.86766850236E+01  0.33649013335E+02  0.10000000000E+01 0.  1.
        -13    1    6    6    0    0  0.69527591051E+01 -0.36824021711E+01 -0.26983005244E+00  0.78730412282E+01  0.10500000000E+00 0. -1.
         13    1    6    6    0    0  0.18534833690E+02 -0.98072803975E+01 -0.58340071888E+00  0.20977945326E+02  0.10500000000E+00 0. -1.
</event>
<event>
11    0  0.3448258E-009  0.9118800E+02  0.7816531E-02  0.1126479E+00
         25   -1    0    0    0    0  0.00000000000E+00  0.00000000000E+00  0.99999998245E-14  0.12500000000E+03  0.12500000000E+03 0.  0.
    3000001    1    3    3    0    0  0.30798321142E+01 -0.28132521784E+01  0.10313882028E+02  0.11170314058E+02  0.10000000000E+01 0.  1.
    1000022    2    1    0    0    0  0.76430631994E+01 -0.33137790982E+02  0.51475433756E+02  0.62499999125E+02  0.10000000200E+02 0.  0.
    3000022    2    3    3    0    0  0.45632310852E+01 -0.30324538804E+02  0.41161551728E+02  0.51329685067E+02  0.24999359059E+00 0.  0.
    1000022    2    1    0    0    0 -0.76430631994E+01  0.33137790982E+02 -0.51475433756E+02  0.62500000875E+02  0.10000011136E+02 0.  0.
    3000022    2    5    5    0    0 -0.26488868682E+01  0.21323980836E+02 -0.39276297107E+02  0.44770735736E+02  0.25000706332E+00 0.  0.
        -13    1    4    4    0    0  0.26744970647E+01 -0.17384651979E+02  0.23558092050E+02  0.29400234438E+02  0.10500000000E+00 0.  1.
         13    1    4    4    0    0  0.18887340205E+01 -0.12939886825E+02  0.17603459678E+02  0.21929450629E+02  0.10500000000E+00 0. -1.
    3000001    1    5    5    0    0 -0.49941763312E+01  0.11813810146E+02 -0.12199136649E+02  0.17729265139E+02  0.10000000000E+01 0. -1.
        -13    1    6    6    0    0 -0.12756534200E+01  0.10136222312E+02 -0.18537070150E+02  0.21166111810E+02  0.10500000000E+00 0.  1.
         13    1    6    6    0    0 -0.13732334483E+01  0.11187758524E+02 -0.20739226957E+02  0.23604623925E+02  0.10500000000E+00 0. -1.
</event>
<event>
11    0  0.3448258E-009  0.9118800E+02  0.7816531E-02  0.1126479E+00
         25   -1    0    0    0    0  0.00000000000E+00  0.00000000000E+00  0.99999998245E-14  0.12500000000E+03  0.12500000000E+03 0.  0.
    3000001    1    3    3    0    0 -0.78014185134E+01 -0.29724284567E+02 -0.31944610803E+02  0.44337945185E+02  0.10000000000E+01 0.  1.
    1000022    2    1    0    0    0 -0.64919265691E+01 -0.38417250825E+02 -0.47835340300E+02  0.62499999501E+02  0.99999942244E+01 0.  0.
    3000022    2    3    3    0    0  0.13094919443E+01 -0.86929662584E+01 -0.15890729497E+02  0.18162054317E+02  0.25000306909E+00 0.  0.
    1000022    2    1    0    0    0  0.64919265691E+01  0.38417250825E+02  0.47835340300E+02  0.62500000499E+02  0.10000000461E+02 0.  0.
    3000022    2    5    5    0    0  0.57465701608E+01  0.34412977924E+02  0.46426972309E+02  0.58075833002E+02  0.25000586123E+00 0.  0.
        -13    1    4    4    0    0  0.73563123935E+00 -0.51109900296E+01 -0.94451662695E+01  0.10765015711E+02  0.10500000000E+00 0.  1.
         13    1    4    4    0    0  0.57386070496E+00 -0.35819762288E+01 -0.64455632274E+01  0.73970386054E+01  0.10500000000E+00 0. -1.
    3000001    1    5    5    0    0  0.74535640824E+00  0.40042729009E+01  0.14083679913E+01  0.44241674967E+01  0.10000000000E+01 0. -1.
        -13    1    6    6    0    0  0.38344005081E+01  0.22726961215E+02  0.30605213446E+02  0.38313281096E+02  0.10500000000E+00 0. -1.
         13    1    6    6    0    0  0.19121696528E+01  0.11686016709E+02  0.15821758863E+02  0.19762551906E+02  0.10500000000E+00 0.  1.
</event>
<event>
11    0  0.3448258E-009  0.9118800E+02  0.7816531E-02  0.1126479E+00
         25   -1    0    0    0    0  0.00000000000E+00  0.00000000000E+00  0.99999998245E-14  0.12500000000E+03  0.12500000000E+03 0.  0.
    3000001    1    3    3    0    0  0.33365678092E+00 -0.17218246054E+01 -0.77819008469E+00  0.21636974436E+01  0.10000000000E+01 0. -1.
    1000022    2    1    0    0    0 -0.12672914490E+02 -0.27356955666E+02 -0.53826059345E+02  0.62500003037E+02  0.99999965058E+01 0.  0.
    3000022    2    3    3    0    0 -0.13006571271E+02 -0.25635131060E+02 -0.53047869260E+02  0.60336305594E+02  0.24999793975E+00 0.  0.
    1000022    2    1    0    0    0  0.12672914490E+02  0.27356955666E+02  0.53826059345E+02  0.62499996963E+02  0.99999585419E+01 0.  0.
    3000022    2    5    5    0    0  0.32471734003E+00  0.32741781304E+01  0.15947108248E+01  0.36648721236E+01  0.25000257447E+00 0.  0.
        -13    1    4    4    0    0 -0.75265677646E+01 -0.14954892621E+02 -0.30968198129E+02  0.35204237756E+02  0.10500000000E+00 0. -1.
         13    1    4    4    0    0 -0.54800035060E+01 -0.10680238439E+02 -0.22079671131E+02  0.25132067837E+02  0.10500000000E+00 0.  1.
    3000001    1    5    5    0    0  0.12348197150E+02  0.24082777535E+02  0.52231348520E+02  0.58835124839E+02  0.10000000000E+01 0. -1.
        -13    1    6    6    0    0  0.17406104841E+00  0.20353797793E+01  0.10490099768E+01  0.22988073051E+01  0.10500000000E+00 0. -1.
         13    1    6    6    0    0  0.15065629162E+00  0.12387983511E+01  0.54570084805E+00  0.13660648185E+01  0.10500000000E+00 0.  1.
</event>
<event>
11    0  0.3448258E-009  0.9118800E+02  0.7816531E-02  0.1126479E+00
         25   -1    0    0    0    0  0.00000000000E+00  0.00000000000E+00  0.99999998245E-14  0.12500000000E+03  0.12500000000E+03 0.  0.
    3000001    1    3    3    0    0 -0.22443455748E+01  0.83087629539E+01  0.55763473230E+01  0.10303799219E+02  0.10000000000E+01 0.  1.
    1000022    2    1    0    0    0 -0.19977684225E+02  0.34375631434E+02  0.47174760533E+02  0.62500000441E+02  0.10000006016E+02 0.  0.
    3000022    2    3    3    0    0 -0.17733338650E+02  0.26066868480E+02  0.41598413210E+02  0.52196201221E+02  0.25001674011E+00 0.  0.
    1000022    2    1    0    0    0  0.19977684225E+02 -0.34375631434E+02 -0.47174760533E+02  0.62499999559E+02  0.10000000507E+02 0.  0.
    3000022    2    5    5    0    0  0.19684611832E+02 -0.34603568951E+02 -0.46592614583E+02  0.61284787296E+02  0.24998620949E+00 0.  0.
        -13    1    4    4    0    0 -0.96715911256E+01  0.14116796146E+02  0.22517866677E+02  0.28282308128E+02  0.10500000000E+00 0. -1.
         13    1    4    4    0    0 -0.80617475242E+01  0.11950072334E+02  0.19080546533E+02  0.23913893094E+02  0.10500000000E+00 0.  1.
    3000001    1    5    5    0    0  0.29307239235E+00  0.22793751661E+00 -0.58214594922E+00  0.12152122633E+01  0.10000000000E+01 0.  1.
        -13    1    6    6    0    0  0.14837381770E+02 -0.26107795225E+02 -0.35113703557E+02  0.46203333990E+02  0.10500000000E+00 0. -1.
         13    1    6    6    0    0  0.48472300620E+01 -0.84957737257E+01 -0.11478911027E+02  0.15081453306E+02  0.10500000000E+00 0.  1.
</event>
