<event>
 4    1  0.1115666E+000  0.1758140E+03  0.7546771E-02  0.1171917E+00
         21   -1    0    0  503  502  0.00000000000E+00  0.00000000000E+00  0.54959587951E+03  0.54959587951E+03  0.00000000000E+00 0. -1.
         21   -1    0    0  501  503 -0.00000000000E+00 -0.00000000000E+00 -0.56406439427E+02  0.56406439427E+02  0.00000000000E+00 0. -1.
          6    1    1    2  501    0  0.15644750937E+02 -0.32890899399E+02  0.26293677125E+03  0.31630098825E+03  0.17200000000E+03 0. -1.
         -6    1    1    2    0  502 -0.15644750937E+02  0.32890899399E+02  0.23025266884E+03  0.28970133069E+03  0.17200000000E+03 0. -1.
<mgrwt>
<rscale>  2 0.17581402E+03</rscale>
<asrwt>0</asrwt>
<pdfrwt beam="1">  1       21 0.13739895E+00 0.17581402E+03</pdfrwt>
<pdfrwt beam="2">  1       21 0.14101612E-01 0.17581402E+03</pdfrwt>
<totfact> 0.16673807E+04</totfact>
</mgrwt>
</event>
<event>
 4    1  0.1115666E+000  0.2863696E+03  0.7546771E-02  0.1092260E+00
         21   -1    0    0  501  502  0.00000000000E+00  0.00000000000E+00  0.19913855852E+03  0.19913855852E+03  0.00000000000E+00 0.  1.
         21   -1    0    0  502  503 -0.00000000000E+00 -0.00000000000E+00 -0.43676971588E+03  0.43676971588E+03  0.00000000000E+00 0. -1.
          6    1    1    2  501    0 -0.21834470308E+03 -0.68913833324E+02 -0.19482124692E+03  0.34635652735E+03  0.17200000000E+03 0.  1.
         -6    1    1    2    0  503  0.21834470308E+03  0.68913833324E+02 -0.42809910436E+02  0.28955174705E+03  0.17200000000E+03 0.  1.
<mgrwt>
<rscale>  2 0.28636956E+03</rscale>
<asrwt>0</asrwt>
<pdfrwt beam="1">  1       21 0.49784640E-01 0.28636956E+03</pdfrwt>
<pdfrwt beam="2">  1       21 0.10919243E+00 0.28636956E+03</pdfrwt>
<totfact> 0.23844952E+03</totfact>
</mgrwt>
</event>
<event>
 4    1  0.1115666E+000  0.1803238E+03  0.7546771E-02  0.1167490E+00
         21   -1    0    0  501  502  0.00000000000E+00  0.00000000000E+00  0.11493097427E+03  0.11493097427E+03  0.00000000000E+00 0. -1.
         21   -1    0    0  502  503 -0.00000000000E+00 -0.00000000000E+00 -0.31914575322E+03  0.31914575322E+03  0.00000000000E+00 0. -1.
          6    1    1    2  501    0  0.42997864056E+02 -0.32922137679E+02 -0.28988567949E+02  0.18263904439E+03  0.17200000000E+03 0. -1.
         -6    1    1    2    0  503 -0.42997864056E+02  0.32922137679E+02 -0.17522621101E+03  0.25143768311E+03  0.17200000000E+03 0. -1.
<mgrwt>
<rscale>  2 0.18032383E+03</rscale>
<asrwt>0</asrwt>
<pdfrwt beam="1">  1       21 0.28732744E-01 0.18032383E+03</pdfrwt>
<pdfrwt beam="2">  1       21 0.79786438E-01 0.18032383E+03</pdfrwt>
<totfact> 0.16161283E+04</totfact>
</mgrwt>
</event>
<event>
 4    1  0.1115666E+000  0.1932162E+03  0.7546771E-02  0.1155592E+00
         21   -1    0    0  501  502  0.00000000000E+00  0.00000000000E+00  0.46792089078E+03  0.46792089078E+03  0.00000000000E+00 0.  1.
         21   -1    0    0  502  503 -0.00000000000E+00 -0.00000000000E+00 -0.10376362333E+03  0.10376362333E+03  0.00000000000E+00 0.  1.
          6    1    1    2  501    0 -0.34006857183E+02 -0.81191326658E+02  0.44665884032E+02  0.19831172193E+03  0.17200000000E+03 0.  1.
         -6    1    1    2    0  503  0.34006857183E+02  0.81191326658E+02  0.31949138342E+03  0.37337279218E+03  0.17200000000E+03 0.  1.
<mgrwt>
<rscale>  2 0.19321619E+03</rscale>
<asrwt>0</asrwt>
<pdfrwt beam="1">  1       21 0.11698022E+00 0.19321619E+03</pdfrwt>
<pdfrwt beam="2">  1       21 0.25940907E-01 0.19321619E+03</pdfrwt>
<totfact> 0.79333700E+03</totfact>
</mgrwt>
</event>
<event>
 4    1  0.1115666E+000  0.2132206E+03  0.7546771E-02  0.1139041E+00
         21   -1    0    0  503  502  0.00000000000E+00  0.00000000000E+00  0.10430171444E+03  0.10430171444E+03  0.00000000000E+00 0.  1.
         21   -1    0    0  501  503 -0.00000000000E+00 -0.00000000000E+00 -0.43633298719E+03  0.43633298719E+03  0.00000000000E+00 0. -1.
          6    1    1    2  501    0 -0.11809797860E+03  0.43953323694E+02 -0.17472580542E+03  0.27566670871E+03  0.17200000000E+03 0.  1.
         -6    1    1    2    0  502  0.11809797860E+03 -0.43953323694E+02 -0.15730546734E+03  0.26496799292E+03  0.17200000000E+03 0. -1.
<mgrwt>
<rscale>  2 0.21322061E+03</rscale>
<asrwt>0</asrwt>
<pdfrwt beam="1">  1       21 0.26075429E-01 0.21322061E+03</pdfrwt>
<pdfrwt beam="2">  1       21 0.10908325E+00 0.21322061E+03</pdfrwt>
<totfact> 0.91783242E+03</totfact>
</mgrwt>
</event>
<event>
 4    1  0.1115666E+000  0.1858140E+03  0.7546771E-02  0.1162292E+00
         21   -1    0    0  503  502  0.00000000000E+00  0.00000000000E+00  0.75039824981E+03  0.75039824981E+03  0.00000000000E+00 0. -1.
         21   -1    0    0  501  503 -0.00000000000E+00 -0.00000000000E+00 -0.77820194292E+02  0.77820194292E+02  0.00000000000E+00 0. -1.
          6    1    1    2  501    0 -0.50246363452E+02 -0.49174633612E+02  0.71534957640E+02  0.19910824141E+03  0.17200000000E+03 0.  1.
         -6    1    1    2    0  502  0.50246363452E+02  0.49174633612E+02  0.60104309787E+03  0.62911020269E+03  0.17200000000E+03 0.  1.
<mgrwt>
<rscale>  2 0.18581400E+03</rscale>
<asrwt>0</asrwt>
<pdfrwt beam="1">  1       21 0.18759954E+00 0.18581400E+03</pdfrwt>
<pdfrwt beam="2">  1       21 0.19455051E-01 0.18581400E+03</pdfrwt>
<totfact> 0.39572442E+03</totfact>
</mgrwt>
</event>
<event>
 4    1  0.1115666E+000  0.2019744E+03  0.7546771E-02  0.1148084E+00
         21   -1    0    0  501  502  0.00000000000E+00  0.00000000000E+00  0.17085914718E+03  0.17085914718E+03  0.00000000000E+00 0.  1.
         21   -1    0    0  502  503 -0.00000000000E+00 -0.00000000000E+00 -0.24131523710E+03  0.24131523710E+03  0.00000000000E+00 0.  1.
          6    1    1    2  501    0  0.77480720104E+02 -0.72155380799E+02 -0.14005047162E+02  0.20245938435E+03  0.17200000000E+03 0. -1.
         -6    1    1    2    0  503 -0.77480720104E+02  0.72155380799E+02 -0.56451042766E+02  0.20971499993E+03  0.17200000000E+03 0. -1.
<mgrwt>
<rscale>  2 0.20197441E+03</rscale>
<asrwt>0</asrwt>
<pdfrwt beam="1">  1       21 0.42714787E-01 0.20197441E+03</pdfrwt>
<pdfrwt beam="2">  1       21 0.60328809E-01 0.20197441E+03</pdfrwt>
<totfact> 0.13419253E+04</totfact>
</mgrwt>
</event>
<event>
 4    1  0.1115666E+000  0.2415775E+03  0.7546771E-02  0.1118746E+00
         21   -1    0    0  501  502  0.00000000000E+00  0.00000000000E+00  0.40906769158E+03  0.40906769158E+03  0.00000000000E+00 0.  1.
         21   -1    0    0  502  503 -0.00000000000E+00 -0.00000000000E+00 -0.40995755154E+03  0.40995755154E+03  0.00000000000E+00 0.  1.
          6    1    1    2  501    0  0.16042337402E+03 -0.55136627682E+02  0.33022229198E+03  0.40915335605E+03  0.17200000000E+03 0.  1.
         -6    1    1    2    0  503 -0.16042337402E+03  0.55136627682E+02 -0.33111215194E+03  0.40987188707E+03  0.17200000000E+03 0.  1.
<mgrwt>
<rscale>  2 0.24157754E+03</rscale>
<asrwt>0</asrwt>
<pdfrwt beam="1">  1       21 0.10226692E+00 0.24157754E+03</pdfrwt>
<pdfrwt beam="2">  1       21 0.10248939E+00 0.24157754E+03</pdfrwt>
<totfact> 0.57402814E+02</totfact>
</mgrwt>
</event>
<event>
 4    1  0.1115666E+000  0.2020239E+03  0.7546771E-02  0.1148043E+00
         21   -1    0    0  503  502  0.00000000000E+00  0.00000000000E+00  0.11320872134E+04  0.11320872134E+04  0.00000000000E+00 0.  1.
         21   -1    0    0  501  503 -0.00000000000E+00 -0.00000000000E+00 -0.47161136398E+02  0.47161136398E+02  0.00000000000E+00 0. -1.
          6    1    1    2  501    0 -0.86375786183E+02  0.61391249861E+02  0.82863644820E+03  0.85290798172E+03  0.17200000000E+03 0.  1.
         -6    1    1    2    0  502  0.86375786183E+02 -0.61391249861E+02  0.25628962875E+03  0.32634036803E+03  0.17200000000E+03 0. -1.
<mgrwt>
<rscale>  2 0.20202391E+03</rscale>
<asrwt>0</asrwt>
<pdfrwt beam="1">  1       21 0.28302171E+00 0.20202391E+03</pdfrwt>
<pdfrwt beam="2">  1       21 0.11790288E-01 0.20202391E+03</pdfrwt>
<totfact> 0.25607883E+03</totfact>
</mgrwt>
</event>
<event>
 4    1  0.1115666E+000  0.3351906E+03  0.7546771E-02  0.1068863E+00
         21   -1    0    0  501  502  0.00000000000E+00  0.00000000000E+00  0.34443778880E+03  0.34443778880E+03  0.00000000000E+00 0. -1.
         21   -1    0    0  502  503 -0.00000000000E+00 -0.00000000000E+00 -0.42418902937E+03  0.42418902937E+03  0.00000000000E+00 0.  1.
          6    1    1    2  501    0  0.40505681398E+02 -0.28482987029E+03  0.14484391616E+03  0.36514726520E+03  0.17200000000E+03 0. -1.
         -6    1    1    2    0  503 -0.40505681398E+02  0.28482987029E+03 -0.22459515673E+03  0.40347955297E+03  0.17200000000E+03 0.  1.
<mgrwt>
<rscale>  2 0.33519064E+03</rscale>
<asrwt>0</asrwt>
<pdfrwt beam="1">  1       21 0.86109447E-01 0.33519064E+03</pdfrwt>
<pdfrwt beam="2">  1       21 0.10604726E+00 0.33519064E+03</pdfrwt>
<totfact> 0.74149521E+02</totfact>
</mgrwt>
</event>
<event>
 4    1  0.1115666E+000  0.1997514E+03  0.7546771E-02  0.1149949E+00
         21   -1    0    0  501  502  0.00000000000E+00  0.00000000000E+00  0.74013665903E+02  0.74013665903E+02  0.00000000000E+00 0. -1.
         21   -1    0    0  502  503 -0.00000000000E+00 -0.00000000000E+00 -0.53966368504E+03  0.53966368504E+03  0.00000000000E+00 0. -1.
          6    1    1    2  501    0 -0.50710472382E+02  0.88005993829E+02 -0.24276073645E+03  0.31437776976E+03  0.17200000000E+03 0. -1.
         -6    1    1    2    0  503  0.50710472382E+02 -0.88005993829E+02 -0.22288928269E+03  0.29929958118E+03  0.17200000000E+03 0. -1.
<mgrwt>
<rscale>  2 0.19975136E+03</rscale>
<asrwt>0</asrwt>
<pdfrwt beam="1">  1       21 0.18503417E-01 0.19975136E+03</pdfrwt>
<pdfrwt beam="2">  1       21 0.13491592E+00 0.19975136E+03</pdfrwt>
<totfact> 0.10442237E+04</totfact>
</mgrwt>
</event>
<event>
 4    1  0.1115666E+000  0.2512110E+03  0.7546771E-02  0.1112542E+00
         21   -1    0    0  503  502  0.00000000000E+00  0.00000000000E+00  0.43019173076E+03  0.43019173076E+03  0.00000000000E+00 0.  1.
         21   -1    0    0  501  503 -0.00000000000E+00 -0.00000000000E+00 -0.15781960564E+03  0.15781960564E+03  0.00000000000E+00 0.  1.
          6    1    1    2  501    0  0.16907439859E+03 -0.70262324873E+02  0.58127801477E+02  0.25784838153E+03  0.17200000000E+03 0.  1.
         -6    1    1    2    0  502 -0.16907439859E+03  0.70262324873E+02  0.21424432364E+03  0.33016295487E+03  0.17200000000E+03 0.  1.
<mgrwt>
<rscale>  2 0.25121096E+03</rscale>
<asrwt>0</asrwt>
<pdfrwt beam="1">  1       21 0.10754793E+00 0.25121096E+03</pdfrwt>
<pdfrwt beam="2">  1       21 0.39454902E-01 0.25121096E+03</pdfrwt>
<totfact> 0.40901877E+03</totfact>
</mgrwt>
</event>
<event>
 4    1  0.1115666E+000  0.2302166E+03  0.7546771E-02  0.1126487E+00
         21   -1    0    0  503  502  0.00000000000E+00  0.00000000000E+00  0.57901724447E+03  0.57901724447E+03  0.00000000000E+00 0. -1.
         21   -1    0    0  501  503 -0.00000000000E+00 -0.00000000000E+00 -0.12670947307E+03  0.12670947307E+03  0.00000000000E+00 0. -1.
          6    1    1    2  501    0  0.99150941436E+02  0.11655372029E+03  0.40235257271E+02  0.23370612921E+03  0.17200000000E+03 0. -1.
         -6    1    1    2    0  502 -0.99150941436E+02 -0.11655372029E+03  0.41207251413E+03  0.47202058833E+03  0.17200000000E+03 0. -1.
<mgrwt>
<rscale>  2 0.23021659E+03</rscale>
<asrwt>0</asrwt>
<pdfrwt beam="1">  1       21 0.14475430E+00 0.23021659E+03</pdfrwt>
<pdfrwt beam="2">  1       21 0.31677370E-01 0.23021659E+03</pdfrwt>
<totfact> 0.30455575E+03</totfact>
</mgrwt>
</event>
<event>
 4    1  0.1115666E+000  0.1806963E+03  0.7546771E-02  0.1167131E+00
         21   -1    0    0  501  502  0.00000000000E+00  0.00000000000E+00  0.52456530161E+03  0.52456530161E+03  0.00000000000E+00 0. -1.
         21   -1    0    0  502  503 -0.00000000000E+00 -0.00000000000E+00 -0.10088179462E+03  0.10088179462E+03  0.00000000000E+00 0. -1.
          6    1    1    2  501    0 -0.38513151126E+02 -0.39798200894E+02  0.40537656634E+03  0.44382577678E+03  0.17200000000E+03 0. -1.
         -6    1    1    2    0  503  0.38513151126E+02  0.39798200894E+02  0.18306940653E+02  0.18162131945E+03  0.17200000000E+03 0. -1.
<mgrwt>
<rscale>  2 0.18069632E+03</rscale>
<asrwt>0</asrwt>
<pdfrwt beam="1">  1       21 0.13114132E+00 0.18069632E+03</pdfrwt>
<pdfrwt beam="2">  1       21 0.25220450E-01 0.18069632E+03</pdfrwt>
<totfact> 0.63584188E+03</totfact>
</mgrwt>
</event>
<event>
 4    1  0.1115666E+000  0.2858953E+03  0.7546771E-02  0.1092512E+00
         21   -1    0    0  501  502  0.00000000000E+00  0.00000000000E+00  0.65877537743E+03  0.65877537743E+03  0.00000000000E+00 0. -1.
         21   -1    0    0  502  503 -0.00000000000E+00 -0.00000000000E+00 -0.15085462702E+03  0.15085462702E+03  0.00000000000E+00 0.  1.
          6    1    1    2  501    0 -0.17544587841E+03  0.14618772482E+03  0.42452829899E+03  0.51182065588E+03  0.17200000000E+03 0. -1.
         -6    1    1    2    0  503  0.17544587841E+03 -0.14618772482E+03  0.83392451424E+02  0.29780934857E+03  0.17200000000E+03 0. -1.
<mgrwt>
<rscale>  2 0.28589527E+03</rscale>
<asrwt>0</asrwt>
<pdfrwt beam="1">  1       21 0.16469384E+00 0.28589527E+03</pdfrwt>
<pdfrwt beam="2">  1       21 0.37713658E-01 0.28589527E+03</pdfrwt>
<totfact> 0.14588418E+03</totfact>
</mgrwt>
</event>
<event>
 4    1  0.1115666E+000  0.2274694E+03  0.7546771E-02  0.1128434E+00
         21   -1    0    0  501  502  0.00000000000E+00  0.00000000000E+00  0.58187232268E+03  0.58187232268E+03  0.00000000000E+00 0. -1.
         21   -1    0    0  502  503 -0.00000000000E+00 -0.00000000000E+00 -0.11576432197E+03  0.11576432197E+03  0.00000000000E+00 0.  1.
          6    1    1    2  501    0 -0.66644806377E+02  0.13310442474E+03  0.40101448635E+03  0.46103680587E+03  0.17200000000E+03 0. -1.
         -6    1    1    2    0  503  0.66644806377E+02 -0.13310442474E+03  0.65093514361E+02  0.23659983879E+03  0.17200000000E+03 0.  1.
<mgrwt>
<rscale>  2 0.22746938E+03</rscale>
<asrwt>0</asrwt>
<pdfrwt beam="1">  1       21 0.14546807E+00 0.22746938E+03</pdfrwt>
<pdfrwt beam="2">  1       21 0.28941082E-01 0.22746938E+03</pdfrwt>
<totfact> 0.35962929E+03</totfact>
</mgrwt>
</event>
<event>
 4    1  0.1115666E+000  0.1909584E+03  0.7546771E-02  0.1157600E+00
         21   -1    0    0  501  502  0.00000000000E+00  0.00000000000E+00  0.82032410549E+03  0.82032410549E+03  0.00000000000E+00 0. -1.
         21   -1    0    0  502  503 -0.00000000000E+00 -0.00000000000E+00 -0.60563829547E+02  0.60563829547E+02  0.00000000000E+00 0. -1.
          6    1    1    2  501    0 -0.79565038051E+02 -0.23463297297E+02  0.60705235049E+03  0.63637856487E+03  0.17200000000E+03 0. -1.
         -6    1    1    2    0  503  0.79565038051E+02  0.23463297297E+02  0.15270792546E+03  0.24450937016E+03  0.17200000000E+03 0. -1.
<mgrwt>
<rscale>  2 0.19095843E+03</rscale>
<asrwt>0</asrwt>
<pdfrwt beam="1">  1       21 0.20508099E+00 0.19095843E+03</pdfrwt>
<pdfrwt beam="2">  1       21 0.15140960E-01 0.19095843E+03</pdfrwt>
<totfact> 0.48137498E+03</totfact>
</mgrwt>
</event>
<event>
 4    1  0.1115666E+000  0.2035946E+03  0.7546771E-02  0.1146741E+00
         21   -1    0    0  501  502  0.00000000000E+00  0.00000000000E+00  0.19464517409E+03  0.19464517409E+03  0.00000000000E+00 0. -1.
         21   -1    0    0  502  503 -0.00000000000E+00 -0.00000000000E+00 -0.25709412335E+03  0.25709412335E+03  0.00000000000E+00 0. -1.
          6    1    1    2  501    0  0.10049635429E+03 -0.42038621079E+02  0.62363732989E+02  0.21293190949E+03  0.17200000000E+03 0. -1.
         -6    1    1    2    0  503 -0.10049635429E+03  0.42038621079E+02 -0.12481268226E+03  0.23880738795E+03  0.17200000000E+03 0. -1.
<mgrwt>
<rscale>  2 0.20359460E+03</rscale>
<asrwt>0</asrwt>
<pdfrwt beam="1">  1       21 0.48661294E-01 0.20359460E+03</pdfrwt>
<pdfrwt beam="2">  1       21 0.64273531E-01 0.20359460E+03</pdfrwt>
<totfact> 0.89357095E+03</totfact>
</mgrwt>
</event>
<event>
 4    1  0.1115666E+000  0.1724214E+03  0.7546771E-02  0.1175346E+00
         21   -1    0    0  503  502  0.00000000000E+00  0.00000000000E+00  0.48677346874E+03  0.48677346874E+03  0.00000000000E+00 0. -1.
         21   -1    0    0  501  503 -0.00000000000E+00 -0.00000000000E+00 -0.76709966410E+02  0.76709966410E+02  0.00000000000E+00 0. -1.
          6    1    1    2  501    0 -0.11759259378E+02 -0.26220617111E+01  0.77831204007E+02  0.18917413065E+03  0.17200000000E+03 0. -1.
         -6    1    1    2    0  502  0.11759259378E+02  0.26220617111E+01  0.33223229832E+03  0.37430930450E+03  0.17200000000E+03 0. -1.
<mgrwt>
<rscale>  2 0.17242145E+03</rscale>
<asrwt>0</asrwt>
<pdfrwt beam="1">  1       21 0.12169336E+00 0.17242145E+03</pdfrwt>
<pdfrwt beam="2">  1       21 0.19177493E-01 0.17242145E+03</pdfrwt>
<totfact> 0.12915977E+04</totfact>
</mgrwt>
</event>
<event>
 4    1  0.1115666E+000  0.2522583E+03  0.7546771E-02  0.1111886E+00
         21   -1    0    0  503  502  0.00000000000E+00  0.00000000000E+00  0.71057748098E+03  0.71057748098E+03  0.00000000000E+00 0. -1.
         21   -1    0    0  501  503 -0.00000000000E+00 -0.00000000000E+00 -0.10614637962E+03  0.10614637962E+03  0.00000000000E+00 0.  1.
          6    1    1    2  501    0  0.52103132191E+01 -0.18445358769E+03  0.14075686926E+03  0.28887154519E+03  0.17200000000E+03 0.  1.
         -6    1    1    2    0  502 -0.52103132191E+01  0.18445358769E+03  0.46367423210E+03  0.52785231542E+03  0.17200000000E+03 0. -1.
<mgrwt>
<rscale>  2 0.25225835E+03</rscale>
<asrwt>0</asrwt>
<pdfrwt beam="1">  1       21 0.17764436E+00 0.25225835E+03</pdfrwt>
<pdfrwt beam="2">  1       21 0.26536597E-01 0.25225835E+03</pdfrwt>
<totfact> 0.24230062E+03</totfact>
</mgrwt>
</event>
<event>
 4    1  0.1115666E+000  0.2180867E+03  0.7546771E-02  0.1135318E+00
         21   -1    0    0  501  502  0.00000000000E+00  0.00000000000E+00  0.16699490941E+03  0.16699490941E+03  0.00000000000E+00 0. -1.
         21   -1    0    0  502  503 -0.00000000000E+00 -0.00000000000E+00 -0.28498398776E+03  0.28498398776E+03  0.00000000000E+00 0. -1.
          6    1    1    2  501    0  0.20257466539E+02  0.13254222044E+03 -0.64579875688E+02  0.22744750052E+03  0.17200000000E+03 0. -1.
         -6    1    1    2    0  503 -0.20257466539E+02 -0.13254222044E+03 -0.53409202663E+02  0.22453139665E+03  0.17200000000E+03 0. -1.
<mgrwt>
<rscale>  2 0.21808669E+03</rscale>
<asrwt>0</asrwt>
<pdfrwt beam="1">  1       21 0.41748728E-01 0.21808669E+03</pdfrwt>
<pdfrwt beam="2">  1       21 0.71245997E-01 0.21808669E+03</pdfrwt>
<totfact> 0.96753307E+03</totfact>
</mgrwt>
</event>
<event>
 4    1  0.1115666E+000  0.4459602E+03  0.7546771E-02  0.1028934E+00
         21   -1    0    0  501  502  0.00000000000E+00  0.00000000000E+00  0.42331926314E+03  0.42331926314E+03  0.00000000000E+00 0.  1.
         21   -1    0    0  502  503 -0.00000000000E+00 -0.00000000000E+00 -0.11704507745E+04  0.11704507745E+04  0.00000000000E+00 0. -1.
          6    1    1    2  501    0  0.33528948554E+03  0.23848998408E+03  0.24298117350E+03  0.50785860463E+03  0.17200000000E+03 0.  1.
         -6    1    1    2    0  503 -0.33528948554E+03 -0.23848998408E+03 -0.99011268489E+03  0.10859114330E+04  0.17200000000E+03 0. -1.
<mgrwt>
<rscale>  2 0.44596021E+03</rscale>
<asrwt>0</asrwt>
<pdfrwt beam="1">  1       21 0.10582982E+00 0.44596021E+03</pdfrwt>
<pdfrwt beam="2">  1       21 0.29261269E+00 0.44596021E+03</pdfrwt>
<totfact> 0.20256051E+01</totfact>
</mgrwt>
</event>
<event>
 4    1  0.1115666E+000  0.2739978E+03  0.7546771E-02  0.1099013E+00
         21   -1    0    0  503  502  0.00000000000E+00  0.00000000000E+00  0.10046896143E+03  0.10046896143E+03  0.00000000000E+00 0. -1.
         21   -1    0    0  501  503 -0.00000000000E+00 -0.00000000000E+00 -0.75549965644E+03  0.75549965644E+03  0.00000000000E+00 0.  1.
          6    1    1    2  501    0  0.17033411213E+03 -0.12836310072E+03 -0.28277542599E+03  0.39374704688E+03  0.17200000000E+03 0.  1.
         -6    1    1    2    0  502 -0.17033411213E+03  0.12836310072E+03 -0.37225526902E+03  0.46222157100E+03  0.17200000000E+03 0. -1.
<mgrwt>
<rscale>  2 0.27399780E+03</rscale>
<asrwt>0</asrwt>
<pdfrwt beam="1">  1       21 0.25117241E-01 0.27399780E+03</pdfrwt>
<pdfrwt beam="2">  1       21 0.18887491E+00 0.27399780E+03</pdfrwt>
<totfact> 0.22222643E+03</totfact>
</mgrwt>
</event>
<event>
 4    1  0.1115666E+000  0.1762339E+03  0.7546771E-02  0.1171498E+00
         21   -1    0    0  503  502  0.00000000000E+00  0.00000000000E+00  0.51243464529E+03  0.51243464529E+03  0.00000000000E+00 0.  1.
         21   -1    0    0  501  503 -0.00000000000E+00 -0.00000000000E+00 -0.18282016778E+03  0.18282016778E+03  0.00000000000E+00 0.  1.
          6    1    1    2  501    0  0.33772802709E+02 -0.18269536373E+02 -0.11941405865E+03  0.21288047249E+03  0.17200000000E+03 0.  1.
         -6    1    1    2    0  502 -0.33772802709E+02  0.18269536373E+02  0.44902853617E+03  0.48237434058E+03  0.17200000000E+03 0.  1.
<mgrwt>
<rscale>  2 0.17623387E+03</rscale>
<asrwt>0</asrwt>
<pdfrwt beam="1">  1       21 0.12810866E+00 0.17623387E+03</pdfrwt>
<pdfrwt beam="2">  1       21 0.45705043E-01 0.17623387E+03</pdfrwt>
<totfact> 0.20911620E+03</totfact>
</mgrwt>
</event>
<event>
 4    1  0.1115666E+000  0.2564699E+03  0.7546771E-02  0.1109283E+00
         21   -1    0    0  501  502  0.00000000000E+00  0.00000000000E+00  0.30193429254E+03  0.30193429254E+03  0.00000000000E+00 0. -1.
         21   -1    0    0  502  503 -0.00000000000E+00 -0.00000000000E+00 -0.29654940758E+03  0.29654940758E+03  0.00000000000E+00 0. -1.
          6    1    1    2  501    0  0.18940910935E+03 -0.17804100809E+02  0.15684678939E+03  0.30062886098E+03  0.17200000000E+03 0. -1.
         -6    1    1    2    0  503 -0.18940910935E+03  0.17804100809E+02 -0.15146190443E+03  0.29785483915E+03  0.17200000000E+03 0. -1.
<mgrwt>
<rscale>  2 0.25646987E+03</rscale>
<asrwt>0</asrwt>
<pdfrwt beam="1">  1       21 0.75483573E-01 0.25646987E+03</pdfrwt>
<pdfrwt beam="2">  1       21 0.74137352E-01 0.25646987E+03</pdfrwt>
<totfact> 0.24334980E+03</totfact>
</mgrwt>
</event>
<event>
 4    1  0.1115666E+000  0.2212136E+03  0.7546771E-02  0.1132982E+00
         21   -1    0    0  503  502  0.00000000000E+00  0.00000000000E+00  0.28249954899E+03  0.28249954899E+03  0.00000000000E+00 0.  1.
         21   -1    0    0  501  503 -0.00000000000E+00 -0.00000000000E+00 -0.32965724629E+03  0.32965724629E+03  0.00000000000E+00 0.  1.
          6    1    1    2  501    0  0.13351328546E+03 -0.39059564758E+02 -0.23442571321E+03  0.32232105425E+03  0.17200000000E+03 0.  1.
         -6    1    1    2    0  502 -0.13351328546E+03  0.39059564758E+02  0.18726801591E+03  0.28983574103E+03  0.17200000000E+03 0.  1.
<mgrwt>
<rscale>  2 0.22121358E+03</rscale>
<asrwt>0</asrwt>
<pdfrwt beam="1">  1       21 0.70624888E-01 0.22121358E+03</pdfrwt>
<pdfrwt beam="2">  1       21 0.82414311E-01 0.22121358E+03</pdfrwt>
<totfact> 0.22800133E+03</totfact>
</mgrwt>
</event>
<event>
 4    1  0.1115666E+000  0.2070811E+03  0.7546771E-02  0.1143899E+00
         21   -1    0    0  503  502  0.00000000000E+00  0.00000000000E+00  0.97786962474E+03  0.97786962474E+03  0.00000000000E+00 0. -1.
         21   -1    0    0  501  503 -0.00000000000E+00 -0.00000000000E+00 -0.46533579411E+02  0.46533579411E+02  0.00000000000E+00 0. -1.
          6    1    1    2  501    0 -0.38962967595E+02  0.10853779216E+03  0.58860089299E+03  0.62396600580E+03  0.17200000000E+03 0. -1.
         -6    1    1    2    0  502  0.38962967595E+02 -0.10853779216E+03  0.34273515234E+03  0.40043719835E+03  0.17200000000E+03 0. -1.
<mgrwt>
<rscale>  2 0.20708106E+03</rscale>
<asrwt>0</asrwt>
<pdfrwt beam="1">  1       21 0.24446734E+00 0.20708106E+03</pdfrwt>
<pdfrwt beam="2">  1       21 0.11633398E-01 0.20708106E+03</pdfrwt>
<totfact> 0.43815140E+03</totfact>
</mgrwt>
</event>
<event>
 4    1  0.1115666E+000  0.3409761E+03  0.7546771E-02  0.1066381E+00
         21   -1    0    0  503  502  0.00000000000E+00  0.00000000000E+00  0.42312339052E+03  0.42312339052E+03  0.00000000000E+00 0.  1.
         21   -1    0    0  501  503 -0.00000000000E+00 -0.00000000000E+00 -0.31683245534E+03  0.31683245534E+03  0.00000000000E+00 0.  1.
          6    1    1    2  501    0  0.10847271649E+03 -0.27370493736E+03 -0.81648467891E+02  0.35061545213E+03  0.17200000000E+03 0.  1.
         -6    1    1    2    0  502 -0.10847271649E+03  0.27370493736E+03  0.18793940307E+03  0.38934039373E+03  0.17200000000E+03 0.  1.
<mgrwt>
<rscale>  2 0.34097613E+03</rscale>
<asrwt>0</asrwt>
<pdfrwt beam="1">  1       21 0.10578085E+00 0.34097613E+03</pdfrwt>
<pdfrwt beam="2">  1       21 0.79208114E-01 0.34097613E+03</pdfrwt>
<totfact> 0.90175010E+02</totfact>
</mgrwt>
</event>
<event>
 4    1  0.1115666E+000  0.1723398E+03  0.7546771E-02  0.1175430E+00
         21   -1    0    0  503  502  0.00000000000E+00  0.00000000000E+00  0.15806763860E+03  0.15806763860E+03  0.00000000000E+00 0.  1.
         21   -1    0    0  501  503 -0.00000000000E+00 -0.00000000000E+00 -0.28887554929E+03  0.28887554929E+03  0.00000000000E+00 0.  1.
          6    1    1    2  501    0 -0.47146642655E+00  0.10806863506E+02 -0.19752550799E+03  0.26213991853E+03  0.17200000000E+03 0.  1.
         -6    1    1    2    0  502  0.47146642655E+00 -0.10806863506E+02  0.66717597295E+02  0.18480326937E+03  0.17200000000E+03 0.  1.
<mgrwt>
<rscale>  2 0.17233981E+03</rscale>
<asrwt>0</asrwt>
<pdfrwt beam="1">  1       21 0.39516910E-01 0.17233981E+03</pdfrwt>
<pdfrwt beam="2">  1       21 0.72218887E-01 0.17233981E+03</pdfrwt>
<totfact> 0.10828065E+04</totfact>
</mgrwt>
</event>
<event>
 4    1  0.1115666E+000  0.1838283E+03  0.7546771E-02  0.1164149E+00
         21   -1    0    0  501  502  0.00000000000E+00  0.00000000000E+00  0.29823810714E+03  0.29823810714E+03  0.00000000000E+00 0. -1.
         21   -1    0    0  502  503 -0.00000000000E+00 -0.00000000000E+00 -0.23367945318E+03  0.23367945318E+03  0.00000000000E+00 0. -1.
          6    1    1    2  501    0  0.11847795727E+02 -0.63784546379E+02  0.22316149787E+03  0.28912608452E+03  0.17200000000E+03 0. -1.
         -6    1    1    2    0  503 -0.11847795727E+02  0.63784546379E+02 -0.15860284391E+03  0.24279147579E+03  0.17200000000E+03 0. -1.
<mgrwt>
<rscale>  2 0.18382829E+03</rscale>
<asrwt>0</asrwt>
<pdfrwt beam="1">  1       21 0.74559526E-01 0.18382829E+03</pdfrwt>
<pdfrwt beam="2">  1       21 0.58419864E-01 0.18382829E+03</pdfrwt>
<totfact> 0.44514538E+03</totfact>
</mgrwt>
</event>
<event>
 4    1  0.1115666E+000  0.2104079E+03  0.7546771E-02  0.1141243E+00
         21   -1    0    0  501  502  0.00000000000E+00  0.00000000000E+00  0.52790299502E+03  0.52790299502E+03  0.00000000000E+00 0.  1.
         21   -1    0    0  502  503 -0.00000000000E+00 -0.00000000000E+00 -0.10874356275E+03  0.10874356275E+03  0.00000000000E+00 0.  1.
          6    1    1    2  501    0 -0.77273852015E+02  0.93360716473E+02  0.57315564387E+02  0.21807463288E+03  0.17200000000E+03 0.  1.
         -6    1    1    2    0  503  0.77273852015E+02 -0.93360716473E+02  0.36184386788E+03  0.41857192489E+03  0.17200000000E+03 0.  1.
<mgrwt>
<rscale>  2 0.21040787E+03</rscale>
<asrwt>0</asrwt>
<pdfrwt beam="1">  1       21 0.13197574E+00 0.21040787E+03</pdfrwt>
<pdfrwt beam="2">  1       21 0.27185892E-01 0.21040787E+03</pdfrwt>
<totfact> 0.52909923E+03</totfact>
</mgrwt>
</event>
<event>
 4    1  0.1115666E+000  0.1859926E+03  0.7546771E-02  0.1162126E+00
         21   -1    0    0  503  502  0.00000000000E+00  0.00000000000E+00  0.80052542352E+03  0.80052542352E+03  0.00000000000E+00 0. -1.
         21   -1    0    0  501  503 -0.00000000000E+00 -0.00000000000E+00 -0.84339031990E+02  0.84339031990E+02  0.00000000000E+00 0. -1.
          6    1    1    2  501    0  0.34367648395E+02  0.61871703175E+02  0.49141954700E+02  0.19237508836E+03  0.17200000000E+03 0. -1.
         -6    1    1    2    0  502 -0.34367648395E+02 -0.61871703175E+02  0.66704443683E+03  0.69248936715E+03  0.17200000000E+03 0. -1.
<mgrwt>
<rscale>  2 0.18599259E+03</rscale>
<asrwt>0</asrwt>
<pdfrwt beam="1">  1       21 0.20013133E+00 0.18599259E+03</pdfrwt>
<pdfrwt beam="2">  1       21 0.21084760E-01 0.18599259E+03</pdfrwt>
<totfact> 0.28210058E+03</totfact>
</mgrwt>
</event>
<event>
 4    1  0.1115666E+000  0.1723065E+03  0.7546771E-02  0.1175464E+00
         21   -1    0    0  503  502  0.00000000000E+00  0.00000000000E+00  0.57240267140E+03  0.57240267140E+03  0.00000000000E+00 0. -1.
         21   -1    0    0  501  503 -0.00000000000E+00 -0.00000000000E+00 -0.96411565051E+02  0.96411565051E+02  0.00000000000E+00 0. -1.
          6    1    1    2  501    0 -0.10260246472E+02  0.49402591622E+00  0.10694062475E+02  0.17263800188E+03  0.17200000000E+03 0. -1.
         -6    1    1    2    0  502  0.10260246472E+02 -0.49402591622E+00  0.46529704387E+03  0.49617623457E+03  0.17200000000E+03 0. -1.
<mgrwt>
<rscale>  2 0.17230646E+03</rscale>
<asrwt>0</asrwt>
<pdfrwt beam="1">  1       21 0.14310066E+00 0.17230646E+03</pdfrwt>
<pdfrwt beam="2">  1       21 0.24102893E-01 0.17230646E+03</pdfrwt>
<totfact> 0.55859283E+03</totfact>
</mgrwt>
</event>
<event>
 4    1  0.1115666E+000  0.1732630E+03  0.7546771E-02  0.1174487E+00
         21   -1    0    0  503  502  0.00000000000E+00  0.00000000000E+00  0.28073887457E+02  0.28073887457E+02  0.00000000000E+00 0. -1.
         21   -1    0    0  501  503 -0.00000000000E+00 -0.00000000000E+00 -0.13187739109E+04  0.13187739109E+04  0.00000000000E+00 0. -1.
          6    1    1    2  501    0 -0.14610981986E+02  0.14918889708E+02 -0.93823417063E+03  0.95409821979E+03  0.17200000000E+03 0. -1.
         -6    1    1    2    0  502  0.14610981986E+02 -0.14918889708E+02 -0.35246585279E+03  0.39274957854E+03  0.17200000000E+03 0. -1.
<mgrwt>
<rscale>  2 0.17326296E+03</rscale>
<asrwt>0</asrwt>
<pdfrwt beam="1">  1       21 0.70184722E-02 0.17326296E+03</pdfrwt>
<pdfrwt beam="2">  1       21 0.32969346E+00 0.17326296E+03</pdfrwt>
<totfact> 0.35533369E+03</totfact>
</mgrwt>
</event>
<event>
 4    1  0.1115666E+000  0.2219546E+03  0.7546771E-02  0.1132434E+00
         21   -1    0    0  501  502  0.00000000000E+00  0.00000000000E+00  0.24404745598E+03  0.24404745598E+03  0.00000000000E+00 0.  1.
         21   -1    0    0  502  503 -0.00000000000E+00 -0.00000000000E+00 -0.24333383553E+03  0.24333383553E+03  0.00000000000E+00 0. -1.
          6    1    1    2  501    0 -0.57933316221E+02  0.12776380048E+03  0.10096082293E+03  0.24383794948E+03  0.17200000000E+03 0. -1.
         -6    1    1    2    0  503  0.57933316221E+02 -0.12776380048E+03 -0.10024720248E+03  0.24354334203E+03  0.17200000000E+03 0. -1.
<mgrwt>
<rscale>  2 0.22195463E+03</rscale>
<asrwt>0</asrwt>
<pdfrwt beam="1">  1       21 0.61011864E-01 0.22195463E+03</pdfrwt>
<pdfrwt beam="2">  1       21 0.60833459E-01 0.22195463E+03</pdfrwt>
<totfact> 0.61561183E+03</totfact>
</mgrwt>
</event>
<event>
 4    1  0.1115666E+000  0.2059830E+03  0.7546771E-02  0.1144787E+00
         21   -1    0    0  503  502  0.00000000000E+00  0.00000000000E+00  0.94525777281E+02  0.94525777281E+02  0.00000000000E+00 0.  1.
         21   -1    0    0  501  503 -0.00000000000E+00 -0.00000000000E+00 -0.10968740064E+04  0.10968740064E+04  0.00000000000E+00 0.  1.
          6    1    1    2  501    0 -0.87057676169E+02  0.72566983655E+02 -0.95904260562E+03  0.98091371970E+03  0.17200000000E+03 0.  1.
         -6    1    1    2    0  502  0.87057676169E+02 -0.72566983655E+02 -0.43305623475E+02  0.21048606396E+03  0.17200000000E+03 0.  1.
<mgrwt>
<rscale>  2 0.20598302E+03</rscale>
<asrwt>0</asrwt>
<pdfrwt beam="1">  1       21 0.23631445E-01 0.20598302E+03</pdfrwt>
<pdfrwt beam="2">  1       21 0.27421850E+00 0.20598302E+03</pdfrwt>
<totfact> 0.79648939E+02</totfact>
</mgrwt>
</event>
<event>
 4    1  0.1115666E+000  0.2111508E+03  0.7546771E-02  0.1140658E+00
         21   -1    0    0  501  502  0.00000000000E+00  0.00000000000E+00  0.53086881793E+02  0.53086881793E+02  0.00000000000E+00 0.  1.
         21   -1    0    0  502  503 -0.00000000000E+00 -0.00000000000E+00 -0.14353706557E+04  0.14353706557E+04  0.00000000000E+00 0. -1.
          6    1    1    2  501    0  0.42407936104E+02  0.11490101633E+03 -0.21176710933E+03  0.29904846629E+03  0.17200000000E+03 0.  1.
         -6    1    1    2    0  503 -0.42407936104E+02 -0.11490101633E+03 -0.11705166646E+04  0.11894090712E+04  0.17200000000E+03 0. -1.
<mgrwt>
<rscale>  2 0.21115084E+03</rscale>
<asrwt>0</asrwt>
<pdfrwt beam="1">  1       21 0.13271720E-01 0.21115084E+03</pdfrwt>
<pdfrwt beam="2">  1       21 0.35884267E+00 0.21115084E+03</pdfrwt>
<totfact> 0.73897543E+02</totfact>
</mgrwt>
</event>
<event>
 4    1  0.1115666E+000  0.2500309E+03  0.7546771E-02  0.1113285E+00
         21   -1    0    0  503  502  0.00000000000E+00  0.00000000000E+00  0.39683270319E+03  0.39683270319E+03  0.00000000000E+00 0.  1.
         21   -1    0    0  501  503 -0.00000000000E+00 -0.00000000000E+00 -0.32343533832E+03  0.32343533832E+03  0.00000000000E+00 0. -1.
          6    1    1    2  501    0  0.26521327313E+02  0.17952184019E+03 -0.22122583475E+03  0.33385077785E+03  0.17200000000E+03 0. -1.
         -6    1    1    2    0  502 -0.26521327313E+02 -0.17952184019E+03  0.29462319962E+03  0.38641726367E+03  0.17200000000E+03 0.  1.
<mgrwt>
<rscale>  2 0.25003094E+03</rscale>
<asrwt>0</asrwt>
<pdfrwt beam="1">  1       21 0.99208176E-01 0.25003094E+03</pdfrwt>
<pdfrwt beam="2">  1       21 0.80858835E-01 0.25003094E+03</pdfrwt>
<totfact> 0.10671824E+03</totfact>
</mgrwt>
</event>
<event>
 4    1  0.1115666E+000  0.2303176E+03  0.7546771E-02  0.1126416E+00
         21   -1    0    0  501  502  0.00000000000E+00  0.00000000000E+00  0.47550502442E+02  0.47550502442E+02  0.00000000000E+00 0.  1.
         21   -1    0    0  502  503 -0.00000000000E+00 -0.00000000000E+00 -0.11222791525E+04  0.11222791525E+04  0.00000000000E+00 0.  1.
          6    1    1    2  501    0  0.96917547910E+02  0.11861356253E+03 -0.58256961194E+03  0.62644516206E+03  0.17200000000E+03 0.  1.
         -6    1    1    2    0  503 -0.96917547910E+02 -0.11861356253E+03 -0.49215903813E+03  0.54338449290E+03  0.17200000000E+03 0.  1.
<mgrwt>
<rscale>  2 0.23031758E+03</rscale>
<asrwt>0</asrwt>
<pdfrwt beam="1">  1       21 0.11887626E-01 0.23031758E+03</pdfrwt>
<pdfrwt beam="2">  1       21 0.28056978E+00 0.23031758E+03</pdfrwt>
<totfact> 0.25280225E+03</totfact>
</mgrwt>
</event>
<event>
 4    1  0.1115666E+000  0.1743427E+03  0.7546771E-02  0.1173393E+00
         21   -1    0    0  503  502  0.00000000000E+00  0.00000000000E+00  0.11856770190E+03  0.11856770190E+03  0.00000000000E+00 0.  1.
         21   -1    0    0  501  503 -0.00000000000E+00 -0.00000000000E+00 -0.59064595070E+03  0.59064595070E+03  0.00000000000E+00 0.  1.
          6    1    1    2  501    0  0.18166546082E+02  0.21940150860E+02 -0.50281462809E+03  0.53218224683E+03  0.17200000000E+03 0.  1.
         -6    1    1    2    0  502 -0.18166546082E+02 -0.21940150860E+02  0.30736379289E+02  0.17703140577E+03  0.17200000000E+03 0.  1.
<mgrwt>
<rscale>  2 0.17434275E+03</rscale>
<asrwt>0</asrwt>
<pdfrwt beam="1">  1       21 0.29641926E-01 0.17434275E+03</pdfrwt>
<pdfrwt beam="2">  1       21 0.14766149E+00 0.17434275E+03</pdfrwt>
<totfact> 0.34555189E+03</totfact>
</mgrwt>
</event>
<event>
 4    1  0.1115666E+000  0.1999768E+03  0.7546771E-02  0.1149759E+00
         21   -1    0    0  501  502  0.00000000000E+00  0.00000000000E+00  0.20649885323E+03  0.20649885323E+03  0.00000000000E+00 0. -1.
         21   -1    0    0  502  503 -0.00000000000E+00 -0.00000000000E+00 -0.36306305592E+03  0.36306305592E+03  0.00000000000E+00 0. -1.
          6    1    1    2  501    0 -0.95295563528E+02 -0.36407312637E+02  0.11624471702E+03  0.23130838955E+03  0.17200000000E+03 0. -1.
         -6    1    1    2    0  503  0.95295563528E+02  0.36407312637E+02 -0.27280891972E+03  0.33825351960E+03  0.17200000000E+03 0. -1.
<mgrwt>
<rscale>  2 0.19997684E+03</rscale>
<asrwt>0</asrwt>
<pdfrwt beam="1">  1       21 0.51624714E-01 0.19997684E+03</pdfrwt>
<pdfrwt beam="2">  1       21 0.90765763E-01 0.19997684E+03</pdfrwt>
<totfact> 0.36494107E+03</totfact>
</mgrwt>
</event>
<event>
 4    1  0.1115666E+000  0.2263279E+03  0.7546771E-02  0.1129251E+00
         21   -1    0    0  503  502  0.00000000000E+00  0.00000000000E+00  0.54923930252E+03  0.54923930252E+03  0.00000000000E+00 0.  1.
         21   -1    0    0  501  503 -0.00000000000E+00 -0.00000000000E+00 -0.14043804626E+03  0.14043804626E+03  0.00000000000E+00 0.  1.
          6    1    1    2  501    0 -0.14289772848E+03  0.34936800600E+02  0.45413030397E+01  0.22637350612E+03  0.17200000000E+03 0.  1.
         -6    1    1    2    0  502  0.14289772848E+03 -0.34936800600E+02  0.40425995322E+03  0.46330384266E+03  0.17200000000E+03 0.  1.
<mgrwt>
<rscale>  2 0.22632795E+03</rscale>
<asrwt>0</asrwt>
<pdfrwt beam="1">  1       21 0.13730982E+00 0.22632795E+03</pdfrwt>
<pdfrwt beam="2">  1       21 0.35109513E-01 0.22632795E+03</pdfrwt>
<totfact> 0.28590452E+03</totfact>
</mgrwt>
</event>
<event>
 4    1  0.1115666E+000  0.3235692E+03  0.7546771E-02  0.1074018E+00
         21   -1    0    0  501  502  0.00000000000E+00  0.00000000000E+00  0.34794194701E+03  0.34794194701E+03  0.00000000000E+00 0. -1.
         21   -1    0    0  502  503 -0.00000000000E+00 -0.00000000000E+00 -0.33065366345E+03  0.33065366345E+03  0.00000000000E+00 0. -1.
          6    1    1    2  501    0  0.34637114368E+02  0.27187000159E+03 -0.93129994863E+02  0.33670495006E+03  0.17200000000E+03 0. -1.
         -6    1    1    2    0  503 -0.34637114368E+02 -0.27187000159E+03  0.11041827843E+03  0.34189066040E+03  0.17200000000E+03 0. -1.
<mgrwt>
<rscale>  2 0.32356920E+03</rscale>
<asrwt>0</asrwt>
<pdfrwt beam="1">  1       21 0.86985487E-01 0.32356920E+03</pdfrwt>
<pdfrwt beam="2">  1       21 0.82663416E-01 0.32356920E+03</pdfrwt>
<totfact> 0.13169000E+03</totfact>
</mgrwt>
</event>
<event>
 4    1  0.1115666E+000  0.2170323E+03  0.7546771E-02  0.1136115E+00
         21   -1    0    0  503  502  0.00000000000E+00  0.00000000000E+00  0.23221773311E+03  0.23221773311E+03  0.00000000000E+00 0.  1.
         21   -1    0    0  501  503 -0.00000000000E+00 -0.00000000000E+00 -0.23881393569E+03  0.23881393569E+03  0.00000000000E+00 0. -1.
          6    1    1    2  501    0 -0.12929986947E+03  0.28294481988E+02  0.88109969278E+02  0.23423578002E+03  0.17200000000E+03 0. -1.
         -6    1    1    2    0  502  0.12929986947E+03 -0.28294481988E+02 -0.94706171861E+02  0.23679588878E+03  0.17200000000E+03 0.  1.
<mgrwt>
<rscale>  2 0.21703233E+03</rscale>
<asrwt>0</asrwt>
<pdfrwt beam="1">  1       21 0.58054433E-01 0.21703233E+03</pdfrwt>
<pdfrwt beam="2">  1       21 0.59703484E-01 0.21703233E+03</pdfrwt>
<totfact> 0.71571849E+03</totfact>
</mgrwt>
</event>
<event>
 4    1  0.1115666E+000  0.2102135E+03  0.7546771E-02  0.1141397E+00
         21   -1    0    0  503  502  0.00000000000E+00  0.00000000000E+00  0.18027395171E+03  0.18027395171E+03  0.00000000000E+00 0.  1.
         21   -1    0    0  501  503 -0.00000000000E+00 -0.00000000000E+00 -0.28727952699E+03  0.28727952699E+03  0.00000000000E+00 0.  1.
          6    1    1    2  501    0 -0.63138852096E+02  0.10304948148E+03 -0.14305357634E+03  0.25427157919E+03  0.17200000000E+03 0.  1.
         -6    1    1    2    0  502  0.63138852096E+02 -0.10304948148E+03  0.36048001064E+02  0.21328189951E+03  0.17200000000E+03 0.  1.
<mgrwt>
<rscale>  2 0.21021349E+03</rscale>
<asrwt>0</asrwt>
<pdfrwt beam="1">  1       21 0.45068488E-01 0.21021349E+03</pdfrwt>
<pdfrwt beam="2">  1       21 0.71819881E-01 0.21021349E+03</pdfrwt>
<totfact> 0.81681885E+03</totfact>
</mgrwt>
</event>
<event>
 4    1  0.1115666E+000  0.3319904E+03  0.7546771E-02  0.1070260E+00
         21   -1    0    0  503  502  0.00000000000E+00  0.00000000000E+00  0.91019209238E+03  0.91019209238E+03  0.00000000000E+00 0. -1.
         21   -1    0    0  501  503 -0.00000000000E+00 -0.00000000000E+00 -0.12116142556E+03  0.12116142556E+03  0.00000000000E+00 0.  1.
          6    1    1    2  501    0 -0.70992678021E+02  0.27494297723E+03  0.38223208412E+03  0.50627953464E+03  0.17200000000E+03 0. -1.
         -6    1    1    2    0  502  0.70992678021E+02 -0.27494297723E+03  0.40679858269E+03  0.52507398330E+03  0.17200000000E+03 0.  1.
<mgrwt>
<rscale>  2 0.33199036E+03</rscale>
<asrwt>0</asrwt>
<pdfrwt beam="1">  1       21 0.22754800E+00 0.33199036E+03</pdfrwt>
<pdfrwt beam="2">  1       21 0.30290359E-01 0.33199036E+03</pdfrwt>
<totfact> 0.83426729E+02</totfact>
</mgrwt>
</event>
<event>
 4    1  0.1115666E+000  0.1998554E+03  0.7546771E-02  0.1149861E+00
         21   -1    0    0  501  502  0.00000000000E+00  0.00000000000E+00  0.57975883488E+03  0.57975883488E+03  0.00000000000E+00 0.  1.
         21   -1    0    0  502  503 -0.00000000000E+00 -0.00000000000E+00 -0.17681986206E+03  0.17681986206E+03  0.00000000000E+00 0.  1.
          6    1    1    2  501    0  0.13647687933E+02  0.10085594329E+03  0.49701229507E+03  0.53568965094E+03  0.17200000000E+03 0.  1.
         -6    1    1    2    0  503 -0.13647687933E+02 -0.10085594329E+03 -0.94073322253E+02  0.22088904600E+03  0.17200000000E+03 0.  1.
<mgrwt>
<rscale>  2 0.19985540E+03</rscale>
<asrwt>0</asrwt>
<pdfrwt beam="1">  1       21 0.14493970E+00 0.19985540E+03</pdfrwt>
<pdfrwt beam="2">  1       21 0.44204967E-01 0.19985540E+03</pdfrwt>
<totfact> 0.15960887E+03</totfact>
</mgrwt>
</event>
<event>
 4    1  0.1115666E+000  0.2060112E+03  0.7546771E-02  0.1144764E+00
         21   -1    0    0  501  502  0.00000000000E+00  0.00000000000E+00  0.35938454527E+03  0.35938454527E+03  0.00000000000E+00 0. -1.
         21   -1    0    0  502  503 -0.00000000000E+00 -0.00000000000E+00 -0.12185361505E+03  0.12185361505E+03  0.00000000000E+00 0.  1.
          6    1    1    2  501    0 -0.50686282841E+02  0.10142730814E+03  0.16103939136E+03  0.26148476758E+03  0.17200000000E+03 0. -1.
         -6    1    1    2    0  503  0.50686282841E+02 -0.10142730814E+03  0.76491538867E+02  0.21975339275E+03  0.17200000000E+03 0.  1.
<mgrwt>
<rscale>  2 0.20601116E+03</rscale>
<asrwt>0</asrwt>
<pdfrwt beam="1">  1       21 0.89846134E-01 0.20601116E+03</pdfrwt>
<pdfrwt beam="2">  1       21 0.30463405E-01 0.20601116E+03</pdfrwt>
<totfact> 0.10809031E+04</totfact>
</mgrwt>
</event>
<event>
 4    1  0.1115666E+000  0.1895925E+03  0.7546771E-02  0.1158829E+00
         21   -1    0    0  503  502  0.00000000000E+00  0.00000000000E+00  0.18920040171E+03  0.18920040171E+03  0.00000000000E+00 0.  1.
         21   -1    0    0  501  503 -0.00000000000E+00 -0.00000000000E+00 -0.29539004359E+03  0.29539004359E+03  0.00000000000E+00 0. -1.
          6    1    1    2  501    0  0.79719550703E+02 -0.24707160677E+01 -0.19783090798E+03  0.27401164091E+03  0.17200000000E+03 0. -1.
         -6    1    1    2    0  502 -0.79719550703E+02  0.24707160677E+01  0.91641266101E+02  0.21057880438E+03  0.17200000000E+03 0.  1.
<mgrwt>
<rscale>  2 0.18959249E+03</rscale>
<asrwt>0</asrwt>
<pdfrwt beam="1">  1       21 0.47300101E-01 0.18959249E+03</pdfrwt>
<pdfrwt beam="2">  1       21 0.73847511E-01 0.18959249E+03</pdfrwt>
<totfact> 0.70533370E+03</totfact>
</mgrwt>
</event>
<event>
 4    1  0.1115666E+000  0.1758189E+03  0.7546771E-02  0.1171912E+00
         21   -1    0    0  503  502  0.00000000000E+00  0.00000000000E+00  0.29240993153E+03  0.29240993153E+03  0.00000000000E+00 0.  1.
         21   -1    0    0  501  503 -0.00000000000E+00 -0.00000000000E+00 -0.10834698317E+03  0.10834698317E+03  0.00000000000E+00 0.  1.
          6    1    1    2  501    0  0.27485522042E+02  0.23933727926E+02  0.60803871575E+02  0.18603598591E+03  0.17200000000E+03 0.  1.
         -6    1    1    2    0  502 -0.27485522042E+02 -0.23933727926E+02  0.12325907678E+03  0.21472092880E+03  0.17200000000E+03 0.  1.
<mgrwt>
<rscale>  2 0.17581888E+03</rscale>
<asrwt>0</asrwt>
<pdfrwt beam="1">  1       21 0.73102481E-01 0.17581888E+03</pdfrwt>
<pdfrwt beam="2">  1       21 0.27086746E-01 0.17581888E+03</pdfrwt>
<totfact> 0.22084127E+04</totfact>
</mgrwt>
</event>
<event>
 4    1  0.1115666E+000  0.1935743E+03  0.7546771E-02  0.1155276E+00
         21   -1    0    0  503  502  0.00000000000E+00  0.00000000000E+00  0.18386268457E+03  0.18386268457E+03  0.00000000000E+00 0. -1.
         21   -1    0    0  501  503 -0.00000000000E+00 -0.00000000000E+00 -0.22628913523E+03  0.22628913523E+03  0.00000000000E+00 0. -1.
          6    1    1    2  501    0  0.61143904741E+02 -0.64408459385E+02 -0.85864793985E+02  0.21176352276E+03  0.17200000000E+03 0. -1.
         -6    1    1    2    0  502 -0.61143904741E+02  0.64408459385E+02  0.43438343322E+02  0.19838829703E+03  0.17200000000E+03 0. -1.
<mgrwt>
<rscale>  2 0.19357434E+03</rscale>
<asrwt>0</asrwt>
<pdfrwt beam="1">  1       21 0.45965672E-01 0.19357434E+03</pdfrwt>
<pdfrwt beam="2">  1       21 0.56572283E-01 0.19357434E+03</pdfrwt>
<totfact> 0.13321167E+04</totfact>
</mgrwt>
</event>
<event>
 4    1  0.1115666E+000  0.1959281E+03  0.7546771E-02  0.1153221E+00
         21   -1    0    0  501  502  0.00000000000E+00  0.00000000000E+00  0.54806836952E+03  0.54806836952E+03  0.00000000000E+00 0. -1.
         21   -1    0    0  502  503 -0.00000000000E+00 -0.00000000000E+00 -0.86478107968E+02  0.86478107968E+02  0.00000000000E+00 0. -1.
          6    1    1    2  501    0 -0.92786858046E+02  0.13943128138E+02  0.36911344066E+03  0.41789058846E+03  0.17200000000E+03 0. -1.
         -6    1    1    2    0  503  0.92786858046E+02 -0.13943128138E+02  0.92476820893E+02  0.21665588903E+03  0.17200000000E+03 0. -1.
<mgrwt>
<rscale>  2 0.19592808E+03</rscale>
<asrwt>0</asrwt>
<pdfrwt beam="1">  1       21 0.13701708E+00 0.19592808E+03</pdfrwt>
<pdfrwt beam="2">  1       21 0.21619529E-01 0.19592808E+03</pdfrwt>
<totfact> 0.75262711E+03</totfact>
</mgrwt>
</event>
<event>
 4    1  0.1115666E+000  0.3248413E+03  0.7546771E-02  0.1073443E+00
         21   -1    0    0  501  502  0.00000000000E+00  0.00000000000E+00  0.16630335847E+03  0.16630335847E+03  0.00000000000E+00 0.  1.
         21   -1    0    0  502  503 -0.00000000000E+00 -0.00000000000E+00 -0.97964726825E+03  0.97964726825E+03  0.00000000000E+00 0. -1.
          6    1    1    2  501    0  0.26785732017E+03 -0.64732612100E+02 -0.66581624931E+02  0.33159458351E+03  0.17200000000E+03 0.  1.
         -6    1    1    2    0  503 -0.26785732017E+03  0.64732612100E+02 -0.74676228485E+03  0.81435604320E+03  0.17200000000E+03 0. -1.
<mgrwt>
<rscale>  2 0.32484128E+03</rscale>
<asrwt>0</asrwt>
<pdfrwt beam="1">  1       21 0.41575841E-01 0.32484128E+03</pdfrwt>
<pdfrwt beam="2">  1       21 0.24491181E+00 0.32484128E+03</pdfrwt>
<totfact> 0.34657746E+02</totfact>
</mgrwt>
</event>
<event>
 4    1  0.1115666E+000  0.1768132E+03  0.7546771E-02  0.1170923E+00
         21   -1    0    0  501  502  0.00000000000E+00  0.00000000000E+00  0.92311900982E+02  0.92311900982E+02  0.00000000000E+00 0.  1.
         21   -1    0    0  502  503 -0.00000000000E+00 -0.00000000000E+00 -0.37344551792E+03  0.37344551792E+03  0.00000000000E+00 0.  1.
          6    1    1    2  501    0 -0.32368362926E+02  0.25123972096E+02 -0.69498429739E+02  0.18998146391E+03  0.17200000000E+03 0.  1.
         -6    1    1    2    0  503  0.32368362926E+02 -0.25123972096E+02 -0.21163518720E+03  0.27577595499E+03  0.17200000000E+03 0.  1.
<mgrwt>
<rscale>  2 0.17681325E+03</rscale>
<asrwt>0</asrwt>
<pdfrwt beam="1">  1       21 0.23077975E-01 0.17681325E+03</pdfrwt>
<pdfrwt beam="2">  1       21 0.93361379E-01 0.17681325E+03</pdfrwt>
<totfact> 0.17187106E+04</totfact>
</mgrwt>
</event>
<event>
 4    1  0.1115666E+000  0.3419574E+03  0.7546771E-02  0.1065965E+00
         21   -1    0    0  501  502  0.00000000000E+00  0.00000000000E+00  0.15754272240E+03  0.15754272240E+03  0.00000000000E+00 0. -1.
         21   -1    0    0  502  503 -0.00000000000E+00 -0.00000000000E+00 -0.96038691693E+03  0.96038691693E+03  0.00000000000E+00 0.  1.
          6    1    1    2  501    0  0.26772767485E+02  0.29433664878E+03 -0.13502236183E+03  0.36764912904E+03  0.17200000000E+03 0. -1.
         -6    1    1    2    0  503 -0.26772767485E+02 -0.29433664878E+03 -0.66782183269E+03  0.75028051029E+03  0.17200000000E+03 0.  1.
<mgrwt>
<rscale>  2 0.34195737E+03</rscale>
<asrwt>0</asrwt>
<pdfrwt beam="1">  1       21 0.39385681E-01 0.34195737E+03</pdfrwt>
<pdfrwt beam="2">  1       21 0.24009673E+00 0.34195737E+03</pdfrwt>
<totfact> 0.40898913E+02</totfact>
</mgrwt>
</event>
<event>
 4    1  0.1115666E+000  0.3005391E+03  0.7546771E-02  0.1084971E+00
         21   -1    0    0  503  502  0.00000000000E+00  0.00000000000E+00  0.92440798111E+02  0.92440798111E+02  0.00000000000E+00 0.  1.
         21   -1    0    0  501  503 -0.00000000000E+00 -0.00000000000E+00 -0.10102630704E+04  0.10102630704E+04  0.00000000000E+00 0.  1.
          6    1    1    2  501    0 -0.23032826865E+03 -0.87684973800E+02 -0.35901497601E+03  0.46820456957E+03  0.17200000000E+03 0.  1.
         -6    1    1    2    0  502  0.23032826865E+03  0.87684973800E+02 -0.55880729623E+03  0.63449929889E+03  0.17200000000E+03 0.  1.
<mgrwt>
<rscale>  2 0.30053913E+03</rscale>
<asrwt>0</asrwt>
<pdfrwt beam="1">  1       21 0.23110199E-01 0.30053913E+03</pdfrwt>
<pdfrwt beam="2">  1       21 0.25256577E+00 0.30053913E+03</pdfrwt>
<totfact> 0.10160173E+03</totfact>
</mgrwt>
</event>
<event>
 4    1  0.1115666E+000  0.2277555E+03  0.7546771E-02  0.1128230E+00
         21   -1    0    0  503  502  0.00000000000E+00  0.00000000000E+00  0.80178602339E+03  0.80178602339E+03  0.00000000000E+00 0. -1.
         21   -1    0    0  501  503 -0.00000000000E+00 -0.00000000000E+00 -0.71965996514E+02  0.71965996514E+02  0.00000000000E+00 0. -1.
          6    1    1    2  501    0  0.13222571453E+03 -0.69317628541E+02  0.22605765589E+03  0.32089661419E+03  0.17200000000E+03 0. -1.
         -6    1    1    2    0  502 -0.13222571453E+03  0.69317628541E+02  0.50376237098E+03  0.55285540572E+03  0.17200000000E+03 0. -1.
<mgrwt>
<rscale>  2 0.22775551E+03</rscale>
<asrwt>0</asrwt>
<pdfrwt beam="1">  1       21 0.20044648E+00 0.22775551E+03</pdfrwt>
<pdfrwt beam="2">  1       21 0.17991502E-01 0.22775551E+03</pdfrwt>
<totfact> 0.36303019E+03</totfact>
</mgrwt>
</event>
<event>
 4    1  0.1115666E+000  0.1730117E+03  0.7546771E-02  0.1174743E+00
         21   -1    0    0  501  502  0.00000000000E+00  0.00000000000E+00  0.24323287863E+03  0.24323287863E+03  0.00000000000E+00 0.  1.
         21   -1    0    0  502  503 -0.00000000000E+00 -0.00000000000E+00 -0.14061422354E+03  0.14061422354E+03  0.00000000000E+00 0.  1.
          6    1    1    2  501    0  0.28290451527E+01 -0.18467012141E+02  0.11911467892E+03  0.21005080521E+03  0.17200000000E+03 0.  1.
         -6    1    1    2    0  503 -0.28290451527E+01  0.18467012141E+02 -0.16496023833E+02  0.17379629696E+03  0.17200000000E+03 0.  1.
<mgrwt>
<rscale>  2 0.17301166E+03</rscale>
<asrwt>0</asrwt>
<pdfrwt beam="1">  1       21 0.60808219E-01 0.17301166E+03</pdfrwt>
<pdfrwt beam="2">  1       21 0.35153556E-01 0.17301166E+03</pdfrwt>
<totfact> 0.19877765E+04</totfact>
</mgrwt>
</event>
<event>
 4    1  0.1115666E+000  0.2072813E+03  0.7546771E-02  0.1143737E+00
         21   -1    0    0  503  502  0.00000000000E+00  0.00000000000E+00  0.11890031554E+04  0.11890031554E+04  0.00000000000E+00 0.  1.
         21   -1    0    0  501  503 -0.00000000000E+00 -0.00000000000E+00 -0.72580200565E+02  0.72580200565E+02  0.00000000000E+00 0.  1.
          6    1    1    2  501    0  0.89730610150E+02  0.73006660025E+02  0.11122703640E+03  0.23523819510E+03  0.17200000000E+03 0.  1.
         -6    1    1    2    0  502 -0.89730610150E+02 -0.73006660025E+02  0.10051959185E+04  0.10263451609E+04  0.17200000000E+03 0.  1.
<mgrwt>
<rscale>  2 0.20728134E+03</rscale>
<asrwt>0</asrwt>
<pdfrwt beam="1">  1       21 0.29725073E+00 0.20728134E+03</pdfrwt>
<pdfrwt beam="2">  1       21 0.18145054E-01 0.20728134E+03</pdfrwt>
<totfact> 0.96074995E+02</totfact>
</mgrwt>
</event>
<event>
 4    1  0.1115666E+000  0.3402848E+03  0.7546771E-02  0.1066675E+00
         21   -1    0    0  503  502  0.00000000000E+00  0.00000000000E+00  0.44051138499E+03  0.44051138499E+03  0.00000000000E+00 0.  1.
         21   -1    0    0  501  503 -0.00000000000E+00 -0.00000000000E+00 -0.26350274322E+03  0.26350274322E+03  0.00000000000E+00 0. -1.
          6    1    1    2  501    0 -0.10064025624E+03  0.27582832789E+03  0.71147012311E+02  0.34764295621E+03  0.17200000000E+03 0. -1.
         -6    1    1    2    0  502  0.10064025624E+03 -0.27582832789E+03  0.10586162945E+03  0.35637117200E+03  0.17200000000E+03 0.  1.
<mgrwt>
<rscale>  2 0.34028477E+03</rscale>
<asrwt>0</asrwt>
<pdfrwt beam="1">  1       21 0.11012785E+00 0.34028477E+03</pdfrwt>
<pdfrwt beam="2">  1       21 0.65875686E-01 0.34028477E+03</pdfrwt>
<totfact> 0.12372925E+03</totfact>
</mgrwt>
</event>
<event>
 4    1  0.1115666E+000  0.1946593E+03  0.7546771E-02  0.1154325E+00
         21   -1    0    0  503  502  0.00000000000E+00  0.00000000000E+00  0.24720251245E+03  0.24720251245E+03  0.00000000000E+00 0.  1.
         21   -1    0    0  501  503 -0.00000000000E+00 -0.00000000000E+00 -0.21758077240E+03  0.21758077240E+03  0.00000000000E+00 0.  1.
          6    1    1    2  501    0 -0.72411360047E+02 -0.55360918771E+02 -0.11151846195E+03  0.22434037476E+03  0.17200000000E+03 0. -1.
         -6    1    1    2    0  502  0.72411360047E+02  0.55360918771E+02  0.14114020200E+03  0.24044291009E+03  0.17200000000E+03 0. -1.
<mgrwt>
<rscale>  2 0.19465928E+03</rscale>
<asrwt>0</asrwt>
<pdfrwt beam="1">  1       21 0.61800628E-01 0.19465928E+03</pdfrwt>
<pdfrwt beam="2">  1       21 0.54395193E-01 0.19465928E+03</pdfrwt>
<totfact> 0.77524379E+03</totfact>
</mgrwt>
</event>
<event>
 4    1  0.1115666E+000  0.1866933E+03  0.7546771E-02  0.1161478E+00
         21   -1    0    0  501  502  0.00000000000E+00  0.00000000000E+00  0.17403707600E+03  0.17403707600E+03  0.00000000000E+00 0.  1.
         21   -1    0    0  502  503 -0.00000000000E+00 -0.00000000000E+00 -0.23945691029E+03  0.23945691029E+03  0.00000000000E+00 0. -1.
          6    1    1    2  501    0  0.72506802793E+02 -0.36240794253E+01  0.50926830146E+02  0.19351463105E+03  0.17200000000E+03 0.  1.
         -6    1    1    2    0  503 -0.72506802793E+02  0.36240794253E+01 -0.11634666443E+03  0.21997935523E+03  0.17200000000E+03 0. -1.
<mgrwt>
<rscale>  2 0.18669325E+03</rscale>
<asrwt>0</asrwt>
<pdfrwt beam="1">  1       21 0.43509269E-01 0.18669325E+03</pdfrwt>
<pdfrwt beam="2">  1       21 0.59864227E-01 0.18669325E+03</pdfrwt>
<totfact> 0.13271545E+04</totfact>
</mgrwt>
</event>
<event>
 4    1  0.1115666E+000  0.2113620E+03  0.7546771E-02  0.1140492E+00
         21   -1    0    0  503  502  0.00000000000E+00  0.00000000000E+00  0.40731111187E+02  0.40731111187E+02  0.00000000000E+00 0.  1.
         21   -1    0    0  501  503 -0.00000000000E+00 -0.00000000000E+00 -0.11100856401E+04  0.11100856401E+04  0.00000000000E+00 0.  1.
          6    1    1    2  501    0  0.48561780627E+02 -0.11283465327E+03 -0.59762499010E+03  0.63390025580E+03  0.17200000000E+03 0.  1.
         -6    1    1    2    0  502 -0.48561780627E+02  0.11283465327E+03 -0.47172953884E+03  0.51691649551E+03  0.17200000000E+03 0.  1.
<mgrwt>
<rscale>  2 0.21136202E+03</rscale>
<asrwt>0</asrwt>
<pdfrwt beam="1">  1       21 0.10182778E-01 0.21136202E+03</pdfrwt>
<pdfrwt beam="2">  1       21 0.27752140E+00 0.21136202E+03</pdfrwt>
<totfact> 0.35404753E+03</totfact>
</mgrwt>
</event>
<event>
 4    1  0.1115666E+000  0.2354948E+03  0.7546771E-02  0.1122831E+00
         21   -1    0    0  501  502  0.00000000000E+00  0.00000000000E+00  0.56059951887E+03  0.56059951887E+03  0.00000000000E+00 0.  1.
         21   -1    0    0  502  503 -0.00000000000E+00 -0.00000000000E+00 -0.59083525027E+03  0.59083525027E+03  0.00000000000E+00 0.  1.
          6    1    1    2  501    0  0.50327448385E+01 -0.16077461142E+03  0.51019578888E+03  0.56192307942E+03  0.17200000000E+03 0.  1.
         -6    1    1    2    0  503 -0.50327448385E+01  0.16077461142E+03 -0.54043152028E+03  0.58951168971E+03  0.17200000000E+03 0.  1.
<mgrwt>
<rscale>  2 0.23549481E+03</rscale>
<asrwt>0</asrwt>
<pdfrwt beam="1">  1       21 0.14014988E+00 0.23549481E+03</pdfrwt>
<pdfrwt beam="2">  1       21 0.14770881E+00 0.23549481E+03</pdfrwt>
<totfact> 0.10517082E+02</totfact>
</mgrwt>
</event>
<event>
 4    1  0.1115666E+000  0.1737147E+03  0.7546771E-02  0.1174028E+00
         21   -1    0    0  503  502  0.00000000000E+00  0.00000000000E+00  0.10195414846E+03  0.10195414846E+03  0.00000000000E+00 0. -1.
         21   -1    0    0  501  503 -0.00000000000E+00 -0.00000000000E+00 -0.50273037293E+03  0.50273037293E+03  0.00000000000E+00 0. -1.
          6    1    1    2  501    0 -0.16408261244E+02  0.17988156164E+02 -0.65004564236E+01  0.17383630442E+03  0.17200000000E+03 0. -1.
         -6    1    1    2    0  502  0.16408261244E+02 -0.17988156164E+02 -0.39427576805E+03  0.43084821697E+03  0.17200000000E+03 0. -1.
<mgrwt>
<rscale>  2 0.17371472E+03</rscale>
<asrwt>0</asrwt>
<pdfrwt beam="1">  1       21 0.25488537E-01 0.17371472E+03</pdfrwt>
<pdfrwt beam="2">  1       21 0.12568259E+00 0.17371472E+03</pdfrwt>
<totfact> 0.69729983E+03</totfact>
</mgrwt>
</event>
<event>
 4    1  0.1115666E+000  0.1757567E+03  0.7546771E-02  0.1171974E+00
         21   -1    0    0  503  502  0.00000000000E+00  0.00000000000E+00  0.54681737467E+02  0.54681737467E+02  0.00000000000E+00 0. -1.
         21   -1    0    0  501  503 -0.00000000000E+00 -0.00000000000E+00 -0.82145933804E+03  0.82145933804E+03  0.00000000000E+00 0. -1.
          6    1    1    2  501    0 -0.25021932980E+02  0.26082653529E+02 -0.62820168271E+03  0.65232488540E+03  0.17200000000E+03 0. -1.
         -6    1    1    2    0  502  0.25021932980E+02 -0.26082653529E+02 -0.13857591786E+03  0.22381619011E+03  0.17200000000E+03 0. -1.
<mgrwt>
<rscale>  2 0.17575666E+03</rscale>
<asrwt>0</asrwt>
<pdfrwt beam="1">  1       21 0.13670435E-01 0.17575666E+03</pdfrwt>
<pdfrwt beam="2">  1       21 0.20536483E+00 0.17575666E+03</pdfrwt>
<totfact> 0.58543589E+03</totfact>
</mgrwt>
</event>
<event>
 4    1  0.1115666E+000  0.2128863E+03  0.7546771E-02  0.1139300E+00
         21   -1    0    0  503  502  0.00000000000E+00  0.00000000000E+00  0.23543454567E+03  0.23543454567E+03  0.00000000000E+00 0. -1.
         21   -1    0    0  501  503 -0.00000000000E+00 -0.00000000000E+00 -0.19893431118E+03  0.19893431118E+03  0.00000000000E+00 0.  1.
          6    1    1    2  501    0  0.11049348736E+03  0.59395108934E+02  0.57316677356E+02  0.22046721121E+03  0.17200000000E+03 0.  1.
         -6    1    1    2    0  502 -0.11049348736E+03 -0.59395108934E+02 -0.20816442863E+02  0.21390164564E+03  0.17200000000E+03 0. -1.
<mgrwt>
<rscale>  2 0.21288633E+03</rscale>
<asrwt>0</asrwt>
<pdfrwt beam="1">  1       21 0.58858636E-01 0.21288633E+03</pdfrwt>
<pdfrwt beam="2">  1       21 0.49733578E-01 0.21288633E+03</pdfrwt>
<totfact> 0.10263073E+04</totfact>
</mgrwt>
</event>
<event>
 4    1  0.1115666E+000  0.1842159E+03  0.7546771E-02  0.1163784E+00
         21   -1    0    0  503  502  0.00000000000E+00  0.00000000000E+00  0.28514940986E+03  0.28514940986E+03  0.00000000000E+00 0.  1.
         21   -1    0    0  501  503 -0.00000000000E+00 -0.00000000000E+00 -0.36330085963E+03  0.36330085963E+03  0.00000000000E+00 0.  1.
          6    1    1    2  501    0 -0.65365521551E+02  0.88794498307E+01 -0.30494459940E+03  0.35626774306E+03  0.17200000000E+03 0.  1.
         -6    1    1    2    0  502  0.65365521551E+02 -0.88794498307E+01  0.22679314963E+03  0.29218252644E+03  0.17200000000E+03 0.  1.
<mgrwt>
<rscale>  2 0.18421590E+03</rscale>
<asrwt>0</asrwt>
<pdfrwt beam="1">  1       21 0.71287353E-01 0.18421590E+03</pdfrwt>
<pdfrwt beam="2">  1       21 0.90825215E-01 0.18421590E+03</pdfrwt>
<totfact> 0.18452213E+03</totfact>
</mgrwt>
</event>
<event>
 4    1  0.1115666E+000  0.2315329E+03  0.7546771E-02  0.1125565E+00
         21   -1    0    0  503  502  0.00000000000E+00  0.00000000000E+00  0.65017110437E+02  0.65017110437E+02  0.00000000000E+00 0.  1.
         21   -1    0    0  501  503 -0.00000000000E+00 -0.00000000000E+00 -0.10049764068E+04  0.10049764068E+04  0.00000000000E+00 0.  1.
          6    1    1    2  501    0 -0.14381722789E+02 -0.15432646036E+03 -0.69668778027E+03  0.73415349451E+03  0.17200000000E+03 0.  1.
         -6    1    1    2    0  502  0.14381722789E+02  0.15432646036E+03 -0.24327151605E+03  0.33584002269E+03  0.17200000000E+03 0.  1.
<mgrwt>
<rscale>  2 0.23153291E+03</rscale>
<asrwt>0</asrwt>
<pdfrwt beam="1">  1       21 0.16254278E-01 0.23153291E+03</pdfrwt>
<pdfrwt beam="2">  1       21 0.25124410E+00 0.23153291E+03</pdfrwt>
<totfact> 0.21252631E+03</totfact>
</mgrwt>
</event>
<event>
 4    1  0.1115666E+000  0.2489035E+03  0.7546771E-02  0.1114000E+00
         21   -1    0    0  501  502  0.00000000000E+00  0.00000000000E+00  0.13263927416E+03  0.13263927416E+03  0.00000000000E+00 0. -1.
         21   -1    0    0  502  503 -0.00000000000E+00 -0.00000000000E+00 -0.53305982803E+03  0.53305982803E+03  0.00000000000E+00 0.  1.
          6    1    1    2  501    0 -0.17688971721E+03  0.32847769525E+02 -0.83106567199E+02  0.26241122219E+03  0.17200000000E+03 0. -1.
         -6    1    1    2    0  503  0.17688971721E+03 -0.32847769525E+02 -0.31731398667E+03  0.40328788000E+03  0.17200000000E+03 0.  1.
<mgrwt>
<rscale>  2 0.24890349E+03</rscale>
<asrwt>0</asrwt>
<pdfrwt beam="1">  1       21 0.33159819E-01 0.24890349E+03</pdfrwt>
<pdfrwt beam="2">  1       21 0.13326496E+00 0.24890349E+03</pdfrwt>
<totfact> 0.34018235E+03</totfact>
</mgrwt>
</event>
<event>
 4    1  0.1115666E+000  0.1734424E+03  0.7546771E-02  0.1174305E+00
         21   -1    0    0  503  502  0.00000000000E+00  0.00000000000E+00  0.14060199796E+03  0.14060199796E+03  0.00000000000E+00 0.  1.
         21   -1    0    0  501  503 -0.00000000000E+00 -0.00000000000E+00 -0.36737855441E+03  0.36737855441E+03  0.00000000000E+00 0.  1.
          6    1    1    2  501    0 -0.28797694814E+01 -0.22135636759E+02 -0.27752601255E+03  0.32726589668E+03  0.17200000000E+03 0.  1.
         -6    1    1    2    0  502  0.28797694814E+01  0.22135636759E+02  0.50749456099E+02  0.18071465569E+03  0.17200000000E+03 0.  1.
<mgrwt>
<rscale>  2 0.17344244E+03</rscale>
<asrwt>0</asrwt>
<pdfrwt beam="1">  1       21 0.35150500E-01 0.17344244E+03</pdfrwt>
<pdfrwt beam="2">  1       21 0.91844638E-01 0.17344244E+03</pdfrwt>
<totfact> 0.79338574E+03</totfact>
</mgrwt>
</event>
<event>
 4    1  0.1115666E+000  0.1883818E+03  0.7546771E-02  0.1159929E+00
         21   -1    0    0  503  502  0.00000000000E+00  0.00000000000E+00  0.27568421645E+03  0.27568421645E+03  0.00000000000E+00 0. -1.
         21   -1    0    0  501  503 -0.00000000000E+00 -0.00000000000E+00 -0.34937556545E+03  0.34937556545E+03  0.00000000000E+00 0. -1.
          6    1    1    2  501    0 -0.23609083262E+02 -0.73118594881E+02 -0.28521437539E+03  0.34181128954E+03  0.17200000000E+03 0. -1.
         -6    1    1    2    0  502  0.23609083262E+02  0.73118594881E+02  0.21152302639E+03  0.28324849236E+03  0.17200000000E+03 0. -1.
<mgrwt>
<rscale>  2 0.18838184E+03</rscale>
<asrwt>0</asrwt>
<pdfrwt beam="1">  1       21 0.68921054E-01 0.18838184E+03</pdfrwt>
<pdfrwt beam="2">  1       21 0.87343891E-01 0.18838184E+03</pdfrwt>
<totfact> 0.21669111E+03</totfact>
</mgrwt>
</event>
<event>
 4    1  0.1115666E+000  0.2350260E+03  0.7546771E-02  0.1123151E+00
         21   -1    0    0  503  502  0.00000000000E+00  0.00000000000E+00  0.29769812376E+03  0.29769812376E+03  0.00000000000E+00 0.  1.
         21   -1    0    0  501  503 -0.00000000000E+00 -0.00000000000E+00 -0.29109277296E+03  0.29109277296E+03  0.00000000000E+00 0.  1.
          6    1    1    2  501    0  0.14200158873E+03 -0.74086149377E+02 -0.17396694564E+03  0.29240674908E+03  0.17200000000E+03 0.  1.
         -6    1    1    2    0  502 -0.14200158873E+03  0.74086149377E+02  0.18057229644E+03  0.29638414764E+03  0.17200000000E+03 0.  1.
<mgrwt>
<rscale>  2 0.23502597E+03</rscale>
<asrwt>0</asrwt>
<pdfrwt beam="1">  1       21 0.74424531E-01 0.23502597E+03</pdfrwt>
<pdfrwt beam="2">  1       21 0.72773193E-01 0.23502597E+03</pdfrwt>
<totfact> 0.26579269E+03</totfact>
</mgrwt>
</event>
<event>
 4    1  0.1115666E+000  0.3552166E+03  0.7546771E-02  0.1060494E+00
         21   -1    0    0  503  502  0.00000000000E+00  0.00000000000E+00  0.12235691747E+03  0.12235691747E+03  0.00000000000E+00 0.  1.
         21   -1    0    0  501  503 -0.00000000000E+00 -0.00000000000E+00 -0.15292770581E+04  0.15292770581E+04  0.00000000000E+00 0.  1.
          6    1    1    2  501    0  0.30945684313E+03 -0.28832447309E+02 -0.11747339137E+04  0.12272646885E+04  0.17200000000E+03 0.  1.
         -6    1    1    2    0  502 -0.30945684313E+03  0.28832447309E+02 -0.23218622692E+03  0.42436928700E+03  0.17200000000E+03 0.  1.
<mgrwt>
<rscale>  2 0.35521662E+03</rscale>
<asrwt>0</asrwt>
<pdfrwt beam="1">  1       21 0.30589230E-01 0.35521662E+03</pdfrwt>
<pdfrwt beam="2">  1       21 0.38231926E+00 0.35521662E+03</pdfrwt>
<totfact> 0.93368352E+01</totfact>
</mgrwt>
</event>
<event>
 4    1  0.1115666E+000  0.1791395E+03  0.7546771E-02  0.1168638E+00
         21   -1    0    0  503  502  0.00000000000E+00  0.00000000000E+00  0.17769418184E+03  0.17769418184E+03  0.00000000000E+00 0. -1.
         21   -1    0    0  501  503 -0.00000000000E+00 -0.00000000000E+00 -0.21055708249E+03  0.21055708249E+03  0.00000000000E+00 0.  1.
          6    1    1    2  501    0 -0.49994502359E+02  0.27434848931E+01 -0.89658556561E+02  0.20032382220E+03  0.17200000000E+03 0.  1.
         -6    1    1    2    0  502  0.49994502359E+02 -0.27434848931E+01  0.56795655912E+02  0.18792744213E+03  0.17200000000E+03 0. -1.
<mgrwt>
<rscale>  2 0.17913955E+03</rscale>
<asrwt>0</asrwt>
<pdfrwt beam="1">  1       21 0.44423546E-01 0.17913955E+03</pdfrwt>
<pdfrwt beam="2">  1       21 0.52639270E-01 0.17913955E+03</pdfrwt>
<totfact> 0.16788206E+04</totfact>
</mgrwt>
</event>
<event>
 4    1  0.1115666E+000  0.2131406E+03  0.7546771E-02  0.1139103E+00
         21   -1    0    0  501  502  0.00000000000E+00  0.00000000000E+00  0.11990347832E+03  0.11990347832E+03  0.00000000000E+00 0. -1.
         21   -1    0    0  502  503 -0.00000000000E+00 -0.00000000000E+00 -0.69651055968E+03  0.69651055968E+03  0.00000000000E+00 0. -1.
          6    1    1    2  501    0  0.12188991550E+03  0.31428707289E+02 -0.12640584290E+02  0.21351510371E+03  0.17200000000E+03 0. -1.
         -6    1    1    2    0  503 -0.12188991550E+03 -0.31428707289E+02 -0.56396649707E+03  0.60289893428E+03  0.17200000000E+03 0. -1.
<mgrwt>
<rscale>  2 0.21314060E+03</rscale>
<asrwt>0</asrwt>
<pdfrwt beam="1">  1       21 0.29975870E-01 0.21314060E+03</pdfrwt>
<pdfrwt beam="2">  1       21 0.17412763E+00 0.21314060E+03</pdfrwt>
<totfact> 0.20897877E+03</totfact>
</mgrwt>
</event>
<event>
 4    1  0.1115666E+000  0.2140799E+03  0.7546771E-02  0.1138375E+00
         21   -1    0    0  503  502  0.00000000000E+00  0.00000000000E+00  0.17032221954E+03  0.17032221954E+03  0.00000000000E+00 0.  1.
         21   -1    0    0  501  503 -0.00000000000E+00 -0.00000000000E+00 -0.28606447702E+03  0.28606447702E+03  0.00000000000E+00 0.  1.
          6    1    1    2  501    0 -0.53348446076E+02 -0.11575895717E+03 -0.11347504225E+03  0.24229481645E+03  0.17200000000E+03 0.  1.
         -6    1    1    2    0  502  0.53348446076E+02  0.11575895717E+03 -0.22672152326E+01  0.21409188011E+03  0.17200000000E+03 0.  1.
<mgrwt>
<rscale>  2 0.21407987E+03</rscale>
<asrwt>0</asrwt>
<pdfrwt beam="1">  1       21 0.42580555E-01 0.21407987E+03</pdfrwt>
<pdfrwt beam="2">  1       21 0.71516119E-01 0.21407987E+03</pdfrwt>
<totfact> 0.92397861E+03</totfact>
</mgrwt>
</event>
<event>
 4    1  0.1115666E+000  0.1859536E+03  0.7546771E-02  0.1162162E+00
         21   -1    0    0  503  502  0.00000000000E+00  0.00000000000E+00  0.55175109868E+03  0.55175109868E+03  0.00000000000E+00 0.  1.
         21   -1    0    0  501  503 -0.00000000000E+00 -0.00000000000E+00 -0.85843791625E+02  0.85843791625E+02  0.00000000000E+00 0.  1.
          6    1    1    2  501    0  0.49985609535E+02  0.49961655028E+02  0.67319204229E+02  0.19776400934E+03  0.17200000000E+03 0.  1.
         -6    1    1    2    0  502 -0.49985609535E+02 -0.49961655028E+02  0.39858810283E+03  0.43983088097E+03  0.17200000000E+03 0.  1.
<mgrwt>
<rscale>  2 0.18595356E+03</rscale>
<asrwt>0</asrwt>
<pdfrwt beam="1">  1       21 0.13793776E+00 0.18595356E+03</pdfrwt>
<pdfrwt beam="2">  1       21 0.21460949E-01 0.18595356E+03</pdfrwt>
<totfact> 0.75592736E+03</totfact>
</mgrwt>
</event>
<event>
 4    1  0.1115666E+000  0.1899176E+03  0.7546771E-02  0.1158536E+00
         21   -1    0    0  501  502  0.00000000000E+00  0.00000000000E+00  0.15654649283E+03  0.15654649283E+03  0.00000000000E+00 0.  1.
         21   -1    0    0  502  503 -0.00000000000E+00 -0.00000000000E+00 -0.32320580083E+03  0.32320580083E+03  0.00000000000E+00 0.  1.
          6    1    1    2  501    0  0.33805346058E+02  0.73088353388E+02  0.45207630324E+02  0.19522407296E+03  0.17200000000E+03 0.  1.
         -6    1    1    2    0  503 -0.33805346058E+02 -0.73088353388E+02 -0.21186693833E+03  0.28452822071E+03  0.17200000000E+03 0.  1.
<mgrwt>
<rscale>  2 0.18991764E+03</rscale>
<asrwt>0</asrwt>
<pdfrwt beam="1">  1       21 0.39136623E-01 0.18991764E+03</pdfrwt>
<pdfrwt beam="2">  1       21 0.80801450E-01 0.18991764E+03</pdfrwt>
<totfact> 0.84809567E+03</totfact>
</mgrwt>
</event>
<event>
 4    1  0.1115666E+000  0.1883653E+03  0.7546771E-02  0.1159944E+00
         21   -1    0    0  501  502  0.00000000000E+00  0.00000000000E+00  0.20420382213E+03  0.20420382213E+03  0.00000000000E+00 0.  1.
         21   -1    0    0  502  503 -0.00000000000E+00 -0.00000000000E+00 -0.50109095023E+03  0.50109095023E+03  0.00000000000E+00 0. -1.
          6    1    1    2  501    0  0.74789565150E+02  0.17436147575E+02  0.13657886488E+03  0.23266990486E+03  0.17200000000E+03 0.  1.
         -6    1    1    2    0  503 -0.74789565150E+02 -0.17436147575E+02 -0.43346599298E+03  0.47262486749E+03  0.17200000000E+03 0. -1.
<mgrwt>
<rscale>  2 0.18836533E+03</rscale>
<asrwt>0</asrwt>
<pdfrwt beam="1">  1       21 0.51050956E-01 0.18836533E+03</pdfrwt>
<pdfrwt beam="2">  1       21 0.12527274E+00 0.18836533E+03</pdfrwt>
<totfact> 0.17380815E+03</totfact>
</mgrwt>
</event>
<event>
 4    1  0.1115666E+000  0.2099461E+03  0.7546771E-02  0.1141609E+00
         21   -1    0    0  503  502  0.00000000000E+00  0.00000000000E+00  0.69169494855E+03  0.69169494855E+03  0.00000000000E+00 0.  1.
         21   -1    0    0  501  503 -0.00000000000E+00 -0.00000000000E+00 -0.66916354400E+02  0.66916354400E+02  0.00000000000E+00 0.  1.
          6    1    1    2  501    0 -0.81084501211E+01  0.12011499478E+03  0.39524060592E+03  0.44754049593E+03  0.17200000000E+03 0.  1.
         -6    1    1    2    0  502  0.81084501211E+01 -0.12011499478E+03  0.22953798824E+03  0.31107080702E+03  0.17200000000E+03 0.  1.
<mgrwt>
<rscale>  2 0.20994609E+03</rscale>
<asrwt>0</asrwt>
<pdfrwt beam="1">  1       21 0.17292372E+00 0.20994609E+03</pdfrwt>
<pdfrwt beam="2">  1       21 0.16729091E-01 0.20994609E+03</pdfrwt>
<totfact> 0.64479581E+03</totfact>
</mgrwt>
</event>
<event>
 4    1  0.1115666E+000  0.1772749E+03  0.7546771E-02  0.1170467E+00
         21   -1    0    0  501  502  0.00000000000E+00  0.00000000000E+00  0.53091893256E+03  0.53091893256E+03  0.00000000000E+00 0.  1.
         21   -1    0    0  502  503 -0.00000000000E+00 -0.00000000000E+00 -0.90769226102E+02  0.90769226102E+02  0.00000000000E+00 0.  1.
          6    1    1    2  501    0  0.24245858166E+02 -0.35419092303E+02  0.40341493411E+03  0.44064723169E+03  0.17200000000E+03 0.  1.
         -6    1    1    2    0  503 -0.24245858166E+02  0.35419092303E+02  0.36734772349E+02  0.18104092697E+03  0.17200000000E+03 0.  1.
<mgrwt>
<rscale>  2 0.17727485E+03</rscale>
<asrwt>0</asrwt>
<pdfrwt beam="1">  1       21 0.13272972E+00 0.17727485E+03</pdfrwt>
<pdfrwt beam="2">  1       21 0.22692308E-01 0.17727485E+03</pdfrwt>
<totfact> 0.75577533E+03</totfact>
</mgrwt>
</event>
<event>
 4    1  0.1115666E+000  0.1739548E+03  0.7546771E-02  0.1173785E+00
         21   -1    0    0  501  502  0.00000000000E+00  0.00000000000E+00  0.27450614068E+02  0.27450614068E+02  0.00000000000E+00 0.  1.
         21   -1    0    0  502  503 -0.00000000000E+00 -0.00000000000E+00 -0.11263890328E+04  0.11263890328E+04  0.00000000000E+00 0.  1.
          6    1    1    2  501    0  0.14106353478E+02  0.21846614148E+02 -0.63374515623E+03  0.65718580843E+03  0.17200000000E+03 0.  1.
         -6    1    1    2    0  503 -0.14106353478E+02 -0.21846614148E+02 -0.46519326253E+03  0.49665383846E+03  0.17200000000E+03 0.  1.
<mgrwt>
<rscale>  2 0.17395478E+03</rscale>
<asrwt>0</asrwt>
<pdfrwt beam="1">  1       21 0.68626537E-02 0.17395478E+03</pdfrwt>
<pdfrwt beam="2">  1       21 0.28159725E+00 0.17395478E+03</pdfrwt>
<totfact> 0.69644562E+03</totfact>
</mgrwt>
</event>
<event>
 4    1  0.1115666E+000  0.1872281E+03  0.7546771E-02  0.1160985E+00
         21   -1    0    0  503  502  0.00000000000E+00  0.00000000000E+00  0.50666688819E+02  0.50666688819E+02  0.00000000000E+00 0. -1.
         21   -1    0    0  501  503 -0.00000000000E+00 -0.00000000000E+00 -0.83274725568E+03  0.83274725568E+03  0.00000000000E+00 0. -1.
          6    1    1    2  501    0 -0.44935422696E+02  0.58746629515E+02 -0.57272163829E+03  0.60254828326E+03  0.17200000000E+03 0. -1.
         -6    1    1    2    0  502  0.44935422696E+02 -0.58746629515E+02 -0.20935892857E+03  0.28086566124E+03  0.17200000000E+03 0. -1.
<mgrwt>
<rscale>  2 0.18722809E+03</rscale>
<asrwt>0</asrwt>
<pdfrwt beam="1">  1       21 0.12666673E-01 0.18722809E+03</pdfrwt>
<pdfrwt beam="2">  1       21 0.20818681E+00 0.18722809E+03</pdfrwt>
<totfact> 0.63763408E+03</totfact>
</mgrwt>
</event>
<event>
 4    1  0.1115666E+000  0.3284698E+03  0.7546771E-02  0.1071816E+00
         21   -1    0    0  501  502  0.00000000000E+00  0.00000000000E+00  0.13548188236E+03  0.13548188236E+03  0.00000000000E+00 0. -1.
         21   -1    0    0  502  503 -0.00000000000E+00 -0.00000000000E+00 -0.12036620443E+04  0.12036620443E+04  0.00000000000E+00 0.  1.
          6    1    1    2  501    0  0.27708140770E+03  0.39170485048E+02 -0.14459412633E+03  0.35888702228E+03  0.17200000000E+03 0. -1.
         -6    1    1    2    0  503 -0.27708140770E+03 -0.39170485048E+02 -0.92358603558E+03  0.98025690434E+03  0.17200000000E+03 0.  1.
<mgrwt>
<rscale>  2 0.32846984E+03</rscale>
<asrwt>0</asrwt>
<pdfrwt beam="1">  1       21 0.33870471E-01 0.32846984E+03</pdfrwt>
<pdfrwt beam="2">  1       21 0.30091551E+00 0.32846984E+03</pdfrwt>
<totfact> 0.24256627E+02</totfact>
</mgrwt>
</event>
<event>
 4    1  0.1115666E+000  0.1888851E+03  0.7546771E-02  0.1159471E+00
         21   -1    0    0  501  502  0.00000000000E+00  0.00000000000E+00  0.77124308874E+02  0.77124308874E+02  0.00000000000E+00 0. -1.
         21   -1    0    0  502  503 -0.00000000000E+00 -0.00000000000E+00 -0.46672103754E+03  0.46672103754E+03  0.00000000000E+00 0. -1.
          6    1    1    2  501    0  0.22649039623E+02 -0.74703325659E+02 -0.16924104769E+03  0.25361407312E+03  0.17200000000E+03 0. -1.
         -6    1    1    2    0  503 -0.22649039623E+02  0.74703325659E+02 -0.22035568097E+03  0.29023127329E+03  0.17200000000E+03 0. -1.
<mgrwt>
<rscale>  2 0.18888506E+03</rscale>
<asrwt>0</asrwt>
<pdfrwt beam="1">  1       21 0.19281078E-01 0.18888506E+03</pdfrwt>
<pdfrwt beam="2">  1       21 0.11668026E+00 0.18888506E+03</pdfrwt>
<totfact> 0.14020365E+04</totfact>
</mgrwt>
</event>
<event>
 4    1  0.1115666E+000  0.2336881E+03  0.7546771E-02  0.1124071E+00
         21   -1    0    0  501  502  0.00000000000E+00  0.00000000000E+00  0.10311052380E+04  0.10311052380E+04  0.00000000000E+00 0. -1.
         21   -1    0    0  502  503 -0.00000000000E+00 -0.00000000000E+00 -0.69117135549E+02  0.69117135549E+02  0.00000000000E+00 0.  1.
          6    1    1    2  501    0 -0.10444118156E+03  0.11881989248E+03  0.74694612209E+03  0.78264847573E+03  0.17200000000E+03 0. -1.
         -6    1    1    2    0  503  0.10444118156E+03 -0.11881989248E+03  0.21504198034E+03  0.31757389780E+03  0.17200000000E+03 0.  1.
<mgrwt>
<rscale>  2 0.23368810E+03</rscale>
<asrwt>0</asrwt>
<pdfrwt beam="1">  1       21 0.25777626E+00 0.23368810E+03</pdfrwt>
<pdfrwt beam="2">  1       21 0.17279287E-01 0.23368810E+03</pdfrwt>
<totfact> 0.17330477E+03</totfact>
</mgrwt>
</event>
<event>
 4    1  0.1115666E+000  0.2017679E+03  0.7546771E-02  0.1148256E+00
         21   -1    0    0  503  502  0.00000000000E+00  0.00000000000E+00  0.15446844662E+03  0.15446844662E+03  0.00000000000E+00 0.  1.
         21   -1    0    0  501  503 -0.00000000000E+00 -0.00000000000E+00 -0.27401300037E+03  0.27401300037E+03  0.00000000000E+00 0.  1.
          6    1    1    2  501    0 -0.62822573114E+02 -0.84732477739E+02 -0.10163523061E+03  0.22592031466E+03  0.17200000000E+03 0.  1.
         -6    1    1    2    0  502  0.62822573114E+02  0.84732477739E+02 -0.17909323141E+02  0.20256113233E+03  0.17200000000E+03 0.  1.
<mgrwt>
<rscale>  2 0.20176786E+03</rscale>
<asrwt>0</asrwt>
<pdfrwt beam="1">  1       21 0.38617112E-01 0.20176786E+03</pdfrwt>
<pdfrwt beam="2">  1       21 0.68503249E-01 0.20176786E+03</pdfrwt>
<totfact> 0.12488916E+04</totfact>
</mgrwt>
</event>
<event>
 4    1  0.1115666E+000  0.1845291E+03  0.7546771E-02  0.1163490E+00
         21   -1    0    0  501  502  0.00000000000E+00  0.00000000000E+00  0.12505975777E+04  0.12505975777E+04  0.00000000000E+00 0. -1.
         21   -1    0    0  502  503 -0.00000000000E+00 -0.00000000000E+00 -0.43752770284E+02  0.43752770284E+02  0.00000000000E+00 0. -1.
          6    1    1    2  501    0 -0.66819970489E+02 -0.14446575419E+01  0.10011536213E+04  0.10180174698E+04  0.17200000000E+03 0. -1.
         -6    1    1    2    0  503  0.66819970489E+02  0.14446575419E+01  0.20569118614E+03  0.27633287815E+03  0.17200000000E+03 0. -1.
<mgrwt>
<rscale>  2 0.18452912E+03</rscale>
<asrwt>0</asrwt>
<pdfrwt beam="1">  1       21 0.31264928E+00 0.18452912E+03</pdfrwt>
<pdfrwt beam="2">  1       21 0.10938197E-01 0.18452912E+03</pdfrwt>
<totfact> 0.20196054E+03</totfact>
</mgrwt>
</event>
<event>
 4    1  0.1115666E+000  0.1890430E+03  0.7546771E-02  0.1159327E+00
         21   -1    0    0  501  502  0.00000000000E+00  0.00000000000E+00  0.97945574762E+02  0.97945574762E+02  0.00000000000E+00 0. -1.
         21   -1    0    0  502  503 -0.00000000000E+00 -0.00000000000E+00 -0.54757896112E+03  0.54757896112E+03  0.00000000000E+00 0. -1.
          6    1    1    2  501    0 -0.76374596075E+02  0.17893942086E+02 -0.38375926349E+02  0.19289889531E+03  0.17200000000E+03 0. -1.
         -6    1    1    2    0  503  0.76374596075E+02 -0.17893942086E+02 -0.41125746001E+03  0.45262564057E+03  0.17200000000E+03 0. -1.
<mgrwt>
<rscale>  2 0.18904304E+03</rscale>
<asrwt>0</asrwt>
<pdfrwt beam="1">  1       21 0.24486394E-01 0.18904304E+03</pdfrwt>
<pdfrwt beam="2">  1       21 0.13689474E+00 0.18904304E+03</pdfrwt>
<totfact> 0.59918263E+03</totfact>
</mgrwt>
</event>
<event>
 4    1  0.1115666E+000  0.2031950E+03  0.7546771E-02  0.1147071E+00
         21   -1    0    0  501  502  0.00000000000E+00  0.00000000000E+00  0.39546373792E+03  0.39546373792E+03  0.00000000000E+00 0.  1.
         21   -1    0    0  502  503 -0.00000000000E+00 -0.00000000000E+00 -0.15205658447E+03  0.15205658447E+03  0.00000000000E+00 0.  1.
          6    1    1    2  501    0  0.10710923298E+03 -0.15226085792E+02  0.27495632280E+03  0.34189062714E+03  0.17200000000E+03 0.  1.
         -6    1    1    2    0  503 -0.10710923298E+03  0.15226085792E+02 -0.31549169352E+02  0.20562969524E+03  0.17200000000E+03 0.  1.
<mgrwt>
<rscale>  2 0.20319503E+03</rscale>
<asrwt>0</asrwt>
<pdfrwt beam="1">  1       21 0.98865932E-01 0.20319503E+03</pdfrwt>
<pdfrwt beam="2">  1       21 0.38014147E-01 0.20319503E+03</pdfrwt>
<totfact> 0.55828150E+03</totfact>
</mgrwt>
</event>
<event>
 4    1  0.1115666E+000  0.1961659E+03  0.7546771E-02  0.1153015E+00
         21   -1    0    0  501  502  0.00000000000E+00  0.00000000000E+00  0.49681128361E+03  0.49681128361E+03  0.00000000000E+00 0.  1.
         21   -1    0    0  502  503 -0.00000000000E+00 -0.00000000000E+00 -0.10731264630E+03  0.10731264630E+03  0.00000000000E+00 0. -1.
          6    1    1    2  501    0  0.64924099653E+02 -0.68424464982E+02  0.35407678272E+03  0.40478563979E+03  0.17200000000E+03 0.  1.
         -6    1    1    2    0  503 -0.64924099653E+02  0.68424464982E+02  0.35421854598E+02  0.19933829012E+03  0.17200000000E+03 0. -1.
<mgrwt>
<rscale>  2 0.19616586E+03</rscale>
<asrwt>0</asrwt>
<pdfrwt beam="1">  1       21 0.12420281E+00 0.19616586E+03</pdfrwt>
<pdfrwt beam="2">  1       21 0.26828163E-01 0.19616586E+03</pdfrwt>
<totfact> 0.63957231E+03</totfact>
</mgrwt>
</event>
<event>
 4    1  0.1115666E+000  0.1920791E+03  0.7546771E-02  0.1156599E+00
         21   -1    0    0  503  502  0.00000000000E+00  0.00000000000E+00  0.77245852371E+03  0.77245852371E+03  0.00000000000E+00 0. -1.
         21   -1    0    0  501  503 -0.00000000000E+00 -0.00000000000E+00 -0.11461861230E+03  0.11461861230E+03  0.00000000000E+00 0. -1.
          6    1    1    2  501    0  0.85402354974E+02 -0.41017592151E+01 -0.98267372343E+01  0.19233031854E+03  0.17200000000E+03 0. -1.
         -6    1    1    2    0  502 -0.85402354974E+02  0.41017592151E+01  0.66766664865E+03  0.69474681747E+03  0.17200000000E+03 0. -1.
<mgrwt>
<rscale>  2 0.19207912E+03</rscale>
<asrwt>0</asrwt>
<pdfrwt beam="1">  1       21 0.19311462E+00 0.19207912E+03</pdfrwt>
<pdfrwt beam="2">  1       21 0.28654655E-01 0.19207912E+03</pdfrwt>
<totfact> 0.17346448E+03</totfact>
</mgrwt>
</event>
<event>
 4    1  0.1115666E+000  0.2043181E+03  0.7546771E-02  0.1146146E+00
         21   -1    0    0  501  502  0.00000000000E+00  0.00000000000E+00  0.58101020578E+02  0.58101020578E+02  0.00000000000E+00 0.  1.
         21   -1    0    0  502  503 -0.00000000000E+00 -0.00000000000E+00 -0.84665338962E+03  0.84665338962E+03  0.00000000000E+00 0. -1.
          6    1    1    2  501    0 -0.41546606838E+02 -0.10215556473E+03 -0.21827958194E+03  0.29898470837E+03  0.17200000000E+03 0.  1.
         -6    1    1    2    0  503  0.41546606838E+02  0.10215556473E+03 -0.57027278711E+03  0.60576970183E+03  0.17200000000E+03 0. -1.
<mgrwt>
<rscale>  2 0.20431809E+03</rscale>
<asrwt>0</asrwt>
<pdfrwt beam="1">  1       21 0.14525255E-01 0.20431809E+03</pdfrwt>
<pdfrwt beam="2">  1       21 0.21166335E+00 0.20431809E+03</pdfrwt>
<totfact> 0.46602815E+03</totfact>
</mgrwt>
</event>
<event>
 4    1  0.1115666E+000  0.2269550E+03  0.7546771E-02  0.1128802E+00
         21   -1    0    0  503  502  0.00000000000E+00  0.00000000000E+00  0.10764626483E+03  0.10764626483E+03  0.00000000000E+00 0.  1.
         21   -1    0    0  501  503 -0.00000000000E+00 -0.00000000000E+00 -0.64578185828E+03  0.64578185828E+03  0.00000000000E+00 0.  1.
          6    1    1    2  501    0  0.10678866854E+03  0.10257067318E+03 -0.46080016803E+03  0.51365879490E+03  0.17200000000E+03 0.  1.
         -6    1    1    2    0  502 -0.10678866854E+03 -0.10257067318E+03 -0.77335425419E+02  0.23976932821E+03  0.17200000000E+03 0.  1.
<mgrwt>
<rscale>  2 0.22695498E+03</rscale>
<asrwt>0</asrwt>
<pdfrwt beam="1">  1       21 0.26911566E-01 0.22695498E+03</pdfrwt>
<pdfrwt beam="2">  1       21 0.16144546E+00 0.22695498E+03</pdfrwt>
<totfact> 0.31361570E+03</totfact>
</mgrwt>
</event>
<event>
 4    1  0.1115666E+000  0.1876978E+03  0.7546771E-02  0.1160554E+00
         21   -1    0    0  501  502  0.00000000000E+00  0.00000000000E+00  0.65432427172E+02  0.65432427172E+02  0.00000000000E+00 0. -1.
         21   -1    0    0  502  503 -0.00000000000E+00 -0.00000000000E+00 -0.53934514223E+03  0.53934514223E+03  0.00000000000E+00 0. -1.
          6    1    1    2  501    0 -0.69599993422E+02  0.28325198852E+02 -0.24944406366E+03  0.31217433730E+03  0.17200000000E+03 0. -1.
         -6    1    1    2    0  503  0.69599993422E+02 -0.28325198852E+02 -0.22446865139E+03  0.29260323210E+03  0.17200000000E+03 0. -1.
<mgrwt>
<rscale>  2 0.18769783E+03</rscale>
<asrwt>0</asrwt>
<pdfrwt beam="1">  1       21 0.16358107E-01 0.18769783E+03</pdfrwt>
<pdfrwt beam="2">  1       21 0.13483628E+00 0.18769783E+03</pdfrwt>
<totfact> 0.13239798E+04</totfact>
</mgrwt>
</event>
<event>
 4    1  0.1115666E+000  0.1824931E+03  0.7546771E-02  0.1165412E+00
         21   -1    0    0  503  502  0.00000000000E+00  0.00000000000E+00  0.17900408700E+03  0.17900408700E+03  0.00000000000E+00 0.  1.
         21   -1    0    0  501  503 -0.00000000000E+00 -0.00000000000E+00 -0.19281566497E+03  0.19281566497E+03  0.00000000000E+00 0.  1.
          6    1    1    2  501    0  0.24078122828E+02 -0.56035346175E+02  0.27918763005E+02  0.18461628679E+03  0.17200000000E+03 0.  1.
         -6    1    1    2    0  502 -0.24078122828E+02  0.56035346175E+02 -0.41730340978E+02  0.18720346519E+03  0.17200000000E+03 0.  1.
<mgrwt>
<rscale>  2 0.18249306E+03</rscale>
<asrwt>0</asrwt>
<pdfrwt beam="1">  1       21 0.44751022E-01 0.18249306E+03</pdfrwt>
<pdfrwt beam="2">  1       21 0.48203916E-01 0.18249306E+03</pdfrwt>
<totfact> 0.19826073E+04</totfact>
</mgrwt>
</event>
<event>
 4    1  0.1115666E+000  0.1917648E+03  0.7546771E-02  0.1156879E+00
         21   -1    0    0  501  502  0.00000000000E+00  0.00000000000E+00  0.41761009543E+02  0.41761009543E+02  0.00000000000E+00 0. -1.
         21   -1    0    0  502  503 -0.00000000000E+00 -0.00000000000E+00 -0.12277900528E+04  0.12277900528E+04  0.00000000000E+00 0. -1.
          6    1    1    2  501    0 -0.61684534348E+02  0.58178787092E+02 -0.25545014034E+03  0.31941904647E+03  0.17200000000E+03 0.  1.
         -6    1    1    2    0  503  0.61684534348E+02 -0.58178787092E+02 -0.93057890294E+03  0.95013201590E+03  0.17200000000E+03 0.  1.
<mgrwt>
<rscale>  2 0.19176484E+03</rscale>
<asrwt>0</asrwt>
<pdfrwt beam="1">  1       21 0.10440252E-01 0.19176484E+03</pdfrwt>
<pdfrwt beam="2">  1       21 0.30694752E+00 0.19176484E+03</pdfrwt>
<totfact> 0.23433585E+03</totfact>
</mgrwt>
</event>
<event>
 4    1  0.1115666E+000  0.2404646E+03  0.7546771E-02  0.1119484E+00
         21   -1    0    0  501  502  0.00000000000E+00  0.00000000000E+00  0.29458428821E+03  0.29458428821E+03  0.00000000000E+00 0.  1.
         21   -1    0    0  502  503 -0.00000000000E+00 -0.00000000000E+00 -0.21326498151E+03  0.21326498151E+03  0.00000000000E+00 0.  1.
          6    1    1    2  501    0  0.16802823437E+03  0.23917910339E+01  0.11230399950E+03  0.26539667766E+03  0.17200000000E+03 0.  1.
         -6    1    1    2    0  503 -0.16802823437E+03 -0.23917910339E+01 -0.30984692799E+02  0.24245259206E+03  0.17200000000E+03 0.  1.
<mgrwt>
<rscale>  2 0.24046457E+03</rscale>
<asrwt>0</asrwt>
<pdfrwt beam="1">  1       21 0.73646072E-01 0.24046457E+03</pdfrwt>
<pdfrwt beam="2">  1       21 0.53316246E-01 0.24046457E+03</pdfrwt>
<totfact> 0.53306383E+03</totfact>
</mgrwt>
</event>
<event>
 4    1  0.1115666E+000  0.4175611E+03  0.7546771E-02  0.1037863E+00
         21   -1    0    0  501  502  0.00000000000E+00  0.00000000000E+00  0.86876015643E+03  0.86876015643E+03  0.00000000000E+00 0. -1.
         21   -1    0    0  502  503 -0.00000000000E+00 -0.00000000000E+00 -0.20140747149E+03  0.20140747149E+03  0.00000000000E+00 0.  1.
          6    1    1    2  501    0 -0.14443134564E+03  0.35201262908E+03  0.36546309485E+03  0.55490591845E+03  0.17200000000E+03 0.  1.
         -6    1    1    2    0  503  0.14443134564E+03 -0.35201262908E+03  0.30188959009E+03  0.51526170947E+03  0.17200000000E+03 0. -1.
<mgrwt>
<rscale>  2 0.41756114E+03</rscale>
<asrwt>0</asrwt>
<pdfrwt beam="1">  1       21 0.21719003E+00 0.41756114E+03</pdfrwt>
<pdfrwt beam="2">  1       21 0.50351870E-01 0.41756114E+03</pdfrwt>
<totfact> 0.32489581E+02</totfact>
</mgrwt>
</event>
<event>
 4    1  0.1115666E+000  0.1786459E+03  0.7546771E-02  0.1169120E+00
         21   -1    0    0  501  502  0.00000000000E+00  0.00000000000E+00  0.24368536968E+03  0.24368536968E+03  0.00000000000E+00 0. -1.
         21   -1    0    0  502  503 -0.00000000000E+00 -0.00000000000E+00 -0.17738350863E+03  0.17738350863E+03  0.00000000000E+00 0. -1.
          6    1    1    2  501    0 -0.40294810306E+02 -0.26583346101E+02 -0.74547744546E+02  0.19357611486E+03  0.17200000000E+03 0. -1.
         -6    1    1    2    0  503  0.40294810306E+02  0.26583346101E+02  0.14084960559E+03  0.22749276345E+03  0.17200000000E+03 0. -1.
<mgrwt>
<rscale>  2 0.17864587E+03</rscale>
<asrwt>0</asrwt>
<pdfrwt beam="1">  1       21 0.60921342E-01 0.17864587E+03</pdfrwt>
<pdfrwt beam="2">  1       21 0.44345877E-01 0.17864587E+03</pdfrwt>
<totfact> 0.12360197E+04</totfact>
</mgrwt>
</event>
<event>
 4    1  0.1115666E+000  0.2146408E+03  0.7546771E-02  0.1137943E+00
         21   -1    0    0  501  502  0.00000000000E+00  0.00000000000E+00  0.41105634872E+02  0.41105634872E+02  0.00000000000E+00 0.  1.
         21   -1    0    0  502  503 -0.00000000000E+00 -0.00000000000E+00 -0.13872897895E+04  0.13872897895E+04  0.00000000000E+00 0.  1.
          6    1    1    2  501    0  0.90016742943E+02 -0.91562428127E+02 -0.36006268107E+03  0.41918471650E+03  0.17200000000E+03 0.  1.
         -6    1    1    2    0  503 -0.90016742943E+02  0.91562428127E+02 -0.98612147359E+03  0.10092107079E+04  0.17200000000E+03 0.  1.
<mgrwt>
<rscale>  2 0.21464084E+03</rscale>
<asrwt>0</asrwt>
<pdfrwt beam="1">  1       21 0.10276409E-01 0.21464084E+03</pdfrwt>
<pdfrwt beam="2">  1       21 0.34682244E+00 0.21464084E+03</pdfrwt>
<totfact> 0.13705820E+03</totfact>
</mgrwt>
</event>
<event>
 4    1  0.1115666E+000  0.2323722E+03  0.7546771E-02  0.1124981E+00
         21   -1    0    0  501  502  0.00000000000E+00  0.00000000000E+00  0.49089900152E+03  0.49089900152E+03  0.00000000000E+00 0.  1.
         21   -1    0    0  502  503 -0.00000000000E+00 -0.00000000000E+00 -0.11154007359E+03  0.11154007359E+03  0.00000000000E+00 0. -1.
          6    1    1    2  501    0  0.14831083122E+03  0.49160459126E+02  0.22512182399E+03  0.32353777064E+03  0.17200000000E+03 0.  1.
         -6    1    1    2    0  503 -0.14831083122E+03 -0.49160459126E+02  0.15423710394E+03  0.27890130446E+03  0.17200000000E+03 0. -1.
<mgrwt>
<rscale>  2 0.23237223E+03</rscale>
<asrwt>0</asrwt>
<pdfrwt beam="1">  1       21 0.12272474E+00 0.23237223E+03</pdfrwt>
<pdfrwt beam="2">  1       21 0.27885020E-01 0.23237223E+03</pdfrwt>
<totfact> 0.59553829E+03</totfact>
</mgrwt>
</event>
<event>
 4    1  0.1115666E+000  0.2041001E+03  0.7546771E-02  0.1146325E+00
         21   -1    0    0  501  502  0.00000000000E+00  0.00000000000E+00  0.36514265774E+03  0.36514265774E+03  0.00000000000E+00 0.  1.
         21   -1    0    0  502  503 -0.00000000000E+00 -0.00000000000E+00 -0.32109244120E+03  0.32109244120E+03  0.00000000000E+00 0.  1.
          6    1    1    2  501    0 -0.10926480835E+03  0.11577389588E+02 -0.25347527495E+03  0.32543286451E+03  0.17200000000E+03 0.  1.
         -6    1    1    2    0  503  0.10926480835E+03 -0.11577389588E+02  0.29752549148E+03  0.36080223444E+03  0.17200000000E+03 0.  1.
<mgrwt>
<rscale>  2 0.20410006E+03</rscale>
<asrwt>0</asrwt>
<pdfrwt beam="1">  1       21 0.91285664E-01 0.20410006E+03</pdfrwt>
<pdfrwt beam="2">  1       21 0.80273111E-01 0.20410006E+03</pdfrwt>
<totfact> 0.13724468E+03</totfact>
</mgrwt>
</event>
<event>
 4    1  0.1115666E+000  0.3629453E+03  0.7546771E-02  0.1057424E+00
         21   -1    0    0  501  502  0.00000000000E+00  0.00000000000E+00  0.66671026260E+03  0.66671026260E+03  0.00000000000E+00 0. -1.
         21   -1    0    0  502  503 -0.00000000000E+00 -0.00000000000E+00 -0.20537343774E+03  0.20537343774E+03  0.00000000000E+00 0. -1.
          6    1    1    2  501    0 -0.42387716332E+02 -0.31677842960E+03  0.14573233024E+03  0.39111021980E+03  0.17200000000E+03 0. -1.
         -6    1    1    2    0  503  0.42387716332E+02  0.31677842960E+03  0.31560449462E+03  0.48097348054E+03  0.17200000000E+03 0. -1.
<mgrwt>
<rscale>  2 0.36294530E+03</rscale>
<asrwt>0</asrwt>
<pdfrwt beam="1">  1       21 0.16667756E+00 0.36294530E+03</pdfrwt>
<pdfrwt beam="2">  1       21 0.51343361E-01 0.36294530E+03</pdfrwt>
<totfact> 0.70920159E+02</totfact>
</mgrwt>
</event>
<event>
 4    1  0.1115666E+000  0.2938223E+03  0.7546771E-02  0.1088370E+00
         21   -1    0    0  503  502  0.00000000000E+00  0.00000000000E+00  0.66620334509E+03  0.66620334509E+03  0.00000000000E+00 0. -1.
         21   -1    0    0  501  503 -0.00000000000E+00 -0.00000000000E+00 -0.18357617482E+03  0.18357617482E+03  0.00000000000E+00 0. -1.
          6    1    1    2  501    0 -0.69426183972E+02 -0.22787614902E+03  0.47173349035E+03  0.55575536006E+03  0.17200000000E+03 0. -1.
         -6    1    1    2    0  502  0.69426183972E+02  0.22787614902E+03  0.10893679925E+02  0.29402415985E+03  0.17200000000E+03 0. -1.
<mgrwt>
<rscale>  2 0.29382228E+03</rscale>
<asrwt>0</asrwt>
<pdfrwt beam="1">  1       21 0.16655083E+00 0.29382228E+03</pdfrwt>
<pdfrwt beam="2">  1       21 0.45894045E-01 0.29382228E+03</pdfrwt>
<totfact> 0.94022612E+02</totfact>
</mgrwt>
</event>
<event>
 4    1  0.1115666E+000  0.1730157E+03  0.7546771E-02  0.1174739E+00
         21   -1    0    0  503  502  0.00000000000E+00  0.00000000000E+00  0.69725923559E+02  0.69725923559E+02  0.00000000000E+00 0. -1.
         21   -1    0    0  501  503 -0.00000000000E+00 -0.00000000000E+00 -0.55495006597E+03  0.55495006597E+03  0.00000000000E+00 0. -1.
          6    1    1    2  501    0  0.16404197496E+02 -0.90182198466E+01 -0.39122352444E+03  0.42777362244E+03  0.17200000000E+03 0. -1.
         -6    1    1    2    0  502 -0.16404197496E+02  0.90182198466E+01 -0.94000617975E+02  0.19690236709E+03  0.17200000000E+03 0. -1.
<mgrwt>
<rscale>  2 0.17301568E+03</rscale>
<asrwt>0</asrwt>
<pdfrwt beam="1">  1       21 0.17431481E-01 0.17301568E+03</pdfrwt>
<pdfrwt beam="2">  1       21 0.13873751E+00 0.17301568E+03</pdfrwt>
<totfact> 0.11073784E+04</totfact>
</mgrwt>
</event>
<event>
 4    1  0.1115666E+000  0.1747858E+03  0.7546771E-02  0.1172947E+00
         21   -1    0    0  501  502  0.00000000000E+00  0.00000000000E+00  0.49325220006E+03  0.49325220006E+03  0.00000000000E+00 0.  1.
         21   -1    0    0  502  503 -0.00000000000E+00 -0.00000000000E+00 -0.30350929626E+03  0.30350929626E+03  0.00000000000E+00 0.  1.
          6    1    1    2  501    0 -0.26410395851E+02  0.16387933052E+02  0.45028730667E+03  0.48302042597E+03  0.17200000000E+03 0.  1.
         -6    1    1    2    0  503  0.26410395851E+02 -0.16387933052E+02 -0.26054440287E+03  0.31374107035E+03  0.17200000000E+03 0.  1.
<mgrwt>
<rscale>  2 0.17478579E+03</rscale>
<asrwt>0</asrwt>
<pdfrwt beam="1">  1       21 0.12331305E+00 0.17478579E+03</pdfrwt>
<pdfrwt beam="2">  1       21 0.75877325E-01 0.17478579E+03</pdfrwt>
<totfact> 0.77969531E+02</totfact>
</mgrwt>
</event>
<event>
 4    1  0.1115666E+000  0.1868994E+03  0.7546771E-02  0.1161288E+00
         21   -1    0    0  503  502  0.00000000000E+00  0.00000000000E+00  0.11249740400E+04  0.11249740400E+04  0.00000000000E+00 0. -1.
         21   -1    0    0  501  503 -0.00000000000E+00 -0.00000000000E+00 -0.32892237802E+02  0.32892237802E+02  0.00000000000E+00 0. -1.
          6    1    1    2  501    0  0.14108844805E+02 -0.71751933973E+02  0.68302002904E+03  0.70812976183E+03  0.17200000000E+03 0. -1.
         -6    1    1    2    0  502 -0.14108844805E+02  0.71751933973E+02  0.40906177313E+03  0.44973651594E+03  0.17200000000E+03 0. -1.
<mgrwt>
<rscale>  2 0.18689944E+03</rscale>
<asrwt>0</asrwt>
<pdfrwt beam="1">  1       21 0.28124338E+00 0.18689944E+03</pdfrwt>
<pdfrwt beam="2">  1       21 0.82230632E-02 0.18689944E+03</pdfrwt>
<totfact> 0.50397800E+03</totfact>
</mgrwt>
</event>
<event>
 4    1  0.1115666E+000  0.1888513E+03  0.7546771E-02  0.1159501E+00
         21   -1    0    0  503  502  0.00000000000E+00  0.00000000000E+00  0.55630744561E+03  0.55630744561E+03  0.00000000000E+00 0. -1.
         21   -1    0    0  501  503 -0.00000000000E+00 -0.00000000000E+00 -0.64360570487E+02  0.64360570487E+02  0.00000000000E+00 0. -1.
          6    1    1    2  501    0  0.23064690789E+02 -0.74490519597E+02  0.22660624247E+03  0.29498340054E+03  0.17200000000E+03 0. -1.
         -6    1    1    2    0  502 -0.23064690789E+02  0.74490519597E+02  0.26534063266E+03  0.32568461556E+03  0.17200000000E+03 0. -1.
<mgrwt>
<rscale>  2 0.18885131E+03</rscale>
<asrwt>0</asrwt>
<pdfrwt beam="1">  1       21 0.13907685E+00 0.18885131E+03</pdfrwt>
<pdfrwt beam="2">  1       21 0.16090144E-01 0.18885131E+03</pdfrwt>
<totfact> 0.12596190E+04</totfact>
</mgrwt>
</event>
<event>
 4    1  0.1115666E+000  0.4674973E+03  0.7546771E-02  0.1022629E+00
         21   -1    0    0  503  502  0.00000000000E+00  0.00000000000E+00  0.17027437502E+04  0.17027437502E+04  0.00000000000E+00 0.  1.
         21   -1    0    0  501  503 -0.00000000000E+00 -0.00000000000E+00 -0.17812353278E+03  0.17812353278E+03  0.00000000000E+00 0. -1.
          6    1    1    2  501    0 -0.32804592657E+03 -0.28522902182E+03  0.26520306152E+03  0.53748152402E+03  0.17200000000E+03 0. -1.
         -6    1    1    2    0  502  0.32804592657E+03  0.28522902182E+03  0.12594171559E+04  0.13433857590E+04  0.17200000000E+03 0.  1.
<mgrwt>
<rscale>  2 0.46749730E+03</rscale>
<asrwt>0</asrwt>
<pdfrwt beam="1">  1       21 0.42568589E+00 0.46749730E+03</pdfrwt>
<pdfrwt beam="2">  1       21 0.44530888E-01 0.46749730E+03</pdfrwt>
<totfact> 0.20862745E+01</totfact>
</mgrwt>
</event>
<event>
 4    1  0.1115666E+000  0.1725497E+03  0.7546771E-02  0.1175215E+00
         21   -1    0    0  501  502  0.00000000000E+00  0.00000000000E+00  0.33699495731E+03  0.33699495731E+03  0.00000000000E+00 0.  1.
         21   -1    0    0  502  503 -0.00000000000E+00 -0.00000000000E+00 -0.17069903849E+03  0.17069903849E+03  0.00000000000E+00 0.  1.
          6    1    1    2  501    0  0.10808441321E+02  0.85193246743E+01 -0.93165947071E+02  0.19609511720E+03  0.17200000000E+03 0.  1.
         -6    1    1    2    0  503 -0.10808441321E+02 -0.85193246743E+01  0.25946186589E+03  0.31159887860E+03  0.17200000000E+03 0.  1.
<mgrwt>
<rscale>  2 0.17254971E+03</rscale>
<asrwt>0</asrwt>
<pdfrwt beam="1">  1       21 0.84248738E-01 0.17254971E+03</pdfrwt>
<pdfrwt beam="2">  1       21 0.42674760E-01 0.17254971E+03</pdfrwt>
<totfact> 0.65600615E+03</totfact>
</mgrwt>
</event>
<event>
 4    1  0.1115666E+000  0.1915746E+03  0.7546771E-02  0.1157049E+00
         21   -1    0    0  503  502  0.00000000000E+00  0.00000000000E+00  0.23650731921E+03  0.23650731921E+03  0.00000000000E+00 0.  1.
         21   -1    0    0  501  503 -0.00000000000E+00 -0.00000000000E+00 -0.21459942862E+03  0.21459942862E+03  0.00000000000E+00 0. -1.
          6    1    1    2  501    0  0.33655481461E+02 -0.77357123287E+02 -0.10773364337E+03  0.21978933975E+03  0.17200000000E+03 0. -1.
         -6    1    1    2    0  502 -0.33655481461E+02  0.77357123287E+02  0.12964153396E+03  0.23131740808E+03  0.17200000000E+03 0.  1.
<mgrwt>
<rscale>  2 0.19157457E+03</rscale>
<asrwt>0</asrwt>
<pdfrwt beam="1">  1       21 0.59126830E-01 0.19157457E+03</pdfrwt>
<pdfrwt beam="2">  1       21 0.53649857E-01 0.19157457E+03</pdfrwt>
<totfact> 0.87970459E+03</totfact>
</mgrwt>
</event>
<event>
 4    1  0.1115666E+000  0.1944410E+03  0.7546771E-02  0.1154516E+00
         21   -1    0    0  503  502  0.00000000000E+00  0.00000000000E+00  0.51927393408E+03  0.51927393408E+03  0.00000000000E+00 0. -1.
         21   -1    0    0  501  503 -0.00000000000E+00 -0.00000000000E+00 -0.14967008798E+03  0.14967008798E+03  0.00000000000E+00 0. -1.
          6    1    1    2  501    0 -0.58401225556E+02  0.69372798180E+02 -0.54887245397E+02  0.20203934761E+03  0.17200000000E+03 0. -1.
         -6    1    1    2    0  502  0.58401225556E+02 -0.69372798180E+02  0.42449109150E+03  0.46690467446E+03  0.17200000000E+03 0. -1.
<mgrwt>
<rscale>  2 0.19444096E+03</rscale>
<asrwt>0</asrwt>
<pdfrwt beam="1">  1       21 0.12981848E+00 0.19444096E+03</pdfrwt>
<pdfrwt beam="2">  1       21 0.37417523E-01 0.19444096E+03</pdfrwt>
<totfact> 0.29834883E+03</totfact>
</mgrwt>
</event>
<event>
 4    1  0.1115666E+000  0.2054838E+03  0.7546771E-02  0.1145193E+00
         21   -1    0    0  501  502  0.00000000000E+00  0.00000000000E+00  0.88217718906E+02  0.88217718906E+02  0.00000000000E+00 0. -1.
         21   -1    0    0  502  503 -0.00000000000E+00 -0.00000000000E+00 -0.48956103210E+03  0.48956103210E+03  0.00000000000E+00 0. -1.
          6    1    1    2  501    0  0.11221925057E+03 -0.68139321361E+01 -0.15750269986E+03  0.25890285888E+03  0.17200000000E+03 0. -1.
         -6    1    1    2    0  503 -0.11221925057E+03  0.68139321361E+01 -0.24384061333E+03  0.31887589213E+03  0.17200000000E+03 0. -1.
<mgrwt>
<rscale>  2 0.20548379E+03</rscale>
<asrwt>0</asrwt>
<pdfrwt beam="1">  1       21 0.22054430E-01 0.20548379E+03</pdfrwt>
<pdfrwt beam="2">  1       21 0.12239026E+00 0.20548379E+03</pdfrwt>
<totfact> 0.95715618E+03</totfact>
</mgrwt>
</event>
<event>
 4    1  0.1115666E+000  0.1881974E+03  0.7546771E-02  0.1160097E+00
         21   -1    0    0  501  502  0.00000000000E+00  0.00000000000E+00  0.32298599977E+03  0.32298599977E+03  0.00000000000E+00 0. -1.
         21   -1    0    0  502  503 -0.00000000000E+00 -0.00000000000E+00 -0.11041464619E+03  0.11041464619E+03  0.00000000000E+00 0. -1.
          6    1    1    2  501    0 -0.11930275943E+02  0.75444854671E+02  0.12421494434E+03  0.22549414622E+03  0.17200000000E+03 0. -1.
         -6    1    1    2    0  503  0.11930275943E+02 -0.75444854671E+02  0.88356409235E+02  0.20790649974E+03  0.17200000000E+03 0. -1.
<mgrwt>
<rscale>  2 0.18819739E+03</rscale>
<asrwt>0</asrwt>
<pdfrwt beam="1">  1       21 0.80746498E-01 0.18819739E+03</pdfrwt>
<pdfrwt beam="2">  1       21 0.27603662E-01 0.18819739E+03</pdfrwt>
<totfact> 0.16913529E+04</totfact>
</mgrwt>
</event>
<event>
 4    1  0.1115666E+000  0.1804127E+03  0.7546771E-02  0.1167404E+00
         21   -1    0    0  501  502  0.00000000000E+00  0.00000000000E+00  0.68685233783E+02  0.68685233783E+02  0.00000000000E+00 0. -1.
         21   -1    0    0  502  503 -0.00000000000E+00 -0.00000000000E+00 -0.52129392810E+03  0.52129392810E+03  0.00000000000E+00 0. -1.
          6    1    1    2  501    0 -0.47267942129E+02  0.27027179210E+02 -0.13734182283E+03  0.22674104848E+03  0.17200000000E+03 0. -1.
         -6    1    1    2    0  503  0.47267942129E+02 -0.27027179210E+02 -0.31526687148E+03  0.36323811340E+03  0.17200000000E+03 0. -1.
<mgrwt>
<rscale>  2 0.18041266E+03</rscale>
<asrwt>0</asrwt>
<pdfrwt beam="1">  1       21 0.17171309E-01 0.18041266E+03</pdfrwt>
<pdfrwt beam="2">  1       21 0.13032348E+00 0.18041266E+03</pdfrwt>
<totfact> 0.13269381E+04</totfact>
</mgrwt>
</event>
<event>
 4    1  0.1115666E+000  0.2256508E+03  0.7546771E-02  0.1129739E+00
         21   -1    0    0  501  502  0.00000000000E+00  0.00000000000E+00  0.10321209206E+03  0.10321209206E+03  0.00000000000E+00 0.  1.
         21   -1    0    0  502  503 -0.00000000000E+00 -0.00000000000E+00 -0.64703761343E+03  0.64703761343E+03  0.00000000000E+00 0. -1.
          6    1    1    2  501    0 -0.23133509952E+02  0.14421907298E+03 -0.89081913829E+02  0.24259820211E+03  0.17200000000E+03 0.  1.
         -6    1    1    2    0  503  0.23133509952E+02 -0.14421907298E+03 -0.45474360754E+03  0.50765150338E+03  0.17200000000E+03 0. -1.
<mgrwt>
<rscale>  2 0.22565084E+03</rscale>
<asrwt>0</asrwt>
<pdfrwt beam="1">  1       21 0.25803024E-01 0.22565084E+03</pdfrwt>
<pdfrwt beam="2">  1       21 0.16175940E+00 0.22565084E+03</pdfrwt>
<totfact> 0.33865896E+03</totfact>
</mgrwt>
</event>
<event>
 4    1  0.1115666E+000  0.1741160E+03  0.7546771E-02  0.1173622E+00
         21   -1    0    0  501  502  0.00000000000E+00  0.00000000000E+00  0.28667648172E+03  0.28667648172E+03  0.00000000000E+00 0.  1.
         21   -1    0    0  502  503 -0.00000000000E+00 -0.00000000000E+00 -0.28640580635E+03  0.28640580635E+03  0.00000000000E+00 0.  1.
          6    1    1    2  501    0 -0.39127415378E+01  0.26777886317E+02  0.22770830558E+03  0.28664863016E+03  0.17200000000E+03 0.  1.
         -6    1    1    2    0  503  0.39127415378E+01 -0.26777886317E+02 -0.22743763021E+03  0.28643365790E+03  0.17200000000E+03 0.  1.
<mgrwt>
<rscale>  2 0.17411595E+03</rscale>
<asrwt>0</asrwt>
<pdfrwt beam="1">  1       21 0.71669120E-01 0.17411595E+03</pdfrwt>
<pdfrwt beam="2">  1       21 0.71601452E-01 0.17411595E+03</pdfrwt>
<totfact> 0.31507715E+03</totfact>
</mgrwt>
</event>
<event>
 4    1  0.1115666E+000  0.1988041E+03  0.7546771E-02  0.1150752E+00
         21   -1    0    0  501  502  0.00000000000E+00  0.00000000000E+00  0.55052194503E+03  0.55052194503E+03  0.00000000000E+00 0.  1.
         21   -1    0    0  502  503 -0.00000000000E+00 -0.00000000000E+00 -0.81767160972E+02  0.81767160972E+02  0.00000000000E+00 0. -1.
          6    1    1    2  501    0 -0.73872385141E+02  0.66947250774E+02  0.12395516316E+03  0.23428176657E+03  0.17200000000E+03 0. -1.
         -6    1    1    2    0  503  0.73872385141E+02 -0.66947250774E+02  0.34479962089E+03  0.39800733943E+03  0.17200000000E+03 0.  1.
<mgrwt>
<rscale>  2 0.19880408E+03</rscale>
<asrwt>0</asrwt>
<pdfrwt beam="1">  1       21 0.13763048E+00 0.19880408E+03</pdfrwt>
<pdfrwt beam="2">  1       21 0.20441792E-01 0.19880408E+03</pdfrwt>
<totfact> 0.82470597E+03</totfact>
</mgrwt>
</event>
<event>
 4    1  0.1115666E+000  0.1763496E+03  0.7546771E-02  0.1171383E+00
         21   -1    0    0  501  502  0.00000000000E+00  0.00000000000E+00  0.68575114613E+03  0.68575114613E+03  0.00000000000E+00 0. -1.
         21   -1    0    0  502  503 -0.00000000000E+00 -0.00000000000E+00 -0.62235866446E+02  0.62235866446E+02  0.00000000000E+00 0. -1.
          6    1    1    2  501    0 -0.36016480435E+02  0.14764192046E+02  0.50656202665E+03  0.53638069976E+03  0.17200000000E+03 0. -1.
         -6    1    1    2    0  503  0.36016480435E+02 -0.14764192046E+02  0.11695325304E+03  0.21160631282E+03  0.17200000000E+03 0. -1.
<mgrwt>
<rscale>  2 0.17634956E+03</rscale>
<asrwt>0</asrwt>
<pdfrwt beam="1">  1       21 0.17143776E+00 0.17634956E+03</pdfrwt>
<pdfrwt beam="2">  1       21 0.15558969E-01 0.17634956E+03</pdfrwt>
<totfact> 0.77566225E+03</totfact>
</mgrwt>
</event>
<event>
 4    1  0.1115666E+000  0.2312573E+03  0.7546771E-02  0.1125758E+00
         21   -1    0    0  503  502  0.00000000000E+00  0.00000000000E+00  0.17919325166E+03  0.17919325166E+03  0.00000000000E+00 0. -1.
         21   -1    0    0  501  503 -0.00000000000E+00 -0.00000000000E+00 -0.32271477794E+03  0.32271477794E+03  0.00000000000E+00 0.  1.
          6    1    1    2  501    0  0.92966084177E+02 -0.12350399297E+03 -0.14057649094E+03  0.27063199902E+03  0.17200000000E+03 0.  1.
         -6    1    1    2    0  502 -0.92966084177E+02  0.12350399297E+03 -0.29450353411E+01  0.23127603058E+03  0.17200000000E+03 0. -1.
<mgrwt>
<rscale>  2 0.23125728E+03</rscale>
<asrwt>0</asrwt>
<pdfrwt beam="1">  1       21 0.44798313E-01 0.23125728E+03</pdfrwt>
<pdfrwt beam="2">  1       21 0.80678694E-01 0.23125728E+03</pdfrwt>
<totfact> 0.62787021E+03</totfact>
</mgrwt>
</event>
<event>
 4    1  0.1115666E+000  0.1781369E+03  0.7546771E-02  0.1169618E+00
         21   -1    0    0  501  502  0.00000000000E+00  0.00000000000E+00  0.20663885859E+03  0.20663885859E+03  0.00000000000E+00 0.  1.
         21   -1    0    0  502  503 -0.00000000000E+00 -0.00000000000E+00 -0.56255597846E+03  0.56255597846E+03  0.00000000000E+00 0.  1.
          6    1    1    2  501    0  0.25989032998E+00 -0.46353766026E+02  0.14997037077E+03  0.23286015390E+03  0.17200000000E+03 0.  1.
         -6    1    1    2    0  503 -0.25989032998E+00  0.46353766026E+02 -0.50588749064E+03  0.53633468315E+03  0.17200000000E+03 0.  1.
<mgrwt>
<rscale>  2 0.17813686E+03</rscale>
<asrwt>0</asrwt>
<pdfrwt beam="1">  1       21 0.51659715E-01 0.17813686E+03</pdfrwt>
<pdfrwt beam="2">  1       21 0.14063899E+00 0.17813686E+03</pdfrwt>
<totfact> 0.12777242E+03</totfact>
</mgrwt>
</event>
<event>
 4    1  0.1115666E+000  0.2201658E+03  0.7546771E-02  0.1133759E+00
         21   -1    0    0  503  502  0.00000000000E+00  0.00000000000E+00  0.22995444876E+03  0.22995444876E+03  0.00000000000E+00 0.  1.
         21   -1    0    0  501  503 -0.00000000000E+00 -0.00000000000E+00 -0.21655412766E+03  0.21655412766E+03  0.00000000000E+00 0.  1.
          6    1    1    2  501    0 -0.13352086766E+03 -0.32575610822E+02 -0.29711192608E+02  0.22216153467E+03  0.17200000000E+03 0.  1.
         -6    1    1    2    0  502  0.13352086766E+03  0.32575610822E+02  0.43111513708E+02  0.22434704174E+03  0.17200000000E+03 0.  1.
<mgrwt>
<rscale>  2 0.22016583E+03</rscale>
<asrwt>0</asrwt>
<pdfrwt beam="1">  1       21 0.57488612E-01 0.22016583E+03</pdfrwt>
<pdfrwt beam="2">  1       21 0.54138532E-01 0.22016583E+03</pdfrwt>
<totfact> 0.89877221E+03</totfact>
</mgrwt>
</event>
<event>
 4    1  0.1115666E+000  0.1991039E+03  0.7546771E-02  0.1150497E+00
         21   -1    0    0  501  502  0.00000000000E+00  0.00000000000E+00  0.38786923035E+02  0.38786923035E+02  0.00000000000E+00 0.  1.
         21   -1    0    0  502  503 -0.00000000000E+00 -0.00000000000E+00 -0.11143866031E+04  0.11143866031E+04  0.00000000000E+00 0.  1.
          6    1    1    2  501    0 -0.89170847692E+02  0.45901345073E+02 -0.70376679091E+03  0.73138913688E+03  0.17200000000E+03 0.  1.
         -6    1    1    2    0  503  0.89170847692E+02 -0.45901345073E+02 -0.37183288912E+03  0.42178438922E+03  0.17200000000E+03 0.  1.
<mgrwt>
<rscale>  2 0.19910393E+03</rscale>
<asrwt>0</asrwt>
<pdfrwt beam="1">  1       21 0.96967309E-02 0.19910393E+03</pdfrwt>
<pdfrwt beam="2">  1       21 0.27859665E+00 0.19910393E+03</pdfrwt>
<totfact> 0.38563919E+03</totfact>
</mgrwt>
</event>
<event>
 4    1  0.1115666E+000  0.2182144E+03  0.7546771E-02  0.1135221E+00
         21   -1    0    0  501  502  0.00000000000E+00  0.00000000000E+00  0.13703893559E+03  0.13703893559E+03  0.00000000000E+00 0. -1.
         21   -1    0    0  502  503 -0.00000000000E+00 -0.00000000000E+00 -0.69894470769E+03  0.69894470769E+03  0.00000000000E+00 0. -1.
          6    1    1    2  501    0  0.72558335255E+02 -0.11299916605E+03  0.15455637153E+02  0.21876105746E+03  0.17200000000E+03 0. -1.
         -6    1    1    2    0  503 -0.72558335255E+02  0.11299916605E+03 -0.57736140925E+03  0.61722258581E+03  0.17200000000E+03 0. -1.
<mgrwt>
<rscale>  2 0.21821440E+03</rscale>
<asrwt>0</asrwt>
<pdfrwt beam="1">  1       21 0.34259734E-01 0.21821440E+03</pdfrwt>
<pdfrwt beam="2">  1       21 0.17473618E+00 0.21821440E+03</pdfrwt>
<totfact> 0.15833100E+03</totfact>
</mgrwt>
</event>
<event>
 4    1  0.1115666E+000  0.2031076E+03  0.7546771E-02  0.1147143E+00
         21   -1    0    0  503  502  0.00000000000E+00  0.00000000000E+00  0.13010908161E+03  0.13010908161E+03  0.00000000000E+00 0. -1.
         21   -1    0    0  501  503 -0.00000000000E+00 -0.00000000000E+00 -0.52007327356E+03  0.52007327356E+03  0.00000000000E+00 0. -1.
          6    1    1    2  501    0 -0.39615196223E+01 -0.10794916542E+03 -0.39809261472E+03  0.44691212318E+03  0.17200000000E+03 0. -1.
         -6    1    1    2    0  502  0.39615196223E+01  0.10794916542E+03  0.81284227757E+01  0.20327023198E+03  0.17200000000E+03 0. -1.
<mgrwt>
<rscale>  2 0.20310765E+03</rscale>
<asrwt>0</asrwt>
<pdfrwt beam="1">  1       21 0.32527271E-01 0.20310765E+03</pdfrwt>
<pdfrwt beam="2">  1       21 0.13001832E+00 0.20310765E+03</pdfrwt>
<totfact> 0.38955383E+03</totfact>
</mgrwt>
</event>
<event>
 4    1  0.1115666E+000  0.2243056E+03  0.7546771E-02  0.1130713E+00
         21   -1    0    0  501  502  0.00000000000E+00  0.00000000000E+00  0.35299623547E+03  0.35299623547E+03  0.00000000000E+00 0.  1.
         21   -1    0    0  502  503 -0.00000000000E+00 -0.00000000000E+00 -0.15423258908E+03  0.15423258908E+03  0.00000000000E+00 0.  1.
          6    1    1    2  501    0  0.60884972229E+02  0.13046851081E+03  0.29525983239E+02  0.22624057073E+03  0.17200000000E+03 0.  1.
         -6    1    1    2    0  503 -0.60884972229E+02 -0.13046851081E+03  0.16923766316E+03  0.28098825382E+03  0.17200000000E+03 0.  1.
<mgrwt>
<rscale>  2 0.22430562E+03</rscale>
<asrwt>0</asrwt>
<pdfrwt beam="1">  1       21 0.88249057E-01 0.22430562E+03</pdfrwt>
<pdfrwt beam="2">  1       21 0.38558148E-01 0.22430562E+03</pdfrwt>
<totfact> 0.69716068E+03</totfact>
</mgrwt>
</event>
<event>
 4    1  0.1115666E+000  0.1951909E+03  0.7546771E-02  0.1153861E+00
         21   -1    0    0  501  502  0.00000000000E+00  0.00000000000E+00  0.84613349248E+02  0.84613349248E+02  0.00000000000E+00 0. -1.
         21   -1    0    0  502  503 -0.00000000000E+00 -0.00000000000E+00 -0.49794848758E+03  0.49794848758E+03  0.00000000000E+00 0.  1.
          6    1    1    2  501    0  0.39454559242E+02  0.83419672808E+02 -0.11654241877E+03  0.22733596158E+03  0.17200000000E+03 0. -1.
         -6    1    1    2    0  503 -0.39454559242E+02 -0.83419672808E+02 -0.29679271956E+03  0.35522587524E+03  0.17200000000E+03 0.  1.
<mgrwt>
<rscale>  2 0.19519094E+03</rscale>
<asrwt>0</asrwt>
<pdfrwt beam="1">  1       21 0.21153337E-01 0.19519094E+03</pdfrwt>
<pdfrwt beam="2">  1       21 0.12448712E+00 0.19519094E+03</pdfrwt>
<totfact> 0.99979212E+03</totfact>
</mgrwt>
</event>
<event>
 4    1  0.1115666E+000  0.2595103E+03  0.7546771E-02  0.1107438E+00
         21   -1    0    0  501  502  0.00000000000E+00  0.00000000000E+00  0.57227424453E+03  0.57227424453E+03  0.00000000000E+00 0.  1.
         21   -1    0    0  502  503 -0.00000000000E+00 -0.00000000000E+00 -0.11956484891E+03  0.11956484891E+03  0.00000000000E+00 0. -1.
          6    1    1    2  501    0  0.14853949717E+03  0.12529011656E+03  0.26977957912E+03  0.37433489931E+03  0.17200000000E+03 0.  1.
         -6    1    1    2    0  503 -0.14853949717E+03 -0.12529011656E+03  0.18292981650E+03  0.31750419413E+03  0.17200000000E+03 0. -1.
<mgrwt>
<rscale>  2 0.25951030E+03</rscale>
<asrwt>0</asrwt>
<pdfrwt beam="1">  1       21 0.14306855E+00 0.25951030E+03</pdfrwt>
<pdfrwt beam="2">  1       21 0.29891214E-01 0.25951030E+03</pdfrwt>
<totfact> 0.34475455E+03</totfact>
</mgrwt>
</event>
<event>
 4    1  0.1115666E+000  0.2617293E+03  0.7546771E-02  0.1106109E+00
         21   -1    0    0  501  502  0.00000000000E+00  0.00000000000E+00  0.47219368717E+03  0.47219368717E+03  0.00000000000E+00 0.  1.
         21   -1    0    0  502  503 -0.00000000000E+00 -0.00000000000E+00 -0.20058178225E+03  0.20058178225E+03  0.00000000000E+00 0.  1.
          6    1    1    2  501    0  0.14376925426E+03 -0.13508746498E+03  0.31276713794E+03  0.40783023948E+03  0.17200000000E+03 0.  1.
         -6    1    1    2    0  503 -0.14376925426E+03  0.13508746498E+03 -0.41155233016E+02  0.26494522994E+03  0.17200000000E+03 0.  1.
<mgrwt>
<rscale>  2 0.26172929E+03</rscale>
<asrwt>0</asrwt>
<pdfrwt beam="1">  1       21 0.11804842E+00 0.26172929E+03</pdfrwt>
<pdfrwt beam="2">  1       21 0.50145446E-01 0.26172929E+03</pdfrwt>
<totfact> 0.19699529E+03</totfact>
</mgrwt>
</event>
<event>
 4    1  0.1115666E+000  0.2107284E+03  0.7546771E-02  0.1140990E+00
         21   -1    0    0  501  502  0.00000000000E+00  0.00000000000E+00  0.93790781129E+02  0.93790781129E+02  0.00000000000E+00 0. -1.
         21   -1    0    0  502  503 -0.00000000000E+00 -0.00000000000E+00 -0.47370729917E+03  0.47370729917E+03  0.00000000000E+00 0. -1.
          6    1    1    2  501    0 -0.38822904968E+02  0.11539168159E+03 -0.19640294439E+03  0.28806349074E+03  0.17200000000E+03 0. -1.
         -6    1    1    2    0  503  0.38822904968E+02 -0.11539168159E+03 -0.18351357365E+03  0.27943458956E+03  0.17200000000E+03 0. -1.
<mgrwt>
<rscale>  2 0.21072840E+03</rscale>
<asrwt>0</asrwt>
<pdfrwt beam="1">  1       21 0.23447696E-01 0.21072840E+03</pdfrwt>
<pdfrwt beam="2">  1       21 0.11842682E+00 0.21072840E+03</pdfrwt>
<totfact> 0.92163563E+03</totfact>
</mgrwt>
</event>
<event>
 4    1  0.1115666E+000  0.1817636E+03  0.7546771E-02  0.1166107E+00
         21   -1    0    0  503  502  0.00000000000E+00  0.00000000000E+00  0.54233891927E+03  0.54233891927E+03  0.00000000000E+00 0. -1.
         21   -1    0    0  501  503 -0.00000000000E+00 -0.00000000000E+00 -0.90301148146E+02  0.90301148146E+02  0.00000000000E+00 0. -1.
          6    1    1    2  501    0 -0.57096377089E+02  0.13928551056E+02  0.45579238114E+02  0.18739121580E+03  0.17200000000E+03 0. -1.
         -6    1    1    2    0  502  0.57096377089E+02 -0.13928551056E+02  0.40645853301E+03  0.44524885162E+03  0.17200000000E+03 0. -1.
<mgrwt>
<rscale>  2 0.18176358E+03</rscale>
<asrwt>0</asrwt>
<pdfrwt beam="1">  1       21 0.13558472E+00 0.18176358E+03</pdfrwt>
<pdfrwt beam="2">  1       21 0.22575289E-01 0.18176358E+03</pdfrwt>
<totfact> 0.72049814E+03</totfact>
</mgrwt>
</event>
<event>
 4    1  0.1115666E+000  0.2169481E+03  0.7546771E-02  0.1136179E+00
         21   -1    0    0  501  502  0.00000000000E+00  0.00000000000E+00  0.17441424621E+03  0.17441424621E+03  0.00000000000E+00 0. -1.
         21   -1    0    0  502  503 -0.00000000000E+00 -0.00000000000E+00 -0.31125931957E+03  0.31125931957E+03  0.00000000000E+00 0. -1.
          6    1    1    2  501    0 -0.23165355716E+02 -0.13017622966E+03  0.20145757010E+02  0.21788147236E+03  0.17200000000E+03 0. -1.
         -6    1    1    2    0  503  0.23165355716E+02  0.13017622966E+03 -0.15699083037E+03  0.26779209341E+03  0.17200000000E+03 0. -1.
<mgrwt>
<rscale>  2 0.21694811E+03</rscale>
<asrwt>0</asrwt>
<pdfrwt beam="1">  1       21 0.43603562E-01 0.21694811E+03</pdfrwt>
<pdfrwt beam="2">  1       21 0.77814829E-01 0.21694811E+03</pdfrwt>
<totfact> 0.72729374E+03</totfact>
</mgrwt>
</event>
<event>
 4    1  0.1115666E+000  0.2016541E+03  0.7546771E-02  0.1148351E+00
         21   -1    0    0  503  502  0.00000000000E+00  0.00000000000E+00  0.32326227037E+03  0.32326227037E+03  0.00000000000E+00 0.  1.
         21   -1    0    0  501  503 -0.00000000000E+00 -0.00000000000E+00 -0.22348844489E+03  0.22348844489E+03  0.00000000000E+00 0. -1.
          6    1    1    2  501    0  0.29517841391E+02 -0.10103993075E+03 -0.13085852176E+03  0.24039202001E+03  0.17200000000E+03 0. -1.
         -6    1    1    2    0  502 -0.29517841391E+02  0.10103993075E+03  0.23063234724E+03  0.30635869526E+03  0.17200000000E+03 0.  1.
<mgrwt>
<rscale>  2 0.20165409E+03</rscale>
<asrwt>0</asrwt>
<pdfrwt beam="1">  1       21 0.80815567E-01 0.20165409E+03</pdfrwt>
<pdfrwt beam="2">  1       21 0.55872112E-01 0.20165409E+03</pdfrwt>
<totfact> 0.40258091E+03</totfact>
</mgrwt>
</event>
<event>
 4    1  0.1115666E+000  0.2907437E+03  0.7546771E-02  0.1089962E+00
         21   -1    0    0  501  502  0.00000000000E+00  0.00000000000E+00  0.51793019815E+03  0.51793019815E+03  0.00000000000E+00 0. -1.
         21   -1    0    0  502  503 -0.00000000000E+00 -0.00000000000E+00 -0.16622961001E+03  0.16622961001E+03  0.00000000000E+00 0.  1.
          6    1    1    2  501    0 -0.33995417944E+02  0.23193143282E+03  0.22194814783E+03  0.36577706092E+03  0.17200000000E+03 0. -1.
         -6    1    1    2    0  503  0.33995417944E+02 -0.23193143282E+03  0.12975244031E+03  0.31838274724E+03  0.17200000000E+03 0.  1.
<mgrwt>
<rscale>  2 0.29074366E+03</rscale>
<asrwt>0</asrwt>
<pdfrwt beam="1">  1       21 0.12948255E+00 0.29074366E+03</pdfrwt>
<pdfrwt beam="2">  1       21 0.41557404E-01 0.29074366E+03</pdfrwt>
<totfact> 0.22605312E+03</totfact>
</mgrwt>
</event>
<event>
 4    1  0.1115666E+000  0.1834389E+03  0.7546771E-02  0.1164516E+00
         21   -1    0    0  501  502  0.00000000000E+00  0.00000000000E+00  0.72923411007E+02  0.72923411007E+02  0.00000000000E+00 0. -1.
         21   -1    0    0  502  503 -0.00000000000E+00 -0.00000000000E+00 -0.12472209932E+04  0.12472209932E+04  0.00000000000E+00 0. -1.
          6    1    1    2  501    0 -0.50719495444E+02 -0.38644097730E+02 -0.63222382343E+02  0.19402809883E+03  0.17200000000E+03 0. -1.
         -6    1    1    2    0  503  0.50719495444E+02  0.38644097730E+02 -0.11110751999E+04  0.11261163054E+04  0.17200000000E+03 0. -1.
<mgrwt>
<rscale>  2 0.18343891E+03</rscale>
<asrwt>0</asrwt>
<pdfrwt beam="1">  1       21 0.18230853E-01 0.18343891E+03</pdfrwt>
<pdfrwt beam="2">  1       21 0.31180525E+00 0.18343891E+03</pdfrwt>
<totfact> 0.81111817E+02</totfact>
</mgrwt>
</event>
<event>
 4    1  0.1115666E+000  0.1904271E+03  0.7546771E-02  0.1158077E+00
         21   -1    0    0  503  502  0.00000000000E+00  0.00000000000E+00  0.30742364834E+03  0.30742364834E+03  0.00000000000E+00 0. -1.
         21   -1    0    0  501  503 -0.00000000000E+00 -0.00000000000E+00 -0.19584386435E+03  0.19584386435E+03  0.00000000000E+00 0. -1.
          6    1    1    2  501    0  0.58083538217E+02 -0.57487117207E+02 -0.10289982799E+03  0.21645055014E+03  0.17200000000E+03 0. -1.
         -6    1    1    2    0  502 -0.58083538217E+02  0.57487117207E+02  0.21447961198E+03  0.28681696256E+03  0.17200000000E+03 0. -1.
<mgrwt>
<rscale>  2 0.19042706E+03</rscale>
<asrwt>0</asrwt>
<pdfrwt beam="1">  1       21 0.76855911E-01 0.19042706E+03</pdfrwt>
<pdfrwt beam="2">  1       21 0.48960966E-01 0.19042706E+03</pdfrwt>
<totfact> 0.60024105E+03</totfact>
</mgrwt>
</event>
<event>
 4    1  0.1115666E+000  0.2125560E+03  0.7546771E-02  0.1139558E+00
         21   -1    0    0  503  502  0.00000000000E+00  0.00000000000E+00  0.20009161717E+03  0.20009161717E+03  0.00000000000E+00 0.  1.
         21   -1    0    0  501  503 -0.00000000000E+00 -0.00000000000E+00 -0.26616303933E+03  0.26616303933E+03  0.00000000000E+00 0.  1.
          6    1    1    2  501    0 -0.80445695353E+02  0.95522477847E+02  0.57752252605E+02  0.22026206291E+03  0.17200000000E+03 0.  1.
         -6    1    1    2    0  502  0.80445695353E+02 -0.95522477847E+02 -0.12382367476E+03  0.24599259360E+03  0.17200000000E+03 0.  1.
<mgrwt>
<rscale>  2 0.21255600E+03</rscale>
<asrwt>0</asrwt>
<pdfrwt beam="1">  1       21 0.50022905E-01 0.21255600E+03</pdfrwt>
<pdfrwt beam="2">  1       21 0.66540759E-01 0.21255600E+03</pdfrwt>
<totfact> 0.77731716E+03</totfact>
</mgrwt>
</event>
<event>
 4    1  0.1115666E+000  0.1834641E+03  0.7546771E-02  0.1164492E+00
         21   -1    0    0  501  502  0.00000000000E+00  0.00000000000E+00  0.37934960729E+03  0.37934960729E+03  0.00000000000E+00 0. -1.
         21   -1    0    0  502  503 -0.00000000000E+00 -0.00000000000E+00 -0.10162402884E+04  0.10162402884E+04  0.00000000000E+00 0. -1.
          6    1    1    2  501    0 -0.14249712981E+02 -0.62225495485E+02  0.34819159064E+03  0.39356886361E+03  0.17200000000E+03 0. -1.
         -6    1    1    2    0  503  0.14249712981E+02  0.62225495485E+02 -0.98508227175E+03  0.10020210321E+04  0.17200000000E+03 0. -1.
<mgrwt>
<rscale>  2 0.18346407E+03</rscale>
<asrwt>0</asrwt>
<pdfrwt beam="1">  1       21 0.94837402E-01 0.18346407E+03</pdfrwt>
<pdfrwt beam="2">  1       21 0.25406007E+00 0.18346407E+03</pdfrwt>
<totfact> 0.59450963E+01</totfact>
</mgrwt>
</event>
<event>
 4    1  0.1115666E+000  0.2310484E+03  0.7546771E-02  0.1125904E+00
         21   -1    0    0  501  502  0.00000000000E+00  0.00000000000E+00  0.90128916165E+03  0.90128916165E+03  0.00000000000E+00 0. -1.
         21   -1    0    0  502  503 -0.00000000000E+00 -0.00000000000E+00 -0.89218370042E+02  0.89218370042E+02  0.00000000000E+00 0. -1.
          6    1    1    2  501    0 -0.15426864227E+03 -0.73914497390E+00  0.11890640239E+03  0.25985013537E+03  0.17200000000E+03 0. -1.
         -6    1    1    2    0  503  0.15426864227E+03  0.73914497390E+00  0.69316438922E+03  0.73065739632E+03  0.17200000000E+03 0. -1.
<mgrwt>
<rscale>  2 0.23104839E+03</rscale>
<asrwt>0</asrwt>
<pdfrwt beam="1">  1       21 0.22532226E+00 0.23104839E+03</pdfrwt>
<pdfrwt beam="2">  1       21 0.22304595E-01 0.23104839E+03</pdfrwt>
<totfact> 0.16872275E+03</totfact>
</mgrwt>
</event>
<event>
 4    1  0.1115666E+000  0.1903112E+03  0.7546771E-02  0.1158181E+00
         21   -1    0    0  503  502  0.00000000000E+00  0.00000000000E+00  0.30827533541E+03  0.30827533541E+03  0.00000000000E+00 0.  1.
         21   -1    0    0  501  503 -0.00000000000E+00 -0.00000000000E+00 -0.13031024488E+03  0.13031024488E+03  0.00000000000E+00 0.  1.
          6    1    1    2  501    0 -0.23208601712E+02  0.78074945897E+02  0.20191092982E+02  0.19137924811E+03  0.17200000000E+03 0.  1.
         -6    1    1    2    0  502  0.23208601712E+02 -0.78074945897E+02  0.15777399755E+03  0.24720633219E+03  0.17200000000E+03 0.  1.
<mgrwt>
<rscale>  2 0.19031116E+03</rscale>
<asrwt>0</asrwt>
<pdfrwt beam="1">  1       21 0.77068833E-01 0.19031116E+03</pdfrwt>
<pdfrwt beam="2">  1       21 0.32577562E-01 0.19031116E+03</pdfrwt>
<totfact> 0.13586154E+04</totfact>
</mgrwt>
</event>
<event>
 4    1  0.1115666E+000  0.1927451E+03  0.7546771E-02  0.1156009E+00
         21   -1    0    0  501  502  0.00000000000E+00  0.00000000000E+00  0.43284871471E+03  0.43284871471E+03  0.00000000000E+00 0.  1.
         21   -1    0    0  502  503 -0.00000000000E+00 -0.00000000000E+00 -0.10273715900E+03  0.10273715900E+03  0.00000000000E+00 0.  1.
          6    1    1    2  501    0  0.22823096450E+01  0.86956632608E+02  0.27369649544E+03  0.33475429274E+03  0.17200000000E+03 0.  1.
         -6    1    1    2    0  503 -0.22823096450E+01 -0.86956632608E+02  0.56415060274E+02  0.20083158098E+03  0.17200000000E+03 0.  1.
<mgrwt>
<rscale>  2 0.19274508E+03</rscale>
<asrwt>0</asrwt>
<pdfrwt beam="1">  1       21 0.10821217E+00 0.19274508E+03</pdfrwt>
<pdfrwt beam="2">  1       21 0.25684291E-01 0.19274508E+03</pdfrwt>
<totfact> 0.97741510E+03</totfact>
</mgrwt>
</event>
<event>
 4    1  0.1115666E+000  0.1763676E+03  0.7546771E-02  0.1171365E+00
         21   -1    0    0  501  502  0.00000000000E+00  0.00000000000E+00  0.29638630386E+03  0.29638630386E+03  0.00000000000E+00 0.  1.
         21   -1    0    0  502  503 -0.00000000000E+00 -0.00000000000E+00 -0.15424526708E+03  0.15424526708E+03  0.00000000000E+00 0.  1.
          6    1    1    2  501    0 -0.32334021142E+02  0.21818567291E+02  0.19844761236E+03  0.26549386745E+03  0.17200000000E+03 0.  1.
         -6    1    1    2    0  503  0.32334021142E+02 -0.21818567291E+02 -0.56306575578E+02  0.18513770349E+03  0.17200000000E+03 0.  1.
<mgrwt>
<rscale>  2 0.17636762E+03</rscale>
<asrwt>0</asrwt>
<pdfrwt beam="1">  1       21 0.74096575E-01 0.17636762E+03</pdfrwt>
<pdfrwt beam="2">  1       21 0.38561317E-01 0.17636762E+03</pdfrwt>
<totfact> 0.10713175E+04</totfact>
</mgrwt>
</event>
<event>
 4    1  0.1115666E+000  0.3072572E+03  0.7546771E-02  0.1081668E+00
         21   -1    0    0  503  502  0.00000000000E+00  0.00000000000E+00  0.25035091166E+03  0.25035091166E+03  0.00000000000E+00 0. -1.
         21   -1    0    0  501  503 -0.00000000000E+00 -0.00000000000E+00 -0.44119009311E+03  0.44119009311E+03  0.00000000000E+00 0.  1.
          6    1    1    2  501    0  0.87192988847E+02  0.23920773531E+03 -0.22720748997E+03  0.38213898183E+03  0.17200000000E+03 0.  1.
         -6    1    1    2    0  502 -0.87192988847E+02 -0.23920773531E+03  0.36368308519E+02  0.30940202294E+03  0.17200000000E+03 0. -1.
<mgrwt>
<rscale>  2 0.30725715E+03</rscale>
<asrwt>0</asrwt>
<pdfrwt beam="1">  1       21 0.62587728E-01 0.30725715E+03</pdfrwt>
<pdfrwt beam="2">  1       21 0.11029752E+00 0.30725715E+03</pdfrwt>
<totfact> 0.14062417E+03</totfact>
</mgrwt>
</event>
<event>
 4    1  0.1115666E+000  0.2206056E+03  0.7546771E-02  0.1133432E+00
         21   -1    0    0  503  502  0.00000000000E+00  0.00000000000E+00  0.25914303347E+03  0.25914303347E+03  0.00000000000E+00 0.  1.
         21   -1    0    0  501  503 -0.00000000000E+00 -0.00000000000E+00 -0.39635164813E+03  0.39635164813E+03  0.00000000000E+00 0.  1.
          6    1    1    2  501    0  0.11065150068E+03  0.82698682699E+02 -0.30634668385E+03  0.37751174476E+03  0.17200000000E+03 0.  1.
         -6    1    1    2    0  502 -0.11065150068E+03 -0.82698682699E+02  0.16913806919E+03  0.27798293684E+03  0.17200000000E+03 0.  1.
<mgrwt>
<rscale>  2 0.22060559E+03</rscale>
<asrwt>0</asrwt>
<pdfrwt beam="1">  1       21 0.64785759E-01 0.22060559E+03</pdfrwt>
<pdfrwt beam="2">  1       21 0.99087911E-01 0.22060559E+03</pdfrwt>
<totfact> 0.17966009E+03</totfact>
</mgrwt>
</event>
<event>
 4    1  0.1115666E+000  0.2138661E+03  0.7546771E-02  0.1138541E+00
         21   -1    0    0  501  502  0.00000000000E+00  0.00000000000E+00  0.43911303978E+03  0.43911303978E+03  0.00000000000E+00 0. -1.
         21   -1    0    0  502  503 -0.00000000000E+00 -0.00000000000E+00 -0.13830611188E+03  0.13830611188E+03  0.00000000000E+00 0. -1.
          6    1    1    2  501    0  0.85542572959E+02 -0.94006230768E+02  0.29385366247E+03  0.36344006130E+03  0.17200000000E+03 0. -1.
         -6    1    1    2    0  503 -0.85542572959E+02  0.94006230768E+02  0.69532654250E+01  0.21397909036E+03  0.17200000000E+03 0. -1.
<mgrwt>
<rscale>  2 0.21386609E+03</rscale>
<asrwt>0</asrwt>
<pdfrwt beam="1">  1       21 0.10977826E+00 0.21386609E+03</pdfrwt>
<pdfrwt beam="2">  1       21 0.34576529E-01 0.21386609E+03</pdfrwt>
<totfact> 0.52045442E+03</totfact>
</mgrwt>
</event>
<event>
 4    1  0.1115666E+000  0.2042996E+03  0.7546771E-02  0.1146161E+00
         21   -1    0    0  503  502  0.00000000000E+00  0.00000000000E+00  0.60321145701E+03  0.60321145701E+03  0.00000000000E+00 0. -1.
         21   -1    0    0  501  503 -0.00000000000E+00 -0.00000000000E+00 -0.12214030114E+03  0.12214030114E+03  0.00000000000E+00 0. -1.
          6    1    1    2  501    0 -0.52111125795E+02  0.97153214497E+02  0.17494949576E+01  0.20430706608E+03  0.17200000000E+03 0. -1.
         -6    1    1    2    0  502  0.52111125795E+02 -0.97153214497E+02  0.47932166091E+03  0.52104469207E+03  0.17200000000E+03 0. -1.
<mgrwt>
<rscale>  2 0.20429958E+03</rscale>
<asrwt>0</asrwt>
<pdfrwt beam="1">  1       21 0.15080286E+00 0.20429958E+03</pdfrwt>
<pdfrwt beam="2">  1       21 0.30535077E-01 0.20429958E+03</pdfrwt>
<totfact> 0.30026099E+03</totfact>
</mgrwt>
</event>
<event>
 4    1  0.1115666E+000  0.1786247E+03  0.7546771E-02  0.1169141E+00
         21   -1    0    0  501  502  0.00000000000E+00  0.00000000000E+00  0.61853680158E+03  0.61853680158E+03  0.00000000000E+00 0.  1.
         21   -1    0    0  502  503 -0.00000000000E+00 -0.00000000000E+00 -0.51671082023E+02  0.51671082023E+02  0.00000000000E+00 0.  1.
          6    1    1    2  501    0  0.38451265557E+02 -0.29056433116E+02  0.26969818453E+03  0.32348707372E+03  0.17200000000E+03 0.  1.
         -6    1    1    2    0  503 -0.38451265557E+02  0.29056433116E+02  0.29716753503E+03  0.34672080988E+03  0.17200000000E+03 0.  1.
<mgrwt>
<rscale>  2 0.17862468E+03</rscale>
<asrwt>0</asrwt>
<pdfrwt beam="1">  1       21 0.15463418E+00 0.17862468E+03</pdfrwt>
<pdfrwt beam="2">  1       21 0.12917772E-01 0.17862468E+03</pdfrwt>
<totfact> 0.14326382E+04</totfact>
</mgrwt>
</event>
<event>
 4    1  0.1115666E+000  0.3466685E+03  0.7546771E-02  0.1063991E+00
         21   -1    0    0  501  502  0.00000000000E+00  0.00000000000E+00  0.55504739517E+03  0.55504739517E+03  0.00000000000E+00 0.  1.
         21   -1    0    0  502  503 -0.00000000000E+00 -0.00000000000E+00 -0.33221998197E+03  0.33221998197E+03  0.00000000000E+00 0. -1.
          6    1    1    2  501    0  0.29654336317E+03 -0.51547020279E+02  0.37321851210E+03  0.50938307717E+03  0.17200000000E+03 0.  1.
         -6    1    1    2    0  503 -0.29654336317E+03  0.51547020279E+02 -0.15039109889E+03  0.37788429997E+03  0.17200000000E+03 0. -1.
<mgrwt>
<rscale>  2 0.34666852E+03</rscale>
<asrwt>0</asrwt>
<pdfrwt beam="1">  1       21 0.13876185E+00 0.34666852E+03</pdfrwt>
<pdfrwt beam="2">  1       21 0.83054996E-01 0.34666852E+03</pdfrwt>
<totfact> 0.40589268E+02</totfact>
</mgrwt>
</event>
<event>
 4    1  0.1115666E+000  0.2006435E+03  0.7546771E-02  0.1149197E+00
         21   -1    0    0  503  502  0.00000000000E+00  0.00000000000E+00  0.84741962766E+02  0.84741962766E+02  0.00000000000E+00 0. -1.
         21   -1    0    0  501  503 -0.00000000000E+00 -0.00000000000E+00 -0.50511497547E+03  0.50511497547E+03  0.00000000000E+00 0.  1.
          6    1    1    2  501    0  0.86343809524E+02 -0.56732350837E+02 -0.28212386777E+03  0.34619602806E+03  0.17200000000E+03 0. -1.
         -6    1    1    2    0  502 -0.86343809524E+02  0.56732350837E+02 -0.13824914493E+03  0.24366091018E+03  0.17200000000E+03 0. -1.
<mgrwt>
<rscale>  2 0.20064350E+03</rscale>
<asrwt>0</asrwt>
<pdfrwt beam="1">  1       21 0.21185491E-01 0.20064350E+03</pdfrwt>
<pdfrwt beam="2">  1       21 0.12627874E+00 0.20064350E+03</pdfrwt>
<totfact> 0.95801488E+03</totfact>
</mgrwt>
</event>
<event>
 4    1  0.1115666E+000  0.2184405E+03  0.7546771E-02  0.1135051E+00
         21   -1    0    0  501  502  0.00000000000E+00  0.00000000000E+00  0.63737870206E+02  0.63737870206E+02  0.00000000000E+00 0. -1.
         21   -1    0    0  502  503 -0.00000000000E+00 -0.00000000000E+00 -0.12853480331E+04  0.12853480331E+04  0.00000000000E+00 0.  1.
          6    1    1    2  501    0 -0.13039403690E+03 -0.33610480049E+02 -0.17492086454E+03  0.27984563259E+03  0.17200000000E+03 0. -1.
         -6    1    1    2    0  503  0.13039403690E+03  0.33610480049E+02 -0.10466892983E+04  0.10692402707E+04  0.17200000000E+03 0.  1.
<mgrwt>
<rscale>  2 0.21844054E+03</rscale>
<asrwt>0</asrwt>
<pdfrwt beam="1">  1       21 0.15934468E-01 0.21844054E+03</pdfrwt>
<pdfrwt beam="2">  1       21 0.32133700E+00 0.21844054E+03</pdfrwt>
<totfact> 0.87259811E+02</totfact>
</mgrwt>
</event>
<event>
 4    1  0.1115666E+000  0.1790273E+03  0.7546771E-02  0.1168748E+00
         21   -1    0    0  501  502  0.00000000000E+00  0.00000000000E+00  0.27900094181E+03  0.27900094181E+03  0.00000000000E+00 0. -1.
         21   -1    0    0  502  503 -0.00000000000E+00 -0.00000000000E+00 -0.11731594917E+03  0.11731594917E+03  0.00000000000E+00 0. -1.
          6    1    1    2  501    0 -0.20885196104E+02 -0.45062125717E+02  0.52270742442E+02  0.18650205657E+03  0.17200000000E+03 0.  1.
         -6    1    1    2    0  503  0.20885196104E+02  0.45062125717E+02  0.10941425020E+03  0.20981483440E+03  0.17200000000E+03 0.  1.
<mgrwt>
<rscale>  2 0.17902733E+03</rscale>
<asrwt>0</asrwt>
<pdfrwt beam="1">  1       21 0.69750234E-01 0.17902733E+03</pdfrwt>
<pdfrwt beam="2">  1       21 0.29328988E-01 0.17902733E+03</pdfrwt>
<totfact> 0.20966517E+04</totfact>
</mgrwt>
</event>
<event>
 4    1  0.1115666E+000  0.1741000E+03  0.7546771E-02  0.1173638E+00
         21   -1    0    0  501  502  0.00000000000E+00  0.00000000000E+00  0.23815420113E+03  0.23815420113E+03  0.00000000000E+00 0.  1.
         21   -1    0    0  502  503 -0.00000000000E+00 -0.00000000000E+00 -0.14903248551E+03  0.14903248551E+03  0.00000000000E+00 0.  1.
          6    1    1    2  501    0 -0.12820333621E+01 -0.26929194276E+02  0.11853242345E+03  0.21061994332E+03  0.17200000000E+03 0.  1.
         -6    1    1    2    0  503  0.12820333621E+01  0.26929194276E+02 -0.29410707833E+02  0.17656674333E+03  0.17200000000E+03 0.  1.
<mgrwt>
<rscale>  2 0.17410004E+03</rscale>
<asrwt>0</asrwt>
<pdfrwt beam="1">  1       21 0.59538550E-01 0.17410004E+03</pdfrwt>
<pdfrwt beam="2">  1       21 0.37258122E-01 0.17410004E+03</pdfrwt>
<totfact> 0.18513970E+04</totfact>
</mgrwt>
</event>
<event>
 4    1  0.1115666E+000  0.1793022E+03  0.7546771E-02  0.1168480E+00
         21   -1    0    0  503  502  0.00000000000E+00  0.00000000000E+00  0.13651806097E+03  0.13651806097E+03  0.00000000000E+00 0. -1.
         21   -1    0    0  501  503 -0.00000000000E+00 -0.00000000000E+00 -0.32100751342E+03  0.32100751342E+03  0.00000000000E+00 0. -1.
          6    1    1    2  501    0  0.49844003432E+02 -0.89917090404E+01 -0.21031578513E+03  0.27637294546E+03  0.17200000000E+03 0. -1.
         -6    1    1    2    0  502 -0.49844003432E+02  0.89917090404E+01  0.25826332671E+02  0.18115262893E+03  0.17200000000E+03 0. -1.
<mgrwt>
<rscale>  2 0.17930219E+03</rscale>
<asrwt>0</asrwt>
<pdfrwt beam="1">  1       21 0.34129516E-01 0.17930219E+03</pdfrwt>
<pdfrwt beam="2">  1       21 0.80251878E-01 0.17930219E+03</pdfrwt>
<totfact> 0.11399988E+04</totfact>
</mgrwt>
</event>
<event>
 4    1  0.1115666E+000  0.1928045E+03  0.7546771E-02  0.1155956E+00
         21   -1    0    0  501  502  0.00000000000E+00  0.00000000000E+00  0.24695997862E+03  0.24695997862E+03  0.00000000000E+00 0.  1.
         21   -1    0    0  502  503 -0.00000000000E+00 -0.00000000000E+00 -0.25440244453E+03  0.25440244453E+03  0.00000000000E+00 0.  1.
          6    1    1    2  501    0 -0.86891689190E+02 -0.62787050705E+01  0.15646393715E+03  0.24830334556E+03  0.17200000000E+03 0.  1.
         -6    1    1    2    0  503  0.86891689190E+02  0.62787050705E+01 -0.16390640305E+03  0.25305907759E+03  0.17200000000E+03 0.  1.
<mgrwt>
<rscale>  2 0.19280453E+03</rscale>
<asrwt>0</asrwt>
<pdfrwt beam="1">  1       21 0.61739995E-01 0.19280453E+03</pdfrwt>
<pdfrwt beam="2">  1       21 0.63600611E-01 0.19280453E+03</pdfrwt>
<totfact> 0.55673248E+03</totfact>
</mgrwt>
</event>
<event>
 4    1  0.1115666E+000  0.1850989E+03  0.7546771E-02  0.1162958E+00
         21   -1    0    0  503  502  0.00000000000E+00  0.00000000000E+00  0.51970198093E+03  0.51970198093E+03  0.00000000000E+00 0.  1.
         21   -1    0    0  501  503 -0.00000000000E+00 -0.00000000000E+00 -0.16491525215E+03  0.16491525215E+03  0.00000000000E+00 0.  1.
          6    1    1    2  501    0 -0.42283167862E+01 -0.68262271513E+02 -0.87812133877E+02  0.20487212409E+03  0.17200000000E+03 0.  1.
         -6    1    1    2    0  502  0.42283167862E+01  0.68262271513E+02  0.44259886265E+03  0.47974510898E+03  0.17200000000E+03 0.  1.
<mgrwt>
<rscale>  2 0.18509894E+03</rscale>
<asrwt>0</asrwt>
<pdfrwt beam="1">  1       21 0.12992549E+00 0.18509894E+03</pdfrwt>
<pdfrwt beam="2">  1       21 0.41228814E-01 0.18509894E+03</pdfrwt>
<totfact> 0.24696152E+03</totfact>
</mgrwt>
</event>
<event>
 4    1  0.1115666E+000  0.2190973E+03  0.7546771E-02  0.1134558E+00
         21   -1    0    0  503  502  0.00000000000E+00  0.00000000000E+00  0.23986517267E+03  0.23986517267E+03  0.00000000000E+00 0. -1.
         21   -1    0    0  501  503 -0.00000000000E+00 -0.00000000000E+00 -0.20133971691E+03  0.20133971691E+03  0.00000000000E+00 0.  1.
          6    1    1    2  501    0 -0.65975132290E+02  0.11860398826E+03  0.21456073909E+01  0.21910779937E+03  0.17200000000E+03 0.  1.
         -6    1    1    2    0  502  0.65975132290E+02 -0.11860398826E+03  0.36379848362E+02  0.22209709021E+03  0.17200000000E+03 0. -1.
<mgrwt>
<rscale>  2 0.21909729E+03</rscale>
<asrwt>0</asrwt>
<pdfrwt beam="1">  1       21 0.59966293E-01 0.21909729E+03</pdfrwt>
<pdfrwt beam="2">  1       21 0.50334929E-01 0.21909729E+03</pdfrwt>
<totfact> 0.95768057E+03</totfact>
</mgrwt>
</event>
<event>
 4    1  0.1115666E+000  0.2165941E+03  0.7546771E-02  0.1136448E+00
         21   -1    0    0  503  502  0.00000000000E+00  0.00000000000E+00  0.86778966482E+02  0.86778966482E+02  0.00000000000E+00 0.  1.
         21   -1    0    0  501  503 -0.00000000000E+00 -0.00000000000E+00 -0.56619937606E+03  0.56619937606E+03  0.00000000000E+00 0.  1.
          6    1    1    2  501    0  0.74710489141E+02 -0.10838509489E+03 -0.30912814605E+03  0.37745621821E+03  0.17200000000E+03 0.  1.
         -6    1    1    2    0  502 -0.74710489141E+02  0.10838509489E+03 -0.17029226353E+03  0.27552212434E+03  0.17200000000E+03 0.  1.
<mgrwt>
<rscale>  2 0.21659406E+03</rscale>
<asrwt>0</asrwt>
<pdfrwt beam="1">  1       21 0.21694742E-01 0.21659406E+03</pdfrwt>
<pdfrwt beam="2">  1       21 0.14154984E+00 0.21659406E+03</pdfrwt>
<totfact> 0.67662160E+03</totfact>
</mgrwt>
</event>
<event>
 4    1  0.1115666E+000  0.2753093E+03  0.7546771E-02  0.1098279E+00
         21   -1    0    0  501  502  0.00000000000E+00  0.00000000000E+00  0.55075688788E+03  0.55075688788E+03  0.00000000000E+00 0.  1.
         21   -1    0    0  502  503 -0.00000000000E+00 -0.00000000000E+00 -0.25546632605E+03  0.25546632605E+03  0.00000000000E+00 0.  1.
          6    1    1    2  501    0  0.56341359661E+02 -0.20745326499E+03 -0.12614394366E+03  0.30283246273E+03  0.17200000000E+03 0.  1.
         -6    1    1    2    0  503 -0.56341359661E+02  0.20745326499E+03  0.42143450550E+03  0.50339075119E+03  0.17200000000E+03 0.  1.
<mgrwt>
<rscale>  2 0.27530929E+03</rscale>
<asrwt>0</asrwt>
<pdfrwt beam="1">  1       21 0.13768922E+00 0.27530929E+03</pdfrwt>
<pdfrwt beam="2">  1       21 0.63866582E-01 0.27530929E+03</pdfrwt>
<totfact> 0.78527772E+02</totfact>
</mgrwt>
</event>
<event>
 4    1  0.1115666E+000  0.2195042E+03  0.7546771E-02  0.1134253E+00
         21   -1    0    0  503  502  0.00000000000E+00  0.00000000000E+00  0.38324500456E+03  0.38324500456E+03  0.00000000000E+00 0. -1.
         21   -1    0    0  501  503 -0.00000000000E+00 -0.00000000000E+00 -0.15718086893E+03  0.15718086893E+03  0.00000000000E+00 0.  1.
          6    1    1    2  501    0 -0.37302289003E+01  0.13632374275E+03  0.23391983825E+03  0.32078118425E+03  0.17200000000E+03 0.  1.
         -6    1    1    2    0  502  0.37302289003E+01 -0.13632374275E+03 -0.78557026233E+01  0.21964468923E+03  0.17200000000E+03 0. -1.
<mgrwt>
<rscale>  2 0.21950416E+03</rscale>
<asrwt>0</asrwt>
<pdfrwt beam="1">  1       21 0.95811249E-01 0.21950416E+03</pdfrwt>
<pdfrwt beam="2">  1       21 0.39295218E-01 0.21950416E+03</pdfrwt>
<totfact> 0.55565911E+03</totfact>
</mgrwt>
</event>
<event>
 4    1  0.1115666E+000  0.2058322E+03  0.7546771E-02  0.1144910E+00
         21   -1    0    0  503  502  0.00000000000E+00  0.00000000000E+00  0.38516433193E+03  0.38516433193E+03  0.00000000000E+00 0.  1.
         21   -1    0    0  501  503 -0.00000000000E+00 -0.00000000000E+00 -0.11626856407E+03  0.11626856407E+03  0.00000000000E+00 0.  1.
          6    1    1    2  501    0 -0.97127894050E+02 -0.57871060119E+02  0.76218442317E+02  0.21949063386E+03  0.17200000000E+03 0.  1.
         -6    1    1    2    0  502  0.97127894050E+02  0.57871060119E+02  0.19267732554E+03  0.28194226214E+03  0.17200000000E+03 0.  1.
<mgrwt>
<rscale>  2 0.20583218E+03</rscale>
<asrwt>0</asrwt>
<pdfrwt beam="1">  1       21 0.96291080E-01 0.20583218E+03</pdfrwt>
<pdfrwt beam="2">  1       21 0.29067142E-01 0.20583218E+03</pdfrwt>
<totfact> 0.10076811E+04</totfact>
</mgrwt>
</event>
<event>
 4    1  0.1115666E+000  0.1834332E+03  0.7546771E-02  0.1164521E+00
         21   -1    0    0  501  502  0.00000000000E+00  0.00000000000E+00  0.14003711159E+03  0.14003711159E+03  0.00000000000E+00 0. -1.
         21   -1    0    0  502  503 -0.00000000000E+00 -0.00000000000E+00 -0.25043925342E+03  0.25043925342E+03  0.00000000000E+00 0. -1.
          6    1    1    2  501    0  0.27833699288E+02 -0.57350110208E+02 -0.15873194657E+02  0.18411873415E+03  0.17200000000E+03 0. -1.
         -6    1    1    2    0  503 -0.27833699288E+02  0.57350110208E+02 -0.94528947176E+02  0.20635763085E+03  0.17200000000E+03 0. -1.
<mgrwt>
<rscale>  2 0.18343323E+03</rscale>
<asrwt>0</asrwt>
<pdfrwt beam="1">  1       21 0.35009278E-01 0.18343323E+03</pdfrwt>
<pdfrwt beam="2">  1       21 0.62609813E-01 0.18343323E+03</pdfrwt>
<totfact> 0.18697612E+04</totfact>
</mgrwt>
</event>
<event>
 4    1  0.1115666E+000  0.2207728E+03  0.7546771E-02  0.1133308E+00
         21   -1    0    0  503  502  0.00000000000E+00  0.00000000000E+00  0.48308608743E+03  0.48308608743E+03  0.00000000000E+00 0.  1.
         21   -1    0    0  501  503 -0.00000000000E+00 -0.00000000000E+00 -0.11834296092E+03  0.11834296092E+03  0.00000000000E+00 0. -1.
          6    1    1    2  501    0 -0.66480209581E+02 -0.12139600883E+03  0.66902712456E+02  0.23068719548E+03  0.17200000000E+03 0. -1.
         -6    1    1    2    0  502  0.66480209581E+02  0.12139600883E+03  0.29784041406E+03  0.37074185287E+03  0.17200000000E+03 0.  1.
<mgrwt>
<rscale>  2 0.22077275E+03</rscale>
<asrwt>0</asrwt>
<pdfrwt beam="1">  1       21 0.12077152E+00 0.22077275E+03</pdfrwt>
<pdfrwt beam="2">  1       21 0.29585741E-01 0.22077275E+03</pdfrwt>
<totfact> 0.55695990E+03</totfact>
</mgrwt>
</event>
<event>
 4    1  0.1115666E+000  0.1877314E+03  0.7546771E-02  0.1160523E+00
         21   -1    0    0  503  502  0.00000000000E+00  0.00000000000E+00  0.72736647129E+03  0.72736647129E+03  0.00000000000E+00 0. -1.
         21   -1    0    0  501  503 -0.00000000000E+00 -0.00000000000E+00 -0.61175961807E+02  0.61175961807E+02  0.00000000000E+00 0.  1.
          6    1    1    2  501    0  0.75000565397E+02  0.58309676725E+01  0.51289904547E+03  0.54617626810E+03  0.17200000000E+03 0. -1.
         -6    1    1    2    0  502 -0.75000565397E+02 -0.58309676725E+01  0.15329146401E+03  0.24236616499E+03  0.17200000000E+03 0.  1.
<mgrwt>
<rscale>  2 0.18773142E+03</rscale>
<asrwt>0</asrwt>
<pdfrwt beam="1">  1       21 0.18184159E+00 0.18773142E+03</pdfrwt>
<pdfrwt beam="2">  1       21 0.15293993E-01 0.18773142E+03</pdfrwt>
<totfact> 0.67230574E+03</totfact>
</mgrwt>
</event>
<event>
 4    1  0.1115666E+000  0.2534161E+03  0.7546771E-02  0.1111165E+00
         21   -1    0    0  503  502  0.00000000000E+00  0.00000000000E+00  0.54312239550E+03  0.54312239550E+03  0.00000000000E+00 0.  1.
         21   -1    0    0  501  503 -0.00000000000E+00 -0.00000000000E+00 -0.54315979747E+03  0.54315979747E+03  0.00000000000E+00 0. -1.
          6    1    1    2  501    0 -0.20836648143E+02 -0.18493658279E+03 -0.48041702015E+03  0.54315763717E+03  0.17200000000E+03 0. -1.
         -6    1    1    2    0  502  0.20836648143E+02  0.18493658279E+03  0.48037961818E+03  0.54312455581E+03  0.17200000000E+03 0.  1.
<mgrwt>
<rscale>  2 0.25341607E+03</rscale>
<asrwt>0</asrwt>
<pdfrwt beam="1">  1       21 0.13578060E+00 0.25341607E+03</pdfrwt>
<pdfrwt beam="2">  1       21 0.13578995E+00 0.25341607E+03</pdfrwt>
<totfact> 0.13956276E+02</totfact>
</mgrwt>
</event>
<event>
 4    1  0.1115666E+000  0.1846948E+03  0.7546771E-02  0.1163335E+00
         21   -1    0    0  501  502  0.00000000000E+00  0.00000000000E+00  0.14743128044E+03  0.14743128044E+03  0.00000000000E+00 0.  1.
         21   -1    0    0  502  503 -0.00000000000E+00 -0.00000000000E+00 -0.28682714963E+03  0.28682714963E+03  0.00000000000E+00 0. -1.
          6    1    1    2  501    0 -0.66741152969E+02  0.85903709155E+01  0.25770615974E+02  0.18648404924E+03  0.17200000000E+03 0.  1.
         -6    1    1    2    0  503  0.66741152969E+02 -0.85903709155E+01 -0.16516648517E+03  0.24777438083E+03  0.17200000000E+03 0. -1.
<mgrwt>
<rscale>  2 0.18469482E+03</rscale>
<asrwt>0</asrwt>
<pdfrwt beam="1">  1       21 0.36857820E-01 0.18469482E+03</pdfrwt>
<pdfrwt beam="2">  1       21 0.71706787E-01 0.18469482E+03</pdfrwt>
<totfact> 0.12538106E+04</totfact>
</mgrwt>
</event>
<event>
 4    1  0.1115666E+000  0.1951543E+03  0.7546771E-02  0.1153893E+00
         21   -1    0    0  501  502  0.00000000000E+00  0.00000000000E+00  0.44798834282E+03  0.44798834282E+03  0.00000000000E+00 0. -1.
         21   -1    0    0  502  503 -0.00000000000E+00 -0.00000000000E+00 -0.89810263251E+02  0.89810263251E+02  0.00000000000E+00 0.  1.
          6    1    1    2  501    0  0.38439865232E+02  0.83806830121E+02  0.24123108912E+03  0.31028639412E+03  0.17200000000E+03 0. -1.
         -6    1    1    2    0  503 -0.38439865232E+02 -0.83806830121E+02  0.11694699044E+03  0.22751221195E+03  0.17200000000E+03 0. -1.
<mgrwt>
<rscale>  2 0.19515432E+03</rscale>
<asrwt>0</asrwt>
<pdfrwt beam="1">  1       21 0.11199708E+00 0.19515432E+03</pdfrwt>
<pdfrwt beam="2">  1       21 0.22452567E-01 0.19515432E+03</pdfrwt>
<totfact> 0.11594205E+04</totfact>
</mgrwt>
</event>
<event>
 4    1  0.1115666E+000  0.2862218E+03  0.7546771E-02  0.1092338E+00
         21   -1    0    0  503  502  0.00000000000E+00  0.00000000000E+00  0.29556338398E+03  0.29556338398E+03  0.00000000000E+00 0. -1.
         21   -1    0    0  501  503 -0.00000000000E+00 -0.00000000000E+00 -0.41895607221E+03  0.41895607221E+03  0.00000000000E+00 0. -1.
          6    1    1    2  501    0  0.18462831801E+03  0.13509741539E+03 -0.26952632024E+03  0.39315056246E+03  0.17200000000E+03 0. -1.
         -6    1    1    2    0  502 -0.18462831801E+03 -0.13509741539E+03  0.14613363202E+03  0.32136889374E+03  0.17200000000E+03 0. -1.
<mgrwt>
<rscale>  2 0.28622182E+03</rscale>
<asrwt>0</asrwt>
<pdfrwt beam="1">  1       21 0.73890847E-01 0.28622182E+03</pdfrwt>
<pdfrwt beam="2">  1       21 0.10473902E+00 0.28622182E+03</pdfrwt>
<totfact> 0.11187545E+03</totfact>
</mgrwt>
</event>
<event>
 4    1  0.1115666E+000  0.2909735E+03  0.7546771E-02  0.1089842E+00
         21   -1    0    0  501  502  0.00000000000E+00  0.00000000000E+00  0.92557476681E+02  0.92557476681E+02  0.00000000000E+00 0. -1.
         21   -1    0    0  502  503 -0.00000000000E+00 -0.00000000000E+00 -0.10461226448E+04  0.10461226448E+04  0.00000000000E+00 0. -1.
          6    1    1    2  501    0  0.10862080083E+03 -0.20804595161E+03 -0.27501234070E+03  0.40037155729E+03  0.17200000000E+03 0. -1.
         -6    1    1    2    0  503 -0.10862080083E+03  0.20804595161E+03 -0.67855282745E+03  0.73830856422E+03  0.17200000000E+03 0. -1.
<mgrwt>
<rscale>  2 0.29097353E+03</rscale>
<asrwt>0</asrwt>
<pdfrwt beam="1">  1       21 0.23139369E-01 0.29097353E+03</pdfrwt>
<pdfrwt beam="2">  1       21 0.26153066E+00 0.29097353E+03</pdfrwt>
<totfact> 0.90270872E+02</totfact>
</mgrwt>
</event>
<event>
 4    1  0.1115666E+000  0.2024341E+03  0.7546771E-02  0.1147701E+00
         21   -1    0    0  501  502  0.00000000000E+00  0.00000000000E+00  0.67133619648E+02  0.67133619648E+02  0.00000000000E+00 0. -1.
         21   -1    0    0  502  503 -0.00000000000E+00 -0.00000000000E+00 -0.68456798342E+03  0.68456798342E+03  0.00000000000E+00 0. -1.
          6    1    1    2  501    0 -0.89599931449E+02  0.58029544026E+02 -0.18501924322E+03  0.27424750875E+03  0.17200000000E+03 0. -1.
         -6    1    1    2    0  503  0.89599931449E+02 -0.58029544026E+02 -0.43241512055E+03  0.47745409431E+03  0.17200000000E+03 0. -1.
<mgrwt>
<rscale>  2 0.20243413E+03</rscale>
<asrwt>0</asrwt>
<pdfrwt beam="1">  1       21 0.16783405E-01 0.20243413E+03</pdfrwt>
<pdfrwt beam="2">  1       21 0.17114199E+00 0.20243413E+03</pdfrwt>
<totfact> 0.66366488E+03</totfact>
</mgrwt>
</event>
<event>
 4    1  0.1115666E+000  0.1974681E+03  0.7546771E-02  0.1151893E+00
         21   -1    0    0  503  502  0.00000000000E+00  0.00000000000E+00  0.40197454701E+02  0.40197454701E+02  0.00000000000E+00 0. -1.
         21   -1    0    0  501  503 -0.00000000000E+00 -0.00000000000E+00 -0.19877212910E+04  0.19877212910E+04  0.00000000000E+00 0. -1.
          6    1    1    2  501    0  0.75149854189E+02 -0.61336375239E+02 -0.16992762298E+04  0.17107113598E+04  0.17200000000E+03 0. -1.
         -6    1    1    2    0  502 -0.75149854189E+02  0.61336375239E+02 -0.24824760648E+03  0.31720738585E+03  0.17200000000E+03 0. -1.
<mgrwt>
<rscale>  2 0.19746810E+03</rscale>
<asrwt>0</asrwt>
<pdfrwt beam="1">  1       21 0.10049364E-01 0.19746810E+03</pdfrwt>
<pdfrwt beam="2">  1       21 0.49693030E+00 0.19746810E+03</pdfrwt>
<totfact> 0.15868312E+02</totfact>
</mgrwt>
</event>
<event>
 4    1  0.1115666E+000  0.1880754E+03  0.7546771E-02  0.1160209E+00
         21   -1    0    0  503  502  0.00000000000E+00  0.00000000000E+00  0.20455568439E+03  0.20455568439E+03  0.00000000000E+00 0. -1.
         21   -1    0    0  501  503 -0.00000000000E+00 -0.00000000000E+00 -0.26616760980E+03  0.26616760980E+03  0.00000000000E+00 0. -1.
          6    1    1    2  501    0  0.16737970426E+02  0.74217183484E+02 -0.17011212618E+03  0.25359512111E+03  0.17200000000E+03 0. -1.
         -6    1    1    2    0  502 -0.16737970426E+02 -0.74217183484E+02  0.10850020077E+03  0.21712817308E+03  0.17200000000E+03 0. -1.
<mgrwt>
<rscale>  2 0.18807538E+03</rscale>
<asrwt>0</asrwt>
<pdfrwt beam="1">  1       21 0.51138921E-01 0.18807538E+03</pdfrwt>
<pdfrwt beam="2">  1       21 0.66541902E-01 0.18807538E+03</pdfrwt>
<totfact> 0.75533599E+03</totfact>
</mgrwt>
</event>
<event>
 4    1  0.1115666E+000  0.2410559E+03  0.7546771E-02  0.1119091E+00
         21   -1    0    0  503  502  0.00000000000E+00  0.00000000000E+00  0.56557803068E+03  0.56557803068E+03  0.00000000000E+00 0.  1.
         21   -1    0    0  501  503 -0.00000000000E+00 -0.00000000000E+00 -0.10712549141E+03  0.10712549141E+03  0.00000000000E+00 0.  1.
          6    1    1    2  501    0  0.11337994381E+03 -0.12517568161E+03  0.16117836706E+03  0.28997660067E+03  0.17200000000E+03 0.  1.
         -6    1    1    2    0  502 -0.11337994381E+03  0.12517568161E+03  0.29727417220E+03  0.38272692143E+03  0.17200000000E+03 0.  1.
<mgrwt>
<rscale>  2 0.24105593E+03</rscale>
<asrwt>0</asrwt>
<pdfrwt beam="1">  1       21 0.14139450E+00 0.24105593E+03</pdfrwt>
<pdfrwt beam="2">  1       21 0.26781374E-01 0.24105593E+03</pdfrwt>
<totfact> 0.44593937E+03</totfact>
</mgrwt>
</event>
<event>
 4    1  0.1115666E+000  0.1754067E+03  0.7546771E-02  0.1172324E+00
         21   -1    0    0  501  502  0.00000000000E+00  0.00000000000E+00  0.16415748417E+03  0.16415748417E+03  0.00000000000E+00 0. -1.
         21   -1    0    0  502  503 -0.00000000000E+00 -0.00000000000E+00 -0.22433898600E+03  0.22433898600E+03  0.00000000000E+00 0. -1.
          6    1    1    2  501    0 -0.21820804735E+01 -0.34332848351E+02  0.48702642204E+02  0.18204244919E+03  0.17200000000E+03 0. -1.
         -6    1    1    2    0  503  0.21820804735E+01  0.34332848351E+02 -0.10888414403E+03  0.20645402097E+03  0.17200000000E+03 0. -1.
<mgrwt>
<rscale>  2 0.17540669E+03</rscale>
<asrwt>0</asrwt>
<pdfrwt beam="1">  1       21 0.41039371E-01 0.17540669E+03</pdfrwt>
<pdfrwt beam="2">  1       21 0.56084746E-01 0.17540669E+03</pdfrwt>
<totfact> 0.17299612E+04</totfact>
</mgrwt>
</event>
<event>
 4    1  0.1115666E+000  0.2319709E+03  0.7546771E-02  0.1125260E+00
         21   -1    0    0  503  502  0.00000000000E+00  0.00000000000E+00  0.36857089855E+03  0.36857089855E+03  0.00000000000E+00 0.  1.
         21   -1    0    0  501  503 -0.00000000000E+00 -0.00000000000E+00 -0.23543226542E+03  0.23543226542E+03  0.00000000000E+00 0.  1.
          6    1    1    2  501    0 -0.15292380827E+03  0.28996494209E+02 -0.11956610655E+03  0.26097230054E+03  0.17200000000E+03 0.  1.
         -6    1    1    2    0  502  0.15292380827E+03 -0.28996494209E+02  0.25270473968E+03  0.34303086344E+03  0.17200000000E+03 0.  1.
<mgrwt>
<rscale>  2 0.23197088E+03</rscale>
<asrwt>0</asrwt>
<pdfrwt beam="1">  1       21 0.92142724E-01 0.23197088E+03</pdfrwt>
<pdfrwt beam="2">  1       21 0.58858067E-01 0.23197088E+03</pdfrwt>
<totfact> 0.26010461E+03</totfact>
</mgrwt>
</event>
<event>
 4    1  0.1115666E+000  0.1988245E+03  0.7546771E-02  0.1150735E+00
         21   -1    0    0  503  502  0.00000000000E+00  0.00000000000E+00  0.13560797825E+03  0.13560797825E+03  0.00000000000E+00 0.  1.
         21   -1    0    0  501  503 -0.00000000000E+00 -0.00000000000E+00 -0.29216644956E+03  0.29216644956E+03  0.00000000000E+00 0.  1.
          6    1    1    2  501    0 -0.73094995332E+02 -0.67854931123E+02 -0.88412628584E+02  0.21759587063E+03  0.17200000000E+03 0.  1.
         -6    1    1    2    0  502  0.73094995332E+02  0.67854931123E+02 -0.68145842718E+02  0.21017855718E+03  0.17200000000E+03 0.  1.
<mgrwt>
<rscale>  2 0.19882447E+03</rscale>
<asrwt>0</asrwt>
<pdfrwt beam="1">  1       21 0.33901995E-01 0.19882447E+03</pdfrwt>
<pdfrwt beam="2">  1       21 0.73041612E-01 0.19882447E+03</pdfrwt>
<totfact> 0.14079576E+04</totfact>
</mgrwt>
</event>
<event>
 4    1  0.1115666E+000  0.1906410E+03  0.7546771E-02  0.1157885E+00
         21   -1    0    0  503  502  0.00000000000E+00  0.00000000000E+00  0.46817519714E+03  0.46817519714E+03  0.00000000000E+00 0.  1.
         21   -1    0    0  501  503 -0.00000000000E+00 -0.00000000000E+00 -0.78513668439E+02  0.78513668439E+02  0.00000000000E+00 0. -1.
          6    1    1    2  501    0  0.73299766006E+02 -0.37244034126E+02  0.16581545980E+03  0.25266329469E+03  0.17200000000E+03 0. -1.
         -6    1    1    2    0  502 -0.73299766006E+02  0.37244034126E+02  0.22384606890E+03  0.29402557089E+03  0.17200000000E+03 0.  1.
<mgrwt>
<rscale>  2 0.19064096E+03</rscale>
<asrwt>0</asrwt>
<pdfrwt beam="1">  1       21 0.11704379E+00 0.19064096E+03</pdfrwt>
<pdfrwt beam="2">  1       21 0.19628418E-01 0.19064096E+03</pdfrwt>
<totfact> 0.13443336E+04</totfact>
</mgrwt>
</event>
<event>
 4    1  0.1115666E+000  0.2040410E+03  0.7546771E-02  0.1146374E+00
         21   -1    0    0  501  502  0.00000000000E+00  0.00000000000E+00  0.31905413126E+03  0.31905413126E+03  0.00000000000E+00 0.  1.
         21   -1    0    0  502  503 -0.00000000000E+00 -0.00000000000E+00 -0.16316480744E+03  0.16316480744E+03  0.00000000000E+00 0.  1.
          6    1    1    2  501    0  0.64667266282E+02 -0.88695346805E+02  0.18584459002E+03  0.27599081780E+03  0.17200000000E+03 0.  1.
         -6    1    1    2    0  503 -0.64667266282E+02  0.88695346805E+02 -0.29955266195E+02  0.20622812089E+03  0.17200000000E+03 0.  1.
<mgrwt>
<rscale>  2 0.20404098E+03</rscale>
<asrwt>0</asrwt>
<pdfrwt beam="1">  1       21 0.79763532E-01 0.20404098E+03</pdfrwt>
<pdfrwt beam="2">  1       21 0.40791202E-01 0.20404098E+03</pdfrwt>
<totfact> 0.79504779E+03</totfact>
</mgrwt>
</event>
<event>
 4    1  0.1115666E+000  0.2261902E+03  0.7546771E-02  0.1129350E+00
         21   -1    0    0  503  502  0.00000000000E+00  0.00000000000E+00  0.13340858434E+04  0.13340858434E+04  0.00000000000E+00 0. -1.
         21   -1    0    0  501  503 -0.00000000000E+00 -0.00000000000E+00 -0.38372135410E+02  0.38372135410E+02  0.00000000000E+00 0.  1.
          6    1    1    2  501    0 -0.49873909158E+02  0.13816879342E+03  0.66438598143E+03  0.70183385114E+03  0.17200000000E+03 0.  1.
         -6    1    1    2    0  502  0.49873909158E+02 -0.13816879342E+03  0.63132772661E+03  0.67062412772E+03  0.17200000000E+03 0.  1.
<mgrwt>
<rscale>  2 0.22619023E+03</rscale>
<asrwt>0</asrwt>
<pdfrwt beam="1">  1       21 0.33352131E+00 0.22619023E+03</pdfrwt>
<pdfrwt beam="2">  1       21 0.95930383E-02 0.22619023E+03</pdfrwt>
<totfact> 0.18283442E+03</totfact>
</mgrwt>
</event>
<event>
 4    1  0.1115666E+000  0.2202019E+03  0.7546771E-02  0.1133733E+00
         21   -1    0    0  503  502  0.00000000000E+00  0.00000000000E+00  0.54550445750E+03  0.54550445750E+03  0.00000000000E+00 0.  1.
         21   -1    0    0  501  503 -0.00000000000E+00 -0.00000000000E+00 -0.10173410555E+03  0.10173410555E+03  0.00000000000E+00 0.  1.
          6    1    1    2  501    0 -0.71837126238E+02 -0.11723606173E+03  0.10688863392E+03  0.24477346044E+03  0.17200000000E+03 0.  1.
         -6    1    1    2    0  502  0.71837126238E+02  0.11723606173E+03  0.33688171803E+03  0.40246510261E+03  0.17200000000E+03 0.  1.
<mgrwt>
<rscale>  2 0.22020188E+03</rscale>
<asrwt>0</asrwt>
<pdfrwt beam="1">  1       21 0.13637611E+00 0.22020188E+03</pdfrwt>
<pdfrwt beam="2">  1       21 0.25433528E-01 0.22020188E+03</pdfrwt>
<totfact> 0.54912930E+03</totfact>
</mgrwt>
</event>
<event>
 4    1  0.1115666E+000  0.2264279E+03  0.7546771E-02  0.1129180E+00
         21   -1    0    0  501  502  0.00000000000E+00  0.00000000000E+00  0.28682281641E+03  0.28682281641E+03  0.00000000000E+00 0. -1.
         21   -1    0    0  502  503 -0.00000000000E+00 -0.00000000000E+00 -0.17886872632E+03  0.17886872632E+03  0.00000000000E+00 0. -1.
          6    1    1    2  501    0  0.14696478291E+03 -0.93247508001E+01  0.59974228635E+02  0.23423600597E+03  0.17200000000E+03 0. -1.
         -6    1    1    2    0  503 -0.14696478291E+03  0.93247508001E+01  0.47979861454E+02  0.23145553676E+03  0.17200000000E+03 0. -1.
<mgrwt>
<rscale>  2 0.22642791E+03</rscale>
<asrwt>0</asrwt>
<pdfrwt beam="1">  1       21 0.71705704E-01 0.22642791E+03</pdfrwt>
<pdfrwt beam="2">  1       21 0.44717182E-01 0.22642791E+03</pdfrwt>
<totfact> 0.82416623E+03</totfact>
</mgrwt>
</event>
<event>
 4    1  0.1115666E+000  0.1724209E+03  0.7546771E-02  0.1175346E+00
         21   -1    0    0  503  502  0.00000000000E+00  0.00000000000E+00  0.29878705346E+03  0.29878705346E+03  0.00000000000E+00 0. -1.
         21   -1    0    0  501  503 -0.00000000000E+00 -0.00000000000E+00 -0.27023441424E+03  0.27023441424E+03  0.00000000000E+00 0. -1.
          6    1    1    2  501    0 -0.76416962433E+01 -0.93045797296E+01 -0.21187041149E+03  0.27316303189E+03  0.17200000000E+03 0. -1.
         -6    1    1    2    0  502  0.76416962433E+01  0.93045797296E+01  0.24042305072E+03  0.29585843581E+03  0.17200000000E+03 0. -1.
<mgrwt>
<rscale>  2 0.17242091E+03</rscale>
<asrwt>0</asrwt>
<pdfrwt beam="1">  1       21 0.74696763E-01 0.17242091E+03</pdfrwt>
<pdfrwt beam="2">  1       21 0.67558604E-01 0.17242091E+03</pdfrwt>
<totfact> 0.32711128E+03</totfact>
</mgrwt>
</event>
<event>
 4    1  0.1115666E+000  0.1835930E+03  0.7546771E-02  0.1164370E+00
         21   -1    0    0  503  502  0.00000000000E+00  0.00000000000E+00  0.46579290646E+02  0.46579290646E+02  0.00000000000E+00 0. -1.
         21   -1    0    0  501  503 -0.00000000000E+00 -0.00000000000E+00 -0.78917043371E+03  0.78917043371E+03  0.00000000000E+00 0. -1.
          6    1    1    2  501    0  0.11355085968E+02 -0.63193852650E+02 -0.49171573616E+03  0.52487214269E+03  0.17200000000E+03 0. -1.
         -6    1    1    2    0  502 -0.11355085968E+02  0.63193852650E+02 -0.25087540690E+03  0.31087758166E+03  0.17200000000E+03 0. -1.
<mgrwt>
<rscale>  2 0.18359303E+03</rscale>
<asrwt>0</asrwt>
<pdfrwt beam="1">  1       21 0.11644823E-01 0.18359303E+03</pdfrwt>
<pdfrwt beam="2">  1       21 0.19729260E+00 0.18359303E+03</pdfrwt>
<totfact> 0.87226441E+03</totfact>
</mgrwt>
</event>
<event>
 4    1  0.1115666E+000  0.2109062E+03  0.7546771E-02  0.1140850E+00
         21   -1    0    0  503  502  0.00000000000E+00  0.00000000000E+00  0.80821375974E+03  0.80821375974E+03  0.00000000000E+00 0.  1.
         21   -1    0    0  501  503 -0.00000000000E+00 -0.00000000000E+00 -0.56017468787E+02  0.56017468787E+02  0.00000000000E+00 0. -1.
          6    1    1    2  501    0  0.79963978040E+02  0.92212768622E+02  0.31892163675E+03  0.38235120356E+03  0.17200000000E+03 0. -1.
         -6    1    1    2    0  502 -0.79963978040E+02 -0.92212768622E+02  0.43327465420E+03  0.48188002496E+03  0.17200000000E+03 0. -1.
<mgrwt>
<rscale>  2 0.21090622E+03</rscale>
<asrwt>0</asrwt>
<pdfrwt beam="1">  1       21 0.20205340E+00 0.21090622E+03</pdfrwt>
<pdfrwt beam="2">  1       21 0.14004370E-01 0.21090622E+03</pdfrwt>
<totfact> 0.56953706E+03</totfact>
</mgrwt>
</event>
<event>
 4    1  0.1115666E+000  0.1823910E+03  0.7546771E-02  0.1165509E+00
         21   -1    0    0  501  502  0.00000000000E+00  0.00000000000E+00  0.11230236849E+03  0.11230236849E+03  0.00000000000E+00 0.  1.
         21   -1    0    0  502  503 -0.00000000000E+00 -0.00000000000E+00 -0.30391785841E+03  0.30391785841E+03  0.00000000000E+00 0.  1.
          6    1    1    2  501    0  0.41802653659E+02  0.43988878971E+02 -0.62692287117E+02  0.19286473548E+03  0.17200000000E+03 0.  1.
         -6    1    1    2    0  503 -0.41802653659E+02 -0.43988878971E+02 -0.12892320281E+03  0.22335549142E+03  0.17200000000E+03 0.  1.
<mgrwt>
<rscale>  2 0.18239102E+03</rscale>
<asrwt>0</asrwt>
<pdfrwt beam="1">  1       21 0.28075592E-01 0.18239102E+03</pdfrwt>
<pdfrwt beam="2">  1       21 0.75979464E-01 0.18239102E+03</pdfrwt>
<totfact> 0.18836546E+04</totfact>
</mgrwt>
</event>
<event>
 4    1  0.1115666E+000  0.2474313E+03  0.7546771E-02  0.1114939E+00
         21   -1    0    0  503  502  0.00000000000E+00  0.00000000000E+00  0.26001426737E+03  0.26001426737E+03  0.00000000000E+00 0. -1.
         21   -1    0    0  501  503 -0.00000000000E+00 -0.00000000000E+00 -0.25314110229E+03  0.25314110229E+03  0.00000000000E+00 0. -1.
          6    1    1    2  501    0  0.49847509637E+02 -0.17074392133E+03  0.71251495266E+02  0.25748599275E+03  0.17200000000E+03 0. -1.
         -6    1    1    2    0  502 -0.49847509637E+02  0.17074392133E+03 -0.64378330190E+02  0.25566937690E+03  0.17200000000E+03 0. -1.
<mgrwt>
<rscale>  2 0.24743133E+03</rscale>
<asrwt>0</asrwt>
<pdfrwt beam="1">  1       21 0.65003567E-01 0.24743133E+03</pdfrwt>
<pdfrwt beam="2">  1       21 0.63285276E-01 0.24743133E+03</pdfrwt>
<totfact> 0.48415608E+03</totfact>
</mgrwt>
</event>
<event>
 4    1  0.1115666E+000  0.1969536E+03  0.7546771E-02  0.1152335E+00
         21   -1    0    0  503  502  0.00000000000E+00  0.00000000000E+00  0.21048844653E+03  0.21048844653E+03  0.00000000000E+00 0.  1.
         21   -1    0    0  501  503 -0.00000000000E+00 -0.00000000000E+00 -0.18544268228E+03  0.18544268228E+03  0.00000000000E+00 0.  1.
          6    1    1    2  501    0  0.56646009077E+02 -0.77446342095E+02  0.28137346259E+02  0.19895330232E+03  0.17200000000E+03 0.  1.
         -6    1    1    2    0  502 -0.56646009077E+02  0.77446342095E+02 -0.30915820105E+01  0.19697782649E+03  0.17200000000E+03 0.  1.
<mgrwt>
<rscale>  2 0.19695356E+03</rscale>
<asrwt>0</asrwt>
<pdfrwt beam="1">  1       21 0.52622112E-01 0.19695356E+03</pdfrwt>
<pdfrwt beam="2">  1       21 0.46360671E-01 0.19695356E+03</pdfrwt>
<totfact> 0.15217982E+04</totfact>
</mgrwt>
</event>
<event>
 4    1  0.1115666E+000  0.1932936E+03  0.7546771E-02  0.1155524E+00
         21   -1    0    0  501  502  0.00000000000E+00  0.00000000000E+00  0.61120854305E+02  0.61120854305E+02  0.00000000000E+00 0. -1.
         21   -1    0    0  502  503 -0.00000000000E+00 -0.00000000000E+00 -0.78673666339E+03  0.78673666339E+03  0.00000000000E+00 0.  1.
          6    1    1    2  501    0 -0.84527893571E+02  0.25168816110E+02 -0.16261280921E+03  0.25259722844E+03  0.17200000000E+03 0. -1.
         -6    1    1    2    0  503  0.84527893571E+02 -0.25168816110E+02 -0.56300299987E+03  0.59526028925E+03  0.17200000000E+03 0.  1.
<mgrwt>
<rscale>  2 0.19329365E+03</rscale>
<asrwt>0</asrwt>
<pdfrwt beam="1">  1       21 0.15280214E-01 0.19329365E+03</pdfrwt>
<pdfrwt beam="2">  1       21 0.19668416E+00 0.19329365E+03</pdfrwt>
<totfact> 0.53465067E+03</totfact>
</mgrwt>
</event>
<event>
 4    1  0.1115666E+000  0.1731691E+03  0.7546771E-02  0.1174583E+00
         21   -1    0    0  501  502  0.00000000000E+00  0.00000000000E+00  0.60437928782E+03  0.60437928782E+03  0.00000000000E+00 0.  1.
         21   -1    0    0  502  503 -0.00000000000E+00 -0.00000000000E+00 -0.93200635091E+02  0.93200635091E+02  0.00000000000E+00 0.  1.
          6    1    1    2  501    0  0.18996895149E+02  0.65315979881E+01  0.49410438246E+03  0.52357108836E+03  0.17200000000E+03 0.  1.
         -6    1    1    2    0  503 -0.18996895149E+02 -0.65315979881E+01  0.17074270268E+02  0.17400883455E+03  0.17200000000E+03 0.  1.
<mgrwt>
<rscale>  2 0.17316912E+03</rscale>
<asrwt>0</asrwt>
<pdfrwt beam="1">  1       21 0.15109481E+00 0.17316912E+03</pdfrwt>
<pdfrwt beam="2">  1       21 0.23300160E-01 0.17316912E+03</pdfrwt>
<totfact> 0.51650101E+03</totfact>
</mgrwt>
</event>
<event>
 4    1  0.1115666E+000  0.2020955E+03  0.7546771E-02  0.1147983E+00
         21   -1    0    0  501  502  0.00000000000E+00  0.00000000000E+00  0.19422177931E+03  0.19422177931E+03  0.00000000000E+00 0.  1.
         21   -1    0    0  502  503 -0.00000000000E+00 -0.00000000000E+00 -0.25816545478E+03  0.25816545478E+03  0.00000000000E+00 0. -1.
          6    1    1    2  501    0  0.58294352371E+02 -0.88658727819E+02  0.65436169763E+02  0.21242526651E+03  0.17200000000E+03 0.  1.
         -6    1    1    2    0  503 -0.58294352371E+02  0.88658727819E+02 -0.12937984522E+03  0.23996196758E+03  0.17200000000E+03 0.  1.
<mgrwt>
<rscale>  2 0.20209553E+03</rscale>
<asrwt>0</asrwt>
<pdfrwt beam="1">  1       21 0.48555445E-01 0.20209553E+03</pdfrwt>
<pdfrwt beam="2">  1       21 0.64541363E-01 0.20209553E+03</pdfrwt>
<totfact> 0.89046818E+03</totfact>
</mgrwt>
</event>
<event>
 4    1  0.1115666E+000  0.1931647E+03  0.7546771E-02  0.1155638E+00
         21   -1    0    0  501  502  0.00000000000E+00  0.00000000000E+00  0.30527124562E+03  0.30527124562E+03  0.00000000000E+00 0.  1.
         21   -1    0    0  502  503 -0.00000000000E+00 -0.00000000000E+00 -0.15655563148E+03  0.15655563148E+03  0.00000000000E+00 0.  1.
          6    1    1    2  501    0  0.80405568332E+02  0.35546601265E+02  0.18248586119E+03  0.26573239512E+03  0.17200000000E+03 0.  1.
         -6    1    1    2    0  503 -0.80405568332E+02 -0.35546601265E+02 -0.33770247048E+02  0.19609448199E+03  0.17200000000E+03 0.  1.
<mgrwt>
<rscale>  2 0.19316474E+03</rscale>
<asrwt>0</asrwt>
<pdfrwt beam="1">  1       21 0.76317810E-01 0.19316474E+03</pdfrwt>
<pdfrwt beam="2">  1       21 0.39138908E-01 0.19316474E+03</pdfrwt>
<totfact> 0.96216652E+03</totfact>
</mgrwt>
</event>
<event>
 4    1  0.1115666E+000  0.2235399E+03  0.7546771E-02  0.1131271E+00
         21   -1    0    0  501  502  0.00000000000E+00  0.00000000000E+00  0.36052251008E+02  0.36052251008E+02  0.00000000000E+00 0.  1.
         21   -1    0    0  502  503 -0.00000000000E+00 -0.00000000000E+00 -0.14016101858E+04  0.14016101858E+04  0.00000000000E+00 0. -1.
          6    1    1    2  501    0  0.56087931598E+02 -0.13130200409E+03 -0.75852830041E+03  0.79078142042E+03  0.17200000000E+03 0. -1.
         -6    1    1    2    0  503 -0.56087931598E+02  0.13130200409E+03 -0.60702963434E+03  0.64688101635E+03  0.17200000000E+03 0.  1.
<mgrwt>
<rscale>  2 0.22353987E+03</rscale>
<asrwt>0</asrwt>
<pdfrwt beam="1">  1       21 0.90130626E-02 0.22353987E+03</pdfrwt>
<pdfrwt beam="2">  1       21 0.35040255E+00 0.22353987E+03</pdfrwt>
<totfact> 0.16272155E+03</totfact>
</mgrwt>
</event>
<event>
 4    1  0.1115666E+000  0.2427302E+03  0.7546771E-02  0.1117987E+00
         21   -1    0    0  503  502  0.00000000000E+00  0.00000000000E+00  0.35688296147E+03  0.35688296147E+03  0.00000000000E+00 0.  1.
         21   -1    0    0  501  503 -0.00000000000E+00 -0.00000000000E+00 -0.32691369321E+03  0.32691369321E+03  0.00000000000E+00 0. -1.
          6    1    1    2  501    0 -0.46893003274E+02  0.16472709385E+03 -0.22556287754E+03  0.33135567134E+03  0.17200000000E+03 0. -1.
         -6    1    1    2    0  502  0.46893003274E+02 -0.16472709385E+03  0.25553214580E+03  0.35244098335E+03  0.17200000000E+03 0.  1.
<mgrwt>
<rscale>  2 0.24273024E+03</rscale>
<asrwt>0</asrwt>
<pdfrwt beam="1">  1       21 0.89220740E-01 0.24273024E+03</pdfrwt>
<pdfrwt beam="2">  1       21 0.81728423E-01 0.24273024E+03</pdfrwt>
<totfact> 0.13443950E+03</totfact>
</mgrwt>
</event>
<event>
 4    1  0.1115666E+000  0.1982788E+03  0.7546771E-02  0.1151199E+00
         21   -1    0    0  501  502  0.00000000000E+00  0.00000000000E+00  0.56752068489E+03  0.56752068489E+03  0.00000000000E+00 0. -1.
         21   -1    0    0  502  503 -0.00000000000E+00 -0.00000000000E+00 -0.69560431668E+02  0.69560431668E+02  0.00000000000E+00 0. -1.
          6    1    1    2  501    0  0.98121594571E+02  0.10129979008E+02  0.26941849376E+03  0.33451575235E+03  0.17200000000E+03 0. -1.
         -6    1    1    2    0  503 -0.98121594571E+02 -0.10129979008E+02  0.22854175947E+03  0.30256536421E+03  0.17200000000E+03 0. -1.
<mgrwt>
<rscale>  2 0.19827875E+03</rscale>
<asrwt>0</asrwt>
<pdfrwt beam="1">  1       21 0.14188016E+00 0.19827875E+03</pdfrwt>
<pdfrwt beam="2">  1       21 0.17390110E-01 0.19827875E+03</pdfrwt>
<totfact> 0.10299728E+04</totfact>
</mgrwt>
</event>
<event>
 4    1  0.1115666E+000  0.1726402E+03  0.7546771E-02  0.1175122E+00
         21   -1    0    0  501  502  0.00000000000E+00  0.00000000000E+00  0.45976595950E+03  0.45976595950E+03  0.00000000000E+00 0. -1.
         21   -1    0    0  502  503 -0.00000000000E+00 -0.00000000000E+00 -0.15621251397E+03  0.15621251397E+03  0.00000000000E+00 0. -1.
          6    1    1    2  501    0  0.88383479732E+01  0.11937603978E+02  0.38734648226E+03  0.42407772884E+03  0.17200000000E+03 0. -1.
         -6    1    1    2    0  503 -0.88383479732E+01 -0.11937603978E+02 -0.83793036732E+02  0.19190074463E+03  0.17200000000E+03 0. -1.
<mgrwt>
<rscale>  2 0.17264015E+03</rscale>
<asrwt>0</asrwt>
<pdfrwt beam="1">  1       21 0.11494149E+00 0.17264015E+03</pdfrwt>
<pdfrwt beam="2">  1       21 0.39053129E-01 0.17264015E+03</pdfrwt>
<totfact> 0.37760654E+03</totfact>
</mgrwt>
</event>
<event>
 4    1  0.1115666E+000  0.2650649E+03  0.7546771E-02  0.1104138E+00
         21   -1    0    0  503  502  0.00000000000E+00  0.00000000000E+00  0.64707701450E+03  0.64707701450E+03  0.00000000000E+00 0. -1.
         21   -1    0    0  501  503 -0.00000000000E+00 -0.00000000000E+00 -0.58098368692E+03  0.58098368692E+03  0.00000000000E+00 0. -1.
          6    1    1    2  501    0 -0.19190219551E+03  0.62039992103E+02 -0.52064075688E+03  0.58423129922E+03  0.17200000000E+03 0. -1.
         -6    1    1    2    0  502  0.19190219551E+03 -0.62039992103E+02  0.58673408446E+03  0.64382940219E+03  0.17200000000E+03 0. -1.
<mgrwt>
<rscale>  2 0.26506492E+03</rscale>
<asrwt>0</asrwt>
<pdfrwt beam="1">  1       21 0.16176925E+00 0.26506492E+03</pdfrwt>
<pdfrwt beam="2">  1       21 0.14524592E+00 0.26506492E+03</pdfrwt>
<totfact> 0.72608460E+01</totfact>
</mgrwt>
</event>
<event>
 4    1  0.1115666E+000  0.1821693E+03  0.7546771E-02  0.1165720E+00
         21   -1    0    0  503  502  0.00000000000E+00  0.00000000000E+00  0.14237922255E+03  0.14237922255E+03  0.00000000000E+00 0. -1.
         21   -1    0    0  501  503 -0.00000000000E+00 -0.00000000000E+00 -0.76890061080E+03  0.76890061080E+03  0.00000000000E+00 0. -1.
          6    1    1    2  501    0  0.59995826520E+02 -0.14714723355E+01 -0.69362224511E+03  0.71714537113E+03  0.17200000000E+03 0. -1.
         -6    1    1    2    0  502 -0.59995826520E+02  0.14714723355E+01  0.67100856857E+02  0.19413446222E+03  0.17200000000E+03 0. -1.
<mgrwt>
<rscale>  2 0.18216933E+03</rscale>
<asrwt>0</asrwt>
<pdfrwt beam="1">  1       21 0.35594806E-01 0.18216933E+03</pdfrwt>
<pdfrwt beam="2">  1       21 0.19222515E+00 0.18216933E+03</pdfrwt>
<totfact> 0.11612918E+03</totfact>
</mgrwt>
</event>
<event>
 4    1  0.1115666E+000  0.1905095E+03  0.7546771E-02  0.1158003E+00
         21   -1    0    0  503  502  0.00000000000E+00  0.00000000000E+00  0.35438090379E+03  0.35438090379E+03  0.00000000000E+00 0. -1.
         21   -1    0    0  501  503 -0.00000000000E+00 -0.00000000000E+00 -0.13922698454E+03  0.13922698454E+03  0.00000000000E+00 0. -1.
          6    1    1    2  501    0  0.62190821923E+02 -0.53312093822E+02  0.23448399873E+03  0.30212021339E+03  0.17200000000E+03 0. -1.
         -6    1    1    2    0  502 -0.62190821923E+02  0.53312093822E+02 -0.19330079477E+02  0.19148767493E+03  0.17200000000E+03 0. -1.
<mgrwt>
<rscale>  2 0.19050952E+03</rscale>
<asrwt>0</asrwt>
<pdfrwt beam="1">  1       21 0.88595224E-01 0.19050952E+03</pdfrwt>
<pdfrwt beam="2">  1       21 0.34806747E-01 0.19050952E+03</pdfrwt>
<totfact> 0.86817672E+03</totfact>
</mgrwt>
</event>
<event>
 4    1  0.1115666E+000  0.1897438E+03  0.7546771E-02  0.1158693E+00
         21   -1    0    0  503  502  0.00000000000E+00  0.00000000000E+00  0.16801051568E+03  0.16801051568E+03  0.00000000000E+00 0.  1.
         21   -1    0    0  501  503 -0.00000000000E+00 -0.00000000000E+00 -0.21431579993E+03  0.21431579993E+03  0.00000000000E+00 0.  1.
          6    1    1    2  501    0  0.73677095901E+02 -0.31470480109E+02 -0.20991391650E+02  0.19090139890E+03  0.17200000000E+03 0.  1.
         -6    1    1    2    0  502 -0.73677095901E+02  0.31470480109E+02 -0.25313892601E+02  0.19142491671E+03  0.17200000000E+03 0.  1.
<mgrwt>
<rscale>  2 0.18974379E+03</rscale>
<asrwt>0</asrwt>
<pdfrwt beam="1">  1       21 0.42002629E-01 0.18974379E+03</pdfrwt>
<pdfrwt beam="2">  1       21 0.53578950E-01 0.18974379E+03</pdfrwt>
<totfact> 0.18015838E+04</totfact>
</mgrwt>
</event>
<event>
 4    1  0.1115666E+000  0.3552279E+03  0.7546771E-02  0.1060490E+00
         21   -1    0    0  501  502  0.00000000000E+00  0.00000000000E+00  0.42338203742E+03  0.42338203742E+03  0.00000000000E+00 0. -1.
         21   -1    0    0  502  503 -0.00000000000E+00 -0.00000000000E+00 -0.67600179658E+03  0.67600179658E+03  0.00000000000E+00 0.  1.
          6    1    1    2  501    0  0.72272898603E+02  0.30229044427E+03  0.28471349973E+03  0.45524571552E+03  0.17200000000E+03 0. -1.
         -6    1    1    2    0  503 -0.72272898603E+02 -0.30229044427E+03 -0.53733325890E+03  0.64413811848E+03  0.17200000000E+03 0.  1.
<mgrwt>
<rscale>  2 0.35522793E+03</rscale>
<asrwt>0</asrwt>
<pdfrwt beam="1">  1       21 0.10584551E+00 0.35522793E+03</pdfrwt>
<pdfrwt beam="2">  1       21 0.16900045E+00 0.35522793E+03</pdfrwt>
<totfact> 0.13270112E+02</totfact>
</mgrwt>
</event>
<event>
 4    1  0.1115666E+000  0.2042802E+03  0.7546771E-02  0.1146177E+00
         21   -1    0    0  501  502  0.00000000000E+00  0.00000000000E+00  0.79949808190E+02  0.79949808190E+02  0.00000000000E+00 0. -1.
         21   -1    0    0  502  503 -0.00000000000E+00 -0.00000000000E+00 -0.59758119140E+03  0.59758119140E+03  0.00000000000E+00 0.  1.
          6    1    1    2  501    0  0.10271777706E+02 -0.10973096770E+03 -0.13830379700E+03  0.24669482150E+03  0.17200000000E+03 0.  1.
         -6    1    1    2    0  503 -0.10271777706E+02  0.10973096770E+03 -0.37932758621E+03  0.43083617809E+03  0.17200000000E+03 0.  1.
<mgrwt>
<rscale>  2 0.20428019E+03</rscale>
<asrwt>0</asrwt>
<pdfrwt beam="1">  1       21 0.19987452E-01 0.20428019E+03</pdfrwt>
<pdfrwt beam="2">  1       21 0.14939530E+00 0.20428019E+03</pdfrwt>
<totfact> 0.69170917E+03</totfact>
</mgrwt>
</event>
<event>
 4    1  0.1115666E+000  0.2873290E+03  0.7546771E-02  0.1091752E+00
         21   -1    0    0  501  502  0.00000000000E+00  0.00000000000E+00  0.28007155869E+03  0.28007155869E+03  0.00000000000E+00 0. -1.
         21   -1    0    0  502  503 -0.00000000000E+00 -0.00000000000E+00 -0.30640021459E+03  0.30640021459E+03  0.00000000000E+00 0.  1.
          6    1    1    2  501    0  0.81551759178E+02 -0.21522838937E+03  0.43954952209E+02  0.29067161340E+03  0.17200000000E+03 0. -1.
         -6    1    1    2    0  503 -0.81551759178E+02  0.21522838937E+03 -0.70283608112E+02  0.29580015988E+03  0.17200000000E+03 0. -1.
<mgrwt>
<rscale>  2 0.28732899E+03</rscale>
<asrwt>0</asrwt>
<pdfrwt beam="1">  1       21 0.70017890E-01 0.28732899E+03</pdfrwt>
<pdfrwt beam="2">  1       21 0.76600053E-01 0.28732899E+03</pdfrwt>
<totfact> 0.26237053E+03</totfact>
</mgrwt>
</event>
<event>
 4    1  0.1115666E+000  0.2078062E+03  0.7546771E-02  0.1143315E+00
         21   -1    0    0  501  502  0.00000000000E+00  0.00000000000E+00  0.14783184111E+03  0.14783184111E+03  0.00000000000E+00 0. -1.
         21   -1    0    0  502  503 -0.00000000000E+00 -0.00000000000E+00 -0.29307808302E+03  0.29307808302E+03  0.00000000000E+00 0. -1.
          6    1    1    2  501    0  0.10831516084E+03  0.43211596804E+02 -0.59964274775E+02  0.21628483630E+03  0.17200000000E+03 0. -1.
         -6    1    1    2    0  503 -0.10831516084E+03 -0.43211596804E+02 -0.85281967132E+02  0.22462508783E+03  0.17200000000E+03 0. -1.
<mgrwt>
<rscale>  2 0.20780620E+03</rscale>
<asrwt>0</asrwt>
<pdfrwt beam="1">  1       21 0.36957961E-01 0.20780620E+03</pdfrwt>
<pdfrwt beam="2">  1       21 0.73269520E-01 0.20780620E+03</pdfrwt>
<totfact> 0.11706685E+04</totfact>
</mgrwt>
</event>
<event>
 4    1  0.1115666E+000  0.1937084E+03  0.7546771E-02  0.1155159E+00
         21   -1    0    0  503  502  0.00000000000E+00  0.00000000000E+00  0.28441179318E+03  0.28441179318E+03  0.00000000000E+00 0. -1.
         21   -1    0    0  501  503 -0.00000000000E+00 -0.00000000000E+00 -0.15914616550E+03  0.15914616550E+03  0.00000000000E+00 0. -1.
          6    1    1    2  501    0  0.43223557121E+02  0.77914434735E+02 -0.29078326359E+02  0.19587874845E+03  0.17200000000E+03 0. -1.
         -6    1    1    2    0  502 -0.43223557121E+02 -0.77914434735E+02  0.15434395404E+03  0.24767921023E+03  0.17200000000E+03 0. -1.
<mgrwt>
<rscale>  2 0.19370838E+03</rscale>
<asrwt>0</asrwt>
<pdfrwt beam="1">  1       21 0.71102948E-01 0.19370838E+03</pdfrwt>
<pdfrwt beam="2">  1       21 0.39786542E-01 0.19370838E+03</pdfrwt>
<totfact> 0.10892361E+04</totfact>
</mgrwt>
</event>
<event>
 4    1  0.1115666E+000  0.1773966E+03  0.7546771E-02  0.1170347E+00
         21   -1    0    0  503  502  0.00000000000E+00  0.00000000000E+00  0.44557677185E+03  0.44557677185E+03  0.00000000000E+00 0.  1.
         21   -1    0    0  501  503 -0.00000000000E+00 -0.00000000000E+00 -0.23109288902E+03  0.23109288902E+03  0.00000000000E+00 0.  1.
          6    1    1    2  501    0  0.33060176412E+02 -0.28152908263E+02 -0.17469069725E+03  0.24897068344E+03  0.17200000000E+03 0.  1.
         -6    1    1    2    0  502 -0.33060176412E+02  0.28152908263E+02  0.38917458008E+03  0.42769897742E+03  0.17200000000E+03 0.  1.
<mgrwt>
<rscale>  2 0.17739662E+03</rscale>
<asrwt>0</asrwt>
<pdfrwt beam="1">  1       21 0.11139419E+00 0.17739662E+03</pdfrwt>
<pdfrwt beam="2">  1       21 0.57773223E-01 0.17739662E+03</pdfrwt>
<totfact> 0.18062118E+03</totfact>
</mgrwt>
</event>
<event>
 4    1  0.1115666E+000  0.1959737E+03  0.7546771E-02  0.1153181E+00
         21   -1    0    0  501  502  0.00000000000E+00  0.00000000000E+00  0.23092007257E+03  0.23092007257E+03  0.00000000000E+00 0. -1.
         21   -1    0    0  502  503 -0.00000000000E+00 -0.00000000000E+00 -0.18648907522E+03  0.18648907522E+03  0.00000000000E+00 0.  1.
          6    1    1    2  501    0  0.67001640808E+02 -0.65821657190E+02  0.90857662800E+02  0.21601116942E+03  0.17200000000E+03 0. -1.
         -6    1    1    2    0  503 -0.67001640808E+02  0.65821657190E+02 -0.46426665441E+02  0.20139797837E+03  0.17200000000E+03 0.  1.
<mgrwt>
<rscale>  2 0.19597375E+03</rscale>
<asrwt>0</asrwt>
<pdfrwt beam="1">  1       21 0.57730018E-01 0.19597375E+03</pdfrwt>
<pdfrwt beam="2">  1       21 0.46622269E-01 0.19597375E+03</pdfrwt>
<totfact> 0.12370738E+04</totfact>
</mgrwt>
</event>
<event>
 4    1  0.1115666E+000  0.2006928E+03  0.7546771E-02  0.1149156E+00
         21   -1    0    0  501  502  0.00000000000E+00  0.00000000000E+00  0.54130477584E+03  0.54130477584E+03  0.00000000000E+00 0. -1.
         21   -1    0    0  502  503 -0.00000000000E+00 -0.00000000000E+00 -0.13375536426E+03  0.13375536426E+03  0.00000000000E+00 0. -1.
          6    1    1    2  501    0 -0.84352362454E+02 -0.59818729417E+02 -0.21056329624E+02  0.20179437668E+03  0.17200000000E+03 0. -1.
         -6    1    1    2    0  503  0.84352362454E+02  0.59818729417E+02  0.42860574120E+03  0.47326576342E+03  0.17200000000E+03 0. -1.
<mgrwt>
<rscale>  2 0.20069280E+03</rscale>
<asrwt>0</asrwt>
<pdfrwt beam="1">  1       21 0.13532619E+00 0.20069280E+03</pdfrwt>
<pdfrwt beam="2">  1       21 0.33438842E-01 0.20069280E+03</pdfrwt>
<totfact> 0.33393719E+03</totfact>
</mgrwt>
</event>
<event>
 4    1  0.1115666E+000  0.1788970E+03  0.7546771E-02  0.1168875E+00
         21   -1    0    0  501  502  0.00000000000E+00  0.00000000000E+00  0.28437761784E+03  0.28437761784E+03  0.00000000000E+00 0.  1.
         21   -1    0    0  502  503 -0.00000000000E+00 -0.00000000000E+00 -0.14586980737E+03  0.14586980737E+03  0.00000000000E+00 0.  1.
          6    1    1    2  501    0  0.39079933508E+01 -0.49039506201E+02  0.17208284844E+03  0.24822701768E+03  0.17200000000E+03 0.  1.
         -6    1    1    2    0  503 -0.39079933508E+01  0.49039506201E+02 -0.33575037974E+02  0.18202040752E+03  0.17200000000E+03 0.  1.
<mgrwt>
<rscale>  2 0.17889703E+03</rscale>
<asrwt>0</asrwt>
<pdfrwt beam="1">  1       21 0.71094404E-01 0.17889703E+03</pdfrwt>
<pdfrwt beam="2">  1       21 0.36467452E-01 0.17889703E+03</pdfrwt>
<totfact> 0.13102993E+04</totfact>
</mgrwt>
</event>
<event>
 4    1  0.1115666E+000  0.2000394E+03  0.7546771E-02  0.1149706E+00
         21   -1    0    0  501  502  0.00000000000E+00  0.00000000000E+00  0.25640202280E+03  0.25640202280E+03  0.00000000000E+00 0. -1.
         21   -1    0    0  502  503 -0.00000000000E+00 -0.00000000000E+00 -0.18830409537E+03  0.18830409537E+03  0.00000000000E+00 0. -1.
          6    1    1    2  501    0  0.72853388061E+02 -0.71583049912E+02  0.12605048218E+03  0.23644126806E+03  0.17200000000E+03 0. -1.
         -6    1    1    2    0  503 -0.72853388061E+02  0.71583049912E+02 -0.57952554750E+02  0.20826485010E+03  0.17200000000E+03 0. -1.
<mgrwt>
<rscale>  2 0.20003937E+03</rscale>
<asrwt>0</asrwt>
<pdfrwt beam="1">  1       21 0.64100506E-01 0.20003937E+03</pdfrwt>
<pdfrwt beam="2">  1       21 0.47076024E-01 0.20003937E+03</pdfrwt>
<totfact> 0.96511909E+03</totfact>
</mgrwt>
</event>
<event>
 4    1  0.1115666E+000  0.1782721E+03  0.7546771E-02  0.1169486E+00
         21   -1    0    0  501  502  0.00000000000E+00  0.00000000000E+00  0.35757758198E+02  0.35757758198E+02  0.00000000000E+00 0. -1.
         21   -1    0    0  502  503 -0.00000000000E+00 -0.00000000000E+00 -0.11015330185E+04  0.11015330185E+04  0.00000000000E+00 0. -1.
          6    1    1    2  501    0 -0.45168624790E+02 -0.12520034201E+02 -0.28298224496E+03  0.33445464099E+03  0.17200000000E+03 0. -1.
         -6    1    1    2    0  503  0.45168624790E+02  0.12520034201E+02 -0.78279301539E+03  0.80283613575E+03  0.17200000000E+03 0. -1.
<mgrwt>
<rscale>  2 0.17827214E+03</rscale>
<asrwt>0</asrwt>
<pdfrwt beam="1">  1       21 0.89394397E-02 0.17827214E+03</pdfrwt>
<pdfrwt beam="2">  1       21 0.27538325E+00 0.17827214E+03</pdfrwt>
<totfact> 0.47547236E+03</totfact>
</mgrwt>
</event>
<event>
 4    1  0.1115666E+000  0.2386957E+03  0.7546771E-02  0.1120665E+00
         21   -1    0    0  501  502  0.00000000000E+00  0.00000000000E+00  0.24478412032E+03  0.24478412032E+03  0.00000000000E+00 0.  1.
         21   -1    0    0  502  503 -0.00000000000E+00 -0.00000000000E+00 -0.23275936427E+03  0.23275936427E+03  0.00000000000E+00 0.  1.
          6    1    1    2  501    0 -0.99069308842E+02  0.13257788908E+03  0.55979984965E+01  0.23876130804E+03  0.17200000000E+03 0.  1.
         -6    1    1    2    0  503  0.99069308842E+02 -0.13257788908E+03  0.64267575491E+01  0.23878217656E+03  0.17200000000E+03 0.  1.
<mgrwt>
<rscale>  2 0.23869567E+03</rscale>
<asrwt>0</asrwt>
<pdfrwt beam="1">  1       21 0.61196030E-01 0.23869567E+03</pdfrwt>
<pdfrwt beam="2">  1       21 0.58189841E-01 0.23869567E+03</pdfrwt>
<totfact> 0.66577616E+03</totfact>
</mgrwt>
</event>
<event>
 4    1  0.1115666E+000  0.1968776E+03  0.7546771E-02  0.1152400E+00
         21   -1    0    0  503  502  0.00000000000E+00  0.00000000000E+00  0.11918053748E+03  0.11918053748E+03  0.00000000000E+00 0.  1.
         21   -1    0    0  501  503 -0.00000000000E+00 -0.00000000000E+00 -0.49542077946E+03  0.49542077946E+03  0.00000000000E+00 0.  1.
          6    1    1    2  501    0 -0.83037223070E+02  0.47766117491E+02 -0.36823419423E+03  0.41756101853E+03  0.17200000000E+03 0.  1.
         -6    1    1    2    0  502  0.83037223070E+02 -0.47766117491E+02 -0.80060477401E+01  0.19704029841E+03  0.17200000000E+03 0.  1.
<mgrwt>
<rscale>  2 0.19687758E+03</rscale>
<asrwt>0</asrwt>
<pdfrwt beam="1">  1       21 0.29795135E-01 0.19687758E+03</pdfrwt>
<pdfrwt beam="2">  1       21 0.12385519E+00 0.19687758E+03</pdfrwt>
<totfact> 0.52535897E+03</totfact>
</mgrwt>
</event>
<event>
 4    1  0.1115666E+000  0.1879486E+03  0.7546771E-02  0.1160325E+00
         21   -1    0    0  501  502  0.00000000000E+00  0.00000000000E+00  0.20010737370E+03  0.20010737370E+03  0.00000000000E+00 0. -1.
         21   -1    0    0  502  503 -0.00000000000E+00 -0.00000000000E+00 -0.27116109492E+03  0.27116109492E+03  0.00000000000E+00 0.  1.
          6    1    1    2  501    0  0.50657218083E+02  0.56342801446E+02  0.10367497179E+03  0.21464660443E+03  0.17200000000E+03 0. -1.
         -6    1    1    2    0  503 -0.50657218083E+02 -0.56342801446E+02 -0.17472869300E+03  0.25662186418E+03  0.17200000000E+03 0.  1.
<mgrwt>
<rscale>  2 0.18794857E+03</rscale>
<asrwt>0</asrwt>
<pdfrwt beam="1">  1       21 0.50026844E-01 0.18794857E+03</pdfrwt>
<pdfrwt beam="2">  1       21 0.67790273E-01 0.18794857E+03</pdfrwt>
<totfact> 0.75937189E+03</totfact>
</mgrwt>
</event>
<event>
 4    1  0.1115666E+000  0.3063300E+03  0.7546771E-02  0.1082118E+00
         21   -1    0    0  503  502  0.00000000000E+00  0.00000000000E+00  0.26244724745E+03  0.26244724745E+03  0.00000000000E+00 0. -1.
         21   -1    0    0  501  503 -0.00000000000E+00 -0.00000000000E+00 -0.36428230009E+03  0.36428230009E+03  0.00000000000E+00 0.  1.
          6    1    1    2  501    0 -0.17970800963E+03 -0.17877116150E+03 -0.93516839821E+02  0.32028658454E+03  0.17200000000E+03 0.  1.
         -6    1    1    2    0  502  0.17970800963E+03  0.17877116150E+03 -0.83182128161E+01  0.30644296300E+03  0.17200000000E+03 0. -1.
<mgrwt>
<rscale>  2 0.30633005E+03</rscale>
<asrwt>0</asrwt>
<pdfrwt beam="1">  1       21 0.65611812E-01 0.30633005E+03</pdfrwt>
<pdfrwt beam="2">  1       21 0.91070575E-01 0.30633005E+03</pdfrwt>
<totfact> 0.20108244E+03</totfact>
</mgrwt>
</event>
<event>
 4    1  0.1115666E+000  0.4675030E+03  0.7546771E-02  0.1022627E+00
         21   -1    0    0  503  502  0.00000000000E+00  0.00000000000E+00  0.12776291239E+04  0.12776291239E+04  0.00000000000E+00 0. -1.
         21   -1    0    0  501  503 -0.00000000000E+00 -0.00000000000E+00 -0.20505962538E+03  0.20505962538E+03  0.00000000000E+00 0.  1.
          6    1    1    2  501    0  0.40331782206E+03  0.16220303342E+03  0.23444409815E+03  0.52299438314E+03  0.17200000000E+03 0. -1.
         -6    1    1    2    0  502 -0.40331782206E+03 -0.16220303342E+03  0.83812540034E+03  0.95969436611E+03  0.17200000000E+03 0.  1.
<mgrwt>
<rscale>  2 0.46750304E+03</rscale>
<asrwt>0</asrwt>
<pdfrwt beam="1">  1       21 0.31940726E+00 0.46750304E+03</pdfrwt>
<pdfrwt beam="2">  1       21 0.51264910E-01 0.46750304E+03</pdfrwt>
<totfact> 0.71996584E+01</totfact>
</mgrwt>
</event>
<event>
 4    1  0.1115666E+000  0.1755099E+03  0.7546771E-02  0.1172221E+00
         21   -1    0    0  501  502  0.00000000000E+00  0.00000000000E+00  0.77259999542E+02  0.77259999542E+02  0.00000000000E+00 0. -1.
         21   -1    0    0  502  503 -0.00000000000E+00 -0.00000000000E+00 -0.40283590643E+03  0.40283590643E+03  0.00000000000E+00 0. -1.
          6    1    1    2  501    0  0.54659232717E+01  0.34494233805E+02 -0.13847117806E+03  0.22355758909E+03  0.17200000000E+03 0. -1.
         -6    1    1    2    0  503 -0.54659232717E+01 -0.34494233805E+02 -0.18710472882E+03  0.25653831689E+03  0.17200000000E+03 0. -1.
<mgrwt>
<rscale>  2 0.17550991E+03</rscale>
<asrwt>0</asrwt>
<pdfrwt beam="1">  1       21 0.19315000E-01 0.17550991E+03</pdfrwt>
<pdfrwt beam="2">  1       21 0.10070898E+00 0.17550991E+03</pdfrwt>
<totfact> 0.20100219E+04</totfact>
</mgrwt>
</event>
<event>
 4    1  0.1115666E+000  0.2257043E+03  0.7546771E-02  0.1129700E+00
         21   -1    0    0  501  502  0.00000000000E+00  0.00000000000E+00  0.16030603390E+03  0.16030603390E+03  0.00000000000E+00 0.  1.
         21   -1    0    0  502  503 -0.00000000000E+00 -0.00000000000E+00 -0.32110691491E+03  0.32110691491E+03  0.00000000000E+00 0.  1.
          6    1    1    2  501    0  0.19649240636E+02 -0.14481832727E+03 -0.55908381429E+02  0.23252567103E+03  0.17200000000E+03 0.  1.
         -6    1    1    2    0  503 -0.19649240636E+02  0.14481832727E+03 -0.10489249959E+03  0.24888727778E+03  0.17200000000E+03 0.  1.
<mgrwt>
<rscale>  2 0.22570432E+03</rscale>
<asrwt>0</asrwt>
<pdfrwt beam="1">  1       21 0.40076509E-01 0.22570432E+03</pdfrwt>
<pdfrwt beam="2">  1       21 0.80276728E-01 0.22570432E+03</pdfrwt>
<totfact> 0.80038493E+03</totfact>
</mgrwt>
</event>
<event>
 4    1  0.1115666E+000  0.1869055E+03  0.7546771E-02  0.1161282E+00
         21   -1    0    0  501  502  0.00000000000E+00  0.00000000000E+00  0.12545315941E+03  0.12545315941E+03  0.00000000000E+00 0.  1.
         21   -1    0    0  502  503 -0.00000000000E+00 -0.00000000000E+00 -0.37666414238E+03  0.37666414238E+03  0.00000000000E+00 0.  1.
          6    1    1    2  501    0 -0.34264647245E+02 -0.64618790342E+02  0.25872781708E+01  0.18692337501E+03  0.17200000000E+03 0.  1.
         -6    1    1    2    0  503  0.34264647245E+02  0.64618790342E+02 -0.25379826114E+03  0.31519392677E+03  0.17200000000E+03 0.  1.
<mgrwt>
<rscale>  2 0.18690547E+03</rscale>
<asrwt>0</asrwt>
<pdfrwt beam="1">  1       21 0.31363290E-01 0.18690547E+03</pdfrwt>
<pdfrwt beam="2">  1       21 0.94166035E-01 0.18690547E+03</pdfrwt>
<totfact> 0.92767287E+03</totfact>
</mgrwt>
</event>
<event>
 4    1  0.1115666E+000  0.1741936E+03  0.7546771E-02  0.1173544E+00
         21   -1    0    0  503  502  0.00000000000E+00  0.00000000000E+00  0.16119365751E+03  0.16119365751E+03  0.00000000000E+00 0. -1.
         21   -1    0    0  501  503 -0.00000000000E+00 -0.00000000000E+00 -0.42432342733E+03  0.42432342733E+03  0.00000000000E+00 0. -1.
          6    1    1    2  501    0  0.24171473612E+02 -0.13234882796E+02 -0.34993436958E+03  0.39089318908E+03  0.17200000000E+03 0. -1.
         -6    1    1    2    0  502 -0.24171473612E+02  0.13234882796E+02  0.86804599758E+02  0.19462389575E+03  0.17200000000E+03 0. -1.
<mgrwt>
<rscale>  2 0.17419363E+03</rscale>
<asrwt>0</asrwt>
<pdfrwt beam="1">  1       21 0.40298415E-01 0.17419363E+03</pdfrwt>
<pdfrwt beam="2">  1       21 0.10608086E+00 0.17419363E+03</pdfrwt>
<totfact> 0.42961757E+03</totfact>
</mgrwt>
</event>
<event>
 4    1  0.1115666E+000  0.1864436E+03  0.7546771E-02  0.1161709E+00
         21   -1    0    0  501  502  0.00000000000E+00  0.00000000000E+00  0.72009918266E+03  0.72009918266E+03  0.00000000000E+00 0.  1.
         21   -1    0    0  502  503 -0.00000000000E+00 -0.00000000000E+00 -0.76052615754E+02  0.76052615754E+02  0.00000000000E+00 0.  1.
          6    1    1    2  501    0 -0.38922052151E+02 -0.60516745559E+02  0.56261102776E+03  0.59269922489E+03  0.17200000000E+03 0.  1.
         -6    1    1    2    0  503  0.38922052151E+02  0.60516745559E+02  0.81435539154E+02  0.20345257353E+03  0.17200000000E+03 0.  1.
<mgrwt>
<rscale>  2 0.18644356E+03</rscale>
<asrwt>0</asrwt>
<pdfrwt beam="1">  1       21 0.18002478E+00 0.18644356E+03</pdfrwt>
<pdfrwt beam="2">  1       21 0.19013156E-01 0.18644356E+03</pdfrwt>
<totfact> 0.46398640E+03</totfact>
</mgrwt>
</event>
<event>
 4    1  0.1115666E+000  0.1989042E+03  0.7546771E-02  0.1150667E+00
         21   -1    0    0  501  502  0.00000000000E+00  0.00000000000E+00  0.53663696464E+03  0.53663696464E+03  0.00000000000E+00 0.  1.
         21   -1    0    0  502  503 -0.00000000000E+00 -0.00000000000E+00 -0.15098494868E+03  0.15098494868E+03  0.00000000000E+00 0.  1.
          6    1    1    2  501    0 -0.99641359041E+02  0.71058285810E+01  0.43876850943E+03  0.48174754602E+03  0.17200000000E+03 0.  1.
         -6    1    1    2    0  503  0.99641359041E+02 -0.71058285810E+01 -0.53116493468E+02  0.20587436730E+03  0.17200000000E+03 0.  1.
<mgrwt>
<rscale>  2 0.19890423E+03</rscale>
<asrwt>0</asrwt>
<pdfrwt beam="1">  1       21 0.13415924E+00 0.19890423E+03</pdfrwt>
<pdfrwt beam="2">  1       21 0.37746238E-01 0.19890423E+03</pdfrwt>
<totfact> 0.26865046E+03</totfact>
</mgrwt>
</event>
<event>
 4    1  0.1115666E+000  0.1834546E+03  0.7546771E-02  0.1164501E+00
         21   -1    0    0  503  502  0.00000000000E+00  0.00000000000E+00  0.52070460240E+03  0.52070460240E+03  0.00000000000E+00 0.  1.
         21   -1    0    0  501  503 -0.00000000000E+00 -0.00000000000E+00 -0.68286400078E+02  0.68286400078E+02  0.00000000000E+00 0.  1.
          6    1    1    2  501    0 -0.62112053494E+02 -0.14617715025E+02  0.29431099955E+03  0.34680621280E+03  0.17200000000E+03 0.  1.
         -6    1    1    2    0  502  0.62112053494E+02  0.14617715025E+02  0.15810720277E+03  0.24218478968E+03  0.17200000000E+03 0.  1.
<mgrwt>
<rscale>  2 0.18345459E+03</rscale>
<asrwt>0</asrwt>
<pdfrwt beam="1">  1       21 0.13017614E+00 0.18345459E+03</pdfrwt>
<pdfrwt beam="2">  1       21 0.17071602E-01 0.18345459E+03</pdfrwt>
<totfact> 0.13421316E+04</totfact>
</mgrwt>
</event>
<event>
 4    1  0.1115666E+000  0.1868885E+03  0.7546771E-02  0.1161298E+00
         21   -1    0    0  503  502  0.00000000000E+00  0.00000000000E+00  0.75484264050E+03  0.75484264050E+03  0.00000000000E+00 0.  1.
         21   -1    0    0  501  503 -0.00000000000E+00 -0.00000000000E+00 -0.86924769943E+02  0.86924769943E+02  0.00000000000E+00 0.  1.
          6    1    1    2  501    0  0.83149919772E+00  0.73093314213E+02  0.46125826333E+02  0.19249653459E+03  0.17200000000E+03 0.  1.
         -6    1    1    2    0  502 -0.83149919772E+00 -0.73093314213E+02  0.62179204423E+03  0.64927087586E+03  0.17200000000E+03 0.  1.
<mgrwt>
<rscale>  2 0.18688853E+03</rscale>
<asrwt>0</asrwt>
<pdfrwt beam="1">  1       21 0.18871064E+00 0.18688853E+03</pdfrwt>
<pdfrwt beam="2">  1       21 0.21731195E-01 0.18688853E+03</pdfrwt>
<totfact> 0.31599224E+03</totfact>
</mgrwt>
</event>
<event>
 4    1  0.1115666E+000  0.2347197E+03  0.7546771E-02  0.1123361E+00
         21   -1    0    0  501  502  0.00000000000E+00  0.00000000000E+00  0.26029593621E+03  0.26029593621E+03  0.00000000000E+00 0.  1.
         21   -1    0    0  502  503 -0.00000000000E+00 -0.00000000000E+00 -0.29460200536E+03  0.29460200536E+03  0.00000000000E+00 0.  1.
          6    1    1    2  501    0 -0.10835676395E+03  0.11733775227E+03  0.13006519855E+03  0.26834733514E+03  0.17200000000E+03 0.  1.
         -6    1    1    2    0  503  0.10835676395E+03 -0.11733775227E+03 -0.16437126769E+03  0.28655060643E+03  0.17200000000E+03 0.  1.
<mgrwt>
<rscale>  2 0.23471970E+03</rscale>
<asrwt>0</asrwt>
<pdfrwt beam="1">  1       21 0.65073984E-01 0.23471970E+03</pdfrwt>
<pdfrwt beam="2">  1       21 0.73650501E-01 0.23471970E+03</pdfrwt>
<totfact> 0.34843354E+03</totfact>
</mgrwt>
</event>
<event>
 4    1  0.1115666E+000  0.1742736E+03  0.7546771E-02  0.1173463E+00
         21   -1    0    0  501  502  0.00000000000E+00  0.00000000000E+00  0.12099638435E+04  0.12099638435E+04  0.00000000000E+00 0.  1.
         21   -1    0    0  502  503 -0.00000000000E+00 -0.00000000000E+00 -0.68454696496E+02  0.68454696496E+02  0.00000000000E+00 0.  1.
          6    1    1    2  501    0  0.26377684043E+02 -0.95649935404E+01  0.62062892621E+02  0.18499479441E+03  0.17200000000E+03 0.  1.
         -6    1    1    2    0  503 -0.26377684043E+02  0.95649935404E+01  0.10794462544E+04  0.10934237456E+04  0.17200000000E+03 0.  1.
<mgrwt>
<rscale>  2 0.17427355E+03</rscale>
<asrwt>0</asrwt>
<pdfrwt beam="1">  1       21 0.30249089E+00 0.17427355E+03</pdfrwt>
<pdfrwt beam="2">  1       21 0.17113678E-01 0.17427355E+03</pdfrwt>
<totfact> 0.10447936E+03</totfact>
</mgrwt>
</event>
<event>
 4    1  0.1115666E+000  0.2535255E+03  0.7546771E-02  0.1111097E+00
         21   -1    0    0  503  502  0.00000000000E+00  0.00000000000E+00  0.22665118373E+03  0.22665118373E+03  0.00000000000E+00 0.  1.
         21   -1    0    0  501  503 -0.00000000000E+00 -0.00000000000E+00 -0.29551276303E+03  0.29551276303E+03  0.00000000000E+00 0. -1.
          6    1    1    2  501    0  0.22776680485E+02 -0.18485773271E+03 -0.86880798752E+02  0.26799893975E+03  0.17200000000E+03 0.  1.
         -6    1    1    2    0  502 -0.22776680485E+02  0.18485773271E+03  0.18019219451E+02  0.25416500700E+03  0.17200000000E+03 0.  1.
<mgrwt>
<rscale>  2 0.25352546E+03</rscale>
<asrwt>0</asrwt>
<pdfrwt beam="1">  1       21 0.56662796E-01 0.25352546E+03</pdfrwt>
<pdfrwt beam="2">  1       21 0.73878190E-01 0.25352546E+03</pdfrwt>
<totfact> 0.46121495E+03</totfact>
</mgrwt>
</event>
<event>
 4    1  0.1115666E+000  0.2037996E+03  0.7546771E-02  0.1146572E+00
         21   -1    0    0  503  502  0.00000000000E+00  0.00000000000E+00  0.11848828676E+03  0.11848828676E+03  0.00000000000E+00 0.  1.
         21   -1    0    0  501  503 -0.00000000000E+00 -0.00000000000E+00 -0.42482769726E+03  0.42482769726E+03  0.00000000000E+00 0.  1.
          6    1    1    2  501    0 -0.10733223486E+03  0.20737982360E+02 -0.39566755708E+02  0.20760491494E+03  0.17200000000E+03 0.  1.
         -6    1    1    2    0  502  0.10733223486E+03 -0.20737982360E+02 -0.26677265480E+03  0.33571106907E+03  0.17200000000E+03 0.  1.
<mgrwt>
<rscale>  2 0.20379959E+03</rscale>
<asrwt>0</asrwt>
<pdfrwt beam="1">  1       21 0.29622072E-01 0.20379959E+03</pdfrwt>
<pdfrwt beam="2">  1       21 0.10620692E+00 0.20379959E+03</pdfrwt>
<totfact> 0.77001302E+03</totfact>
</mgrwt>
</event>
<event>
 4    1  0.1115666E+000  0.1815004E+03  0.7546771E-02  0.1166359E+00
         21   -1    0    0  501  502  0.00000000000E+00  0.00000000000E+00  0.17483524492E+03  0.17483524492E+03  0.00000000000E+00 0. -1.
         21   -1    0    0  502  503 -0.00000000000E+00 -0.00000000000E+00 -0.31773838462E+03  0.31773838462E+03  0.00000000000E+00 0. -1.
          6    1    1    2  501    0  0.53531840498E+02 -0.22197632658E+02  0.85670456210E+02  0.20070331315E+03  0.17200000000E+03 0. -1.
         -6    1    1    2    0  503 -0.53531840498E+02  0.22197632658E+02 -0.22857359591E+03  0.29187031639E+03  0.17200000000E+03 0. -1.
<mgrwt>
<rscale>  2 0.18150039E+03</rscale>
<asrwt>0</asrwt>
<pdfrwt beam="1">  1       21 0.43708812E-01 0.18150039E+03</pdfrwt>
<pdfrwt beam="2">  1       21 0.79434595E-01 0.18150039E+03</pdfrwt>
<totfact> 0.70883219E+03</totfact>
</mgrwt>
</event>
<event>
 4    1  0.1115666E+000  0.3515498E+03  0.7546771E-02  0.1061981E+00
         21   -1    0    0  501  502  0.00000000000E+00  0.00000000000E+00  0.44531424763E+03  0.44531424763E+03  0.00000000000E+00 0. -1.
         21   -1    0    0  502  503 -0.00000000000E+00 -0.00000000000E+00 -0.50703414193E+03  0.50703414193E+03  0.00000000000E+00 0.  1.
          6    1    1    2  501    0 -0.18286693258E+03  0.24609535958E+03  0.28950446375E+03  0.45541198444E+03  0.17200000000E+03 0. -1.
         -6    1    1    2    0  503  0.18286693258E+03 -0.24609535958E+03 -0.35122435806E+03  0.49693640512E+03  0.17200000000E+03 0.  1.
<mgrwt>
<rscale>  2 0.35154977E+03</rscale>
<asrwt>0</asrwt>
<pdfrwt beam="1">  1       21 0.11132856E+00 0.35154977E+03</pdfrwt>
<pdfrwt beam="2">  1       21 0.12675854E+00 0.35154977E+03</pdfrwt>
<totfact> 0.25382667E+02</totfact>
</mgrwt>
</event>
<event>
 4    1  0.1115666E+000  0.1886626E+03  0.7546771E-02  0.1159673E+00
         21   -1    0    0  503  502  0.00000000000E+00  0.00000000000E+00  0.72057809301E+03  0.72057809301E+03  0.00000000000E+00 0.  1.
         21   -1    0    0  501  503 -0.00000000000E+00 -0.00000000000E+00 -0.51973461485E+02  0.51973461485E+02  0.00000000000E+00 0.  1.
          6    1    1    2  501    0 -0.69711348969E+02 -0.33910324836E+02  0.24827950282E+03  0.31182734618E+03  0.17200000000E+03 0.  1.
         -6    1    1    2    0  502  0.69711348969E+02  0.33910324836E+02  0.42032512871E+03  0.46072420832E+03  0.17200000000E+03 0.  1.
<mgrwt>
<rscale>  2 0.18866262E+03</rscale>
<asrwt>0</asrwt>
<pdfrwt beam="1">  1       21 0.18014449E+00 0.18866262E+03</pdfrwt>
<pdfrwt beam="2">  1       21 0.12993368E-01 0.18866262E+03</pdfrwt>
<totfact> 0.92670293E+03</totfact>
</mgrwt>
</event>
<event>
 4    1  0.1115666E+000  0.1738133E+03  0.7546771E-02  0.1173929E+00
         21   -1    0    0  501  502  0.00000000000E+00  0.00000000000E+00  0.19832072851E+03  0.19832072851E+03  0.00000000000E+00 0. -1.
         21   -1    0    0  502  503 -0.00000000000E+00 -0.00000000000E+00 -0.60736886561E+03  0.60736886561E+03  0.00000000000E+00 0. -1.
          6    1    1    2  501    0 -0.19054385966E+02 -0.16247562058E+02  0.14416126589E+03  0.22581745610E+03  0.17200000000E+03 0. -1.
         -6    1    1    2    0  503  0.19054385966E+02  0.16247562058E+02 -0.55320940299E+03  0.57987213802E+03  0.17200000000E+03 0. -1.
<mgrwt>
<rscale>  2 0.17381327E+03</rscale>
<asrwt>0</asrwt>
<pdfrwt beam="1">  1       21 0.49580183E-01 0.17381327E+03</pdfrwt>
<pdfrwt beam="2">  1       21 0.15184221E+00 0.17381327E+03</pdfrwt>
<totfact> 0.11454844E+03</totfact>
</mgrwt>
</event>
<event>
 4    1  0.1115666E+000  0.1826716E+03  0.7546771E-02  0.1165242E+00
         21   -1    0    0  503  502  0.00000000000E+00  0.00000000000E+00  0.44597813874E+03  0.44597813874E+03  0.00000000000E+00 0.  1.
         21   -1    0    0  501  503 -0.00000000000E+00 -0.00000000000E+00 -0.75824471700E+02  0.75824471700E+02  0.00000000000E+00 0.  1.
          6    1    1    2  501    0  0.48653204738E+02  0.37653410081E+02  0.21507799407E+03  0.28218337505E+03  0.17200000000E+03 0. -1.
         -6    1    1    2    0  502 -0.48653204738E+02 -0.37653410081E+02  0.15507567298E+03  0.23961923540E+03  0.17200000000E+03 0. -1.
<mgrwt>
<rscale>  2 0.18267160E+03</rscale>
<asrwt>0</asrwt>
<pdfrwt beam="1">  1       21 0.11149453E+00 0.18267160E+03</pdfrwt>
<pdfrwt beam="2">  1       21 0.18956119E-01 0.18267160E+03</pdfrwt>
<totfact> 0.16228906E+04</totfact>
</mgrwt>
</event>
<event>
 4    1  0.1115666E+000  0.1924373E+03  0.7546771E-02  0.1156281E+00
         21   -1    0    0  503  502  0.00000000000E+00  0.00000000000E+00  0.12629451642E+03  0.12629451642E+03  0.00000000000E+00 0. -1.
         21   -1    0    0  501  503 -0.00000000000E+00 -0.00000000000E+00 -0.10663430186E+04  0.10663430186E+04  0.00000000000E+00 0. -1.
          6    1    1    2  501    0  0.54688507872E+02 -0.66762878268E+02 -0.97777927968E+03  0.99653621840E+03  0.17200000000E+03 0. -1.
         -6    1    1    2    0  502 -0.54688507872E+02  0.66762878268E+02  0.37730777507E+02  0.19610131662E+03  0.17200000000E+03 0. -1.
<mgrwt>
<rscale>  2 0.19243730E+03</rscale>
<asrwt>0</asrwt>
<pdfrwt beam="1">  1       21 0.31573630E-01 0.19243730E+03</pdfrwt>
<pdfrwt beam="2">  1       21 0.26658575E+00 0.19243730E+03</pdfrwt>
<totfact> 0.51319939E+02</totfact>
</mgrwt>
</event>
<event>
 4    1  0.1115666E+000  0.3448974E+03  0.7546771E-02  0.1064729E+00
         21   -1    0    0  503  502  0.00000000000E+00  0.00000000000E+00  0.99398349171E+03  0.99398349171E+03  0.00000000000E+00 0.  1.
         21   -1    0    0  501  503 -0.00000000000E+00 -0.00000000000E+00 -0.12202920316E+03  0.12202920316E+03  0.00000000000E+00 0.  1.
          6    1    1    2  501    0 -0.23134879070E+03 -0.18933564061E+03  0.51349408716E+03  0.61857127747E+03  0.17200000000E+03 0.  1.
         -6    1    1    2    0  502  0.23134879070E+03  0.18933564061E+03  0.35846020139E+03  0.49744141740E+03  0.17200000000E+03 0.  1.
<mgrwt>
<rscale>  2 0.34489745E+03</rscale>
<asrwt>0</asrwt>
<pdfrwt beam="1">  1       21 0.24849585E+00 0.34489745E+03</pdfrwt>
<pdfrwt beam="2">  1       21 0.30507304E-01 0.34489745E+03</pdfrwt>
<totfact> 0.60616205E+02</totfact>
</mgrwt>
</event>
<event>
 4    1  0.1115666E+000  0.2062541E+03  0.7546771E-02  0.1144567E+00
         21   -1    0    0  501  502  0.00000000000E+00  0.00000000000E+00  0.15179997432E+03  0.15179997432E+03  0.00000000000E+00 0. -1.
         21   -1    0    0  502  503 -0.00000000000E+00 -0.00000000000E+00 -0.51421044992E+03  0.51421044992E+03  0.00000000000E+00 0.  1.
          6    1    1    2  501    0  0.11050945673E+03 -0.27284000570E+02  0.43420262667E+02  0.21077494141E+03  0.17200000000E+03 0. -1.
         -6    1    1    2    0  503 -0.11050945673E+03  0.27284000570E+02 -0.40583073826E+03  0.45523548283E+03  0.17200000000E+03 0.  1.
<mgrwt>
<rscale>  2 0.20625411E+03</rscale>
<asrwt>0</asrwt>
<pdfrwt beam="1">  1       21 0.37949994E-01 0.20625411E+03</pdfrwt>
<pdfrwt beam="2">  1       21 0.12855261E+00 0.20625411E+03</pdfrwt>
<totfact> 0.29421723E+03</totfact>
</mgrwt>
</event>
<event>
 4    1  0.1115666E+000  0.2093615E+03  0.7546771E-02  0.1142073E+00
         21   -1    0    0  501  502  0.00000000000E+00  0.00000000000E+00  0.46960556318E+03  0.46960556318E+03  0.00000000000E+00 0.  1.
         21   -1    0    0  502  503 -0.00000000000E+00 -0.00000000000E+00 -0.16605766543E+03  0.16605766543E+03  0.00000000000E+00 0.  1.
          6    1    1    2  501    0  0.10170577284E+02  0.11893184724E+03  0.36209968407E+03  0.41826834225E+03  0.17200000000E+03 0.  1.
         -6    1    1    2    0  503 -0.10170577284E+02 -0.11893184724E+03 -0.58551786318E+02  0.21739488635E+03  0.17200000000E+03 0.  1.
<mgrwt>
<rscale>  2 0.20936147E+03</rscale>
<asrwt>0</asrwt>
<pdfrwt beam="1">  1       21 0.11740139E+00 0.20936147E+03</pdfrwt>
<pdfrwt beam="2">  1       21 0.41514417E-01 0.20936147E+03</pdfrwt>
<totfact> 0.30699948E+03</totfact>
</mgrwt>
</event>
<event>
 4    1  0.1115666E+000  0.1795788E+03  0.7546771E-02  0.1168211E+00
         21   -1    0    0  503  502  0.00000000000E+00  0.00000000000E+00  0.12266633342E+03  0.12266633342E+03  0.00000000000E+00 0. -1.
         21   -1    0    0  501  503 -0.00000000000E+00 -0.00000000000E+00 -0.51970821186E+03  0.51970821186E+03  0.00000000000E+00 0. -1.
          6    1    1    2  501    0 -0.50671606438E+02 -0.98458892518E+01 -0.42430117733E+03  0.46073858350E+03  0.17200000000E+03 0. -1.
         -6    1    1    2    0  502  0.50671606438E+02  0.98458892518E+01  0.27259298893E+02  0.18163596178E+03  0.17200000000E+03 0. -1.
<mgrwt>
<rscale>  2 0.17957882E+03</rscale>
<asrwt>0</asrwt>
<pdfrwt beam="1">  1       21 0.30666584E-01 0.17957882E+03</pdfrwt>
<pdfrwt beam="2">  1       21 0.12992705E+00 0.17957882E+03</pdfrwt>
<totfact> 0.44684212E+03</totfact>
</mgrwt>
</event>
<event>
 4    1  0.1115666E+000  0.2093386E+03  0.7546771E-02  0.1142091E+00
         21   -1    0    0  501  502  0.00000000000E+00  0.00000000000E+00  0.64842070599E+02  0.64842070599E+02  0.00000000000E+00 0.  1.
         21   -1    0    0  502  503 -0.00000000000E+00 -0.00000000000E+00 -0.70359502035E+03  0.70359502035E+03  0.00000000000E+00 0.  1.
          6    1    1    2  501    0  0.98511232112E+02  0.67336224381E+02 -0.39569255867E+03  0.44765525905E+03  0.17200000000E+03 0. -1.
         -6    1    1    2    0  503 -0.98511232112E+02 -0.67336224381E+02 -0.24306039109E+03  0.32078183191E+03  0.17200000000E+03 0. -1.
<mgrwt>
<rscale>  2 0.20933855E+03</rscale>
<asrwt>0</asrwt>
<pdfrwt beam="1">  1       21 0.16210517E-01 0.20933855E+03</pdfrwt>
<pdfrwt beam="2">  1       21 0.17589876E+00 0.20933855E+03</pdfrwt>
<totfact> 0.65173389E+03</totfact>
</mgrwt>
</event>
<event>
 4    1  0.1115666E+000  0.2183345E+03  0.7546771E-02  0.1135131E+00
         21   -1    0    0  503  502  0.00000000000E+00  0.00000000000E+00  0.17884237957E+03  0.17884237957E+03  0.00000000000E+00 0.  1.
         21   -1    0    0  501  503 -0.00000000000E+00 -0.00000000000E+00 -0.28437437177E+03  0.28437437177E+03  0.00000000000E+00 0.  1.
          6    1    1    2  501    0  0.12011075367E+03  0.60492627615E+02 -0.11075547332E+03  0.24481978273E+03  0.17200000000E+03 0.  1.
         -6    1    1    2    0  502 -0.12011075367E+03 -0.60492627615E+02  0.52234811148E+01  0.21839696861E+03  0.17200000000E+03 0.  1.
<mgrwt>
<rscale>  2 0.21833449E+03</rscale>
<asrwt>0</asrwt>
<pdfrwt beam="1">  1       21 0.44710595E-01 0.21833449E+03</pdfrwt>
<pdfrwt beam="2">  1       21 0.71093593E-01 0.21833449E+03</pdfrwt>
<totfact> 0.84466949E+03</totfact>
</mgrwt>
</event>
<event>
 4    1  0.1115666E+000  0.1891710E+03  0.7546771E-02  0.1159211E+00
         21   -1    0    0  501  502  0.00000000000E+00  0.00000000000E+00  0.77792763732E+03  0.77792763732E+03  0.00000000000E+00 0.  1.
         21   -1    0    0  502  503 -0.00000000000E+00 -0.00000000000E+00 -0.65201467918E+02  0.65201467918E+02  0.00000000000E+00 0.  1.
          6    1    1    2  501    0  0.54093419317E+02  0.57232468828E+02  0.58512742940E+03  0.61494695880E+03  0.17200000000E+03 0.  1.
         -6    1    1    2    0  503 -0.54093419317E+02 -0.57232468828E+02  0.12759874000E+03  0.22818214643E+03  0.17200000000E+03 0.  1.
<mgrwt>
<rscale>  2 0.18917096E+03</rscale>
<asrwt>0</asrwt>
<pdfrwt beam="1">  1       21 0.19448188E+00 0.18917096E+03</pdfrwt>
<pdfrwt beam="2">  1       21 0.16300369E-01 0.18917096E+03</pdfrwt>
<totfact> 0.49283558E+03</totfact>
</mgrwt>
</event>
<event>
 4    1  0.1115666E+000  0.2570126E+03  0.7546771E-02  0.1108952E+00
         21   -1    0    0  501  502  0.00000000000E+00  0.00000000000E+00  0.19804568138E+04  0.19804568138E+04  0.00000000000E+00 0. -1.
         21   -1    0    0  502  503 -0.00000000000E+00 -0.00000000000E+00 -0.89658509104E+02  0.89658509104E+02  0.00000000000E+00 0. -1.
          6    1    1    2  501    0 -0.61807653901E+02  0.18069669082E+03  0.17656405668E+04  0.17842483267E+04  0.17200000000E+03 0. -1.
         -6    1    1    2    0  503  0.61807653901E+02 -0.18069669082E+03  0.12515773785E+03  0.28586699617E+03  0.17200000000E+03 0. -1.
<mgrwt>
<rscale>  2 0.25701261E+03</rscale>
<asrwt>0</asrwt>
<pdfrwt beam="1">  1       21 0.49511406E+00 0.25701261E+03</pdfrwt>
<pdfrwt beam="2">  1       21 0.22414634E-01 0.25701261E+03</pdfrwt>
<totfact> 0.34212489E+01</totfact>
</mgrwt>
</event>
<event>
 4    1  0.1115666E+000  0.1787134E+03  0.7546771E-02  0.1169054E+00
         21   -1    0    0  503  502  0.00000000000E+00  0.00000000000E+00  0.52193436591E+03  0.52193436591E+03  0.00000000000E+00 0. -1.
         21   -1    0    0  501  503 -0.00000000000E+00 -0.00000000000E+00 -0.78116884757E+02  0.78116884757E+02  0.00000000000E+00 0. -1.
          6    1    1    2  501    0  0.29562448555E+01 -0.48432869396E+02  0.82258398439E+02  0.19673567632E+03  0.17200000000E+03 0. -1.
         -6    1    1    2    0  502 -0.29562448555E+01  0.48432869396E+02  0.36155908272E+03  0.40331557435E+03  0.17200000000E+03 0. -1.
<mgrwt>
<rscale>  2 0.17871341E+03</rscale>
<asrwt>0</asrwt>
<pdfrwt beam="1">  1       21 0.13048358E+00 0.17871341E+03</pdfrwt>
<pdfrwt beam="2">  1       21 0.19529223E-01 0.17871341E+03</pdfrwt>
<totfact> 0.10440699E+04</totfact>
</mgrwt>
</event>
<event>
 4    1  0.1115666E+000  0.1767007E+03  0.7546771E-02  0.1171035E+00
         21   -1    0    0  501  502  0.00000000000E+00  0.00000000000E+00  0.31727612533E+03  0.31727612533E+03  0.00000000000E+00 0. -1.
         21   -1    0    0  502  503 -0.00000000000E+00 -0.00000000000E+00 -0.12739016696E+03  0.12739016696E+03  0.00000000000E+00 0. -1.
          6    1    1    2  501    0  0.35338622799E+02  0.19756121940E+02  0.20098724627E+03  0.26761725613E+03  0.17200000000E+03 0. -1.
         -6    1    1    2    0  503 -0.35338622799E+02 -0.19756121940E+02 -0.11101287895E+02  0.17704903617E+03  0.17200000000E+03 0. -1.
<mgrwt>
<rscale>  2 0.17670066E+03</rscale>
<asrwt>0</asrwt>
<pdfrwt beam="1">  1       21 0.79319030E-01 0.17670066E+03</pdfrwt>
<pdfrwt beam="2">  1       21 0.31847542E-01 0.17670066E+03</pdfrwt>
<totfact> 0.13435062E+04</totfact>
</mgrwt>
</event>
<event>
 4    1  0.1115666E+000  0.2162364E+03  0.7546771E-02  0.1136720E+00
         21   -1    0    0  503  502  0.00000000000E+00  0.00000000000E+00  0.38811984415E+03  0.38811984415E+03  0.00000000000E+00 0. -1.
         21   -1    0    0  501  503 -0.00000000000E+00 -0.00000000000E+00 -0.12400717463E+03  0.12400717463E+03  0.00000000000E+00 0.  1.
          6    1    1    2  501    0 -0.10040392267E+03  0.84221416781E+02  0.17528098032E+03  0.27835519897E+03  0.17200000000E+03 0. -1.
         -6    1    1    2    0  502  0.10040392267E+03 -0.84221416781E+02  0.88831689204E+02  0.23377181982E+03  0.17200000000E+03 0.  1.
<mgrwt>
<rscale>  2 0.21623643E+03</rscale>
<asrwt>0</asrwt>
<pdfrwt beam="1">  1       21 0.97029958E-01 0.21623643E+03</pdfrwt>
<pdfrwt beam="2">  1       21 0.31001795E-01 0.21623643E+03</pdfrwt>
<totfact> 0.86651545E+03</totfact>
</mgrwt>
</event>
<event>
 4    1  0.1115666E+000  0.2686647E+03  0.7546771E-02  0.1102046E+00
         21   -1    0    0  503  502  0.00000000000E+00  0.00000000000E+00  0.11407354139E+04  0.11407354139E+04  0.00000000000E+00 0. -1.
         21   -1    0    0  501  503 -0.00000000000E+00 -0.00000000000E+00 -0.70660851161E+02  0.70660851161E+02  0.00000000000E+00 0. -1.
          6    1    1    2  501    0  0.18750414104E+03  0.86249275748E+02  0.73085358648E+03  0.77867047289E+03  0.17200000000E+03 0. -1.
         -6    1    1    2    0  502 -0.18750414104E+03 -0.86249275748E+02  0.33922097623E+03  0.43272579215E+03  0.17200000000E+03 0. -1.
<mgrwt>
<rscale>  2 0.26866474E+03</rscale>
<asrwt>0</asrwt>
<pdfrwt beam="1">  1       21 0.28518379E+00 0.26866474E+03</pdfrwt>
<pdfrwt beam="2">  1       21 0.17665216E-01 0.26866474E+03</pdfrwt>
<totfact> 0.11104799E+03</totfact>
</mgrwt>
</event>
<event>
 4    1  0.1115666E+000  0.2196173E+03  0.7546771E-02  0.1134169E+00
         21   -1    0    0  503  502  0.00000000000E+00  0.00000000000E+00  0.17134662187E+03  0.17134662187E+03  0.00000000000E+00 0. -1.
         21   -1    0    0  501  503 -0.00000000000E+00 -0.00000000000E+00 -0.49149782759E+03  0.49149782759E+03  0.00000000000E+00 0. -1.
          6    1    1    2  501    0 -0.12099074370E+03  0.63316824529E+02  0.56566104522E+02  0.22678515055E+03  0.17200000000E+03 0. -1.
         -6    1    1    2    0  502  0.12099074370E+03 -0.63316824529E+02 -0.37671731024E+03  0.43605929891E+03  0.17200000000E+03 0. -1.
<mgrwt>
<rscale>  2 0.21961735E+03</rscale>
<asrwt>0</asrwt>
<pdfrwt beam="1">  1       21 0.42836656E-01 0.21961735E+03</pdfrwt>
<pdfrwt beam="2">  1       21 0.12287446E+00 0.21961735E+03</pdfrwt>
<totfact> 0.25498035E+03</totfact>
</mgrwt>
</event>
<event>
 4    1  0.1115666E+000  0.2301167E+03  0.7546771E-02  0.1126558E+00
         21   -1    0    0  501  502  0.00000000000E+00  0.00000000000E+00  0.48534949423E+03  0.48534949423E+03  0.00000000000E+00 0.  1.
         21   -1    0    0  502  503 -0.00000000000E+00 -0.00000000000E+00 -0.15313326208E+03  0.15313326208E+03  0.00000000000E+00 0. -1.
          6    1    1    2  501    0  0.77845237620E+02  0.13156683200E+03  0.33728837531E+03  0.40831012774E+03  0.17200000000E+03 0.  1.
         -6    1    1    2    0  503 -0.77845237620E+02 -0.13156683200E+03 -0.50721431525E+01  0.23017262856E+03  0.17200000000E+03 0. -1.
<mgrwt>
<rscale>  2 0.23011674E+03</rscale>
<asrwt>0</asrwt>
<pdfrwt beam="1">  1       21 0.12133737E+00 0.23011674E+03</pdfrwt>
<pdfrwt beam="2">  1       21 0.38283317E-01 0.23011674E+03</pdfrwt>
<totfact> 0.32791627E+03</totfact>
</mgrwt>
</event>
<event>
 4    1  0.1115666E+000  0.4256847E+03  0.7546771E-02  0.1035232E+00
         21   -1    0    0  501  502  0.00000000000E+00  0.00000000000E+00  0.83126491649E+03  0.83126491649E+03  0.00000000000E+00 0. -1.
         21   -1    0    0  502  503 -0.00000000000E+00 -0.00000000000E+00 -0.36103470752E+03  0.36103470752E+03  0.00000000000E+00 0. -1.
          6    1    1    2  501    0 -0.10176718798E+03  0.37585488488E+03  0.61036173591E+03  0.74414306668E+03  0.17200000000E+03 0. -1.
         -6    1    1    2    0  503  0.10176718798E+03 -0.37585488488E+03 -0.14013152693E+03  0.44815655733E+03  0.17200000000E+03 0. -1.
<mgrwt>
<rscale>  2 0.42568469E+03</rscale>
<asrwt>0</asrwt>
<pdfrwt beam="1">  1       21 0.20781623E+00 0.42568469E+03</pdfrwt>
<pdfrwt beam="2">  1       21 0.90258679E-01 0.42568469E+03</pdfrwt>
<totfact> 0.10074508E+02</totfact>
</mgrwt>
</event>
<event>
 4    1  0.1115666E+000  0.1868087E+03  0.7546771E-02  0.1161372E+00
         21   -1    0    0  503  502  0.00000000000E+00  0.00000000000E+00  0.10072423975E+03  0.10072423975E+03  0.00000000000E+00 0. -1.
         21   -1    0    0  501  503 -0.00000000000E+00 -0.00000000000E+00 -0.11351882642E+04  0.11351882642E+04  0.00000000000E+00 0. -1.
          6    1    1    2  501    0  0.61296439957E+02 -0.39449295304E+02 -0.10323253110E+04  0.10490915347E+04  0.17200000000E+03 0. -1.
         -6    1    1    2    0  502 -0.61296439957E+02  0.39449295304E+02 -0.21387134431E+01  0.18682096924E+03  0.17200000000E+03 0. -1.
<mgrwt>
<rscale>  2 0.18680873E+03</rscale>
<asrwt>0</asrwt>
<pdfrwt beam="1">  1       21 0.25181060E-01 0.18680873E+03</pdfrwt>
<pdfrwt beam="2">  1       21 0.28379706E+00 0.18680873E+03</pdfrwt>
<totfact> 0.63736293E+02</totfact>
</mgrwt>
</event>
<event>
 4    1  0.1115666E+000  0.1782198E+03  0.7546771E-02  0.1169537E+00
         21   -1    0    0  503  502  0.00000000000E+00  0.00000000000E+00  0.17192030650E+03  0.17192030650E+03  0.00000000000E+00 0.  1.
         21   -1    0    0  501  503 -0.00000000000E+00 -0.00000000000E+00 -0.24399429220E+03  0.24399429220E+03  0.00000000000E+00 0.  1.
          6    1    1    2  501    0 -0.36120787601E+02 -0.29556319060E+02 -0.13850950083E+03  0.22571479596E+03  0.17200000000E+03 0.  1.
         -6    1    1    2    0  502  0.36120787601E+02  0.29556319060E+02  0.66435515129E+02  0.19019980274E+03  0.17200000000E+03 0.  1.
<mgrwt>
<rscale>  2 0.17821977E+03</rscale>
<asrwt>0</asrwt>
<pdfrwt beam="1">  1       21 0.42980077E-01 0.17821977E+03</pdfrwt>
<pdfrwt beam="2">  1       21 0.60998573E-01 0.17821977E+03</pdfrwt>
<totfact> 0.13143083E+04</totfact>
</mgrwt>
</event>
<event>
 4    1  0.1115666E+000  0.1766695E+03  0.7546771E-02  0.1171066E+00
         21   -1    0    0  503  502  0.00000000000E+00  0.00000000000E+00  0.55654422992E+02  0.55654422992E+02  0.00000000000E+00 0.  1.
         21   -1    0    0  501  503 -0.00000000000E+00 -0.00000000000E+00 -0.67740339081E+03  0.67740339081E+03  0.00000000000E+00 0.  1.
          6    1    1    2  501    0 -0.34326203425E+02 -0.21209276871E+02 -0.46293015300E+03  0.49549616369E+03  0.17200000000E+03 0.  1.
         -6    1    1    2    0  502  0.34326203425E+02  0.21209276871E+02 -0.15881881481E+03  0.23756165012E+03  0.17200000000E+03 0.  1.
<mgrwt>
<rscale>  2 0.17666953E+03</rscale>
<asrwt>0</asrwt>
<pdfrwt beam="1">  1       21 0.13913606E-01 0.17666953E+03</pdfrwt>
<pdfrwt beam="2">  1       21 0.16935085E+00 0.17666953E+03</pdfrwt>
<totfact> 0.98222312E+03</totfact>
</mgrwt>
</event>
<event>
 4    1  0.1115666E+000  0.1822004E+03  0.7546771E-02  0.1165690E+00
         21   -1    0    0  501  502  0.00000000000E+00  0.00000000000E+00  0.13328343951E+03  0.13328343951E+03  0.00000000000E+00 0.  1.
         21   -1    0    0  502  503 -0.00000000000E+00 -0.00000000000E+00 -0.27709699860E+03  0.27709699860E+03  0.00000000000E+00 0.  1.
          6    1    1    2  501    0 -0.36848257544E+02 -0.47488796722E+02 -0.66501317467E+01  0.18232170510E+03  0.17200000000E+03 0.  1.
         -6    1    1    2    0  503  0.36848257544E+02  0.47488796722E+02 -0.13716342735E+03  0.22805873301E+03  0.17200000000E+03 0.  1.
<mgrwt>
<rscale>  2 0.18220038E+03</rscale>
<asrwt>0</asrwt>
<pdfrwt beam="1">  1       21 0.33320860E-01 0.18220038E+03</pdfrwt>
<pdfrwt beam="2">  1       21 0.69274249E-01 0.18220038E+03</pdfrwt>
<totfact> 0.16552048E+04</totfact>
</mgrwt>
</event>
<event>
 4    1  0.1115666E+000  0.2420482E+03  0.7546771E-02  0.1118436E+00
         21   -1    0    0  503  502  0.00000000000E+00  0.00000000000E+00  0.17095559542E+03  0.17095559542E+03  0.00000000000E+00 0.  1.
         21   -1    0    0  501  503 -0.00000000000E+00 -0.00000000000E+00 -0.44631536965E+03  0.44631536965E+03  0.00000000000E+00 0. -1.
          6    1    1    2  501    0  0.11180427187E+03  0.12846462368E+03 -0.28638514699E+03  0.37497174182E+03  0.17200000000E+03 0. -1.
         -6    1    1    2    0  502 -0.11180427187E+03 -0.12846462368E+03  0.11025372760E+02  0.24229922325E+03  0.17200000000E+03 0.  1.
<mgrwt>
<rscale>  2 0.24204825E+03</rscale>
<asrwt>0</asrwt>
<pdfrwt beam="1">  1       21 0.42738900E-01 0.24204825E+03</pdfrwt>
<pdfrwt beam="2">  1       21 0.11157884E+00 0.24204825E+03</pdfrwt>
<totfact> 0.31961339E+03</totfact>
</mgrwt>
</event>
<event>
 4    1  0.1115666E+000  0.1894138E+03  0.7546771E-02  0.1158991E+00
         21   -1    0    0  503  502  0.00000000000E+00  0.00000000000E+00  0.21854616114E+03  0.21854616114E+03  0.00000000000E+00 0.  1.
         21   -1    0    0  501  503 -0.00000000000E+00 -0.00000000000E+00 -0.21242334412E+03  0.21242334412E+03  0.00000000000E+00 0.  1.
          6    1    1    2  501    0  0.78934073548E+02  0.79361628004E+01 -0.99646258876E+02  0.21402557687E+03  0.17200000000E+03 0.  1.
         -6    1    1    2    0  502 -0.78934073548E+02 -0.79361628004E+01  0.10576907589E+03  0.21694392838E+03  0.17200000000E+03 0.  1.
<mgrwt>
<rscale>  2 0.18941376E+03</rscale>
<asrwt>0</asrwt>
<pdfrwt beam="1">  1       21 0.54636540E-01 0.18941376E+03</pdfrwt>
<pdfrwt beam="2">  1       21 0.53105836E-01 0.18941376E+03</pdfrwt>
<totfact> 0.10647381E+04</totfact>
</mgrwt>
</event>
<event>
 4    1  0.1115666E+000  0.1779606E+03  0.7546771E-02  0.1169791E+00
         21   -1    0    0  503  502  0.00000000000E+00  0.00000000000E+00  0.25392103426E+03  0.25392103426E+03  0.00000000000E+00 0. -1.
         21   -1    0    0  501  503 -0.00000000000E+00 -0.00000000000E+00 -0.17174796802E+03  0.17174796802E+03  0.00000000000E+00 0. -1.
          6    1    1    2  501    0 -0.41660960738E+02 -0.18717431650E+02 -0.70280620748E+02  0.19133568290E+03  0.17200000000E+03 0. -1.
         -6    1    1    2    0  502  0.41660960738E+02  0.18717431650E+02  0.15245368699E+03  0.23433331938E+03  0.17200000000E+03 0. -1.
<mgrwt>
<rscale>  2 0.17796061E+03</rscale>
<asrwt>0</asrwt>
<pdfrwt beam="1">  1       21 0.63480258E-01 0.17796061E+03</pdfrwt>
<pdfrwt beam="2">  1       21 0.42936992E-01 0.17796061E+03</pdfrwt>
<totfact> 0.12087178E+04</totfact>
</mgrwt>
</event>
<event>
 4    1  0.1115666E+000  0.2536465E+03  0.7546771E-02  0.1111022E+00
         21   -1    0    0  503  502  0.00000000000E+00  0.00000000000E+00  0.29616864842E+03  0.29616864842E+03  0.00000000000E+00 0. -1.
         21   -1    0    0  501  503 -0.00000000000E+00 -0.00000000000E+00 -0.25666748801E+03  0.25666748801E+03  0.00000000000E+00 0.  1.
          6    1    1    2  501    0  0.16774482844E+03  0.81327695969E+02 -0.88601991709E+02  0.26867607734E+03  0.17200000000E+03 0.  1.
         -6    1    1    2    0  502 -0.16774482844E+03 -0.81327695969E+02  0.12810315211E+03  0.28416005909E+03  0.17200000000E+03 0. -1.
<mgrwt>
<rscale>  2 0.25364645E+03</rscale>
<asrwt>0</asrwt>
<pdfrwt beam="1">  1       21 0.74042162E-01 0.25364645E+03</pdfrwt>
<pdfrwt beam="2">  1       21 0.64166872E-01 0.25364645E+03</pdfrwt>
<totfact> 0.35060882E+03</totfact>
</mgrwt>
</event>
<event>
 4    1  0.1115666E+000  0.2226292E+03  0.7546771E-02  0.1131938E+00
         21   -1    0    0  503  502  0.00000000000E+00  0.00000000000E+00  0.31346550822E+03  0.31346550822E+03  0.00000000000E+00 0. -1.
         21   -1    0    0  501  503 -0.00000000000E+00 -0.00000000000E+00 -0.62433345503E+03  0.62433345503E+03  0.00000000000E+00 0. -1.
          6    1    1    2  501    0 -0.13252153684E+03  0.49171363674E+02 -0.56063068217E+03  0.60321682878E+03  0.17200000000E+03 0. -1.
         -6    1    1    2    0  502  0.13252153684E+03 -0.49171363674E+02  0.24976273536E+03  0.33458213447E+03  0.17200000000E+03 0. -1.
<mgrwt>
<rscale>  2 0.22262925E+03</rscale>
<asrwt>0</asrwt>
<pdfrwt beam="1">  1       21 0.78366378E-01 0.22262925E+03</pdfrwt>
<pdfrwt beam="2">  1       21 0.15608336E+00 0.22262925E+03</pdfrwt>
<totfact> 0.37477873E+02</totfact>
</mgrwt>
</event>
<event>
 4    1  0.1115666E+000  0.2265775E+03  0.7546771E-02  0.1129072E+00
         21   -1    0    0  501  502  0.00000000000E+00  0.00000000000E+00  0.30908420824E+03  0.30908420824E+03  0.00000000000E+00 0. -1.
         21   -1    0    0  502  503 -0.00000000000E+00 -0.00000000000E+00 -0.16770195970E+03  0.16770195970E+03  0.00000000000E+00 0. -1.
          6    1    1    2  501    0  0.10225533377E+03  0.10628828242E+03  0.94026908436E+02  0.24531288546E+03  0.17200000000E+03 0. -1.
         -6    1    1    2    0  503 -0.10225533377E+03 -0.10628828242E+03  0.47355340102E+02  0.23147328248E+03  0.17200000000E+03 0. -1.
<mgrwt>
<rscale>  2 0.22657748E+03</rscale>
<asrwt>0</asrwt>
<pdfrwt beam="1">  1       21 0.77271051E-01 0.22657748E+03</pdfrwt>
<pdfrwt beam="2">  1       21 0.41925490E-01 0.22657748E+03</pdfrwt>
<totfact> 0.79559745E+03</totfact>
</mgrwt>
</event>
<event>
 4    1  0.1115666E+000  0.2438810E+03  0.7546771E-02  0.1117234E+00
         21   -1    0    0  501  502  0.00000000000E+00  0.00000000000E+00  0.33790308863E+03  0.33790308863E+03  0.00000000000E+00 0.  1.
         21   -1    0    0  502  503 -0.00000000000E+00 -0.00000000000E+00 -0.31150640698E+03  0.31150640698E+03  0.00000000000E+00 0.  1.
          6    1    1    2  501    0 -0.11735352348E+03  0.12697273976E+03  0.22734038562E+03  0.33340902364E+03  0.17200000000E+03 0.  1.
         -6    1    1    2    0  503  0.11735352348E+03 -0.12697273976E+03 -0.20094370397E+03  0.31600047196E+03  0.17200000000E+03 0.  1.
<mgrwt>
<rscale>  2 0.24388097E+03</rscale>
<asrwt>0</asrwt>
<pdfrwt beam="1">  1       21 0.84475772E-01 0.24388097E+03</pdfrwt>
<pdfrwt beam="2">  1       21 0.77876602E-01 0.24388097E+03</pdfrwt>
<totfact> 0.17009755E+03</totfact>
</mgrwt>
</event>
<event>
 4    1  0.1115666E+000  0.1780340E+03  0.7546771E-02  0.1169719E+00
         21   -1    0    0  503  502  0.00000000000E+00  0.00000000000E+00  0.24332121924E+03  0.24332121924E+03  0.00000000000E+00 0.  1.
         21   -1    0    0  501  503 -0.00000000000E+00 -0.00000000000E+00 -0.24652917549E+03  0.24652917549E+03  0.00000000000E+00 0.  1.
          6    1    1    2  501    0  0.16886183448E+02 -0.42743175136E+02  0.16659492398E+03  0.24382368816E+03  0.17200000000E+03 0.  1.
         -6    1    1    2    0  502 -0.16886183448E+02  0.42743175136E+02 -0.16980288023E+03  0.24602670657E+03  0.17200000000E+03 0.  1.
<mgrwt>
<rscale>  2 0.17803405E+03</rscale>
<asrwt>0</asrwt>
<pdfrwt beam="1">  1       21 0.60830305E-01 0.17803405E+03</pdfrwt>
<pdfrwt beam="2">  1       21 0.61632294E-01 0.17803405E+03</pdfrwt>
<totfact> 0.62221059E+03</totfact>
</mgrwt>
</event>
<event>
 4    1  0.1115666E+000  0.3138262E+03  0.7546771E-02  0.1078526E+00
         21   -1    0    0  503  502  0.00000000000E+00  0.00000000000E+00  0.13644590197E+03  0.13644590197E+03  0.00000000000E+00 0. -1.
         21   -1    0    0  501  503 -0.00000000000E+00 -0.00000000000E+00 -0.10947765627E+04  0.10947765627E+04  0.00000000000E+00 0.  1.
          6    1    1    2  501    0  0.50239256175E+01  0.26244551259E+03 -0.83848712375E+03  0.89529187620E+03  0.17200000000E+03 0.  1.
         -6    1    1    2    0  502 -0.50239256175E+01 -0.26244551259E+03 -0.11984353698E+03  0.33593058846E+03  0.17200000000E+03 0. -1.
<mgrwt>
<rscale>  2 0.31382620E+03</rscale>
<asrwt>0</asrwt>
<pdfrwt beam="1">  1       21 0.34111476E-01 0.31382620E+03</pdfrwt>
<pdfrwt beam="2">  1       21 0.27369414E+00 0.31382620E+03</pdfrwt>
<totfact> 0.35106242E+02</totfact>
</mgrwt>
</event>
<event>
 4    1  0.1115666E+000  0.1890946E+03  0.7546771E-02  0.1159281E+00
         21   -1    0    0  501  502  0.00000000000E+00  0.00000000000E+00  0.37552697723E+03  0.37552697723E+03  0.00000000000E+00 0. -1.
         21   -1    0    0  502  503 -0.00000000000E+00 -0.00000000000E+00 -0.11634904481E+03  0.11634904481E+03  0.00000000000E+00 0. -1.
          6    1    1    2  501    0 -0.78484010098E+02  0.36076233740E+01  0.23440059331E+03  0.30116505928E+03  0.17200000000E+03 0. -1.
         -6    1    1    2    0  503  0.78484010098E+02 -0.36076233740E+01  0.24777339115E+02  0.19071096277E+03  0.17200000000E+03 0. -1.
<mgrwt>
<rscale>  2 0.18909457E+03</rscale>
<asrwt>0</asrwt>
<pdfrwt beam="1">  1       21 0.93881742E-01 0.18909457E+03</pdfrwt>
<pdfrwt beam="2">  1       21 0.29087262E-01 0.18909457E+03</pdfrwt>
<totfact> 0.10803831E+04</totfact>
</mgrwt>
</event>
<event>
 4    1  0.1115666E+000  0.1945279E+03  0.7546771E-02  0.1154440E+00
         21   -1    0    0  503  502  0.00000000000E+00  0.00000000000E+00  0.27240705836E+03  0.27240705836E+03  0.00000000000E+00 0. -1.
         21   -1    0    0  501  503 -0.00000000000E+00 -0.00000000000E+00 -0.22290115146E+03  0.22290115146E+03  0.00000000000E+00 0.  1.
          6    1    1    2  501    0 -0.80060022495E+02 -0.42982304897E+02 -0.12726554893E+03  0.23245990123E+03  0.17200000000E+03 0. -1.
         -6    1    1    2    0  502  0.80060022495E+02  0.42982304897E+02  0.17677145582E+03  0.26284830859E+03  0.17200000000E+03 0. -1.
<mgrwt>
<rscale>  2 0.19452785E+03</rscale>
<asrwt>0</asrwt>
<pdfrwt beam="1">  1       21 0.68101764E-01 0.19452785E+03</pdfrwt>
<pdfrwt beam="2">  1       21 0.55725288E-01 0.19452785E+03</pdfrwt>
<totfact> 0.59635941E+03</totfact>
</mgrwt>
</event>
<event>
 4    1  0.1115666E+000  0.2812487E+03  0.7546771E-02  0.1095009E+00
         21   -1    0    0  503  502  0.00000000000E+00  0.00000000000E+00  0.13047397105E+04  0.13047397105E+04  0.00000000000E+00 0.  1.
         21   -1    0    0  501  503 -0.00000000000E+00 -0.00000000000E+00 -0.12750496764E+03  0.12750496764E+03  0.00000000000E+00 0.  1.
          6    1    1    2  501    0  0.22221277224E+03  0.11760955037E+02  0.69973525277E+02  0.28982258444E+03  0.17200000000E+03 0.  1.
         -6    1    1    2    0  502 -0.22221277224E+03 -0.11760955037E+02  0.11072612176E+04  0.11424220937E+04  0.17200000000E+03 0.  1.
<mgrwt>
<rscale>  2 0.28124871E+03</rscale>
<asrwt>0</asrwt>
<pdfrwt beam="1">  1       21 0.32618489E+00 0.28124871E+03</pdfrwt>
<pdfrwt beam="2">  1       21 0.31876246E-01 0.28124871E+03</pdfrwt>
<totfact> 0.20294883E+02</totfact>
</mgrwt>
</event>
<event>
 4    1  0.1115666E+000  0.1937601E+03  0.7546771E-02  0.1155113E+00
         21   -1    0    0  503  502  0.00000000000E+00  0.00000000000E+00  0.39396684528E+03  0.39396684528E+03  0.00000000000E+00 0.  1.
         21   -1    0    0  501  503 -0.00000000000E+00 -0.00000000000E+00 -0.89704349896E+03  0.89704349896E+03  0.00000000000E+00 0.  1.
          6    1    1    2  501    0  0.86462884119E+02 -0.21981016291E+02 -0.86179439171E+03  0.88330774309E+03  0.17200000000E+03 0.  1.
         -6    1    1    2    0  502 -0.86462884119E+02  0.21981016291E+02  0.35871773804E+03  0.40770260116E+03  0.17200000000E+03 0.  1.
<mgrwt>
<rscale>  2 0.19376015E+03</rscale>
<asrwt>0</asrwt>
<pdfrwt beam="1">  1       21 0.98491712E-01 0.19376015E+03</pdfrwt>
<pdfrwt beam="2">  1       21 0.22426087E+00 0.19376015E+03</pdfrwt>
<totfact> 0.80492244E+01</totfact>
</mgrwt>
</event>
<event>
 4    1  0.1115666E+000  0.1957694E+03  0.7546771E-02  0.1153358E+00
         21   -1    0    0  501  502  0.00000000000E+00  0.00000000000E+00  0.47804603434E+03  0.47804603434E+03  0.00000000000E+00 0. -1.
         21   -1    0    0  502  503 -0.00000000000E+00 -0.00000000000E+00 -0.44811747613E+03  0.44811747613E+03  0.00000000000E+00 0.  1.
          6    1    1    2  501    0  0.87441650166E+02 -0.33099935663E+02  0.43458196400E+03  0.47664151242E+03  0.17200000000E+03 0. -1.
         -6    1    1    2    0  503 -0.87441650166E+02  0.33099935663E+02 -0.40465340578E+03  0.44952199806E+03  0.17200000000E+03 0.  1.
<mgrwt>
<rscale>  2 0.19576937E+03</rscale>
<asrwt>0</asrwt>
<pdfrwt beam="1">  1       21 0.11951151E+00 0.19576937E+03</pdfrwt>
<pdfrwt beam="2">  1       21 0.11202937E+00 0.19576937E+03</pdfrwt>
<totfact> 0.33209423E+02</totfact>
</mgrwt>
</event>
<event>
 4    1  0.1115666E+000  0.1937027E+03  0.7546771E-02  0.1155164E+00
         21   -1    0    0  501  502  0.00000000000E+00  0.00000000000E+00  0.35467585604E+02  0.35467585604E+02  0.00000000000E+00 0. -1.
         21   -1    0    0  502  503 -0.00000000000E+00 -0.00000000000E+00 -0.18755792263E+04  0.18755792263E+04  0.00000000000E+00 0. -1.
          6    1    1    2  501    0 -0.51458239959E+02  0.72724037008E+02 -0.28914457166E+03  0.34803062989E+03  0.17200000000E+03 0. -1.
         -6    1    1    2    0  503  0.51458239959E+02 -0.72724037008E+02 -0.15509670690E+04  0.15630161820E+04  0.17200000000E+03 0. -1.
<mgrwt>
<rscale>  2 0.19370270E+03</rscale>
<asrwt>0</asrwt>
<pdfrwt beam="1">  1       21 0.88668965E-02 0.19370270E+03</pdfrwt>
<pdfrwt beam="2">  1       21 0.46889480E+00 0.19370270E+03</pdfrwt>
<totfact> 0.31097978E+02</totfact>
</mgrwt>
</event>
<event>
 4    1  0.1115666E+000  0.2969110E+03  0.7546771E-02  0.1086795E+00
         21   -1    0    0  503  502  0.00000000000E+00  0.00000000000E+00  0.82642396988E+03  0.82642396988E+03  0.00000000000E+00 0.  1.
         21   -1    0    0  501  503 -0.00000000000E+00 -0.00000000000E+00 -0.62154846388E+03  0.62154846388E+03  0.00000000000E+00 0.  1.
          6    1    1    2  501    0 -0.96559756172E+02 -0.22191976456E+03 -0.55649999206E+03  0.63075225690E+03  0.17200000000E+03 0.  1.
         -6    1    1    2    0  502  0.96559756172E+02  0.22191976456E+03  0.76137549806E+03  0.81722017686E+03  0.17200000000E+03 0.  1.
<mgrwt>
<rscale>  2 0.29691104E+03</rscale>
<asrwt>0</asrwt>
<pdfrwt beam="1">  1       21 0.20660599E+00 0.29691104E+03</pdfrwt>
<pdfrwt beam="2">  1       21 0.15538712E+00 0.29691104E+03</pdfrwt>
<totfact> 0.28902859E+01</totfact>
</mgrwt>
</event>
<event>
 4    1  0.1115666E+000  0.1925419E+03  0.7546771E-02  0.1156188E+00
         21   -1    0    0  503  502  0.00000000000E+00  0.00000000000E+00  0.15891566003E+03  0.15891566003E+03  0.00000000000E+00 0.  1.
         21   -1    0    0  501  503 -0.00000000000E+00 -0.00000000000E+00 -0.26467390698E+03  0.26467390698E+03  0.00000000000E+00 0.  1.
          6    1    1    2  501    0 -0.60811781826E+02  0.61565600188E+02 -0.12581788842E+03  0.23000551511E+03  0.17200000000E+03 0.  1.
         -6    1    1    2    0  502  0.60811781826E+02 -0.61565600188E+02  0.20059641476E+02  0.19358405190E+03  0.17200000000E+03 0.  1.
<mgrwt>
<rscale>  2 0.19254193E+03</rscale>
<asrwt>0</asrwt>
<pdfrwt beam="1">  1       21 0.39728915E-01 0.19254193E+03</pdfrwt>
<pdfrwt beam="2">  1       21 0.66168476E-01 0.19254193E+03</pdfrwt>
<totfact> 0.12804516E+04</totfact>
</mgrwt>
</event>
<event>
 4    1  0.1115666E+000  0.2286669E+03  0.7546771E-02  0.1127582E+00
         21   -1    0    0  503  502  0.00000000000E+00  0.00000000000E+00  0.92962779983E+03  0.92962779983E+03  0.00000000000E+00 0. -1.
         21   -1    0    0  501  503 -0.00000000000E+00 -0.00000000000E+00 -0.74309824692E+02  0.74309824692E+02  0.00000000000E+00 0. -1.
          6    1    1    2  501    0 -0.92571332122E+02 -0.11889108610E+03  0.18017365640E+03  0.29112040180E+03  0.17200000000E+03 0. -1.
         -6    1    1    2    0  502  0.92571332122E+02  0.11889108610E+03  0.67514431874E+03  0.71281722273E+03  0.17200000000E+03 0. -1.
<mgrwt>
<rscale>  2 0.22866688E+03</rscale>
<asrwt>0</asrwt>
<pdfrwt beam="1">  1       21 0.23240691E+00 0.22866688E+03</pdfrwt>
<pdfrwt beam="2">  1       21 0.18577459E-01 0.22866688E+03</pdfrwt>
<totfact> 0.21584804E+03</totfact>
</mgrwt>
</event>
<event>
 4    1  0.1115666E+000  0.3532574E+03  0.7546771E-02  0.1061286E+00
         21   -1    0    0  503  502  0.00000000000E+00  0.00000000000E+00  0.99371665270E+03  0.99371665270E+03  0.00000000000E+00 0.  1.
         21   -1    0    0  501  503 -0.00000000000E+00 -0.00000000000E+00 -0.15623366855E+03  0.15623366855E+03  0.00000000000E+00 0. -1.
          6    1    1    2  501    0  0.18758884186E+03 -0.24498404679E+03  0.67342702905E+03  0.76045691543E+03  0.17200000000E+03 0.  1.
         -6    1    1    2    0  502 -0.18758884186E+03  0.24498404679E+03  0.16405595510E+03  0.38949340581E+03  0.17200000000E+03 0. -1.
<mgrwt>
<rscale>  2 0.35325735E+03</rscale>
<asrwt>0</asrwt>
<pdfrwt beam="1">  1       21 0.24842915E+00 0.35325735E+03</pdfrwt>
<pdfrwt beam="2">  1       21 0.39058420E-01 0.35325735E+03</pdfrwt>
<totfact> 0.36713038E+02</totfact>
</mgrwt>
</event>
<event>
 4    1  0.1115666E+000  0.1734757E+03  0.7546771E-02  0.1174271E+00
         21   -1    0    0  503  502  0.00000000000E+00  0.00000000000E+00  0.40513554434E+03  0.40513554434E+03  0.00000000000E+00 0. -1.
         21   -1    0    0  501  503 -0.00000000000E+00 -0.00000000000E+00 -0.27243801882E+03  0.27243801882E+03  0.00000000000E+00 0. -1.
          6    1    1    2  501    0  0.22224925555E+02 -0.39831366183E+01 -0.22258446849E+03  0.28220144987E+03  0.17200000000E+03 0. -1.
         -6    1    1    2    0  502 -0.22224925555E+02  0.39831366183E+01  0.35528199402E+03  0.39537211329E+03  0.17200000000E+03 0. -1.
<mgrwt>
<rscale>  2 0.17347568E+03</rscale>
<asrwt>0</asrwt>
<pdfrwt beam="1">  1       21 0.10128389E+00 0.17347568E+03</pdfrwt>
<pdfrwt beam="2">  1       21 0.68109505E-01 0.17347568E+03</pdfrwt>
<totfact> 0.15971096E+03</totfact>
</mgrwt>
</event>
<event>
 4    1  0.1115666E+000  0.2393257E+03  0.7546771E-02  0.1120243E+00
         21   -1    0    0  503  502  0.00000000000E+00  0.00000000000E+00  0.74074956413E+02  0.74074956413E+02  0.00000000000E+00 0. -1.
         21   -1    0    0  501  503 -0.00000000000E+00 -0.00000000000E+00 -0.11833226402E+04  0.11833226402E+04  0.00000000000E+00 0.  1.
          6    1    1    2  501    0 -0.16632105667E+03 -0.54860958886E+01 -0.92473601598E+03  0.95520337645E+03  0.17200000000E+03 0.  1.
         -6    1    1    2    0  502  0.16632105667E+03  0.54860958886E+01 -0.18451166780E+03  0.30219422015E+03  0.17200000000E+03 0. -1.
<mgrwt>
<rscale>  2 0.23932570E+03</rscale>
<asrwt>0</asrwt>
<pdfrwt beam="1">  1       21 0.18518739E-01 0.23932570E+03</pdfrwt>
<pdfrwt beam="2">  1       21 0.29583066E+00 0.23932570E+03</pdfrwt>
<totfact> 0.90758787E+02</totfact>
</mgrwt>
</event>
<event>
 4    1  0.1115666E+000  0.2328670E+03  0.7546771E-02  0.1124638E+00
         21   -1    0    0  503  502  0.00000000000E+00  0.00000000000E+00  0.12823581211E+03  0.12823581211E+03  0.00000000000E+00 0.  1.
         21   -1    0    0  501  503 -0.00000000000E+00 -0.00000000000E+00 -0.49183139197E+03  0.49183139197E+03  0.00000000000E+00 0.  1.
          6    1    1    2  501    0 -0.12578785309E+03 -0.93917205800E+02 -0.29789049701E+03  0.37810815085E+03  0.17200000000E+03 0.  1.
         -6    1    1    2    0  502  0.12578785309E+03  0.93917205800E+02 -0.65705082848E+02  0.24195905323E+03  0.17200000000E+03 0.  1.
<mgrwt>
<rscale>  2 0.23286697E+03</rscale>
<asrwt>0</asrwt>
<pdfrwt beam="1">  1       21 0.32058953E-01 0.23286697E+03</pdfrwt>
<pdfrwt beam="2">  1       21 0.12295785E+00 0.23286697E+03</pdfrwt>
<totfact> 0.45094661E+03</totfact>
</mgrwt>
</event>
<event>
 4    1  0.1115666E+000  0.1811939E+03  0.7546771E-02  0.1166653E+00
         21   -1    0    0  503  502  0.00000000000E+00  0.00000000000E+00  0.69140758407E+03  0.69140758407E+03  0.00000000000E+00 0.  1.
         21   -1    0    0  501  503 -0.00000000000E+00 -0.00000000000E+00 -0.50510722762E+02  0.50510722762E+02  0.00000000000E+00 0.  1.
          6    1    1    2  501    0  0.48603299501E+02  0.29748081475E+02  0.22965051936E+03  0.29252451199E+03  0.17200000000E+03 0.  1.
         -6    1    1    2    0  502 -0.48603299501E+02 -0.29748081475E+02  0.41124634195E+03  0.44939379484E+03  0.17200000000E+03 0.  1.
<mgrwt>
<rscale>  2 0.18119390E+03</rscale>
<asrwt>0</asrwt>
<pdfrwt beam="1">  1       21 0.17285187E+00 0.18119390E+03</pdfrwt>
<pdfrwt beam="2">  1       21 0.12627683E-01 0.18119390E+03</pdfrwt>
<totfact> 0.11014705E+04</totfact>
</mgrwt>
</event>
<event>
 4    1  0.1115666E+000  0.1884463E+03  0.7546771E-02  0.1159870E+00
         21   -1    0    0  501  502  0.00000000000E+00  0.00000000000E+00  0.96998253149E+03  0.96998253149E+03  0.00000000000E+00 0.  1.
         21   -1    0    0  502  503 -0.00000000000E+00 -0.00000000000E+00 -0.31689783551E+03  0.31689783551E+03  0.00000000000E+00 0.  1.
          6    1    1    2  501    0  0.37457421775E+01 -0.76902412700E+02  0.93167405374E+03  0.95054119010E+03  0.17200000000E+03 0.  1.
         -6    1    1    2    0  503 -0.37457421775E+01  0.76902412700E+02 -0.27858935776E+03  0.33633917690E+03  0.17200000000E+03 0.  1.
<mgrwt>
<rscale>  2 0.18844631E+03</rscale>
<asrwt>0</asrwt>
<pdfrwt beam="1">  1       21 0.24249563E+00 0.18844631E+03</pdfrwt>
<pdfrwt beam="2">  1       21 0.79224461E-01 0.18844631E+03</pdfrwt>
<totfact> 0.10420100E+02</totfact>
</mgrwt>
</event>
<event>
 4    1  0.1115666E+000  0.2134907E+03  0.7546771E-02  0.1138831E+00
         21   -1    0    0  501  502  0.00000000000E+00  0.00000000000E+00  0.85331772808E+02  0.85331772808E+02  0.00000000000E+00 0.  1.
         21   -1    0    0  502  503 -0.00000000000E+00 -0.00000000000E+00 -0.88168072594E+03  0.88168072594E+03  0.00000000000E+00 0. -1.
          6    1    1    2  501    0  0.12510866496E+03  0.18496098808E+02 -0.94606928227E+02  0.23351392804E+03  0.17200000000E+03 0.  1.
         -6    1    1    2    0  503 -0.12510866496E+03 -0.18496098808E+02 -0.70174202491E+03  0.73349857071E+03  0.17200000000E+03 0. -1.
<mgrwt>
<rscale>  2 0.21349071E+03</rscale>
<asrwt>0</asrwt>
<pdfrwt beam="1">  1       21 0.21332943E-01 0.21349071E+03</pdfrwt>
<pdfrwt beam="2">  1       21 0.22042018E+00 0.21349071E+03</pdfrwt>
<totfact> 0.20015143E+03</totfact>
</mgrwt>
</event>
<event>
 4    1  0.1115666E+000  0.2064913E+03  0.7546771E-02  0.1144375E+00
         21   -1    0    0  501  502  0.00000000000E+00  0.00000000000E+00  0.11217012903E+03  0.11217012903E+03  0.00000000000E+00 0.  1.
         21   -1    0    0  502  503 -0.00000000000E+00 -0.00000000000E+00 -0.59634762057E+03  0.59634762057E+03  0.00000000000E+00 0. -1.
          6    1    1    2  501    0 -0.89632143829E+02 -0.70857065382E+02 -0.28773554934E+02  0.20848636019E+03  0.17200000000E+03 0.  1.
         -6    1    1    2    0  503  0.89632143829E+02  0.70857065382E+02 -0.45540393661E+03  0.50003138941E+03  0.17200000000E+03 0. -1.
<mgrwt>
<rscale>  2 0.20649127E+03</rscale>
<asrwt>0</asrwt>
<pdfrwt beam="1">  1       21 0.28042533E-01 0.20649127E+03</pdfrwt>
<pdfrwt beam="2">  1       21 0.14908690E+00 0.20649127E+03</pdfrwt>
<totfact> 0.36456426E+03</totfact>
</mgrwt>
</event>
<event>
 4    1  0.1115666E+000  0.1885948E+03  0.7546771E-02  0.1159735E+00
         21   -1    0    0  501  502  0.00000000000E+00  0.00000000000E+00  0.14772739715E+03  0.14772739715E+03  0.00000000000E+00 0.  1.
         21   -1    0    0  502  503 -0.00000000000E+00 -0.00000000000E+00 -0.29637661512E+03  0.29637661512E+03  0.00000000000E+00 0.  1.
          6    1    1    2  501    0 -0.58677762017E+02 -0.50407608702E+02 -0.17050895290E+03  0.25424655315E+03  0.17200000000E+03 0.  1.
         -6    1    1    2    0  503  0.58677762017E+02  0.50407608702E+02  0.21859734926E+02  0.18985745911E+03  0.17200000000E+03 0.  1.
<mgrwt>
<rscale>  2 0.18859482E+03</rscale>
<asrwt>0</asrwt>
<pdfrwt beam="1">  1       21 0.36931850E-01 0.18859482E+03</pdfrwt>
<pdfrwt beam="2">  1       21 0.74094153E-01 0.18859482E+03</pdfrwt>
<totfact> 0.11582547E+04</totfact>
</mgrwt>
</event>
<event>
 4    1  0.1115666E+000  0.1888445E+03  0.7546771E-02  0.1159508E+00
         21   -1    0    0  503  502  0.00000000000E+00  0.00000000000E+00  0.32008153116E+02  0.32008153116E+02  0.00000000000E+00 0.  1.
         21   -1    0    0  501  503 -0.00000000000E+00 -0.00000000000E+00 -0.11149745242E+04  0.11149745242E+04  0.00000000000E+00 0. -1.
          6    1    1    2  501    0  0.76526932112E+02 -0.14896058326E+02 -0.55696585824E+03  0.58810988015E+03  0.17200000000E+03 0.  1.
         -6    1    1    2    0  502 -0.76526932112E+02  0.14896058326E+02 -0.52600051284E+03  0.55887279716E+03  0.17200000000E+03 0.  1.
<mgrwt>
<rscale>  2 0.18884455E+03</rscale>
<asrwt>0</asrwt>
<pdfrwt beam="1">  1       21 0.80020383E-02 0.18884455E+03</pdfrwt>
<pdfrwt beam="2">  1       21 0.27874363E+00 0.18884455E+03</pdfrwt>
<totfact> 0.54506599E+03</totfact>
</mgrwt>
</event>
<event>
 4    1  0.1115666E+000  0.1840895E+03  0.7546771E-02  0.1163903E+00
         21   -1    0    0  501  502  0.00000000000E+00  0.00000000000E+00  0.11956892593E+03  0.11956892593E+03  0.00000000000E+00 0. -1.
         21   -1    0    0  502  503 -0.00000000000E+00 -0.00000000000E+00 -0.48262899914E+03  0.48262899914E+03  0.00000000000E+00 0. -1.
          6    1    1    2  501    0  0.65315350568E+02  0.62316175121E+01  0.11911894668E+02  0.18447444623E+03  0.17200000000E+03 0. -1.
         -6    1    1    2    0  503 -0.65315350568E+02 -0.62316175121E+01 -0.37497196789E+03  0.41772347884E+03  0.17200000000E+03 0. -1.
<mgrwt>
<rscale>  2 0.18408946E+03</rscale>
<asrwt>0</asrwt>
<pdfrwt beam="1">  1       21 0.29892232E-01 0.18408946E+03</pdfrwt>
<pdfrwt beam="2">  1       21 0.12065725E+00 0.18408946E+03</pdfrwt>
<totfact> 0.56293141E+03</totfact>
</mgrwt>
</event>
<event>
 4    1  0.1115666E+000  0.1932229E+03  0.7546771E-02  0.1155586E+00
         21   -1    0    0  503  502  0.00000000000E+00  0.00000000000E+00  0.59318436676E+02  0.59318436676E+02  0.00000000000E+00 0.  1.
         21   -1    0    0  501  503 -0.00000000000E+00 -0.00000000000E+00 -0.86807120713E+03  0.86807120713E+03  0.00000000000E+00 0. -1.
          6    1    1    2  501    0 -0.52095503280E+02 -0.70972880713E+02 -0.16123798530E+03  0.25166004681E+03  0.17200000000E+03 0.  1.
         -6    1    1    2    0  502  0.52095503280E+02  0.70972880713E+02 -0.64751478515E+03  0.67572959699E+03  0.17200000000E+03 0. -1.
<mgrwt>
<rscale>  2 0.19322291E+03</rscale>
<asrwt>0</asrwt>
<pdfrwt beam="1">  1       21 0.14829609E-01 0.19322291E+03</pdfrwt>
<pdfrwt beam="2">  1       21 0.21701780E+00 0.19322291E+03</pdfrwt>
<totfact> 0.42009052E+03</totfact>
</mgrwt>
</event>
<event>
 4    1  0.1115666E+000  0.1869622E+03  0.7546771E-02  0.1161230E+00
         21   -1    0    0  501  502  0.00000000000E+00  0.00000000000E+00  0.82225745124E+03  0.82225745124E+03  0.00000000000E+00 0.  1.
         21   -1    0    0  502  503 -0.00000000000E+00 -0.00000000000E+00 -0.24965261981E+03  0.24965261981E+03  0.00000000000E+00 0. -1.
          6    1    1    2  501    0 -0.72161111136E+02  0.12791650302E+02  0.77449833721E+03  0.79674495707E+03  0.17200000000E+03 0.  1.
         -6    1    1    2    0  503  0.72161111136E+02 -0.12791650302E+02 -0.20189350577E+03  0.27516511398E+03  0.17200000000E+03 0. -1.
<mgrwt>
<rscale>  2 0.18696217E+03</rscale>
<asrwt>0</asrwt>
<pdfrwt beam="1">  1       21 0.20556436E+00 0.18696217E+03</pdfrwt>
<pdfrwt beam="2">  1       21 0.62413157E-01 0.18696217E+03</pdfrwt>
<totfact> 0.29676129E+02</totfact>
</mgrwt>
</event>
<event>
 4    1  0.1115666E+000  0.1758754E+03  0.7546771E-02  0.1171856E+00
         21   -1    0    0  501  502  0.00000000000E+00  0.00000000000E+00  0.35352966495E+03  0.35352966495E+03  0.00000000000E+00 0. -1.
         21   -1    0    0  502  503 -0.00000000000E+00 -0.00000000000E+00 -0.33064808194E+03  0.33064808194E+03  0.00000000000E+00 0. -1.
          6    1    1    2  501    0 -0.18439805585E+02  0.31750909780E+02  0.30479725457E+03  0.35189986232E+03  0.17200000000E+03 0. -1.
         -6    1    1    2    0  503  0.18439805585E+02 -0.31750909780E+02 -0.28191567156E+03  0.33227788457E+03  0.17200000000E+03 0. -1.
<mgrwt>
<rscale>  2 0.17587537E+03</rscale>
<asrwt>0</asrwt>
<pdfrwt beam="1">  1       21 0.88382416E-01 0.17587537E+03</pdfrwt>
<pdfrwt beam="2">  1       21 0.82662020E-01 0.17587537E+03</pdfrwt>
<totfact> 0.14224269E+03</totfact>
</mgrwt>
</event>
<event>
 4    1  0.1115666E+000  0.2646672E+03  0.7546771E-02  0.1104371E+00
         21   -1    0    0  501  502  0.00000000000E+00  0.00000000000E+00  0.33935132180E+03  0.33935132180E+03  0.00000000000E+00 0.  1.
         21   -1    0    0  502  503 -0.00000000000E+00 -0.00000000000E+00 -0.45491467470E+03  0.45491467470E+03  0.00000000000E+00 0. -1.
          6    1    1    2  501    0 -0.11777933419E+03 -0.16307282823E+03  0.23573312739E+03  0.35442746257E+03  0.17200000000E+03 0.  1.
         -6    1    1    2    0  503  0.11777933419E+03  0.16307282823E+03 -0.35129648030E+03  0.43983853394E+03  0.17200000000E+03 0.  1.
<mgrwt>
<rscale>  2 0.26466719E+03</rscale>
<asrwt>0</asrwt>
<pdfrwt beam="1">  1       21 0.84837831E-01 0.26466719E+03</pdfrwt>
<pdfrwt beam="2">  1       21 0.11372867E+00 0.26466719E+03</pdfrwt>
<totfact> 0.67843494E+02</totfact>
</mgrwt>
</event>
<event>
 4    1  0.1115666E+000  0.2207727E+03  0.7546771E-02  0.1133308E+00
         21   -1    0    0  501  502  0.00000000000E+00  0.00000000000E+00  0.17189589312E+03  0.17189589312E+03  0.00000000000E+00 0.  1.
         21   -1    0    0  502  503 -0.00000000000E+00 -0.00000000000E+00 -0.52662185554E+03  0.52662185554E+03  0.00000000000E+00 0. -1.
          6    1    1    2  501    0 -0.13429465338E+03 -0.33489323042E+02  0.59920718112E+02  0.22875987660E+03  0.17200000000E+03 0.  1.
         -6    1    1    2    0  503  0.13429465338E+03  0.33489323042E+02 -0.41464668053E+03  0.46975787206E+03  0.17200000000E+03 0. -1.
<mgrwt>
<rscale>  2 0.22077271E+03</rscale>
<asrwt>0</asrwt>
<pdfrwt beam="1">  1       21 0.42973974E-01 0.22077271E+03</pdfrwt>
<pdfrwt beam="2">  1       21 0.13165546E+00 0.22077271E+03</pdfrwt>
<totfact> 0.21262141E+03</totfact>
</mgrwt>
</event>
<event>
 4    1  0.1115666E+000  0.3725381E+03  0.7546771E-02  0.1053727E+00
         21   -1    0    0  503  502  0.00000000000E+00  0.00000000000E+00  0.99796243018E+03  0.99796243018E+03  0.00000000000E+00 0.  1.
         21   -1    0    0  501  503 -0.00000000000E+00 -0.00000000000E+00 -0.14104466492E+03  0.14104466492E+03  0.00000000000E+00 0.  1.
          6    1    1    2  501    0 -0.28049123392E+03  0.17471487690E+03  0.49587856328E+03  0.62022590242E+03  0.17200000000E+03 0.  1.
         -6    1    1    2    0  502  0.28049123392E+03 -0.17471487690E+03  0.36103920198E+03  0.51878119268E+03  0.17200000000E+03 0.  1.
<mgrwt>
<rscale>  2 0.37253808E+03</rscale>
<asrwt>0</asrwt>
<pdfrwt beam="1">  1       21 0.24949059E+00 0.37253808E+03</pdfrwt>
<pdfrwt beam="2">  1       21 0.35261169E-01 0.37253808E+03</pdfrwt>
<totfact> 0.43933123E+02</totfact>
</mgrwt>
</event>
<event>
 4    1  0.1115666E+000  0.1810425E+03  0.7546771E-02  0.1166798E+00
         21   -1    0    0  503  502  0.00000000000E+00  0.00000000000E+00  0.45256911787E+03  0.45256911787E+03  0.00000000000E+00 0.  1.
         21   -1    0    0  501  503 -0.00000000000E+00 -0.00000000000E+00 -0.16749729991E+03  0.16749729991E+03  0.00000000000E+00 0.  1.
          6    1    1    2  501    0  0.39074787754E+02  0.40811237736E+02 -0.91044257824E+02  0.20264612764E+03  0.17200000000E+03 0.  1.
         -6    1    1    2    0  502 -0.39074787754E+02 -0.40811237736E+02  0.37611607578E+03  0.41742029014E+03  0.17200000000E+03 0.  1.
<mgrwt>
<rscale>  2 0.18104253E+03</rscale>
<asrwt>0</asrwt>
<pdfrwt beam="1">  1       21 0.11314228E+00 0.18104253E+03</pdfrwt>
<pdfrwt beam="2">  1       21 0.41874326E-01 0.18104253E+03</pdfrwt>
<totfact> 0.33824305E+03</totfact>
</mgrwt>
</event>
<event>
 4    1  0.1115666E+000  0.2008718E+03  0.7546771E-02  0.1149006E+00
         21   -1    0    0  501  502  0.00000000000E+00  0.00000000000E+00  0.94752738317E+02  0.94752738317E+02  0.00000000000E+00 0. -1.
         21   -1    0    0  502  503 -0.00000000000E+00 -0.00000000000E+00 -0.45504572222E+03  0.45504572222E+03  0.00000000000E+00 0.  1.
          6    1    1    2  501    0 -0.69461891307E+02 -0.77074849034E+02 -0.11050284549E+03  0.22926047535E+03  0.17200000000E+03 0. -1.
         -6    1    1    2    0  503  0.69461891307E+02  0.77074849034E+02 -0.24979013842E+03  0.32053798519E+03  0.17200000000E+03 0.  1.
<mgrwt>
<rscale>  2 0.20087182E+03</rscale>
<asrwt>0</asrwt>
<pdfrwt beam="1">  1       21 0.23688185E-01 0.20087182E+03</pdfrwt>
<pdfrwt beam="2">  1       21 0.11376143E+00 0.20087182E+03</pdfrwt>
<totfact> 0.10043218E+04</totfact>
</mgrwt>
</event>
<event>
 4    1  0.1115666E+000  0.1729783E+03  0.7546771E-02  0.1174777E+00
         21   -1    0    0  503  502  0.00000000000E+00  0.00000000000E+00  0.73181948621E+02  0.73181948621E+02  0.00000000000E+00 0.  1.
         21   -1    0    0  501  503 -0.00000000000E+00 -0.00000000000E+00 -0.44165113026E+03  0.44165113026E+03  0.00000000000E+00 0.  1.
          6    1    1    2  501    0  0.39725828101E+01 -0.17936474533E+02 -0.11409788338E+03  0.20721926919E+03  0.17200000000E+03 0.  1.
         -6    1    1    2    0  502 -0.39725828101E+01  0.17936474533E+02 -0.25437129826E+03  0.30761380969E+03  0.17200000000E+03 0.  1.
<mgrwt>
<rscale>  2 0.17297832E+03</rscale>
<asrwt>0</asrwt>
<pdfrwt beam="1">  1       21 0.18295487E-01 0.17297832E+03</pdfrwt>
<pdfrwt beam="2">  1       21 0.11041278E+00 0.17297832E+03</pdfrwt>
<totfact> 0.17859889E+04</totfact>
</mgrwt>
</event>
<event>
 4    1  0.1115666E+000  0.1997706E+03  0.7546771E-02  0.1149933E+00
         21   -1    0    0  503  502  0.00000000000E+00  0.00000000000E+00  0.18795483093E+03  0.18795483093E+03  0.00000000000E+00 0. -1.
         21   -1    0    0  501  503 -0.00000000000E+00 -0.00000000000E+00 -0.54209696558E+03  0.54209696558E+03  0.00000000000E+00 0. -1.
          6    1    1    2  501    0 -0.82276815895E+02  0.59622255568E+02 -0.46177228843E+03  0.50313212395E+03  0.17200000000E+03 0. -1.
         -6    1    1    2    0  502  0.82276815895E+02 -0.59622255568E+02  0.10763015378E+03  0.22691967256E+03  0.17200000000E+03 0. -1.
<mgrwt>
<rscale>  2 0.19977059E+03</rscale>
<asrwt>0</asrwt>
<pdfrwt beam="1">  1       21 0.46988708E-01 0.19977059E+03</pdfrwt>
<pdfrwt beam="2">  1       21 0.13552424E+00 0.19977059E+03</pdfrwt>
<totfact> 0.16746693E+03</totfact>
</mgrwt>
</event>
<event>
 4    1  0.1115666E+000  0.1841711E+03  0.7546771E-02  0.1163826E+00
         21   -1    0    0  503  502  0.00000000000E+00  0.00000000000E+00  0.89469762830E+03  0.89469762830E+03  0.00000000000E+00 0. -1.
         21   -1    0    0  501  503 -0.00000000000E+00 -0.00000000000E+00 -0.24726974301E+03  0.24726974301E+03  0.00000000000E+00 0. -1.
          6    1    1    2  501    0 -0.61909520778E+02 -0.22410347452E+02 -0.20167824471E+03  0.27311742314E+03  0.17200000000E+03 0. -1.
         -6    1    1    2    0  502  0.61909520778E+02  0.22410347452E+02  0.84910612999E+03  0.86884994817E+03  0.17200000000E+03 0. -1.
<mgrwt>
<rscale>  2 0.18417115E+03</rscale>
<asrwt>0</asrwt>
<pdfrwt beam="1">  1       21 0.22367440E+00 0.18417115E+03</pdfrwt>
<pdfrwt beam="2">  1       21 0.61817438E-01 0.18417115E+03</pdfrwt>
<totfact> 0.23490683E+02</totfact>
</mgrwt>
</event>
<event>
 4    1  0.1115666E+000  0.1774399E+03  0.7546771E-02  0.1170304E+00
         21   -1    0    0  503  502  0.00000000000E+00  0.00000000000E+00  0.28075407726E+03  0.28075407726E+03  0.00000000000E+00 0.  1.
         21   -1    0    0  501  503 -0.00000000000E+00 -0.00000000000E+00 -0.34778000317E+03  0.34778000317E+03  0.00000000000E+00 0.  1.
          6    1    1    2  501    0  0.42553546155E+02  0.94932081985E+01 -0.29219556701E+03  0.34185256277E+03  0.17200000000E+03 0.  1.
         -6    1    1    2    0  502 -0.42553546155E+02 -0.94932081985E+01  0.22516964111E+03  0.28668151766E+03  0.17200000000E+03 0.  1.
<mgrwt>
<rscale>  2 0.17743992E+03</rscale>
<asrwt>0</asrwt>
<pdfrwt beam="1">  1       21 0.70188519E-01 0.17743992E+03</pdfrwt>
<pdfrwt beam="2">  1       21 0.86945001E-01 0.17743992E+03</pdfrwt>
<totfact> 0.21252839E+03</totfact>
</mgrwt>
</event>
<event>
 4    1  0.1115666E+000  0.2044391E+03  0.7546771E-02  0.1146047E+00
         21   -1    0    0  501  502  0.00000000000E+00  0.00000000000E+00  0.69304343445E+02  0.69304343445E+02  0.00000000000E+00 0. -1.
         21   -1    0    0  502  503 -0.00000000000E+00 -0.00000000000E+00 -0.67148993751E+03  0.67148993751E+03  0.00000000000E+00 0. -1.
          6    1    1    2  501    0  0.44698419758E+02  0.10106129290E+03 -0.18285920331E+03  0.27428602204E+03  0.17200000000E+03 0. -1.
         -6    1    1    2    0  503 -0.44698419758E+02 -0.10106129290E+03 -0.41932639075E+03  0.46650825891E+03  0.17200000000E+03 0. -1.
<mgrwt>
<rscale>  2 0.20443907E+03</rscale>
<asrwt>0</asrwt>
<pdfrwt beam="1">  1       21 0.17326086E-01 0.20443907E+03</pdfrwt>
<pdfrwt beam="2">  1       21 0.16787248E+00 0.20443907E+03</pdfrwt>
<totfact> 0.65894751E+03</totfact>
</mgrwt>
</event>
<event>
 4    1  0.1115666E+000  0.2654004E+03  0.7546771E-02  0.1103941E+00
         21   -1    0    0  503  502  0.00000000000E+00  0.00000000000E+00  0.12614155439E+03  0.12614155439E+03  0.00000000000E+00 0.  1.
         21   -1    0    0  501  503 -0.00000000000E+00 -0.00000000000E+00 -0.76100096357E+03  0.76100096357E+03  0.00000000000E+00 0.  1.
          6    1    1    2  501    0 -0.11797724481E+03  0.16411813748E+03 -0.54630134300E+03  0.60735702079E+03  0.17200000000E+03 0.  1.
         -6    1    1    2    0  502  0.11797724481E+03 -0.16411813748E+03 -0.88558066171E+02  0.27978549717E+03  0.17200000000E+03 0.  1.
<mgrwt>
<rscale>  2 0.26540044E+03</rscale>
<asrwt>0</asrwt>
<pdfrwt beam="1">  1       21 0.31535390E-01 0.26540044E+03</pdfrwt>
<pdfrwt beam="2">  1       21 0.19025024E+00 0.26540044E+03</pdfrwt>
<totfact> 0.14049368E+03</totfact>
</mgrwt>
</event>
<event>
 4    1  0.1115666E+000  0.2105562E+03  0.7546771E-02  0.1141126E+00
         21   -1    0    0  503  502  0.00000000000E+00  0.00000000000E+00  0.37140825349E+03  0.37140825349E+03  0.00000000000E+00 0. -1.
         21   -1    0    0  501  503 -0.00000000000E+00 -0.00000000000E+00 -0.11948811081E+03  0.11948811081E+03  0.00000000000E+00 0.  1.
          6    1    1    2  501    0 -0.89889430703E+02 -0.81668784220E+02  0.13377338861E+03  0.24945785128E+03  0.17200000000E+03 0. -1.
         -6    1    1    2    0  502  0.89889430703E+02  0.81668784220E+02  0.11814675407E+03  0.24143851301E+03  0.17200000000E+03 0. -1.
<mgrwt>
<rscale>  2 0.21055617E+03</rscale>
<asrwt>0</asrwt>
<pdfrwt beam="1">  1       21 0.92852061E-01 0.21055617E+03</pdfrwt>
<pdfrwt beam="2">  1       21 0.29872028E-01 0.21055617E+03</pdfrwt>
<totfact> 0.10371660E+04</totfact>
</mgrwt>
</event>
<event>
 4    1  0.1115666E+000  0.1845681E+03  0.7546771E-02  0.1163454E+00
         21   -1    0    0  501  502  0.00000000000E+00  0.00000000000E+00  0.50846843089E+02  0.50846843089E+02  0.00000000000E+00 0. -1.
         21   -1    0    0  502  503 -0.00000000000E+00 -0.00000000000E+00 -0.88752140649E+03  0.88752140649E+03  0.00000000000E+00 0. -1.
          6    1    1    2  501    0  0.65580942430E+02 -0.13435537526E+02 -0.65063469523E+03  0.67630679452E+03  0.17200000000E+03 0. -1.
         -6    1    1    2    0  503 -0.65580942430E+02  0.13435537526E+02 -0.18603986817E+03  0.26206145506E+03  0.17200000000E+03 0. -1.
<mgrwt>
<rscale>  2 0.18456807E+03</rscale>
<asrwt>0</asrwt>
<pdfrwt beam="1">  1       21 0.12711711E-01 0.18456807E+03</pdfrwt>
<pdfrwt beam="2">  1       21 0.22188035E+00 0.18456807E+03</pdfrwt>
<totfact> 0.52259581E+03</totfact>
</mgrwt>
</event>
<event>
 4    1  0.1115666E+000  0.3219462E+03  0.7546771E-02  0.1074757E+00
         21   -1    0    0  503  502  0.00000000000E+00  0.00000000000E+00  0.15564296419E+04  0.15564296419E+04  0.00000000000E+00 0.  1.
         21   -1    0    0  501  503 -0.00000000000E+00 -0.00000000000E+00 -0.76467800699E+02  0.76467800699E+02  0.00000000000E+00 0.  1.
          6    1    1    2  501    0 -0.24408196818E+03  0.12037169864E+03  0.44660460824E+03  0.55054975172E+03  0.17200000000E+03 0.  1.
         -6    1    1    2    0  502  0.24408196818E+03 -0.12037169864E+03  0.10333572330E+04  0.10823476909E+04  0.17200000000E+03 0.  1.
<mgrwt>
<rscale>  2 0.32194620E+03</rscale>
<asrwt>0</asrwt>
<pdfrwt beam="1">  1       21 0.38910731E+00 0.32194620E+03</pdfrwt>
<pdfrwt beam="2">  1       21 0.19116955E-01 0.32194620E+03</pdfrwt>
<totfact> 0.21637124E+02</totfact>
</mgrwt>
</event>
<event>
 4    1  0.1115666E+000  0.1896550E+03  0.7546771E-02  0.1158773E+00
         21   -1    0    0  503  502  0.00000000000E+00  0.00000000000E+00  0.28612716149E+03  0.28612716149E+03  0.00000000000E+00 0. -1.
         21   -1    0    0  501  503 -0.00000000000E+00 -0.00000000000E+00 -0.13354277806E+03  0.13354277806E+03  0.00000000000E+00 0. -1.
          6    1    1    2  501    0 -0.74847026930E+02  0.27981107857E+02  0.25472964400E+02  0.19135801983E+03  0.17200000000E+03 0. -1.
         -6    1    1    2    0  502  0.74847026930E+02 -0.27981107857E+02  0.12711141904E+03  0.22831191972E+03  0.17200000000E+03 0. -1.
<mgrwt>
<rscale>  2 0.18965500E+03</rscale>
<asrwt>0</asrwt>
<pdfrwt beam="1">  1       21 0.71531789E-01 0.18965500E+03</pdfrwt>
<pdfrwt beam="2">  1       21 0.33385695E-01 0.18965500E+03</pdfrwt>
<totfact> 0.15291374E+04</totfact>
</mgrwt>
</event>
<event>
 4    1  0.1115666E+000  0.2018512E+03  0.7546771E-02  0.1148186E+00
         21   -1    0    0  501  502  0.00000000000E+00  0.00000000000E+00  0.20643903560E+03  0.20643903560E+03  0.00000000000E+00 0.  1.
         21   -1    0    0  502  503 -0.00000000000E+00 -0.00000000000E+00 -0.19941158834E+03  0.19941158834E+03  0.00000000000E+00 0.  1.
          6    1    1    2  501    0  0.92686920886E+02  0.50685862828E+02 -0.17042070614E+02  0.20256938111E+03  0.17200000000E+03 0.  1.
         -6    1    1    2    0  503 -0.92686920886E+02 -0.50685862828E+02  0.24069517883E+02  0.20328124283E+03  0.17200000000E+03 0.  1.
<mgrwt>
<rscale>  2 0.20185124E+03</rscale>
<asrwt>0</asrwt>
<pdfrwt beam="1">  1       21 0.51609759E-01 0.20185124E+03</pdfrwt>
<pdfrwt beam="2">  1       21 0.49852897E-01 0.20185124E+03</pdfrwt>
<totfact> 0.13591038E+04</totfact>
</mgrwt>
</event>
<event>
 4    1  0.1115666E+000  0.1913128E+03  0.7546771E-02  0.1157283E+00
         21   -1    0    0  503  502  0.00000000000E+00  0.00000000000E+00  0.71341657891E+03  0.71341657891E+03  0.00000000000E+00 0.  1.
         21   -1    0    0  501  503 -0.00000000000E+00 -0.00000000000E+00 -0.73979341022E+02  0.73979341022E+02  0.00000000000E+00 0.  1.
          6    1    1    2  501    0  0.55681903473E+02  0.62578829061E+02  0.10175094156E+03  0.21668834378E+03  0.17200000000E+03 0.  1.
         -6    1    1    2    0  502 -0.55681903473E+02 -0.62578829061E+02  0.53768629632E+03  0.57070757615E+03  0.17200000000E+03 0.  1.
<mgrwt>
<rscale>  2 0.19131279E+03</rscale>
<asrwt>0</asrwt>
<pdfrwt beam="1">  1       21 0.17835412E+00 0.19131279E+03</pdfrwt>
<pdfrwt beam="2">  1       21 0.18494837E-01 0.19131279E+03</pdfrwt>
<totfact> 0.49919099E+03</totfact>
</mgrwt>
</event>
<event>
 4    1  0.1115666E+000  0.1894781E+03  0.7546771E-02  0.1158933E+00
         21   -1    0    0  503  502  0.00000000000E+00  0.00000000000E+00  0.78784214353E+02  0.78784214353E+02  0.00000000000E+00 0.  1.
         21   -1    0    0  501  503 -0.00000000000E+00 -0.00000000000E+00 -0.53473586004E+03  0.53473586004E+03  0.00000000000E+00 0.  1.
          6    1    1    2  501    0  0.79101136871E+02  0.78073666311E+01 -0.34591062258E+03  0.39440601370E+03  0.17200000000E+03 0.  1.
         -6    1    1    2    0  502 -0.79101136871E+02 -0.78073666311E+01 -0.11004102311E+03  0.21911406070E+03  0.17200000000E+03 0.  1.
<mgrwt>
<rscale>  2 0.18947809E+03</rscale>
<asrwt>0</asrwt>
<pdfrwt beam="1">  1       21 0.19696054E-01 0.18947809E+03</pdfrwt>
<pdfrwt beam="2">  1       21 0.13368396E+00 0.18947809E+03</pdfrwt>
<totfact> 0.95887160E+03</totfact>
</mgrwt>
</event>
<event>
 4    1  0.1115666E+000  0.1734188E+03  0.7546771E-02  0.1174329E+00
         21   -1    0    0  501  502  0.00000000000E+00  0.00000000000E+00  0.66529808081E+02  0.66529808081E+02  0.00000000000E+00 0. -1.
         21   -1    0    0  502  503 -0.00000000000E+00 -0.00000000000E+00 -0.48977531293E+03  0.48977531293E+03  0.00000000000E+00 0. -1.
          6    1    1    2  501    0  0.60329860390E+01  0.21300173614E+02 -0.13441479457E+03  0.21941155693E+03  0.17200000000E+03 0.  1.
         -6    1    1    2    0  503 -0.60329860390E+01 -0.21300173614E+02 -0.28883071028E+03  0.33689356408E+03  0.17200000000E+03 0.  1.
<mgrwt>
<rscale>  2 0.17341884E+03</rscale>
<asrwt>0</asrwt>
<pdfrwt beam="1">  1       21 0.16632452E-01 0.17341884E+03</pdfrwt>
<pdfrwt beam="2">  1       21 0.12244383E+00 0.17341884E+03</pdfrwt>
<totfact> 0.16525510E+04</totfact>
</mgrwt>
</event>
<event>
 4    1  0.1115666E+000  0.2661487E+03  0.7546771E-02  0.1103504E+00
         21   -1    0    0  503  502  0.00000000000E+00  0.00000000000E+00  0.69267048619E+03  0.69267048619E+03  0.00000000000E+00 0. -1.
         21   -1    0    0  501  503 -0.00000000000E+00 -0.00000000000E+00 -0.11382235182E+03  0.11382235182E+03  0.00000000000E+00 0.  1.
          6    1    1    2  501    0 -0.61955235854E+02  0.19342353502E+03  0.16092248380E+03  0.31101633549E+03  0.17200000000E+03 0.  1.
         -6    1    1    2    0  502  0.61955235854E+02 -0.19342353502E+03  0.41792565056E+03  0.49547650252E+03  0.17200000000E+03 0. -1.
<mgrwt>
<rscale>  2 0.26614867E+03</rscale>
<asrwt>0</asrwt>
<pdfrwt beam="1">  1       21 0.17316761E+00 0.26614867E+03</pdfrwt>
<pdfrwt beam="2">  1       21 0.28455590E-01 0.26614867E+03</pdfrwt>
<totfact> 0.22508094E+03</totfact>
</mgrwt>
</event>
<event>
 4    1  0.1115666E+000  0.1826838E+03  0.7546771E-02  0.1165231E+00
         21   -1    0    0  501  502  0.00000000000E+00  0.00000000000E+00  0.16095984317E+03  0.16095984317E+03  0.00000000000E+00 0. -1.
         21   -1    0    0  502  503 -0.00000000000E+00 -0.00000000000E+00 -0.40504096997E+03  0.40504096997E+03  0.00000000000E+00 0.  1.
          6    1    1    2  501    0 -0.54150056068E+02  0.29277269154E+02  0.75675595784E+02  0.19773766171E+03  0.17200000000E+03 0. -1.
         -6    1    1    2    0  503  0.54150056068E+02 -0.29277269154E+02 -0.31975672258E+03  0.36826315143E+03  0.17200000000E+03 0.  1.
<mgrwt>
<rscale>  2 0.18268384E+03</rscale>
<asrwt>0</asrwt>
<pdfrwt beam="1">  1       21 0.40239961E-01 0.18268384E+03</pdfrwt>
<pdfrwt beam="2">  1       21 0.10126024E+00 0.18268384E+03</pdfrwt>
<totfact> 0.47805512E+03</totfact>
</mgrwt>
</event>
<event>
 4    1  0.1115666E+000  0.2308601E+03  0.7546771E-02  0.1126036E+00
         21   -1    0    0  503  502  0.00000000000E+00  0.00000000000E+00  0.90599430468E+02  0.90599430468E+02  0.00000000000E+00 0. -1.
         21   -1    0    0  501  503 -0.00000000000E+00 -0.00000000000E+00 -0.16161174771E+04  0.16161174771E+04  0.00000000000E+00 0. -1.
          6    1    1    2  501    0  0.11655684690E+03 -0.10063252479E+03 -0.14433098867E+04  0.14616565371E+04  0.17200000000E+03 0. -1.
         -6    1    1    2    0  502 -0.11655684690E+03  0.10063252479E+03 -0.82208160012E+02  0.24506037048E+03  0.17200000000E+03 0. -1.
<mgrwt>
<rscale>  2 0.23086014E+03</rscale>
<asrwt>0</asrwt>
<pdfrwt beam="1">  1       21 0.22649858E-01 0.23086014E+03</pdfrwt>
<pdfrwt beam="2">  1       21 0.40402936E+00 0.23086014E+03</pdfrwt>
<totfact> 0.14108995E+02</totfact>
</mgrwt>
</event>
<event>
 4    1  0.1115666E+000  0.2257084E+03  0.7546771E-02  0.1129697E+00
         21   -1    0    0  501  502  0.00000000000E+00  0.00000000000E+00  0.56290234475E+03  0.56290234475E+03  0.00000000000E+00 0. -1.
         21   -1    0    0  502  503 -0.00000000000E+00 -0.00000000000E+00 -0.21244398075E+03  0.21244398075E+03  0.00000000000E+00 0. -1.
          6    1    1    2  501    0  0.14559415353E+03 -0.12752716941E+02  0.46893906393E+03  0.52043072066E+03  0.17200000000E+03 0. -1.
         -6    1    1    2    0  503 -0.14559415353E+03  0.12752716941E+02 -0.11848069993E+03  0.25491560483E+03  0.17200000000E+03 0. -1.
<mgrwt>
<rscale>  2 0.22570842E+03</rscale>
<asrwt>0</asrwt>
<pdfrwt beam="1">  1       21 0.14072558E+00 0.22570842E+03</pdfrwt>
<pdfrwt beam="2">  1       21 0.53110996E-01 0.22570842E+03</pdfrwt>
<totfact> 0.11484786E+03</totfact>
</mgrwt>
</event>
<event>
 4    1  0.1115666E+000  0.2172999E+03  0.7546771E-02  0.1135912E+00
         21   -1    0    0  501  502  0.00000000000E+00  0.00000000000E+00  0.80865314245E+03  0.80865314245E+03  0.00000000000E+00 0. -1.
         21   -1    0    0  502  503 -0.00000000000E+00 -0.00000000000E+00 -0.81944731091E+02  0.81944731091E+02  0.00000000000E+00 0. -1.
          6    1    1    2  501    0 -0.81795503181E+02 -0.10461705664E+03  0.60208458574E+03  0.64009771228E+03  0.17200000000E+03 0. -1.
         -6    1    1    2    0  503  0.81795503181E+02  0.10461705664E+03  0.12462382562E+03  0.25050016126E+03  0.17200000000E+03 0. -1.
<mgrwt>
<rscale>  2 0.21729987E+03</rscale>
<asrwt>0</asrwt>
<pdfrwt beam="1">  1       21 0.20216326E+00 0.21729987E+03</pdfrwt>
<pdfrwt beam="2">  1       21 0.20486185E-01 0.21729987E+03</pdfrwt>
<totfact> 0.28029482E+03</totfact>
</mgrwt>
</event>
<event>
 4    1  0.1115666E+000  0.1812385E+03  0.7546771E-02  0.1166610E+00
         21   -1    0    0  501  502  0.00000000000E+00  0.00000000000E+00  0.64655144577E+03  0.64655144577E+03  0.00000000000E+00 0.  1.
         21   -1    0    0  502  503 -0.00000000000E+00 -0.00000000000E+00 -0.99582089501E+02  0.99582089501E+02  0.00000000000E+00 0.  1.
          6    1    1    2  501    0  0.39479900793E+02  0.41288515861E+02  0.53458554240E+03  0.56447241407E+03  0.17200000000E+03 0.  1.
         -6    1    1    2    0  503 -0.39479900793E+02 -0.41288515861E+02  0.12383813871E+02  0.18166112120E+03  0.17200000000E+03 0.  1.
<mgrwt>
<rscale>  2 0.18123853E+03</rscale>
<asrwt>0</asrwt>
<pdfrwt beam="1">  1       21 0.16163785E+00 0.18123853E+03</pdfrwt>
<pdfrwt beam="2">  1       21 0.24895524E-01 0.18123853E+03</pdfrwt>
<totfact> 0.37778240E+03</totfact>
</mgrwt>
</event>
<event>
 4    1  0.1115666E+000  0.1828493E+03  0.7546771E-02  0.1165074E+00
         21   -1    0    0  503  502  0.00000000000E+00  0.00000000000E+00  0.60222076309E+02  0.60222076309E+02  0.00000000000E+00 0.  1.
         21   -1    0    0  501  503 -0.00000000000E+00 -0.00000000000E+00 -0.61986586087E+03  0.61986586087E+03  0.00000000000E+00 0.  1.
          6    1    1    2  501    0 -0.12788973342E+02  0.60714956262E+02 -0.38967279725E+03  0.43044018478E+03  0.17200000000E+03 0.  1.
         -6    1    1    2    0  502  0.12788973342E+02 -0.60714956262E+02 -0.16997098731E+03  0.24964775241E+03  0.17200000000E+03 0.  1.
<mgrwt>
<rscale>  2 0.18284929E+03</rscale>
<asrwt>0</asrwt>
<pdfrwt beam="1">  1       21 0.15055520E-01 0.18284929E+03</pdfrwt>
<pdfrwt beam="2">  1       21 0.15496646E+00 0.18284929E+03</pdfrwt>
<totfact> 0.10765694E+04</totfact>
</mgrwt>
</event>
<event>
 4    1  0.1115666E+000  0.2009157E+03  0.7546771E-02  0.1148969E+00
         21   -1    0    0  501  502  0.00000000000E+00  0.00000000000E+00  0.10690844220E+04  0.10690844220E+04  0.00000000000E+00 0.  1.
         21   -1    0    0  502  503 -0.00000000000E+00 -0.00000000000E+00 -0.42453137936E+02  0.42453137936E+02  0.00000000000E+00 0.  1.
          6    1    1    2  501    0 -0.10027904226E+03  0.26967328807E+02  0.69813013168E+03  0.72646596885E+03  0.17200000000E+03 0.  1.
         -6    1    1    2    0  503  0.10027904226E+03 -0.26967328807E+02  0.32850115237E+03  0.38507159107E+03  0.17200000000E+03 0.  1.
<mgrwt>
<rscale>  2 0.20091571E+03</rscale>
<asrwt>0</asrwt>
<pdfrwt beam="1">  1       21 0.26727102E+00 0.20091571E+03</pdfrwt>
<pdfrwt beam="2">  1       21 0.10613288E-01 0.20091571E+03</pdfrwt>
<totfact> 0.38154977E+03</totfact>
</mgrwt>
</event>
<event>
 4    1  0.1115666E+000  0.3076972E+03  0.7546771E-02  0.1081455E+00
         21   -1    0    0  501  502  0.00000000000E+00  0.00000000000E+00  0.20284010764E+03  0.20284010764E+03  0.00000000000E+00 0.  1.
         21   -1    0    0  502  503 -0.00000000000E+00 -0.00000000000E+00 -0.58589436297E+03  0.58589436297E+03  0.00000000000E+00 0. -1.
          6    1    1    2  501    0  0.21057066372E+03  0.14406094134E+03 -0.13694890142E+02  0.30800180073E+03  0.17200000000E+03 0.  1.
         -6    1    1    2    0  503 -0.21057066372E+03 -0.14406094134E+03 -0.36935936518E+03  0.48073266988E+03  0.17200000000E+03 0. -1.
<mgrwt>
<rscale>  2 0.30769719E+03</rscale>
<asrwt>0</asrwt>
<pdfrwt beam="1">  1       21 0.50710028E-01 0.30769719E+03</pdfrwt>
<pdfrwt beam="2">  1       21 0.14647359E+00 0.30769719E+03</pdfrwt>
<totfact> 0.10715448E+03</totfact>
</mgrwt>
</event>
<event>
 4    1  0.1115666E+000  0.1827660E+03  0.7546771E-02  0.1165153E+00
         21   -1    0    0  503  502  0.00000000000E+00  0.00000000000E+00  0.72289802306E+02  0.72289802306E+02  0.00000000000E+00 0.  1.
         21   -1    0    0  501  503 -0.00000000000E+00 -0.00000000000E+00 -0.46590868919E+03  0.46590868919E+03  0.00000000000E+00 0.  1.
          6    1    1    2  501    0  0.11852438504E+02 -0.60654170786E+02 -0.22121526689E+03  0.28694878121E+03  0.17200000000E+03 0.  1.
         -6    1    1    2    0  502 -0.11852438504E+02  0.60654170786E+02 -0.17240362000E+03  0.25124971029E+03  0.17200000000E+03 0.  1.
<mgrwt>
<rscale>  2 0.18276599E+03</rscale>
<asrwt>0</asrwt>
<pdfrwt beam="1">  1       21 0.18072451E-01 0.18276599E+03</pdfrwt>
<pdfrwt beam="2">  1       21 0.11647717E+00 0.18276599E+03</pdfrwt>
<totfact> 0.15940519E+04</totfact>
</mgrwt>
</event>
<event>
 4    1  0.1115666E+000  0.2033325E+03  0.7546771E-02  0.1146957E+00
         21   -1    0    0  503  502  0.00000000000E+00  0.00000000000E+00  0.14571612960E+04  0.14571612960E+04  0.00000000000E+00 0.  1.
         21   -1    0    0  501  503 -0.00000000000E+00 -0.00000000000E+00 -0.33431489591E+02  0.33431489591E+02  0.00000000000E+00 0.  1.
          6    1    1    2  501    0 -0.16638553582E+02  0.10715999250E+03  0.10017724910E+04  0.10221997012E+04  0.17200000000E+03 0.  1.
         -6    1    1    2    0  502  0.16638553582E+02 -0.10715999250E+03  0.42195731542E+03  0.46839308438E+03  0.17200000000E+03 0.  1.
<mgrwt>
<rscale>  2 0.20333250E+03</rscale>
<asrwt>0</asrwt>
<pdfrwt beam="1">  1       21 0.36429011E+00 0.20333250E+03</pdfrwt>
<pdfrwt beam="2">  1       21 0.83578773E-02 0.20333250E+03</pdfrwt>
<totfact> 0.15754986E+03</totfact>
</mgrwt>
</event>
<event>
 4    1  0.1115666E+000  0.2384516E+03  0.7546771E-02  0.1120829E+00
         21   -1    0    0  501  502  0.00000000000E+00  0.00000000000E+00  0.60052785376E+03  0.60052785376E+03  0.00000000000E+00 0. -1.
         21   -1    0    0  502  503 -0.00000000000E+00 -0.00000000000E+00 -0.10871123511E+03  0.10871123511E+03  0.00000000000E+00 0. -1.
          6    1    1    2  501    0 -0.17329192501E-01 -0.16515189069E+03  0.37330062941E+03  0.44295880984E+03  0.17200000000E+03 0. -1.
         -6    1    1    2    0  503  0.17329192501E-01  0.16515189069E+03  0.11851598924E+03  0.26628027903E+03  0.17200000000E+03 0. -1.
<mgrwt>
<rscale>  2 0.23845156E+03</rscale>
<asrwt>0</asrwt>
<pdfrwt beam="1">  1       21 0.15013195E+00 0.23845156E+03</pdfrwt>
<pdfrwt beam="2">  1       21 0.27177810E-01 0.23845156E+03</pdfrwt>
<totfact> 0.37080628E+03</totfact>
</mgrwt>
</event>
<event>
 4    1  0.1115666E+000  0.2022942E+03  0.7546771E-02  0.1147818E+00
         21   -1    0    0  501  502  0.00000000000E+00  0.00000000000E+00  0.32908840836E+03  0.32908840836E+03  0.00000000000E+00 0. -1.
         21   -1    0    0  502  503 -0.00000000000E+00 -0.00000000000E+00 -0.54637387252E+03  0.54637387252E+03  0.00000000000E+00 0.  1.
          6    1    1    2  501    0 -0.10648285656E+03 -0.58046542882E+00  0.27606397031E+03  0.34224881502E+03  0.17200000000E+03 0. -1.
         -6    1    1    2    0  503  0.10648285656E+03  0.58046542882E+00 -0.49334943447E+03  0.53321346586E+03  0.17200000000E+03 0.  1.
<mgrwt>
<rscale>  2 0.20229418E+03</rscale>
<asrwt>0</asrwt>
<pdfrwt beam="1">  1       21 0.82272102E-01 0.20229418E+03</pdfrwt>
<pdfrwt beam="2">  1       21 0.13659347E+00 0.20229418E+03</pdfrwt>
<totfact> 0.48685030E+02</totfact>
</mgrwt>
</event>
<event>
 4    1  0.1115666E+000  0.2069997E+03  0.7546771E-02  0.1143964E+00
         21   -1    0    0  501  502  0.00000000000E+00  0.00000000000E+00  0.17506980513E+03  0.17506980513E+03  0.00000000000E+00 0. -1.
         21   -1    0    0  502  503 -0.00000000000E+00 -0.00000000000E+00 -0.34602200529E+03  0.34602200529E+03  0.00000000000E+00 0. -1.
          6    1    1    2  501    0  0.29922675407E+02 -0.11121835774E+03 -0.22642779498E+03  0.30678728125E+03  0.17200000000E+03 0. -1.
         -6    1    1    2    0  503 -0.29922675407E+02  0.11121835774E+03  0.55475594819E+02  0.21430452917E+03  0.17200000000E+03 0. -1.
<mgrwt>
<rscale>  2 0.20699973E+03</rscale>
<asrwt>0</asrwt>
<pdfrwt beam="1">  1       21 0.43767452E-01 0.20699973E+03</pdfrwt>
<pdfrwt beam="2">  1       21 0.86505501E-01 0.20699973E+03</pdfrwt>
<totfact> 0.57109790E+03</totfact>
</mgrwt>
</event>
<event>
 4    1  0.1115666E+000  0.2832925E+03  0.7546771E-02  0.1093904E+00
         21   -1    0    0  501  502  0.00000000000E+00  0.00000000000E+00  0.19696980891E+03  0.19696980891E+03  0.00000000000E+00 0.  1.
         21   -1    0    0  502  503 -0.00000000000E+00 -0.00000000000E+00 -0.45114459316E+03  0.45114459316E+03  0.00000000000E+00 0. -1.
          6    1    1    2  501    0 -0.21496330970E+03 -0.66793625685E+02 -0.26232676460E+02  0.28450442222E+03  0.17200000000E+03 0. -1.
         -6    1    1    2    0  503  0.21496330970E+03  0.66793625685E+02 -0.22794210778E+03  0.36360997985E+03  0.17200000000E+03 0.  1.
<mgrwt>
<rscale>  2 0.28329245E+03</rscale>
<asrwt>0</asrwt>
<pdfrwt beam="1">  1       21 0.49242453E-01 0.28329245E+03</pdfrwt>
<pdfrwt beam="2">  1       21 0.11278615E+00 0.28329245E+03</pdfrwt>
<totfact> 0.22579150E+03</totfact>
</mgrwt>
</event>
<event>
 4    1  0.1115666E+000  0.1799904E+03  0.7546771E-02  0.1167812E+00
         21   -1    0    0  503  502  0.00000000000E+00  0.00000000000E+00  0.28420404258E+03  0.28420404258E+03  0.00000000000E+00 0.  1.
         21   -1    0    0  501  503 -0.00000000000E+00 -0.00000000000E+00 -0.14302696577E+03  0.14302696577E+03  0.00000000000E+00 0.  1.
          6    1    1    2  501    0 -0.27207746673E+02 -0.45522429774E+02 -0.25660387311E+02  0.18181036430E+03  0.17200000000E+03 0.  1.
         -6    1    1    2    0  502  0.27207746673E+02  0.45522429774E+02  0.16683746412E+03  0.24542064405E+03  0.17200000000E+03 0.  1.
<mgrwt>
<rscale>  2 0.17999042E+03</rscale>
<asrwt>0</asrwt>
<pdfrwt beam="1">  1       21 0.71051010E-01 0.17999042E+03</pdfrwt>
<pdfrwt beam="2">  1       21 0.35756742E-01 0.17999042E+03</pdfrwt>
<totfact> 0.13634407E+04</totfact>
</mgrwt>
</event>
<event>
 4    1  0.1115666E+000  0.1888091E+03  0.7546771E-02  0.1159540E+00
         21   -1    0    0  501  502  0.00000000000E+00  0.00000000000E+00  0.16941574632E+03  0.16941574632E+03  0.00000000000E+00 0.  1.
         21   -1    0    0  502  503 -0.00000000000E+00 -0.00000000000E+00 -0.22170765098E+03  0.22170765098E+03  0.00000000000E+00 0. -1.
          6    1    1    2  501    0  0.21172309111E+02 -0.74944021654E+02  0.17975367002E+02  0.18966282417E+03  0.17200000000E+03 0.  1.
         -6    1    1    2    0  503 -0.21172309111E+02  0.74944021654E+02 -0.70267271661E+02  0.20146057312E+03  0.17200000000E+03 0.  1.
<mgrwt>
<rscale>  2 0.18880909E+03</rscale>
<asrwt>0</asrwt>
<pdfrwt beam="1">  1       21 0.42353937E-01 0.18880909E+03</pdfrwt>
<pdfrwt beam="2">  1       21 0.55426912E-01 0.18880909E+03</pdfrwt>
<totfact> 0.16498471E+04</totfact>
</mgrwt>
</event>
<event>
 4    1  0.1115666E+000  0.2114618E+03  0.7546771E-02  0.1140414E+00
         21   -1    0    0  503  502  0.00000000000E+00  0.00000000000E+00  0.54455918913E+02  0.54455918913E+02  0.00000000000E+00 0. -1.
         21   -1    0    0  501  503 -0.00000000000E+00 -0.00000000000E+00 -0.85126312548E+03  0.85126312548E+03  0.00000000000E+00 0.  1.
          6    1    1    2  501    0  0.10131020445E+03 -0.69773513078E+02 -0.48358788162E+03  0.52780047357E+03  0.17200000000E+03 0.  1.
         -6    1    1    2    0  502 -0.10131020445E+03  0.69773513078E+02 -0.31321932495E+03  0.37791857082E+03  0.17200000000E+03 0.  1.
<mgrwt>
<rscale>  2 0.21146182E+03</rscale>
<asrwt>0</asrwt>
<pdfrwt beam="1">  1       21 0.13613980E-01 0.21146182E+03</pdfrwt>
<pdfrwt beam="2">  1       21 0.21281577E+00 0.21146182E+03</pdfrwt>
<totfact> 0.51220283E+03</totfact>
</mgrwt>
</event>
<event>
 4    1  0.1115666E+000  0.1783858E+03  0.7546771E-02  0.1169375E+00
         21   -1    0    0  501  502  0.00000000000E+00  0.00000000000E+00  0.11319741252E+03  0.11319741252E+03  0.00000000000E+00 0.  1.
         21   -1    0    0  502  503 -0.00000000000E+00 -0.00000000000E+00 -0.41086506485E+03  0.41086506485E+03  0.00000000000E+00 0. -1.
          6    1    1    2  501    0  0.47260612152E+02  0.19789513475E+01 -0.15831201774E+01  0.17839279128E+03  0.17200000000E+03 0.  1.
         -6    1    1    2    0  503 -0.47260612152E+02 -0.19789513475E+01 -0.29608453215E+03  0.34566968610E+03  0.17200000000E+03 0. -1.
<mgrwt>
<rscale>  2 0.17838577E+03</rscale>
<asrwt>0</asrwt>
<pdfrwt beam="1">  1       21 0.28299353E-01 0.17838577E+03</pdfrwt>
<pdfrwt beam="2">  1       21 0.10271627E+00 0.17838577E+03</pdfrwt>
<totfact> 0.92877059E+03</totfact>
</mgrwt>
</event>
<event>
 4    1  0.1115666E+000  0.2845053E+03  0.7546771E-02  0.1093253E+00
         21   -1    0    0  501  502  0.00000000000E+00  0.00000000000E+00  0.25235207926E+03  0.25235207926E+03  0.00000000000E+00 0.  1.
         21   -1    0    0  502  503 -0.00000000000E+00 -0.00000000000E+00 -0.37881869050E+03  0.37881869050E+03  0.00000000000E+00 0. -1.
          6    1    1    2  501    0 -0.22199994391E+03  0.45555058767E+02  0.60319553598E+02  0.29082930908E+03  0.17200000000E+03 0.  1.
         -6    1    1    2    0  503  0.22199994391E+03 -0.45555058767E+02 -0.18678616485E+03  0.34034146067E+03  0.17200000000E+03 0. -1.
<mgrwt>
<rscale>  2 0.28450525E+03</rscale>
<asrwt>0</asrwt>
<pdfrwt beam="1">  1       21 0.63088020E-01 0.28450525E+03</pdfrwt>
<pdfrwt beam="2">  1       21 0.94704672E-01 0.28450525E+03</pdfrwt>
<totfact> 0.20244554E+03</totfact>
</mgrwt>
</event>
<event>
 4    1  0.1115666E+000  0.2239331E+03  0.7546771E-02  0.1130984E+00
         21   -1    0    0  501  502  0.00000000000E+00  0.00000000000E+00  0.66585073639E+02  0.66585073639E+02  0.00000000000E+00 0.  1.
         21   -1    0    0  502  503 -0.00000000000E+00 -0.00000000000E+00 -0.80429512075E+03  0.80429512075E+03  0.00000000000E+00 0. -1.
          6    1    1    2  501    0 -0.15999210549E+02  0.14249931136E+03 -0.25900923437E+03  0.34239131409E+03  0.17200000000E+03 0.  1.
         -6    1    1    2    0  503  0.15999210549E+02 -0.14249931136E+03 -0.47870081275E+03  0.52848888030E+03  0.17200000000E+03 0. -1.
<mgrwt>
<rscale>  2 0.22393309E+03</rscale>
<asrwt>0</asrwt>
<pdfrwt beam="1">  1       21 0.16646268E-01 0.22393309E+03</pdfrwt>
<pdfrwt beam="2">  1       21 0.20107378E+00 0.22393309E+03</pdfrwt>
<totfact> 0.41660679E+03</totfact>
</mgrwt>
</event>
<event>
 4    1  0.1115666E+000  0.2560808E+03  0.7546771E-02  0.1109521E+00
         21   -1    0    0  503  502  0.00000000000E+00  0.00000000000E+00  0.82665022439E+03  0.82665022439E+03  0.00000000000E+00 0.  1.
         21   -1    0    0  501  503 -0.00000000000E+00 -0.00000000000E+00 -0.30049563916E+03  0.30049563916E+03  0.00000000000E+00 0. -1.
          6    1    1    2  501    0  0.13885603765E+03  0.12927642687E+03 -0.22041636253E+03  0.33787685124E+03  0.17200000000E+03 0. -1.
         -6    1    1    2    0  502 -0.13885603765E+03 -0.12927642687E+03  0.74657094777E+03  0.78926901230E+03  0.17200000000E+03 0.  1.
<mgrwt>
<rscale>  2 0.25608083E+03</rscale>
<asrwt>0</asrwt>
<pdfrwt beam="1">  1       21 0.20666255E+00 0.25608083E+03</pdfrwt>
<pdfrwt beam="2">  1       21 0.75123911E-01 0.25608083E+03</pdfrwt>
<totfact> 0.17889408E+02</totfact>
</mgrwt>
</event>
<event>
 4    1  0.1115666E+000  0.1728069E+03  0.7546771E-02  0.1174952E+00
         21   -1    0    0  503  502  0.00000000000E+00  0.00000000000E+00  0.10512282759E+04  0.10512282759E+04  0.00000000000E+00 0. -1.
         21   -1    0    0  501  503 -0.00000000000E+00 -0.00000000000E+00 -0.50245058367E+02  0.50245058367E+02  0.00000000000E+00 0. -1.
          6    1    1    2  501    0  0.77373464195E+01 -0.14777348131E+02  0.13740989738E+03  0.22077979175E+03  0.17200000000E+03 0. -1.
         -6    1    1    2    0  502 -0.77373464195E+01  0.14777348131E+02  0.86357332012E+03  0.88069354248E+03  0.17200000000E+03 0. -1.
<mgrwt>
<rscale>  2 0.17280693E+03</rscale>
<asrwt>0</asrwt>
<pdfrwt beam="1">  1       21 0.26280700E+00 0.17280693E+03</pdfrwt>
<pdfrwt beam="2">  1       21 0.12561268E-01 0.17280693E+03</pdfrwt>
<totfact> 0.30975532E+03</totfact>
</mgrwt>
</event>
<event>
 4    1  0.1115666E+000  0.2195479E+03  0.7546771E-02  0.1134221E+00
         21   -1    0    0  501  502  0.00000000000E+00  0.00000000000E+00  0.26952443907E+03  0.26952443907E+03  0.00000000000E+00 0. -1.
         21   -1    0    0  502  503 -0.00000000000E+00 -0.00000000000E+00 -0.23534181638E+03  0.23534181638E+03  0.00000000000E+00 0. -1.
          6    1    1    2  501    0 -0.53465679832E+01 -0.13634033969E+03  0.14078137110E+03  0.26080772317E+03  0.17200000000E+03 0. -1.
         -6    1    1    2    0  503  0.53465679832E+01  0.13634033969E+03 -0.10659874841E+03  0.24405853228E+03  0.17200000000E+03 0. -1.
<mgrwt>
<rscale>  2 0.21954789E+03</rscale>
<asrwt>0</asrwt>
<pdfrwt beam="1">  1       21 0.67381110E-01 0.21954789E+03</pdfrwt>
<pdfrwt beam="2">  1       21 0.58835454E-01 0.21954789E+03</pdfrwt>
<totfact> 0.53369816E+03</totfact>
</mgrwt>
</event>
<event>
 4    1  0.1115666E+000  0.1965591E+03  0.7546771E-02  0.1152675E+00
         21   -1    0    0  501  502  0.00000000000E+00  0.00000000000E+00  0.88136098892E+02  0.88136098892E+02  0.00000000000E+00 0. -1.
         21   -1    0    0  502  503 -0.00000000000E+00 -0.00000000000E+00 -0.50777381208E+03  0.50777381208E+03  0.00000000000E+00 0. -1.
          6    1    1    2  501    0 -0.80842652074E+02  0.50159362907E+02 -0.99656585098E+02  0.22037906215E+03  0.17200000000E+03 0. -1.
         -6    1    1    2    0  503  0.80842652074E+02 -0.50159362907E+02 -0.31998112809E+03  0.37553084882E+03  0.17200000000E+03 0. -1.
<mgrwt>
<rscale>  2 0.19655914E+03</rscale>
<asrwt>0</asrwt>
<pdfrwt beam="1">  1       21 0.22034025E-01 0.19655914E+03</pdfrwt>
<pdfrwt beam="2">  1       21 0.12694345E+00 0.19655914E+03</pdfrwt>
<totfact> 0.88073918E+03</totfact>
</mgrwt>
</event>
<event>
 4    1  0.1115666E+000  0.1893037E+03  0.7546771E-02  0.1159091E+00
         21   -1    0    0  503  502  0.00000000000E+00  0.00000000000E+00  0.27365042999E+03  0.27365042999E+03  0.00000000000E+00 0. -1.
         21   -1    0    0  501  503 -0.00000000000E+00 -0.00000000000E+00 -0.21553208274E+03  0.21553208274E+03  0.00000000000E+00 0. -1.
          6    1    1    2  501    0  0.58704353983E+02 -0.52968635699E+02 -0.12415941299E+03  0.22638780307E+03  0.17200000000E+03 0. -1.
         -6    1    1    2    0  502 -0.58704353983E+02  0.52968635699E+02  0.18227776024E+03  0.26279470965E+03  0.17200000000E+03 0. -1.
<mgrwt>
<rscale>  2 0.18930366E+03</rscale>
<asrwt>0</asrwt>
<pdfrwt beam="1">  1       21 0.68412607E-01 0.18930366E+03</pdfrwt>
<pdfrwt beam="2">  1       21 0.53883021E-01 0.18930366E+03</pdfrwt>
<totfact> 0.63640472E+03</totfact>
</mgrwt>
</event>
<event>
 4    1  0.1115666E+000  0.1882470E+03  0.7546771E-02  0.1160052E+00
         21   -1    0    0  501  502  0.00000000000E+00  0.00000000000E+00  0.12171963698E+03  0.12171963698E+03  0.00000000000E+00 0. -1.
         21   -1    0    0  502  503 -0.00000000000E+00 -0.00000000000E+00 -0.29179136301E+03  0.29179136301E+03  0.00000000000E+00 0. -1.
          6    1    1    2  501    0 -0.40919997440E+02  0.64641275944E+02 -0.75235624901E+02  0.20272478882E+03  0.17200000000E+03 0. -1.
         -6    1    1    2    0  503  0.40919997440E+02 -0.64641275944E+02 -0.94836101125E+02  0.21078621118E+03  0.17200000000E+03 0. -1.
<mgrwt>
<rscale>  2 0.18824702E+03</rscale>
<asrwt>0</asrwt>
<pdfrwt beam="1">  1       21 0.30429909E-01 0.18824702E+03</pdfrwt>
<pdfrwt beam="2">  1       21 0.72947840E-01 0.18824702E+03</pdfrwt>
<totfact> 0.17576656E+04</totfact>
</mgrwt>
</event>
<event>
 4    1  0.1115666E+000  0.2346773E+03  0.7546771E-02  0.1123390E+00
         21   -1    0    0  501  502  0.00000000000E+00  0.00000000000E+00  0.54843812335E+03  0.54843812335E+03  0.00000000000E+00 0. -1.
         21   -1    0    0  502  503 -0.00000000000E+00 -0.00000000000E+00 -0.10483840675E+03  0.10483840675E+03  0.00000000000E+00 0. -1.
          6    1    1    2  501    0  0.14264633985E+03  0.71703821986E+02  0.28886641378E+03  0.37217901791E+03  0.17200000000E+03 0. -1.
         -6    1    1    2    0  503 -0.14264633985E+03 -0.71703821986E+02  0.15473330282E+03  0.28109751219E+03  0.17200000000E+03 0. -1.
<mgrwt>
<rscale>  2 0.23467726E+03</rscale>
<asrwt>0</asrwt>
<pdfrwt beam="1">  1       21 0.13710952E+00 0.23467726E+03</pdfrwt>
<pdfrwt beam="2">  1       21 0.26209603E-01 0.23467726E+03</pdfrwt>
<totfact> 0.50586216E+03</totfact>
</mgrwt>
</event>
<event>
 4    1  0.1115666E+000  0.2232515E+03  0.7546771E-02  0.1131482E+00
         21   -1    0    0  501  502  0.00000000000E+00  0.00000000000E+00  0.13292168389E+03  0.13292168389E+03  0.00000000000E+00 0.  1.
         21   -1    0    0  502  503 -0.00000000000E+00 -0.00000000000E+00 -0.43130493555E+03  0.43130493555E+03  0.00000000000E+00 0. -1.
          6    1    1    2  501    0  0.45321377471E+02  0.13491928398E+03 -0.47231125060E+02  0.22819294384E+03  0.17200000000E+03 0.  1.
         -6    1    1    2    0  503 -0.45321377471E+02 -0.13491928398E+03 -0.25115212660E+03  0.33603367561E+03  0.17200000000E+03 0. -1.
<mgrwt>
<rscale>  2 0.22325152E+03</rscale>
<asrwt>0</asrwt>
<pdfrwt beam="1">  1       21 0.33230421E-01 0.22325152E+03</pdfrwt>
<pdfrwt beam="2">  1       21 0.10782623E+00 0.22325152E+03</pdfrwt>
<totfact> 0.58416900E+03</totfact>
</mgrwt>
</event>
<event>
 4    1  0.1115666E+000  0.1856095E+03  0.7546771E-02  0.1162482E+00
         21   -1    0    0  503  502  0.00000000000E+00  0.00000000000E+00  0.35707196132E+03  0.35707196132E+03  0.00000000000E+00 0.  1.
         21   -1    0    0  501  503 -0.00000000000E+00 -0.00000000000E+00 -0.13078467370E+03  0.13078467370E+03  0.00000000000E+00 0. -1.
          6    1    1    2  501    0 -0.51447234154E+02 -0.47117694792E+02 -0.11781523858E+02  0.18598306205E+03  0.17200000000E+03 0. -1.
         -6    1    1    2    0  502  0.51447234154E+02  0.47117694792E+02  0.23806881147E+03  0.30187357298E+03  0.17200000000E+03 0.  1.
<mgrwt>
<rscale>  2 0.18560952E+03</rscale>
<asrwt>0</asrwt>
<pdfrwt beam="1">  1       21 0.89267988E-01 0.18560952E+03</pdfrwt>
<pdfrwt beam="2">  1       21 0.32696169E-01 0.18560952E+03</pdfrwt>
<totfact> 0.96866884E+03</totfact>
</mgrwt>
</event>
<event>
 4    1  0.1115666E+000  0.2035403E+03  0.7546771E-02  0.1146786E+00
         21   -1    0    0  503  502  0.00000000000E+00  0.00000000000E+00  0.56482217791E+03  0.56482217791E+03  0.00000000000E+00 0. -1.
         21   -1    0    0  501  503 -0.00000000000E+00 -0.00000000000E+00 -0.73845410546E+02  0.73845410546E+02  0.00000000000E+00 0. -1.
          6    1    1    2  501    0 -0.10830080462E+03  0.10750969566E+02  0.27169350089E+03  0.33947902152E+03  0.17200000000E+03 0. -1.
         -6    1    1    2    0  502  0.10830080462E+03 -0.10750969566E+02  0.21928326648E+03  0.29918856694E+03  0.17200000000E+03 0. -1.
<mgrwt>
<rscale>  2 0.20354029E+03</rscale>
<asrwt>0</asrwt>
<pdfrwt beam="1">  1       21 0.14120553E+00 0.20354029E+03</pdfrwt>
<pdfrwt beam="2">  1       21 0.18461354E-01 0.20354029E+03</pdfrwt>
<totfact> 0.92997950E+03</totfact>
</mgrwt>
</event>
<event>
 4    1  0.1115666E+000  0.1734939E+03  0.7546771E-02  0.1174252E+00
         21   -1    0    0  503  502  0.00000000000E+00  0.00000000000E+00  0.20846973889E+03  0.20846973889E+03  0.00000000000E+00 0. -1.
         21   -1    0    0  501  503 -0.00000000000E+00 -0.00000000000E+00 -0.34381770290E+03  0.34381770290E+03  0.00000000000E+00 0. -1.
          6    1    1    2  501    0  0.21704649133E+02 -0.67109711681E+01 -0.27798792427E+03  0.32768493247E+03  0.17200000000E+03 0. -1.
         -6    1    1    2    0  502 -0.21704649133E+02  0.67109711681E+01  0.14263996027E+03  0.22460250932E+03  0.17200000000E+03 0. -1.
<mgrwt>
<rscale>  2 0.17349389E+03</rscale>
<asrwt>0</asrwt>
<pdfrwt beam="1">  1       21 0.52117435E-01 0.17349389E+03</pdfrwt>
<pdfrwt beam="2">  1       21 0.85954425E-01 0.17349389E+03</pdfrwt>
<totfact> 0.41467204E+03</totfact>
</mgrwt>
</event>
<event>
 4    1  0.1115666E+000  0.1963886E+03  0.7546771E-02  0.1152822E+00
         21   -1    0    0  501  502  0.00000000000E+00  0.00000000000E+00  0.22135228558E+03  0.22135228558E+03  0.00000000000E+00 0.  1.
         21   -1    0    0  502  503 -0.00000000000E+00 -0.00000000000E+00 -0.23950325741E+03  0.23950325741E+03  0.00000000000E+00 0.  1.
          6    1    1    2  501    0  0.44606527167E+02 -0.83634593393E+02  0.11120979867E+03  0.22569028955E+03  0.17200000000E+03 0.  1.
         -6    1    1    2    0  503 -0.44606527167E+02  0.83634593393E+02 -0.12936077050E+03  0.23516525343E+03  0.17200000000E+03 0.  1.
<mgrwt>
<rscale>  2 0.19638861E+03</rscale>
<asrwt>0</asrwt>
<pdfrwt beam="1">  1       21 0.55338071E-01 0.19638861E+03</pdfrwt>
<pdfrwt beam="2">  1       21 0.59875814E-01 0.19638861E+03</pdfrwt>
<totfact> 0.79924744E+03</totfact>
</mgrwt>
</event>
<event>
 4    1  0.1115666E+000  0.2027481E+03  0.7546771E-02  0.1147441E+00
         21   -1    0    0  501  502  0.00000000000E+00  0.00000000000E+00  0.23090712486E+02  0.23090712486E+02  0.00000000000E+00 0.  1.
         21   -1    0    0  502  503 -0.00000000000E+00 -0.00000000000E+00 -0.18991644959E+04  0.18991644959E+04  0.00000000000E+00 0. -1.
          6    1    1    2  501    0 -0.45530987148E+02 -0.97209662409E+02 -0.69751596228E+03  0.72638509545E+03  0.17200000000E+03 0.  1.
         -6    1    1    2    0  503  0.45530987148E+02  0.97209662409E+02 -0.11785578211E+04  0.11958701129E+04  0.17200000000E+03 0. -1.
<mgrwt>
<rscale>  2 0.20274809E+03</rscale>
<asrwt>0</asrwt>
<pdfrwt beam="1">  1       21 0.57726790E-02 0.20274809E+03</pdfrwt>
<pdfrwt beam="2">  1       21 0.47479105E+00 0.20274809E+03</pdfrwt>
<totfact> 0.58711392E+02</totfact>
</mgrwt>
</event>
<event>
 4    1  0.1115666E+000  0.1805177E+03  0.7546771E-02  0.1167303E+00
         21   -1    0    0  501  502  0.00000000000E+00  0.00000000000E+00  0.46268925052E+02  0.46268925052E+02  0.00000000000E+00 0. -1.
         21   -1    0    0  502  503 -0.00000000000E+00 -0.00000000000E+00 -0.70434782699E+03  0.70434782699E+03  0.00000000000E+00 0. -1.
          6    1    1    2  501    0  0.46613320041E+02  0.28807085519E+02 -0.33249770901E+03  0.37834029164E+03  0.17200000000E+03 0. -1.
         -6    1    1    2    0  503 -0.46613320041E+02 -0.28807085519E+02 -0.32558119293E+03  0.37227646040E+03  0.17200000000E+03 0. -1.
<mgrwt>
<rscale>  2 0.18051773E+03</rscale>
<asrwt>0</asrwt>
<pdfrwt beam="1">  1       21 0.11567231E-01 0.18051773E+03</pdfrwt>
<pdfrwt beam="2">  1       21 0.17608696E+00 0.18051773E+03</pdfrwt>
<totfact> 0.12244186E+04</totfact>
</mgrwt>
</event>
<event>
 4    1  0.1115666E+000  0.1791304E+03  0.7546771E-02  0.1168647E+00
         21   -1    0    0  501  502  0.00000000000E+00  0.00000000000E+00  0.14801482733E+03  0.14801482733E+03  0.00000000000E+00 0. -1.
         21   -1    0    0  502  503 -0.00000000000E+00 -0.00000000000E+00 -0.71256138990E+03  0.71256138990E+03  0.00000000000E+00 0. -1.
          6    1    1    2  501    0 -0.49887982413E+02 -0.38568430802E+01  0.76640602326E+02  0.19483702921E+03  0.17200000000E+03 0. -1.
         -6    1    1    2    0  503  0.49887982413E+02  0.38568430802E+01 -0.64118716490E+03  0.66573918801E+03  0.17200000000E+03 0. -1.
<mgrwt>
<rscale>  2 0.17913036E+03</rscale>
<asrwt>0</asrwt>
<pdfrwt beam="1">  1       21 0.37003708E-01 0.17913036E+03</pdfrwt>
<pdfrwt beam="2">  1       21 0.17814034E+00 0.17913036E+03</pdfrwt>
<totfact> 0.13391694E+03</totfact>
</mgrwt>
</event>
<event>
 4    1  0.1115666E+000  0.1778823E+03  0.7546771E-02  0.1169868E+00
         21   -1    0    0  501  502  0.00000000000E+00  0.00000000000E+00  0.30632458071E+03  0.30632458071E+03  0.00000000000E+00 0.  1.
         21   -1    0    0  502  503 -0.00000000000E+00 -0.00000000000E+00 -0.34998474799E+03  0.34998474799E+03  0.00000000000E+00 0.  1.
          6    1    1    2  501    0  0.40588436712E+02  0.20265591617E+02  0.25367439277E+03  0.30982706942E+03  0.17200000000E+03 0.  1.
         -6    1    1    2    0  503 -0.40588436712E+02 -0.20265591617E+02 -0.29733456005E+03  0.34648225928E+03  0.17200000000E+03 0.  1.
<mgrwt>
<rscale>  2 0.17788231E+03</rscale>
<asrwt>0</asrwt>
<pdfrwt beam="1">  1       21 0.76581146E-01 0.17788231E+03</pdfrwt>
<pdfrwt beam="2">  1       21 0.87496186E-01 0.17788231E+03</pdfrwt>
<totfact> 0.17256438E+03</totfact>
</mgrwt>
</event>
<event>
 4    1  0.1115666E+000  0.1908041E+03  0.7546771E-02  0.1157738E+00
         21   -1    0    0  501  502  0.00000000000E+00  0.00000000000E+00  0.10157563681E+03  0.10157563681E+03  0.00000000000E+00 0. -1.
         21   -1    0    0  502  503 -0.00000000000E+00 -0.00000000000E+00 -0.61062632512E+03  0.61062632512E+03  0.00000000000E+00 0. -1.
          6    1    1    2  501    0 -0.20827229220E+02 -0.79927687693E+02 -0.25666396672E+02  0.19252265491E+03  0.17200000000E+03 0. -1.
         -6    1    1    2    0  503  0.20827229220E+02  0.79927687693E+02 -0.48338429164E+03  0.51967930701E+03  0.17200000000E+03 0. -1.
<mgrwt>
<rscale>  2 0.19080411E+03</rscale>
<asrwt>0</asrwt>
<pdfrwt beam="1">  1       21 0.25393910E-01 0.19080411E+03</pdfrwt>
<pdfrwt beam="2">  1       21 0.15265658E+00 0.19080411E+03</pdfrwt>
<totfact> 0.42021386E+03</totfact>
</mgrwt>
</event>
<event>
 4    1  0.1115666E+000  0.2518115E+03  0.7546771E-02  0.1112165E+00
         21   -1    0    0  503  502  0.00000000000E+00  0.00000000000E+00  0.65949141998E+03  0.65949141998E+03  0.00000000000E+00 0. -1.
         21   -1    0    0  501  503 -0.00000000000E+00 -0.00000000000E+00 -0.97066605134E+02  0.97066605134E+02  0.00000000000E+00 0.  1.
          6    1    1    2  501    0 -0.83247215919E+02  0.16399672057E+03  0.31800453519E+03  0.40563025987E+03  0.17200000000E+03 0. -1.
         -6    1    1    2    0  502  0.83247215919E+02 -0.16399672057E+03  0.24442027965E+03  0.35092776524E+03  0.17200000000E+03 0. -1.
<mgrwt>
<rscale>  2 0.25181148E+03</rscale>
<asrwt>0</asrwt>
<pdfrwt beam="1">  1       21 0.16487284E+00 0.25181148E+03</pdfrwt>
<pdfrwt beam="2">  1       21 0.24266653E-01 0.25181148E+03</pdfrwt>
<totfact> 0.35460156E+03</totfact>
</mgrwt>
</event>
<event>
 4    1  0.1115666E+000  0.2063408E+03  0.7546771E-02  0.1144497E+00
         21   -1    0    0  503  502  0.00000000000E+00  0.00000000000E+00  0.29106775817E+02  0.29106775817E+02  0.00000000000E+00 0.  1.
         21   -1    0    0  501  503 -0.00000000000E+00 -0.00000000000E+00 -0.14719619955E+04  0.14719619955E+04  0.00000000000E+00 0.  1.
          6    1    1    2  501    0  0.96817163104E+02  0.60157676622E+02 -0.66211667454E+03  0.69352361159E+03  0.17200000000E+03 0.  1.
         -6    1    1    2    0  502 -0.96817163104E+02 -0.60157676622E+02 -0.78073854513E+03  0.80754515972E+03  0.17200000000E+03 0.  1.
<mgrwt>
<rscale>  2 0.20634076E+03</rscale>
<asrwt>0</asrwt>
<pdfrwt beam="1">  1       21 0.72766943E-02 0.20634076E+03</pdfrwt>
<pdfrwt beam="2">  1       21 0.36799048E+00 0.20634076E+03</pdfrwt>
<totfact> 0.18973159E+03</totfact>
</mgrwt>
</event>
<event>
 4    1  0.1115666E+000  0.1812496E+03  0.7546771E-02  0.1166599E+00
         21   -1    0    0  503  502  0.00000000000E+00  0.00000000000E+00  0.19384107336E+03  0.19384107336E+03  0.00000000000E+00 0. -1.
         21   -1    0    0  501  503 -0.00000000000E+00 -0.00000000000E+00 -0.33576930008E+03  0.33576930008E+03  0.00000000000E+00 0. -1.
          6    1    1    2  501    0  0.15028704588E+02 -0.55150345038E+02 -0.25732007240E+03  0.31474599629E+03  0.17200000000E+03 0. -1.
         -6    1    1    2    0  502 -0.15028704588E+02  0.55150345038E+02  0.11539184569E+03  0.21486437715E+03  0.17200000000E+03 0. -1.
<mgrwt>
<rscale>  2 0.18124961E+03</rscale>
<asrwt>0</asrwt>
<pdfrwt beam="1">  1       21 0.48460268E-01 0.18124961E+03</pdfrwt>
<pdfrwt beam="2">  1       21 0.83942325E-01 0.18124961E+03</pdfrwt>
<totfact> 0.50598175E+03</totfact>
</mgrwt>
</event>
<event>
 4    1  0.1115666E+000  0.2234792E+03  0.7546771E-02  0.1131315E+00
         21   -1    0    0  501  502  0.00000000000E+00  0.00000000000E+00  0.19034312931E+03  0.19034312931E+03  0.00000000000E+00 0. -1.
         21   -1    0    0  502  503 -0.00000000000E+00 -0.00000000000E+00 -0.28852171557E+03  0.28852171557E+03  0.00000000000E+00 0.  1.
          6    1    1    2  501    0  0.52200954573E+02  0.13279317808E+03  0.22976398812E+02  0.22465725607E+03  0.17200000000E+03 0. -1.
         -6    1    1    2    0  503 -0.52200954573E+02 -0.13279317808E+03 -0.12115498507E+03  0.25420758881E+03  0.17200000000E+03 0. -1.
<mgrwt>
<rscale>  2 0.22347923E+03</rscale>
<asrwt>0</asrwt>
<pdfrwt beam="1">  1       21 0.47585782E-01 0.22347923E+03</pdfrwt>
<pdfrwt beam="2">  1       21 0.72130429E-01 0.22347923E+03</pdfrwt>
<totfact> 0.71659625E+03</totfact>
</mgrwt>
</event>
<event>
 4    1  0.1115666E+000  0.2322091E+03  0.7546771E-02  0.1125094E+00
         21   -1    0    0  501  502  0.00000000000E+00  0.00000000000E+00  0.15419410678E+03  0.15419410678E+03  0.00000000000E+00 0. -1.
         21   -1    0    0  502  503 -0.00000000000E+00 -0.00000000000E+00 -0.41317055278E+03  0.41317055278E+03  0.00000000000E+00 0. -1.
          6    1    1    2  501    0 -0.10919528348E+03 -0.11141577558E+03 -0.18297916483E+02  0.23292895640E+03  0.17200000000E+03 0. -1.
         -6    1    1    2    0  503  0.10919528348E+03  0.11141577558E+03 -0.24067852951E+03  0.33443570316E+03  0.17200000000E+03 0. -1.
<mgrwt>
<rscale>  2 0.23220914E+03</rscale>
<asrwt>0</asrwt>
<pdfrwt beam="1">  1       21 0.38548527E-01 0.23220914E+03</pdfrwt>
<pdfrwt beam="2">  1       21 0.10329264E+00 0.23220914E+03</pdfrwt>
<totfact> 0.47866687E+03</totfact>
</mgrwt>
</event>
<event>
 4    1  0.1115666E+000  0.2500991E+03  0.7546771E-02  0.1113242E+00
         21   -1    0    0  503  502  0.00000000000E+00  0.00000000000E+00  0.47671895334E+03  0.47671895334E+03  0.00000000000E+00 0. -1.
         21   -1    0    0  501  503 -0.00000000000E+00 -0.00000000000E+00 -0.13204947105E+03  0.13204947105E+03  0.00000000000E+00 0.  1.
          6    1    1    2  501    0  0.72169306490E+02  0.16660482322E+03  0.14804371469E+03  0.29063123951E+03  0.17200000000E+03 0.  1.
         -6    1    1    2    0  502 -0.72169306490E+02 -0.16660482322E+03  0.19662576760E+03  0.31813718488E+03  0.17200000000E+03 0. -1.
<mgrwt>
<rscale>  2 0.25009913E+03</rscale>
<asrwt>0</asrwt>
<pdfrwt beam="1">  1       21 0.11917973E+00 0.25009913E+03</pdfrwt>
<pdfrwt beam="2">  1       21 0.33012369E-01 0.25009913E+03</pdfrwt>
<totfact> 0.45486945E+03</totfact>
</mgrwt>
</event>
<event>
 4    1  0.1115666E+000  0.1769465E+03  0.7546771E-02  0.1170791E+00
         21   -1    0    0  501  502  0.00000000000E+00  0.00000000000E+00  0.44016698175E+03  0.44016698175E+03  0.00000000000E+00 0. -1.
         21   -1    0    0  502  503 -0.00000000000E+00 -0.00000000000E+00 -0.71593320969E+02  0.71593320969E+02  0.00000000000E+00 0. -1.
          6    1    1    2  501    0 -0.40576092607E+02  0.89251172252E+01  0.20482086868E+03  0.27066892185E+03  0.17200000000E+03 0. -1.
         -6    1    1    2    0  503  0.40576092607E+02 -0.89251172252E+01  0.16375279211E+03  0.24109138087E+03  0.17200000000E+03 0. -1.
<mgrwt>
<rscale>  2 0.17694654E+03</rscale>
<asrwt>0</asrwt>
<pdfrwt beam="1">  1       21 0.11004174E+00 0.17694654E+03</pdfrwt>
<pdfrwt beam="2">  1       21 0.17898331E-01 0.17694654E+03</pdfrwt>
<totfact> 0.18699769E+04</totfact>
</mgrwt>
</event>
<event>
 4    1  0.1115666E+000  0.1894512E+03  0.7546771E-02  0.1158957E+00
         21   -1    0    0  501  502  0.00000000000E+00  0.00000000000E+00  0.21648886903E+03  0.21648886903E+03  0.00000000000E+00 0. -1.
         21   -1    0    0  502  503 -0.00000000000E+00 -0.00000000000E+00 -0.22162952965E+03  0.22162952965E+03  0.00000000000E+00 0. -1.
          6    1    1    2  501    0  0.77703590255E+02 -0.16429354304E+02  0.10738520214E+03  0.21776903650E+03  0.17200000000E+03 0. -1.
         -6    1    1    2    0  503 -0.77703590255E+02  0.16429354304E+02 -0.11252586275E+03  0.22034936217E+03  0.17200000000E+03 0. -1.
<mgrwt>
<rscale>  2 0.18945124E+03</rscale>
<asrwt>0</asrwt>
<pdfrwt beam="1">  1       21 0.54122217E-01 0.18945124E+03</pdfrwt>
<pdfrwt beam="2">  1       21 0.55407382E-01 0.18945124E+03</pdfrwt>
<totfact> 0.99316787E+03</totfact>
</mgrwt>
</event>
<event>
 4    1  0.1115666E+000  0.1818407E+03  0.7546771E-02  0.1166033E+00
         21   -1    0    0  501  502  0.00000000000E+00  0.00000000000E+00  0.53077504920E+03  0.53077504920E+03  0.00000000000E+00 0.  1.
         21   -1    0    0  502  503 -0.00000000000E+00 -0.00000000000E+00 -0.17508376224E+03  0.17508376224E+03  0.00000000000E+00 0. -1.
          6    1    1    2  501    0  0.49021651214E+02  0.32846945199E+02  0.46111050330E+03  0.49567019312E+03  0.17200000000E+03 0.  1.
         -6    1    1    2    0  503 -0.49021651214E+02 -0.32846945199E+02 -0.10541921634E+03  0.21018861832E+03  0.17200000000E+03 0. -1.
<mgrwt>
<rscale>  2 0.18184071E+03</rscale>
<asrwt>0</asrwt>
<pdfrwt beam="1">  1       21 0.13269376E+00 0.18184071E+03</pdfrwt>
<pdfrwt beam="2">  1       21 0.43770942E-01 0.18184071E+03</pdfrwt>
<totfact> 0.20796621E+03</totfact>
</mgrwt>
</event>
<event>
 4    1  0.1115666E+000  0.1874690E+03  0.7546771E-02  0.1160764E+00
         21   -1    0    0  501  502  0.00000000000E+00  0.00000000000E+00  0.36106974970E+02  0.36106974970E+02  0.00000000000E+00 0. -1.
         21   -1    0    0  502  503 -0.00000000000E+00 -0.00000000000E+00 -0.10368926068E+04  0.10368926068E+04  0.00000000000E+00 0. -1.
          6    1    1    2  501    0 -0.27606308002E+02 -0.69271227598E+02 -0.36757820193E+03  0.41262373386E+03  0.17200000000E+03 0. -1.
         -6    1    1    2    0  503  0.27606308002E+02  0.69271227598E+02 -0.63320742988E+03  0.66037584789E+03  0.17200000000E+03 0. -1.
<mgrwt>
<rscale>  2 0.18746896E+03</rscale>
<asrwt>0</asrwt>
<pdfrwt beam="1">  1       21 0.90267437E-02 0.18746896E+03</pdfrwt>
<pdfrwt beam="2">  1       21 0.25922315E+00 0.18746896E+03</pdfrwt>
<totfact> 0.57372715E+03</totfact>
</mgrwt>
</event>
<event>
 4    1  0.1115666E+000  0.1969794E+03  0.7546771E-02  0.1152313E+00
         21   -1    0    0  501  502  0.00000000000E+00  0.00000000000E+00  0.72970932351E+03  0.72970932351E+03  0.00000000000E+00 0. -1.
         21   -1    0    0  502  503 -0.00000000000E+00 -0.00000000000E+00 -0.87733978646E+02  0.87733978646E+02  0.00000000000E+00 0. -1.
          6    1    1    2  501    0 -0.94520119556E+02  0.16817992575E+02  0.57751651189E+03  0.61018539754E+03  0.17200000000E+03 0. -1.
         -6    1    1    2    0  503  0.94520119556E+02 -0.16817992575E+02  0.64458832977E+02  0.20725790461E+03  0.17200000000E+03 0. -1.
<mgrwt>
<rscale>  2 0.19697944E+03</rscale>
<asrwt>0</asrwt>
<pdfrwt beam="1">  1       21 0.18242731E+00 0.19697944E+03</pdfrwt>
<pdfrwt beam="2">  1       21 0.21933497E-01 0.19697944E+03</pdfrwt>
<totfact> 0.33874037E+03</totfact>
</mgrwt>
</event>
<event>
 4    1  0.1115666E+000  0.2055753E+03  0.7546771E-02  0.1145119E+00
         21   -1    0    0  501  502  0.00000000000E+00  0.00000000000E+00  0.27870146255E+03  0.27870146255E+03  0.00000000000E+00 0. -1.
         21   -1    0    0  502  503 -0.00000000000E+00 -0.00000000000E+00 -0.23556959391E+03  0.23556959391E+03  0.00000000000E+00 0. -1.
          6    1    1    2  501    0 -0.98546966238E+02  0.54458284363E+02  0.17505239141E+03  0.27000842399E+03  0.17200000000E+03 0. -1.
         -6    1    1    2    0  503  0.98546966238E+02 -0.54458284363E+02 -0.13192052277E+03  0.24426263246E+03  0.17200000000E+03 0. -1.
<mgrwt>
<rscale>  2 0.20557531E+03</rscale>
<asrwt>0</asrwt>
<pdfrwt beam="1">  1       21 0.69675366E-01 0.20557531E+03</pdfrwt>
<pdfrwt beam="2">  1       21 0.58892399E-01 0.20557531E+03</pdfrwt>
<totfact> 0.49981171E+03</totfact>
</mgrwt>
</event>
<event>
 4    1  0.1115666E+000  0.2074179E+03  0.7546771E-02  0.1143627E+00
         21   -1    0    0  501  502  0.00000000000E+00  0.00000000000E+00  0.51840012501E+03  0.51840012501E+03  0.00000000000E+00 0.  1.
         21   -1    0    0  502  503 -0.00000000000E+00 -0.00000000000E+00 -0.20644597765E+03  0.20644597765E+03  0.00000000000E+00 0.  1.
          6    1    1    2  501    0  0.10993533968E+03 -0.36775281310E+02  0.43624156106E+03  0.48304130240E+03  0.17200000000E+03 0.  1.
         -6    1    1    2    0  503 -0.10993533968E+03  0.36775281310E+02 -0.12428741370E+03  0.24180480026E+03  0.17200000000E+03 0.  1.
<mgrwt>
<rscale>  2 0.20741794E+03</rscale>
<asrwt>0</asrwt>
<pdfrwt beam="1">  1       21 0.12960003E+00 0.20741794E+03</pdfrwt>
<pdfrwt beam="2">  1       21 0.51611495E-01 0.20741794E+03</pdfrwt>
<totfact> 0.15317386E+03</totfact>
</mgrwt>
</event>
<event>
 4    1  0.1115666E+000  0.2699576E+03  0.7546771E-02  0.1101304E+00
         21   -1    0    0  501  502  0.00000000000E+00  0.00000000000E+00  0.37525359625E+03  0.37525359625E+03  0.00000000000E+00 0.  1.
         21   -1    0    0  502  503 -0.00000000000E+00 -0.00000000000E+00 -0.30473227137E+03  0.30473227137E+03  0.00000000000E+00 0. -1.
          6    1    1    2  501    0 -0.15943555004E+03  0.13369140375E+03 -0.16949709174E+03  0.31875750997E+03  0.17200000000E+03 0. -1.
         -6    1    1    2    0  503  0.15943555004E+03 -0.13369140375E+03  0.24001841662E+03  0.36122835765E+03  0.17200000000E+03 0.  1.
<mgrwt>
<rscale>  2 0.26995756E+03</rscale>
<asrwt>0</asrwt>
<pdfrwt beam="1">  1       21 0.93813399E-01 0.26995756E+03</pdfrwt>
<pdfrwt beam="2">  1       21 0.76183068E-01 0.26995756E+03</pdfrwt>
<totfact> 0.13744604E+03</totfact>
</mgrwt>
</event>
<event>
 4    1  0.1115666E+000  0.1787375E+03  0.7546771E-02  0.1169031E+00
         21   -1    0    0  503  502  0.00000000000E+00  0.00000000000E+00  0.73292398805E+02  0.73292398805E+02  0.00000000000E+00 0.  1.
         21   -1    0    0  501  503 -0.00000000000E+00 -0.00000000000E+00 -0.53417112213E+03  0.53417112213E+03  0.00000000000E+00 0.  1.
          6    1    1    2  501    0 -0.68705532578E+01 -0.48123651609E+02 -0.36072456858E+03  0.40257832123E+03  0.17200000000E+03 0.  1.
         -6    1    1    2    0  502  0.68705532578E+01  0.48123651609E+02 -0.10015415475E+03  0.20488519971E+03  0.17200000000E+03 0.  1.
<mgrwt>
<rscale>  2 0.17873749E+03</rscale>
<asrwt>0</asrwt>
<pdfrwt beam="1">  1       21 0.18323100E-01 0.17873749E+03</pdfrwt>
<pdfrwt beam="2">  1       21 0.13354278E+00 0.17873749E+03</pdfrwt>
<totfact> 0.11082972E+04</totfact>
</mgrwt>
</event>
<event>
 4    1  0.1115666E+000  0.1743211E+03  0.7546771E-02  0.1173415E+00
         21   -1    0    0  501  502  0.00000000000E+00  0.00000000000E+00  0.56528584164E+03  0.56528584164E+03  0.00000000000E+00 0. -1.
         21   -1    0    0  502  503 -0.00000000000E+00 -0.00000000000E+00 -0.13586290254E+03  0.13586290254E+03  0.00000000000E+00 0. -1.
          6    1    1    2  501    0  0.25690674782E+02 -0.11992943626E+02  0.48724377125E+03  0.51748848691E+03  0.17200000000E+03 0. -1.
         -6    1    1    2    0  503 -0.25690674782E+02  0.11992943626E+02 -0.57820832148E+02  0.18366025726E+03  0.17200000000E+03 0. -1.
<mgrwt>
<rscale>  2 0.17432109E+03</rscale>
<asrwt>0</asrwt>
<pdfrwt beam="1">  1       21 0.14132145E+00 0.17432109E+03</pdfrwt>
<pdfrwt beam="2">  1       21 0.33965727E-01 0.17432109E+03</pdfrwt>
<totfact> 0.29667326E+03</totfact>
</mgrwt>
</event>
<event>
 4    1  0.1115666E+000  0.1733681E+03  0.7546771E-02  0.1174380E+00
         21   -1    0    0  503  502  0.00000000000E+00  0.00000000000E+00  0.10102908630E+04  0.10102908630E+04  0.00000000000E+00 0.  1.
         21   -1    0    0  501  503 -0.00000000000E+00 -0.00000000000E+00 -0.30282924912E+02  0.30282924912E+02  0.00000000000E+00 0.  1.
          6    1    1    2  501    0 -0.48579417649E+01 -0.21187275173E+02  0.42100589456E+03  0.45530480283E+03  0.17200000000E+03 0. -1.
         -6    1    1    2    0  502  0.48579417649E+01  0.21187275173E+02  0.55900204352E+03  0.58526898507E+03  0.17200000000E+03 0. -1.
<mgrwt>
<rscale>  2 0.17336811E+03</rscale>
<asrwt>0</asrwt>
<pdfrwt beam="1">  1       21 0.25257260E+00 0.17336811E+03</pdfrwt>
<pdfrwt beam="2">  1       21 0.75707346E-02 0.17336811E+03</pdfrwt>
<totfact> 0.86501708E+03</totfact>
</mgrwt>
</event>
<event>
 4    1  0.1115666E+000  0.1952640E+03  0.7546771E-02  0.1153797E+00
         21   -1    0    0  503  502  0.00000000000E+00  0.00000000000E+00  0.46598823776E+02  0.46598823776E+02  0.00000000000E+00 0. -1.
         21   -1    0    0  501  503 -0.00000000000E+00 -0.00000000000E+00 -0.12359528541E+04  0.12359528541E+04  0.00000000000E+00 0. -1.
          6    1    1    2  501    0  0.63578843315E+02  0.67095136707E+02 -0.96749250089E+03  0.98700038803E+03  0.17200000000E+03 0. -1.
         -6    1    1    2    0  502 -0.63578843315E+02 -0.67095136707E+02 -0.22186152942E+03  0.29555128984E+03  0.17200000000E+03 0. -1.
<mgrwt>
<rscale>  2 0.19526399E+03</rscale>
<asrwt>0</asrwt>
<pdfrwt beam="1">  1       21 0.11649706E-01 0.19526399E+03</pdfrwt>
<pdfrwt beam="2">  1       21 0.30898821E+00 0.19526399E+03</pdfrwt>
<totfact> 0.18683636E+03</totfact>
</mgrwt>
</event>
<event>
 4    1  0.1115666E+000  0.2678486E+03  0.7546771E-02  0.1102517E+00
         21   -1    0    0  501  502  0.00000000000E+00  0.00000000000E+00  0.10226715464E+04  0.10226715464E+04  0.00000000000E+00 0.  1.
         21   -1    0    0  502  503 -0.00000000000E+00 -0.00000000000E+00 -0.12244968523E+03  0.12244968523E+03  0.00000000000E+00 0.  1.
          6    1    1    2  501    0  0.83869665414E+02 -0.18741593427E+03  0.82429237637E+03  0.86671839425E+03  0.17200000000E+03 0.  1.
         -6    1    1    2    0  503 -0.83869665414E+02  0.18741593427E+03  0.75929484798E+02  0.27840283737E+03  0.17200000000E+03 0.  1.
<mgrwt>
<rscale>  2 0.26784856E+03</rscale>
<asrwt>0</asrwt>
<pdfrwt beam="1">  1       21 0.25566786E+00 0.26784856E+03</pdfrwt>
<pdfrwt beam="2">  1       21 0.30612424E-01 0.26784856E+03</pdfrwt>
<totfact> 0.58020645E+02</totfact>
</mgrwt>
</event>
<event>
 4    1  0.1115666E+000  0.2104048E+03  0.7546771E-02  0.1141246E+00
         21   -1    0    0  501  502  0.00000000000E+00  0.00000000000E+00  0.24654024565E+03  0.24654024565E+03  0.00000000000E+00 0.  1.
         21   -1    0    0  502  503 -0.00000000000E+00 -0.00000000000E+00 -0.21604255695E+03  0.21604255695E+03  0.00000000000E+00 0.  1.
          6    1    1    2  501    0 -0.79017443088E+02  0.91882551771E+02  0.11028718206E+03  0.23755719766E+03  0.17200000000E+03 0.  1.
         -6    1    1    2    0  503  0.79017443088E+02 -0.91882551771E+02 -0.79789493354E+02  0.22502560495E+03  0.17200000000E+03 0.  1.
<mgrwt>
<rscale>  2 0.21040475E+03</rscale>
<asrwt>0</asrwt>
<pdfrwt beam="1">  1       21 0.61635061E-01 0.21040475E+03</pdfrwt>
<pdfrwt beam="2">  1       21 0.54010639E-01 0.21040475E+03</pdfrwt>
<totfact> 0.78269154E+03</totfact>
</mgrwt>
</event>
<event>
 4    1  0.1115666E+000  0.3078244E+03  0.7546771E-02  0.1081393E+00
         21   -1    0    0  503  502  0.00000000000E+00  0.00000000000E+00  0.29143978388E+03  0.29143978388E+03  0.00000000000E+00 0.  1.
         21   -1    0    0  501  503 -0.00000000000E+00 -0.00000000000E+00 -0.32526568149E+03  0.32526568149E+03  0.00000000000E+00 0.  1.
          6    1    1    2  501    0  0.49363741990E+02  0.25046971982E+03 -0.23207354293E+02  0.30869797677E+03  0.17200000000E+03 0.  1.
         -6    1    1    2    0  502 -0.49363741990E+02 -0.25046971982E+03 -0.10618543311E+02  0.30800748860E+03  0.17200000000E+03 0.  1.
<mgrwt>
<rscale>  2 0.30782440E+03</rscale>
<asrwt>0</asrwt>
<pdfrwt beam="1">  1       21 0.72859946E-01 0.30782440E+03</pdfrwt>
<pdfrwt beam="2">  1       21 0.81316420E-01 0.30782440E+03</pdfrwt>
<totfact> 0.20700315E+03</totfact>
</mgrwt>
</event>
<event>
 4    1  0.1115666E+000  0.1902188E+03  0.7546771E-02  0.1158264E+00
         21   -1    0    0  501  502  0.00000000000E+00  0.00000000000E+00  0.10013277292E+03  0.10013277292E+03  0.00000000000E+00 0. -1.
         21   -1    0    0  502  503 -0.00000000000E+00 -0.00000000000E+00 -0.44174266938E+03  0.44174266938E+03  0.00000000000E+00 0. -1.
          6    1    1    2  501    0  0.65930625603E+02  0.47458751586E+02 -0.55223655726E+02  0.19807279633E+03  0.17200000000E+03 0. -1.
         -6    1    1    2    0  503 -0.65930625603E+02 -0.47458751586E+02 -0.28638624074E+03  0.34380264597E+03  0.17200000000E+03 0. -1.
<mgrwt>
<rscale>  2 0.19021877E+03</rscale>
<asrwt>0</asrwt>
<pdfrwt beam="1">  1       21 0.25033194E-01 0.19021877E+03</pdfrwt>
<pdfrwt beam="2">  1       21 0.11043567E+00 0.19021877E+03</pdfrwt>
<totfact> 0.97906638E+03</totfact>
</mgrwt>
</event>
<event>
 4    1  0.1115666E+000  0.1720484E+03  0.7546771E-02  0.1175728E+00
         21   -1    0    0  503  502  0.00000000000E+00  0.00000000000E+00  0.46777631910E+03  0.46777631910E+03  0.00000000000E+00 0.  1.
         21   -1    0    0  501  503 -0.00000000000E+00 -0.00000000000E+00 -0.68408921646E+02  0.68408921646E+02  0.00000000000E+00 0.  1.
          6    1    1    2  501    0 -0.12024018327E+00 -0.40771225385E+01  0.12627221997E+03  0.21341347409E+03  0.17200000000E+03 0.  1.
         -6    1    1    2    0  502  0.12024018327E+00  0.40771225385E+01  0.27309517749E+03  0.32277176666E+03  0.17200000000E+03 0.  1.
<mgrwt>
<rscale>  2 0.17204836E+03</rscale>
<asrwt>0</asrwt>
<pdfrwt beam="1">  1       21 0.11694407E+00 0.17204836E+03</pdfrwt>
<pdfrwt beam="2">  1       21 0.17102232E-01 0.17204836E+03</pdfrwt>
<totfact> 0.17602427E+04</totfact>
</mgrwt>
</event>
<event>
 4    1  0.1115666E+000  0.2678905E+03  0.7546771E-02  0.1102493E+00
         21   -1    0    0  503  502  0.00000000000E+00  0.00000000000E+00  0.49828962243E+03  0.49828962243E+03  0.00000000000E+00 0. -1.
         21   -1    0    0  501  503 -0.00000000000E+00 -0.00000000000E+00 -0.32715810054E+03  0.32715810054E+03  0.00000000000E+00 0.  1.
          6    1    1    2  501    0  0.11813259496E+03  0.16800602580E+03 -0.22322630567E+03  0.34870520248E+03  0.17200000000E+03 0.  1.
         -6    1    1    2    0  502 -0.11813259496E+03 -0.16800602580E+03  0.39435782755E+03  0.47674252050E+03  0.17200000000E+03 0. -1.
<mgrwt>
<rscale>  2 0.26789053E+03</rscale>
<asrwt>0</asrwt>
<pdfrwt beam="1">  1       21 0.12457241E+00 0.26789053E+03</pdfrwt>
<pdfrwt beam="2">  1       21 0.81789525E-01 0.26789053E+03</pdfrwt>
<totfact> 0.58657193E+02</totfact>
</mgrwt>
</event>
<event>
 4    1  0.1115666E+000  0.1983146E+03  0.7546771E-02  0.1151169E+00
         21   -1    0    0  501  502  0.00000000000E+00  0.00000000000E+00  0.19504403924E+03  0.19504403924E+03  0.00000000000E+00 0. -1.
         21   -1    0    0  502  503 -0.00000000000E+00 -0.00000000000E+00 -0.20190685377E+03  0.20190685377E+03  0.00000000000E+00 0. -1.
          6    1    1    2  501    0  0.26848052963E+02  0.94993965317E+02 -0.10647533643E+02  0.19860020485E+03  0.17200000000E+03 0. -1.
         -6    1    1    2    0  503 -0.26848052963E+02 -0.94993965317E+02  0.37847191121E+01  0.19835068816E+03  0.17200000000E+03 0. -1.
<mgrwt>
<rscale>  2 0.19831458E+03</rscale>
<asrwt>0</asrwt>
<pdfrwt beam="1">  1       21 0.48761010E-01 0.19831458E+03</pdfrwt>
<pdfrwt beam="2">  1       21 0.50476713E-01 0.19831458E+03</pdfrwt>
<totfact> 0.14943709E+04</totfact>
</mgrwt>
</event>
<event>
 4    1  0.1115666E+000  0.1824176E+03  0.7546771E-02  0.1165484E+00
         21   -1    0    0  503  502  0.00000000000E+00  0.00000000000E+00  0.91577996416E+02  0.91577996416E+02  0.00000000000E+00 0. -1.
         21   -1    0    0  501  503 -0.00000000000E+00 -0.00000000000E+00 -0.36540263205E+03  0.36540263205E+03  0.00000000000E+00 0. -1.
          6    1    1    2  501    0 -0.50601965586E+02 -0.33639624642E+02 -0.15397743600E+03  0.23871580187E+03  0.17200000000E+03 0. -1.
         -6    1    1    2    0  502  0.50601965586E+02  0.33639624642E+02 -0.11984719963E+03  0.21826482659E+03  0.17200000000E+03 0. -1.
<mgrwt>
<rscale>  2 0.18241761E+03</rscale>
<asrwt>0</asrwt>
<pdfrwt beam="1">  1       21 0.22894499E-01 0.18241761E+03</pdfrwt>
<pdfrwt beam="2">  1       21 0.91350657E-01 0.18241761E+03</pdfrwt>
<totfact> 0.18286833E+04</totfact>
</mgrwt>
</event>
<event>
 4    1  0.1115666E+000  0.1884031E+03  0.7546771E-02  0.1159910E+00
         21   -1    0    0  501  502  0.00000000000E+00  0.00000000000E+00  0.51199362877E+03  0.51199362877E+03  0.00000000000E+00 0. -1.
         21   -1    0    0  502  503 -0.00000000000E+00 -0.00000000000E+00 -0.12443331874E+03  0.12443331874E+03  0.00000000000E+00 0. -1.
          6    1    1    2  501    0 -0.34026865643E+02  0.68948493175E+02  0.40554078825E+03  0.44716781327E+03  0.17200000000E+03 0. -1.
         -6    1    1    2    0  503  0.34026865643E+02 -0.68948493175E+02 -0.17980478222E+02  0.18925913424E+03  0.17200000000E+03 0. -1.
<mgrwt>
<rscale>  2 0.18840308E+03</rscale>
<asrwt>0</asrwt>
<pdfrwt beam="1">  1       21 0.12799840E+00 0.18840308E+03</pdfrwt>
<pdfrwt beam="2">  1       21 0.31108331E-01 0.18840308E+03</pdfrwt>
<totfact> 0.44780591E+03</totfact>
</mgrwt>
</event>
<event>
 4    1  0.1115666E+000  0.2179192E+03  0.7546771E-02  0.1135444E+00
         21   -1    0    0  503  502  0.00000000000E+00  0.00000000000E+00  0.85815302303E+02  0.85815302303E+02  0.00000000000E+00 0.  1.
         21   -1    0    0  501  503 -0.00000000000E+00 -0.00000000000E+00 -0.72781063697E+03  0.72781063697E+03  0.00000000000E+00 0.  1.
          6    1    1    2  501    0 -0.13000297015E+03  0.31685894192E+02 -0.52015333862E+03  0.56395767910E+03  0.17200000000E+03 0.  1.
         -6    1    1    2    0  502  0.13000297015E+03 -0.31685894192E+02 -0.12184199605E+03  0.24966826018E+03  0.17200000000E+03 0.  1.
<mgrwt>
<rscale>  2 0.21791918E+03</rscale>
<asrwt>0</asrwt>
<pdfrwt beam="1">  1       21 0.21453825E-01 0.21791918E+03</pdfrwt>
<pdfrwt beam="2">  1       21 0.18195266E+00 0.21791918E+03</pdfrwt>
<totfact> 0.34915688E+03</totfact>
</mgrwt>
</event>
<event>
 4    1  0.1115666E+000  0.1891590E+03  0.7546771E-02  0.1159222E+00
         21   -1    0    0  501  502  0.00000000000E+00  0.00000000000E+00  0.62162152503E+03  0.62162152503E+03  0.00000000000E+00 0.  1.
         21   -1    0    0  502  503 -0.00000000000E+00 -0.00000000000E+00 -0.23877839270E+03  0.23877839270E+03  0.00000000000E+00 0. -1.
          6    1    1    2  501    0 -0.21517191398E+02  0.75724013375E+02  0.56619851389E+03  0.59696052873E+03  0.17200000000E+03 0.  1.
         -6    1    1    2    0  503  0.21517191398E+02 -0.75724013375E+02 -0.18335538156E+03  0.26343938900E+03  0.17200000000E+03 0. -1.
<mgrwt>
<rscale>  2 0.18915897E+03</rscale>
<asrwt>0</asrwt>
<pdfrwt beam="1">  1       21 0.15540538E+00 0.18915897E+03</pdfrwt>
<pdfrwt beam="2">  1       21 0.59694600E-01 0.18915897E+03</pdfrwt>
<totfact> 0.71581722E+02</totfact>
</mgrwt>
</event>
<event>
 4    1  0.1115666E+000  0.2704658E+03  0.7546771E-02  0.1101013E+00
         21   -1    0    0  501  502  0.00000000000E+00  0.00000000000E+00  0.44385873410E+03  0.44385873410E+03  0.00000000000E+00 0. -1.
         21   -1    0    0  502  503 -0.00000000000E+00 -0.00000000000E+00 -0.28135045963E+03  0.28135045963E+03  0.00000000000E+00 0.  1.
          6    1    1    2  501    0  0.72561542674E+02 -0.19571041392E+03 -0.15211876834E+03  0.31030930259E+03  0.17200000000E+03 0. -1.
         -6    1    1    2    0  503 -0.72561542674E+02  0.19571041392E+03  0.31462704282E+03  0.41489989114E+03  0.17200000000E+03 0.  1.
<mgrwt>
<rscale>  2 0.27046579E+03</rscale>
<asrwt>0</asrwt>
<pdfrwt beam="1">  1       21 0.11096468E+00 0.27046579E+03</pdfrwt>
<pdfrwt beam="2">  1       21 0.70337615E-01 0.27046579E+03</pdfrwt>
<totfact> 0.10970574E+03</totfact>
</mgrwt>
</event>
<event>
 4    1  0.1115666E+000  0.2207585E+03  0.7546771E-02  0.1133319E+00
         21   -1    0    0  503  502  0.00000000000E+00  0.00000000000E+00  0.84415730968E+02  0.84415730968E+02  0.00000000000E+00 0.  1.
         21   -1    0    0  501  503 -0.00000000000E+00 -0.00000000000E+00 -0.71545154345E+03  0.71545154345E+03  0.00000000000E+00 0. -1.
          6    1    1    2  501    0  0.37608222823E+02 -0.13317640019E+03 -0.49125143922E+03  0.53857432962E+03  0.17200000000E+03 0. -1.
         -6    1    1    2    0  502 -0.37608222823E+02  0.13317640019E+03 -0.13978437326E+03  0.26129294479E+03  0.17200000000E+03 0.  1.
<mgrwt>
<rscale>  2 0.22075854E+03</rscale>
<asrwt>0</asrwt>
<pdfrwt beam="1">  1       21 0.21103933E-01 0.22075854E+03</pdfrwt>
<pdfrwt beam="2">  1       21 0.17886289E+00 0.22075854E+03</pdfrwt>
<totfact> 0.37718582E+03</totfact>
</mgrwt>
</event>
<event>
 4    1  0.1115666E+000  0.1956619E+03  0.7546771E-02  0.1153452E+00
         21   -1    0    0  503  502  0.00000000000E+00  0.00000000000E+00  0.13035253681E+03  0.13035253681E+03  0.00000000000E+00 0. -1.
         21   -1    0    0  501  503 -0.00000000000E+00 -0.00000000000E+00 -0.34605276895E+03  0.34605276895E+03  0.00000000000E+00 0. -1.
          6    1    1    2  501    0  0.75113649555E+02  0.55294680406E+02 -0.20050671957E+03  0.28015443352E+03  0.17200000000E+03 0. -1.
         -6    1    1    2    0  502 -0.75113649555E+02 -0.55294680406E+02 -0.15193512566E+02  0.19625087224E+03  0.17200000000E+03 0. -1.
<mgrwt>
<rscale>  2 0.19566186E+03</rscale>
<asrwt>0</asrwt>
<pdfrwt beam="1">  1       21 0.32588135E-01 0.19566186E+03</pdfrwt>
<pdfrwt beam="2">  1       21 0.86513191E-01 0.19566186E+03</pdfrwt>
<totfact> 0.10406730E+04</totfact>
</mgrwt>
</event>
<event>
 4    1  0.1115666E+000  0.1853010E+03  0.7546771E-02  0.1162769E+00
         21   -1    0    0  501  502  0.00000000000E+00  0.00000000000E+00  0.58324615215E+03  0.58324615215E+03  0.00000000000E+00 0.  1.
         21   -1    0    0  502  503 -0.00000000000E+00 -0.00000000000E+00 -0.90336500443E+02  0.90336500443E+02  0.00000000000E+00 0.  1.
          6    1    1    2  501    0 -0.40438186862E+02 -0.55832066742E+02  0.44522189332E+03  0.48224371528E+03  0.17200000000E+03 0.  1.
         -6    1    1    2    0  503  0.40438186862E+02  0.55832066742E+02  0.47687758388E+02  0.19133893732E+03  0.17200000000E+03 0.  1.
<mgrwt>
<rscale>  2 0.18530102E+03</rscale>
<asrwt>0</asrwt>
<pdfrwt beam="1">  1       21 0.14581153E+00 0.18530102E+03</pdfrwt>
<pdfrwt beam="2">  1       21 0.22584127E-01 0.18530102E+03</pdfrwt>
<totfact> 0.59505084E+03</totfact>
</mgrwt>
</event>
<event>
 4    1  0.1115666E+000  0.1796771E+03  0.7546771E-02  0.1168116E+00
         21   -1    0    0  503  502  0.00000000000E+00  0.00000000000E+00  0.88143298128E+02  0.88143298128E+02  0.00000000000E+00 0. -1.
         21   -1    0    0  501  503 -0.00000000000E+00 -0.00000000000E+00 -0.36996307545E+03  0.36996307545E+03  0.00000000000E+00 0.  1.
          6    1    1    2  501    0 -0.51289630138E+02  0.83217443339E+01 -0.11801193200E+03  0.21496672692E+03  0.17200000000E+03 0. -1.
         -6    1    1    2    0  502  0.51289630138E+02 -0.83217443339E+01 -0.16380784532E+03  0.24313964666E+03  0.17200000000E+03 0.  1.
<mgrwt>
<rscale>  2 0.17967715E+03</rscale>
<asrwt>0</asrwt>
<pdfrwt beam="1">  1       21 0.22035825E-01 0.17967715E+03</pdfrwt>
<pdfrwt beam="2">  1       21 0.92490768E-01 0.17967715E+03</pdfrwt>
<totfact> 0.19129369E+04</totfact>
</mgrwt>
</event>
<event>
 4    1  0.1115666E+000  0.2595702E+03  0.7546771E-02  0.1107402E+00
         21   -1    0    0  503  502  0.00000000000E+00  0.00000000000E+00  0.48462445303E+02  0.48462445303E+02  0.00000000000E+00 0.  1.
         21   -1    0    0  501  503 -0.00000000000E+00 -0.00000000000E+00 -0.13928916140E+04  0.13928916140E+04  0.00000000000E+00 0.  1.
          6    1    1    2  501    0 -0.73176577747E+01 -0.19426569598E+03 -0.70337849002E+03  0.74974529606E+03  0.17200000000E+03 0.  1.
         -6    1    1    2    0  502  0.73176577747E+01  0.19426569598E+03 -0.64105067866E+03  0.69160876322E+03  0.17200000000E+03 0.  1.
<mgrwt>
<rscale>  2 0.25957024E+03</rscale>
<asrwt>0</asrwt>
<pdfrwt beam="1">  1       21 0.12115612E-01 0.25957024E+03</pdfrwt>
<pdfrwt beam="2">  1       21 0.34822288E+00 0.25957024E+03</pdfrwt>
<totfact> 0.95019379E+02</totfact>
</mgrwt>
</event>
<event>
 4    1  0.1115666E+000  0.2468048E+03  0.7546771E-02  0.1115341E+00
         21   -1    0    0  503  502  0.00000000000E+00  0.00000000000E+00  0.71434065982E+03  0.71434065982E+03  0.00000000000E+00 0. -1.
         21   -1    0    0  501  503 -0.00000000000E+00 -0.00000000000E+00 -0.89988314377E+02  0.89988314377E+02  0.00000000000E+00 0.  1.
          6    1    1    2  501    0  0.27398540353E+02  0.17486551829E+03  0.22009889797E+03  0.33069042077E+03  0.17200000000E+03 0. -1.
         -6    1    1    2    0  502 -0.27398540353E+02 -0.17486551829E+03  0.40425344748E+03  0.47363855343E+03  0.17200000000E+03 0.  1.
<mgrwt>
<rscale>  2 0.24680484E+03</rscale>
<asrwt>0</asrwt>
<pdfrwt beam="1">  1       21 0.17858515E+00 0.24680484E+03</pdfrwt>
<pdfrwt beam="2">  1       21 0.22497081E-01 0.24680484E+03</pdfrwt>
<totfact> 0.32889371E+03</totfact>
</mgrwt>
</event>
<event>
 4    1  0.1115666E+000  0.2160002E+03  0.7546771E-02  0.1136901E+00
         21   -1    0    0  503  502  0.00000000000E+00  0.00000000000E+00  0.19897824807E+03  0.19897824807E+03  0.00000000000E+00 0.  1.
         21   -1    0    0  501  503 -0.00000000000E+00 -0.00000000000E+00 -0.30111726220E+03  0.30111726220E+03  0.00000000000E+00 0. -1.
          6    1    1    2  501    0 -0.12296202884E+03  0.44186369424E+02 -0.16869975421E+03  0.27407244088E+03  0.17200000000E+03 0.  1.
         -6    1    1    2    0  502  0.12296202884E+03 -0.44186369424E+02  0.66560740083E+02  0.22602306940E+03  0.17200000000E+03 0. -1.
<mgrwt>
<rscale>  2 0.21600022E+03</rscale>
<asrwt>0</asrwt>
<pdfrwt beam="1">  1       21 0.49744562E-01 0.21600022E+03</pdfrwt>
<pdfrwt beam="2">  1       21 0.75279315E-01 0.21600022E+03</pdfrwt>
<totfact> 0.59689512E+03</totfact>
</mgrwt>
</event>
<event>
 4    1  0.1115666E+000  0.1804377E+03  0.7546771E-02  0.1167380E+00
         21   -1    0    0  501  502  0.00000000000E+00  0.00000000000E+00  0.16997705488E+03  0.16997705488E+03  0.00000000000E+00 0.  1.
         21   -1    0    0  502  503 -0.00000000000E+00 -0.00000000000E+00 -0.19199587116E+03  0.19199587116E+03  0.00000000000E+00 0.  1.
          6    1    1    2  501    0 -0.38266149508E+02 -0.38851845029E+02 -0.19807994820E+02  0.18152168113E+03  0.17200000000E+03 0.  1.
         -6    1    1    2    0  503  0.38266149508E+02  0.38851845029E+02 -0.22108214611E+01  0.18045124492E+03  0.17200000000E+03 0.  1.
<mgrwt>
<rscale>  2 0.18043770E+03</rscale>
<asrwt>0</asrwt>
<pdfrwt beam="1">  1       21 0.42494264E-01 0.18043770E+03</pdfrwt>
<pdfrwt beam="2">  1       21 0.47998968E-01 0.18043770E+03</pdfrwt>
<totfact> 0.22257629E+04</totfact>
</mgrwt>
</event>
<event>
 4    1  0.1115666E+000  0.1974732E+03  0.7546771E-02  0.1151889E+00
         21   -1    0    0  503  502  0.00000000000E+00  0.00000000000E+00  0.63425405059E+03  0.63425405059E+03  0.00000000000E+00 0.  1.
         21   -1    0    0  501  503 -0.00000000000E+00 -0.00000000000E+00 -0.65872800857E+02  0.65872800857E+02  0.00000000000E+00 0.  1.
          6    1    1    2  501    0  0.16246874402E+01  0.97000047783E+02  0.19381920033E+03  0.27669754480E+03  0.17200000000E+03 0.  1.
         -6    1    1    2    0  502 -0.16246874402E+01 -0.97000047783E+02  0.37456204941E+03  0.42342930665E+03  0.17200000000E+03 0.  1.
<mgrwt>
<rscale>  2 0.19747316E+03</rscale>
<asrwt>0</asrwt>
<pdfrwt beam="1">  1       21 0.15856349E+00 0.19747316E+03</pdfrwt>
<pdfrwt beam="2">  1       21 0.16468202E-01 0.19747316E+03</pdfrwt>
<totfact> 0.84965664E+03</totfact>
</mgrwt>
</event>
<event>
 4    1  0.1115666E+000  0.1884306E+03  0.7546771E-02  0.1159884E+00
         21   -1    0    0  501  502  0.00000000000E+00  0.00000000000E+00  0.73268509302E+02  0.73268509302E+02  0.00000000000E+00 0.  1.
         21   -1    0    0  502  503 -0.00000000000E+00 -0.00000000000E+00 -0.85711451965E+03  0.85711451965E+03  0.00000000000E+00 0.  1.
          6    1    1    2  501    0  0.63428144261E+02  0.43577035259E+02 -0.85245003292E+02  0.20681585547E+03  0.17200000000E+03 0.  1.
         -6    1    1    2    0  503 -0.63428144261E+02 -0.43577035259E+02 -0.69860100705E+03  0.72356717348E+03  0.17200000000E+03 0.  1.
<mgrwt>
<rscale>  2 0.18843059E+03</rscale>
<asrwt>0</asrwt>
<pdfrwt beam="1">  1       21 0.18317128E-01 0.18843059E+03</pdfrwt>
<pdfrwt beam="2">  1       21 0.21427862E+00 0.18843059E+03</pdfrwt>
<totfact> 0.29792043E+03</totfact>
</mgrwt>
</event>
<event>
 4    1  0.1115666E+000  0.2167497E+03  0.7546771E-02  0.1136330E+00
         21   -1    0    0  501  502  0.00000000000E+00  0.00000000000E+00  0.46727518597E+03  0.46727518597E+03  0.00000000000E+00 0. -1.
         21   -1    0    0  502  503 -0.00000000000E+00 -0.00000000000E+00 -0.15451777742E+03  0.15451777742E+03  0.00000000000E+00 0. -1.
          6    1    1    2  501    0 -0.65815422364E+02 -0.11430120231E+03  0.34012941277E+03  0.40332177241E+03  0.17200000000E+03 0. -1.
         -6    1    1    2    0  503  0.65815422364E+02  0.11430120231E+03 -0.27372004223E+02  0.21847119097E+03  0.17200000000E+03 0. -1.
<mgrwt>
<rscale>  2 0.21674971E+03</rscale>
<asrwt>0</asrwt>
<pdfrwt beam="1">  1       21 0.11681879E+00 0.21674971E+03</pdfrwt>
<pdfrwt beam="2">  1       21 0.38629445E-01 0.21674971E+03</pdfrwt>
<totfact> 0.35745525E+03</totfact>
</mgrwt>
</event>
<event>
 4    1  0.1115666E+000  0.2103328E+03  0.7546771E-02  0.1141303E+00
         21   -1    0    0  501  502  0.00000000000E+00  0.00000000000E+00  0.11904217914E+03  0.11904217914E+03  0.00000000000E+00 0.  1.
         21   -1    0    0  502  503 -0.00000000000E+00 -0.00000000000E+00 -0.37297860334E+03  0.37297860334E+03  0.00000000000E+00 0.  1.
          6    1    1    2  501    0 -0.80588080180E+02  0.90340676948E+02 -0.11218597404E+03  0.23838114302E+03  0.17200000000E+03 0.  1.
         -6    1    1    2    0  503  0.80588080180E+02 -0.90340676948E+02 -0.14175045016E+03  0.25363963945E+03  0.17200000000E+03 0.  1.
<mgrwt>
<rscale>  2 0.21033278E+03</rscale>
<asrwt>0</asrwt>
<pdfrwt beam="1">  1       21 0.29760545E-01 0.21033278E+03</pdfrwt>
<pdfrwt beam="2">  1       21 0.93244650E-01 0.21033278E+03</pdfrwt>
<totfact> 0.10346665E+04</totfact>
</mgrwt>
</event>
<event>
 4    1  0.1115666E+000  0.2046635E+03  0.7546771E-02  0.1145863E+00
         21   -1    0    0  501  502  0.00000000000E+00  0.00000000000E+00  0.72578646610E+02  0.72578646610E+02  0.00000000000E+00 0. -1.
         21   -1    0    0  502  503 -0.00000000000E+00 -0.00000000000E+00 -0.63571112808E+03  0.63571112808E+03  0.00000000000E+00 0.  1.
          6    1    1    2  501    0  0.11043979759E+03  0.10305211344E+02 -0.17405880155E+03  0.26867008146E+03  0.17200000000E+03 0. -1.
         -6    1    1    2    0  503 -0.11043979759E+03 -0.10305211344E+02 -0.38907367992E+03  0.43961969323E+03  0.17200000000E+03 0.  1.
<mgrwt>
<rscale>  2 0.20466350E+03</rscale>
<asrwt>0</asrwt>
<pdfrwt beam="1">  1       21 0.18144662E-01 0.20466350E+03</pdfrwt>
<pdfrwt beam="2">  1       21 0.15892778E+00 0.20466350E+03</pdfrwt>
<totfact> 0.70215444E+03</totfact>
</mgrwt>
</event>
<event>
 4    1  0.1115666E+000  0.1964014E+03  0.7546771E-02  0.1152811E+00
         21   -1    0    0  503  502  0.00000000000E+00  0.00000000000E+00  0.32163322090E+03  0.32163322090E+03  0.00000000000E+00 0. -1.
         21   -1    0    0  501  503 -0.00000000000E+00 -0.00000000000E+00 -0.13650291788E+03  0.13650291788E+03  0.00000000000E+00 0.  1.
          6    1    1    2  501    0 -0.84117510781E+02 -0.43746579048E+02  0.12748927466E+02  0.19681477066E+03  0.17200000000E+03 0.  1.
         -6    1    1    2    0  502  0.84117510781E+02  0.43746579048E+02  0.17238137555E+03  0.26132136812E+03  0.17200000000E+03 0. -1.
<mgrwt>
<rscale>  2 0.19640142E+03</rscale>
<asrwt>0</asrwt>
<pdfrwt beam="1">  1       21 0.80408304E-01 0.19640142E+03</pdfrwt>
<pdfrwt beam="2">  1       21 0.34125730E-01 0.19640142E+03</pdfrwt>
<totfact> 0.11220873E+04</totfact>
</mgrwt>
</event>
<event>
 4    1  0.1115666E+000  0.1925733E+03  0.7546771E-02  0.1156161E+00
         21   -1    0    0  501  502  0.00000000000E+00  0.00000000000E+00  0.13536185324E+03  0.13536185324E+03  0.00000000000E+00 0.  1.
         21   -1    0    0  502  503 -0.00000000000E+00 -0.00000000000E+00 -0.29468580049E+03  0.29468580049E+03  0.00000000000E+00 0.  1.
          6    1    1    2  501    0  0.77308493621E+02  0.39036932620E+02 -0.22644965219E+02  0.19390017985E+03  0.17200000000E+03 0.  1.
         -6    1    1    2    0  503 -0.77308493621E+02 -0.39036932620E+02 -0.13667898203E+03  0.23614747389E+03  0.17200000000E+03 0.  1.
<mgrwt>
<rscale>  2 0.19257332E+03</rscale>
<asrwt>0</asrwt>
<pdfrwt beam="1">  1       21 0.33840463E-01 0.19257332E+03</pdfrwt>
<pdfrwt beam="2">  1       21 0.73671450E-01 0.19257332E+03</pdfrwt>
<totfact> 0.13920370E+04</totfact>
</mgrwt>
</event>
<event>
 4    1  0.1115666E+000  0.1807665E+03  0.7546771E-02  0.1167063E+00
         21   -1    0    0  501  502  0.00000000000E+00  0.00000000000E+00  0.20606025362E+03  0.20606025362E+03  0.00000000000E+00 0. -1.
         21   -1    0    0  502  503 -0.00000000000E+00 -0.00000000000E+00 -0.55585710460E+03  0.55585710460E+03  0.00000000000E+00 0. -1.
          6    1    1    2  501    0  0.14650631706E+02 -0.53645932825E+02  0.14716722455E+03  0.23309808901E+03  0.17200000000E+03 0. -1.
         -6    1    1    2    0  503 -0.14650631706E+02  0.53645932825E+02 -0.49696407553E+03  0.52881926921E+03  0.17200000000E+03 0. -1.
<mgrwt>
<rscale>  2 0.18076650E+03</rscale>
<asrwt>0</asrwt>
<pdfrwt beam="1">  1       21 0.51515064E-01 0.18076650E+03</pdfrwt>
<pdfrwt beam="2">  1       21 0.13896427E+00 0.18076650E+03</pdfrwt>
<totfact> 0.13218321E+03</totfact>
</mgrwt>
</event>
<event>
 4    1  0.1115666E+000  0.1760340E+03  0.7546771E-02  0.1171697E+00
         21   -1    0    0  503  502  0.00000000000E+00  0.00000000000E+00  0.58624365445E+03  0.58624365445E+03  0.00000000000E+00 0. -1.
         21   -1    0    0  501  503 -0.00000000000E+00 -0.00000000000E+00 -0.86798580554E+02  0.86798580554E+02  0.00000000000E+00 0. -1.
          6    1    1    2  501    0 -0.28466987237E+02 -0.24363959030E+02  0.39290277605E+02  0.18036545616E+03  0.17200000000E+03 0.  1.
         -6    1    1    2    0  502  0.28466987237E+02  0.24363959030E+02  0.46015479629E+03  0.49267677884E+03  0.17200000000E+03 0.  1.
<mgrwt>
<rscale>  2 0.17603401E+03</rscale>
<asrwt>0</asrwt>
<pdfrwt beam="1">  1       21 0.14656090E+00 0.17603401E+03</pdfrwt>
<pdfrwt beam="2">  1       21 0.21699647E-01 0.17603401E+03</pdfrwt>
<totfact> 0.63800130E+03</totfact>
</mgrwt>
</event>
<event>
 4    1  0.1115666E+000  0.1872098E+03  0.7546771E-02  0.1161002E+00
         21   -1    0    0  501  502  0.00000000000E+00  0.00000000000E+00  0.11613224866E+03  0.11613224866E+03  0.00000000000E+00 0.  1.
         21   -1    0    0  502  503 -0.00000000000E+00 -0.00000000000E+00 -0.31266772211E+03  0.31266772211E+03  0.00000000000E+00 0.  1.
          6    1    1    2  501    0  0.73278403353E+02 -0.96842044902E+01 -0.13825849292E+03  0.23272928281E+03  0.17200000000E+03 0.  1.
         -6    1    1    2    0  503 -0.73278403353E+02  0.96842044902E+01 -0.58276980534E+02  0.19607068795E+03  0.17200000000E+03 0.  1.
<mgrwt>
<rscale>  2 0.18720980E+03</rscale>
<asrwt>0</asrwt>
<pdfrwt beam="1">  1       21 0.29033062E-01 0.18720980E+03</pdfrwt>
<pdfrwt beam="2">  1       21 0.78166930E-01 0.18720980E+03</pdfrwt>
<totfact> 0.16514923E+04</totfact>
</mgrwt>
</event>
<event>
 4    1  0.1115666E+000  0.1997103E+03  0.7546771E-02  0.1149984E+00
         21   -1    0    0  503  502  0.00000000000E+00  0.00000000000E+00  0.98742619573E+02  0.98742619573E+02  0.00000000000E+00 0. -1.
         21   -1    0    0  501  503 -0.00000000000E+00 -0.00000000000E+00 -0.50311690486E+03  0.50311690486E+03  0.00000000000E+00 0.  1.
          6    1    1    2  501    0  0.10120349470E+03  0.76188777786E+01 -0.33580917366E+03  0.39070704594E+03  0.17200000000E+03 0.  1.
         -6    1    1    2    0  502 -0.10120349470E+03 -0.76188777786E+01 -0.68565111628E+02  0.21115247849E+03  0.17200000000E+03 0.  1.
<mgrwt>
<rscale>  2 0.19971028E+03</rscale>
<asrwt>0</asrwt>
<pdfrwt beam="1">  1       21 0.24685655E-01 0.19971028E+03</pdfrwt>
<pdfrwt beam="2">  1       21 0.12577922E+00 0.19971028E+03</pdfrwt>
<totfact> 0.72482315E+03</totfact>
</mgrwt>
</event>
<event>
 4    1  0.1115666E+000  0.2013290E+03  0.7546771E-02  0.1148623E+00
         21   -1    0    0  503  502  0.00000000000E+00  0.00000000000E+00  0.13347057007E+03  0.13347057007E+03  0.00000000000E+00 0. -1.
         21   -1    0    0  501  503 -0.00000000000E+00 -0.00000000000E+00 -0.32320351170E+03  0.32320351170E+03  0.00000000000E+00 0. -1.
          6    1    1    2  501    0  0.10257724971E+03 -0.20670878907E+02 -0.15097528152E+03  0.25164839165E+03  0.17200000000E+03 0. -1.
         -6    1    1    2    0  502 -0.10257724971E+03  0.20670878907E+02 -0.38757660113E+02  0.20502569012E+03  0.17200000000E+03 0. -1.
<mgrwt>
<rscale>  2 0.20132903E+03</rscale>
<asrwt>0</asrwt>
<pdfrwt beam="1">  1       21 0.33367643E-01 0.20132903E+03</pdfrwt>
<pdfrwt beam="2">  1       21 0.80800877E-01 0.20132903E+03</pdfrwt>
<totfact> 0.11562908E+04</totfact>
</mgrwt>
</event>
<event>
 4    1  0.1115666E+000  0.2081819E+03  0.7546771E-02  0.1143014E+00
         21   -1    0    0  503  502  0.00000000000E+00  0.00000000000E+00  0.30341771784E+03  0.30341771784E+03  0.00000000000E+00 0.  1.
         21   -1    0    0  501  503 -0.00000000000E+00 -0.00000000000E+00 -0.17223662045E+03  0.17223662045E+03  0.00000000000E+00 0.  1.
          6    1    1    2  501    0  0.11319476725E+03 -0.30702316673E+02 -0.32665563288E+02  0.21072903599E+03  0.17200000000E+03 0. -1.
         -6    1    1    2    0  502 -0.11319476725E+03  0.30702316673E+02  0.16384666068E+03  0.26492530230E+03  0.17200000000E+03 0. -1.
<mgrwt>
<rscale>  2 0.20818186E+03</rscale>
<asrwt>0</asrwt>
<pdfrwt beam="1">  1       21 0.75854429E-01 0.20818186E+03</pdfrwt>
<pdfrwt beam="2">  1       21 0.43059156E-01 0.20818186E+03</pdfrwt>
<totfact> 0.79509031E+03</totfact>
</mgrwt>
</event>
<event>
 4    1  0.1115666E+000  0.1928969E+03  0.7546771E-02  0.1155874E+00
         21   -1    0    0  503  502  0.00000000000E+00  0.00000000000E+00  0.58216235985E+03  0.58216235985E+03  0.00000000000E+00 0.  1.
         21   -1    0    0  501  503 -0.00000000000E+00 -0.00000000000E+00 -0.86555682157E+02  0.86555682157E+02  0.00000000000E+00 0.  1.
          6    1    1    2  501    0 -0.17297692150E+02 -0.85592136001E+02  0.76799921274E+02  0.20762334119E+03  0.17200000000E+03 0.  1.
         -6    1    1    2    0  502  0.17297692150E+02  0.85592136001E+02  0.41880675642E+03  0.46109470081E+03  0.17200000000E+03 0.  1.
<mgrwt>
<rscale>  2 0.19289693E+03</rscale>
<asrwt>0</asrwt>
<pdfrwt beam="1">  1       21 0.14554058E+00 0.19289693E+03</pdfrwt>
<pdfrwt beam="2">  1       21 0.21638922E-01 0.19289693E+03</pdfrwt>
<totfact> 0.64415443E+03</totfact>
</mgrwt>
</event>
<event>
 4    1  0.1115666E+000  0.2320417E+03  0.7546771E-02  0.1125211E+00
         21   -1    0    0  501  502  0.00000000000E+00  0.00000000000E+00  0.82838772611E+03  0.82838772611E+03  0.00000000000E+00 0. -1.
         21   -1    0    0  502  503 -0.00000000000E+00 -0.00000000000E+00 -0.13748016195E+03  0.13748016195E+03  0.00000000000E+00 0. -1.
          6    1    1    2  501    0  0.15341857924E+03  0.26871828608E+02  0.69611195853E+03  0.73376782053E+03  0.17200000000E+03 0. -1.
         -6    1    1    2    0  503 -0.15341857924E+03 -0.26871828608E+02 -0.52043943661E+01  0.23210006753E+03  0.17200000000E+03 0. -1.
<mgrwt>
<rscale>  2 0.23204171E+03</rscale>
<asrwt>0</asrwt>
<pdfrwt beam="1">  1       21 0.20709692E+00 0.23204171E+03</pdfrwt>
<pdfrwt beam="2">  1       21 0.34370043E-01 0.23204171E+03</pdfrwt>
<totfact> 0.94663936E+02</totfact>
</mgrwt>
</event>
<event>
 4    1  0.1115666E+000  0.6835118E+03  0.7546771E-02  0.9745852E-01
         21   -1    0    0  501  502  0.00000000000E+00  0.00000000000E+00  0.60602126094E+03  0.60602126094E+03  0.00000000000E+00 0. -1.
         21   -1    0    0  502  503 -0.00000000000E+00 -0.00000000000E+00 -0.80236263914E+03  0.80236263914E+03  0.00000000000E+00 0.  1.
          6    1    1    2  501    0  0.65015614706E+03  0.12207136419E+03  0.41250123153E+02  0.68475543530E+03  0.17200000000E+03 0.  1.
         -6    1    1    2    0  503 -0.65015614706E+03 -0.12207136419E+03 -0.23759150135E+03  0.72362846477E+03  0.17200000000E+03 0. -1.
<mgrwt>
<rscale>  2 0.68351184E+03</rscale>
<asrwt>0</asrwt>
<pdfrwt beam="1">  1       21 0.15150532E+00 0.68351184E+03</pdfrwt>
<pdfrwt beam="2">  1       21 0.20059066E+00 0.68351184E+03</pdfrwt>
<totfact> 0.26470389E+01</totfact>
</mgrwt>
</event>
<event>
 4    1  0.1115666E+000  0.2612417E+03  0.7546771E-02  0.1106399E+00
         21   -1    0    0  501  502  0.00000000000E+00  0.00000000000E+00  0.11177855452E+03  0.11177855452E+03  0.00000000000E+00 0.  1.
         21   -1    0    0  502  503 -0.00000000000E+00 -0.00000000000E+00 -0.69388736108E+03  0.69388736108E+03  0.00000000000E+00 0. -1.
          6    1    1    2  501    0 -0.17124853503E+03 -0.96629005640E+02 -0.15145580653E+03  0.30197034095E+03  0.17200000000E+03 0.  1.
         -6    1    1    2    0  503  0.17124853503E+03  0.96629005640E+02 -0.43065300004E+03  0.50369557465E+03  0.17200000000E+03 0. -1.
<mgrwt>
<rscale>  2 0.26124170E+03</rscale>
<asrwt>0</asrwt>
<pdfrwt beam="1">  1       21 0.27944639E-01 0.26124170E+03</pdfrwt>
<pdfrwt beam="2">  1       21 0.17347184E+00 0.26124170E+03</pdfrwt>
<totfact> 0.23285595E+03</totfact>
</mgrwt>
</event>
<event>
 4    1  0.1115666E+000  0.1768817E+03  0.7546771E-02  0.1170856E+00
         21   -1    0    0  503  502  0.00000000000E+00  0.00000000000E+00  0.78339224145E+02  0.78339224145E+02  0.00000000000E+00 0.  1.
         21   -1    0    0  501  503 -0.00000000000E+00 -0.00000000000E+00 -0.45639301894E+03  0.45639301894E+03  0.00000000000E+00 0. -1.
          6    1    1    2  501    0  0.19191837683E+01  0.41224365258E+02 -0.28352504707E+03  0.33417597740E+03  0.17200000000E+03 0. -1.
         -6    1    1    2    0  502 -0.19191837683E+01 -0.41224365258E+02 -0.94528747721E+02  0.20055626568E+03  0.17200000000E+03 0.  1.
<mgrwt>
<rscale>  2 0.17688169E+03</rscale>
<asrwt>0</asrwt>
<pdfrwt beam="1">  1       21 0.19584807E-01 0.17688169E+03</pdfrwt>
<pdfrwt beam="2">  1       21 0.11409825E+00 0.17688169E+03</pdfrwt>
<totfact> 0.14499958E+04</totfact>
</mgrwt>
</event>
<event>
 4    1  0.1115666E+000  0.1931228E+03  0.7546771E-02  0.1155675E+00
         21   -1    0    0  503  502  0.00000000000E+00  0.00000000000E+00  0.25379801302E+03  0.25379801302E+03  0.00000000000E+00 0. -1.
         21   -1    0    0  501  503 -0.00000000000E+00 -0.00000000000E+00 -0.41776858047E+03  0.41776858047E+03  0.00000000000E+00 0. -1.
          6    1    1    2  501    0  0.87774803109E+02  0.28267488626E+01 -0.35233625793E+03  0.40179254003E+03  0.17200000000E+03 0. -1.
         -6    1    1    2    0  502 -0.87774803109E+02 -0.28267488626E+01  0.18836569048E+03  0.26977405346E+03  0.17200000000E+03 0. -1.
<mgrwt>
<rscale>  2 0.19312278E+03</rscale>
<asrwt>0</asrwt>
<pdfrwt beam="1">  1       21 0.63449504E-01 0.19312278E+03</pdfrwt>
<pdfrwt beam="2">  1       21 0.10444214E+00 0.19312278E+03</pdfrwt>
<totfact> 0.16990424E+03</totfact>
</mgrwt>
</event>
<event>
 4    1  0.1115666E+000  0.1970218E+03  0.7546771E-02  0.1152276E+00
         21   -1    0    0  501  502  0.00000000000E+00  0.00000000000E+00  0.67608347709E+02  0.67608347709E+02  0.00000000000E+00 0. -1.
         21   -1    0    0  502  503 -0.00000000000E+00 -0.00000000000E+00 -0.65524807220E+03  0.65524807220E+03  0.00000000000E+00 0. -1.
          6    1    1    2  501    0  0.67271027366E+02  0.68616196694E+02 -0.16667029048E+03  0.25806309171E+03  0.17200000000E+03 0. -1.
         -6    1    1    2    0  503 -0.67271027366E+02 -0.68616196694E+02 -0.42096943401E+03  0.46479332820E+03  0.17200000000E+03 0. -1.
<mgrwt>
<rscale>  2 0.19702176E+03</rscale>
<asrwt>0</asrwt>
<pdfrwt beam="1">  1       21 0.16902087E-01 0.19702176E+03</pdfrwt>
<pdfrwt beam="2">  1       21 0.16381202E+00 0.19702176E+03</pdfrwt>
<totfact> 0.74194419E+03</totfact>
</mgrwt>
</event>
<event>
 4    1  0.1115666E+000  0.2348638E+03  0.7546771E-02  0.1123262E+00
         21   -1    0    0  501  502  0.00000000000E+00  0.00000000000E+00  0.40194750262E+03  0.40194750262E+03  0.00000000000E+00 0. -1.
         21   -1    0    0  502  503 -0.00000000000E+00 -0.00000000000E+00 -0.16752240338E+03  0.16752240338E+03  0.00000000000E+00 0. -1.
          6    1    1    2  501    0 -0.39477628840E+02  0.15497907619E+03  0.23828355296E+03  0.33457442945E+03  0.17200000000E+03 0. -1.
         -6    1    1    2    0  503  0.39477628840E+02 -0.15497907619E+03 -0.38584537214E+01  0.23489547654E+03  0.17200000000E+03 0. -1.
<mgrwt>
<rscale>  2 0.23486378E+03</rscale>
<asrwt>0</asrwt>
<pdfrwt beam="1">  1       21 0.10048687E+00 0.23486378E+03</pdfrwt>
<pdfrwt beam="2">  1       21 0.41880602E-01 0.23486378E+03</pdfrwt>
<totfact> 0.43135852E+03</totfact>
</mgrwt>
</event>
<event>
 4    1  0.1115666E+000  0.1788267E+03  0.7546771E-02  0.1168943E+00
         21   -1    0    0  503  502  0.00000000000E+00  0.00000000000E+00  0.16397546983E+03  0.16397546983E+03  0.00000000000E+00 0. -1.
         21   -1    0    0  501  503 -0.00000000000E+00 -0.00000000000E+00 -0.24575619938E+03  0.24575619938E+03  0.00000000000E+00 0. -1.
          6    1    1    2  501    0  0.38423351653E+02  0.30308811955E+02 -0.13397193123E+03  0.22344452643E+03  0.17200000000E+03 0. -1.
         -6    1    1    2    0  502 -0.38423351653E+02 -0.30308811955E+02  0.52191201672E+02  0.18628714278E+03  0.17200000000E+03 0. -1.
<mgrwt>
<rscale>  2 0.17882667E+03</rscale>
<asrwt>0</asrwt>
<pdfrwt beam="1">  1       21 0.40993868E-01 0.17882667E+03</pdfrwt>
<pdfrwt beam="2">  1       21 0.61439050E-01 0.17882667E+03</pdfrwt>
<totfact> 0.14240105E+04</totfact>
</mgrwt>
</event>
<event>
 4    1  0.1115666E+000  0.1788896E+03  0.7546771E-02  0.1168882E+00
         21   -1    0    0  503  502  0.00000000000E+00  0.00000000000E+00  0.15878897064E+03  0.15878897064E+03  0.00000000000E+00 0.  1.
         21   -1    0    0  501  503 -0.00000000000E+00 -0.00000000000E+00 -0.32442614354E+03  0.32442614354E+03  0.00000000000E+00 0.  1.
          6    1    1    2  501    0 -0.49019178920E+02 -0.38237121601E+01 -0.23151937413E+03  0.29257942729E+03  0.17200000000E+03 0.  1.
         -6    1    1    2    0  502  0.49019178920E+02  0.38237121601E+01  0.65882201227E+02  0.19063568689E+03  0.17200000000E+03 0.  1.
<mgrwt>
<rscale>  2 0.17888963E+03</rscale>
<asrwt>0</asrwt>
<pdfrwt beam="1">  1       21 0.39697243E-01 0.17888963E+03</pdfrwt>
<pdfrwt beam="2">  1       21 0.81106535E-01 0.17888963E+03</pdfrwt>
<totfact> 0.82372106E+03</totfact>
</mgrwt>
</event>
<event>
 4    1  0.1115666E+000  0.1973231E+03  0.7546771E-02  0.1152017E+00
         21   -1    0    0  503  502  0.00000000000E+00  0.00000000000E+00  0.14544190533E+03  0.14544190533E+03  0.00000000000E+00 0.  1.
         21   -1    0    0  501  503 -0.00000000000E+00 -0.00000000000E+00 -0.29492347726E+03  0.29492347726E+03  0.00000000000E+00 0. -1.
          6    1    1    2  501    0 -0.54508580871E+02 -0.79882641369E+02 -0.14162309117E+03  0.24288582036E+03  0.17200000000E+03 0. -1.
         -6    1    1    2    0  502  0.54508580871E+02  0.79882641369E+02 -0.78584807617E+01  0.19747956224E+03  0.17200000000E+03 0. -1.
<mgrwt>
<rscale>  2 0.19732314E+03</rscale>
<asrwt>0</asrwt>
<pdfrwt beam="1">  1       21 0.36360477E-01 0.19732314E+03</pdfrwt>
<pdfrwt beam="2">  1       21 0.73730869E-01 0.19732314E+03</pdfrwt>
<totfact> 0.12009735E+04</totfact>
</mgrwt>
</event>
<event>
 4    1  0.1115666E+000  0.2245803E+03  0.7546771E-02  0.1130514E+00
         21   -1    0    0  503  502  0.00000000000E+00  0.00000000000E+00  0.23129979954E+03  0.23129979954E+03  0.00000000000E+00 0. -1.
         21   -1    0    0  501  503 -0.00000000000E+00 -0.00000000000E+00 -0.59703877870E+03  0.59703877870E+03  0.00000000000E+00 0. -1.
          6    1    1    2  501    0  0.45462528811E+02  0.13706011389E+03 -0.51284852017E+03  0.55986598485E+03  0.17200000000E+03 0. -1.
         -6    1    1    2    0  502 -0.45462528811E+02 -0.13706011389E+03  0.14710954101E+03  0.26847259339E+03  0.17200000000E+03 0. -1.
<mgrwt>
<rscale>  2 0.22458031E+03</rscale>
<asrwt>0</asrwt>
<pdfrwt beam="1">  1       21 0.57824950E-01 0.22458031E+03</pdfrwt>
<pdfrwt beam="2">  1       21 0.14925969E+00 0.22458031E+03</pdfrwt>
<totfact> 0.82214560E+02</totfact>
</mgrwt>
</event>
<event>
 4    1  0.1115666E+000  0.2708219E+03  0.7546771E-02  0.1100810E+00
         21   -1    0    0  503  502  0.00000000000E+00  0.00000000000E+00  0.69703020780E+03  0.69703020780E+03  0.00000000000E+00 0.  1.
         21   -1    0    0  501  503 -0.00000000000E+00 -0.00000000000E+00 -0.11988067451E+03  0.11988067451E+03  0.00000000000E+00 0.  1.
          6    1    1    2  501    0 -0.13490151684E+03  0.15988142560E+03  0.14575644315E+03  0.30755394684E+03  0.17200000000E+03 0.  1.
         -6    1    1    2    0  502  0.13490151684E+03 -0.15988142560E+03  0.43139309013E+03  0.50935693547E+03  0.17200000000E+03 0.  1.
<mgrwt>
<rscale>  2 0.27082188E+03</rscale>
<asrwt>0</asrwt>
<pdfrwt beam="1">  1       21 0.17425754E+00 0.27082188E+03</pdfrwt>
<pdfrwt beam="2">  1       21 0.29970171E-01 0.27082188E+03</pdfrwt>
<totfact> 0.19910656E+03</totfact>
</mgrwt>
</event>
<event>
 4    1  0.1115666E+000  0.2092239E+03  0.7546771E-02  0.1142182E+00
         21   -1    0    0  501  502  0.00000000000E+00  0.00000000000E+00  0.11770000054E+03  0.11770000054E+03  0.00000000000E+00 0.  1.
         21   -1    0    0  502  503 -0.00000000000E+00 -0.00000000000E+00 -0.43039694963E+03  0.43039694963E+03  0.00000000000E+00 0. -1.
          6    1    1    2  501    0  0.11155835113E+02  0.11860099544E+03 -0.55331179581E+02  0.21641670040E+03  0.17200000000E+03 0.  1.
         -6    1    1    2    0  503 -0.11155835113E+02 -0.11860099544E+03 -0.25736576951E+03  0.33168024978E+03  0.17200000000E+03 0. -1.
<mgrwt>
<rscale>  2 0.20922392E+03</rscale>
<asrwt>0</asrwt>
<pdfrwt beam="1">  1       21 0.29425000E-01 0.20922392E+03</pdfrwt>
<pdfrwt beam="2">  1       21 0.10759924E+00 0.20922392E+03</pdfrwt>
<totfact> 0.75299886E+03</totfact>
</mgrwt>
</event>
<event>
 4    1  0.1115666E+000  0.2441971E+03  0.7546771E-02  0.1117028E+00
         21   -1    0    0  503  502  0.00000000000E+00  0.00000000000E+00  0.54471234068E+03  0.54471234068E+03  0.00000000000E+00 0.  1.
         21   -1    0    0  501  503 -0.00000000000E+00 -0.00000000000E+00 -0.37512816074E+03  0.37512816074E+03  0.00000000000E+00 0.  1.
          6    1    1    2  501    0  0.10524065442E+03 -0.13774110350E+03 -0.30224310316E+03  0.38856543895E+03  0.17200000000E+03 0.  1.
         -6    1    1    2    0  502 -0.10524065442E+03  0.13774110350E+03  0.47182728309E+03  0.53127506247E+03  0.17200000000E+03 0.  1.
<mgrwt>
<rscale>  2 0.24419707E+03</rscale>
<asrwt>0</asrwt>
<pdfrwt beam="1">  1       21 0.13617808E+00 0.24419707E+03</pdfrwt>
<pdfrwt beam="2">  1       21 0.93782041E-01 0.24419707E+03</pdfrwt>
<totfact> 0.34729869E+02</totfact>
</mgrwt>
</event>
<event>
 4    1  0.1115666E+000  0.2125289E+03  0.7546771E-02  0.1139579E+00
         21   -1    0    0  501  502  0.00000000000E+00  0.00000000000E+00  0.44575237264E+03  0.44575237264E+03  0.00000000000E+00 0. -1.
         21   -1    0    0  502  503 -0.00000000000E+00 -0.00000000000E+00 -0.23571888326E+03  0.23571888326E+03  0.00000000000E+00 0.  1.
          6    1    1    2  501    0 -0.10019297504E+03 -0.74470837440E+02  0.36229341154E+03  0.42002982504E+03  0.17200000000E+03 0. -1.
         -6    1    1    2    0  503  0.10019297504E+03  0.74470837440E+02 -0.15225992216E+03  0.26144143086E+03  0.17200000000E+03 0.  1.
<mgrwt>
<rscale>  2 0.21252891E+03</rscale>
<asrwt>0</asrwt>
<pdfrwt beam="1">  1       21 0.11143809E+00 0.21252891E+03</pdfrwt>
<pdfrwt beam="2">  1       21 0.58929721E-01 0.21252891E+03</pdfrwt>
<totfact> 0.16736163E+03</totfact>
</mgrwt>
</event>
<event>
 4    1  0.1115666E+000  0.2202246E+03  0.7546771E-02  0.1133716E+00
         21   -1    0    0  501  502  0.00000000000E+00  0.00000000000E+00  0.17870394822E+03  0.17870394822E+03  0.00000000000E+00 0. -1.
         21   -1    0    0  502  503 -0.00000000000E+00 -0.00000000000E+00 -0.40160899975E+03  0.40160899975E+03  0.00000000000E+00 0. -1.
          6    1    1    2  501    0 -0.12257296804E+03  0.62375915809E+02  0.53767915758E+02  0.22669335264E+03  0.17200000000E+03 0. -1.
         -6    1    1    2    0  503  0.12257296804E+03 -0.62375915809E+02 -0.27667296729E+03  0.35361959533E+03  0.17200000000E+03 0. -1.
<mgrwt>
<rscale>  2 0.22022463E+03</rscale>
<asrwt>0</asrwt>
<pdfrwt beam="1">  1       21 0.44675987E-01 0.22022463E+03</pdfrwt>
<pdfrwt beam="2">  1       21 0.10040225E+00 0.22022463E+03</pdfrwt>
<totfact> 0.38260327E+03</totfact>
</mgrwt>
</event>
<event>
 4    1  0.1115666E+000  0.3013098E+03  0.7546771E-02  0.1084588E+00
         21   -1    0    0  503  502  0.00000000000E+00  0.00000000000E+00  0.52211994835E+03  0.52211994835E+03  0.00000000000E+00 0.  1.
         21   -1    0    0  501  503 -0.00000000000E+00 -0.00000000000E+00 -0.19034259501E+03  0.19034259501E+03  0.00000000000E+00 0.  1.
          6    1    1    2  501    0  0.21702964348E+03  0.11875058638E+03  0.61132640975E+02  0.30744880502E+03  0.17200000000E+03 0.  1.
         -6    1    1    2    0  502 -0.21702964348E+03 -0.11875058638E+03  0.27064471236E+03  0.40501373834E+03  0.17200000000E+03 0.  1.
<mgrwt>
<rscale>  2 0.30130975E+03</rscale>
<asrwt>0</asrwt>
<pdfrwt beam="1">  1       21 0.13052998E+00 0.30130975E+03</pdfrwt>
<pdfrwt beam="2">  1       21 0.47585650E-01 0.30130975E+03</pdfrwt>
<totfact> 0.16618085E+03</totfact>
</mgrwt>
</event>
<event>
 4    1  0.1115666E+000  0.2367110E+03  0.7546771E-02  0.1122003E+00
         21   -1    0    0  503  502  0.00000000000E+00  0.00000000000E+00  0.41943758338E+03  0.41943758338E+03  0.00000000000E+00 0.  1.
         21   -1    0    0  501  503 -0.00000000000E+00 -0.00000000000E+00 -0.15012205051E+03  0.15012205051E+03  0.00000000000E+00 0.  1.
          6    1    1    2  501    0  0.55134915457E+02 -0.15299755987E+03  0.40149958658E+02  0.24009192283E+03  0.17200000000E+03 0.  1.
         -6    1    1    2    0  502 -0.55134915457E+02  0.15299755987E+03  0.22916557421E+03  0.32946771106E+03  0.17200000000E+03 0.  1.
<mgrwt>
<rscale>  2 0.23671103E+03</rscale>
<asrwt>0</asrwt>
<pdfrwt beam="1">  1       21 0.10485939E+00 0.23671103E+03</pdfrwt>
<pdfrwt beam="2">  1       21 0.37530513E-01 0.23671103E+03</pdfrwt>
<totfact> 0.48570985E+03</totfact>
</mgrwt>
</event>
<event>
 4    1  0.1115666E+000  0.3093555E+03  0.7546771E-02  0.1080655E+00
         21   -1    0    0  503  502  0.00000000000E+00  0.00000000000E+00  0.15226350847E+04  0.15226350847E+04  0.00000000000E+00 0. -1.
         21   -1    0    0  501  503 -0.00000000000E+00 -0.00000000000E+00 -0.80627865658E+02  0.80627865658E+02  0.00000000000E+00 0.  1.
          6    1    1    2  501    0  0.17437956979E+03 -0.18896715654E+03  0.34460650572E+03  0.46309228497E+03  0.17200000000E+03 0.  1.
         -6    1    1    2    0  502 -0.17437956979E+03  0.18896715654E+03  0.10974007133E+04  0.11401706654E+04  0.17200000000E+03 0. -1.
<mgrwt>
<rscale>  2 0.30935549E+03</rscale>
<asrwt>0</asrwt>
<pdfrwt beam="1">  1       21 0.38065868E+00 0.30935549E+03</pdfrwt>
<pdfrwt beam="2">  1       21 0.20156971E-01 0.30935549E+03</pdfrwt>
<totfact> 0.22387121E+02</totfact>
</mgrwt>
</event>
<event>
 4    1  0.1115666E+000  0.1764337E+03  0.7546771E-02  0.1171300E+00
         21   -1    0    0  501  502  0.00000000000E+00  0.00000000000E+00  0.41845113072E+03  0.41845113072E+03  0.00000000000E+00 0. -1.
         21   -1    0    0  502  503 -0.00000000000E+00 -0.00000000000E+00 -0.17829307125E+03  0.17829307125E+03  0.00000000000E+00 0. -1.
          6    1    1    2  501    0 -0.33476980473E+02 -0.20595121657E+02  0.34785281290E+03  0.39003903228E+03  0.17200000000E+03 0. -1.
         -6    1    1    2    0  503  0.33476980473E+02  0.20595121657E+02 -0.10769475343E+03  0.20670516968E+03  0.17200000000E+03 0. -1.
<mgrwt>
<rscale>  2 0.17643375E+03</rscale>
<asrwt>0</asrwt>
<pdfrwt beam="1">  1       21 0.10461278E+00 0.17643375E+03</pdfrwt>
<pdfrwt beam="2">  1       21 0.44573269E-01 0.17643375E+03</pdfrwt>
<totfact> 0.36120582E+03</totfact>
</mgrwt>
</event>
<event>
 4    1  0.1115666E+000  0.1773555E+03  0.7546771E-02  0.1170387E+00
         21   -1    0    0  503  502  0.00000000000E+00  0.00000000000E+00  0.70597187778E+02  0.70597187778E+02  0.00000000000E+00 0.  1.
         21   -1    0    0  501  503 -0.00000000000E+00 -0.00000000000E+00 -0.54526786561E+03  0.54526786561E+03  0.00000000000E+00 0.  1.
          6    1    1    2  501    0 -0.34456115163E+02  0.26148691401E+02 -0.36901682940E+03  0.40942447205E+03  0.17200000000E+03 0.  1.
         -6    1    1    2    0  502  0.34456115163E+02 -0.26148691401E+02 -0.10565384843E+03  0.20644058134E+03  0.17200000000E+03 0.  1.
<mgrwt>
<rscale>  2 0.17735551E+03</rscale>
<asrwt>0</asrwt>
<pdfrwt beam="1">  1       21 0.17649298E-01 0.17735551E+03</pdfrwt>
<pdfrwt beam="2">  1       21 0.13631696E+00 0.17735551E+03</pdfrwt>
<totfact> 0.11284547E+04</totfact>
</mgrwt>
</event>
<event>
 4    1  0.1115666E+000  0.2288638E+03  0.7546771E-02  0.1127442E+00
         21   -1    0    0  501  502  0.00000000000E+00  0.00000000000E+00  0.33723391016E+03  0.33723391016E+03  0.00000000000E+00 0. -1.
         21   -1    0    0  502  503 -0.00000000000E+00 -0.00000000000E+00 -0.15579203137E+03  0.15579203137E+03  0.00000000000E+00 0. -1.
          6    1    1    2  501    0  0.26734529608E+02 -0.14859305491E+03  0.10431307829E+03  0.25151510759E+03  0.17200000000E+03 0. -1.
         -6    1    1    2    0  503 -0.26734529608E+02  0.14859305491E+03  0.77128800498E+02  0.24151083394E+03  0.17200000000E+03 0. -1.
<mgrwt>
<rscale>  2 0.22886378E+03</rscale>
<asrwt>0</asrwt>
<pdfrwt beam="1">  1       21 0.84308476E-01 0.22886378E+03</pdfrwt>
<pdfrwt beam="2">  1       21 0.38948008E-01 0.22886378E+03</pdfrwt>
<totfact> 0.75673860E+03</totfact>
</mgrwt>
</event>
<event>
 4    1  0.1115666E+000  0.1996601E+03  0.7546771E-02  0.1150026E+00
         21   -1    0    0  503  502  0.00000000000E+00  0.00000000000E+00  0.77392258608E+02  0.77392258608E+02  0.00000000000E+00 0.  1.
         21   -1    0    0  501  503 -0.00000000000E+00 -0.00000000000E+00 -0.52918642438E+03  0.52918642438E+03  0.00000000000E+00 0. -1.
          6    1    1    2  501    0  0.95184654939E+02  0.34929042547E+02 -0.27539328071E+03  0.34015528161E+03  0.17200000000E+03 0. -1.
         -6    1    1    2    0  502 -0.95184654939E+02 -0.34929042547E+02 -0.17640088506E+03  0.26642340137E+03  0.17200000000E+03 0. -1.
<mgrwt>
<rscale>  2 0.19966010E+03</rscale>
<asrwt>0</asrwt>
<pdfrwt beam="1">  1       21 0.19348065E-01 0.19966010E+03</pdfrwt>
<pdfrwt beam="2">  1       21 0.13229660E+00 0.19966010E+03</pdfrwt>
<totfact> 0.10102105E+04</totfact>
</mgrwt>
</event>
<event>
 4    1  0.1115666E+000  0.2685839E+03  0.7546771E-02  0.1102093E+00
         21   -1    0    0  501  502  0.00000000000E+00  0.00000000000E+00  0.53094073906E+03  0.53094073906E+03  0.00000000000E+00 0.  1.
         21   -1    0    0  502  503 -0.00000000000E+00 -0.00000000000E+00 -0.13622160520E+03  0.13622160520E+03  0.00000000000E+00 0. -1.
          6    1    1    2  501    0  0.91997186950E+02 -0.18463429347E+03  0.21438016875E+03  0.34365122070E+03  0.17200000000E+03 0. -1.
         -6    1    1    2    0  503 -0.91997186950E+02  0.18463429347E+03  0.18033896511E+03  0.32351112357E+03  0.17200000000E+03 0. -1.
<mgrwt>
<rscale>  2 0.26858389E+03</rscale>
<asrwt>0</asrwt>
<pdfrwt beam="1">  1       21 0.13273518E+00 0.26858389E+03</pdfrwt>
<pdfrwt beam="2">  1       21 0.34055403E-01 0.26858389E+03</pdfrwt>
<totfact> 0.32169618E+03</totfact>
</mgrwt>
</event>
<event>
 4    1  0.1115666E+000  0.1905329E+03  0.7546771E-02  0.1157982E+00
         21   -1    0    0  501  502  0.00000000000E+00  0.00000000000E+00  0.43541869030E+03  0.43541869030E+03  0.00000000000E+00 0. -1.
         21   -1    0    0  502  503 -0.00000000000E+00 -0.00000000000E+00 -0.91433134395E+02  0.91433134395E+02  0.00000000000E+00 0. -1.
          6    1    1    2  501    0  0.80378209199E+02  0.16065929160E+02  0.25019880076E+03  0.31448721833E+03  0.17200000000E+03 0. -1.
         -6    1    1    2    0  503 -0.80378209199E+02 -0.16065929160E+02  0.93786755143E+02  0.21236460636E+03  0.17200000000E+03 0. -1.
<mgrwt>
<rscale>  2 0.19053286E+03</rscale>
<asrwt>0</asrwt>
<pdfrwt beam="1">  1       21 0.10885467E+00 0.19053286E+03</pdfrwt>
<pdfrwt beam="2">  1       21 0.22858285E-01 0.19053286E+03</pdfrwt>
<totfact> 0.12046431E+04</totfact>
</mgrwt>
</event>
<event>
 4    1  0.1115666E+000  0.2018736E+03  0.7546771E-02  0.1148168E+00
         21   -1    0    0  501  502  0.00000000000E+00  0.00000000000E+00  0.19688387318E+03  0.19688387318E+03  0.00000000000E+00 0.  1.
         21   -1    0    0  502  503 -0.00000000000E+00 -0.00000000000E+00 -0.29715866692E+03  0.29715866692E+03  0.00000000000E+00 0. -1.
          6    1    1    2  501    0  0.99766506595E+02 -0.34865266805E+02 -0.18620934063E+03  0.27463951137E+03  0.17200000000E+03 0. -1.
         -6    1    1    2    0  503 -0.99766506595E+02  0.34865266805E+02  0.85934546891E+02  0.21940302873E+03  0.17200000000E+03 0. -1.
<mgrwt>
<rscale>  2 0.20187358E+03</rscale>
<asrwt>0</asrwt>
<pdfrwt beam="1">  1       21 0.49220968E-01 0.20187358E+03</pdfrwt>
<pdfrwt beam="2">  1       21 0.74289666E-01 0.20187358E+03</pdfrwt>
<totfact> 0.63499586E+03</totfact>
</mgrwt>
</event>
<event>
 4    1  0.1115666E+000  0.2433170E+03  0.7546771E-02  0.1117603E+00
         21   -1    0    0  501  502  0.00000000000E+00  0.00000000000E+00  0.19828870555E+03  0.19828870555E+03  0.00000000000E+00 0. -1.
         21   -1    0    0  502  503 -0.00000000000E+00 -0.00000000000E+00 -0.30075115978E+03  0.30075115978E+03  0.00000000000E+00 0. -1.
          6    1    1    2  501    0 -0.73590004416E+02 -0.15557528613E+03 -0.72478114854E+02  0.25388232616E+03  0.17200000000E+03 0. -1.
         -6    1    1    2    0  503  0.73590004416E+02  0.15557528613E+03 -0.29984339375E+02  0.24515753917E+03  0.17200000000E+03 0. -1.
<mgrwt>
<rscale>  2 0.24331699E+03</rscale>
<asrwt>0</asrwt>
<pdfrwt beam="1">  1       21 0.49572177E-01 0.24331699E+03</pdfrwt>
<pdfrwt beam="2">  1       21 0.75187790E-01 0.24331699E+03</pdfrwt>
<totfact> 0.59212381E+03</totfact>
</mgrwt>
</event>
<event>
 4    1  0.1115666E+000  0.1841220E+03  0.7546771E-02  0.1163872E+00
         21   -1    0    0  501  502  0.00000000000E+00  0.00000000000E+00  0.23742524074E+03  0.23742524074E+03  0.00000000000E+00 0.  1.
         21   -1    0    0  502  503 -0.00000000000E+00 -0.00000000000E+00 -0.22261241967E+03  0.22261241967E+03  0.00000000000E+00 0. -1.
          6    1    1    2  501    0  0.64155049561E+02  0.14179335667E+02  0.14514730442E+03  0.23445396974E+03  0.17200000000E+03 0.  1.
         -6    1    1    2    0  503 -0.64155049561E+02 -0.14179335667E+02 -0.13033448335E+03  0.22558369067E+03  0.17200000000E+03 0. -1.
<mgrwt>
<rscale>  2 0.18412204E+03</rscale>
<asrwt>0</asrwt>
<pdfrwt beam="1">  1       21 0.59356310E-01 0.18412204E+03</pdfrwt>
<pdfrwt beam="2">  1       21 0.55653105E-01 0.18412204E+03</pdfrwt>
<totfact> 0.81169557E+03</totfact>
</mgrwt>
</event>
<event>
 4    1  0.1115666E+000  0.2099883E+03  0.7546771E-02  0.1141575E+00
         21   -1    0    0  501  502  0.00000000000E+00  0.00000000000E+00  0.12915771930E+03  0.12915771930E+03  0.00000000000E+00 0.  1.
         21   -1    0    0  502  503 -0.00000000000E+00 -0.00000000000E+00 -0.34140522856E+03  0.34140522856E+03  0.00000000000E+00 0.  1.
          6    1    1    2  501    0 -0.11879833986E+03 -0.19950628864E+02 -0.10636803817E+03  0.23539165807E+03  0.17200000000E+03 0.  1.
         -6    1    1    2    0  503  0.11879833986E+03  0.19950628864E+02 -0.10587947108E+03  0.23517128979E+03  0.17200000000E+03 0.  1.
<mgrwt>
<rscale>  2 0.20998827E+03</rscale>
<asrwt>0</asrwt>
<pdfrwt beam="1">  1       21 0.32289430E-01 0.20998827E+03</pdfrwt>
<pdfrwt beam="2">  1       21 0.85351307E-01 0.20998827E+03</pdfrwt>
<totfact> 0.10825065E+04</totfact>
</mgrwt>
</event>
<event>
 4    1  0.1115666E+000  0.1844734E+03  0.7546771E-02  0.1163543E+00
         21   -1    0    0  501  502  0.00000000000E+00  0.00000000000E+00  0.44524732132E+03  0.44524732132E+03  0.00000000000E+00 0. -1.
         21   -1    0    0  502  503 -0.00000000000E+00 -0.00000000000E+00 -0.83244518207E+02  0.83244518207E+02  0.00000000000E+00 0. -1.
          6    1    1    2  501    0 -0.65937297113E+02  0.99347809417E+01  0.25660380022E+03  0.31603154480E+03  0.17200000000E+03 0. -1.
         -6    1    1    2    0  503  0.65937297113E+02 -0.99347809417E+01  0.10539900289E+03  0.21246029472E+03  0.17200000000E+03 0. -1.
<mgrwt>
<rscale>  2 0.18447338E+03</rscale>
<asrwt>0</asrwt>
<pdfrwt beam="1">  1       21 0.11131182E+00 0.18447338E+03</pdfrwt>
<pdfrwt beam="2">  1       21 0.20811131E-01 0.18447338E+03</pdfrwt>
<totfact> 0.13673810E+04</totfact>
</mgrwt>
</event>
<event>
 4    1  0.1115666E+000  0.1997227E+03  0.7546771E-02  0.1149973E+00
         21   -1    0    0  501  502  0.00000000000E+00  0.00000000000E+00  0.49060160137E+03  0.49060160137E+03  0.00000000000E+00 0. -1.
         21   -1    0    0  502  503 -0.00000000000E+00 -0.00000000000E+00 -0.24999108557E+03  0.24999108557E+03  0.00000000000E+00 0.  1.
          6    1    1    2  501    0 -0.80336292750E+02  0.62058351644E+02  0.42448108987E+03  0.46911976573E+03  0.17200000000E+03 0. -1.
         -6    1    1    2    0  503  0.80336292750E+02 -0.62058351644E+02 -0.18387057407E+03  0.27147292121E+03  0.17200000000E+03 0.  1.
<mgrwt>
<rscale>  2 0.19972271E+03</rscale>
<asrwt>0</asrwt>
<pdfrwt beam="1">  1       21 0.12265040E+00 0.19972271E+03</pdfrwt>
<pdfrwt beam="2">  1       21 0.62497772E-01 0.19972271E+03</pdfrwt>
<totfact> 0.11787271E+03</totfact>
</mgrwt>
</event>
<event>
 4    1  0.1115666E+000  0.2856693E+03  0.7546771E-02  0.1092632E+00
         21   -1    0    0  503  502  0.00000000000E+00  0.00000000000E+00  0.12284346146E+03  0.12284346146E+03  0.00000000000E+00 0.  1.
         21   -1    0    0  501  503 -0.00000000000E+00 -0.00000000000E+00 -0.84177380100E+03  0.84177380100E+03  0.00000000000E+00 0. -1.
          6    1    1    2  501    0  0.68214623672E+02 -0.21764586507E+03 -0.58091435016E+03  0.64735495649E+03  0.17200000000E+03 0. -1.
         -6    1    1    2    0  502 -0.68214623672E+02  0.21764586507E+03 -0.13801598937E+03  0.31726230597E+03  0.17200000000E+03 0.  1.
<mgrwt>
<rscale>  2 0.28566931E+03</rscale>
<asrwt>0</asrwt>
<pdfrwt beam="1">  1       21 0.30710866E-01 0.28566931E+03</pdfrwt>
<pdfrwt beam="2">  1       21 0.21044345E+00 0.28566931E+03</pdfrwt>
<totfact> 0.10758444E+03</totfact>
</mgrwt>
</event>
<event>
 4    1  0.1115666E+000  0.2032372E+03  0.7546771E-02  0.1147036E+00
         21   -1    0    0  503  502  0.00000000000E+00  0.00000000000E+00  0.44261486411E+03  0.44261486411E+03  0.00000000000E+00 0.  1.
         21   -1    0    0  501  503 -0.00000000000E+00 -0.00000000000E+00 -0.10890094204E+03  0.10890094204E+03  0.00000000000E+00 0.  1.
          6    1    1    2  501    0 -0.14119363121E+02  0.10734060139E+03  0.62555128531E+02  0.21264643244E+03  0.17200000000E+03 0.  1.
         -6    1    1    2    0  502  0.14119363121E+02 -0.10734060139E+03  0.27115879354E+03  0.33886937371E+03  0.17200000000E+03 0.  1.
<mgrwt>
<rscale>  2 0.20323720E+03</rscale>
<asrwt>0</asrwt>
<pdfrwt beam="1">  1       21 0.11065371E+00 0.20323720E+03</pdfrwt>
<pdfrwt beam="2">  1       21 0.27225237E-01 0.20323720E+03</pdfrwt>
<totfact> 0.82161701E+03</totfact>
</mgrwt>
</event>
<event>
 4    1  0.1115666E+000  0.2656056E+03  0.7546771E-02  0.1103821E+00
         21   -1    0    0  503  502  0.00000000000E+00  0.00000000000E+00  0.22395640543E+03  0.22395640543E+03  0.00000000000E+00 0. -1.
         21   -1    0    0  501  503 -0.00000000000E+00 -0.00000000000E+00 -0.32289422284E+03  0.32289422284E+03  0.00000000000E+00 0.  1.
          6    1    1    2  501    0 -0.43353336463E+01  0.20234512455E+03 -0.67171647317E+01  0.26569054340E+03  0.17200000000E+03 0. -1.
         -6    1    1    2    0  502  0.43353336463E+01 -0.20234512455E+03 -0.92220652675E+02  0.28116008488E+03  0.17200000000E+03 0.  1.
<mgrwt>
<rscale>  2 0.26560562E+03</rscale>
<asrwt>0</asrwt>
<pdfrwt beam="1">  1       21 0.55989102E-01 0.26560562E+03</pdfrwt>
<pdfrwt beam="2">  1       21 0.80723555E-01 0.26560562E+03</pdfrwt>
<totfact> 0.38434605E+03</totfact>
</mgrwt>
</event>
<event>
 4    1  0.1115666E+000  0.1832176E+03  0.7546771E-02  0.1164725E+00
         21   -1    0    0  501  502  0.00000000000E+00  0.00000000000E+00  0.20209329275E+03  0.20209329275E+03  0.00000000000E+00 0.  1.
         21   -1    0    0  502  503 -0.00000000000E+00 -0.00000000000E+00 -0.22059713895E+03  0.22059713895E+03  0.00000000000E+00 0.  1.
          6    1    1    2  501    0 -0.59938920074E+02  0.19799629544E+02  0.95789246222E+02  0.20674689638E+03  0.17200000000E+03 0.  1.
         -6    1    1    2    0  503  0.59938920074E+02 -0.19799629544E+02 -0.11429309242E+03  0.21594353532E+03  0.17200000000E+03 0.  1.
<mgrwt>
<rscale>  2 0.18321763E+03</rscale>
<asrwt>0</asrwt>
<pdfrwt beam="1">  1       21 0.50523323E-01 0.18321763E+03</pdfrwt>
<pdfrwt beam="2">  1       21 0.55149284E-01 0.18321763E+03</pdfrwt>
<totfact> 0.11636534E+04</totfact>
</mgrwt>
</event>
<event>
 4    1  0.1115666E+000  0.3073166E+03  0.7546771E-02  0.1081639E+00
         21   -1    0    0  503  502  0.00000000000E+00  0.00000000000E+00  0.21300515643E+03  0.21300515643E+03  0.00000000000E+00 0.  1.
         21   -1    0    0  501  503 -0.00000000000E+00 -0.00000000000E+00 -0.72748947417E+03  0.72748947417E+03  0.00000000000E+00 0. -1.
          6    1    1    2  501    0  0.93659973440E+02 -0.23682759815E+03 -0.55110944937E+03  0.63100327024E+03  0.17200000000E+03 0.  1.
         -6    1    1    2    0  502 -0.93659973440E+02  0.23682759815E+03  0.36625131628E+02  0.30949136036E+03  0.17200000000E+03 0.  1.
<mgrwt>
<rscale>  2 0.30731662E+03</rscale>
<asrwt>0</asrwt>
<pdfrwt beam="1">  1       21 0.53251290E-01 0.30731662E+03</pdfrwt>
<pdfrwt beam="2">  1       21 0.18187237E+00 0.30731662E+03</pdfrwt>
<totfact> 0.53070537E+02</totfact>
</mgrwt>
</event>
<event>
 4    1  0.1115666E+000  0.1795903E+03  0.7546771E-02  0.1168200E+00
         21   -1    0    0  501  502  0.00000000000E+00  0.00000000000E+00  0.79714661888E+03  0.79714661888E+03  0.00000000000E+00 0. -1.
         21   -1    0    0  502  503 -0.00000000000E+00 -0.00000000000E+00 -0.49205214629E+02  0.49205214629E+02  0.00000000000E+00 0. -1.
          6    1    1    2  501    0 -0.18376118619E+02  0.48280521317E+02  0.55237130087E+03  0.58083280253E+03  0.17200000000E+03 0. -1.
         -6    1    1    2    0  503  0.18376118619E+02 -0.48280521317E+02  0.19557010338E+03  0.26551903098E+03  0.17200000000E+03 0. -1.
<mgrwt>
<rscale>  2 0.17959034E+03</rscale>
<asrwt>0</asrwt>
<pdfrwt beam="1">  1       21 0.19928661E+00 0.17959034E+03</pdfrwt>
<pdfrwt beam="2">  1       21 0.12301306E-01 0.17959034E+03</pdfrwt>
<totfact> 0.77062558E+03</totfact>
</mgrwt>
</event>
<event>
 4    1  0.1115666E+000  0.2217947E+03  0.7546771E-02  0.1132552E+00
         21   -1    0    0  501  502  0.00000000000E+00  0.00000000000E+00  0.28183002363E+03  0.28183002363E+03  0.00000000000E+00 0. -1.
         21   -1    0    0  502  503 -0.00000000000E+00 -0.00000000000E+00 -0.31942623728E+03  0.31942623728E+03  0.00000000000E+00 0. -1.
          6    1    1    2  501    0  0.50066135896E+02 -0.13077571253E+03 -0.22126112087E+03  0.31328802812E+03  0.17200000000E+03 0. -1.
         -6    1    1    2    0  503 -0.50066135896E+02  0.13077571253E+03  0.18366490723E+03  0.28796823280E+03  0.17200000000E+03 0. -1.
<mgrwt>
<rscale>  2 0.22179474E+03</rscale>
<asrwt>0</asrwt>
<pdfrwt beam="1">  1       21 0.70457506E-01 0.22179474E+03</pdfrwt>
<pdfrwt beam="2">  1       21 0.79856559E-01 0.22179474E+03</pdfrwt>
<totfact> 0.24613257E+03</totfact>
</mgrwt>
</event>
<event>
 4    1  0.1115666E+000  0.1936131E+03  0.7546771E-02  0.1155242E+00
         21   -1    0    0  503  502  0.00000000000E+00  0.00000000000E+00  0.37354542311E+02  0.37354542311E+02  0.00000000000E+00 0.  1.
         21   -1    0    0  501  503 -0.00000000000E+00 -0.00000000000E+00 -0.10035844571E+04  0.10035844571E+04  0.00000000000E+00 0.  1.
          6    1    1    2  501    0  0.50015539316E+02 -0.73488036737E+02 -0.48727271187E+03  0.52432884858E+03  0.17200000000E+03 0.  1.
         -6    1    1    2    0  502 -0.50015539316E+02  0.73488036737E+02 -0.47895720290E+03  0.51661015082E+03  0.17200000000E+03 0.  1.
<mgrwt>
<rscale>  2 0.19361313E+03</rscale>
<asrwt>0</asrwt>
<pdfrwt beam="1">  1       21 0.93386358E-02 0.19361313E+03</pdfrwt>
<pdfrwt beam="2">  1       21 0.25089611E+00 0.19361313E+03</pdfrwt>
<totfact> 0.60079669E+03</totfact>
</mgrwt>
</event>
<event>
 4    1  0.1115666E+000  0.2721597E+03  0.7546771E-02  0.1100050E+00
         21   -1    0    0  503  502  0.00000000000E+00  0.00000000000E+00  0.77582387885E+02  0.77582387885E+02  0.00000000000E+00 0. -1.
         21   -1    0    0  501  503 -0.00000000000E+00 -0.00000000000E+00 -0.14393471524E+04  0.14393471524E+04  0.00000000000E+00 0. -1.
          6    1    1    2  501    0  0.55482467565E+02 -0.20349100387E+03 -0.11209791889E+04  0.11535446393E+04  0.17200000000E+03 0. -1.
         -6    1    1    2    0  502 -0.55482467565E+02  0.20349100387E+03 -0.24078557564E+03  0.36338490104E+03  0.17200000000E+03 0. -1.
<mgrwt>
<rscale>  2 0.27215968E+03</rscale>
<asrwt>0</asrwt>
<pdfrwt beam="1">  1       21 0.19395599E-01 0.27215968E+03</pdfrwt>
<pdfrwt beam="2">  1       21 0.35983676E+00 0.27215968E+03</pdfrwt>
<totfact> 0.33588656E+02</totfact>
</mgrwt>
</event>
<event>
 4    1  0.1115666E+000  0.1779491E+03  0.7546771E-02  0.1169803E+00
         21   -1    0    0  501  502  0.00000000000E+00  0.00000000000E+00  0.13213796575E+03  0.13213796575E+03  0.00000000000E+00 0. -1.
         21   -1    0    0  502  503 -0.00000000000E+00 -0.00000000000E+00 -0.25844509374E+03  0.25844509374E+03  0.00000000000E+00 0. -1.
          6    1    1    2  501    0  0.18922486665E+02 -0.41518867581E+02 -0.11582895368E+03  0.21232574827E+03  0.17200000000E+03 0. -1.
         -6    1    1    2    0  503 -0.18922486665E+02  0.41518867581E+02 -0.10478174314E+02  0.17825731122E+03  0.17200000000E+03 0. -1.
<mgrwt>
<rscale>  2 0.17794909E+03</rscale>
<asrwt>0</asrwt>
<pdfrwt beam="1">  1       21 0.33034492E-01 0.17794909E+03</pdfrwt>
<pdfrwt beam="2">  1       21 0.64611273E-01 0.17794909E+03</pdfrwt>
<totfact> 0.19654760E+04</totfact>
</mgrwt>
</event>
<event>
 4    1  0.1115666E+000  0.1801295E+03  0.7546771E-02  0.1167678E+00
         21   -1    0    0  501  502  0.00000000000E+00  0.00000000000E+00  0.99070863478E+03  0.99070863478E+03  0.00000000000E+00 0.  1.
         21   -1    0    0  502  503 -0.00000000000E+00 -0.00000000000E+00 -0.87530079419E+02  0.87530079419E+02  0.00000000000E+00 0.  1.
          6    1    1    2  501    0 -0.83481019249E+00  0.53497136495E+02  0.87808419602E+03  0.89636962009E+03  0.17200000000E+03 0.  1.
         -6    1    1    2    0  503  0.83481019249E+00 -0.53497136495E+02  0.25094359342E+02  0.18186909411E+03  0.17200000000E+03 0.  1.
<mgrwt>
<rscale>  2 0.18012951E+03</rscale>
<asrwt>0</asrwt>
<pdfrwt beam="1">  1       21 0.24767712E+00 0.18012951E+03</pdfrwt>
<pdfrwt beam="2">  1       21 0.21882523E-01 0.18012951E+03</pdfrwt>
<totfact> 0.13588560E+03</totfact>
</mgrwt>
</event>
<event>
 4    1  0.1115666E+000  0.2309283E+03  0.7546771E-02  0.1125988E+00
         21   -1    0    0  503  502  0.00000000000E+00  0.00000000000E+00  0.70649110405E+03  0.70649110405E+03  0.00000000000E+00 0.  1.
         21   -1    0    0  501  503 -0.00000000000E+00 -0.00000000000E+00 -0.77679337496E+02  0.77679337496E+02  0.00000000000E+00 0.  1.
          6    1    1    2  501    0  0.15272906294E+03 -0.20438299093E+02  0.24847300121E+03  0.33921486269E+03  0.17200000000E+03 0.  1.
         -6    1    1    2    0  502 -0.15272906294E+03  0.20438299093E+02  0.38033876534E+03  0.44495557886E+03  0.17200000000E+03 0.  1.
<mgrwt>
<rscale>  2 0.23092832E+03</rscale>
<asrwt>0</asrwt>
<pdfrwt beam="1">  1       21 0.17662276E+00 0.23092832E+03</pdfrwt>
<pdfrwt beam="2">  1       21 0.19419837E-01 0.23092832E+03</pdfrwt>
<totfact> 0.45316795E+03</totfact>
</mgrwt>
</event>
<event>
 4    1  0.1115666E+000  0.1931819E+03  0.7546771E-02  0.1155622E+00
         21   -1    0    0  501  502  0.00000000000E+00  0.00000000000E+00  0.17890436664E+03  0.17890436664E+03  0.00000000000E+00 0.  1.
         21   -1    0    0  502  503 -0.00000000000E+00 -0.00000000000E+00 -0.20873651884E+03  0.20873651884E+03  0.00000000000E+00 0. -1.
          6    1    1    2  501    0 -0.87927732278E+02  0.19892145605E+01 -0.19893863797E+02  0.19420352441E+03  0.17200000000E+03 0.  1.
         -6    1    1    2    0  503  0.87927732278E+02 -0.19892145605E+01 -0.99382884019E+01  0.19343736106E+03  0.17200000000E+03 0.  1.
<mgrwt>
<rscale>  2 0.19318189E+03</rscale>
<asrwt>0</asrwt>
<pdfrwt beam="1">  1       21 0.44726092E-01 0.19318189E+03</pdfrwt>
<pdfrwt beam="2">  1       21 0.52184129E-01 0.19318189E+03</pdfrwt>
<totfact> 0.16715468E+04</totfact>
</mgrwt>
</event>
<event>
 4    1  0.1115666E+000  0.1801526E+03  0.7546771E-02  0.1167655E+00
         21   -1    0    0  501  502  0.00000000000E+00  0.00000000000E+00  0.12269769468E+03  0.12269769468E+03  0.00000000000E+00 0. -1.
         21   -1    0    0  502  503 -0.00000000000E+00 -0.00000000000E+00 -0.27229260174E+03  0.27229260174E+03  0.00000000000E+00 0. -1.
          6    1    1    2  501    0 -0.72037949757E-01  0.53581350954E+02 -0.41412127305E+02  0.18485110399E+03  0.17200000000E+03 0. -1.
         -6    1    1    2    0  503  0.72037949757E-01 -0.53581350954E+02 -0.10818277976E+03  0.21013919243E+03  0.17200000000E+03 0. -1.
<mgrwt>
<rscale>  2 0.18015262E+03</rscale>
<asrwt>0</asrwt>
<pdfrwt beam="1">  1       21 0.30674424E-01 0.18015262E+03</pdfrwt>
<pdfrwt beam="2">  1       21 0.68073150E-01 0.18015262E+03</pdfrwt>
<totfact> 0.20254675E+04</totfact>
</mgrwt>
</event>
<event>
 4    1  0.1115666E+000  0.1955679E+03  0.7546771E-02  0.1153533E+00
         21   -1    0    0  501  502  0.00000000000E+00  0.00000000000E+00  0.12755149255E+04  0.12755149255E+04  0.00000000000E+00 0. -1.
         21   -1    0    0  502  503 -0.00000000000E+00 -0.00000000000E+00 -0.39317918037E+02  0.39317918037E+02  0.00000000000E+00 0. -1.
          6    1    1    2  501    0 -0.67739047572E+02 -0.63829610261E+02  0.93838985601E+03  0.95855219972E+03  0.17200000000E+03 0. -1.
         -6    1    1    2    0  503  0.67739047572E+02  0.63829610261E+02  0.29780715149E+03  0.35628064386E+03  0.17200000000E+03 0. -1.
<mgrwt>
<rscale>  2 0.19556789E+03</rscale>
<asrwt>0</asrwt>
<pdfrwt beam="1">  1       21 0.31887859E+00 0.19556789E+03</pdfrwt>
<pdfrwt beam="2">  1       21 0.98294837E-02 0.19556789E+03</pdfrwt>
<totfact> 0.22138257E+03</totfact>
</mgrwt>
</event>
<event>
 4    1  0.1115666E+000  0.2013581E+03  0.7546771E-02  0.1148598E+00
         21   -1    0    0  503  502  0.00000000000E+00  0.00000000000E+00  0.16954964180E+04  0.16954964180E+04  0.00000000000E+00 0. -1.
         21   -1    0    0  501  503 -0.00000000000E+00 -0.00000000000E+00 -0.43141650325E+03  0.43141650325E+03  0.00000000000E+00 0. -1.
          6    1    1    2  501    0 -0.82872088221E+02 -0.63979003205E+02 -0.40152266042E+03  0.44918319502E+03  0.17200000000E+03 0. -1.
         -6    1    1    2    0  502  0.82872088221E+02  0.63979003205E+02  0.16656025752E+04  0.16777297263E+04  0.17200000000E+03 0. -1.
<mgrwt>
<rscale>  2 0.20135813E+03</rscale>
<asrwt>0</asrwt>
<pdfrwt beam="1">  1       21 0.42387409E+00 0.20135813E+03</pdfrwt>
<pdfrwt beam="2">  1       21 0.10785413E+00 0.20135813E+03</pdfrwt>
<totfact> 0.41368780E+00</totfact>
</mgrwt>
</event>
<event>
 4    1  0.1115666E+000  0.1801430E+03  0.7546771E-02  0.1167665E+00
         21   -1    0    0  501  502  0.00000000000E+00  0.00000000000E+00  0.20178539116E+03  0.20178539116E+03  0.00000000000E+00 0.  1.
         21   -1    0    0  502  503 -0.00000000000E+00 -0.00000000000E+00 -0.23544140084E+03  0.23544140084E+03  0.00000000000E+00 0.  1.
          6    1    1    2  501    0  0.49007042956E+02 -0.21582588979E+02  0.10624468462E+03  0.20913974136E+03  0.17200000000E+03 0.  1.
         -6    1    1    2    0  503 -0.49007042956E+02  0.21582588979E+02 -0.13990069430E+03  0.22808705064E+03  0.17200000000E+03 0.  1.
<mgrwt>
<rscale>  2 0.18014299E+03</rscale>
<asrwt>0</asrwt>
<pdfrwt beam="1">  1       21 0.50446348E-01 0.18014299E+03</pdfrwt>
<pdfrwt beam="2">  1       21 0.58860350E-01 0.18014299E+03</pdfrwt>
<totfact> 0.10186580E+04</totfact>
</mgrwt>
</event>
<event>
 4    1  0.1115666E+000  0.2105050E+03  0.7546771E-02  0.1141167E+00
         21   -1    0    0  503  502  0.00000000000E+00  0.00000000000E+00  0.33190374721E+03  0.33190374721E+03  0.00000000000E+00 0.  1.
         21   -1    0    0  501  503 -0.00000000000E+00 -0.00000000000E+00 -0.13351074911E+03  0.13351074911E+03  0.00000000000E+00 0.  1.
          6    1    1    2  501    0  0.67528220354E+01 -0.12117249656E+03  0.99844299301E+02  0.23298338703E+03  0.17200000000E+03 0.  1.
         -6    1    1    2    0  502 -0.67528220354E+01  0.12117249656E+03  0.98548698801E+02  0.23243110929E+03  0.17200000000E+03 0.  1.
<mgrwt>
<rscale>  2 0.21050505E+03</rscale>
<asrwt>0</asrwt>
<pdfrwt beam="1">  1       21 0.82975935E-01 0.21050505E+03</pdfrwt>
<pdfrwt beam="2">  1       21 0.33377688E-01 0.21050505E+03</pdfrwt>
<totfact> 0.10812455E+04</totfact>
</mgrwt>
</event>
<event>
 4    1  0.1115666E+000  0.1910594E+03  0.7546771E-02  0.1157509E+00
         21   -1    0    0  501  502  0.00000000000E+00  0.00000000000E+00  0.15388386214E+03  0.15388386214E+03  0.00000000000E+00 0.  1.
         21   -1    0    0  502  503 -0.00000000000E+00 -0.00000000000E+00 -0.37757931086E+03  0.37757931086E+03  0.00000000000E+00 0. -1.
          6    1    1    2  501    0  0.70891854084E+02  0.43520682951E+02  0.50171288665E+02  0.19753699154E+03  0.17200000000E+03 0.  1.
         -6    1    1    2    0  503 -0.70891854084E+02 -0.43520682951E+02 -0.27386673739E+03  0.33392618146E+03  0.17200000000E+03 0. -1.
<mgrwt>
<rscale>  2 0.19105943E+03</rscale>
<asrwt>0</asrwt>
<pdfrwt beam="1">  1       21 0.38470966E-01 0.19105943E+03</pdfrwt>
<pdfrwt beam="2">  1       21 0.94394827E-01 0.19105943E+03</pdfrwt>
<totfact> 0.61342264E+03</totfact>
</mgrwt>
</event>
<event>
 4    1  0.1115666E+000  0.2201410E+03  0.7546771E-02  0.1133778E+00
         21   -1    0    0  501  502  0.00000000000E+00  0.00000000000E+00  0.27232926853E+03  0.27232926853E+03  0.00000000000E+00 0.  1.
         21   -1    0    0  502  503 -0.00000000000E+00 -0.00000000000E+00 -0.41756463365E+03  0.41756463365E+03  0.00000000000E+00 0. -1.
          6    1    1    2  501    0 -0.66317043981E+02  0.12033331024E+03  0.18868483227E+03  0.28993796199E+03  0.17200000000E+03 0.  1.
         -6    1    1    2    0  503  0.66317043981E+02 -0.12033331024E+03 -0.33392019738E+03  0.39995594019E+03  0.17200000000E+03 0. -1.
<mgrwt>
<rscale>  2 0.22014099E+03</rscale>
<asrwt>0</asrwt>
<pdfrwt beam="1">  1       21 0.68082318E-01 0.22014099E+03</pdfrwt>
<pdfrwt beam="2">  1       21 0.10439116E+00 0.22014099E+03</pdfrwt>
<totfact> 0.14228468E+03</totfact>
</mgrwt>
</event>
<event>
 4    1  0.1115666E+000  0.1775783E+03  0.7546771E-02  0.1170168E+00
         21   -1    0    0  501  502  0.00000000000E+00  0.00000000000E+00  0.56186500856E+02  0.56186500856E+02  0.00000000000E+00 0. -1.
         21   -1    0    0  502  503 -0.00000000000E+00 -0.00000000000E+00 -0.66034366096E+03  0.66034366096E+03  0.00000000000E+00 0. -1.
          6    1    1    2  501    0 -0.38894828352E+02 -0.20910744741E+02 -0.16328605687E+03  0.24123930709E+03  0.17200000000E+03 0. -1.
         -6    1    1    2    0  503  0.38894828352E+02  0.20910744741E+02 -0.44087110323E+03  0.47529085472E+03  0.17200000000E+03 0. -1.
<mgrwt>
<rscale>  2 0.17757834E+03</rscale>
<asrwt>0</asrwt>
<pdfrwt beam="1">  1       21 0.14046625E-01 0.17757834E+03</pdfrwt>
<pdfrwt beam="2">  1       21 0.16508591E+00 0.17757834E+03</pdfrwt>
<totfact> 0.10342234E+04</totfact>
</mgrwt>
</event>
<event>
 4    1  0.1115666E+000  0.1770853E+03  0.7546771E-02  0.1170654E+00
         21   -1    0    0  503  502  0.00000000000E+00  0.00000000000E+00  0.12472435990E+03  0.12472435990E+03  0.00000000000E+00 0.  1.
         21   -1    0    0  501  503 -0.00000000000E+00 -0.00000000000E+00 -0.33671587057E+03  0.33671587057E+03  0.00000000000E+00 0.  1.
          6    1    1    2  501    0  0.18498238810E+02 -0.37855340606E+02 -0.22211307170E+03  0.28406588721E+03  0.17200000000E+03 0. -1.
         -6    1    1    2    0  502 -0.18498238810E+02  0.37855340606E+02  0.10121561039E+02  0.17737434327E+03  0.17200000000E+03 0. -1.
<mgrwt>
<rscale>  2 0.17708532E+03</rscale>
<asrwt>0</asrwt>
<pdfrwt beam="1">  1       21 0.31181090E-01 0.17708532E+03</pdfrwt>
<pdfrwt beam="2">  1       21 0.84178967E-01 0.17708532E+03</pdfrwt>
<totfact> 0.12235307E+04</totfact>
</mgrwt>
</event>
<event>
 4    1  0.1115666E+000  0.2118227E+03  0.7546771E-02  0.1140131E+00
         21   -1    0    0  503  502  0.00000000000E+00  0.00000000000E+00  0.61903505362E+03  0.61903505362E+03  0.00000000000E+00 0. -1.
         21   -1    0    0  501  503 -0.00000000000E+00 -0.00000000000E+00 -0.10539146225E+03  0.10539146225E+03  0.00000000000E+00 0.  1.
          6    1    1    2  501    0 -0.55681132027E+02 -0.11038336003E+03  0.54416310567E+02  0.21870073043E+03  0.17200000000E+03 0.  1.
         -6    1    1    2    0  502  0.55681132027E+02  0.11038336003E+03  0.45922728080E+03  0.50572578544E+03  0.17200000000E+03 0. -1.
<mgrwt>
<rscale>  2 0.21182274E+03</rscale>
<asrwt>0</asrwt>
<pdfrwt beam="1">  1       21 0.15475875E+00 0.21182274E+03</pdfrwt>
<pdfrwt beam="2">  1       21 0.26347867E-01 0.21182274E+03</pdfrwt>
<totfact> 0.37078623E+03</totfact>
</mgrwt>
</event>
<event>
 4    1  0.1115666E+000  0.2458930E+03  0.7546771E-02  0.1115928E+00
         21   -1    0    0  501  502  0.00000000000E+00  0.00000000000E+00  0.13070095518E+04  0.13070095518E+04  0.00000000000E+00 0. -1.
         21   -1    0    0  502  503 -0.00000000000E+00 -0.00000000000E+00 -0.28289670089E+03  0.28289670089E+03  0.00000000000E+00 0. -1.
          6    1    1    2  501    0  0.57439309679E+02  0.16607260431E+03  0.12391123927E+04  0.12632746756E+04  0.17200000000E+03 0. -1.
         -6    1    1    2    0  503 -0.57439309679E+02 -0.16607260431E+03 -0.21499954180E+03  0.32663157712E+03  0.17200000000E+03 0. -1.
<mgrwt>
<rscale>  2 0.24589303E+03</rscale>
<asrwt>0</asrwt>
<pdfrwt beam="1">  1       21 0.32675237E+00 0.24589303E+03</pdfrwt>
<pdfrwt beam="2">  1       21 0.70724179E-01 0.24589303E+03</pdfrwt>
<totfact> 0.39766002E+01</totfact>
</mgrwt>
</event>
<event>
 4    1  0.1115666E+000  0.1828063E+03  0.7546771E-02  0.1165114E+00
         21   -1    0    0  503  502  0.00000000000E+00  0.00000000000E+00  0.14118147409E+03  0.14118147409E+03  0.00000000000E+00 0. -1.
         21   -1    0    0  501  503 -0.00000000000E+00 -0.00000000000E+00 -0.24996966795E+03  0.24996966795E+03  0.00000000000E+00 0. -1.
          6    1    1    2  501    0 -0.47475301295E+02 -0.39752283456E+02 -0.99449179120E+02  0.20810643311E+03  0.17200000000E+03 0. -1.
         -6    1    1    2    0  502  0.47475301295E+02  0.39752283456E+02 -0.93390147434E+01  0.18304470894E+03  0.17200000000E+03 0. -1.
<mgrwt>
<rscale>  2 0.18280631E+03</rscale>
<asrwt>0</asrwt>
<pdfrwt beam="1">  1       21 0.35295369E-01 0.18280631E+03</pdfrwt>
<pdfrwt beam="2">  1       21 0.62492417E-01 0.18280631E+03</pdfrwt>
<totfact> 0.18480028E+04</totfact>
</mgrwt>
</event>
<event>
 4    1  0.1115666E+000  0.1762810E+03  0.7546771E-02  0.1171452E+00
         21   -1    0    0  501  502  0.00000000000E+00  0.00000000000E+00  0.17575371982E+03  0.17575371982E+03  0.00000000000E+00 0.  1.
         21   -1    0    0  502  503 -0.00000000000E+00 -0.00000000000E+00 -0.17692106743E+03  0.17692106743E+03  0.00000000000E+00 0.  1.
          6    1    1    2  501    0  0.25089359716E+02  0.29351807754E+02  0.38357538430E+01  0.17632276540E+03  0.17200000000E+03 0. -1.
         -6    1    1    2    0  503 -0.25089359716E+02 -0.29351807754E+02 -0.50031014574E+01  0.17635202186E+03  0.17200000000E+03 0. -1.
<mgrwt>
<rscale>  2 0.17628104E+03</rscale>
<asrwt>0</asrwt>
<pdfrwt beam="1">  1       21 0.43938430E-01 0.17628104E+03</pdfrwt>
<pdfrwt beam="2">  1       21 0.44230267E-01 0.17628104E+03</pdfrwt>
<totfact> 0.24660335E+04</totfact>
</mgrwt>
</event>
<event>
 4    1  0.1115666E+000  0.1738537E+03  0.7546771E-02  0.1173888E+00
         21   -1    0    0  501  502  0.00000000000E+00  0.00000000000E+00  0.20582498058E+02  0.20582498058E+02  0.00000000000E+00 0.  1.
         21   -1    0    0  502  503 -0.00000000000E+00 -0.00000000000E+00 -0.15087290816E+04  0.15087290816E+04  0.00000000000E+00 0.  1.
          6    1    1    2  501    0  0.15570013816E+02  0.19967205283E+02 -0.61918986168E+03  0.64313388919E+03  0.17200000000E+03 0.  1.
         -6    1    1    2    0  503 -0.15570013816E+02 -0.19967205283E+02 -0.86895672190E+03  0.88617769051E+03  0.17200000000E+03 0.  1.
<mgrwt>
<rscale>  2 0.17385372E+03</rscale>
<asrwt>0</asrwt>
<pdfrwt beam="1">  1       21 0.51456259E-02 0.17385372E+03</pdfrwt>
<pdfrwt beam="2">  1       21 0.37718217E+00 0.17385372E+03</pdfrwt>
<totfact> 0.31672884E+03</totfact>
</mgrwt>
</event>
<event>
 4    1  0.1115666E+000  0.1910560E+03  0.7546771E-02  0.1157512E+00
         21   -1    0    0  501  502  0.00000000000E+00  0.00000000000E+00  0.32801328155E+03  0.32801328155E+03  0.00000000000E+00 0.  1.
         21   -1    0    0  502  503 -0.00000000000E+00 -0.00000000000E+00 -0.16141261303E+03  0.16141261303E+03  0.00000000000E+00 0. -1.
          6    1    1    2  501    0 -0.83021509058E+02 -0.50812181659E+01  0.21967516702E+03  0.29113496655E+03  0.17200000000E+03 0.  1.
         -6    1    1    2    0  503  0.83021509058E+02  0.50812181659E+01 -0.53074498501E+02  0.19829092802E+03  0.17200000000E+03 0. -1.
<mgrwt>
<rscale>  2 0.19105599E+03</rscale>
<asrwt>0</asrwt>
<pdfrwt beam="1">  1       21 0.82003319E-01 0.19105599E+03</pdfrwt>
<pdfrwt beam="2">  1       21 0.40353154E-01 0.19105599E+03</pdfrwt>
<totfact> 0.77042665E+03</totfact>
</mgrwt>
</event>
<event>
 4    1  0.1115666E+000  0.4769701E+03  0.7546771E-02  0.1019971E+00
         21   -1    0    0  501  502  0.00000000000E+00  0.00000000000E+00  0.23016580954E+03  0.23016580954E+03  0.00000000000E+00 0. -1.
         21   -1    0    0  502  503 -0.00000000000E+00 -0.00000000000E+00 -0.10086536230E+04  0.10086536230E+04  0.00000000000E+00 0.  1.
          6    1    1    2  501    0  0.29430603999E+02 -0.44390353632E+03 -0.30151497189E+03  0.56427988470E+03  0.17200000000E+03 0. -1.
         -6    1    1    2    0  503 -0.29430603999E+02  0.44390353632E+03 -0.47697284159E+03  0.67453954785E+03  0.17200000000E+03 0.  1.
<mgrwt>
<rscale>  2 0.47697014E+03</rscale>
<asrwt>0</asrwt>
<pdfrwt beam="1">  1       21 0.57541454E-01 0.47697014E+03</pdfrwt>
<pdfrwt beam="2">  1       21 0.25216340E+00 0.47697014E+03</pdfrwt>
<totfact> 0.14245536E+02</totfact>
</mgrwt>
</event>
<event>
 4    1  0.1115666E+000  0.1894715E+03  0.7546771E-02  0.1158939E+00
         21   -1    0    0  501  502  0.00000000000E+00  0.00000000000E+00  0.17487752336E+03  0.17487752336E+03  0.00000000000E+00 0. -1.
         21   -1    0    0  502  503 -0.00000000000E+00 -0.00000000000E+00 -0.20532977077E+03  0.20532977077E+03  0.00000000000E+00 0. -1.
          6    1    1    2  501    0 -0.68339427710E+02 -0.40560878518E+02 -0.18081265030E+02  0.19033232618E+03  0.17200000000E+03 0. -1.
         -6    1    1    2    0  503  0.68339427710E+02  0.40560878518E+02 -0.12370982377E+02  0.18987496794E+03  0.17200000000E+03 0. -1.
<mgrwt>
<rscale>  2 0.18947153E+03</rscale>
<asrwt>0</asrwt>
<pdfrwt beam="1">  1       21 0.43719381E-01 0.18947153E+03</pdfrwt>
<pdfrwt beam="2">  1       21 0.51332442E-01 0.18947153E+03</pdfrwt>
<totfact> 0.18167912E+04</totfact>
</mgrwt>
</event>
<event>
 4    1  0.1115666E+000  0.4516885E+03  0.7546771E-02  0.1027220E+00
         21   -1    0    0  503  502  0.00000000000E+00  0.00000000000E+00  0.42474555148E+03  0.42474555148E+03  0.00000000000E+00 0.  1.
         21   -1    0    0  501  503 -0.00000000000E+00 -0.00000000000E+00 -0.53959995947E+03  0.53959995947E+03  0.00000000000E+00 0. -1.
          6    1    1    2  501    0 -0.39714799260E+03 -0.12927487724E+03 -0.21721561790E+03  0.50120369768E+03  0.17200000000E+03 0. -1.
         -6    1    1    2    0  502  0.39714799260E+03  0.12927487724E+03  0.10236120991E+03  0.46314181327E+03  0.17200000000E+03 0. -1.
<mgrwt>
<rscale>  2 0.45168852E+03</rscale>
<asrwt>0</asrwt>
<pdfrwt beam="1">  1       21 0.10618639E+00 0.45168852E+03</pdfrwt>
<pdfrwt beam="2">  1       21 0.13489999E+00 0.45168852E+03</pdfrwt>
<totfact> 0.22936799E+02</totfact>
</mgrwt>
</event>
<event>
 4    1  0.1115666E+000  0.1954671E+03  0.7546771E-02  0.1153621E+00
         21   -1    0    0  501  502  0.00000000000E+00  0.00000000000E+00  0.11028442966E+04  0.11028442966E+04  0.00000000000E+00 0.  1.
         21   -1    0    0  502  503 -0.00000000000E+00 -0.00000000000E+00 -0.20425107768E+03  0.20425107768E+03  0.00000000000E+00 0.  1.
          6    1    1    2  501    0 -0.32259062672E+02 -0.87078912673E+02  0.10448443362E+04  0.10629708702E+04  0.17200000000E+03 0.  1.
         -6    1    1    2    0  503  0.32259062672E+02  0.87078912673E+02 -0.14625111727E+03  0.24412450401E+03  0.17200000000E+03 0.  1.
<mgrwt>
<rscale>  2 0.19546709E+03</rscale>
<asrwt>0</asrwt>
<pdfrwt beam="1">  1       21 0.27571106E+00 0.19546709E+03</pdfrwt>
<pdfrwt beam="2">  1       21 0.51062772E-01 0.19546709E+03</pdfrwt>
<totfact> 0.17106916E+02</totfact>
</mgrwt>
</event>
<event>
 4    1  0.1115666E+000  0.1804174E+03  0.7546771E-02  0.1167400E+00
         21   -1    0    0  503  502  0.00000000000E+00  0.00000000000E+00  0.81701633700E+03  0.81701633700E+03  0.00000000000E+00 0. -1.
         21   -1    0    0  501  503 -0.00000000000E+00 -0.00000000000E+00 -0.76896682289E+02  0.76896682289E+02  0.00000000000E+00 0. -1.
          6    1    1    2  501    0  0.28307952496E+02 -0.46530648977E+02  0.59788909517E+02  0.19006618629E+03  0.17200000000E+03 0. -1.
         -6    1    1    2    0  502 -0.28307952496E+02  0.46530648977E+02  0.68033074519E+03  0.70384683300E+03  0.17200000000E+03 0. -1.
<mgrwt>
<rscale>  2 0.18041741E+03</rscale>
<asrwt>0</asrwt>
<pdfrwt beam="1">  1       21 0.20425406E+00 0.18041741E+03</pdfrwt>
<pdfrwt beam="2">  1       21 0.19224173E-01 0.18041741E+03</pdfrwt>
<totfact> 0.31736562E+03</totfact>
</mgrwt>
</event>
<event>
 4    1  0.1115666E+000  0.2039546E+03  0.7546771E-02  0.1146445E+00
         21   -1    0    0  503  502  0.00000000000E+00  0.00000000000E+00  0.41851321495E+02  0.41851321495E+02  0.00000000000E+00 0. -1.
         21   -1    0    0  501  503 -0.00000000000E+00 -0.00000000000E+00 -0.12511329237E+04  0.12511329237E+04  0.00000000000E+00 0. -1.
          6    1    1    2  501    0  0.10421778413E+03 -0.33943180557E+02 -0.89776075612E+03  0.92063666083E+03  0.17200000000E+03 0. -1.
         -6    1    1    2    0  502 -0.10421778413E+03  0.33943180557E+02 -0.31152084608E+03  0.37234758436E+03  0.17200000000E+03 0. -1.
<mgrwt>
<rscale>  2 0.20395462E+03</rscale>
<asrwt>0</asrwt>
<pdfrwt beam="1">  1       21 0.10462830E-01 0.20395462E+03</pdfrwt>
<pdfrwt beam="2">  1       21 0.31278324E+00 0.20395462E+03</pdfrwt>
<totfact> 0.21275217E+03</totfact>
</mgrwt>
</event>
<event>
 4    1  0.1115666E+000  0.2045064E+03  0.7546771E-02  0.1145992E+00
         21   -1    0    0  501  502  0.00000000000E+00  0.00000000000E+00  0.40246045839E+03  0.40246045839E+03  0.00000000000E+00 0. -1.
         21   -1    0    0  502  503 -0.00000000000E+00 -0.00000000000E+00 -0.15034629511E+03  0.15034629511E+03  0.00000000000E+00 0.  1.
          6    1    1    2  501    0  0.19420931898E+02  0.10891138543E+03  0.27965616350E+03  0.34645408391E+03  0.17200000000E+03 0.  1.
         -6    1    1    2    0  503 -0.19420931898E+02 -0.10891138543E+03 -0.27542000227E+02  0.20635266960E+03  0.17200000000E+03 0. -1.
<mgrwt>
<rscale>  2 0.20450639E+03</rscale>
<asrwt>0</asrwt>
<pdfrwt beam="1">  1       21 0.10061511E+00 0.20450639E+03</pdfrwt>
<pdfrwt beam="2">  1       21 0.37586575E-01 0.20450639E+03</pdfrwt>
<totfact> 0.54726271E+03</totfact>
</mgrwt>
</event>
<event>
 4    1  0.1115666E+000  0.1888913E+03  0.7546771E-02  0.1159465E+00
         21   -1    0    0  503  502  0.00000000000E+00  0.00000000000E+00  0.30764052529E+03  0.30764052529E+03  0.00000000000E+00 0.  1.
         21   -1    0    0  501  503 -0.00000000000E+00 -0.00000000000E+00 -0.18115046101E+03  0.18115046101E+03  0.00000000000E+00 0.  1.
          6    1    1    2  501    0 -0.77201328206E+02  0.11656419298E+02 -0.83343963373E+02  0.20646097311E+03  0.17200000000E+03 0.  1.
         -6    1    1    2    0  502  0.77201328206E+02 -0.11656419298E+02  0.20983402765E+03  0.28233001319E+03  0.17200000000E+03 0.  1.
<mgrwt>
<rscale>  2 0.18889128E+03</rscale>
<asrwt>0</asrwt>
<pdfrwt beam="1">  1       21 0.76910131E-01 0.18889128E+03</pdfrwt>
<pdfrwt beam="2">  1       21 0.45287616E-01 0.18889128E+03</pdfrwt>
<totfact> 0.70487674E+03</totfact>
</mgrwt>
</event>
<event>
 4    1  0.1115666E+000  0.1906210E+03  0.7546771E-02  0.1157902E+00
         21   -1    0    0  501  502  0.00000000000E+00  0.00000000000E+00  0.39909322786E+02  0.39909322786E+02  0.00000000000E+00 0. -1.
         21   -1    0    0  502  503 -0.00000000000E+00 -0.00000000000E+00 -0.11832818331E+04  0.11832818331E+04  0.00000000000E+00 0. -1.
          6    1    1    2  501    0  0.49130264012E+02  0.65867893647E+02 -0.27802312471E+03  0.33709526863E+03  0.17200000000E+03 0. -1.
         -6    1    1    2    0  503 -0.49130264012E+02 -0.65867893647E+02 -0.86534938557E+03  0.88609588723E+03  0.17200000000E+03 0. -1.
<mgrwt>
<rscale>  2 0.19062099E+03</rscale>
<asrwt>0</asrwt>
<pdfrwt beam="1">  1       21 0.99773315E-02 0.19062099E+03</pdfrwt>
<pdfrwt beam="2">  1       21 0.29582043E+00 0.19062099E+03</pdfrwt>
<totfact> 0.29467104E+03</totfact>
</mgrwt>
</event>
<event>
 4    1  0.1115666E+000  0.2401795E+03  0.7546771E-02  0.1119673E+00
         21   -1    0    0  503  502  0.00000000000E+00  0.00000000000E+00  0.90585490071E+03  0.90585490071E+03  0.00000000000E+00 0. -1.
         21   -1    0    0  501  503 -0.00000000000E+00 -0.00000000000E+00 -0.17609768408E+03  0.17609768408E+03  0.00000000000E+00 0. -1.
          6    1    1    2  501    0 -0.13661981345E+03  0.97145388261E+02 -0.67352308754E+02  0.24944444949E+03  0.17200000000E+03 0. -1.
         -6    1    1    2    0  502  0.13661981345E+03 -0.97145388261E+02  0.79710952538E+03  0.83250813530E+03  0.17200000000E+03 0. -1.
<mgrwt>
<rscale>  2 0.24017952E+03</rscale>
<asrwt>0</asrwt>
<pdfrwt beam="1">  1       21 0.22646371E+00 0.24017952E+03</pdfrwt>
<pdfrwt beam="2">  1       21 0.44024423E-01 0.24017952E+03</pdfrwt>
<totfact> 0.43078419E+02</totfact>
</mgrwt>
</event>
<event>
 4    1  0.1115666E+000  0.2250715E+03  0.7546771E-02  0.1130158E+00
         21   -1    0    0  503  502  0.00000000000E+00  0.00000000000E+00  0.81980082891E+03  0.81980082891E+03  0.00000000000E+00 0.  1.
         21   -1    0    0  501  503 -0.00000000000E+00 -0.00000000000E+00 -0.12855025557E+03  0.12855025557E+03  0.00000000000E+00 0. -1.
          6    1    1    2  501    0 -0.12005098869E+03 -0.81614718453E+02  0.39174868576E+01  0.22510563933E+03  0.17200000000E+03 0. -1.
         -6    1    1    2    0  502  0.12005098869E+03  0.81614718453E+02  0.68733308648E+03  0.72324544515E+03  0.17200000000E+03 0.  1.
<mgrwt>
<rscale>  2 0.22507155E+03</rscale>
<asrwt>0</asrwt>
<pdfrwt beam="1">  1       21 0.20495019E+00 0.22507155E+03</pdfrwt>
<pdfrwt beam="2">  1       21 0.32137566E-01 0.22507155E+03</pdfrwt>
<totfact> 0.11236532E+03</totfact>
</mgrwt>
</event>
<event>
 4    1  0.1115666E+000  0.1845738E+03  0.7546771E-02  0.1163449E+00
         21   -1    0    0  503  502  0.00000000000E+00  0.00000000000E+00  0.56012072960E+03  0.56012072960E+03  0.00000000000E+00 0. -1.
         21   -1    0    0  501  503 -0.00000000000E+00 -0.00000000000E+00 -0.25758350958E+03  0.25758350958E+03  0.00000000000E+00 0.  1.
          6    1    1    2  501    0 -0.14399619926E+02  0.65392066280E+02 -0.20606813411E+03  0.27664335756E+03  0.17200000000E+03 0.  1.
         -6    1    1    2    0  502  0.14399619926E+02 -0.65392066280E+02  0.50860535412E+03  0.54106088163E+03  0.17200000000E+03 0. -1.
<mgrwt>
<rscale>  2 0.18457376E+03</rscale>
<asrwt>0</asrwt>
<pdfrwt beam="1">  1       21 0.14003018E+00 0.18457376E+03</pdfrwt>
<pdfrwt beam="2">  1       21 0.64395878E-01 0.18457376E+03</pdfrwt>
<totfact> 0.80247242E+02</totfact>
</mgrwt>
</event>
<event>
 4    1  0.1115666E+000  0.1800943E+03  0.7546771E-02  0.1167712E+00
         21   -1    0    0  503  502  0.00000000000E+00  0.00000000000E+00  0.33389235841E+03  0.33389235841E+03  0.00000000000E+00 0.  1.
         21   -1    0    0  501  503 -0.00000000000E+00 -0.00000000000E+00 -0.19181784399E+03  0.19181784399E+03  0.00000000000E+00 0.  1.
          6    1    1    2  501    0  0.48668464437E+02  0.21939095990E+02 -0.11363368374E+03  0.21294731142E+03  0.17200000000E+03 0.  1.
         -6    1    1    2    0  502 -0.48668464437E+02 -0.21939095990E+02  0.25570819816E+03  0.31276289097E+03  0.17200000000E+03 0.  1.
<mgrwt>
<rscale>  2 0.18009426E+03</rscale>
<asrwt>0</asrwt>
<pdfrwt beam="1">  1       21 0.83473089E-01 0.18009426E+03</pdfrwt>
<pdfrwt beam="2">  1       21 0.47954461E-01 0.18009426E+03</pdfrwt>
<totfact> 0.52422559E+03</totfact>
</mgrwt>
</event>
<event>
 4    1  0.1115666E+000  0.2228515E+03  0.7546771E-02  0.1131775E+00
         21   -1    0    0  503  502  0.00000000000E+00  0.00000000000E+00  0.14262722623E+04  0.14262722623E+04  0.00000000000E+00 0.  1.
         21   -1    0    0  501  503 -0.00000000000E+00 -0.00000000000E+00 -0.48957735935E+02  0.48957735935E+02  0.00000000000E+00 0. -1.
          6    1    1    2  501    0 -0.95095950714E+02  0.10505019149E+03  0.29227957632E+03  0.36754609685E+03  0.17200000000E+03 0. -1.
         -6    1    1    2    0  502  0.95095950714E+02 -0.10505019149E+03  0.10850349500E+04  0.11076839014E+04  0.17200000000E+03 0.  1.
<mgrwt>
<rscale>  2 0.22285148E+03</rscale>
<asrwt>0</asrwt>
<pdfrwt beam="1">  1       21 0.35656793E+00 0.22285148E+03</pdfrwt>
<pdfrwt beam="2">  1       21 0.12239439E-01 0.22285148E+03</pdfrwt>
<totfact> 0.86836392E+02</totfact>
</mgrwt>
</event>
<event>
 4    1  0.1115666E+000  0.1753671E+03  0.7546771E-02  0.1172364E+00
         21   -1    0    0  503  502  0.00000000000E+00  0.00000000000E+00  0.26859730646E+03  0.26859730646E+03  0.00000000000E+00 0.  1.
         21   -1    0    0  501  503 -0.00000000000E+00 -0.00000000000E+00 -0.22371164389E+03  0.22371164389E+03  0.00000000000E+00 0.  1.
          6    1    1    2  501    0  0.34078916407E+02  0.28710662036E+01 -0.14954735145E+03  0.23047348197E+03  0.17200000000E+03 0.  1.
         -6    1    1    2    0  502 -0.34078916407E+02 -0.28710662036E+01  0.19443301402E+03  0.26183546839E+03  0.17200000000E+03 0.  1.
<mgrwt>
<rscale>  2 0.17536709E+03</rscale>
<asrwt>0</asrwt>
<pdfrwt beam="1">  1       21 0.67149326E-01 0.17536709E+03</pdfrwt>
<pdfrwt beam="2">  1       21 0.55927911E-01 0.17536709E+03</pdfrwt>
<totfact> 0.61937142E+03</totfact>
</mgrwt>
</event>
<event>
 4    1  0.1115666E+000  0.2561668E+03  0.7546771E-02  0.1109468E+00
         21   -1    0    0  503  502  0.00000000000E+00  0.00000000000E+00  0.51467054625E+02  0.51467054625E+02  0.00000000000E+00 0.  1.
         21   -1    0    0  501  503 -0.00000000000E+00 -0.00000000000E+00 -0.14006970033E+04  0.14006970033E+04  0.00000000000E+00 0.  1.
          6    1    1    2  501    0 -0.16158643982E+03  0.99635517285E+02 -0.45712201921E+03  0.52400568154E+03  0.17200000000E+03 0.  1.
         -6    1    1    2    0  502  0.16158643982E+03 -0.99635517285E+02 -0.89210792942E+03  0.92815837634E+03  0.17200000000E+03 0.  1.
<mgrwt>
<rscale>  2 0.25616677E+03</rscale>
<asrwt>0</asrwt>
<pdfrwt beam="1">  1       21 0.12866764E-01 0.25616677E+03</pdfrwt>
<pdfrwt beam="2">  1       21 0.35017425E+00 0.25616677E+03</pdfrwt>
<totfact> 0.83283884E+02</totfact>
</mgrwt>
</event>
<event>
 4    1  0.1115666E+000  0.2137590E+03  0.7546771E-02  0.1138623E+00
         21   -1    0    0  503  502  0.00000000000E+00  0.00000000000E+00  0.22780852764E+03  0.22780852764E+03  0.00000000000E+00 0. -1.
         21   -1    0    0  501  503 -0.00000000000E+00 -0.00000000000E+00 -0.26237992428E+03  0.26237992428E+03  0.00000000000E+00 0.  1.
          6    1    1    2  501    0  0.32280506541E+02 -0.12274718638E+03 -0.13623889540E+03  0.25348360793E+03  0.17200000000E+03 0.  1.
         -6    1    1    2    0  502 -0.32280506541E+02  0.12274718638E+03  0.10166749875E+03  0.23670484399E+03  0.17200000000E+03 0. -1.
<mgrwt>
<rscale>  2 0.21375898E+03</rscale>
<asrwt>0</asrwt>
<pdfrwt beam="1">  1       21 0.56952132E-01 0.21375898E+03</pdfrwt>
<pdfrwt beam="2">  1       21 0.65594981E-01 0.21375898E+03</pdfrwt>
<totfact> 0.60937885E+03</totfact>
</mgrwt>
</event>
<event>
 4    1  0.1115666E+000  0.2276298E+03  0.7546771E-02  0.1128319E+00
         21   -1    0    0  503  502  0.00000000000E+00  0.00000000000E+00  0.15886988302E+03  0.15886988302E+03  0.00000000000E+00 0.  1.
         21   -1    0    0  501  503 -0.00000000000E+00 -0.00000000000E+00 -0.32816049117E+03  0.32816049117E+03  0.00000000000E+00 0.  1.
          6    1    1    2  501    0 -0.14852249300E+03  0.13129990593E+02 -0.10370832003E+03  0.25014144643E+03  0.17200000000E+03 0.  1.
         -6    1    1    2    0  502  0.14852249300E+03 -0.13129990593E+02 -0.65582288113E+02  0.23688892776E+03  0.17200000000E+03 0.  1.
<mgrwt>
<rscale>  2 0.22762980E+03</rscale>
<asrwt>0</asrwt>
<pdfrwt beam="1">  1       21 0.39717471E-01 0.22762980E+03</pdfrwt>
<pdfrwt beam="2">  1       21 0.82040122E-01 0.22762980E+03</pdfrwt>
<totfact> 0.77482566E+03</totfact>
</mgrwt>
</event>
<event>
 4    1  0.1115666E+000  0.1916713E+03  0.7546771E-02  0.1156963E+00
         21   -1    0    0  501  502  0.00000000000E+00  0.00000000000E+00  0.86278881342E+03  0.86278881342E+03  0.00000000000E+00 0. -1.
         21   -1    0    0  502  503 -0.00000000000E+00 -0.00000000000E+00 -0.42589244437E+02  0.42589244437E+02  0.00000000000E+00 0. -1.
          6    1    1    2  501    0 -0.84623449481E+01  0.84156164292E+02  0.41663254335E+03  0.45860718207E+03  0.17200000000E+03 0. -1.
         -6    1    1    2    0  503  0.84623449481E+01 -0.84156164292E+02  0.40356702564E+03  0.44677087579E+03  0.17200000000E+03 0. -1.
<mgrwt>
<rscale>  2 0.19167126E+03</rscale>
<asrwt>0</asrwt>
<pdfrwt beam="1">  1       21 0.21569715E+00 0.19167126E+03</pdfrwt>
<pdfrwt beam="2">  1       21 0.10647314E-01 0.19167126E+03</pdfrwt>
<totfact> 0.77722121E+03</totfact>
</mgrwt>
</event>
<event>
 4    1  0.1115666E+000  0.1942388E+03  0.7546771E-02  0.1154693E+00
         21   -1    0    0  503  502  0.00000000000E+00  0.00000000000E+00  0.76659605645E+03  0.76659605645E+03  0.00000000000E+00 0.  1.
         21   -1    0    0  501  503 -0.00000000000E+00 -0.00000000000E+00 -0.51051848625E+02  0.51051848625E+02  0.00000000000E+00 0. -1.
          6    1    1    2  501    0  0.74644184379E+02 -0.50724226997E+02  0.43530087930E+03  0.47667133015E+03  0.17200000000E+03 0.  1.
         -6    1    1    2    0  502 -0.74644184379E+02  0.50724226997E+02  0.28024332853E+03  0.34097657493E+03  0.17200000000E+03 0. -1.
<mgrwt>
<rscale>  2 0.19423877E+03</rscale>
<asrwt>0</asrwt>
<pdfrwt beam="1">  1       21 0.19164898E+00 0.19423877E+03</pdfrwt>
<pdfrwt beam="2">  1       21 0.12762965E-01 0.19423877E+03</pdfrwt>
<totfact> 0.79823508E+03</totfact>
</mgrwt>
</event>
<event>
 4    1  0.1115666E+000  0.2085490E+03  0.7546771E-02  0.1142720E+00
         21   -1    0    0  501  502  0.00000000000E+00  0.00000000000E+00  0.97239206524E+02  0.97239206524E+02  0.00000000000E+00 0.  1.
         21   -1    0    0  502  503 -0.00000000000E+00 -0.00000000000E+00 -0.10512323862E+04  0.10512323862E+04  0.00000000000E+00 0.  1.
          6    1    1    2  501    0  0.11703224645E+03 -0.14564889331E+02 -0.41741375375E+02  0.21268527248E+03  0.17200000000E+03 0.  1.
         -6    1    1    2    0  503 -0.11703224645E+03  0.14564889331E+02 -0.91225180431E+03  0.93578632026E+03  0.17200000000E+03 0.  1.
<mgrwt>
<rscale>  2 0.20854899E+03</rscale>
<asrwt>0</asrwt>
<pdfrwt beam="1">  1       21 0.24309802E-01 0.20854899E+03</pdfrwt>
<pdfrwt beam="2">  1       21 0.26280809E+00 0.20854899E+03</pdfrwt>
<totfact> 0.87666132E+02</totfact>
</mgrwt>
</event>
<event>
 4    1  0.1115666E+000  0.1906004E+03  0.7546771E-02  0.1157921E+00
         21   -1    0    0  503  502  0.00000000000E+00  0.00000000000E+00  0.13129966953E+03  0.13129966953E+03  0.00000000000E+00 0. -1.
         21   -1    0    0  501  503 -0.00000000000E+00 -0.00000000000E+00 -0.52644168019E+03  0.52644168019E+03  0.00000000000E+00 0.  1.
          6    1    1    2  501    0 -0.71058161704E+01 -0.81816992768E+02 -0.42409252900E+03  0.46495482155E+03  0.17200000000E+03 0. -1.
         -6    1    1    2    0  502  0.71058161704E+01  0.81816992768E+02  0.28950518348E+02  0.19278652816E+03  0.17200000000E+03 0. -1.
<mgrwt>
<rscale>  2 0.19060040E+03</rscale>
<asrwt>0</asrwt>
<pdfrwt beam="1">  1       21 0.32824918E-01 0.19060040E+03</pdfrwt>
<pdfrwt beam="2">  1       21 0.13161042E+00 0.19060040E+03</pdfrwt>
<totfact> 0.37500828E+03</totfact>
</mgrwt>
</event>
<event>
 4    1  0.1115666E+000  0.1872425E+03  0.7546771E-02  0.1160972E+00
         21   -1    0    0  501  502  0.00000000000E+00  0.00000000000E+00  0.26493327005E+03  0.26493327005E+03  0.00000000000E+00 0.  1.
         21   -1    0    0  502  503 -0.00000000000E+00 -0.00000000000E+00 -0.15336461512E+03  0.15336461512E+03  0.00000000000E+00 0. -1.
          6    1    1    2  501    0  0.38816179427E+02 -0.63000582816E+02 -0.21664629650E+02  0.18849171175E+03  0.17200000000E+03 0. -1.
         -6    1    1    2    0  503 -0.38816179427E+02  0.63000582816E+02  0.13323328458E+03  0.22980617342E+03  0.17200000000E+03 0.  1.
<mgrwt>
<rscale>  2 0.18724254E+03</rscale>
<asrwt>0</asrwt>
<pdfrwt beam="1">  1       21 0.66233317E-01 0.18724254E+03</pdfrwt>
<pdfrwt beam="2">  1       21 0.38341154E-01 0.18724254E+03</pdfrwt>
<totfact> 0.13771213E+04</totfact>
</mgrwt>
</event>
<event>
 4    1  0.1115666E+000  0.1974989E+03  0.7546771E-02  0.1151866E+00
         21   -1    0    0  503  502  0.00000000000E+00  0.00000000000E+00  0.68453159297E+03  0.68453159297E+03  0.00000000000E+00 0. -1.
         21   -1    0    0  501  503 -0.00000000000E+00 -0.00000000000E+00 -0.58330793792E+02  0.58330793792E+02  0.00000000000E+00 0. -1.
          6    1    1    2  501    0  0.20451202533E+02 -0.94887186062E+02  0.25661484989E+03  0.32381632286E+03  0.17200000000E+03 0. -1.
         -6    1    1    2    0  502 -0.20451202533E+02  0.94887186062E+02  0.36958594929E+03  0.41904606390E+03  0.17200000000E+03 0. -1.
<mgrwt>
<rscale>  2 0.19749894E+03</rscale>
<asrwt>0</asrwt>
<pdfrwt beam="1">  1       21 0.17113287E+00 0.19749894E+03</pdfrwt>
<pdfrwt beam="2">  1       21 0.14582701E-01 0.19749894E+03</pdfrwt>
<totfact> 0.86177659E+03</totfact>
</mgrwt>
</event>
<event>
 4    1  0.1115666E+000  0.1946834E+03  0.7546771E-02  0.1154304E+00
         21   -1    0    0  503  502  0.00000000000E+00  0.00000000000E+00  0.10585158259E+03  0.10585158259E+03  0.00000000000E+00 0.  1.
         21   -1    0    0  501  503 -0.00000000000E+00 -0.00000000000E+00 -0.38648211776E+03  0.38648211776E+03  0.00000000000E+00 0. -1.
          6    1    1    2  501    0 -0.46032434502E+02 -0.78731573139E+02 -0.20706694623E+03  0.28421535120E+03  0.17200000000E+03 0. -1.
         -6    1    1    2    0  502  0.46032434502E+02  0.78731573139E+02 -0.73563588941E+02  0.20811834915E+03  0.17200000000E+03 0.  1.
<mgrwt>
<rscale>  2 0.19468345E+03</rscale>
<asrwt>0</asrwt>
<pdfrwt beam="1">  1       21 0.26462896E-01 0.19468345E+03</pdfrwt>
<pdfrwt beam="2">  1       21 0.96620529E-01 0.19468345E+03</pdfrwt>
<totfact> 0.12077868E+04</totfact>
</mgrwt>
</event>
<event>
 4    1  0.1115666E+000  0.1744301E+03  0.7546771E-02  0.1173305E+00
         21   -1    0    0  501  502  0.00000000000E+00  0.00000000000E+00  0.20399673985E+03  0.20399673985E+03  0.00000000000E+00 0. -1.
         21   -1    0    0  502  503 -0.00000000000E+00 -0.00000000000E+00 -0.42575655950E+03  0.42575655950E+03  0.00000000000E+00 0. -1.
          6    1    1    2  501    0  0.25901427319E+02  0.13076088724E+02  0.14292029308E+03  0.22550405364E+03  0.17200000000E+03 0. -1.
         -6    1    1    2    0  503 -0.25901427319E+02 -0.13076088724E+02 -0.36468011274E+03  0.40424924571E+03  0.17200000000E+03 0. -1.
<mgrwt>
<rscale>  2 0.17443012E+03</rscale>
<asrwt>0</asrwt>
<pdfrwt beam="1">  1       21 0.50999185E-01 0.17443012E+03</pdfrwt>
<pdfrwt beam="2">  1       21 0.10643914E+00 0.17443012E+03</pdfrwt>
<totfact> 0.26285944E+03</totfact>
</mgrwt>
</event>
<event>
 4    1  0.1115666E+000  0.1818879E+03  0.7546771E-02  0.1165988E+00
         21   -1    0    0  503  502  0.00000000000E+00  0.00000000000E+00  0.54475704955E+02  0.54475704955E+02  0.00000000000E+00 0. -1.
         21   -1    0    0  501  503 -0.00000000000E+00 -0.00000000000E+00 -0.80369014450E+03  0.80369014450E+03  0.00000000000E+00 0. -1.
          6    1    1    2  501    0  0.40753968581E+02  0.42875718949E+02 -0.58671391067E+03  0.61426087797E+03  0.17200000000E+03 0. -1.
         -6    1    1    2    0  502 -0.40753968581E+02 -0.42875718949E+02 -0.16250052887E+03  0.24390497149E+03  0.17200000000E+03 0. -1.
<mgrwt>
<rscale>  2 0.18188791E+03</rscale>
<asrwt>0</asrwt>
<pdfrwt beam="1">  1       21 0.13618927E-01 0.18188791E+03</pdfrwt>
<pdfrwt beam="2">  1       21 0.20092253E+00 0.18188791E+03</pdfrwt>
<totfact> 0.62524204E+03</totfact>
</mgrwt>
</event>
<event>
 4    1  0.1115666E+000  0.2483477E+03  0.7546771E-02  0.1114353E+00
         21   -1    0    0  501  502  0.00000000000E+00  0.00000000000E+00  0.77075250767E+03  0.77075250767E+03  0.00000000000E+00 0.  1.
         21   -1    0    0  502  503 -0.00000000000E+00 -0.00000000000E+00 -0.85047042444E+02  0.85047042444E+02  0.00000000000E+00 0.  1.
          6    1    1    2  501    0  0.10536035936E+03 -0.14488541656E+03  0.44687208748E+03  0.51124480616E+03  0.17200000000E+03 0.  1.
         -6    1    1    2    0  503 -0.10536035936E+03  0.14488541656E+03  0.23883337774E+03  0.34455474395E+03  0.17200000000E+03 0.  1.
<mgrwt>
<rscale>  2 0.24834772E+03</rscale>
<asrwt>0</asrwt>
<pdfrwt beam="1">  1       21 0.19268811E+00 0.24834772E+03</pdfrwt>
<pdfrwt beam="2">  1       21 0.21261763E-01 0.24834772E+03</pdfrwt>
<totfact> 0.29357378E+03</totfact>
</mgrwt>
</event>
<event>
 4    1  0.1115666E+000  0.1772022E+03  0.7546771E-02  0.1170539E+00
         21   -1    0    0  503  502  0.00000000000E+00  0.00000000000E+00  0.23433175483E+04  0.23433175483E+04  0.00000000000E+00 0.  1.
         21   -1    0    0  501  503 -0.00000000000E+00 -0.00000000000E+00 -0.40006092678E+02  0.40006092678E+02  0.00000000000E+00 0.  1.
          6    1    1    2  501    0 -0.39553942235E+02  0.15877770568E+02  0.17984891426E+03  0.25248019706E+03  0.17200000000E+03 0.  1.
         -6    1    1    2    0  502  0.39553942235E+02 -0.15877770568E+02  0.21234625413E+04  0.21308434439E+04  0.17200000000E+03 0.  1.
<mgrwt>
<rscale>  2 0.17720220E+03</rscale>
<asrwt>0</asrwt>
<pdfrwt beam="1">  1       21 0.58582892E+00 0.17720220E+03</pdfrwt>
<pdfrwt beam="2">  1       21 0.10001531E-01 0.17720220E+03</pdfrwt>
<totfact> 0.36772914E+01</totfact>
</mgrwt>
</event>
<event>
 4    1  0.1115666E+000  0.1827327E+03  0.7546771E-02  0.1165184E+00
         21   -1    0    0  503  502  0.00000000000E+00  0.00000000000E+00  0.42486591847E+03  0.42486591847E+03  0.00000000000E+00 0.  1.
         21   -1    0    0  501  503 -0.00000000000E+00 -0.00000000000E+00 -0.95317104648E+02  0.95317104648E+02  0.00000000000E+00 0.  1.
          6    1    1    2  501    0 -0.39166462584E+02 -0.47678423208E+02  0.55826314337E+02  0.19107019967E+03  0.17200000000E+03 0.  1.
         -6    1    1    2    0  502  0.39166462584E+02  0.47678423208E+02  0.27372249948E+03  0.32911282344E+03  0.17200000000E+03 0.  1.
<mgrwt>
<rscale>  2 0.18273271E+03</rscale>
<asrwt>0</asrwt>
<pdfrwt beam="1">  1       21 0.10621647E+00 0.18273271E+03</pdfrwt>
<pdfrwt beam="2">  1       21 0.23829277E-01 0.18273271E+03</pdfrwt>
<totfact> 0.11874777E+04</totfact>
</mgrwt>
</event>
<event>
 4    1  0.1115666E+000  0.2042421E+03  0.7546771E-02  0.1146208E+00
         21   -1    0    0  503  502  0.00000000000E+00  0.00000000000E+00  0.14766659481E+03  0.14766659481E+03  0.00000000000E+00 0.  1.
         21   -1    0    0  501  503 -0.00000000000E+00 -0.00000000000E+00 -0.62347269586E+03  0.62347269586E+03  0.00000000000E+00 0.  1.
          6    1    1    2  501    0 -0.10864456725E+03  0.18088722579E+02 -0.52304301938E+03  0.56150587174E+03  0.17200000000E+03 0.  1.
         -6    1    1    2    0  502  0.10864456725E+03 -0.18088722579E+02  0.47236918329E+02  0.20963341892E+03  0.17200000000E+03 0.  1.
<mgrwt>
<rscale>  2 0.20424212E+03</rscale>
<asrwt>0</asrwt>
<pdfrwt beam="1">  1       21 0.36916649E-01 0.20424212E+03</pdfrwt>
<pdfrwt beam="2">  1       21 0.15586817E+00 0.20424212E+03</pdfrwt>
<totfact> 0.18896534E+03</totfact>
</mgrwt>
</event>
<event>
 4    1  0.1115666E+000  0.2391744E+03  0.7546771E-02  0.1120344E+00
         21   -1    0    0  501  502  0.00000000000E+00  0.00000000000E+00  0.42867710155E+03  0.42867710155E+03  0.00000000000E+00 0. -1.
         21   -1    0    0  502  503 -0.00000000000E+00 -0.00000000000E+00 -0.25820351022E+03  0.25820351022E+03  0.00000000000E+00 0.  1.
          6    1    1    2  501    0 -0.18477891746E+02  0.16516340646E+03  0.32396681725E+03  0.40268956033E+03  0.17200000000E+03 0. -1.
         -6    1    1    2    0  503  0.18477891746E+02 -0.16516340646E+03 -0.15349322592E+03  0.28419105144E+03  0.17200000000E+03 0.  1.
<mgrwt>
<rscale>  2 0.23917438E+03</rscale>
<asrwt>0</asrwt>
<pdfrwt beam="1">  1       21 0.10716927E+00 0.23917438E+03</pdfrwt>
<pdfrwt beam="2">  1       21 0.64550878E-01 0.23917438E+03</pdfrwt>
<totfact> 0.14774202E+03</totfact>
</mgrwt>
</event>
<event>
 4    1  0.1115666E+000  0.2816240E+03  0.7546771E-02  0.1094805E+00
         21   -1    0    0  503  502  0.00000000000E+00  0.00000000000E+00  0.79489311637E+03  0.79489311637E+03  0.00000000000E+00 0. -1.
         21   -1    0    0  501  503 -0.00000000000E+00 -0.00000000000E+00 -0.22647606037E+03  0.22647606037E+03  0.00000000000E+00 0. -1.
          6    1    1    2  501    0  0.64418256914E+01 -0.22290493049E+03 -0.97760526822E+02  0.29810941910E+03  0.17200000000E+03 0. -1.
         -6    1    1    2    0  502 -0.64418256914E+01  0.22290493049E+03  0.66617758282E+03  0.72325975763E+03  0.17200000000E+03 0. -1.
<mgrwt>
<rscale>  2 0.28162405E+03</rscale>
<asrwt>0</asrwt>
<pdfrwt beam="1">  1       21 0.19872327E+00 0.28162405E+03</pdfrwt>
<pdfrwt beam="2">  1       21 0.56619017E-01 0.28162405E+03</pdfrwt>
<totfact> 0.36591075E+02</totfact>
</mgrwt>
</event>
<event>
 4    1  0.1115666E+000  0.2231780E+03  0.7546771E-02  0.1131536E+00
         21   -1    0    0  503  502  0.00000000000E+00  0.00000000000E+00  0.32052105009E+03  0.32052105009E+03  0.00000000000E+00 0. -1.
         21   -1    0    0  501  503 -0.00000000000E+00 -0.00000000000E+00 -0.30488105482E+03  0.30488105482E+03  0.00000000000E+00 0. -1.
          6    1    1    2  501    0  0.10803761235E+03  0.92478730340E+02 -0.21113738978E+03  0.30722538731E+03  0.17200000000E+03 0. -1.
         -6    1    1    2    0  502 -0.10803761235E+03 -0.92478730340E+02  0.22677738505E+03  0.31817671760E+03  0.17200000000E+03 0. -1.
<mgrwt>
<rscale>  2 0.22317805E+03</rscale>
<asrwt>0</asrwt>
<pdfrwt beam="1">  1       21 0.80130263E-01 0.22317805E+03</pdfrwt>
<pdfrwt beam="2">  1       21 0.76220264E-01 0.22317805E+03</pdfrwt>
<totfact> 0.20469948E+03</totfact>
</mgrwt>
</event>
<event>
 4    1  0.1115666E+000  0.3167972E+03  0.7546771E-02  0.1077133E+00
         21   -1    0    0  503  502  0.00000000000E+00  0.00000000000E+00  0.86919536120E+03  0.86919536120E+03  0.00000000000E+00 0.  1.
         21   -1    0    0  501  503 -0.00000000000E+00 -0.00000000000E+00 -0.12960953964E+03  0.12960953964E+03  0.00000000000E+00 0. -1.
          6    1    1    2  501    0  0.16072381408E+02 -0.26555247636E+03  0.20480662550E+03  0.37723493077E+03  0.17200000000E+03 0. -1.
         -6    1    1    2    0  502 -0.16072381408E+02  0.26555247636E+03  0.53477919606E+03  0.62156997007E+03  0.17200000000E+03 0.  1.
<mgrwt>
<rscale>  2 0.31679716E+03</rscale>
<asrwt>0</asrwt>
<pdfrwt beam="1">  1       21 0.21729882E+00 0.31679716E+03</pdfrwt>
<pdfrwt beam="2">  1       21 0.32402387E-01 0.31679716E+03</pdfrwt>
<totfact> 0.85541515E+02</totfact>
</mgrwt>
</event>
<event>
 4    1  0.1115666E+000  0.3001707E+03  0.7546771E-02  0.1085155E+00
         21   -1    0    0  501  502  0.00000000000E+00  0.00000000000E+00  0.75445270443E+02  0.75445270443E+02  0.00000000000E+00 0. -1.
         21   -1    0    0  502  503 -0.00000000000E+00 -0.00000000000E+00 -0.16057198414E+04  0.16057198414E+04  0.00000000000E+00 0.  1.
          6    1    1    2  501    0 -0.21325476099E+03 -0.12264122934E+03 -0.33963602566E+03  0.45327154570E+03  0.17200000000E+03 0.  1.
         -6    1    1    2    0  503  0.21325476099E+03  0.12264122934E+03 -0.11906385453E+04  0.12278935661E+04  0.17200000000E+03 0. -1.
<mgrwt>
<rscale>  2 0.30017073E+03</rscale>
<asrwt>0</asrwt>
<pdfrwt beam="1">  1       21 0.18861318E-01 0.30017073E+03</pdfrwt>
<pdfrwt beam="2">  1       21 0.40142994E+00 0.30017073E+03</pdfrwt>
<totfact> 0.18976066E+02</totfact>
</mgrwt>
</event>
<event>
 4    1  0.1115666E+000  0.1980193E+03  0.7546771E-02  0.1151421E+00
         21   -1    0    0  503  502  0.00000000000E+00  0.00000000000E+00  0.47518176214E+02  0.47518176214E+02  0.00000000000E+00 0. -1.
         21   -1    0    0  501  503 -0.00000000000E+00 -0.00000000000E+00 -0.91232320468E+03  0.91232320468E+03  0.00000000000E+00 0. -1.
          6    1    1    2  501    0  0.31732559860E+02  0.92847685697E+02 -0.58071593082E+03  0.61354921596E+03  0.17200000000E+03 0. -1.
         -6    1    1    2    0  502 -0.31732559860E+02 -0.92847685697E+02 -0.28408909765E+03  0.34629216494E+03  0.17200000000E+03 0. -1.
<mgrwt>
<rscale>  2 0.19801931E+03</rscale>
<asrwt>0</asrwt>
<pdfrwt beam="1">  1       21 0.11879544E-01 0.19801931E+03</pdfrwt>
<pdfrwt beam="2">  1       21 0.22808080E+00 0.19801931E+03</pdfrwt>
<totfact> 0.53388931E+03</totfact>
</mgrwt>
</event>
<event>
 4    1  0.1115666E+000  0.2058857E+03  0.7546771E-02  0.1144866E+00
         21   -1    0    0  501  502  0.00000000000E+00  0.00000000000E+00  0.20175617769E+03  0.20175617769E+03  0.00000000000E+00 0.  1.
         21   -1    0    0  502  503 -0.00000000000E+00 -0.00000000000E+00 -0.21947602920E+03  0.21947602920E+03  0.00000000000E+00 0.  1.
          6    1    1    2  501    0 -0.34787812025E+02  0.10767876816E+03 -0.52392549525E+02  0.21244737754E+03  0.17200000000E+03 0.  1.
         -6    1    1    2    0  503  0.34787812025E+02 -0.10767876816E+03  0.34672698023E+02  0.20878482935E+03  0.17200000000E+03 0.  1.
<mgrwt>
<rscale>  2 0.20588567E+03</rscale>
<asrwt>0</asrwt>
<pdfrwt beam="1">  1       21 0.50439045E-01 0.20588567E+03</pdfrwt>
<pdfrwt beam="2">  1       21 0.54869007E-01 0.20588567E+03</pdfrwt>
<totfact> 0.11626588E+04</totfact>
</mgrwt>
</event>
<event>
 4    1  0.1115666E+000  0.1886964E+03  0.7546771E-02  0.1159642E+00
         21   -1    0    0  501  502  0.00000000000E+00  0.00000000000E+00  0.14875126644E+03  0.14875126644E+03  0.00000000000E+00 0. -1.
         21   -1    0    0  502  503 -0.00000000000E+00 -0.00000000000E+00 -0.30766878614E+03  0.30766878614E+03  0.00000000000E+00 0. -1.
          6    1    1    2  501    0 -0.66493931612E+01 -0.77318321991E+02  0.28065115435E+02  0.19077208404E+03  0.17200000000E+03 0. -1.
         -6    1    1    2    0  503  0.66493931612E+01  0.77318321991E+02 -0.18698263514E+03  0.26564796854E+03  0.17200000000E+03 0. -1.
<mgrwt>
<rscale>  2 0.18869642E+03</rscale>
<asrwt>0</asrwt>
<pdfrwt beam="1">  1       21 0.37187817E-01 0.18869642E+03</pdfrwt>
<pdfrwt beam="2">  1       21 0.76917196E-01 0.18869642E+03</pdfrwt>
<totfact> 0.10507511E+04</totfact>
</mgrwt>
</event>
<event>
 4    1  0.1115666E+000  0.2128262E+03  0.7546771E-02  0.1139347E+00
         21   -1    0    0  501  502  0.00000000000E+00  0.00000000000E+00  0.34404280186E+03  0.34404280186E+03  0.00000000000E+00 0.  1.
         21   -1    0    0  502  503 -0.00000000000E+00 -0.00000000000E+00 -0.18200899451E+03  0.18200899451E+03  0.00000000000E+00 0.  1.
          6    1    1    2  501    0 -0.11792593976E+03  0.42478969497E+02  0.21936354241E+03  0.30563925444E+03  0.17200000000E+03 0.  1.
         -6    1    1    2    0  503  0.11792593976E+03 -0.42478969497E+02 -0.57329735050E+02  0.22041254193E+03  0.17200000000E+03 0.  1.
<mgrwt>
<rscale>  2 0.21282620E+03</rscale>
<asrwt>0</asrwt>
<pdfrwt beam="1">  1       21 0.86010699E-01 0.21282620E+03</pdfrwt>
<pdfrwt beam="2">  1       21 0.45502249E-01 0.21282620E+03</pdfrwt>
<totfact> 0.53195619E+03</totfact>
</mgrwt>
</event>
<event>
 4    1  0.1115666E+000  0.1839474E+03  0.7546771E-02  0.1164036E+00
         21   -1    0    0  501  502  0.00000000000E+00  0.00000000000E+00  0.23824330118E+03  0.23824330118E+03  0.00000000000E+00 0.  1.
         21   -1    0    0  502  503 -0.00000000000E+00 -0.00000000000E+00 -0.16870316206E+03  0.16870316206E+03  0.00000000000E+00 0.  1.
          6    1    1    2  501    0 -0.56846243464E+02 -0.31955670919E+02  0.11568307139E+03  0.21729986955E+03  0.17200000000E+03 0.  1.
         -6    1    1    2    0  503  0.56846243464E+02  0.31955670919E+02 -0.46142932266E+02  0.18964659369E+03  0.17200000000E+03 0.  1.
<mgrwt>
<rscale>  2 0.18394744E+03</rscale>
<asrwt>0</asrwt>
<pdfrwt beam="1">  1       21 0.59560825E-01 0.18394744E+03</pdfrwt>
<pdfrwt beam="2">  1       21 0.42175791E-01 0.18394744E+03</pdfrwt>
<totfact> 0.14320769E+04</totfact>
</mgrwt>
</event>
<event>
 4    1  0.1115666E+000  0.2441559E+03  0.7546771E-02  0.1117055E+00
         21   -1    0    0  503  502  0.00000000000E+00  0.00000000000E+00  0.25722904107E+03  0.25722904107E+03  0.00000000000E+00 0.  1.
         21   -1    0    0  501  503 -0.00000000000E+00 -0.00000000000E+00 -0.25453592008E+03  0.25453592008E+03  0.00000000000E+00 0. -1.
          6    1    1    2  501    0  0.89651352878E+02 -0.14829268202E+03 -0.75217846158E+02  0.25547956669E+03  0.17200000000E+03 0. -1.
         -6    1    1    2    0  502 -0.89651352878E+02  0.14829268202E+03  0.77910967151E+02  0.25628539447E+03  0.17200000000E+03 0. -1.
<mgrwt>
<rscale>  2 0.24415586E+03</rscale>
<asrwt>0</asrwt>
<pdfrwt beam="1">  1       21 0.64307260E-01 0.24415586E+03</pdfrwt>
<pdfrwt beam="2">  1       21 0.63633980E-01 0.24415586E+03</pdfrwt>
<totfact> 0.49080256E+03</totfact>
</mgrwt>
</event>
<event>
 4    1  0.1115666E+000  0.1952969E+03  0.7546771E-02  0.1153769E+00
         21   -1    0    0  501  502  0.00000000000E+00  0.00000000000E+00  0.42149253624E+03  0.42149253624E+03  0.00000000000E+00 0.  1.
         21   -1    0    0  502  503 -0.00000000000E+00 -0.00000000000E+00 -0.92801009769E+02  0.92801009769E+02  0.00000000000E+00 0. -1.
          6    1    1    2  501    0  0.16708734522E+02  0.90981937327E+02  0.20492443132E+03  0.28308111431E+03  0.17200000000E+03 0.  1.
         -6    1    1    2    0  503 -0.16708734522E+02 -0.90981937327E+02  0.12376709515E+03  0.23121243170E+03  0.17200000000E+03 0.  1.
<mgrwt>
<rscale>  2 0.19529694E+03</rscale>
<asrwt>0</asrwt>
<pdfrwt beam="1">  1       21 0.10537313E+00 0.19529694E+03</pdfrwt>
<pdfrwt beam="2">  1       21 0.23200254E-01 0.19529694E+03</pdfrwt>
<totfact> 0.12625422E+04</totfact>
</mgrwt>
</event>
<event>
 4    1  0.1115666E+000  0.2034661E+03  0.7546771E-02  0.1146847E+00
         21   -1    0    0  503  502  0.00000000000E+00  0.00000000000E+00  0.25530993784E+03  0.25530993784E+03  0.00000000000E+00 0.  1.
         21   -1    0    0  501  503 -0.00000000000E+00 -0.00000000000E+00 -0.22492113039E+03  0.22492113039E+03  0.00000000000E+00 0. -1.
          6    1    1    2  501    0  0.10191228491E+03  0.37793268981E+02 -0.11165427142E+03  0.23208860662E+03  0.17200000000E+03 0. -1.
         -6    1    1    2    0  502 -0.10191228491E+03 -0.37793268981E+02  0.14204307887E+03  0.24814246161E+03  0.17200000000E+03 0. -1.
<mgrwt>
<rscale>  2 0.20346608E+03</rscale>
<asrwt>0</asrwt>
<pdfrwt beam="1">  1       21 0.63827484E-01 0.20346608E+03</pdfrwt>
<pdfrwt beam="2">  1       21 0.56230283E-01 0.20346608E+03</pdfrwt>
<totfact> 0.66948657E+03</totfact>
</mgrwt>
</event>
<event>
 4    1  0.1115666E+000  0.3388112E+03  0.7546771E-02  0.1067303E+00
         21   -1    0    0  501  502  0.00000000000E+00  0.00000000000E+00  0.41740674735E+03  0.41740674735E+03  0.00000000000E+00 0.  1.
         21   -1    0    0  502  503 -0.00000000000E+00 -0.00000000000E+00 -0.41469157623E+03  0.41469157623E+03  0.00000000000E+00 0. -1.
          6    1    1    2  501    0 -0.28573815377E+03  0.59688410591E+02 -0.24010190148E+03  0.41526126953E+03  0.17200000000E+03 0. -1.
         -6    1    1    2    0  503  0.28573815377E+03 -0.59688410591E+02  0.24281707260E+03  0.41683705404E+03  0.17200000000E+03 0.  1.
<mgrwt>
<rscale>  2 0.33881116E+03</rscale>
<asrwt>0</asrwt>
<pdfrwt beam="1">  1       21 0.10435169E+00 0.33881116E+03</pdfrwt>
<pdfrwt beam="2">  1       21 0.10367289E+00 0.33881116E+03</pdfrwt>
<totfact> 0.49487392E+02</totfact>
</mgrwt>
</event>
<event>
 4    1  0.1115666E+000  0.1774612E+03  0.7546771E-02  0.1170283E+00
         21   -1    0    0  503  502  0.00000000000E+00  0.00000000000E+00  0.17334423377E+03  0.17334423377E+03  0.00000000000E+00 0.  1.
         21   -1    0    0  501  503 -0.00000000000E+00 -0.00000000000E+00 -0.22624124393E+03  0.22624124393E+03  0.00000000000E+00 0.  1.
          6    1    1    2  501    0 -0.43672214228E+02 -0.11083174706E+01 -0.11512159697E+03  0.21153125715E+03  0.17200000000E+03 0.  1.
         -6    1    1    2    0  502  0.43672214228E+02  0.11083174706E+01  0.62224586800E+02  0.18805422055E+03  0.17200000000E+03 0.  1.
<mgrwt>
<rscale>  2 0.17746124E+03</rscale>
<asrwt>0</asrwt>
<pdfrwt beam="1">  1       21 0.43336059E-01 0.17746124E+03</pdfrwt>
<pdfrwt beam="2">  1       21 0.56560311E-01 0.17746124E+03</pdfrwt>
<totfact> 0.15193678E+04</totfact>
</mgrwt>
</event>
<event>
 4    1  0.1115666E+000  0.2054928E+03  0.7546771E-02  0.1145186E+00
         21   -1    0    0  501  502  0.00000000000E+00  0.00000000000E+00  0.12944344293E+03  0.12944344293E+03  0.00000000000E+00 0. -1.
         21   -1    0    0  502  503 -0.00000000000E+00 -0.00000000000E+00 -0.42832685625E+03  0.42832685625E+03  0.00000000000E+00 0.  1.
          6    1    1    2  501    0  0.24007879204E+02  0.10984958423E+03 -0.13278189317E+02  0.20592139212E+03  0.17200000000E+03 0. -1.
         -6    1    1    2    0  503 -0.24007879204E+02 -0.10984958423E+03 -0.28560522400E+03  0.35184890706E+03  0.17200000000E+03 0.  1.
<mgrwt>
<rscale>  2 0.20549285E+03</rscale>
<asrwt>0</asrwt>
<pdfrwt beam="1">  1       21 0.32360861E-01 0.20549285E+03</pdfrwt>
<pdfrwt beam="2">  1       21 0.10708171E+00 0.20549285E+03</pdfrwt>
<totfact> 0.63405841E+03</totfact>
</mgrwt>
</event>
<event>
 4    1  0.1115666E+000  0.1936399E+03  0.7546771E-02  0.1155219E+00
         21   -1    0    0  501  502  0.00000000000E+00  0.00000000000E+00  0.43923799173E+03  0.43923799173E+03  0.00000000000E+00 0. -1.
         21   -1    0    0  502  503 -0.00000000000E+00 -0.00000000000E+00 -0.90502624239E+02  0.90502624239E+02  0.00000000000E+00 0.  1.
          6    1    1    2  501    0  0.68857837540E+02  0.56311625255E+02  0.11127164797E+03  0.22333333959E+03  0.17200000000E+03 0.  1.
         -6    1    1    2    0  503 -0.68857837540E+02 -0.56311625255E+02  0.23746371953E+03  0.30640727639E+03  0.17200000000E+03 0. -1.
<mgrwt>
<rscale>  2 0.19363987E+03</rscale>
<asrwt>0</asrwt>
<pdfrwt beam="1">  1       21 0.10980949E+00 0.19363987E+03</pdfrwt>
<pdfrwt beam="2">  1       21 0.22625657E-01 0.19363987E+03</pdfrwt>
<totfact> 0.11999779E+04</totfact>
</mgrwt>
</event>
<event>
 4    1  0.1115666E+000  0.1720150E+03  0.7546771E-02  0.1175763E+00
         21   -1    0    0  501  502  0.00000000000E+00  0.00000000000E+00  0.13632500081E+03  0.13632500081E+03  0.00000000000E+00 0.  1.
         21   -1    0    0  502  503 -0.00000000000E+00 -0.00000000000E+00 -0.22312015759E+03  0.22312015759E+03  0.00000000000E+00 0.  1.
          6    1    1    2  501    0  0.18598587507E+01 -0.13051940841E+01 -0.13750620239E+02  0.17256373363E+03  0.17200000000E+03 0.  1.
         -6    1    1    2    0  503 -0.18598587507E+01  0.13051940841E+01 -0.73044536542E+02  0.18688142477E+03  0.17200000000E+03 0.  1.
<mgrwt>
<rscale>  2 0.17201501E+03</rscale>
<asrwt>0</asrwt>
<pdfrwt beam="1">  1       21 0.34081250E-01 0.17201501E+03</pdfrwt>
<pdfrwt beam="2">  1       21 0.55780039E-01 0.17201501E+03</pdfrwt>
<totfact> 0.25413959E+04</totfact>
</mgrwt>
</event>
<event>
 4    1  0.1115666E+000  0.3090307E+03  0.7546771E-02  0.1080811E+00
         21   -1    0    0  501  502  0.00000000000E+00  0.00000000000E+00  0.94295205441E+03  0.94295205441E+03  0.00000000000E+00 0.  1.
         21   -1    0    0  502  503 -0.00000000000E+00 -0.00000000000E+00 -0.13149387867E+03  0.13149387867E+03  0.00000000000E+00 0. -1.
          6    1    1    2  501    0 -0.24212192238E+03 -0.85398613036E+02  0.14820249486E+03  0.34273010940E+03  0.17200000000E+03 0. -1.
         -6    1    1    2    0  503  0.24212192238E+03  0.85398613036E+02  0.66325568088E+03  0.73171582368E+03  0.17200000000E+03 0. -1.
<mgrwt>
<rscale>  2 0.30903066E+03</rscale>
<asrwt>0</asrwt>
<pdfrwt beam="1">  1       21 0.23573799E+00 0.30903066E+03</pdfrwt>
<pdfrwt beam="2">  1       21 0.32873472E-01 0.30903066E+03</pdfrwt>
<totfact> 0.64189724E+02</totfact>
</mgrwt>
</event>
<event>
 4    1  0.1115666E+000  0.2665175E+03  0.7546771E-02  0.1103289E+00
         21   -1    0    0  501  502  0.00000000000E+00  0.00000000000E+00  0.11954124122E+03  0.11954124122E+03  0.00000000000E+00 0. -1.
         21   -1    0    0  502  503 -0.00000000000E+00 -0.00000000000E+00 -0.60411913462E+03  0.60411913462E+03  0.00000000000E+00 0. -1.
          6    1    1    2  501    0  0.15603075438E+03  0.13077452548E+03 -0.19592827116E+03  0.33078612466E+03  0.17200000000E+03 0. -1.
         -6    1    1    2    0  503 -0.15603075438E+03 -0.13077452548E+03 -0.28864962223E+03  0.39287425118E+03  0.17200000000E+03 0. -1.
<mgrwt>
<rscale>  2 0.26651749E+03</rscale>
<asrwt>0</asrwt>
<pdfrwt beam="1">  1       21 0.29885311E-01 0.26651749E+03</pdfrwt>
<pdfrwt beam="2">  1       21 0.15102978E+00 0.26651749E+03</pdfrwt>
<totfact> 0.29740294E+03</totfact>
</mgrwt>
</event>
<event>
 4    1  0.1115666E+000  0.1724578E+03  0.7546771E-02  0.1175309E+00
         21   -1    0    0  501  502  0.00000000000E+00  0.00000000000E+00  0.18240982476E+03  0.18240982476E+03  0.00000000000E+00 0. -1.
         21   -1    0    0  502  503 -0.00000000000E+00 -0.00000000000E+00 -0.33116017315E+03  0.33116017315E+03  0.00000000000E+00 0. -1.
          6    1    1    2  501    0  0.11609124429E+02 -0.47881739346E+01  0.10858188860E+03  0.20379333873E+03  0.17200000000E+03 0. -1.
         -6    1    1    2    0  503 -0.11609124429E+02  0.47881739346E+01 -0.25733223699E+03  0.30977665918E+03  0.17200000000E+03 0. -1.
<mgrwt>
<rscale>  2 0.17245782E+03</rscale>
<asrwt>0</asrwt>
<pdfrwt beam="1">  1       21 0.45602457E-01 0.17245782E+03</pdfrwt>
<pdfrwt beam="2">  1       21 0.82790043E-01 0.17245782E+03</pdfrwt>
<totfact> 0.59611359E+03</totfact>
</mgrwt>
</event>
<event>
 4    1  0.1115666E+000  0.2770769E+03  0.7546771E-02  0.1097296E+00
         21   -1    0    0  503  502  0.00000000000E+00  0.00000000000E+00  0.19188072796E+03  0.19188072796E+03  0.00000000000E+00 0. -1.
         21   -1    0    0  501  503 -0.00000000000E+00 -0.00000000000E+00 -0.12577742527E+04  0.12577742527E+04  0.00000000000E+00 0.  1.
          6    1    1    2  501    0  0.20957741325E+03  0.57139413624E+02 -0.11314883442E+04  0.11649195156E+04  0.17200000000E+03 0.  1.
         -6    1    1    2    0  502 -0.20957741325E+03 -0.57139413624E+02  0.65594819450E+02  0.28473546508E+03  0.17200000000E+03 0. -1.
<mgrwt>
<rscale>  2 0.27707689E+03</rscale>
<asrwt>0</asrwt>
<pdfrwt beam="1">  1       21 0.47970183E-01 0.27707689E+03</pdfrwt>
<pdfrwt beam="2">  1       21 0.31444356E+00 0.27707689E+03</pdfrwt>
<totfact> 0.10419652E+02</totfact>
</mgrwt>
</event>
<event>
 4    1  0.1115666E+000  0.2042543E+03  0.7546771E-02  0.1146198E+00
         21   -1    0    0  501  502  0.00000000000E+00  0.00000000000E+00  0.56870293832E+03  0.56870293832E+03  0.00000000000E+00 0.  1.
         21   -1    0    0  502  503 -0.00000000000E+00 -0.00000000000E+00 -0.11035589733E+03  0.11035589733E+03  0.00000000000E+00 0.  1.
          6    1    1    2  501    0 -0.37865582320E+02 -0.10345052438E+03  0.42576234953E+03  0.47222176103E+03  0.17200000000E+03 0.  1.
         -6    1    1    2    0  503  0.37865582320E+02  0.10345052438E+03  0.32584691454E+02  0.20683707462E+03  0.17200000000E+03 0.  1.
<mgrwt>
<rscale>  2 0.20425429E+03</rscale>
<asrwt>0</asrwt>
<pdfrwt beam="1">  1       21 0.14217573E+00 0.20425429E+03</pdfrwt>
<pdfrwt beam="2">  1       21 0.27588976E-01 0.20425429E+03</pdfrwt>
<totfact> 0.42682944E+03</totfact>
</mgrwt>
</event>
<event>
 4    1  0.1115666E+000  0.1985007E+03  0.7546771E-02  0.1151010E+00
         21   -1    0    0  501  502  0.00000000000E+00  0.00000000000E+00  0.31661135690E+03  0.31661135690E+03  0.00000000000E+00 0. -1.
         21   -1    0    0  502  503 -0.00000000000E+00 -0.00000000000E+00 -0.15411623715E+03  0.15411623715E+03  0.00000000000E+00 0. -1.
          6    1    1    2  501    0  0.18151752482E+02 -0.97411701539E+02  0.18450969307E+03  0.27100987537E+03  0.17200000000E+03 0. -1.
         -6    1    1    2    0  503 -0.18151752482E+02  0.97411701539E+02 -0.22014573315E+02  0.19971771868E+03  0.17200000000E+03 0. -1.
<mgrwt>
<rscale>  2 0.19850069E+03</rscale>
<asrwt>0</asrwt>
<pdfrwt beam="1">  1       21 0.79152838E-01 0.19850069E+03</pdfrwt>
<pdfrwt beam="2">  1       21 0.38529060E-01 0.19850069E+03</pdfrwt>
<totfact> 0.91136298E+03</totfact>
</mgrwt>
</event>
<event>
 4    1  0.1115666E+000  0.1914546E+03  0.7546771E-02  0.1157156E+00
         21   -1    0    0  501  502  0.00000000000E+00  0.00000000000E+00  0.11419177374E+03  0.11419177374E+03  0.00000000000E+00 0.  1.
         21   -1    0    0  502  503 -0.00000000000E+00 -0.00000000000E+00 -0.39250613861E+03  0.39250613861E+03  0.00000000000E+00 0.  1.
          6    1    1    2  501    0 -0.49264993288E+02 -0.68145713650E+02 -0.31017353300E+02  0.19395090631E+03  0.17200000000E+03 0.  1.
         -6    1    1    2    0  503  0.49264993288E+02  0.68145713650E+02 -0.24729701158E+03  0.31274700604E+03  0.17200000000E+03 0.  1.
<mgrwt>
<rscale>  2 0.19145464E+03</rscale>
<asrwt>0</asrwt>
<pdfrwt beam="1">  1       21 0.28547944E-01 0.19145464E+03</pdfrwt>
<pdfrwt beam="2">  1       21 0.98126534E-01 0.19145464E+03</pdfrwt>
<totfact> 0.10083126E+04</totfact>
</mgrwt>
</event>
<event>
 4    1  0.1115666E+000  0.1998824E+03  0.7546771E-02  0.1149838E+00
         21   -1    0    0  501  502  0.00000000000E+00  0.00000000000E+00  0.96942456764E+03  0.96942456764E+03  0.00000000000E+00 0.  1.
         21   -1    0    0  502  503 -0.00000000000E+00 -0.00000000000E+00 -0.10464282998E+03  0.10464282998E+03  0.00000000000E+00 0. -1.
          6    1    1    2  501    0 -0.43236864420E+02  0.92192904425E+02  0.85050356013E+03  0.87367572008E+03  0.17200000000E+03 0.  1.
         -6    1    1    2    0  503  0.43236864420E+02 -0.92192904425E+02  0.14278177535E+02  0.20039167753E+03  0.17200000000E+03 0. -1.
<mgrwt>
<rscale>  2 0.19988236E+03</rscale>
<asrwt>0</asrwt>
<pdfrwt beam="1">  1       21 0.24235611E+00 0.19988236E+03</pdfrwt>
<pdfrwt beam="2">  1       21 0.26160710E-01 0.19988236E+03</pdfrwt>
<totfact> 0.10156228E+03</totfact>
</mgrwt>
</event>
<event>
 4    1  0.1115666E+000  0.1802610E+03  0.7546771E-02  0.1167551E+00
         21   -1    0    0  501  502  0.00000000000E+00  0.00000000000E+00  0.25807018633E+03  0.25807018633E+03  0.00000000000E+00 0. -1.
         21   -1    0    0  502  503 -0.00000000000E+00 -0.00000000000E+00 -0.13770187933E+03  0.13770187933E+03  0.00000000000E+00 0. -1.
          6    1    1    2  501    0 -0.50114430626E+02 -0.19964713903E+02  0.11808782763E+03  0.21549659160E+03  0.17200000000E+03 0. -1.
         -6    1    1    2    0  503  0.50114430626E+02  0.19964713903E+02  0.22804793657E+01  0.18027547405E+03  0.17200000000E+03 0. -1.
<mgrwt>
<rscale>  2 0.18026105E+03</rscale>
<asrwt>0</asrwt>
<pdfrwt beam="1">  1       21 0.64517546E-01 0.18026105E+03</pdfrwt>
<pdfrwt beam="2">  1       21 0.34425470E-01 0.18026105E+03</pdfrwt>
<totfact> 0.18150169E+04</totfact>
</mgrwt>
</event>
<event>
 4    1  0.1115666E+000  0.1794516E+03  0.7546771E-02  0.1168335E+00
         21   -1    0    0  503  502  0.00000000000E+00  0.00000000000E+00  0.10821490529E+04  0.10821490529E+04  0.00000000000E+00 0.  1.
         21   -1    0    0  501  503 -0.00000000000E+00 -0.00000000000E+00 -0.30440034855E+02  0.30440034855E+02  0.00000000000E+00 0.  1.
          6    1    1    2  501    0 -0.44644189416E+02 -0.25015239528E+02  0.44260057144E+03  0.47759620151E+03  0.17200000000E+03 0.  1.
         -6    1    1    2    0  502  0.44644189416E+02  0.25015239528E+02  0.60910844660E+03  0.63499288624E+03  0.17200000000E+03 0.  1.
<mgrwt>
<rscale>  2 0.17945157E+03</rscale>
<asrwt>0</asrwt>
<pdfrwt beam="1">  1       21 0.27053714E+00 0.17945157E+03</pdfrwt>
<pdfrwt beam="2">  1       21 0.76100123E-02 0.17945157E+03</pdfrwt>
<totfact> 0.67017006E+03</totfact>
</mgrwt>
</event>
<event>
 4    1  0.1115666E+000  0.1776180E+03  0.7546771E-02  0.1170128E+00
         21   -1    0    0  501  502  0.00000000000E+00  0.00000000000E+00  0.10890625983E+03  0.10890625983E+03  0.00000000000E+00 0. -1.
         21   -1    0    0  502  503 -0.00000000000E+00 -0.00000000000E+00 -0.12318056701E+04  0.12318056701E+04  0.00000000000E+00 0. -1.
          6    1    1    2  501    0  0.33168091940E+02 -0.29394361977E+02  0.24807785524E+02  0.17934206718E+03  0.17200000000E+03 0. -1.
         -6    1    1    2    0  503 -0.33168091940E+02  0.29394361977E+02 -0.11477071958E+04  0.11613698627E+04  0.17200000000E+03 0. -1.
<mgrwt>
<rscale>  2 0.17761799E+03</rscale>
<asrwt>0</asrwt>
<pdfrwt beam="1">  1       21 0.27226565E-01 0.17761799E+03</pdfrwt>
<pdfrwt beam="2">  1       21 0.30795141E+00 0.17761799E+03</pdfrwt>
<totfact> 0.40441001E+02</totfact>
</mgrwt>
</event>
<event>
 4    1  0.1115666E+000  0.1750583E+03  0.7546771E-02  0.1172673E+00
         21   -1    0    0  503  502  0.00000000000E+00  0.00000000000E+00  0.83856349658E+02  0.83856349658E+02  0.00000000000E+00 0. -1.
         21   -1    0    0  501  503 -0.00000000000E+00 -0.00000000000E+00 -0.37089149257E+03  0.37089149257E+03  0.00000000000E+00 0. -1.
          6    1    1    2  501    0 -0.10538957230E+01 -0.32562359066E+02 -0.11598026041E+03  0.20999247303E+03  0.17200000000E+03 0. -1.
         -6    1    1    2    0  502  0.10538957230E+01  0.32562359066E+02 -0.17105488251E+03  0.24475536920E+03  0.17200000000E+03 0. -1.
<mgrwt>
<rscale>  2 0.17505833E+03</rscale>
<asrwt>0</asrwt>
<pdfrwt beam="1">  1       21 0.20964088E-01 0.17505833E+03</pdfrwt>
<pdfrwt beam="2">  1       21 0.92722870E-01 0.17505833E+03</pdfrwt>
<totfact> 0.20945423E+04</totfact>
</mgrwt>
</event>
<event>
 4    1  0.1115666E+000  0.1722375E+03  0.7546771E-02  0.1175534E+00
         21   -1    0    0  501  502  0.00000000000E+00  0.00000000000E+00  0.49812516569E+03  0.49812516569E+03  0.00000000000E+00 0. -1.
         21   -1    0    0  502  503 -0.00000000000E+00 -0.00000000000E+00 -0.64352512226E+02  0.64352512226E+02  0.00000000000E+00 0. -1.
          6    1    1    2  501    0  0.69238925602E+01  0.58149695990E+01  0.29367705278E+03  0.34045846368E+03  0.17200000000E+03 0.  1.
         -6    1    1    2    0  503 -0.69238925602E+01 -0.58149695990E+01  0.14009560068E+03  0.22201921423E+03  0.17200000000E+03 0.  1.
<mgrwt>
<rscale>  2 0.17223749E+03</rscale>
<asrwt>0</asrwt>
<pdfrwt beam="1">  1       21 0.12453128E+00 0.17223749E+03</pdfrwt>
<pdfrwt beam="2">  1       21 0.16088130E-01 0.17223749E+03</pdfrwt>
<totfact> 0.16853556E+04</totfact>
</mgrwt>
</event>
<event>
 4    1  0.1115666E+000  0.2578254E+03  0.7546771E-02  0.1108457E+00
         21   -1    0    0  503  502  0.00000000000E+00  0.00000000000E+00  0.88126956607E+03  0.88126956607E+03  0.00000000000E+00 0. -1.
         21   -1    0    0  501  503 -0.00000000000E+00 -0.00000000000E+00 -0.10971218012E+03  0.10971218012E+03  0.00000000000E+00 0.  1.
          6    1    1    2  501    0 -0.11104433439E+03 -0.15671337414E+03  0.10880140401E+03  0.27984222581E+03  0.17200000000E+03 0.  1.
         -6    1    1    2    0  502  0.11104433439E+03  0.15671337414E+03  0.66275598195E+03  0.71113952037E+03  0.17200000000E+03 0. -1.
<mgrwt>
<rscale>  2 0.25782538E+03</rscale>
<asrwt>0</asrwt>
<pdfrwt beam="1">  1       21 0.22031737E+00 0.25782538E+03</pdfrwt>
<pdfrwt beam="2">  1       21 0.27428048E-01 0.25782538E+03</pdfrwt>
<totfact> 0.11897806E+03</totfact>
</mgrwt>
</event>
<event>
 4    1  0.1115666E+000  0.2308086E+03  0.7546771E-02  0.1126072E+00
         21   -1    0    0  503  502  0.00000000000E+00  0.00000000000E+00  0.64204442120E+03  0.64204442120E+03  0.00000000000E+00 0. -1.
         21   -1    0    0  501  503 -0.00000000000E+00 -0.00000000000E+00 -0.15491884972E+03  0.15491884972E+03  0.00000000000E+00 0.  1.
          6    1    1    2  501    0 -0.15377134869E+03  0.65556720147E+01 -0.27992252169E+02  0.23249982945E+03  0.17200000000E+03 0.  1.
         -6    1    1    2    0  502  0.15377134869E+03 -0.65556720147E+01  0.51511782365E+03  0.56446344146E+03  0.17200000000E+03 0. -1.
<mgrwt>
<rscale>  2 0.23080859E+03</rscale>
<asrwt>0</asrwt>
<pdfrwt beam="1">  1       21 0.16051110E+00 0.23080859E+03</pdfrwt>
<pdfrwt beam="2">  1       21 0.38729714E-01 0.23080859E+03</pdfrwt>
<totfact> 0.15475862E+03</totfact>
</mgrwt>
</event>
<event>
 4    1  0.1115666E+000  0.2314608E+03  0.7546771E-02  0.1125616E+00
         21   -1    0    0  501  502  0.00000000000E+00  0.00000000000E+00  0.76161831867E+02  0.76161831867E+02  0.00000000000E+00 0. -1.
         21   -1    0    0  502  503 -0.00000000000E+00 -0.00000000000E+00 -0.13188816483E+04  0.13188816483E+04  0.00000000000E+00 0.  1.
          6    1    1    2  501    0  0.55045793249E+02 -0.14477585146E+03 -0.14486989678E+03  0.27305928571E+03  0.17200000000E+03 0. -1.
         -6    1    1    2    0  503 -0.55045793249E+02  0.14477585146E+03 -0.10978499196E+04  0.11219841944E+04  0.17200000000E+03 0.  1.
<mgrwt>
<rscale>  2 0.23146077E+03</rscale>
<asrwt>0</asrwt>
<pdfrwt beam="1">  1       21 0.19040457E-01 0.23146077E+03</pdfrwt>
<pdfrwt beam="2">  1       21 0.32972042E+00 0.23146077E+03</pdfrwt>
<totfact> 0.55130844E+02</totfact>
</mgrwt>
</event>
<event>
 4    1  0.1115666E+000  0.1898433E+03  0.7546771E-02  0.1158603E+00
         21   -1    0    0  501  502  0.00000000000E+00  0.00000000000E+00  0.54121161000E+03  0.54121161000E+03  0.00000000000E+00 0. -1.
         21   -1    0    0  502  503 -0.00000000000E+00 -0.00000000000E+00 -0.79719476514E+02  0.79719476514E+02  0.00000000000E+00 0.  1.
          6    1    1    2  501    0 -0.70950772395E+02  0.37715807761E+02  0.10476136337E+03  0.21683043493E+03  0.17200000000E+03 0.  1.
         -6    1    1    2    0  503  0.70950772395E+02 -0.37715807761E+02  0.35673077012E+03  0.40410065158E+03  0.17200000000E+03 0. -1.
<mgrwt>
<rscale>  2 0.18984334E+03</rscale>
<asrwt>0</asrwt>
<pdfrwt beam="1">  1       21 0.13530289E+00 0.18984334E+03</pdfrwt>
<pdfrwt beam="2">  1       21 0.19929871E-01 0.18984334E+03</pdfrwt>
<totfact> 0.90949488E+03</totfact>
</mgrwt>
</event>
<event>
 4    1  0.1115666E+000  0.2310631E+03  0.7546771E-02  0.1125894E+00
         21   -1    0    0  503  502  0.00000000000E+00  0.00000000000E+00  0.40881126482E+03  0.40881126482E+03  0.00000000000E+00 0.  1.
         21   -1    0    0  501  503 -0.00000000000E+00 -0.00000000000E+00 -0.37090091424E+03  0.37090091424E+03  0.00000000000E+00 0.  1.
          6    1    1    2  501    0 -0.15424730581E+03  0.37311983398E+01 -0.29484588287E+03  0.37459878248E+03  0.17200000000E+03 0.  1.
         -6    1    1    2    0  502  0.15424730581E+03 -0.37311983398E+01  0.33275623345E+03  0.40511339658E+03  0.17200000000E+03 0.  1.
<mgrwt>
<rscale>  2 0.23106309E+03</rscale>
<asrwt>0</asrwt>
<pdfrwt beam="1">  1       21 0.10220282E+00 0.23106309E+03</pdfrwt>
<pdfrwt beam="2">  1       21 0.92725229E-01 0.23106309E+03</pdfrwt>
<totfact> 0.73573554E+02</totfact>
</mgrwt>
</event>
<event>
 4    1  0.1115666E+000  0.2161663E+03  0.7546771E-02  0.1136774E+00
         21   -1    0    0  503  502  0.00000000000E+00  0.00000000000E+00  0.65366877491E+02  0.65366877491E+02  0.00000000000E+00 0. -1.
         21   -1    0    0  501  503 -0.00000000000E+00 -0.00000000000E+00 -0.10589550140E+04  0.10589550140E+04  0.00000000000E+00 0.  1.
          6    1    1    2  501    0 -0.13032248811E+03 -0.12645355312E+02 -0.81724688951E+03  0.84535219544E+03  0.17200000000E+03 0.  1.
         -6    1    1    2    0  502  0.13032248811E+03  0.12645355312E+02 -0.17634124698E+03  0.27896969603E+03  0.17200000000E+03 0. -1.
<mgrwt>
<rscale>  2 0.21616627E+03</rscale>
<asrwt>0</asrwt>
<pdfrwt beam="1">  1       21 0.16341720E-01 0.21616627E+03</pdfrwt>
<pdfrwt beam="2">  1       21 0.26473875E+00 0.21616627E+03</pdfrwt>
<totfact> 0.17808159E+03</totfact>
</mgrwt>
</event>
<event>
 4    1  0.1115666E+000  0.1805834E+03  0.7546771E-02  0.1167240E+00
         21   -1    0    0  503  502  0.00000000000E+00  0.00000000000E+00  0.10822626674E+03  0.10822626674E+03  0.00000000000E+00 0. -1.
         21   -1    0    0  501  503 -0.00000000000E+00 -0.00000000000E+00 -0.12947054710E+04  0.12947054710E+04  0.00000000000E+00 0. -1.
          6    1    1    2  501    0 -0.29760595710E+02 -0.46267516667E+02 -0.12076813092E+04  0.12211079070E+04  0.17200000000E+03 0. -1.
         -6    1    1    2    0  502  0.29760595710E+02  0.46267516667E+02  0.21202104903E+02  0.18182383069E+03  0.17200000000E+03 0. -1.
<mgrwt>
<rscale>  2 0.18058343E+03</rscale>
<asrwt>0</asrwt>
<pdfrwt beam="1">  1       21 0.27056567E-01 0.18058343E+03</pdfrwt>
<pdfrwt beam="2">  1       21 0.32367637E+00 0.18058343E+03</pdfrwt>
<totfact> 0.33074213E+02</totfact>
</mgrwt>
</event>
<event>
 4    1  0.1115666E+000  0.2083598E+03  0.7546771E-02  0.1142871E+00
         21   -1    0    0  503  502  0.00000000000E+00  0.00000000000E+00  0.22570009506E+03  0.22570009506E+03  0.00000000000E+00 0.  1.
         21   -1    0    0  501  503 -0.00000000000E+00 -0.00000000000E+00 -0.19276521887E+03  0.19276521887E+03  0.00000000000E+00 0.  1.
          6    1    1    2  501    0 -0.69780823659E+01  0.11739307029E+03  0.67781047512E+01  0.20847006809E+03  0.17200000000E+03 0.  1.
         -6    1    1    2    0  502  0.69780823659E+01 -0.11739307029E+03  0.26156771436E+02  0.20999524584E+03  0.17200000000E+03 0.  1.
<mgrwt>
<rscale>  2 0.20835985E+03</rscale>
<asrwt>0</asrwt>
<pdfrwt beam="1">  1       21 0.56425024E-01 0.20835985E+03</pdfrwt>
<pdfrwt beam="2">  1       21 0.48191305E-01 0.20835985E+03</pdfrwt>
<totfact> 0.12029316E+04</totfact>
</mgrwt>
</event>
<event>
 4    1  0.1115666E+000  0.2569756E+03  0.7546771E-02  0.1108974E+00
         21   -1    0    0  501  502  0.00000000000E+00  0.00000000000E+00  0.20976774580E+03  0.20976774580E+03  0.00000000000E+00 0. -1.
         21   -1    0    0  502  503 -0.00000000000E+00 -0.00000000000E+00 -0.84499932664E+03  0.84499932664E+03  0.00000000000E+00 0.  1.
          6    1    1    2  501    0  0.16043985092E+03 -0.10349654131E+03  0.10013267315E+03  0.27579527200E+03  0.17200000000E+03 0. -1.
         -6    1    1    2    0  503 -0.16043985092E+03  0.10349654131E+03 -0.73536425400E+03  0.77897180044E+03  0.17200000000E+03 0.  1.
<mgrwt>
<rscale>  2 0.25697564E+03</rscale>
<asrwt>0</asrwt>
<pdfrwt beam="1">  1       21 0.52441937E-01 0.25697564E+03</pdfrwt>
<pdfrwt beam="2">  1       21 0.21124983E+00 0.25697564E+03</pdfrwt>
<totfact> 0.36588981E+02</totfact>
</mgrwt>
</event>
<event>
 4    1  0.1115666E+000  0.2253514E+03  0.7546771E-02  0.1129955E+00
         21   -1    0    0  501  502  0.00000000000E+00  0.00000000000E+00  0.34011189703E+03  0.34011189703E+03  0.00000000000E+00 0.  1.
         21   -1    0    0  502  503 -0.00000000000E+00 -0.00000000000E+00 -0.20563886155E+03  0.20563886155E+03  0.00000000000E+00 0. -1.
          6    1    1    2  501    0 -0.86909216082E+01 -0.14534001418E+03  0.21004837635E+03  0.30806423396E+03  0.17200000000E+03 0.  1.
         -6    1    1    2    0  503  0.86909216082E+01  0.14534001418E+03 -0.75575340871E+02  0.23768652462E+03  0.17200000000E+03 0. -1.
<mgrwt>
<rscale>  2 0.22535140E+03</rscale>
<asrwt>0</asrwt>
<pdfrwt beam="1">  1       21 0.85027973E-01 0.22535140E+03</pdfrwt>
<pdfrwt beam="2">  1       21 0.51409716E-01 0.22535140E+03</pdfrwt>
<totfact> 0.41980724E+03</totfact>
</mgrwt>
</event>
<event>
 4    1  0.1115666E+000  0.1738095E+03  0.7546771E-02  0.1173932E+00
         21   -1    0    0  501  502  0.00000000000E+00  0.00000000000E+00  0.56387338502E+03  0.56387338502E+03  0.00000000000E+00 0. -1.
         21   -1    0    0  502  503 -0.00000000000E+00 -0.00000000000E+00 -0.10678255022E+03  0.10678255022E+03  0.00000000000E+00 0. -1.
          6    1    1    2  501    0  0.20679740284E+02  0.14074045382E+02  0.46524893762E+03  0.49665511612E+03  0.17200000000E+03 0. -1.
         -6    1    1    2    0  503 -0.20679740284E+02 -0.14074045382E+02 -0.81581028158E+01  0.17400081912E+03  0.17200000000E+03 0. -1.
<mgrwt>
<rscale>  2 0.17380947E+03</rscale>
<asrwt>0</asrwt>
<pdfrwt beam="1">  1       21 0.14096834E+00 0.17380947E+03</pdfrwt>
<pdfrwt beam="2">  1       21 0.26695639E-01 0.17380947E+03</pdfrwt>
<totfact> 0.47724383E+03</totfact>
</mgrwt>
</event>
<event>
 4    1  0.1115666E+000  0.2046996E+03  0.7546771E-02  0.1145833E+00
         21   -1    0    0  503  502  0.00000000000E+00  0.00000000000E+00  0.66212303407E+03  0.66212303407E+03  0.00000000000E+00 0. -1.
         21   -1    0    0  501  503 -0.00000000000E+00 -0.00000000000E+00 -0.10933367804E+03  0.10933367804E+03  0.00000000000E+00 0.  1.
          6    1    1    2  501    0 -0.10055676332E+03 -0.46971016586E+02  0.26062398589E+02  0.20635209635E+03  0.17200000000E+03 0.  1.
         -6    1    1    2    0  502  0.10055676332E+03  0.46971016586E+02  0.52672695744E+03  0.56510461575E+03  0.17200000000E+03 0. -1.
<mgrwt>
<rscale>  2 0.20469963E+03</rscale>
<asrwt>0</asrwt>
<pdfrwt beam="1">  1       21 0.16553075E+00 0.20469963E+03</pdfrwt>
<pdfrwt beam="2">  1       21 0.27333421E-01 0.20469963E+03</pdfrwt>
<totfact> 0.28973584E+03</totfact>
</mgrwt>
</event>
<event>
 4    1  0.1115666E+000  0.1721823E+03  0.7546771E-02  0.1175591E+00
         21   -1    0    0  501  502  0.00000000000E+00  0.00000000000E+00  0.87449107016E+03  0.87449107016E+03  0.00000000000E+00 0.  1.
         21   -1    0    0  502  503 -0.00000000000E+00 -0.00000000000E+00 -0.13578572316E+03  0.13578572316E+03  0.00000000000E+00 0.  1.
          6    1    1    2  501    0  0.77280373212E+01 -0.17388459325E+01  0.80691139003E+03  0.82507741304E+03  0.17200000000E+03 0.  1.
         -6    1    1    2    0  503 -0.77280373212E+01  0.17388459325E+01 -0.68206043037E+02  0.18519938027E+03  0.17200000000E+03 0.  1.
<mgrwt>
<rscale>  2 0.17218230E+03</rscale>
<asrwt>0</asrwt>
<pdfrwt beam="1">  1       21 0.21862275E+00 0.17218230E+03</pdfrwt>
<pdfrwt beam="2">  1       21 0.33946433E-01 0.17218230E+03</pdfrwt>
<totfact> 0.87975396E+02</totfact>
</mgrwt>
</event>
<event>
 4    1  0.1115666E+000  0.1724524E+03  0.7546771E-02  0.1175314E+00
         21   -1    0    0  501  502  0.00000000000E+00  0.00000000000E+00  0.48616192744E+03  0.48616192744E+03  0.00000000000E+00 0.  1.
         21   -1    0    0  502  503 -0.00000000000E+00 -0.00000000000E+00 -0.72094306035E+02  0.72094306035E+02  0.00000000000E+00 0.  1.
          6    1    1    2  501    0  0.87261568480E+01 -0.89258146867E+01  0.31567568404E+03  0.35970954043E+03  0.17200000000E+03 0. -1.
         -6    1    1    2    0  503 -0.87261568480E+01  0.89258146867E+01  0.98391937366E+02  0.19854669305E+03  0.17200000000E+03 0. -1.
<mgrwt>
<rscale>  2 0.17245236E+03</rscale>
<asrwt>0</asrwt>
<pdfrwt beam="1">  1       21 0.12154047E+00 0.17245236E+03</pdfrwt>
<pdfrwt beam="2">  1       21 0.18023578E-01 0.17245236E+03</pdfrwt>
<totfact> 0.14531809E+04</totfact>
</mgrwt>
</event>
<event>
 4    1  0.1115666E+000  0.2370158E+03  0.7546771E-02  0.1121797E+00
         21   -1    0    0  501  502  0.00000000000E+00  0.00000000000E+00  0.52975124530E+03  0.52975124530E+03  0.00000000000E+00 0.  1.
         21   -1    0    0  502  503 -0.00000000000E+00 -0.00000000000E+00 -0.20697527949E+03  0.20697527949E+03  0.00000000000E+00 0. -1.
          6    1    1    2  501    0 -0.15128690703E+03 -0.60866718542E+02  0.41862402014E+03  0.48106398317E+03  0.17200000000E+03 0.  1.
         -6    1    1    2    0  503  0.15128690703E+03  0.60866718542E+02 -0.95848054336E+02  0.25566254162E+03  0.17200000000E+03 0. -1.
<mgrwt>
<rscale>  2 0.23701579E+03</rscale>
<asrwt>0</asrwt>
<pdfrwt beam="1">  1       21 0.13243781E+00 0.23701579E+03</pdfrwt>
<pdfrwt beam="2">  1       21 0.51743821E-01 0.23701579E+03</pdfrwt>
<totfact> 0.14051805E+03</totfact>
</mgrwt>
</event>
<event>
 4    1  0.1115666E+000  0.2850516E+03  0.7546771E-02  0.1092961E+00
         21   -1    0    0  503  502  0.00000000000E+00  0.00000000000E+00  0.80312855403E+03  0.80312855403E+03  0.00000000000E+00 0. -1.
         21   -1    0    0  501  503 -0.00000000000E+00 -0.00000000000E+00 -0.10610010258E+03  0.10610010258E+03  0.00000000000E+00 0. -1.
          6    1    1    2  501    0 -0.16121416754E+03  0.16025108780E+03  0.25054068624E+03  0.37950632988E+03  0.17200000000E+03 0. -1.
         -6    1    1    2    0  502  0.16121416754E+03 -0.16025108780E+03  0.44648776521E+03  0.52972232673E+03  0.17200000000E+03 0. -1.
<mgrwt>
<rscale>  2 0.28505161E+03</rscale>
<asrwt>0</asrwt>
<pdfrwt beam="1">  1       21 0.20078212E+00 0.28505161E+03</pdfrwt>
<pdfrwt beam="2">  1       21 0.26525028E-01 0.28505161E+03</pdfrwt>
<totfact> 0.16546913E+03</totfact>
</mgrwt>
</event>
<event>
 4    1  0.1115666E+000  0.1929205E+03  0.7546771E-02  0.1155853E+00
         21   -1    0    0  501  502  0.00000000000E+00  0.00000000000E+00  0.90428370141E+03  0.90428370141E+03  0.00000000000E+00 0.  1.
         21   -1    0    0  502  503 -0.00000000000E+00 -0.00000000000E+00 -0.41158450413E+02  0.41158450413E+02  0.00000000000E+00 0. -1.
          6    1    1    2  501    0  0.83757510401E+02 -0.24879611567E+02  0.43346105254E+03  0.47445421243E+03  0.17200000000E+03 0. -1.
         -6    1    1    2    0  503 -0.83757510401E+02  0.24879611567E+02  0.42966419846E+03  0.47098793939E+03  0.17200000000E+03 0.  1.
<mgrwt>
<rscale>  2 0.19292049E+03</rscale>
<asrwt>0</asrwt>
<pdfrwt beam="1">  1       21 0.22607086E+00 0.19292049E+03</pdfrwt>
<pdfrwt beam="2">  1       21 0.10289616E-01 0.19292049E+03</pdfrwt>
<totfact> 0.71250217E+03</totfact>
</mgrwt>
</event>
<event>
 4    1  0.1115666E+000  0.2000349E+03  0.7546771E-02  0.1149710E+00
         21   -1    0    0  503  502  0.00000000000E+00  0.00000000000E+00  0.20596636133E+03  0.20596636133E+03  0.00000000000E+00 0.  1.
         21   -1    0    0  501  503 -0.00000000000E+00 -0.00000000000E+00 -0.20005449515E+03  0.20005449515E+03  0.00000000000E+00 0. -1.
          6    1    1    2  501    0  0.96074203153E+02 -0.34636938268E+02 -0.31551731029E+02  0.20250797944E+03  0.17200000000E+03 0. -1.
         -6    1    1    2    0  502 -0.96074203153E+02  0.34636938268E+02  0.37463597207E+02  0.20351287704E+03  0.17200000000E+03 0.  1.
<mgrwt>
<rscale>  2 0.20003492E+03</rscale>
<asrwt>0</asrwt>
<pdfrwt beam="1">  1       21 0.51491590E-01 0.20003492E+03</pdfrwt>
<pdfrwt beam="2">  1       21 0.50013624E-01 0.20003492E+03</pdfrwt>
<totfact> 0.13581081E+04</totfact>
</mgrwt>
</event>
<event>
 4    1  0.1115666E+000  0.1933792E+03  0.7546771E-02  0.1155448E+00
         21   -1    0    0  501  502  0.00000000000E+00  0.00000000000E+00  0.13504350952E+03  0.13504350952E+03  0.00000000000E+00 0. -1.
         21   -1    0    0  502  503 -0.00000000000E+00 -0.00000000000E+00 -0.30391570739E+03  0.30391570739E+03  0.00000000000E+00 0.  1.
          6    1    1    2  501    0  0.39827451822E+02 -0.78900511041E+02 -0.19016396869E+02  0.19431196543E+03  0.17200000000E+03 0. -1.
         -6    1    1    2    0  503 -0.39827451822E+02  0.78900511041E+02 -0.14985580100E+03  0.24464725148E+03  0.17200000000E+03 0. -1.
<mgrwt>
<rscale>  2 0.19337920E+03</rscale>
<asrwt>0</asrwt>
<pdfrwt beam="1">  1       21 0.33760878E-01 0.19337920E+03</pdfrwt>
<pdfrwt beam="2">  1       21 0.75978926E-01 0.19337920E+03</pdfrwt>
<totfact> 0.13048245E+04</totfact>
</mgrwt>
</event>
<event>
 4    1  0.1115666E+000  0.1886035E+03  0.7546771E-02  0.1159727E+00
         21   -1    0    0  503  502  0.00000000000E+00  0.00000000000E+00  0.54504062125E+02  0.54504062125E+02  0.00000000000E+00 0.  1.
         21   -1    0    0  501  503 -0.00000000000E+00 -0.00000000000E+00 -0.81383579629E+03  0.81383579629E+03  0.00000000000E+00 0.  1.
          6    1    1    2  501    0 -0.41330426330E+02  0.65414529660E+02 -0.57289596931E+03  0.60314265019E+03  0.17200000000E+03 0.  1.
         -6    1    1    2    0  502  0.41330426330E+02 -0.65414529660E+02 -0.18643576486E+03  0.26519720822E+03  0.17200000000E+03 0.  1.
<mgrwt>
<rscale>  2 0.18860346E+03</rscale>
<asrwt>0</asrwt>
<pdfrwt beam="1">  1       21 0.13626016E-01 0.18860346E+03</pdfrwt>
<pdfrwt beam="2">  1       21 0.20345895E+00 0.18860346E+03</pdfrwt>
<totfact> 0.59810293E+03</totfact>
</mgrwt>
</event>
<event>
 4    1  0.1115666E+000  0.1750654E+03  0.7546771E-02  0.1172666E+00
         21   -1    0    0  501  502  0.00000000000E+00  0.00000000000E+00  0.12614988268E+03  0.12614988268E+03  0.00000000000E+00 0.  1.
         21   -1    0    0  502  503 -0.00000000000E+00 -0.00000000000E+00 -0.27187849130E+03  0.27187849130E+03  0.00000000000E+00 0.  1.
          6    1    1    2  501    0 -0.27413935250E+02 -0.17674247744E+02 -0.13778334076E+03  0.22278274590E+03  0.17200000000E+03 0.  1.
         -6    1    1    2    0  503  0.27413935250E+02  0.17674247744E+02 -0.79452678549E+01  0.17524562808E+03  0.17200000000E+03 0.  1.
<mgrwt>
<rscale>  2 0.17506542E+03</rscale>
<asrwt>0</asrwt>
<pdfrwt beam="1">  1       21 0.31537471E-01 0.17506542E+03</pdfrwt>
<pdfrwt beam="2">  1       21 0.67969622E-01 0.17506542E+03</pdfrwt>
<totfact> 0.19311475E+04</totfact>
</mgrwt>
</event>
<event>
 4    1  0.1115666E+000  0.1888374E+03  0.7546771E-02  0.1159514E+00
         21   -1    0    0  503  502  0.00000000000E+00  0.00000000000E+00  0.89062167390E+03  0.89062167390E+03  0.00000000000E+00 0.  1.
         21   -1    0    0  501  503 -0.00000000000E+00 -0.00000000000E+00 -0.42311330724E+02  0.42311330724E+02  0.00000000000E+00 0. -1.
          6    1    1    2  501    0 -0.74190551468E+02 -0.23902399332E+02  0.53225674856E+03  0.56476261297E+03  0.17200000000E+03 0.  1.
         -6    1    1    2    0  502  0.74190551468E+02  0.23902399332E+02  0.31605359461E+03  0.36817039165E+03  0.17200000000E+03 0. -1.
<mgrwt>
<rscale>  2 0.18883740E+03</rscale>
<asrwt>0</asrwt>
<pdfrwt beam="1">  1       21 0.22265536E+00 0.18883740E+03</pdfrwt>
<pdfrwt beam="2">  1       21 0.10577836E-01 0.18883740E+03</pdfrwt>
<totfact> 0.71444944E+03</totfact>
</mgrwt>
</event>
<event>
 4    1  0.1115666E+000  0.1971082E+03  0.7546771E-02  0.1152202E+00
         21   -1    0    0  501  502  0.00000000000E+00  0.00000000000E+00  0.75143994276E+02  0.75143994276E+02  0.00000000000E+00 0.  1.
         21   -1    0    0  502  503 -0.00000000000E+00 -0.00000000000E+00 -0.10854121694E+04  0.10854121694E+04  0.00000000000E+00 0.  1.
          6    1    1    2  501    0  0.85670734215E+02 -0.43911020223E+02 -0.85221121524E+02  0.21474238508E+03  0.17200000000E+03 0.  1.
         -6    1    1    2    0  503 -0.85670734215E+02  0.43911020223E+02 -0.92504705356E+03  0.94581377855E+03  0.17200000000E+03 0.  1.
<mgrwt>
<rscale>  2 0.19710823E+03</rscale>
<asrwt>0</asrwt>
<pdfrwt beam="1">  1       21 0.18785999E-01 0.19710823E+03</pdfrwt>
<pdfrwt beam="2">  1       21 0.27135304E+00 0.19710823E+03</pdfrwt>
<totfact> 0.12878339E+03</totfact>
</mgrwt>
</event>
<event>
 4    1  0.1115666E+000  0.2060541E+03  0.7546771E-02  0.1144729E+00
         21   -1    0    0  503  502  0.00000000000E+00  0.00000000000E+00  0.27874275367E+03  0.27874275367E+03  0.00000000000E+00 0.  1.
         21   -1    0    0  501  503 -0.00000000000E+00 -0.00000000000E+00 -0.19324186321E+03  0.19324186321E+03  0.00000000000E+00 0.  1.
          6    1    1    2  501    0 -0.74686852085E+02  0.85417609047E+02 -0.65847392669E+02  0.21631960829E+03  0.17200000000E+03 0.  1.
         -6    1    1    2    0  502  0.74686852085E+02 -0.85417609047E+02  0.15134828313E+03  0.25566500859E+03  0.17200000000E+03 0.  1.
<mgrwt>
<rscale>  2 0.20605410E+03</rscale>
<asrwt>0</asrwt>
<pdfrwt beam="1">  1       21 0.69685688E-01 0.20605410E+03</pdfrwt>
<pdfrwt beam="2">  1       21 0.48310466E-01 0.20605410E+03</pdfrwt>
<totfact> 0.75855249E+03</totfact>
</mgrwt>
</event>
<event>
 4    1  0.1115666E+000  0.2145623E+03  0.7546771E-02  0.1138003E+00
         21   -1    0    0  503  502  0.00000000000E+00  0.00000000000E+00  0.19123129737E+03  0.19123129737E+03  0.00000000000E+00 0.  1.
         21   -1    0    0  501  503 -0.00000000000E+00 -0.00000000000E+00 -0.25419814461E+03  0.25419814461E+03  0.00000000000E+00 0.  1.
          6    1    1    2  501    0 -0.11671208446E+03  0.53209822269E+02 -0.82729141631E+02  0.22995892399E+03  0.17200000000E+03 0.  1.
         -6    1    1    2    0  502  0.11671208446E+03 -0.53209822269E+02  0.19762294385E+02  0.21547051800E+03  0.17200000000E+03 0.  1.
<mgrwt>
<rscale>  2 0.21456234E+03</rscale>
<asrwt>0</asrwt>
<pdfrwt beam="1">  1       21 0.47807825E-01 0.21456234E+03</pdfrwt>
<pdfrwt beam="2">  1       21 0.63549536E-01 0.21456234E+03</pdfrwt>
<totfact> 0.94318624E+03</totfact>
</mgrwt>
</event>
<event>
 4    1  0.1115666E+000  0.2522951E+03  0.7546771E-02  0.1111863E+00
         21   -1    0    0  501  502  0.00000000000E+00  0.00000000000E+00  0.62786771924E+03  0.62786771924E+03  0.00000000000E+00 0. -1.
         21   -1    0    0  502  503 -0.00000000000E+00 -0.00000000000E+00 -0.10261507416E+03  0.10261507416E+03  0.00000000000E+00 0.  1.
          6    1    1    2  501    0  0.18269200760E+03  0.26314783123E+02  0.30270659374E+03  0.39406106043E+03  0.17200000000E+03 0.  1.
         -6    1    1    2    0  503 -0.18269200760E+03 -0.26314783123E+02  0.22254605133E+03  0.33642173297E+03  0.17200000000E+03 0.  1.
<mgrwt>
<rscale>  2 0.25229514E+03</rscale>
<asrwt>0</asrwt>
<pdfrwt beam="1">  1       21 0.15696692E+00 0.25229514E+03</pdfrwt>
<pdfrwt beam="2">  1       21 0.25653770E-01 0.25229514E+03</pdfrwt>
<totfact> 0.36434750E+03</totfact>
</mgrwt>
</event>
<event>
 4    1  0.1115666E+000  0.1830165E+03  0.7546771E-02  0.1164915E+00
         21   -1    0    0  501  502  0.00000000000E+00  0.00000000000E+00  0.23972458687E+03  0.23972458687E+03  0.00000000000E+00 0.  1.
         21   -1    0    0  502  503 -0.00000000000E+00 -0.00000000000E+00 -0.18365163090E+03  0.18365163090E+03  0.00000000000E+00 0. -1.
          6    1    1    2  501    0 -0.52694013954E+02 -0.33680338068E+02  0.13156814210E+03  0.22540008939E+03  0.17200000000E+03 0.  1.
         -6    1    1    2    0  503  0.52694013954E+02  0.33680338068E+02 -0.75495186131E+02  0.19797612838E+03  0.17200000000E+03 0. -1.
<mgrwt>
<rscale>  2 0.18301646E+03</rscale>
<asrwt>0</asrwt>
<pdfrwt beam="1">  1       21 0.59931147E-01 0.18301646E+03</pdfrwt>
<pdfrwt beam="2">  1       21 0.45912908E-01 0.18301646E+03</pdfrwt>
<totfact> 0.11887068E+04</totfact>
</mgrwt>
</event>
<event>
 4    1  0.1115666E+000  0.1995517E+03  0.7546771E-02  0.1150118E+00
         21   -1    0    0  501  502  0.00000000000E+00  0.00000000000E+00  0.83904828573E+03  0.83904828573E+03  0.00000000000E+00 0.  1.
         21   -1    0    0  502  503 -0.00000000000E+00 -0.00000000000E+00 -0.49586566882E+02  0.49586566882E+02  0.00000000000E+00 0.  1.
          6    1    1    2  501    0  0.14398380731E+02 -0.10014776331E+03  0.48675307446E+03  0.52606980845E+03  0.17200000000E+03 0. -1.
         -6    1    1    2    0  503 -0.14398380731E+02  0.10014776331E+03  0.30270864439E+03  0.36256504417E+03  0.17200000000E+03 0. -1.
<mgrwt>
<rscale>  2 0.19955172E+03</rscale>
<asrwt>0</asrwt>
<pdfrwt beam="1">  1       21 0.20976203E+00 0.19955172E+03</pdfrwt>
<pdfrwt beam="2">  1       21 0.12396644E-01 0.19955172E+03</pdfrwt>
<totfact> 0.64058652E+03</totfact>
</mgrwt>
</event>
<event>
 4    1  0.1115666E+000  0.1723531E+03  0.7546771E-02  0.1175416E+00
         21   -1    0    0  503  502  0.00000000000E+00  0.00000000000E+00  0.33417065822E+03  0.33417065822E+03  0.00000000000E+00 0.  1.
         21   -1    0    0  501  503 -0.00000000000E+00 -0.00000000000E+00 -0.13826737468E+03  0.13826737468E+03  0.00000000000E+00 0.  1.
          6    1    1    2  501    0 -0.10819589924E+02  0.21306888101E+01 -0.43205726120E+02  0.17768606622E+03  0.17200000000E+03 0.  1.
         -6    1    1    2    0  502  0.10819589924E+02 -0.21306888101E+01  0.23910900965E+03  0.29475196667E+03  0.17200000000E+03 0.  1.
<mgrwt>
<rscale>  2 0.17235314E+03</rscale>
<asrwt>0</asrwt>
<pdfrwt beam="1">  1       21 0.83542663E-01 0.17235314E+03</pdfrwt>
<pdfrwt beam="2">  1       21 0.34566844E-01 0.17235314E+03</pdfrwt>
<totfact> 0.10200900E+04</totfact>
</mgrwt>
</event>
<event>
 4    1  0.1115666E+000  0.1912000E+03  0.7546771E-02  0.1157383E+00
         21   -1    0    0  501  502  0.00000000000E+00  0.00000000000E+00  0.38124704861E+03  0.38124704861E+03  0.00000000000E+00 0. -1.
         21   -1    0    0  502  503 -0.00000000000E+00 -0.00000000000E+00 -0.26810199878E+03  0.26810199878E+03  0.00000000000E+00 0. -1.
          6    1    1    2  501    0 -0.64753646668E+02 -0.52729694447E+02  0.31678670644E+03  0.37001523321E+03  0.17200000000E+03 0. -1.
         -6    1    1    2    0  503  0.64753646668E+02  0.52729694447E+02 -0.20364165662E+03  0.27933381418E+03  0.17200000000E+03 0. -1.
<mgrwt>
<rscale>  2 0.19120004E+03</rscale>
<asrwt>0</asrwt>
<pdfrwt beam="1">  1       21 0.95311762E-01 0.19120004E+03</pdfrwt>
<pdfrwt beam="2">  1       21 0.67025500E-01 0.19120004E+03</pdfrwt>
<totfact> 0.18763610E+03</totfact>
</mgrwt>
</event>
<event>
 4    1  0.1115666E+000  0.1839942E+03  0.7546771E-02  0.1163992E+00
         21   -1    0    0  501  502  0.00000000000E+00  0.00000000000E+00  0.44353959112E+03  0.44353959112E+03  0.00000000000E+00 0.  1.
         21   -1    0    0  502  503 -0.00000000000E+00 -0.00000000000E+00 -0.13292992146E+03  0.13292992146E+03  0.00000000000E+00 0. -1.
          6    1    1    2  501    0  0.62547104178E+02  0.18913967626E+02  0.34339056633E+03  0.38957792475E+03  0.17200000000E+03 0.  1.
         -6    1    1    2    0  503 -0.62547104178E+02 -0.18913967626E+02 -0.32780896671E+02  0.18689158782E+03  0.17200000000E+03 0. -1.
<mgrwt>
<rscale>  2 0.18399423E+03</rscale>
<asrwt>0</asrwt>
<pdfrwt beam="1">  1       21 0.11088489E+00 0.18399423E+03</pdfrwt>
<pdfrwt beam="2">  1       21 0.33232481E-01 0.18399423E+03</pdfrwt>
<totfact> 0.56235101E+03</totfact>
</mgrwt>
</event>
<event>
 4    1  0.1115666E+000  0.2326854E+03  0.7546771E-02  0.1124764E+00
         21   -1    0    0  501  502  0.00000000000E+00  0.00000000000E+00  0.72293469711E+03  0.72293469711E+03  0.00000000000E+00 0. -1.
         21   -1    0    0  502  503 -0.00000000000E+00 -0.00000000000E+00 -0.95371625879E+02  0.95371625879E+02  0.00000000000E+00 0.  1.
          6    1    1    2  501    0  0.16681455011E+02  0.15582119768E+03  0.50337795108E+03  0.55455556820E+03  0.17200000000E+03 0. -1.
         -6    1    1    2    0  503 -0.16681455011E+02 -0.15582119768E+03  0.12418512015E+03  0.26375075479E+03  0.17200000000E+03 0.  1.
<mgrwt>
<rscale>  2 0.23268545E+03</rscale>
<asrwt>0</asrwt>
<pdfrwt beam="1">  1       21 0.18073366E+00 0.23268545E+03</pdfrwt>
<pdfrwt beam="2">  1       21 0.23842909E-01 0.23268545E+03</pdfrwt>
<totfact> 0.28770271E+03</totfact>
</mgrwt>
</event>
<event>
 4    1  0.1115666E+000  0.2007208E+03  0.7546771E-02  0.1149132E+00
         21   -1    0    0  501  502  0.00000000000E+00  0.00000000000E+00  0.15537584374E+03  0.15537584374E+03  0.00000000000E+00 0.  1.
         21   -1    0    0  502  503 -0.00000000000E+00 -0.00000000000E+00 -0.28197255177E+03  0.28197255177E+03  0.00000000000E+00 0.  1.
          6    1    1    2  501    0  0.12785623254E+02 -0.10267113294E+03 -0.12897603784E+01  0.20072492915E+03  0.17200000000E+03 0.  1.
         -6    1    1    2    0  503 -0.12785623254E+02  0.10267113294E+03 -0.12530694766E+03  0.23662346636E+03  0.17200000000E+03 0.  1.
<mgrwt>
<rscale>  2 0.20072079E+03</rscale>
<asrwt>0</asrwt>
<pdfrwt beam="1">  1       21 0.38843961E-01 0.20072079E+03</pdfrwt>
<pdfrwt beam="2">  1       21 0.70493137E-01 0.20072079E+03</pdfrwt>
<totfact> 0.11595597E+04</totfact>
</mgrwt>
</event>
<event>
 4    1  0.1115666E+000  0.2221677E+03  0.7546771E-02  0.1132277E+00
         21   -1    0    0  501  502  0.00000000000E+00  0.00000000000E+00  0.99184858583E+02  0.99184858583E+02  0.00000000000E+00 0. -1.
         21   -1    0    0  502  503 -0.00000000000E+00 -0.00000000000E+00 -0.51789088613E+03  0.51789088613E+03  0.00000000000E+00 0.  1.
          6    1    1    2  501    0 -0.12981352910E+03  0.54064236965E+02 -0.14834370358E+03  0.26714106470E+03  0.17200000000E+03 0. -1.
         -6    1    1    2    0  503  0.12981352910E+03 -0.54064236965E+02 -0.27036232397E+03  0.34993468002E+03  0.17200000000E+03 0.  1.
<mgrwt>
<rscale>  2 0.22216772E+03</rscale>
<asrwt>0</asrwt>
<pdfrwt beam="1">  1       21 0.24796215E-01 0.22216772E+03</pdfrwt>
<pdfrwt beam="2">  1       21 0.12947272E+00 0.22216772E+03</pdfrwt>
<totfact> 0.65712927E+03</totfact>
</mgrwt>
</event>
<event>
 4    1  0.1115666E+000  0.1777526E+03  0.7546771E-02  0.1169996E+00
         21   -1    0    0  501  502  0.00000000000E+00  0.00000000000E+00  0.83371426038E+03  0.83371426038E+03  0.00000000000E+00 0. -1.
         21   -1    0    0  502  503 -0.00000000000E+00 -0.00000000000E+00 -0.83125019532E+02  0.83125019532E+02  0.00000000000E+00 0. -1.
          6    1    1    2  501    0 -0.31692453262E+02 -0.31742121612E+02  0.71343502168E+03  0.73524519994E+03  0.17200000000E+03 0. -1.
         -6    1    1    2    0  503  0.31692453262E+02  0.31742121612E+02  0.37154219167E+02  0.18159407997E+03  0.17200000000E+03 0. -1.
<mgrwt>
<rscale>  2 0.17775256E+03</rscale>
<asrwt>0</asrwt>
<pdfrwt beam="1">  1       21 0.20842854E+00 0.17775256E+03</pdfrwt>
<pdfrwt beam="2">  1       21 0.20781257E-01 0.17775256E+03</pdfrwt>
<totfact> 0.25910517E+03</totfact>
</mgrwt>
</event>
<event>
 4    1  0.1115666E+000  0.1961330E+03  0.7546771E-02  0.1153043E+00
         21   -1    0    0  503  502  0.00000000000E+00  0.00000000000E+00  0.12792063710E+03  0.12792063710E+03  0.00000000000E+00 0.  1.
         21   -1    0    0  501  503 -0.00000000000E+00 -0.00000000000E+00 -0.30797177377E+03  0.30797177377E+03  0.00000000000E+00 0.  1.
          6    1    1    2  501    0  0.92245153060E+02 -0.19364928641E+02 -0.56579482574E+02  0.20413085649E+03  0.17200000000E+03 0.  1.
         -6    1    1    2    0  502 -0.92245153060E+02  0.19364928641E+02 -0.12347165410E+03  0.23176155438E+03  0.17200000000E+03 0.  1.
<mgrwt>
<rscale>  2 0.19613304E+03</rscale>
<asrwt>0</asrwt>
<pdfrwt beam="1">  1       21 0.31980159E-01 0.19613304E+03</pdfrwt>
<pdfrwt beam="2">  1       21 0.76992943E-01 0.19613304E+03</pdfrwt>
<totfact> 0.14067195E+04</totfact>
</mgrwt>
</event>
<event>
 4    1  0.1115666E+000  0.3037191E+03  0.7546771E-02  0.1083396E+00
         21   -1    0    0  501  502  0.00000000000E+00  0.00000000000E+00  0.95754646006E+03  0.95754646006E+03  0.00000000000E+00 0. -1.
         21   -1    0    0  502  503 -0.00000000000E+00 -0.00000000000E+00 -0.20216216499E+03  0.20216216499E+03  0.00000000000E+00 0. -1.
          6    1    1    2  501    0  0.12025054063E+03 -0.21954752165E+03  0.79722636276E+03  0.85312084739E+03  0.17200000000E+03 0. -1.
         -6    1    1    2    0  503 -0.12025054063E+03  0.21954752165E+03 -0.41842067687E+02  0.30658777766E+03  0.17200000000E+03 0. -1.
<mgrwt>
<rscale>  2 0.30371912E+03</rscale>
<asrwt>0</asrwt>
<pdfrwt beam="1">  1       21 0.23938660E+00 0.30371912E+03</pdfrwt>
<pdfrwt beam="2">  1       21 0.50540544E-01 0.30371912E+03</pdfrwt>
<totfact> 0.25366376E+02</totfact>
</mgrwt>
</event>
<event>
 4    1  0.1115666E+000  0.2544114E+03  0.7546771E-02  0.1110548E+00
         21   -1    0    0  503  502  0.00000000000E+00  0.00000000000E+00  0.17069671533E+03  0.17069671533E+03  0.00000000000E+00 0. -1.
         21   -1    0    0  501  503 -0.00000000000E+00 -0.00000000000E+00 -0.46688072398E+03  0.46688072398E+03  0.00000000000E+00 0. -1.
          6    1    1    2  501    0  0.18009561440E+03  0.52026260242E+02 -0.28625636385E+03  0.38297241144E+03  0.17200000000E+03 0. -1.
         -6    1    1    2    0  502 -0.18009561440E+03 -0.52026260242E+02 -0.99276447924E+01  0.25460502786E+03  0.17200000000E+03 0. -1.
<mgrwt>
<rscale>  2 0.25441140E+03</rscale>
<asrwt>0</asrwt>
<pdfrwt beam="1">  1       21 0.42674179E-01 0.25441140E+03</pdfrwt>
<pdfrwt beam="2">  1       21 0.11672018E+00 0.25441140E+03</pdfrwt>
<totfact> 0.28462950E+03</totfact>
</mgrwt>
</event>
<event>
 4    1  0.1115666E+000  0.1872448E+03  0.7546771E-02  0.1160970E+00
         21   -1    0    0  501  502  0.00000000000E+00  0.00000000000E+00  0.14333943621E+03  0.14333943621E+03  0.00000000000E+00 0.  1.
         21   -1    0    0  502  503 -0.00000000000E+00 -0.00000000000E+00 -0.27012511728E+03  0.27012511728E+03  0.00000000000E+00 0. -1.
          6    1    1    2  501    0 -0.73782494095E+02  0.57236580170E+01  0.15811780710E+00  0.18724487095E+03  0.17200000000E+03 0.  1.
         -6    1    1    2    0  503  0.73782494095E+02 -0.57236580170E+01 -0.12694379887E+03  0.22621968254E+03  0.17200000000E+03 0. -1.
<mgrwt>
<rscale>  2 0.18724480E+03</rscale>
<asrwt>0</asrwt>
<pdfrwt beam="1">  1       21 0.35834859E-01 0.18724480E+03</pdfrwt>
<pdfrwt beam="2">  1       21 0.67531279E-01 0.18724480E+03</pdfrwt>
<totfact> 0.15107873E+04</totfact>
</mgrwt>
</event>
<event>
 4    1  0.1115666E+000  0.2001045E+03  0.7546771E-02  0.1149651E+00
         21   -1    0    0  501  502  0.00000000000E+00  0.00000000000E+00  0.11060285870E+03  0.11060285870E+03  0.00000000000E+00 0. -1.
         21   -1    0    0  502  503 -0.00000000000E+00 -0.00000000000E+00 -0.37682191519E+03  0.37682191519E+03  0.00000000000E+00 0.  1.
          6    1    1    2  501    0 -0.62130707678E+02  0.81225449763E+02 -0.84827096906E+02  0.21734174678E+03  0.17200000000E+03 0. -1.
         -6    1    1    2    0  503  0.62130707678E+02 -0.81225449763E+02 -0.18139195959E+03  0.27008302711E+03  0.17200000000E+03 0.  1.
<mgrwt>
<rscale>  2 0.20010447E+03</rscale>
<asrwt>0</asrwt>
<pdfrwt beam="1">  1       21 0.27650715E-01 0.20010447E+03</pdfrwt>
<pdfrwt beam="2">  1       21 0.94205478E-01 0.20010447E+03</pdfrwt>
<totfact> 0.11732794E+04</totfact>
</mgrwt>
</event>
<event>
 4    1  0.1115666E+000  0.1794256E+03  0.7546771E-02  0.1168360E+00
         21   -1    0    0  501  502  0.00000000000E+00  0.00000000000E+00  0.60438191985E+02  0.60438191985E+02  0.00000000000E+00 0. -1.
         21   -1    0    0  502  503 -0.00000000000E+00 -0.00000000000E+00 -0.10291504490E+04  0.10291504490E+04  0.00000000000E+00 0. -1.
          6    1    1    2  501    0 -0.50993154715E+02  0.30382135082E+01 -0.10596165419E+03  0.20837803322E+03  0.17200000000E+03 0. -1.
         -6    1    1    2    0  503  0.50993154715E+02 -0.30382135082E+01 -0.86275060280E+03  0.88121060775E+03  0.17200000000E+03 0. -1.
<mgrwt>
<rscale>  2 0.17942556E+03</rscale>
<asrwt>0</asrwt>
<pdfrwt beam="1">  1       21 0.15109548E-01 0.17942556E+03</pdfrwt>
<pdfrwt beam="2">  1       21 0.25728762E+00 0.17942556E+03</pdfrwt>
<totfact> 0.23698169E+03</totfact>
</mgrwt>
</event>
<event>
 4    1  0.1115666E+000  0.2356899E+03  0.7546771E-02  0.1122698E+00
         21   -1    0    0  503  502  0.00000000000E+00  0.00000000000E+00  0.67443667722E+03  0.67443667722E+03  0.00000000000E+00 0. -1.
         21   -1    0    0  501  503 -0.00000000000E+00 -0.00000000000E+00 -0.95735585778E+02  0.95735585778E+02  0.00000000000E+00 0. -1.
          6    1    1    2  501    0 -0.59272915222E+02 -0.14984137627E+03  0.43326442047E+03  0.49322183100E+03  0.17200000000E+03 0. -1.
         -6    1    1    2    0  502  0.59272915222E+02  0.14984137627E+03  0.14543667097E+03  0.27695043200E+03  0.17200000000E+03 0. -1.
<mgrwt>
<rscale>  2 0.23568987E+03</rscale>
<asrwt>0</asrwt>
<pdfrwt beam="1">  1       21 0.16860916E+00 0.23568987E+03</pdfrwt>
<pdfrwt beam="2">  1       21 0.23933898E-01 0.23568987E+03</pdfrwt>
<totfact> 0.34630170E+03</totfact>
</mgrwt>
</event>
<event>
 4    1  0.1115666E+000  0.2330559E+03  0.7546771E-02  0.1124507E+00
         21   -1    0    0  501  502  0.00000000000E+00  0.00000000000E+00  0.82696813657E+02  0.82696813657E+02  0.00000000000E+00 0. -1.
         21   -1    0    0  502  503 -0.00000000000E+00 -0.00000000000E+00 -0.89118765105E+03  0.89118765105E+03  0.00000000000E+00 0.  1.
          6    1    1    2  501    0  0.11061689334E+03 -0.11178092604E+03 -0.15452019727E+03  0.27962754493E+03  0.17200000000E+03 0. -1.
         -6    1    1    2    0  503 -0.11061689334E+03  0.11178092604E+03 -0.65397064012E+03  0.69425691978E+03  0.17200000000E+03 0.  1.
<mgrwt>
<rscale>  2 0.23305594E+03</rscale>
<asrwt>0</asrwt>
<pdfrwt beam="1">  1       21 0.20674203E-01 0.23305594E+03</pdfrwt>
<pdfrwt beam="2">  1       21 0.22279691E+00 0.23305594E+03</pdfrwt>
<totfact> 0.20143874E+03</totfact>
</mgrwt>
</event>
<event>
 4    1  0.1115666E+000  0.2024347E+03  0.7546771E-02  0.1147701E+00
         21   -1    0    0  503  502  0.00000000000E+00  0.00000000000E+00  0.85958015317E+02  0.85958015317E+02  0.00000000000E+00 0. -1.
         21   -1    0    0  501  503 -0.00000000000E+00 -0.00000000000E+00 -0.48636132470E+03  0.48636132470E+03  0.00000000000E+00 0. -1.
          6    1    1    2  501    0 -0.88431979095E+02 -0.59796362349E+02 -0.24044508275E+03  0.31431458397E+03  0.17200000000E+03 0. -1.
         -6    1    1    2    0  502  0.88431979095E+02  0.59796362349E+02 -0.15995822664E+03  0.25800475605E+03  0.17200000000E+03 0. -1.
<mgrwt>
<rscale>  2 0.20243473E+03</rscale>
<asrwt>0</asrwt>
<pdfrwt beam="1">  1       21 0.21489504E-01 0.20243473E+03</pdfrwt>
<pdfrwt beam="2">  1       21 0.12159033E+00 0.20243473E+03</pdfrwt>
<totfact> 0.10239459E+04</totfact>
</mgrwt>
</event>
<event>
 4    1  0.1115666E+000  0.2186213E+03  0.7546771E-02  0.1134915E+00
         21   -1    0    0  501  502  0.00000000000E+00  0.00000000000E+00  0.31764898336E+03  0.31764898336E+03  0.00000000000E+00 0.  1.
         21   -1    0    0  502  503 -0.00000000000E+00 -0.00000000000E+00 -0.56446872209E+03  0.56446872209E+03  0.00000000000E+00 0.  1.
          6    1    1    2  501    0 -0.13329576356E+03  0.21060181537E+02  0.25431739467E+03  0.33536939196E+03  0.17200000000E+03 0.  1.
         -6    1    1    2    0  503  0.13329576356E+03 -0.21060181537E+02 -0.50113713340E+03  0.54674831349E+03  0.17200000000E+03 0.  1.
<mgrwt>
<rscale>  2 0.21862134E+03</rscale>
<asrwt>0</asrwt>
<pdfrwt beam="1">  1       21 0.79412247E-01 0.21862134E+03</pdfrwt>
<pdfrwt beam="2">  1       21 0.14111718E+00 0.21862134E+03</pdfrwt>
<totfact> 0.47656567E+02</totfact>
</mgrwt>
</event>
<event>
 4    1  0.1115666E+000  0.2282160E+03  0.7546771E-02  0.1127902E+00
         21   -1    0    0  503  502  0.00000000000E+00  0.00000000000E+00  0.34434140107E+03  0.34434140107E+03  0.00000000000E+00 0. -1.
         21   -1    0    0  501  503 -0.00000000000E+00 -0.00000000000E+00 -0.16590712214E+03  0.16590712214E+03  0.00000000000E+00 0. -1.
          6    1    1    2  501    0 -0.14986069753E+03 -0.63510729616E+01  0.16504061265E+03  0.28163978522E+03  0.17200000000E+03 0. -1.
         -6    1    1    2    0  502  0.14986069753E+03  0.63510729616E+01  0.13393666281E+02  0.22860873800E+03  0.17200000000E+03 0. -1.
<mgrwt>
<rscale>  2 0.22821605E+03</rscale>
<asrwt>0</asrwt>
<pdfrwt beam="1">  1       21 0.86085349E-01 0.22821605E+03</pdfrwt>
<pdfrwt beam="2">  1       21 0.41476781E-01 0.22821605E+03</pdfrwt>
<totfact> 0.63508863E+03</totfact>
</mgrwt>
</event>
<event>
 4    1  0.1115666E+000  0.1790835E+03  0.7546771E-02  0.1168693E+00
         21   -1    0    0  501  502  0.00000000000E+00  0.00000000000E+00  0.63182125049E+02  0.63182125049E+02  0.00000000000E+00 0.  1.
         21   -1    0    0  502  503 -0.00000000000E+00 -0.00000000000E+00 -0.65379467758E+03  0.65379467758E+03  0.00000000000E+00 0.  1.
          6    1    1    2  501    0 -0.17889836930E+02 -0.46549325979E+02 -0.12578325731E+03  0.21884312609E+03  0.17200000000E+03 0. -1.
         -6    1    1    2    0  503  0.17889836930E+02  0.46549325979E+02 -0.46482929522E+03  0.49813367654E+03  0.17200000000E+03 0. -1.
<mgrwt>
<rscale>  2 0.17908346E+03</rscale>
<asrwt>0</asrwt>
<pdfrwt beam="1">  1       21 0.15795531E-01 0.17908346E+03</pdfrwt>
<pdfrwt beam="2">  1       21 0.16344867E+00 0.17908346E+03</pdfrwt>
<totfact> 0.85750740E+03</totfact>
</mgrwt>
</event>
<event>
 4    1  0.1115666E+000  0.2146826E+03  0.7546771E-02  0.1137911E+00
         21   -1    0    0  501  502  0.00000000000E+00  0.00000000000E+00  0.67492365594E+03  0.67492365594E+03  0.00000000000E+00 0.  1.
         21   -1    0    0  502  503 -0.00000000000E+00 -0.00000000000E+00 -0.59717918037E+03  0.59717918037E+03  0.00000000000E+00 0.  1.
          6    1    1    2  501    0 -0.70344277235E+02  0.10750017363E+03  0.63745390636E+03  0.67263369482E+03  0.17200000000E+03 0.  1.
         -6    1    1    2    0  503  0.70344277235E+02 -0.10750017363E+03 -0.55970943080E+03  0.59946914148E+03  0.17200000000E+03 0.  1.
<mgrwt>
<rscale>  2 0.21468257E+03</rscale>
<asrwt>0</asrwt>
<pdfrwt beam="1">  1       21 0.16873091E+00 0.21468257E+03</pdfrwt>
<pdfrwt beam="2">  1       21 0.14929480E+00 0.21468257E+03</pdfrwt>
<totfact> 0.63876463E+01</totfact>
</mgrwt>
</event>
<event>
 4    1  0.1115666E+000  0.2666091E+03  0.7546771E-02  0.1103236E+00
         21   -1    0    0  503  502  0.00000000000E+00  0.00000000000E+00  0.13123649757E+04  0.13123649757E+04  0.00000000000E+00 0.  1.
         21   -1    0    0  501  503 -0.00000000000E+00 -0.00000000000E+00 -0.43503939827E+03  0.43503939827E+03  0.00000000000E+00 0.  1.
          6    1    1    2  501    0 -0.19309468661E+03  0.64891261292E+02 -0.37884458010E+03  0.46325333205E+03  0.17200000000E+03 0.  1.
         -6    1    1    2    0  502  0.19309468661E+03 -0.64891261292E+02  0.12561701575E+04  0.12841510419E+04  0.17200000000E+03 0.  1.
<mgrwt>
<rscale>  2 0.26660914E+03</rscale>
<asrwt>0</asrwt>
<pdfrwt beam="1">  1       21 0.32809124E+00 0.26660914E+03</pdfrwt>
<pdfrwt beam="2">  1       21 0.10875985E+00 0.26660914E+03</pdfrwt>
<totfact> 0.13944100E+01</totfact>
</mgrwt>
</event>
<event>
 4    1  0.1115666E+000  0.1921910E+03  0.7546771E-02  0.1156500E+00
         21   -1    0    0  501  502  0.00000000000E+00  0.00000000000E+00  0.71336207389E+03  0.71336207389E+03  0.00000000000E+00 0.  1.
         21   -1    0    0  502  503 -0.00000000000E+00 -0.00000000000E+00 -0.60617427593E+02  0.60617427593E+02  0.00000000000E+00 0.  1.
          6    1    1    2  501    0 -0.43266235113E+02  0.74036639383E+02  0.47414045005E+03  0.51161172528E+03  0.17200000000E+03 0.  1.
         -6    1    1    2    0  503  0.43266235113E+02 -0.74036639383E+02  0.17860419625E+03  0.26236777620E+03  0.17200000000E+03 0.  1.
<mgrwt>
<rscale>  2 0.19219103E+03</rscale>
<asrwt>0</asrwt>
<pdfrwt beam="1">  1       21 0.17834049E+00 0.19219103E+03</pdfrwt>
<pdfrwt beam="2">  1       21 0.15154359E-01 0.19219103E+03</pdfrwt>
<totfact> 0.71942581E+03</totfact>
</mgrwt>
</event>
<event>
 4    1  0.1115666E+000  0.2066032E+03  0.7546771E-02  0.1144284E+00
         21   -1    0    0  501  502  0.00000000000E+00  0.00000000000E+00  0.63303320611E+02  0.63303320611E+02  0.00000000000E+00 0.  1.
         21   -1    0    0  502  503 -0.00000000000E+00 -0.00000000000E+00 -0.67796117308E+03  0.67796117308E+03  0.00000000000E+00 0. -1.
          6    1    1    2  501    0  0.66430872741E+02  0.93208460239E+02 -0.28006008265E+03  0.34802087266E+03  0.17200000000E+03 0.  1.
         -6    1    1    2    0  503 -0.66430872741E+02 -0.93208460239E+02 -0.33459776982E+03  0.39324362103E+03  0.17200000000E+03 0.  1.
<mgrwt>
<rscale>  2 0.20660319E+03</rscale>
<asrwt>0</asrwt>
<pdfrwt beam="1">  1       21 0.15825830E-01 0.20660319E+03</pdfrwt>
<pdfrwt beam="2">  1       21 0.16949030E+00 0.20660319E+03</pdfrwt>
<totfact> 0.75674856E+03</totfact>
</mgrwt>
</event>
<event>
 4    1  0.1115666E+000  0.2340851E+03  0.7546771E-02  0.1123797E+00
         21   -1    0    0  501  502  0.00000000000E+00  0.00000000000E+00  0.53836158666E+02  0.53836158666E+02  0.00000000000E+00 0. -1.
         21   -1    0    0  502  503 -0.00000000000E+00 -0.00000000000E+00 -0.12456962023E+04  0.12456962023E+04  0.00000000000E+00 0. -1.
          6    1    1    2  501    0  0.11994980242E+03 -0.10403779583E+03 -0.31802574774E+03  0.39488757170E+03  0.17200000000E+03 0. -1.
         -6    1    1    2    0  503 -0.11994980242E+03  0.10403779583E+03 -0.87383429589E+03  0.90464478926E+03  0.17200000000E+03 0. -1.
<mgrwt>
<rscale>  2 0.23408507E+03</rscale>
<asrwt>0</asrwt>
<pdfrwt beam="1">  1       21 0.13459039E-01 0.23408507E+03</pdfrwt>
<pdfrwt beam="2">  1       21 0.31142406E+00 0.23408507E+03</pdfrwt>
<totfact> 0.13309605E+03</totfact>
</mgrwt>
</event>
<event>
 4    1  0.1115666E+000  0.2055806E+03  0.7546771E-02  0.1145114E+00
         21   -1    0    0  503  502  0.00000000000E+00  0.00000000000E+00  0.24995826008E+03  0.24995826008E+03  0.00000000000E+00 0. -1.
         21   -1    0    0  501  503 -0.00000000000E+00 -0.00000000000E+00 -0.19776385499E+03  0.19776385499E+03  0.00000000000E+00 0. -1.
          6    1    1    2  501    0  0.25008122485E+01 -0.11257498842E+03 -0.59155968220E+02  0.21392244075E+03  0.17200000000E+03 0. -1.
         -6    1    1    2    0  502 -0.25008122485E+01  0.11257498842E+03  0.11135037330E+03  0.23379967432E+03  0.17200000000E+03 0. -1.
<mgrwt>
<rscale>  2 0.20558060E+03</rscale>
<asrwt>0</asrwt>
<pdfrwt beam="1">  1       21 0.62489565E-01 0.20558060E+03</pdfrwt>
<pdfrwt beam="2">  1       21 0.49440964E-01 0.20558060E+03</pdfrwt>
<totfact> 0.91768412E+03</totfact>
</mgrwt>
</event>
<event>
 4    1  0.1115666E+000  0.1954502E+03  0.7546771E-02  0.1153635E+00
         21   -1    0    0  503  502  0.00000000000E+00  0.00000000000E+00  0.14496171733E+03  0.14496171733E+03  0.00000000000E+00 0. -1.
         21   -1    0    0  501  503 -0.00000000000E+00 -0.00000000000E+00 -0.33624422574E+03  0.33624422574E+03  0.00000000000E+00 0. -1.
          6    1    1    2  501    0  0.69234807042E+01 -0.92568159576E+02 -0.20753429875E+03  0.28508118828E+03  0.17200000000E+03 0. -1.
         -6    1    1    2    0  502 -0.69234807042E+01  0.92568159576E+02  0.16251790334E+02  0.19612475479E+03  0.17200000000E+03 0. -1.
<mgrwt>
<rscale>  2 0.19545025E+03</rscale>
<asrwt>0</asrwt>
<pdfrwt beam="1">  1       21 0.36240430E-01 0.19545025E+03</pdfrwt>
<pdfrwt beam="2">  1       21 0.84061056E-01 0.19545025E+03</pdfrwt>
<totfact> 0.90069253E+03</totfact>
</mgrwt>
</event>
<event>
 4    1  0.1115666E+000  0.2043881E+03  0.7546771E-02  0.1146089E+00
         21   -1    0    0  501  502  0.00000000000E+00  0.00000000000E+00  0.58856088064E+02  0.58856088064E+02  0.00000000000E+00 0.  1.
         21   -1    0    0  502  503 -0.00000000000E+00 -0.00000000000E+00 -0.13820157415E+04  0.13820157415E+04  0.00000000000E+00 0.  1.
          6    1    1    2  501    0 -0.20615883773E+02  0.10846874602E+03 -0.15911946836E+03  0.25902410841E+03  0.17200000000E+03 0.  1.
         -6    1    1    2    0  503  0.20615883773E+02 -0.10846874602E+03 -0.11640401851E+04  0.11818477212E+04  0.17200000000E+03 0.  1.
<mgrwt>
<rscale>  2 0.20438807E+03</rscale>
<asrwt>0</asrwt>
<pdfrwt beam="1">  1       21 0.14714023E-01 0.20438807E+03</pdfrwt>
<pdfrwt beam="2">  1       21 0.34550392E+00 0.20438807E+03</pdfrwt>
<totfact> 0.74241512E+02</totfact>
</mgrwt>
</event>
<event>
 4    1  0.1115666E+000  0.1776182E+03  0.7546771E-02  0.1170128E+00
         21   -1    0    0  501  502  0.00000000000E+00  0.00000000000E+00  0.14536541930E+03  0.14536541930E+03  0.00000000000E+00 0.  1.
         21   -1    0    0  502  503 -0.00000000000E+00 -0.00000000000E+00 -0.35115326022E+03  0.35115326022E+03  0.00000000000E+00 0.  1.
          6    1    1    2  501    0  0.96688120372E+01  0.43252242121E+02  0.50537360796E+02  0.18466799184E+03  0.17200000000E+03 0.  1.
         -6    1    1    2    0  503 -0.96688120372E+01 -0.43252242121E+02 -0.25632520171E+03  0.31185068768E+03  0.17200000000E+03 0.  1.
<mgrwt>
<rscale>  2 0.17761825E+03</rscale>
<asrwt>0</asrwt>
<pdfrwt beam="1">  1       21 0.36341355E-01 0.17761825E+03</pdfrwt>
<pdfrwt beam="2">  1       21 0.87788314E-01 0.17761825E+03</pdfrwt>
<totfact> 0.82151773E+03</totfact>
</mgrwt>
</event>
<event>
 4    1  0.1115666E+000  0.1867520E+03  0.7546771E-02  0.1161424E+00
         21   -1    0    0  501  502  0.00000000000E+00  0.00000000000E+00  0.52283908747E+03  0.52283908747E+03  0.00000000000E+00 0.  1.
         21   -1    0    0  502  503 -0.00000000000E+00 -0.00000000000E+00 -0.10812783880E+03  0.10812783880E+03  0.00000000000E+00 0.  1.
          6    1    1    2  501    0  0.41678829541E+02  0.59625510577E+02  0.40262058052E+03  0.44382390450E+03  0.17200000000E+03 0.  1.
         -6    1    1    2    0  503 -0.41678829541E+02 -0.59625510577E+02  0.12090668147E+02  0.18714302178E+03  0.17200000000E+03 0.  1.
<mgrwt>
<rscale>  2 0.18675205E+03</rscale>
<asrwt>0</asrwt>
<pdfrwt beam="1">  1       21 0.13070976E+00 0.18675205E+03</pdfrwt>
<pdfrwt beam="2">  1       21 0.27031961E-01 0.18675205E+03</pdfrwt>
<totfact> 0.55860809E+03</totfact>
</mgrwt>
</event>
<event>
 4    1  0.1115666E+000  0.2372948E+03  0.7546771E-02  0.1121608E+00
         21   -1    0    0  503  502  0.00000000000E+00  0.00000000000E+00  0.33530853827E+03  0.33530853827E+03  0.00000000000E+00 0. -1.
         21   -1    0    0  501  503 -0.00000000000E+00 -0.00000000000E+00 -0.33916161511E+03  0.33916161511E+03  0.00000000000E+00 0.  1.
          6    1    1    2  501    0 -0.59761641855E+02  0.15216225875E+03 -0.24154467713E+03  0.33860395432E+03  0.17200000000E+03 0.  1.
         -6    1    1    2    0  502  0.59761641855E+02 -0.15216225875E+03  0.23769160029E+03  0.33586619907E+03  0.17200000000E+03 0. -1.
<mgrwt>
<rscale>  2 0.23729477E+03</rscale>
<asrwt>0</asrwt>
<pdfrwt beam="1">  1       21 0.83827135E-01 0.23729477E+03</pdfrwt>
<pdfrwt beam="2">  1       21 0.84790404E-01 0.23729477E+03</pdfrwt>
<totfact> 0.14331930E+03</totfact>
</mgrwt>
</event>
<event>
 4    1  0.1115666E+000  0.2448238E+03  0.7546771E-02  0.1116620E+00
         21   -1    0    0  503  502  0.00000000000E+00  0.00000000000E+00  0.71249023268E+03  0.71249023268E+03  0.00000000000E+00 0.  1.
         21   -1    0    0  501  503 -0.00000000000E+00 -0.00000000000E+00 -0.84548159378E+02  0.84548159378E+02  0.00000000000E+00 0. -1.
          6    1    1    2  501    0  0.10384574236E+03  0.13989557326E+03  0.28579945401E+03  0.37632437808E+03  0.17200000000E+03 0.  1.
         -6    1    1    2    0  502 -0.10384574236E+03 -0.13989557326E+03  0.34214261930E+03  0.42071401398E+03  0.17200000000E+03 0. -1.
<mgrwt>
<rscale>  2 0.24482383E+03</rscale>
<asrwt>0</asrwt>
<pdfrwt beam="1">  1       21 0.17812254E+00 0.24482383E+03</pdfrwt>
<pdfrwt beam="2">  1       21 0.21137042E-01 0.24482383E+03</pdfrwt>
<totfact> 0.37341210E+03</totfact>
</mgrwt>
</event>
<event>
 4    1  0.1115666E+000  0.2218197E+03  0.7546771E-02  0.1132534E+00
         21   -1    0    0  503  502  0.00000000000E+00  0.00000000000E+00  0.27868272551E+03  0.27868272551E+03  0.00000000000E+00 0.  1.
         21   -1    0    0  501  503 -0.00000000000E+00 -0.00000000000E+00 -0.29375544376E+03  0.29375544376E+03  0.00000000000E+00 0. -1.
          6    1    1    2  501    0 -0.55494207549E+02 -0.12860939918E+03 -0.18832143211E+03  0.29097928865E+03  0.17200000000E+03 0. -1.
         -6    1    1    2    0  502  0.55494207549E+02  0.12860939918E+03  0.17324871386E+03  0.28145888063E+03  0.17200000000E+03 0.  1.
<mgrwt>
<rscale>  2 0.22181971E+03</rscale>
<asrwt>0</asrwt>
<pdfrwt beam="1">  1       21 0.69670682E-01 0.22181971E+03</pdfrwt>
<pdfrwt beam="2">  1       21 0.73438861E-01 0.22181971E+03</pdfrwt>
<totfact> 0.30466491E+03</totfact>
</mgrwt>
</event>
<event>
 4    1  0.1115666E+000  0.1949637E+03  0.7546771E-02  0.1154059E+00
         21   -1    0    0  503  502  0.00000000000E+00  0.00000000000E+00  0.66917600684E+02  0.66917600684E+02  0.00000000000E+00 0.  1.
         21   -1    0    0  501  503 -0.00000000000E+00 -0.00000000000E+00 -0.57031420697E+03  0.57031420697E+03  0.00000000000E+00 0. -1.
          6    1    1    2  501    0  0.83791540959E+02  0.37494473369E+02 -0.27188523240E+03  0.33456305455E+03  0.17200000000E+03 0. -1.
         -6    1    1    2    0  502 -0.83791540959E+02 -0.37494473369E+02 -0.23151137388E+03  0.30266875310E+03  0.17200000000E+03 0.  1.
<mgrwt>
<rscale>  2 0.19496373E+03</rscale>
<asrwt>0</asrwt>
<pdfrwt beam="1">  1       21 0.16729400E-01 0.19496373E+03</pdfrwt>
<pdfrwt beam="2">  1       21 0.14257855E+00 0.19496373E+03</pdfrwt>
<totfact> 0.10948066E+04</totfact>
</mgrwt>
</event>
<event>
 4    1  0.1115666E+000  0.1900654E+03  0.7546771E-02  0.1158402E+00
         21   -1    0    0  503  502  0.00000000000E+00  0.00000000000E+00  0.22192142305E+03  0.22192142305E+03  0.00000000000E+00 0.  1.
         21   -1    0    0  501  503 -0.00000000000E+00 -0.00000000000E+00 -0.17097284707E+03  0.17097284707E+03  0.00000000000E+00 0.  1.
          6    1    1    2  501    0 -0.13741022335E+02  0.79699795648E+02  0.68471407756E+02  0.20202278783E+03  0.17200000000E+03 0.  1.
         -6    1    1    2    0  502  0.13741022335E+02 -0.79699795648E+02 -0.17522831780E+02  0.19087148230E+03  0.17200000000E+03 0.  1.
<mgrwt>
<rscale>  2 0.19006544E+03</rscale>
<asrwt>0</asrwt>
<pdfrwt beam="1">  1       21 0.55480356E-01 0.19006544E+03</pdfrwt>
<pdfrwt beam="2">  1       21 0.42743212E-01 0.19006544E+03</pdfrwt>
<totfact> 0.16148502E+04</totfact>
</mgrwt>
</event>
<event>
 4    1  0.1115666E+000  0.1772934E+03  0.7546771E-02  0.1170449E+00
         21   -1    0    0  501  502  0.00000000000E+00  0.00000000000E+00  0.14856526876E+03  0.14856526876E+03  0.00000000000E+00 0.  1.
         21   -1    0    0  502  503 -0.00000000000E+00 -0.00000000000E+00 -0.28062472860E+03  0.28062472860E+03  0.00000000000E+00 0.  1.
          6    1    1    2  501    0  0.16207209215E+02 -0.39827878849E+02  0.40417068010E+02  0.18184188998E+03  0.17200000000E+03 0.  1.
         -6    1    1    2    0  503 -0.16207209215E+02  0.39827878849E+02 -0.17247652786E+03  0.24734810738E+03  0.17200000000E+03 0.  1.
<mgrwt>
<rscale>  2 0.17729335E+03</rscale>
<asrwt>0</asrwt>
<pdfrwt beam="1">  1       21 0.37141318E-01 0.17729335E+03</pdfrwt>
<pdfrwt beam="2">  1       21 0.70156181E-01 0.17729335E+03</pdfrwt>
<totfact> 0.13022919E+04</totfact>
</mgrwt>
</event>
<event>
 4    1  0.1115666E+000  0.1889058E+03  0.7546771E-02  0.1159452E+00
         21   -1    0    0  503  502  0.00000000000E+00  0.00000000000E+00  0.14299275528E+03  0.14299275528E+03  0.00000000000E+00 0. -1.
         21   -1    0    0  501  503 -0.00000000000E+00 -0.00000000000E+00 -0.28461927211E+03  0.28461927211E+03  0.00000000000E+00 0. -1.
          6    1    1    2  501    0  0.75144374075E+02 -0.21324685085E+02 -0.14585153286E+03  0.23865893821E+03  0.17200000000E+03 0. -1.
         -6    1    1    2    0  502 -0.75144374075E+02  0.21324685085E+02  0.42250160278E+01  0.18895308918E+03  0.17200000000E+03 0. -1.
<mgrwt>
<rscale>  2 0.18890585E+03</rscale>
<asrwt>0</asrwt>
<pdfrwt beam="1">  1       21 0.35748189E-01 0.18890585E+03</pdfrwt>
<pdfrwt beam="2">  1       21 0.71154817E-01 0.18890585E+03</pdfrwt>
<totfact> 0.13517853E+04</totfact>
</mgrwt>
</event>
<event>
 4    1  0.1115666E+000  0.2644060E+03  0.7546771E-02  0.1104525E+00
         21   -1    0    0  503  502  0.00000000000E+00  0.00000000000E+00  0.81075909762E+03  0.81075909762E+03  0.00000000000E+00 0.  1.
         21   -1    0    0  501  503 -0.00000000000E+00 -0.00000000000E+00 -0.12636579485E+03  0.12636579485E+03  0.00000000000E+00 0.  1.
          6    1    1    2  501    0  0.17136704805E+03 -0.10468949919E+03  0.78122035186E+02  0.27570565605E+03  0.17200000000E+03 0. -1.
         -6    1    1    2    0  502 -0.17136704805E+03  0.10468949919E+03  0.60627126759E+03  0.66141923642E+03  0.17200000000E+03 0. -1.
<mgrwt>
<rscale>  2 0.26440604E+03</rscale>
<asrwt>0</asrwt>
<pdfrwt beam="1">  1       21 0.20268976E+00 0.26440604E+03</pdfrwt>
<pdfrwt beam="2">  1       21 0.31591451E-01 0.26440604E+03</pdfrwt>
<totfact> 0.11604903E+03</totfact>
</mgrwt>
</event>
<event>
 4    1  0.1115666E+000  0.2547508E+03  0.7546771E-02  0.1110339E+00
         21   -1    0    0  503  502  0.00000000000E+00  0.00000000000E+00  0.65688000168E+03  0.65688000168E+03  0.00000000000E+00 0. -1.
         21   -1    0    0  501  503 -0.00000000000E+00 -0.00000000000E+00 -0.10205848972E+03  0.10205848972E+03  0.00000000000E+00 0. -1.
          6    1    1    2  501    0  0.18772698028E+03  0.85181364101E+01  0.20957802225E+03  0.32988016791E+03  0.17200000000E+03 0. -1.
         -6    1    1    2    0  502 -0.18772698028E+03 -0.85181364101E+01  0.34524348971E+03  0.42905832349E+03  0.17200000000E+03 0. -1.
<mgrwt>
<rscale>  2 0.25475082E+03</rscale>
<asrwt>0</asrwt>
<pdfrwt beam="1">  1       21 0.16421999E+00 0.25475082E+03</pdfrwt>
<pdfrwt beam="2">  1       21 0.25514624E-01 0.25475082E+03</pdfrwt>
<totfact> 0.32490332E+03</totfact>
</mgrwt>
</event>
<event>
 4    1  0.1115666E+000  0.1749849E+03  0.7546771E-02  0.1172747E+00
         21   -1    0    0  503  502  0.00000000000E+00  0.00000000000E+00  0.38978748488E+02  0.38978748488E+02  0.00000000000E+00 0.  1.
         21   -1    0    0  501  503 -0.00000000000E+00 -0.00000000000E+00 -0.79150056480E+03  0.79150056480E+03  0.00000000000E+00 0.  1.
          6    1    1    2  501    0 -0.21478414257E+02 -0.23966845077E+02 -0.34025492220E+03  0.38261357010E+03  0.17200000000E+03 0.  1.
         -6    1    1    2    0  502  0.21478414257E+02  0.23966845077E+02 -0.41226689411E+03  0.44786574319E+03  0.17200000000E+03 0.  1.
<mgrwt>
<rscale>  2 0.17498495E+03</rscale>
<asrwt>0</asrwt>
<pdfrwt beam="1">  1       21 0.97446866E-02 0.17498495E+03</pdfrwt>
<pdfrwt beam="2">  1       21 0.19787515E+00 0.17498495E+03</pdfrwt>
<totfact> 0.11945462E+04</totfact>
</mgrwt>
</event>
<event>
 4    1  0.1115666E+000  0.2038540E+03  0.7546771E-02  0.1146527E+00
         21   -1    0    0  503  502  0.00000000000E+00  0.00000000000E+00  0.46235665311E+02  0.46235665311E+02  0.00000000000E+00 0.  1.
         21   -1    0    0  501  503 -0.00000000000E+00 -0.00000000000E+00 -0.89968553202E+03  0.89968553202E+03  0.00000000000E+00 0.  1.
          6    1    1    2  501    0 -0.80503169588E+02 -0.74106054690E+02 -0.44159000393E+03  0.48637249020E+03  0.17200000000E+03 0. -1.
         -6    1    1    2    0  502  0.80503169588E+02  0.74106054690E+02 -0.41185986278E+03  0.45954870713E+03  0.17200000000E+03 0. -1.
<mgrwt>
<rscale>  2 0.20385404E+03</rscale>
<asrwt>0</asrwt>
<pdfrwt beam="1">  1       21 0.11558916E-01 0.20385404E+03</pdfrwt>
<pdfrwt beam="2">  1       21 0.22492138E+00 0.20385404E+03</pdfrwt>
<totfact> 0.58275409E+03</totfact>
</mgrwt>
</event>
<event>
 4    1  0.1115666E+000  0.2125511E+03  0.7546771E-02  0.1139562E+00
         21   -1    0    0  501  502  0.00000000000E+00  0.00000000000E+00  0.85796013856E+02  0.85796013856E+02  0.00000000000E+00 0. -1.
         21   -1    0    0  502  503 -0.00000000000E+00 -0.00000000000E+00 -0.89451742271E+03  0.89451742271E+03  0.00000000000E+00 0. -1.
          6    1    1    2  501    0 -0.27776042177E+02  0.12174753848E+03 -0.89998060895E+02  0.23081945891E+03  0.17200000000E+03 0. -1.
         -6    1    1    2    0  503  0.27776042177E+02 -0.12174753848E+03 -0.71872334796E+03  0.74949397766E+03  0.17200000000E+03 0. -1.
<mgrwt>
<rscale>  2 0.21255110E+03</rscale>
<asrwt>0</asrwt>
<pdfrwt beam="1">  1       21 0.21449004E-01 0.21255110E+03</pdfrwt>
<pdfrwt beam="2">  1       21 0.22362935E+00 0.21255110E+03</pdfrwt>
<totfact> 0.18950113E+03</totfact>
</mgrwt>
</event>
<event>
 4    1  0.1115666E+000  0.2190397E+03  0.7546771E-02  0.1134601E+00
         21   -1    0    0  501  502  0.00000000000E+00  0.00000000000E+00  0.10809208945E+03  0.10809208945E+03  0.00000000000E+00 0. -1.
         21   -1    0    0  502  503 -0.00000000000E+00 -0.00000000000E+00 -0.79331187028E+03  0.79331187028E+03  0.00000000000E+00 0.  1.
          6    1    1    2  501    0 -0.36083816940E+02 -0.13073772276E+03 -0.43481592600E+02  0.22331377676E+03  0.17200000000E+03 0. -1.
         -6    1    1    2    0  503  0.36083816940E+02  0.13073772276E+03 -0.64173818823E+03  0.67809018296E+03  0.17200000000E+03 0. -1.
<mgrwt>
<rscale>  2 0.21903971E+03</rscale>
<asrwt>0</asrwt>
<pdfrwt beam="1">  1       21 0.27023022E-01 0.21903971E+03</pdfrwt>
<pdfrwt beam="2">  1       21 0.19832797E+00 0.21903971E+03</pdfrwt>
<totfact> 0.17487704E+03</totfact>
</mgrwt>
</event>
<event>
 4    1  0.1115666E+000  0.2037082E+03  0.7546771E-02  0.1146648E+00
         21   -1    0    0  501  502  0.00000000000E+00  0.00000000000E+00  0.39921117398E+02  0.39921117398E+02  0.00000000000E+00 0. -1.
         21   -1    0    0  502  503 -0.00000000000E+00 -0.00000000000E+00 -0.11421617011E+04  0.11421617011E+04  0.00000000000E+00 0. -1.
          6    1    1    2  501    0  0.10379342719E+03  0.33763242686E+02 -0.72833905437E+03  0.75629016271E+03  0.17200000000E+03 0. -1.
         -6    1    1    2    0  503 -0.10379342719E+03 -0.33763242686E+02 -0.37390152929E+03  0.42579265575E+03  0.17200000000E+03 0. -1.
<mgrwt>
<rscale>  2 0.20370820E+03</rscale>
<asrwt>0</asrwt>
<pdfrwt beam="1">  1       21 0.99802792E-02 0.20370820E+03</pdfrwt>
<pdfrwt beam="2">  1       21 0.28554043E+00 0.20370820E+03</pdfrwt>
<totfact> 0.33244600E+03</totfact>
</mgrwt>
</event>
<event>
 4    1  0.1115666E+000  0.2010439E+03  0.7546771E-02  0.1148861E+00
         21   -1    0    0  503  502  0.00000000000E+00  0.00000000000E+00  0.56243155826E+03  0.56243155826E+03  0.00000000000E+00 0.  1.
         21   -1    0    0  501  503 -0.00000000000E+00 -0.00000000000E+00 -0.87528094911E+02  0.87528094911E+02  0.00000000000E+00 0.  1.
          6    1    1    2  501    0  0.53873215458E+02  0.89063548951E+02  0.99973512446E+02  0.22452915687E+03  0.17200000000E+03 0.  1.
         -6    1    1    2    0  502 -0.53873215458E+02 -0.89063548951E+02  0.37492995090E+03  0.42543049629E+03  0.17200000000E+03 0.  1.
<mgrwt>
<rscale>  2 0.20104387E+03</rscale>
<asrwt>0</asrwt>
<pdfrwt beam="1">  1       21 0.14060788E+00 0.20104387E+03</pdfrwt>
<pdfrwt beam="2">  1       21 0.21882025E-01 0.20104387E+03</pdfrwt>
<totfact> 0.68542261E+03</totfact>
</mgrwt>
</event>
<event>
 4    1  0.1115666E+000  0.1816948E+03  0.7546771E-02  0.1166173E+00
         21   -1    0    0  503  502  0.00000000000E+00  0.00000000000E+00  0.69613289977E+02  0.69613289977E+02  0.00000000000E+00 0. -1.
         21   -1    0    0  501  503 -0.00000000000E+00 -0.00000000000E+00 -0.14615074588E+04  0.14615074588E+04  0.00000000000E+00 0. -1.
          6    1    1    2  501    0  0.52827685299E+02  0.25263358565E+02 -0.13251599861E+04  0.13375582195E+04  0.17200000000E+03 0. -1.
         -6    1    1    2    0  502 -0.52827685299E+02 -0.25263358565E+02 -0.66734182718E+02  0.19356252934E+03  0.17200000000E+03 0. -1.
<mgrwt>
<rscale>  2 0.18169480E+03</rscale>
<asrwt>0</asrwt>
<pdfrwt beam="1">  1       21 0.17403322E-01 0.18169480E+03</pdfrwt>
<pdfrwt beam="2">  1       21 0.36537687E+00 0.18169480E+03</pdfrwt>
<totfact> 0.43110596E+02</totfact>
</mgrwt>
</event>
<event>
 4    1  0.1115666E+000  0.2078322E+03  0.7546771E-02  0.1143294E+00
         21   -1    0    0  501  502  0.00000000000E+00  0.00000000000E+00  0.81906375879E+02  0.81906375879E+02  0.00000000000E+00 0. -1.
         21   -1    0    0  502  503 -0.00000000000E+00 -0.00000000000E+00 -0.58064109728E+03  0.58064109728E+03  0.00000000000E+00 0.  1.
          6    1    1    2  501    0  0.39791372939E+02 -0.10966714815E+03 -0.14901786265E+03  0.25573533219E+03  0.17200000000E+03 0. -1.
         -6    1    1    2    0  503 -0.39791372939E+02  0.10966714815E+03 -0.34971685874E+03  0.40681214096E+03  0.17200000000E+03 0.  1.
<mgrwt>
<rscale>  2 0.20783223E+03</rscale>
<asrwt>0</asrwt>
<pdfrwt beam="1">  1       21 0.20476594E-01 0.20783223E+03</pdfrwt>
<pdfrwt beam="2">  1       21 0.14516027E+00 0.20783223E+03</pdfrwt>
<totfact> 0.71098693E+03</totfact>
</mgrwt>
</event>
<event>
 4    1  0.1115666E+000  0.1884850E+03  0.7546771E-02  0.1159835E+00
         21   -1    0    0  503  502  0.00000000000E+00  0.00000000000E+00  0.90986147240E+02  0.90986147240E+02  0.00000000000E+00 0. -1.
         21   -1    0    0  501  503 -0.00000000000E+00 -0.00000000000E+00 -0.43165451129E+03  0.43165451129E+03  0.00000000000E+00 0. -1.
          6    1    1    2  501    0 -0.76896989038E+02  0.54262377890E+01 -0.25106077530E+03  0.31393965005E+03  0.17200000000E+03 0. -1.
         -6    1    1    2    0  502  0.76896989038E+02 -0.54262377890E+01 -0.89607588755E+02  0.20870100848E+03  0.17200000000E+03 0. -1.
<mgrwt>
<rscale>  2 0.18848499E+03</rscale>
<asrwt>0</asrwt>
<pdfrwt beam="1">  1       21 0.22746537E-01 0.18848499E+03</pdfrwt>
<pdfrwt beam="2">  1       21 0.10791363E+00 0.18848499E+03</pdfrwt>
<totfact> 0.12433174E+04</totfact>
</mgrwt>
</event>
<event>
 4    1  0.1115666E+000  0.1929625E+03  0.7546771E-02  0.1155816E+00
         21   -1    0    0  501  502  0.00000000000E+00  0.00000000000E+00  0.28316025355E+03  0.28316025355E+03  0.00000000000E+00 0. -1.
         21   -1    0    0  502  503 -0.00000000000E+00 -0.00000000000E+00 -0.22078860102E+03  0.22078860102E+03  0.00000000000E+00 0. -1.
          6    1    1    2  501    0 -0.78619253134E+02 -0.38334550681E+02  0.19142738397E+03  0.27180685803E+03  0.17200000000E+03 0. -1.
         -6    1    1    2    0  503  0.78619253134E+02  0.38334550681E+02 -0.12905573144E+03  0.23214199654E+03  0.17200000000E+03 0. -1.
<mgrwt>
<rscale>  2 0.19296250E+03</rscale>
<asrwt>0</asrwt>
<pdfrwt beam="1">  1       21 0.70790063E-01 0.19296250E+03</pdfrwt>
<pdfrwt beam="2">  1       21 0.55197150E-01 0.19296250E+03</pdfrwt>
<totfact> 0.55946896E+03</totfact>
</mgrwt>
</event>
<event>
 4    1  0.1115666E+000  0.1779202E+03  0.7546771E-02  0.1169831E+00
         21   -1    0    0  501  502  0.00000000000E+00  0.00000000000E+00  0.56158239406E+03  0.56158239406E+03  0.00000000000E+00 0.  1.
         21   -1    0    0  502  503 -0.00000000000E+00 -0.00000000000E+00 -0.56377806995E+02  0.56377806995E+02  0.00000000000E+00 0.  1.
          6    1    1    2  501    0 -0.42279891150E+02  0.16852103133E+02  0.25656255136E+03  0.31221775308E+03  0.17200000000E+03 0.  1.
         -6    1    1    2    0  503  0.42279891150E+02 -0.16852103133E+02  0.24864203570E+03  0.30574244798E+03  0.17200000000E+03 0.  1.
<mgrwt>
<rscale>  2 0.17792016E+03</rscale>
<asrwt>0</asrwt>
<pdfrwt beam="1">  1       21 0.14039558E+00 0.17792016E+03</pdfrwt>
<pdfrwt beam="2">  1       21 0.14094453E-01 0.17792016E+03</pdfrwt>
<totfact> 0.15764912E+04</totfact>
</mgrwt>
</event>
<event>
 4    1  0.1115666E+000  0.1917641E+03  0.7546771E-02  0.1156880E+00
         21   -1    0    0  503  502  0.00000000000E+00  0.00000000000E+00  0.51828064679E+02  0.51828064679E+02  0.00000000000E+00 0. -1.
         21   -1    0    0  501  503 -0.00000000000E+00 -0.00000000000E+00 -0.71060385689E+03  0.71060385689E+03  0.00000000000E+00 0. -1.
          6    1    1    2  501    0  0.97227045060E+01  0.84231479264E+02 -0.31455603755E+03  0.36840056168E+03  0.17200000000E+03 0. -1.
         -6    1    1    2    0  502 -0.97227045060E+01 -0.84231479264E+02 -0.34421975466E+03  0.39403135989E+03  0.17200000000E+03 0. -1.
<mgrwt>
<rscale>  2 0.19176411E+03</rscale>
<asrwt>0</asrwt>
<pdfrwt beam="1">  1       21 0.12957016E-01 0.19176411E+03</pdfrwt>
<pdfrwt beam="2">  1       21 0.17765096E+00 0.19176411E+03</pdfrwt>
<totfact> 0.96620286E+03</totfact>
</mgrwt>
</event>
<event>
 4    1  0.1115666E+000  0.1912339E+03  0.7546771E-02  0.1157353E+00
         21   -1    0    0  501  502  0.00000000000E+00  0.00000000000E+00  0.15280442616E+03  0.15280442616E+03  0.00000000000E+00 0. -1.
         21   -1    0    0  502  503 -0.00000000000E+00 -0.00000000000E+00 -0.24013807569E+03  0.24013807569E+03  0.00000000000E+00 0.  1.
          6    1    1    2  501    0  0.47519546878E+02  0.68762688553E+02 -0.32257329451E+02  0.19393542734E+03  0.17200000000E+03 0.  1.
         -6    1    1    2    0  503 -0.47519546878E+02 -0.68762688553E+02 -0.55076320087E+02  0.19900707451E+03  0.17200000000E+03 0. -1.
<mgrwt>
<rscale>  2 0.19123393E+03</rscale>
<asrwt>0</asrwt>
<pdfrwt beam="1">  1       21 0.38201107E-01 0.19123393E+03</pdfrwt>
<pdfrwt beam="2">  1       21 0.60034518E-01 0.19123393E+03</pdfrwt>
<totfact> 0.17117752E+04</totfact>
</mgrwt>
</event>
<event>
 4    1  0.1115666E+000  0.1797366E+03  0.7546771E-02  0.1168058E+00
         21   -1    0    0  503  502  0.00000000000E+00  0.00000000000E+00  0.15936011572E+03  0.15936011572E+03  0.00000000000E+00 0. -1.
         21   -1    0    0  501  503 -0.00000000000E+00 -0.00000000000E+00 -0.20405484165E+03  0.20405484165E+03  0.00000000000E+00 0.  1.
          6    1    1    2  501    0  0.34236609946E+02 -0.39358714527E+02 -0.37051774508E+02  0.18351590630E+03  0.17200000000E+03 0.  1.
         -6    1    1    2    0  502 -0.34236609946E+02  0.39358714527E+02 -0.76429514188E+01  0.17989905107E+03  0.17200000000E+03 0. -1.
<mgrwt>
<rscale>  2 0.17973662E+03</rscale>
<asrwt>0</asrwt>
<pdfrwt beam="1">  1       21 0.39840029E-01 0.17973662E+03</pdfrwt>
<pdfrwt beam="2">  1       21 0.51013710E-01 0.17973662E+03</pdfrwt>
<totfact> 0.22356129E+04</totfact>
</mgrwt>
</event>
<event>
 4    1  0.1115666E+000  0.1987787E+03  0.7546771E-02  0.1150774E+00
         21   -1    0    0  503  502  0.00000000000E+00  0.00000000000E+00  0.44435811517E+03  0.44435811517E+03  0.00000000000E+00 0. -1.
         21   -1    0    0  501  503 -0.00000000000E+00 -0.00000000000E+00 -0.10577520489E+03  0.10577520489E+03  0.00000000000E+00 0.  1.
          6    1    1    2  501    0 -0.59968912561E+01  0.99463577189E+02  0.59493459508E+02  0.20749081333E+03  0.17200000000E+03 0.  1.
         -6    1    1    2    0  502  0.59968912561E+01 -0.99463577189E+02  0.27908945077E+03  0.34264250674E+03  0.17200000000E+03 0. -1.
<mgrwt>
<rscale>  2 0.19877869E+03</rscale>
<asrwt>0</asrwt>
<pdfrwt beam="1">  1       21 0.11108952E+00 0.19877869E+03</pdfrwt>
<pdfrwt beam="2">  1       21 0.26443802E-01 0.19877869E+03</pdfrwt>
<totfact> 0.86356487E+03</totfact>
</mgrwt>
</event>
<event>
 4    1  0.1115666E+000  0.2506978E+03  0.7546771E-02  0.1112865E+00
         21   -1    0    0  501  502  0.00000000000E+00  0.00000000000E+00  0.69615582160E+03  0.69615582160E+03  0.00000000000E+00 0. -1.
         21   -1    0    0  502  503 -0.00000000000E+00 -0.00000000000E+00 -0.92930349241E+02  0.92930349241E+02  0.00000000000E+00 0.  1.
          6    1    1    2  501    0  0.72028523847E+02 -0.16756278843E+03  0.36823423291E+03  0.44547261038E+03  0.17200000000E+03 0. -1.
         -6    1    1    2    0  503 -0.72028523847E+02  0.16756278843E+03  0.23499123945E+03  0.34361356046E+03  0.17200000000E+03 0.  1.
<mgrwt>
<rscale>  2 0.25069782E+03</rscale>
<asrwt>0</asrwt>
<pdfrwt beam="1">  1       21 0.17403894E+00 0.25069782E+03</pdfrwt>
<pdfrwt beam="2">  1       21 0.23232589E-01 0.25069782E+03</pdfrwt>
<totfact> 0.33182479E+03</totfact>
</mgrwt>
</event>
<event>
 4    1  0.1115666E+000  0.1948680E+03  0.7546771E-02  0.1154143E+00
         21   -1    0    0  501  502  0.00000000000E+00  0.00000000000E+00  0.41263081022E+02  0.41263081022E+02  0.00000000000E+00 0. -1.
         21   -1    0    0  502  503 -0.00000000000E+00 -0.00000000000E+00 -0.98448495778E+03  0.98448495778E+03  0.00000000000E+00 0. -1.
          6    1    1    2  501    0  0.68994292139E+02 -0.60243770430E+02 -0.34063374394E+03  0.39243454452E+03  0.17200000000E+03 0. -1.
         -6    1    1    2    0  503 -0.68994292139E+02  0.60243770430E+02 -0.60258813281E+03  0.63331349427E+03  0.17200000000E+03 0. -1.
<mgrwt>
<rscale>  2 0.19486797E+03</rscale>
<asrwt>0</asrwt>
<pdfrwt beam="1">  1       21 0.10315770E-01 0.19486797E+03</pdfrwt>
<pdfrwt beam="2">  1       21 0.24612124E+00 0.19486797E+03</pdfrwt>
<totfact> 0.53708690E+03</totfact>
</mgrwt>
</event>
<event>
 4    1  0.1115666E+000  0.1953693E+03  0.7546771E-02  0.1153706E+00
         21   -1    0    0  501  502  0.00000000000E+00  0.00000000000E+00  0.10760351422E+03  0.10760351422E+03  0.00000000000E+00 0. -1.
         21   -1    0    0  502  503 -0.00000000000E+00 -0.00000000000E+00 -0.38669697398E+03  0.38669697398E+03  0.00000000000E+00 0. -1.
          6    1    1    2  501    0  0.78095306421E+02 -0.49862488047E+02 -0.68475685802E+02  0.20702189291E+03  0.17200000000E+03 0. -1.
         -6    1    1    2    0  503 -0.78095306421E+02  0.49862488047E+02 -0.21061777396E+03  0.28727859528E+03  0.17200000000E+03 0. -1.
<mgrwt>
<rscale>  2 0.19536925E+03</rscale>
<asrwt>0</asrwt>
<pdfrwt beam="1">  1       21 0.26900879E-01 0.19536925E+03</pdfrwt>
<pdfrwt beam="2">  1       21 0.96674243E-01 0.19536925E+03</pdfrwt>
<totfact> 0.11681717E+04</totfact>
</mgrwt>
</event>
<event>
 4    1  0.1115666E+000  0.1910748E+03  0.7546771E-02  0.1157496E+00
         21   -1    0    0  501  502  0.00000000000E+00  0.00000000000E+00  0.24466040294E+03  0.24466040294E+03  0.00000000000E+00 0.  1.
         21   -1    0    0  502  503 -0.00000000000E+00 -0.00000000000E+00 -0.18454809929E+03  0.18454809929E+03  0.00000000000E+00 0.  1.
          6    1    1    2  501    0  0.82761699863E+02 -0.87217941403E+01 -0.63831811350E+02  0.20145488030E+03  0.17200000000E+03 0.  1.
         -6    1    1    2    0  503 -0.82761699863E+02  0.87217941403E+01  0.12394411500E+03  0.22775362192E+03  0.17200000000E+03 0.  1.
<mgrwt>
<rscale>  2 0.19107477E+03</rscale>
<asrwt>0</asrwt>
<pdfrwt beam="1">  1       21 0.61165101E-01 0.19107477E+03</pdfrwt>
<pdfrwt beam="2">  1       21 0.46137025E-01 0.19107477E+03</pdfrwt>
<totfact> 0.11204019E+04</totfact>
</mgrwt>
</event>
<event>
 4    1  0.1115666E+000  0.1950266E+03  0.7546771E-02  0.1154004E+00
         21   -1    0    0  501  502  0.00000000000E+00  0.00000000000E+00  0.33724861317E+03  0.33724861317E+03  0.00000000000E+00 0. -1.
         21   -1    0    0  502  503 -0.00000000000E+00 -0.00000000000E+00 -0.11731607369E+03  0.11731607369E+03  0.00000000000E+00 0. -1.
          6    1    1    2  501    0  0.53021457063E+02  0.75100666709E+02  0.15465087521E+03  0.24890214594E+03  0.17200000000E+03 0.  1.
         -6    1    1    2    0  503 -0.53021457063E+02 -0.75100666709E+02  0.65281664261E+02  0.20566254092E+03  0.17200000000E+03 0.  1.
<mgrwt>
<rscale>  2 0.19502663E+03</rscale>
<asrwt>0</asrwt>
<pdfrwt beam="1">  1       21 0.84312151E-01 0.19502663E+03</pdfrwt>
<pdfrwt beam="2">  1       21 0.29329019E-01 0.19502663E+03</pdfrwt>
<totfact> 0.13572964E+04</totfact>
</mgrwt>
</event>
<event>
 4    1  0.1115666E+000  0.2163048E+03  0.7546771E-02  0.1136668E+00
         21   -1    0    0  503  502  0.00000000000E+00  0.00000000000E+00  0.34903550449E+03  0.34903550449E+03  0.00000000000E+00 0. -1.
         21   -1    0    0  501  503 -0.00000000000E+00 -0.00000000000E+00 -0.48855460761E+03  0.48855460761E+03  0.00000000000E+00 0. -1.
          6    1    1    2  501    0 -0.99986246854E+02 -0.84891114105E+02 -0.42650359976E+03  0.47821864395E+03  0.17200000000E+03 0. -1.
         -6    1    1    2    0  502  0.99986246854E+02  0.84891114105E+02  0.28698449663E+03  0.35937146815E+03  0.17200000000E+03 0. -1.
<mgrwt>
<rscale>  2 0.21630476E+03</rscale>
<asrwt>0</asrwt>
<pdfrwt beam="1">  1       21 0.87258877E-01 0.21630476E+03</pdfrwt>
<pdfrwt beam="2">  1       21 0.12213865E+00 0.21630476E+03</pdfrwt>
<totfact> 0.55614306E+02</totfact>
</mgrwt>
</event>
<event>
 4    1  0.1115666E+000  0.2075902E+03  0.7546771E-02  0.1143489E+00
         21   -1    0    0  501  502  0.00000000000E+00  0.00000000000E+00  0.31377361986E+03  0.31377361986E+03  0.00000000000E+00 0. -1.
         21   -1    0    0  502  503 -0.00000000000E+00 -0.00000000000E+00 -0.14845849046E+03  0.14845849046E+03  0.00000000000E+00 0. -1.
          6    1    1    2  501    0  0.72981882403E+02  0.90461880576E+02  0.14590576054E+03  0.25373647344E+03  0.17200000000E+03 0. -1.
         -6    1    1    2    0  503 -0.72981882403E+02 -0.90461880576E+02  0.19409368865E+02  0.20849563688E+03  0.17200000000E+03 0. -1.
<mgrwt>
<rscale>  2 0.20759024E+03</rscale>
<asrwt>0</asrwt>
<pdfrwt beam="1">  1       21 0.78443404E-01 0.20759024E+03</pdfrwt>
<pdfrwt beam="2">  1       21 0.37114623E-01 0.20759024E+03</pdfrwt>
<totfact> 0.99629235E+03</totfact>
</mgrwt>
</event>
<event>
 4    1  0.1115666E+000  0.1727763E+03  0.7546771E-02  0.1174983E+00
         21   -1    0    0  503  502  0.00000000000E+00  0.00000000000E+00  0.50000946090E+02  0.50000946090E+02  0.00000000000E+00 0. -1.
         21   -1    0    0  501  503 -0.00000000000E+00 -0.00000000000E+00 -0.12013352007E+04  0.12013352007E+04  0.00000000000E+00 0. -1.
          6    1    1    2  501    0  0.47167822354E+01 -0.15665092148E+02 -0.10194219536E+04  0.10339597490E+04  0.17200000000E+03 0. -1.
         -6    1    1    2    0  502 -0.47167822354E+01  0.15665092148E+02 -0.13191230104E+03  0.21737639778E+03  0.17200000000E+03 0. -1.
<mgrwt>
<rscale>  2 0.17277628E+03</rscale>
<asrwt>0</asrwt>
<pdfrwt beam="1">  1       21 0.12500237E-01 0.17277628E+03</pdfrwt>
<pdfrwt beam="2">  1       21 0.30033379E+00 0.17277628E+03</pdfrwt>
<totfact> 0.19037786E+03</totfact>
</mgrwt>
</event>
<event>
 4    1  0.1115666E+000  0.2199361E+03  0.7546771E-02  0.1133931E+00
         21   -1    0    0  501  502  0.00000000000E+00  0.00000000000E+00  0.94421456627E+03  0.94421456627E+03  0.00000000000E+00 0.  1.
         21   -1    0    0  502  503 -0.00000000000E+00 -0.00000000000E+00 -0.52809492446E+02  0.52809492446E+02  0.00000000000E+00 0. -1.
          6    1    1    2  501    0 -0.12631137915E+03 -0.53228896482E+02  0.35948169804E+03  0.42142492944E+03  0.17200000000E+03 0. -1.
         -6    1    1    2    0  503  0.12631137915E+03  0.53228896482E+02  0.53192337578E+03  0.57559912928E+03  0.17200000000E+03 0.  1.
<mgrwt>
<rscale>  2 0.21993608E+03</rscale>
<asrwt>0</asrwt>
<pdfrwt beam="1">  1       21 0.23605359E+00 0.21993608E+03</pdfrwt>
<pdfrwt beam="2">  1       21 0.13202376E-01 0.21993608E+03</pdfrwt>
<totfact> 0.38704911E+03</totfact>
</mgrwt>
</event>
<event>
 4    1  0.1115666E+000  0.1912959E+03  0.7546771E-02  0.1157298E+00
         21   -1    0    0  503  502  0.00000000000E+00  0.00000000000E+00  0.15497132118E+03  0.15497132118E+03  0.00000000000E+00 0.  1.
         21   -1    0    0  501  503 -0.00000000000E+00 -0.00000000000E+00 -0.42099582407E+03  0.42099582407E+03  0.00000000000E+00 0.  1.
          6    1    1    2  501    0  0.83339067638E+02  0.80460188326E+01 -0.32384432616E+03  0.37612403034E+03  0.17200000000E+03 0.  1.
         -6    1    1    2    0  502 -0.83339067638E+02 -0.80460188326E+01  0.57819823269E+02  0.19984311491E+03  0.17200000000E+03 0.  1.
<mgrwt>
<rscale>  2 0.19129595E+03</rscale>
<asrwt>0</asrwt>
<pdfrwt beam="1">  1       21 0.38742831E-01 0.19129595E+03</pdfrwt>
<pdfrwt beam="2">  1       21 0.10524895E+00 0.19129595E+03</pdfrwt>
<totfact> 0.46721006E+03</totfact>
</mgrwt>
</event>
<event>
 4    1  0.1115666E+000  0.1734663E+03  0.7546771E-02  0.1174281E+00
         21   -1    0    0  503  502  0.00000000000E+00  0.00000000000E+00  0.22623879340E+03  0.22623879340E+03  0.00000000000E+00 0. -1.
         21   -1    0    0  501  503 -0.00000000000E+00 -0.00000000000E+00 -0.17725556388E+03  0.17725556388E+03  0.00000000000E+00 0. -1.
          6    1    1    2  501    0 -0.13438962371E+02 -0.18053938246E+02 -0.76311585036E+02  0.18950991638E+03  0.17200000000E+03 0. -1.
         -6    1    1    2    0  502  0.13438962371E+02  0.18053938246E+02  0.12529481456E+03  0.21398444091E+03  0.17200000000E+03 0. -1.
<mgrwt>
<rscale>  2 0.17346628E+03</rscale>
<asrwt>0</asrwt>
<pdfrwt beam="1">  1       21 0.56559698E-01 0.17346628E+03</pdfrwt>
<pdfrwt beam="2">  1       21 0.44313891E-01 0.17346628E+03</pdfrwt>
<totfact> 0.14556459E+04</totfact>
</mgrwt>
</event>
<event>
 4    1  0.1115666E+000  0.1787822E+03  0.7546771E-02  0.1168987E+00
         21   -1    0    0  503  502  0.00000000000E+00  0.00000000000E+00  0.17788925823E+03  0.17788925823E+03  0.00000000000E+00 0.  1.
         21   -1    0    0  501  503 -0.00000000000E+00 -0.00000000000E+00 -0.71543603075E+03  0.71543603075E+03  0.00000000000E+00 0.  1.
          6    1    1    2  501    0 -0.41785377678E+01 -0.48596499395E+02 -0.65529866689E+03  0.67924916103E+03  0.17200000000E+03 0.  1.
         -6    1    1    2    0  502  0.41785377678E+01  0.48596499395E+02  0.11775189437E+03  0.21407612795E+03  0.17200000000E+03 0.  1.
<mgrwt>
<rscale>  2 0.17878221E+03</rscale>
<asrwt>0</asrwt>
<pdfrwt beam="1">  1       21 0.44472315E-01 0.17878221E+03</pdfrwt>
<pdfrwt beam="2">  1       21 0.17885901E+00 0.17878221E+03</pdfrwt>
<totfact> 0.91368221E+02</totfact>
</mgrwt>
</event>
<event>
 4    1  0.1115666E+000  0.2487289E+03  0.7546771E-02  0.1114111E+00
         21   -1    0    0  503  502  0.00000000000E+00  0.00000000000E+00  0.29997153183E+03  0.29997153183E+03  0.00000000000E+00 0.  1.
         21   -1    0    0  501  503 -0.00000000000E+00 -0.00000000000E+00 -0.25222814662E+03  0.25222814662E+03  0.00000000000E+00 0.  1.
          6    1    1    2  501    0 -0.91892658450E+02  0.15439492120E+03 -0.94022804689E+02  0.26590663807E+03  0.17200000000E+03 0.  1.
         -6    1    1    2    0  502  0.91892658450E+02 -0.15439492120E+03  0.14176618990E+03  0.28629304038E+03  0.17200000000E+03 0.  1.
<mgrwt>
<rscale>  2 0.24872887E+03</rscale>
<asrwt>0</asrwt>
<pdfrwt beam="1">  1       21 0.74992883E-01 0.24872887E+03</pdfrwt>
<pdfrwt beam="2">  1       21 0.63057037E-01 0.24872887E+03</pdfrwt>
<totfact> 0.35506193E+03</totfact>
</mgrwt>
</event>
<event>
 4    1  0.1115666E+000  0.1870436E+03  0.7546771E-02  0.1161155E+00
         21   -1    0    0  503  502  0.00000000000E+00  0.00000000000E+00  0.36570485432E+03  0.36570485432E+03  0.00000000000E+00 0.  1.
         21   -1    0    0  501  503 -0.00000000000E+00 -0.00000000000E+00 -0.12857904085E+03  0.12857904085E+03  0.00000000000E+00 0.  1.
          6    1    1    2  501    0 -0.71126082071E+02  0.18503321947E+02 -0.64772454758E+01  0.18715567633E+03  0.17200000000E+03 0.  1.
         -6    1    1    2    0  502  0.71126082071E+02 -0.18503321947E+02  0.24360305895E+03  0.30712821883E+03  0.17200000000E+03 0.  1.
<mgrwt>
<rscale>  2 0.18704356E+03</rscale>
<asrwt>0</asrwt>
<pdfrwt beam="1">  1       21 0.91426211E-01 0.18704356E+03</pdfrwt>
<pdfrwt beam="2">  1       21 0.32144761E-01 0.18704356E+03</pdfrwt>
<totfact> 0.94676665E+03</totfact>
</mgrwt>
</event>
<event>
 4    1  0.1115666E+000  0.1998271E+03  0.7546771E-02  0.1149885E+00
         21   -1    0    0  501  502  0.00000000000E+00  0.00000000000E+00  0.58489586932E+03  0.58489586932E+03  0.00000000000E+00 0.  1.
         21   -1    0    0  502  503 -0.00000000000E+00 -0.00000000000E+00 -0.88398078043E+02  0.88398078043E+02  0.00000000000E+00 0.  1.
          6    1    1    2  501    0 -0.50219262680E+02  0.88458407898E+02  0.40888901861E+03  0.45510558534E+03  0.17200000000E+03 0.  1.
         -6    1    1    2    0  503  0.50219262680E+02 -0.88458407898E+02  0.87608772668E+02  0.21818836202E+03  0.17200000000E+03 0.  1.
<mgrwt>
<rscale>  2 0.19982709E+03</rscale>
<asrwt>0</asrwt>
<pdfrwt beam="1">  1       21 0.14622396E+00 0.19982709E+03</pdfrwt>
<pdfrwt beam="2">  1       21 0.22099521E-01 0.19982709E+03</pdfrwt>
<totfact> 0.60809640E+03</totfact>
</mgrwt>
</event>
<event>
 4    1  0.1115666E+000  0.2072408E+03  0.7546771E-02  0.1143770E+00
         21   -1    0    0  501  502  0.00000000000E+00  0.00000000000E+00  0.19908566160E+03  0.19908566160E+03  0.00000000000E+00 0.  1.
         21   -1    0    0  502  503 -0.00000000000E+00 -0.00000000000E+00 -0.35976297333E+03  0.35976297333E+03  0.00000000000E+00 0. -1.
          6    1    1    2  501    0  0.18887179808E+02 -0.11405267644E+03 -0.25714059126E+03  0.33025750898E+03  0.17200000000E+03 0.  1.
         -6    1    1    2    0  503 -0.18887179808E+02  0.11405267644E+03  0.96463279533E+02  0.22859112595E+03  0.17200000000E+03 0.  1.
<mgrwt>
<rscale>  2 0.20724077E+03</rscale>
<asrwt>0</asrwt>
<pdfrwt beam="1">  1       21 0.49771416E-01 0.20724077E+03</pdfrwt>
<pdfrwt beam="2">  1       21 0.89940742E-01 0.20724077E+03</pdfrwt>
<totfact> 0.40004264E+03</totfact>
</mgrwt>
</event>
<event>
 4    1  0.1115666E+000  0.2127781E+03  0.7546771E-02  0.1139385E+00
         21   -1    0    0  503  502  0.00000000000E+00  0.00000000000E+00  0.47485493000E+03  0.47485493000E+03  0.00000000000E+00 0.  1.
         21   -1    0    0  501  503 -0.00000000000E+00 -0.00000000000E+00 -0.95996280222E+02  0.95996280222E+02  0.00000000000E+00 0. -1.
          6    1    1    2  501    0  0.62298611594E+02  0.10867106363E+03  0.16589949199E+03  0.26980948560E+03  0.17200000000E+03 0. -1.
         -6    1    1    2    0  502 -0.62298611594E+02 -0.10867106363E+03  0.21295915779E+03  0.30104172462E+03  0.17200000000E+03 0.  1.
<mgrwt>
<rscale>  2 0.21277809E+03</rscale>
<asrwt>0</asrwt>
<pdfrwt beam="1">  1       21 0.11871373E+00 0.21277809E+03</pdfrwt>
<pdfrwt beam="2">  1       21 0.23999071E-01 0.21277809E+03</pdfrwt>
<totfact> 0.87522827E+03</totfact>
</mgrwt>
</event>
<event>
 4    1  0.1115666E+000  0.3369452E+03  0.7546771E-02  0.1068105E+00
         21   -1    0    0  501  502  0.00000000000E+00  0.00000000000E+00  0.10807665313E+04  0.10807665313E+04  0.00000000000E+00 0.  1.
         21   -1    0    0  502  503 -0.00000000000E+00 -0.00000000000E+00 -0.11561279207E+03  0.11561279207E+03  0.00000000000E+00 0. -1.
          6    1    1    2  501    0  0.49469288536E+00  0.28973752885E+03  0.66340741935E+03  0.74407088667E+03  0.17200000000E+03 0.  1.
         -6    1    1    2    0  503 -0.49469288536E+00 -0.28973752885E+03  0.30174631985E+03  0.45230843668E+03  0.17200000000E+03 0. -1.
<mgrwt>
<rscale>  2 0.33694522E+03</rscale>
<asrwt>0</asrwt>
<pdfrwt beam="1">  1       21 0.27019160E+00 0.33694522E+03</pdfrwt>
<pdfrwt beam="2">  1       21 0.28903201E-01 0.33694522E+03</pdfrwt>
<totfact> 0.50214686E+02</totfact>
</mgrwt>
</event>
<event>
 4    1  0.1115666E+000  0.1802180E+03  0.7546771E-02  0.1167592E+00
         21   -1    0    0  501  502  0.00000000000E+00  0.00000000000E+00  0.11773858799E+03  0.11773858799E+03  0.00000000000E+00 0.  1.
         21   -1    0    0  502  503 -0.00000000000E+00 -0.00000000000E+00 -0.36123020689E+03  0.36123020689E+03  0.00000000000E+00 0.  1.
          6    1    1    2  501    0  0.53380080504E+02 -0.67159857283E+01 -0.23817349898E+03  0.29867231722E+03  0.17200000000E+03 0.  1.
         -6    1    1    2    0  503 -0.53380080504E+02  0.67159857283E+01 -0.53181199272E+01  0.18029647767E+03  0.17200000000E+03 0.  1.
<mgrwt>
<rscale>  2 0.18021803E+03</rscale>
<asrwt>0</asrwt>
<pdfrwt beam="1">  1       21 0.29434647E-01 0.18021803E+03</pdfrwt>
<pdfrwt beam="2">  1       21 0.90307551E-01 0.18021803E+03</pdfrwt>
<totfact> 0.11624784E+04</totfact>
</mgrwt>
</event>
<event>
 4    1  0.1115666E+000  0.2400589E+03  0.7546771E-02  0.1119754E+00
         21   -1    0    0  501  502  0.00000000000E+00  0.00000000000E+00  0.88515502463E+02  0.88515502463E+02  0.00000000000E+00 0.  1.
         21   -1    0    0  502  503 -0.00000000000E+00 -0.00000000000E+00 -0.83296414056E+03  0.83296414056E+03  0.00000000000E+00 0.  1.
          6    1    1    2  501    0  0.75237244862E+02  0.14961160800E+03 -0.15691028287E+03  0.28679106180E+03  0.17200000000E+03 0.  1.
         -6    1    1    2    0  503 -0.75237244862E+02 -0.14961160800E+03 -0.58753835523E+03  0.63468858121E+03  0.17200000000E+03 0.  1.
<mgrwt>
<rscale>  2 0.24005890E+03</rscale>
<asrwt>0</asrwt>
<pdfrwt beam="1">  1       21 0.22128875E-01 0.24005890E+03</pdfrwt>
<pdfrwt beam="2">  1       21 0.20824104E+00 0.24005890E+03</pdfrwt>
<totfact> 0.21719753E+03</totfact>
</mgrwt>
</event>
<event>
 4    1  0.1115666E+000  0.2709306E+03  0.7546771E-02  0.1100748E+00
         21   -1    0    0  501  502  0.00000000000E+00  0.00000000000E+00  0.42941584820E+03  0.42941584820E+03  0.00000000000E+00 0. -1.
         21   -1    0    0  502  503 -0.00000000000E+00 -0.00000000000E+00 -0.17351433028E+03  0.17351433028E+03  0.00000000000E+00 0. -1.
          6    1    1    2  501    0  0.14678006479E+03  0.14924809001E+03  0.91214830703E+02  0.28587326760E+03  0.17200000000E+03 0. -1.
         -6    1    1    2    0  503 -0.14678006479E+03 -0.14924809001E+03  0.16468668722E+03  0.31705691088E+03  0.17200000000E+03 0. -1.
<mgrwt>
<rscale>  2 0.27093058E+03</rscale>
<asrwt>0</asrwt>
<pdfrwt beam="1">  1       21 0.10735396E+00 0.27093058E+03</pdfrwt>
<pdfrwt beam="2">  1       21 0.43378583E-01 0.27093058E+03</pdfrwt>
<totfact> 0.33422638E+03</totfact>
</mgrwt>
</event>
<event>
 4    1  0.1115666E+000  0.2045619E+03  0.7546771E-02  0.1145946E+00
         21   -1    0    0  501  502  0.00000000000E+00  0.00000000000E+00  0.96192502424E+03  0.96192502424E+03  0.00000000000E+00 0. -1.
         21   -1    0    0  502  503 -0.00000000000E+00 -0.00000000000E+00 -0.51563479004E+02  0.51563479004E+02  0.00000000000E+00 0. -1.
          6    1    1    2  501    0  0.11931606759E+02 -0.11008718185E+03  0.65554870307E+03  0.68672385494E+03  0.17200000000E+03 0. -1.
         -6    1    1    2    0  503 -0.11931606759E+02  0.11008718185E+03  0.25481284216E+03  0.32676464830E+03  0.17200000000E+03 0. -1.
<mgrwt>
<rscale>  2 0.20456185E+03</rscale>
<asrwt>0</asrwt>
<pdfrwt beam="1">  1       21 0.24048120E+00 0.20456185E+03</pdfrwt>
<pdfrwt beam="2">  1       21 0.12890873E-01 0.20456185E+03</pdfrwt>
<totfact> 0.38586154E+03</totfact>
</mgrwt>
</event>
<event>
 4    1  0.1115666E+000  0.2095935E+03  0.7546771E-02  0.1141888E+00
         21   -1    0    0  501  502  0.00000000000E+00  0.00000000000E+00  0.96699956550E+02  0.96699956550E+02  0.00000000000E+00 0. -1.
         21   -1    0    0  502  503 -0.00000000000E+00 -0.00000000000E+00 -0.16192735508E+04  0.16192735508E+04  0.00000000000E+00 0. -1.
          6    1    1    2  501    0  0.52894977950E+02  0.10745949353E+03 -0.33538592006E+02  0.21225988456E+03  0.17200000000E+03 0. -1.
         -6    1    1    2    0  503 -0.52894977950E+02 -0.10745949353E+03 -0.14890350022E+04  0.15037136228E+04  0.17200000000E+03 0. -1.
<mgrwt>
<rscale>  2 0.20959347E+03</rscale>
<asrwt>0</asrwt>
<pdfrwt beam="1">  1       21 0.24174989E-01 0.20959347E+03</pdfrwt>
<pdfrwt beam="2">  1       21 0.40481838E+00 0.20959347E+03</pdfrwt>
<totfact> 0.12749298E+02</totfact>
</mgrwt>
</event>
<event>
 4    1  0.1115666E+000  0.2139996E+03  0.7546771E-02  0.1138437E+00
         21   -1    0    0  501  502  0.00000000000E+00  0.00000000000E+00  0.14696988614E+03  0.14696988614E+03  0.00000000000E+00 0. -1.
         21   -1    0    0  502  503 -0.00000000000E+00 -0.00000000000E+00 -0.91909780104E+03  0.91909780104E+03  0.00000000000E+00 0. -1.
          6    1    1    2  501    0  0.11317276518E+03 -0.58341863109E+02  0.47293425526E+02  0.21916321741E+03  0.17200000000E+03 0. -1.
         -6    1    1    2    0  503 -0.11317276518E+03  0.58341863109E+02 -0.81942134042E+03  0.84690446976E+03  0.17200000000E+03 0. -1.
<mgrwt>
<rscale>  2 0.21399964E+03</rscale>
<asrwt>0</asrwt>
<pdfrwt beam="1">  1       21 0.36742472E-01 0.21399964E+03</pdfrwt>
<pdfrwt beam="2">  1       21 0.22977445E+00 0.21399964E+03</pdfrwt>
<totfact> 0.61085698E+02</totfact>
</mgrwt>
</event>
<event>
 4    1  0.1115666E+000  0.1767534E+03  0.7546771E-02  0.1170983E+00
         21   -1    0    0  503  502  0.00000000000E+00  0.00000000000E+00  0.41734680338E+03  0.41734680338E+03  0.00000000000E+00 0.  1.
         21   -1    0    0  501  503 -0.00000000000E+00 -0.00000000000E+00 -0.78310639319E+02  0.78310639319E+02  0.00000000000E+00 0.  1.
          6    1    1    2  501    0 -0.19829328960E+02 -0.35560714614E+02  0.22155527819E+03  0.28342284312E+03  0.17200000000E+03 0.  1.
         -6    1    1    2    0  502  0.19829328960E+02  0.35560714614E+02  0.11748088587E+03  0.21223459957E+03  0.17200000000E+03 0.  1.
<mgrwt>
<rscale>  2 0.17675341E+03</rscale>
<asrwt>0</asrwt>
<pdfrwt beam="1">  1       21 0.10433669E+00 0.17675341E+03</pdfrwt>
<pdfrwt beam="2">  1       21 0.19577661E-01 0.17675341E+03</pdfrwt>
<totfact> 0.18001601E+04</totfact>
</mgrwt>
</event>
<event>
 4    1  0.1115666E+000  0.1978348E+03  0.7546771E-02  0.1151579E+00
         21   -1    0    0  503  502  0.00000000000E+00  0.00000000000E+00  0.76598093364E+03  0.76598093364E+03  0.00000000000E+00 0.  1.
         21   -1    0    0  501  503 -0.00000000000E+00 -0.00000000000E+00 -0.10396942129E+03  0.10396942129E+03  0.00000000000E+00 0.  1.
          6    1    1    2  501    0  0.77228510923E+02  0.59919583560E+02  0.20814061375E+02  0.19892668133E+03  0.17200000000E+03 0.  1.
         -6    1    1    2    0  502 -0.77228510923E+02 -0.59919583560E+02  0.64119745097E+03  0.67102367360E+03  0.17200000000E+03 0.  1.
<mgrwt>
<rscale>  2 0.19783478E+03</rscale>
<asrwt>0</asrwt>
<pdfrwt beam="1">  1       21 0.19149522E+00 0.19783478E+03</pdfrwt>
<pdfrwt beam="2">  1       21 0.25992358E-01 0.19783478E+03</pdfrwt>
<totfact> 0.21326357E+03</totfact>
</mgrwt>
</event>
<event>
 4    1  0.1115666E+000  0.1971820E+03  0.7546771E-02  0.1152139E+00
         21   -1    0    0  501  502  0.00000000000E+00  0.00000000000E+00  0.38312478140E+03  0.38312478140E+03  0.00000000000E+00 0.  1.
         21   -1    0    0  502  503 -0.00000000000E+00 -0.00000000000E+00 -0.10285755607E+03  0.10285755607E+03  0.00000000000E+00 0.  1.
          6    1    1    2  501    0 -0.65058752133E+02  0.71162461676E+02  0.16822146746E+03  0.25918950460E+03  0.17200000000E+03 0.  1.
         -6    1    1    2    0  503  0.65058752133E+02 -0.71162461676E+02  0.11204575787E+03  0.22679283286E+03  0.17200000000E+03 0.  1.
<mgrwt>
<rscale>  2 0.19718199E+03</rscale>
<asrwt>0</asrwt>
<pdfrwt beam="1">  1       21 0.95781192E-01 0.19718199E+03</pdfrwt>
<pdfrwt beam="2">  1       21 0.25714390E-01 0.19718199E+03</pdfrwt>
<totfact> 0.13003110E+04</totfact>
</mgrwt>
</event>
<event>
 4    1  0.1115666E+000  0.2046535E+03  0.7546771E-02  0.1145871E+00
         21   -1    0    0  503  502  0.00000000000E+00  0.00000000000E+00  0.11396121084E+03  0.11396121084E+03  0.00000000000E+00 0. -1.
         21   -1    0    0  501  503 -0.00000000000E+00 -0.00000000000E+00 -0.41857155408E+03  0.41857155408E+03  0.00000000000E+00 0. -1.
          6    1    1    2  501    0 -0.93104306785E+02 -0.60254851363E+02 -0.24529483285E+03  0.31945674837E+03  0.17200000000E+03 0. -1.
         -6    1    1    2    0  502  0.93104306785E+02  0.60254851363E+02 -0.59315510388E+02  0.21307601655E+03  0.17200000000E+03 0. -1.
<mgrwt>
<rscale>  2 0.20465351E+03</rscale>
<asrwt>0</asrwt>
<pdfrwt beam="1">  1       21 0.28490303E-01 0.20465351E+03</pdfrwt>
<pdfrwt beam="2">  1       21 0.10464289E+00 0.20465351E+03</pdfrwt>
<totfact> 0.86027950E+03</totfact>
</mgrwt>
</event>
<event>
 4    1  0.1115666E+000  0.1970494E+03  0.7546771E-02  0.1152253E+00
         21   -1    0    0  503  502  0.00000000000E+00  0.00000000000E+00  0.38768395252E+02  0.38768395252E+02  0.00000000000E+00 0. -1.
         21   -1    0    0  501  503 -0.00000000000E+00 -0.00000000000E+00 -0.10281136266E+04  0.10281136266E+04  0.00000000000E+00 0.  1.
          6    1    1    2  501    0  0.91991121531E+02 -0.27965947308E+02 -0.40892640676E+03  0.45392649933E+03  0.17200000000E+03 0.  1.
         -6    1    1    2    0  502 -0.91991121531E+02  0.27965947308E+02 -0.58041882455E+03  0.61295552248E+03  0.17200000000E+03 0.  1.
<mgrwt>
<rscale>  2 0.19704939E+03</rscale>
<asrwt>0</asrwt>
<pdfrwt beam="1">  1       21 0.96920992E-02 0.19704939E+03</pdfrwt>
<pdfrwt beam="2">  1       21 0.25702840E+00 0.19704939E+03</pdfrwt>
<totfact> 0.51619557E+03</totfact>
</mgrwt>
</event>
<event>
 4    1  0.1115666E+000  0.2059314E+03  0.7546771E-02  0.1144829E+00
         21   -1    0    0  503  502  0.00000000000E+00  0.00000000000E+00  0.78477583830E+03  0.78477583830E+03  0.00000000000E+00 0. -1.
         21   -1    0    0  501  503 -0.00000000000E+00 -0.00000000000E+00 -0.61019493037E+02  0.61019493037E+02  0.00000000000E+00 0. -1.
          6    1    1    2  501    0 -0.10355929392E+03  0.45816962711E+02  0.21883242250E+03  0.30049184775E+03  0.17200000000E+03 0. -1.
         -6    1    1    2    0  502  0.10355929392E+03 -0.45816962711E+02  0.50492392276E+03  0.54530348358E+03  0.17200000000E+03 0. -1.
<mgrwt>
<rscale>  2 0.20593135E+03</rscale>
<asrwt>0</asrwt>
<pdfrwt beam="1">  1       21 0.19619393E+00 0.20593135E+03</pdfrwt>
<pdfrwt beam="2">  1       21 0.15254876E-01 0.20593135E+03</pdfrwt>
<totfact> 0.53410216E+03</totfact>
</mgrwt>
</event>
<event>
 4    1  0.1115666E+000  0.1838325E+03  0.7546771E-02  0.1164145E+00
         21   -1    0    0  503  502  0.00000000000E+00  0.00000000000E+00  0.12402193032E+03  0.12402193032E+03  0.00000000000E+00 0.  1.
         21   -1    0    0  501  503 -0.00000000000E+00 -0.00000000000E+00 -0.38183667101E+03  0.38183667101E+03  0.00000000000E+00 0.  1.
          6    1    1    2  501    0  0.64292802918E+02 -0.87641738369E+01 -0.26426068062E+03  0.32191315999E+03  0.17200000000E+03 0.  1.
         -6    1    1    2    0  502 -0.64292802918E+02  0.87641738369E+01  0.64459399391E+01  0.18394544135E+03  0.17200000000E+03 0.  1.
<mgrwt>
<rscale>  2 0.18383247E+03</rscale>
<asrwt>0</asrwt>
<pdfrwt beam="1">  1       21 0.31005483E-01 0.18383247E+03</pdfrwt>
<pdfrwt beam="2">  1       21 0.95459168E-01 0.18383247E+03</pdfrwt>
<totfact> 0.92098365E+03</totfact>
</mgrwt>
</event>
<event>
 4    1  0.1115666E+000  0.1858025E+03  0.7546771E-02  0.1162303E+00
         21   -1    0    0  503  502  0.00000000000E+00  0.00000000000E+00  0.71122284398E+03  0.71122284398E+03  0.00000000000E+00 0.  1.
         21   -1    0    0  501  503 -0.00000000000E+00 -0.00000000000E+00 -0.52113677384E+02  0.52113677384E+02  0.00000000000E+00 0.  1.
          6    1    1    2  501    0 -0.41442135371E+02 -0.56754924114E+02  0.22960438739E+03  0.29536544603E+03  0.17200000000E+03 0.  1.
         -6    1    1    2    0  502  0.41442135371E+02  0.56754924114E+02  0.42950477920E+03  0.46797107534E+03  0.17200000000E+03 0.  1.
<mgrwt>
<rscale>  2 0.18580251E+03</rscale>
<asrwt>0</asrwt>
<pdfrwt beam="1">  1       21 0.17780568E+00 0.18580251E+03</pdfrwt>
<pdfrwt beam="2">  1       21 0.13028422E-01 0.18580251E+03</pdfrwt>
<totfact> 0.95896346E+03</totfact>
</mgrwt>
</event>
<event>
 4    1  0.1115666E+000  0.2499671E+03  0.7546771E-02  0.1113326E+00
         21   -1    0    0  503  502  0.00000000000E+00  0.00000000000E+00  0.49788526076E+03  0.49788526076E+03  0.00000000000E+00 0. -1.
         21   -1    0    0  501  503 -0.00000000000E+00 -0.00000000000E+00 -0.13531785842E+03  0.13531785842E+03  0.00000000000E+00 0. -1.
          6    1    1    2  501    0  0.16462971047E+03  0.76135443051E+02  0.26657223434E+03  0.36543714012E+03  0.17200000000E+03 0. -1.
         -6    1    1    2    0  502 -0.16462971047E+03 -0.76135443051E+02  0.95995167997E+02  0.26776597905E+03  0.17200000000E+03 0. -1.
<mgrwt>
<rscale>  2 0.24996709E+03</rscale>
<asrwt>0</asrwt>
<pdfrwt beam="1">  1       21 0.12447131E+00 0.24996709E+03</pdfrwt>
<pdfrwt beam="2">  1       21 0.33829466E-01 0.24996709E+03</pdfrwt>
<totfact> 0.38857429E+03</totfact>
</mgrwt>
</event>
<event>
 4    1  0.1115666E+000  0.1737788E+03  0.7546771E-02  0.1173963E+00
         21   -1    0    0  501  502  0.00000000000E+00  0.00000000000E+00  0.15453342891E+03  0.15453342891E+03  0.00000000000E+00 0. -1.
         21   -1    0    0  502  503 -0.00000000000E+00 -0.00000000000E+00 -0.28440127939E+03  0.28440127939E+03  0.00000000000E+00 0. -1.
          6    1    1    2  501    0 -0.20483676758E+01 -0.24716172458E+02  0.57824388653E+02  0.18314678516E+03  0.17200000000E+03 0. -1.
         -6    1    1    2    0  503  0.20483676758E+01  0.24716172458E+02 -0.18769223913E+03  0.25578792313E+03  0.17200000000E+03 0. -1.
<mgrwt>
<rscale>  2 0.17377884E+03</rscale>
<asrwt>0</asrwt>
<pdfrwt beam="1">  1       21 0.38633357E-01 0.17377884E+03</pdfrwt>
<pdfrwt beam="2">  1       21 0.71100319E-01 0.17377884E+03</pdfrwt>
<totfact> 0.11715982E+04</totfact>
</mgrwt>
</event>
<event>
 4    1  0.1115666E+000  0.1778971E+03  0.7546771E-02  0.1169854E+00
         21   -1    0    0  503  502  0.00000000000E+00  0.00000000000E+00  0.14145007873E+03  0.14145007873E+03  0.00000000000E+00 0.  1.
         21   -1    0    0  501  503 -0.00000000000E+00 -0.00000000000E+00 -0.29089008721E+03  0.29089008721E+03  0.00000000000E+00 0. -1.
          6    1    1    2  501    0  0.44938488367E+02 -0.66270587380E+01 -0.17858504405E+03  0.25207142560E+03  0.17200000000E+03 0. -1.
         -6    1    1    2    0  502 -0.44938488367E+02  0.66270587380E+01  0.29145035567E+02  0.18026874034E+03  0.17200000000E+03 0.  1.
<mgrwt>
<rscale>  2 0.17789712E+03</rscale>
<asrwt>0</asrwt>
<pdfrwt beam="1">  1       21 0.35362520E-01 0.17789712E+03</pdfrwt>
<pdfrwt beam="2">  1       21 0.72722521E-01 0.17789712E+03</pdfrwt>
<totfact> 0.13258081E+04</totfact>
</mgrwt>
</event>
<event>
 4    1  0.1115666E+000  0.1983931E+03  0.7546771E-02  0.1151102E+00
         21   -1    0    0  503  502  0.00000000000E+00  0.00000000000E+00  0.22141472750E+03  0.22141472750E+03  0.00000000000E+00 0. -1.
         21   -1    0    0  501  503 -0.00000000000E+00 -0.00000000000E+00 -0.24364139652E+03  0.24364139652E+03  0.00000000000E+00 0. -1.
          6    1    1    2  501    0 -0.88726896795E+02 -0.43627333608E+02 -0.13202396620E+03  0.23830680667E+03  0.17200000000E+03 0. -1.
         -6    1    1    2    0  502  0.88726896795E+02  0.43627333608E+02  0.10979729718E+03  0.22674931735E+03  0.17200000000E+03 0. -1.
<mgrwt>
<rscale>  2 0.19839306E+03</rscale>
<asrwt>0</asrwt>
<pdfrwt beam="1">  1       21 0.55353682E-01 0.19839306E+03</pdfrwt>
<pdfrwt beam="2">  1       21 0.60910349E-01 0.19839306E+03</pdfrwt>
<totfact> 0.76874920E+03</totfact>
</mgrwt>
</event>
<event>
 4    1  0.1115666E+000  0.1888166E+03  0.7546771E-02  0.1159533E+00
         21   -1    0    0  503  502  0.00000000000E+00  0.00000000000E+00  0.22041857616E+03  0.22041857616E+03  0.00000000000E+00 0. -1.
         21   -1    0    0  501  503 -0.00000000000E+00 -0.00000000000E+00 -0.36419929613E+03  0.36419929613E+03  0.00000000000E+00 0. -1.
          6    1    1    2  501    0 -0.50435131114E+02 -0.59363453039E+02 -0.28982961336E+03  0.34590884173E+03  0.17200000000E+03 0. -1.
         -6    1    1    2    0  502  0.50435131114E+02  0.59363453039E+02  0.14604889339E+03  0.23870903055E+03  0.17200000000E+03 0. -1.
<mgrwt>
<rscale>  2 0.18881664E+03</rscale>
<asrwt>0</asrwt>
<pdfrwt beam="1">  1       21 0.55104645E-01 0.18881664E+03</pdfrwt>
<pdfrwt beam="2">  1       21 0.91049823E-01 0.18881664E+03</pdfrwt>
<totfact> 0.31877073E+03</totfact>
</mgrwt>
</event>
<event>
 4    1  0.1115666E+000  0.1849784E+03  0.7546771E-02  0.1163070E+00
         21   -1    0    0  503  502  0.00000000000E+00  0.00000000000E+00  0.39728769131E+03  0.39728769131E+03  0.00000000000E+00 0. -1.
         21   -1    0    0  501  503 -0.00000000000E+00 -0.00000000000E+00 -0.10642373955E+03  0.10642373955E+03  0.00000000000E+00 0. -1.
          6    1    1    2  501    0  0.57510193043E+02  0.36408849930E+02  0.35442716036E+02  0.18834333749E+03  0.17200000000E+03 0. -1.
         -6    1    1    2    0  502 -0.57510193043E+02 -0.36408849930E+02  0.25542123572E+03  0.31536809337E+03  0.17200000000E+03 0. -1.
<mgrwt>
<rscale>  2 0.18497845E+03</rscale>
<asrwt>0</asrwt>
<pdfrwt beam="1">  1       21 0.99321919E-01 0.18497845E+03</pdfrwt>
<pdfrwt beam="2">  1       21 0.26605936E-01 0.18497845E+03</pdfrwt>
<totfact> 0.11275828E+04</totfact>
</mgrwt>
</event>
<event>
 4    1  0.1115666E+000  0.1903915E+03  0.7546771E-02  0.1158109E+00
         21   -1    0    0  501  502  0.00000000000E+00  0.00000000000E+00  0.58043044134E+02  0.58043044134E+02  0.00000000000E+00 0. -1.
         21   -1    0    0  502  503 -0.00000000000E+00 -0.00000000000E+00 -0.79738712694E+03  0.79738712694E+03  0.00000000000E+00 0. -1.
          6    1    1    2  501    0 -0.73400922914E+02  0.35738249638E+02 -0.17052271235E+03  0.25559130149E+03  0.17200000000E+03 0. -1.
         -6    1    1    2    0  503  0.73400922914E+02 -0.35738249638E+02 -0.56882137046E+03  0.59983886958E+03  0.17200000000E+03 0. -1.
<mgrwt>
<rscale>  2 0.19039149E+03</rscale>
<asrwt>0</asrwt>
<pdfrwt beam="1">  1       21 0.14510761E-01 0.19039149E+03</pdfrwt>
<pdfrwt beam="2">  1       21 0.19934678E+00 0.19039149E+03</pdfrwt>
<totfact> 0.56606305E+03</totfact>
</mgrwt>
</event>
<event>
 4    1  0.1115666E+000  0.1995528E+03  0.7546771E-02  0.1150117E+00
         21   -1    0    0  503  502  0.00000000000E+00  0.00000000000E+00  0.77067288840E+03  0.77067288840E+03  0.00000000000E+00 0.  1.
         21   -1    0    0  501  503 -0.00000000000E+00 -0.00000000000E+00 -0.10699545952E+03  0.10699545952E+03  0.00000000000E+00 0.  1.
          6    1    1    2  501    0 -0.99051855433E+02 -0.20641046840E+02  0.16282347776E+02  0.20021597771E+03  0.17200000000E+03 0.  1.
         -6    1    1    2    0  502  0.99051855433E+02  0.20641046840E+02  0.64739508111E+03  0.67745237022E+03  0.17200000000E+03 0.  1.
<mgrwt>
<rscale>  2 0.19955281E+03</rscale>
<asrwt>0</asrwt>
<pdfrwt beam="1">  1       21 0.19266821E+00 0.19955281E+03</pdfrwt>
<pdfrwt beam="2">  1       21 0.26748867E-01 0.19955281E+03</pdfrwt>
<totfact> 0.19793402E+03</totfact>
</mgrwt>
</event>
<event>
 4    1  0.1115666E+000  0.1913916E+03  0.7546771E-02  0.1157212E+00
         21   -1    0    0  501  502  0.00000000000E+00  0.00000000000E+00  0.86852248382E+02  0.86852248382E+02  0.00000000000E+00 0.  1.
         21   -1    0    0  502  503 -0.00000000000E+00 -0.00000000000E+00 -0.12516059844E+04  0.12516059844E+04  0.00000000000E+00 0.  1.
          6    1    1    2  501    0 -0.75749643914E+00  0.83941538648E+02 -0.37447885391E+02  0.19502076769E+03  0.17200000000E+03 0.  1.
         -6    1    1    2    0  503  0.75749643914E+00 -0.83941538648E+02 -0.11273058506E+04  0.11434374651E+04  0.17200000000E+03 0.  1.
<mgrwt>
<rscale>  2 0.19139163E+03</rscale>
<asrwt>0</asrwt>
<pdfrwt beam="1">  1       21 0.21713063E-01 0.19139163E+03</pdfrwt>
<pdfrwt beam="2">  1       21 0.31290149E+00 0.19139163E+03</pdfrwt>
<totfact> 0.57019841E+02</totfact>
</mgrwt>
</event>
<event>
 4    1  0.1115666E+000  0.1819139E+03  0.7546771E-02  0.1165964E+00
         21   -1    0    0  503  502  0.00000000000E+00  0.00000000000E+00  0.41543905089E+03  0.41543905089E+03  0.00000000000E+00 0.  1.
         21   -1    0    0  501  503 -0.00000000000E+00 -0.00000000000E+00 -0.81965018672E+02  0.81965018672E+02  0.00000000000E+00 0.  1.
          6    1    1    2  501    0 -0.51811811756E+02  0.28708901718E+02  0.20846971610E+03  0.27668084033E+03  0.17200000000E+03 0. -1.
         -6    1    1    2    0  502  0.51811811756E+02 -0.28708901718E+02  0.12500431612E+03  0.22072322924E+03  0.17200000000E+03 0. -1.
<mgrwt>
<rscale>  2 0.18191389E+03</rscale>
<asrwt>0</asrwt>
<pdfrwt beam="1">  1       21 0.10385976E+00 0.18191389E+03</pdfrwt>
<pdfrwt beam="2">  1       21 0.20491256E-01 0.18191389E+03</pdfrwt>
<totfact> 0.16659177E+04</totfact>
</mgrwt>
</event>
<event>
 4    1  0.1115666E+000  0.2310361E+03  0.7546771E-02  0.1125913E+00
         21   -1    0    0  503  502  0.00000000000E+00  0.00000000000E+00  0.59747517325E+03  0.59747517325E+03  0.00000000000E+00 0.  1.
         21   -1    0    0  501  503 -0.00000000000E+00 -0.00000000000E+00 -0.89339601797E+02  0.89339601797E+02  0.00000000000E+00 0. -1.
          6    1    1    2  501    0 -0.15416338252E+03  0.52275033481E+01  0.25299722388E+03  0.34261533910E+03  0.17200000000E+03 0. -1.
         -6    1    1    2    0  502  0.15416338252E+03 -0.52275033481E+01  0.25513834758E+03  0.34419943595E+03  0.17200000000E+03 0.  1.
<mgrwt>
<rscale>  2 0.23103609E+03</rscale>
<asrwt>0</asrwt>
<pdfrwt beam="1">  1       21 0.14936878E+00 0.23103609E+03</pdfrwt>
<pdfrwt beam="2">  1       21 0.22334902E-01 0.23103609E+03</pdfrwt>
<totfact> 0.55027446E+03</totfact>
</mgrwt>
</event>
<event>
 4    1  0.1115666E+000  0.2623786E+03  0.7546771E-02  0.1105723E+00
         21   -1    0    0  501  502  0.00000000000E+00  0.00000000000E+00  0.12613995654E+04  0.12613995654E+04  0.00000000000E+00 0. -1.
         21   -1    0    0  502  503 -0.00000000000E+00 -0.00000000000E+00 -0.80132227454E+02  0.80132227454E+02  0.00000000000E+00 0. -1.
          6    1    1    2  501    0  0.15789857144E+03 -0.11969358129E+03  0.96943652877E+03  0.10043155359E+04  0.17200000000E+03 0. -1.
         -6    1    1    2    0  503 -0.15789857144E+03  0.11969358129E+03  0.21183080919E+03  0.33721625700E+03  0.17200000000E+03 0. -1.
<mgrwt>
<rscale>  2 0.26237857E+03</rscale>
<asrwt>0</asrwt>
<pdfrwt beam="1">  1       21 0.31534983E+00 0.26237857E+03</pdfrwt>
<pdfrwt beam="2">  1       21 0.20033061E-01 0.26237857E+03</pdfrwt>
<totfact> 0.58774541E+02</totfact>
</mgrwt>
</event>
<event>
 4    1  0.1115666E+000  0.1856859E+03  0.7546771E-02  0.1162411E+00
         21   -1    0    0  501  502  0.00000000000E+00  0.00000000000E+00  0.37524524433E+02  0.37524524433E+02  0.00000000000E+00 0. -1.
         21   -1    0    0  502  503 -0.00000000000E+00 -0.00000000000E+00 -0.10136152917E+04  0.10136152917E+04  0.00000000000E+00 0. -1.
          6    1    1    2  501    0  0.63145244520E+02  0.30131808338E+02 -0.32734073936E+03  0.37633921856E+03  0.17200000000E+03 0. -1.
         -6    1    1    2    0  503 -0.63145244520E+02 -0.30131808338E+02 -0.64875002789E+03  0.67480059756E+03  0.17200000000E+03 0. -1.
<mgrwt>
<rscale>  2 0.18568588E+03</rscale>
<asrwt>0</asrwt>
<pdfrwt beam="1">  1       21 0.93811313E-02 0.18568588E+03</pdfrwt>
<pdfrwt beam="2">  1       21 0.25340382E+00 0.18568588E+03</pdfrwt>
<totfact> 0.58093066E+03</totfact>
</mgrwt>
</event>
<event>
 4    1  0.1115666E+000  0.1758310E+03  0.7546771E-02  0.1171900E+00
         21   -1    0    0  503  502  0.00000000000E+00  0.00000000000E+00  0.59677741601E+02  0.59677741601E+02  0.00000000000E+00 0.  1.
         21   -1    0    0  501  503 -0.00000000000E+00 -0.00000000000E+00 -0.57106747281E+03  0.57106747281E+03  0.00000000000E+00 0.  1.
          6    1    1    2  501    0  0.36476148937E+02  0.14265787246E+01 -0.15960975396E+03  0.23746961516E+03  0.17200000000E+03 0.  1.
         -6    1    1    2    0  502 -0.36476148937E+02 -0.14265787246E+01 -0.35177997726E+03  0.39327559925E+03  0.17200000000E+03 0.  1.
<mgrwt>
<rscale>  2 0.17583101E+03</rscale>
<asrwt>0</asrwt>
<pdfrwt beam="1">  1       21 0.14919435E-01 0.17583101E+03</pdfrwt>
<pdfrwt beam="2">  1       21 0.14276687E+00 0.17583101E+03</pdfrwt>
<totfact> 0.13639391E+04</totfact>
</mgrwt>
</event>
<event>
 4    1  0.1115666E+000  0.1778110E+03  0.7546771E-02  0.1169938E+00
         21   -1    0    0  501  502  0.00000000000E+00  0.00000000000E+00  0.36094933609E+02  0.36094933609E+02  0.00000000000E+00 0.  1.
         21   -1    0    0  502  503 -0.00000000000E+00 -0.00000000000E+00 -0.89946048360E+03  0.89946048360E+03  0.00000000000E+00 0.  1.
          6    1    1    2  501    0  0.45049536645E+02  0.18175683932E+01 -0.35602894964E+03  0.39796152740E+03  0.17200000000E+03 0.  1.
         -6    1    1    2    0  503 -0.45049536645E+02 -0.18175683932E+01 -0.50733660034E+03  0.53759388980E+03  0.17200000000E+03 0.  1.
<mgrwt>
<rscale>  2 0.17781104E+03</rscale>
<asrwt>0</asrwt>
<pdfrwt beam="1">  1       21 0.90237338E-02 0.17781104E+03</pdfrwt>
<pdfrwt beam="2">  1       21 0.22486511E+00 0.17781104E+03</pdfrwt>
<totfact> 0.92615685E+03</totfact>
</mgrwt>
</event>
<event>
 4    1  0.1115666E+000  0.2115899E+03  0.7546771E-02  0.1140313E+00
         21   -1    0    0  503  502  0.00000000000E+00  0.00000000000E+00  0.51792301798E+03  0.51792301798E+03  0.00000000000E+00 0. -1.
         21   -1    0    0  501  503 -0.00000000000E+00 -0.00000000000E+00 -0.19915046543E+03  0.19915046543E+03  0.00000000000E+00 0. -1.
          6    1    1    2  501    0  0.87796364005E+02 -0.86475865515E+02 -0.11033882490E+03  0.23863137499E+03  0.17200000000E+03 0. -1.
         -6    1    1    2    0  502 -0.87796364005E+02  0.86475865515E+02  0.42911137745E+03  0.47844210841E+03  0.17200000000E+03 0. -1.
<mgrwt>
<rscale>  2 0.21158988E+03</rscale>
<asrwt>0</asrwt>
<pdfrwt beam="1">  1       21 0.12948075E+00 0.21158988E+03</pdfrwt>
<pdfrwt beam="2">  1       21 0.49787617E-01 0.21158988E+03</pdfrwt>
<totfact> 0.16491359E+03</totfact>
</mgrwt>
</event>
<event>
 4    1  0.1115666E+000  0.1780169E+03  0.7546771E-02  0.1169736E+00
         21   -1    0    0  503  502  0.00000000000E+00  0.00000000000E+00  0.13707967413E+03  0.13707967413E+03  0.00000000000E+00 0.  1.
         21   -1    0    0  501  503 -0.00000000000E+00 -0.00000000000E+00 -0.23880830500E+03  0.23880830500E+03  0.00000000000E+00 0.  1.
          6    1    1    2  501    0  0.44283769909E+02 -0.12040057996E+02 -0.17272691528E+02  0.17885290366E+03  0.17200000000E+03 0. -1.
         -6    1    1    2    0  502 -0.44283769909E+02  0.12040057996E+02 -0.84455939345E+02  0.19703507547E+03  0.17200000000E+03 0. -1.
<mgrwt>
<rscale>  2 0.17801690E+03</rscale>
<asrwt>0</asrwt>
<pdfrwt beam="1">  1       21 0.34269919E-01 0.17801690E+03</pdfrwt>
<pdfrwt beam="2">  1       21 0.59702076E-01 0.17801690E+03</pdfrwt>
<totfact> 0.21675824E+04</totfact>
</mgrwt>
</event>
<event>
 4    1  0.1115666E+000  0.2112007E+03  0.7546771E-02  0.1140619E+00
         21   -1    0    0  501  502  0.00000000000E+00  0.00000000000E+00  0.40308302762E+02  0.40308302762E+02  0.00000000000E+00 0. -1.
         21   -1    0    0  502  503 -0.00000000000E+00 -0.00000000000E+00 -0.11404420401E+04  0.11404420401E+04  0.00000000000E+00 0. -1.
          6    1    1    2  501    0  0.99316952769E+02 -0.71818411422E+02 -0.65174520524E+03  0.68511134415E+03  0.17200000000E+03 0. -1.
         -6    1    1    2    0  503 -0.99316952769E+02  0.71818411422E+02 -0.44838853207E+03  0.49563899869E+03  0.17200000000E+03 0. -1.
<mgrwt>
<rscale>  2 0.21120071E+03</rscale>
<asrwt>0</asrwt>
<pdfrwt beam="1">  1       21 0.10077076E-01 0.21120071E+03</pdfrwt>
<pdfrwt beam="2">  1       21 0.28511051E+00 0.21120071E+03</pdfrwt>
<totfact> 0.32598158E+03</totfact>
</mgrwt>
</event>
<event>
 4    1  0.1115666E+000  0.1739452E+03  0.7546771E-02  0.1173795E+00
         21   -1    0    0  503  502  0.00000000000E+00  0.00000000000E+00  0.10315529242E+03  0.10315529242E+03  0.00000000000E+00 0.  1.
         21   -1    0    0  501  503 -0.00000000000E+00 -0.00000000000E+00 -0.29393502061E+03  0.29393502061E+03  0.00000000000E+00 0.  1.
          6    1    1    2  501    0 -0.39676584738E+01  0.25635960831E+02 -0.86267536042E+02  0.19416238713E+03  0.17200000000E+03 0.  1.
         -6    1    1    2    0  502  0.39676584738E+01 -0.25635960831E+02 -0.10451219215E+03  0.20292792590E+03  0.17200000000E+03 0.  1.
<mgrwt>
<rscale>  2 0.17394524E+03</rscale>
<asrwt>0</asrwt>
<pdfrwt beam="1">  1       21 0.25788823E-01 0.17394524E+03</pdfrwt>
<pdfrwt beam="2">  1       21 0.73483755E-01 0.17394524E+03</pdfrwt>
<totfact> 0.24011708E+04</totfact>
</mgrwt>
</event>
<event>
 4    1  0.1115666E+000  0.1746624E+03  0.7546771E-02  0.1173071E+00
         21   -1    0    0  501  502  0.00000000000E+00  0.00000000000E+00  0.31497379060E+03  0.31497379060E+03  0.00000000000E+00 0.  1.
         21   -1    0    0  502  503 -0.00000000000E+00 -0.00000000000E+00 -0.19084803732E+03  0.19084803732E+03  0.00000000000E+00 0.  1.
          6    1    1    2  501    0 -0.28166947663E+02  0.11383913752E+02  0.23955137485E+03  0.29646556567E+03  0.17200000000E+03 0.  1.
         -6    1    1    2    0  503  0.28166947663E+02 -0.11383913752E+02 -0.11542562156E+03  0.20935626226E+03  0.17200000000E+03 0.  1.
<mgrwt>
<rscale>  2 0.17466245E+03</rscale>
<asrwt>0</asrwt>
<pdfrwt beam="1">  1       21 0.78743447E-01 0.17466245E+03</pdfrwt>
<pdfrwt beam="2">  1       21 0.47712010E-01 0.17466245E+03</pdfrwt>
<totfact> 0.60708488E+03</totfact>
</mgrwt>
</event>
<event>
 4    1  0.1115666E+000  0.1866146E+03  0.7546771E-02  0.1161551E+00
         21   -1    0    0  503  502  0.00000000000E+00  0.00000000000E+00  0.54703299128E+03  0.54703299128E+03  0.00000000000E+00 0.  1.
         21   -1    0    0  501  503 -0.00000000000E+00 -0.00000000000E+00 -0.98681010836E+02  0.98681010836E+02  0.00000000000E+00 0.  1.
          6    1    1    2  501    0 -0.10073072741E+01  0.72387760816E+02  0.31845671759E+02  0.18931230650E+03  0.17200000000E+03 0.  1.
         -6    1    1    2    0  502  0.10073072741E+01 -0.72387760816E+02  0.41650630868E+03  0.45640169561E+03  0.17200000000E+03 0.  1.
<mgrwt>
<rscale>  2 0.18661458E+03</rscale>
<asrwt>0</asrwt>
<pdfrwt beam="1">  1       21 0.13675824E+00 0.18661458E+03</pdfrwt>
<pdfrwt beam="2">  1       21 0.24670254E-01 0.18661458E+03</pdfrwt>
<totfact> 0.59338220E+03</totfact>
</mgrwt>
</event>
<event>
 4    1  0.1115666E+000  0.1741657E+03  0.7546771E-02  0.1173572E+00
         21   -1    0    0  501  502  0.00000000000E+00  0.00000000000E+00  0.90336298803E+03  0.90336298803E+03  0.00000000000E+00 0.  1.
         21   -1    0    0  502  503 -0.00000000000E+00 -0.00000000000E+00 -0.47864835088E+02  0.47864835088E+02  0.00000000000E+00 0.  1.
          6    1    1    2  501    0  0.26697306188E+02  0.60792019139E+01  0.68758818366E+03  0.70930332945E+03  0.17200000000E+03 0.  1.
         -6    1    1    2    0  503 -0.26697306188E+02 -0.60792019139E+01  0.16790996928E+03  0.24192449367E+03  0.17200000000E+03 0.  1.
<mgrwt>
<rscale>  2 0.17416573E+03</rscale>
<asrwt>0</asrwt>
<pdfrwt beam="1">  1       21 0.22584069E+00 0.17416573E+03</pdfrwt>
<pdfrwt beam="2">  1       21 0.11966212E-01 0.17416573E+03</pdfrwt>
<totfact> 0.55684014E+03</totfact>
</mgrwt>
</event>
<event>
 4    1  0.1115666E+000  0.1725661E+03  0.7546771E-02  0.1175198E+00
         21   -1    0    0  501  502  0.00000000000E+00  0.00000000000E+00  0.38824915337E+03  0.38824915337E+03  0.00000000000E+00 0. -1.
         21   -1    0    0  502  503 -0.00000000000E+00 -0.00000000000E+00 -0.39014064283E+03  0.39014064283E+03  0.00000000000E+00 0. -1.
          6    1    1    2  501    0  0.74653529480E+01 -0.11803700282E+02  0.34790011526E+03  0.38834720165E+03  0.17200000000E+03 0. -1.
         -6    1    1    2    0  503 -0.74653529480E+01  0.11803700282E+02 -0.34979160472E+03  0.39004259455E+03  0.17200000000E+03 0. -1.
<mgrwt>
<rscale>  2 0.17256610E+03</rscale>
<asrwt>0</asrwt>
<pdfrwt beam="1">  1       21 0.97062288E-01 0.17256610E+03</pdfrwt>
<pdfrwt beam="2">  1       21 0.97535161E-01 0.17256610E+03</pdfrwt>
<totfact> 0.78411249E+02</totfact>
</mgrwt>
</event>
<event>
 4    1  0.1115666E+000  0.2794153E+03  0.7546771E-02  0.1096009E+00
         21   -1    0    0  501  502  0.00000000000E+00  0.00000000000E+00  0.22527272546E+03  0.22527272546E+03  0.00000000000E+00 0.  1.
         21   -1    0    0  502  503 -0.00000000000E+00 -0.00000000000E+00 -0.35782309619E+03  0.35782309619E+03  0.00000000000E+00 0. -1.
          6    1    1    2  501    0  0.21079908434E+03  0.63660689807E+02 -0.14574381642E+02  0.27979519293E+03  0.17200000000E+03 0.  1.
         -6    1    1    2    0  503 -0.21079908434E+03 -0.63660689807E+02 -0.11797598909E+03  0.30330062873E+03  0.17200000000E+03 0. -1.
<mgrwt>
<rscale>  2 0.27941535E+03</rscale>
<asrwt>0</asrwt>
<pdfrwt beam="1">  1       21 0.56318182E-01 0.27941535E+03</pdfrwt>
<pdfrwt beam="2">  1       21 0.89455774E-01 0.27941535E+03</pdfrwt>
<totfact> 0.29690302E+03</totfact>
</mgrwt>
</event>
<event>
 4    1  0.1115666E+000  0.2322904E+03  0.7546771E-02  0.1125038E+00
         21   -1    0    0  501  502  0.00000000000E+00  0.00000000000E+00  0.39225677258E+03  0.39225677258E+03  0.00000000000E+00 0. -1.
         21   -1    0    0  502  503 -0.00000000000E+00 -0.00000000000E+00 -0.14246289007E+03  0.14246289007E+03  0.00000000000E+00 0.  1.
          6    1    1    2  501    0 -0.10187278010E+03  0.11830798900E+03  0.17449573805E+03  0.29052987141E+03  0.17200000000E+03 0. -1.
         -6    1    1    2    0  503  0.10187278010E+03 -0.11830798900E+03  0.75298144461E+02  0.24418979124E+03  0.17200000000E+03 0.  1.
<mgrwt>
<rscale>  2 0.23229043E+03</rscale>
<asrwt>0</asrwt>
<pdfrwt beam="1">  1       21 0.98064191E-01 0.23229043E+03</pdfrwt>
<pdfrwt beam="2">  1       21 0.35615723E-01 0.23229043E+03</pdfrwt>
<totfact> 0.63526685E+03</totfact>
</mgrwt>
</event>
<event>
 4    1  0.1115666E+000  0.1736191E+03  0.7546771E-02  0.1174125E+00
         21   -1    0    0  503  502  0.00000000000E+00  0.00000000000E+00  0.93567401331E+03  0.93567401331E+03  0.00000000000E+00 0.  1.
         21   -1    0    0  501  503 -0.00000000000E+00 -0.00000000000E+00 -0.32393891999E+02  0.32393891999E+02  0.00000000000E+00 0.  1.
          6    1    1    2  501    0 -0.20365966629E+00 -0.23655172878E+02  0.41576375770E+03  0.45055866532E+03  0.17200000000E+03 0.  1.
         -6    1    1    2    0  502  0.20365966629E+00  0.23655172878E+02  0.48751636361E+03  0.51750923999E+03  0.17200000000E+03 0.  1.
<mgrwt>
<rscale>  2 0.17361915E+03</rscale>
<asrwt>0</asrwt>
<pdfrwt beam="1">  1       21 0.23391841E+00 0.17361915E+03</pdfrwt>
<pdfrwt beam="2">  1       21 0.80984761E-02 0.17361915E+03</pdfrwt>
<totfact> 0.99088845E+03</totfact>
</mgrwt>
</event>
<event>
 4    1  0.1115666E+000  0.1918219E+03  0.7546771E-02  0.1156828E+00
         21   -1    0    0  503  502  0.00000000000E+00  0.00000000000E+00  0.64312786470E+03  0.64312786470E+03  0.00000000000E+00 0.  1.
         21   -1    0    0  501  503 -0.00000000000E+00 -0.00000000000E+00 -0.73564989720E+02  0.73564989720E+02  0.00000000000E+00 0.  1.
          6    1    1    2  501    0 -0.72930969030E+02  0.43505541643E+02  0.11583662323E+03  0.22408431824E+03  0.17200000000E+03 0.  1.
         -6    1    1    2    0  502  0.72930969030E+02 -0.43505541643E+02  0.45372625175E+03  0.49260853619E+03  0.17200000000E+03 0.  1.
<mgrwt>
<rscale>  2 0.19182194E+03</rscale>
<asrwt>0</asrwt>
<pdfrwt beam="1">  1       21 0.16078195E+00 0.19182194E+03</pdfrwt>
<pdfrwt beam="2">  1       21 0.18391249E-01 0.19182194E+03</pdfrwt>
<totfact> 0.67068649E+03</totfact>
</mgrwt>
</event>
<event>
 4    1  0.1115666E+000  0.2029017E+03  0.7546771E-02  0.1147314E+00
         21   -1    0    0  501  502  0.00000000000E+00  0.00000000000E+00  0.44203437888E+02  0.44203437888E+02  0.00000000000E+00 0.  1.
         21   -1    0    0  502  503 -0.00000000000E+00 -0.00000000000E+00 -0.21177445194E+04  0.21177445194E+04  0.00000000000E+00 0.  1.
          6    1    1    2  501    0  0.10647156304E+03 -0.15776573503E+02 -0.22768935446E+03  0.30497792730E+03  0.17200000000E+03 0.  1.
         -6    1    1    2    0  503 -0.10647156304E+03  0.15776573503E+02 -0.18458517271E+04  0.18569700300E+04  0.17200000000E+03 0.  1.
<mgrwt>
<rscale>  2 0.20290169E+03</rscale>
<asrwt>0</asrwt>
<pdfrwt beam="1">  1       21 0.11050860E-01 0.20290169E+03</pdfrwt>
<pdfrwt beam="2">  1       21 0.52943609E+00 0.20290169E+03</pdfrwt>
<totfact> 0.77691318E+01</totfact>
</mgrwt>
</event>
<event>
 4    1  0.1115666E+000  0.2336520E+03  0.7546771E-02  0.1124095E+00
         21   -1    0    0  503  502  0.00000000000E+00  0.00000000000E+00  0.59185793258E+02  0.59185793258E+02  0.00000000000E+00 0.  1.
         21   -1    0    0  501  503 -0.00000000000E+00 -0.00000000000E+00 -0.92911868836E+03  0.92911868836E+03  0.00000000000E+00 0. -1.
          6    1    1    2  501    0  0.12207347545E+03 -0.10053518080E+03 -0.39296015928E+03  0.45717714594E+03  0.17200000000E+03 0.  1.
         -6    1    1    2    0  502 -0.12207347545E+03  0.10053518080E+03 -0.47697273582E+03  0.53112733568E+03  0.17200000000E+03 0. -1.
<mgrwt>
<rscale>  2 0.23365200E+03</rscale>
<asrwt>0</asrwt>
<pdfrwt beam="1">  1       21 0.14796449E-01 0.23365200E+03</pdfrwt>
<pdfrwt beam="2">  1       21 0.23227966E+00 0.23365200E+03</pdfrwt>
<totfact> 0.32745729E+03</totfact>
</mgrwt>
</event>
<event>
 4    1  0.1115666E+000  0.1901416E+03  0.7546771E-02  0.1158334E+00
         21   -1    0    0  503  502  0.00000000000E+00  0.00000000000E+00  0.28119990888E+02  0.28119990888E+02  0.00000000000E+00 0. -1.
         21   -1    0    0  501  503 -0.00000000000E+00 -0.00000000000E+00 -0.13871870496E+04  0.13871870496E+04  0.00000000000E+00 0. -1.
          6    1    1    2  501    0 -0.80698645832E+02  0.75860955712E+01 -0.87094256214E+03  0.89145654232E+03  0.17200000000E+03 0. -1.
         -6    1    1    2    0  502  0.80698645832E+02 -0.75860955712E+01 -0.48812449658E+03  0.52385049818E+03  0.17200000000E+03 0. -1.
<mgrwt>
<rscale>  2 0.19014158E+03</rscale>
<asrwt>0</asrwt>
<pdfrwt beam="1">  1       21 0.70299984E-02 0.19014158E+03</pdfrwt>
<pdfrwt beam="2">  1       21 0.34679673E+00 0.19014158E+03</pdfrwt>
<totfact> 0.27516177E+03</totfact>
</mgrwt>
</event>
<event>
 4    1  0.1115666E+000  0.1723035E+03  0.7546771E-02  0.1175467E+00
         21   -1    0    0  501  502  0.00000000000E+00  0.00000000000E+00  0.24223236190E+03  0.24223236190E+03  0.00000000000E+00 0.  1.
         21   -1    0    0  502  503 -0.00000000000E+00 -0.00000000000E+00 -0.13321756641E+03  0.13321756641E+03  0.00000000000E+00 0.  1.
          6    1    1    2  501    0  0.40936563711E+01  0.93668093543E+01  0.10759932724E+03  0.20314061721E+03  0.17200000000E+03 0.  1.
         -6    1    1    2    0  503 -0.40936563711E+01 -0.93668093543E+01  0.14154682504E+01  0.17230931110E+03  0.17200000000E+03 0.  1.
<mgrwt>
<rscale>  2 0.17230350E+03</rscale>
<asrwt>0</asrwt>
<pdfrwt beam="1">  1       21 0.60558090E-01 0.17230350E+03</pdfrwt>
<pdfrwt beam="2">  1       21 0.33304392E-01 0.17230350E+03</pdfrwt>
<totfact> 0.22321570E+04</totfact>
</mgrwt>
</event>
<event>
 4    1  0.1115666E+000  0.2096421E+03  0.7546771E-02  0.1141850E+00
         21   -1    0    0  501  502  0.00000000000E+00  0.00000000000E+00  0.17788231464E+03  0.17788231464E+03  0.00000000000E+00 0.  1.
         21   -1    0    0  502  503 -0.00000000000E+00 -0.00000000000E+00 -0.25339250604E+03  0.25339250604E+03  0.00000000000E+00 0. -1.
          6    1    1    2  501    0 -0.99730057499E+02 -0.66481002841E+02 -0.36993927882E+01  0.20967473289E+03  0.17200000000E+03 0.  1.
         -6    1    1    2    0  503  0.99730057499E+02  0.66481002841E+02 -0.71810798615E+02  0.22160008778E+03  0.17200000000E+03 0. -1.
<mgrwt>
<rscale>  2 0.20964210E+03</rscale>
<asrwt>0</asrwt>
<pdfrwt beam="1">  1       21 0.44470579E-01 0.20964210E+03</pdfrwt>
<pdfrwt beam="2">  1       21 0.63348126E-01 0.20964210E+03</pdfrwt>
<totfact> 0.11063669E+04</totfact>
</mgrwt>
</event>
<event>
 4    1  0.1115666E+000  0.2150925E+03  0.7546771E-02  0.1137596E+00
         21   -1    0    0  501  502  0.00000000000E+00  0.00000000000E+00  0.22291617860E+03  0.22291617860E+03  0.00000000000E+00 0.  1.
         21   -1    0    0  502  503 -0.00000000000E+00 -0.00000000000E+00 -0.20807492281E+03  0.20807492281E+03  0.00000000000E+00 0. -1.
          6    1    1    2  501    0 -0.10146058987E+03 -0.79915717042E+02  0.18312560740E+02  0.21587061636E+03  0.17200000000E+03 0. -1.
         -6    1    1    2    0  503  0.10146058987E+03  0.79915717042E+02 -0.34713049529E+01  0.21512048504E+03  0.17200000000E+03 0. -1.
<mgrwt>
<rscale>  2 0.21509248E+03</rscale>
<asrwt>0</asrwt>
<pdfrwt beam="1">  1       21 0.55729045E-01 0.21509248E+03</pdfrwt>
<pdfrwt beam="2">  1       21 0.52018731E-01 0.21509248E+03</pdfrwt>
<totfact> 0.10482147E+04</totfact>
</mgrwt>
</event>
<event>
 4    1  0.1115666E+000  0.3162143E+03  0.7546771E-02  0.1077405E+00
         21   -1    0    0  501  502  0.00000000000E+00  0.00000000000E+00  0.10584289326E+04  0.10584289326E+04  0.00000000000E+00 0.  1.
         21   -1    0    0  502  503 -0.00000000000E+00 -0.00000000000E+00 -0.11167608829E+03  0.11167608829E+03  0.00000000000E+00 0. -1.
          6    1    1    2  501    0 -0.62320748393E+02 -0.25792165362E+03  0.24374259448E+03  0.39925168434E+03  0.17200000000E+03 0. -1.
         -6    1    1    2    0  503  0.62320748393E+02  0.25792165362E+03  0.70301024980E+03  0.77085333651E+03  0.17200000000E+03 0.  1.
<mgrwt>
<rscale>  2 0.31621426E+03</rscale>
<asrwt>0</asrwt>
<pdfrwt beam="1">  1       21 0.26460720E+00 0.31621426E+03</pdfrwt>
<pdfrwt beam="2">  1       21 0.27919025E-01 0.31621426E+03</pdfrwt>
<totfact> 0.58983874E+02</totfact>
</mgrwt>
</event>
<event>
 4    1  0.1115666E+000  0.2050665E+03  0.7546771E-02  0.1145533E+00
         21   -1    0    0  503  502  0.00000000000E+00  0.00000000000E+00  0.17447618359E+04  0.17447618359E+04  0.00000000000E+00 0.  1.
         21   -1    0    0  501  503 -0.00000000000E+00 -0.00000000000E+00 -0.10900728595E+03  0.10900728595E+03  0.00000000000E+00 0. -1.
          6    1    1    2  501    0  0.88236439600E+02 -0.68429461976E+02 -0.14519535761E+00  0.20506652974E+03  0.17200000000E+03 0. -1.
         -6    1    1    2    0  502 -0.88236439600E+02  0.68429461976E+02  0.16358997453E+04  0.16487025921E+04  0.17200000000E+03 0.  1.
<mgrwt>
<rscale>  2 0.20506648E+03</rscale>
<asrwt>0</asrwt>
<pdfrwt beam="1">  1       21 0.43619037E+00 0.20506648E+03</pdfrwt>
<pdfrwt beam="2">  1       21 0.27251827E-01 0.20506648E+03</pdfrwt>
<totfact> 0.64327151E+01</totfact>
</mgrwt>
</event>
<event>
 4    1  0.1115666E+000  0.2686502E+03  0.7546771E-02  0.1102055E+00
         21   -1    0    0  503  502  0.00000000000E+00  0.00000000000E+00  0.14892658813E+03  0.14892658813E+03  0.00000000000E+00 0.  1.
         21   -1    0    0  501  503 -0.00000000000E+00 -0.00000000000E+00 -0.65237233249E+03  0.65237233249E+03  0.00000000000E+00 0.  1.
          6    1    1    2  501    0  0.11182858715E+03  0.17344536115E+03 -0.45488839451E+03  0.52829572937E+03  0.17200000000E+03 0.  1.
         -6    1    1    2    0  502 -0.11182858715E+03 -0.17344536115E+03 -0.48557349849E+02  0.27300319125E+03  0.17200000000E+03 0.  1.
<mgrwt>
<rscale>  2 0.26865019E+03</rscale>
<asrwt>0</asrwt>
<pdfrwt beam="1">  1       21 0.37231647E-01 0.26865019E+03</pdfrwt>
<pdfrwt beam="2">  1       21 0.16309308E+00 0.26865019E+03</pdfrwt>
<totfact> 0.15571281E+03</totfact>
</mgrwt>
</event>
<event>
 4    1  0.1115666E+000  0.1900148E+03  0.7546771E-02  0.1158448E+00
         21   -1    0    0  503  502  0.00000000000E+00  0.00000000000E+00  0.28040493849E+03  0.28040493849E+03  0.00000000000E+00 0.  1.
         21   -1    0    0  501  503 -0.00000000000E+00 -0.00000000000E+00 -0.13493702500E+03  0.13493702500E+03  0.00000000000E+00 0.  1.
          6    1    1    2  501    0 -0.77979332252E+02  0.20996287288E+02  0.28310269290E+02  0.19211218516E+03  0.17200000000E+03 0.  1.
         -6    1    1    2    0  502  0.77979332252E+02 -0.20996287288E+02  0.11715764421E+03  0.22322977833E+03  0.17200000000E+03 0.  1.
<mgrwt>
<rscale>  2 0.19001479E+03</rscale>
<asrwt>0</asrwt>
<pdfrwt beam="1">  1       21 0.70101234E-01 0.19001479E+03</pdfrwt>
<pdfrwt beam="2">  1       21 0.33734257E-01 0.19001479E+03</pdfrwt>
<totfact> 0.15661086E+04</totfact>
</mgrwt>
</event>
<event>
 4    1  0.1115666E+000  0.1736702E+03  0.7546771E-02  0.1174074E+00
         21   -1    0    0  501  502  0.00000000000E+00  0.00000000000E+00  0.54165203469E+03  0.54165203469E+03  0.00000000000E+00 0.  1.
         21   -1    0    0  502  503 -0.00000000000E+00 -0.00000000000E+00 -0.96525938452E+02  0.96525938452E+02  0.00000000000E+00 0.  1.
          6    1    1    2  501    0 -0.17080193637E+02  0.16900267383E+02  0.43012271744E+03  0.46386086719E+03  0.17200000000E+03 0.  1.
         -6    1    1    2    0  503  0.17080193637E+02 -0.16900267383E+02  0.15003378799E+02  0.17431710595E+03  0.17200000000E+03 0.  1.
<mgrwt>
<rscale>  2 0.17367024E+03</rscale>
<asrwt>0</asrwt>
<pdfrwt beam="1">  1       21 0.13541300E+00 0.17367024E+03</pdfrwt>
<pdfrwt beam="2">  1       21 0.24131486E-01 0.17367024E+03</pdfrwt>
<totfact> 0.64145572E+03</totfact>
</mgrwt>
</event>
<event>
 4    1  0.1115666E+000  0.1927194E+03  0.7546771E-02  0.1156031E+00
         21   -1    0    0  503  502  0.00000000000E+00  0.00000000000E+00  0.10232897636E+04  0.10232897636E+04  0.00000000000E+00 0.  1.
         21   -1    0    0  501  503 -0.00000000000E+00 -0.00000000000E+00 -0.36462444338E+02  0.36462444338E+02  0.00000000000E+00 0. -1.
          6    1    1    2  501    0  0.37789121733E+02  0.78286383596E+02  0.52927162446E+03  0.56326656925E+03  0.17200000000E+03 0. -1.
         -6    1    1    2    0  502 -0.37789121733E+02 -0.78286383596E+02  0.45755569481E+03  0.49648563870E+03  0.17200000000E+03 0. -1.
<mgrwt>
<rscale>  2 0.19271942E+03</rscale>
<asrwt>0</asrwt>
<pdfrwt beam="1">  1       21 0.25582235E+00 0.19271942E+03</pdfrwt>
<pdfrwt beam="2">  1       21 0.91156145E-02 0.19271942E+03</pdfrwt>
<totfact> 0.58706594E+03</totfact>
</mgrwt>
</event>
<event>
 4    1  0.1115666E+000  0.1865095E+03  0.7546771E-02  0.1161648E+00
         21   -1    0    0  503  502  0.00000000000E+00  0.00000000000E+00  0.31860302457E+03  0.31860302457E+03  0.00000000000E+00 0. -1.
         21   -1    0    0  501  503 -0.00000000000E+00 -0.00000000000E+00 -0.24079682453E+03  0.24079682453E+03  0.00000000000E+00 0. -1.
          6    1    1    2  501    0 -0.22579558013E+02  0.68497859982E+02 -0.16788187177E+03  0.25093847081E+03  0.17200000000E+03 0. -1.
         -6    1    1    2    0  502  0.22579558013E+02 -0.68497859982E+02  0.24568807181E+03  0.30846137828E+03  0.17200000000E+03 0. -1.
<mgrwt>
<rscale>  2 0.18650950E+03</rscale>
<asrwt>0</asrwt>
<pdfrwt beam="1">  1       21 0.79650756E-01 0.18650950E+03</pdfrwt>
<pdfrwt beam="2">  1       21 0.60199206E-01 0.18650950E+03</pdfrwt>
<totfact> 0.35920296E+03</totfact>
</mgrwt>
</event>
<event>
 4    1  0.1115666E+000  0.1960951E+03  0.7546771E-02  0.1153076E+00
         21   -1    0    0  501  502  0.00000000000E+00  0.00000000000E+00  0.52227949893E+03  0.52227949893E+03  0.00000000000E+00 0. -1.
         21   -1    0    0  502  503 -0.00000000000E+00 -0.00000000000E+00 -0.98246445882E+02  0.98246445882E+02  0.00000000000E+00 0. -1.
          6    1    1    2  501    0  0.35804887340E+02  0.87105147250E+02  0.36733402571E+03  0.41639834664E+03  0.17200000000E+03 0. -1.
         -6    1    1    2    0  503 -0.35804887340E+02 -0.87105147250E+02  0.56699027331E+02  0.20412759817E+03  0.17200000000E+03 0. -1.
<mgrwt>
<rscale>  2 0.19609512E+03</rscale>
<asrwt>0</asrwt>
<pdfrwt beam="1">  1       21 0.13056987E+00 0.19609512E+03</pdfrwt>
<pdfrwt beam="2">  1       21 0.24561613E-01 0.19609512E+03</pdfrwt>
<totfact> 0.66796188E+03</totfact>
</mgrwt>
</event>
<event>
 4    1  0.1115666E+000  0.2160930E+03  0.7546771E-02  0.1136830E+00
         21   -1    0    0  501  502  0.00000000000E+00  0.00000000000E+00  0.40905354703E+02  0.40905354703E+02  0.00000000000E+00 0.  1.
         21   -1    0    0  502  503 -0.00000000000E+00 -0.00000000000E+00 -0.12900652501E+04  0.12900652501E+04  0.00000000000E+00 0.  1.
          6    1    1    2  501    0 -0.13065086679E+03 -0.65211328290E+01 -0.39879534066E+03  0.45357898749E+03  0.17200000000E+03 0.  1.
         -6    1    1    2    0  503  0.13065086679E+03  0.65211328290E+01 -0.85036455477E+03  0.87739161734E+03  0.17200000000E+03 0.  1.
<mgrwt>
<rscale>  2 0.21609298E+03</rscale>
<asrwt>0</asrwt>
<pdfrwt beam="1">  1       21 0.10226339E-01 0.21609298E+03</pdfrwt>
<pdfrwt beam="2">  1       21 0.32251629E+00 0.21609298E+03</pdfrwt>
<totfact> 0.19167068E+03</totfact>
</mgrwt>
</event>
<event>
 4    1  0.1115666E+000  0.1772036E+03  0.7546771E-02  0.1170537E+00
         21   -1    0    0  501  502  0.00000000000E+00  0.00000000000E+00  0.23291770089E+03  0.23291770089E+03  0.00000000000E+00 0.  1.
         21   -1    0    0  502  503 -0.00000000000E+00 -0.00000000000E+00 -0.21365766573E+03  0.21365766573E+03  0.00000000000E+00 0.  1.
          6    1    1    2  501    0  0.33290362682E+01 -0.42497512698E+02  0.14526833058E+03  0.22913753280E+03  0.17200000000E+03 0.  1.
         -6    1    1    2    0  503 -0.33290362682E+01  0.42497512698E+02 -0.12600829541E+03  0.21743783383E+03  0.17200000000E+03 0.  1.
<mgrwt>
<rscale>  2 0.17720361E+03</rscale>
<asrwt>0</asrwt>
<pdfrwt beam="1">  1       21 0.58229425E-01 0.17720361E+03</pdfrwt>
<pdfrwt beam="2">  1       21 0.53414416E-01 0.17720361E+03</pdfrwt>
<totfact> 0.92677813E+03</totfact>
</mgrwt>
</event>
<event>
 4    1  0.1115666E+000  0.1804804E+03  0.7546771E-02  0.1167339E+00
         21   -1    0    0  503  502  0.00000000000E+00  0.00000000000E+00  0.15705878425E+03  0.15705878425E+03  0.00000000000E+00 0.  1.
         21   -1    0    0  501  503 -0.00000000000E+00 -0.00000000000E+00 -0.43246264380E+03  0.43246264380E+03  0.00000000000E+00 0.  1.
          6    1    1    2  501    0  0.33528394034E+02 -0.43186079432E+02 -0.35034534082E+03  0.39410030258E+03  0.17200000000E+03 0.  1.
         -6    1    1    2    0  502 -0.33528394034E+02  0.43186079432E+02  0.74941481273E+02  0.19542112547E+03  0.17200000000E+03 0.  1.
<mgrwt>
<rscale>  2 0.18048044E+03</rscale>
<asrwt>0</asrwt>
<pdfrwt beam="1">  1       21 0.39264697E-01 0.18048044E+03</pdfrwt>
<pdfrwt beam="2">  1       21 0.10811566E+00 0.18048044E+03</pdfrwt>
<totfact> 0.43015627E+03</totfact>
</mgrwt>
</event>
<event>
 4    1  0.1115666E+000  0.1765399E+03  0.7546771E-02  0.1171194E+00
         21   -1    0    0  501  502  0.00000000000E+00  0.00000000000E+00  0.11694291872E+04  0.11694291872E+04  0.00000000000E+00 0. -1.
         21   -1    0    0  502  503 -0.00000000000E+00 -0.00000000000E+00 -0.42277748261E+02  0.42277748261E+02  0.00000000000E+00 0. -1.
          6    1    1    2  501    0  0.15101592191E+02 -0.36800745358E+02  0.93191430956E+03  0.94848860473E+03  0.17200000000E+03 0. -1.
         -6    1    1    2    0  503 -0.15101592191E+02  0.36800745358E+02  0.19523712940E+03  0.26321833075E+03  0.17200000000E+03 0. -1.
<mgrwt>
<rscale>  2 0.17653995E+03</rscale>
<asrwt>0</asrwt>
<pdfrwt beam="1">  1       21 0.29235719E+00 0.17653995E+03</pdfrwt>
<pdfrwt beam="2">  1       21 0.10569441E-01 0.17653995E+03</pdfrwt>
<totfact> 0.28359677E+03</totfact>
</mgrwt>
</event>
<event>
 4    1  0.1115666E+000  0.1828833E+03  0.7546771E-02  0.1165041E+00
         21   -1    0    0  503  502  0.00000000000E+00  0.00000000000E+00  0.49400523282E+03  0.49400523282E+03  0.00000000000E+00 0. -1.
         21   -1    0    0  501  503 -0.00000000000E+00 -0.00000000000E+00 -0.73982081160E+02  0.73982081160E+02  0.00000000000E+00 0. -1.
          6    1    1    2  501    0  0.60487702288E+00 -0.62144444697E+02  0.12728461000E+03  0.22281757073E+03  0.17200000000E+03 0. -1.
         -6    1    1    2    0  502 -0.60487702288E+00  0.62144444697E+02  0.29273854165E+03  0.34516974325E+03  0.17200000000E+03 0. -1.
<mgrwt>
<rscale>  2 0.18288329E+03</rscale>
<asrwt>0</asrwt>
<pdfrwt beam="1">  1       21 0.12350130E+00 0.18288329E+03</pdfrwt>
<pdfrwt beam="2">  1       21 0.18495522E-01 0.18288329E+03</pdfrwt>
<totfact> 0.13215139E+04</totfact>
</mgrwt>
</event>
<event>
 4    1  0.1115666E+000  0.3100113E+03  0.7546771E-02  0.1080340E+00
         21   -1    0    0  503  502  0.00000000000E+00  0.00000000000E+00  0.19243300197E+03  0.19243300197E+03  0.00000000000E+00 0.  1.
         21   -1    0    0  501  503 -0.00000000000E+00 -0.00000000000E+00 -0.53950876923E+03  0.53950876923E+03  0.00000000000E+00 0. -1.
          6    1    1    2  501    0 -0.15462579843E+03 -0.20643133415E+03 -0.27328452992E+03  0.41326924341E+03  0.17200000000E+03 0. -1.
         -6    1    1    2    0  502  0.15462579843E+03  0.20643133415E+03 -0.73791237346E+02  0.31867252779E+03  0.17200000000E+03 0. -1.
<mgrwt>
<rscale>  2 0.31001134E+03</rscale>
<asrwt>0</asrwt>
<pdfrwt beam="1">  1       21 0.48108251E-01 0.31001134E+03</pdfrwt>
<pdfrwt beam="2">  1       21 0.13487719E+00 0.31001134E+03</pdfrwt>
<totfact> 0.14849444E+03</totfact>
</mgrwt>
</event>
<event>
 4    1  0.1115666E+000  0.1901182E+03  0.7546771E-02  0.1158355E+00
         21   -1    0    0  503  502  0.00000000000E+00  0.00000000000E+00  0.15630758132E+03  0.15630758132E+03  0.00000000000E+00 0. -1.
         21   -1    0    0  501  503 -0.00000000000E+00 -0.00000000000E+00 -0.42653320080E+03  0.42653320080E+03  0.00000000000E+00 0. -1.
          6    1    1    2  501    0  0.69583730512E+02 -0.41461158812E+02 -0.33230264757E+03  0.38284458051E+03  0.17200000000E+03 0. -1.
         -6    1    1    2    0  502 -0.69583730512E+02  0.41461158812E+02  0.62077028087E+02  0.19999620161E+03  0.17200000000E+03 0. -1.
<mgrwt>
<rscale>  2 0.19011818E+03</rscale>
<asrwt>0</asrwt>
<pdfrwt beam="1">  1       21 0.39076896E-01 0.19011818E+03</pdfrwt>
<pdfrwt beam="2">  1       21 0.10663330E+00 0.19011818E+03</pdfrwt>
<totfact> 0.44542984E+03</totfact>
</mgrwt>
</event>
<event>
 4    1  0.1115666E+000  0.1844885E+03  0.7546771E-02  0.1163528E+00
         21   -1    0    0  503  502  0.00000000000E+00  0.00000000000E+00  0.24314151900E+02  0.24314151900E+02  0.00000000000E+00 0.  1.
         21   -1    0    0  501  503 -0.00000000000E+00 -0.00000000000E+00 -0.14089988382E+04  0.14089988382E+04  0.00000000000E+00 0.  1.
          6    1    1    2  501    0 -0.49571096267E+02 -0.44662327057E+02 -0.75010984729E+03  0.77246410923E+03  0.17200000000E+03 0.  1.
         -6    1    1    2    0  502  0.49571096267E+02  0.44662327057E+02 -0.63457483897E+03  0.66084888083E+03  0.17200000000E+03 0.  1.
<mgrwt>
<rscale>  2 0.18448853E+03</rscale>
<asrwt>0</asrwt>
<pdfrwt beam="1">  1       21 0.60785389E-02 0.18448853E+03</pdfrwt>
<pdfrwt beam="2">  1       21 0.35224966E+00 0.18448853E+03</pdfrwt>
<totfact> 0.33071064E+03</totfact>
</mgrwt>
</event>
<event>
 4    1  0.1115666E+000  0.1833664E+03  0.7546771E-02  0.1164584E+00
         21   -1    0    0  501  502  0.00000000000E+00  0.00000000000E+00  0.50095440375E+03  0.50095440375E+03  0.00000000000E+00 0.  1.
         21   -1    0    0  502  503 -0.00000000000E+00 -0.00000000000E+00 -0.21042073252E+03  0.21042073252E+03  0.00000000000E+00 0.  1.
          6    1    1    2  501    0 -0.42786404502E+02  0.46995142163E+02  0.43879593868E+03  0.47556818186E+03  0.17200000000E+03 0.  1.
         -6    1    1    2    0  503  0.42786404502E+02 -0.46995142163E+02 -0.14826226746E+03  0.23580695441E+03  0.17200000000E+03 0.  1.
<mgrwt>
<rscale>  2 0.18336635E+03</rscale>
<asrwt>0</asrwt>
<pdfrwt beam="1">  1       21 0.12523860E+00 0.18336635E+03</pdfrwt>
<pdfrwt beam="2">  1       21 0.52605184E-01 0.18336635E+03</pdfrwt>
<totfact> 0.16413577E+03</totfact>
</mgrwt>
</event>
<event>
 4    1  0.1115666E+000  0.2211861E+03  0.7546771E-02  0.1133002E+00
         21   -1    0    0  503  502  0.00000000000E+00  0.00000000000E+00  0.47835781474E+03  0.47835781474E+03  0.00000000000E+00 0. -1.
         21   -1    0    0  501  503 -0.00000000000E+00 -0.00000000000E+00 -0.11197955254E+03  0.11197955254E+03  0.00000000000E+00 0.  1.
          6    1    1    2  501    0 -0.51776384666E+02 -0.12906777811E+03  0.96288240683E+02  0.24123579885E+03  0.17200000000E+03 0.  1.
         -6    1    1    2    0  502  0.51776384666E+02  0.12906777811E+03  0.27009002152E+03  0.34910156843E+03  0.17200000000E+03 0. -1.
<mgrwt>
<rscale>  2 0.22118609E+03</rscale>
<asrwt>0</asrwt>
<pdfrwt beam="1">  1       21 0.11958945E+00 0.22118609E+03</pdfrwt>
<pdfrwt beam="2">  1       21 0.27994889E-01 0.22118609E+03</pdfrwt>
<totfact> 0.63542049E+03</totfact>
</mgrwt>
</event>
<event>
 4    1  0.1115666E+000  0.1743633E+03  0.7546771E-02  0.1173372E+00
         21   -1    0    0  501  502  0.00000000000E+00  0.00000000000E+00  0.30326338817E+03  0.30326338817E+03  0.00000000000E+00 0. -1.
         21   -1    0    0  502  503 -0.00000000000E+00 -0.00000000000E+00 -0.10186175931E+03  0.10186175931E+03  0.00000000000E+00 0.  1.
          6    1    1    2  501    0 -0.27385290985E+02 -0.82837328122E+01  0.12617012370E+03  0.21522424238E+03  0.17200000000E+03 0. -1.
         -6    1    1    2    0  503  0.27385290985E+02  0.82837328122E+01  0.75231505154E+02  0.18990090510E+03  0.17200000000E+03 0. -1.
<mgrwt>
<rscale>  2 0.17436334E+03</rscale>
<asrwt>0</asrwt>
<pdfrwt beam="1">  1       21 0.75815845E-01 0.17436334E+03</pdfrwt>
<pdfrwt beam="2">  1       21 0.25465440E-01 0.17436334E+03</pdfrwt>
<totfact> 0.22939900E+04</totfact>
</mgrwt>
</event>
<event>
 4    1  0.1115666E+000  0.2295259E+03  0.7546771E-02  0.1126974E+00
         21   -1    0    0  501  502  0.00000000000E+00  0.00000000000E+00  0.65397518555E+03  0.65397518555E+03  0.00000000000E+00 0.  1.
         21   -1    0    0  502  503 -0.00000000000E+00 -0.00000000000E+00 -0.10684356584E+03  0.10684356584E+03  0.00000000000E+00 0.  1.
          6    1    1    2  501    0  0.45032417333E+02  0.14515588397E+03  0.46225437866E+03  0.51610198591E+03  0.17200000000E+03 0.  1.
         -6    1    1    2    0  503 -0.45032417333E+02 -0.14515588397E+03  0.84877241051E+02  0.24471676549E+03  0.17200000000E+03 0.  1.
<mgrwt>
<rscale>  2 0.22952592E+03</rscale>
<asrwt>0</asrwt>
<pdfrwt beam="1">  1       21 0.16349379E+00 0.22952592E+03</pdfrwt>
<pdfrwt beam="2">  1       21 0.26710893E-01 0.22952592E+03</pdfrwt>
<totfact> 0.30677953E+03</totfact>
</mgrwt>
</event>
<event>
 4    1  0.1115666E+000  0.1988991E+03  0.7546771E-02  0.1150671E+00
         21   -1    0    0  501  502  0.00000000000E+00  0.00000000000E+00  0.15250162447E+03  0.15250162447E+03  0.00000000000E+00 0. -1.
         21   -1    0    0  502  503 -0.00000000000E+00 -0.00000000000E+00 -0.27048093419E+03  0.27048093419E+03  0.00000000000E+00 0. -1.
          6    1    1    2  501    0  0.42042198056E+02  0.90605210580E+02 -0.10177196952E+03  0.22342422514E+03  0.17200000000E+03 0. -1.
         -6    1    1    2    0  503 -0.42042198056E+02 -0.90605210580E+02 -0.16207340200E+02  0.19955833352E+03  0.17200000000E+03 0. -1.
<mgrwt>
<rscale>  2 0.19889910E+03</rscale>
<asrwt>0</asrwt>
<pdfrwt beam="1">  1       21 0.38125406E-01 0.19889910E+03</pdfrwt>
<pdfrwt beam="2">  1       21 0.67620233E-01 0.19889910E+03</pdfrwt>
<totfact> 0.13210114E+04</totfact>
</mgrwt>
</event>
<event>
 4    1  0.1115666E+000  0.1964190E+03  0.7546771E-02  0.1152796E+00
         21   -1    0    0  503  502  0.00000000000E+00  0.00000000000E+00  0.41981041546E+03  0.41981041546E+03  0.00000000000E+00 0. -1.
         21   -1    0    0  501  503 -0.00000000000E+00 -0.00000000000E+00 -0.19497575412E+03  0.19497575412E+03  0.00000000000E+00 0. -1.
          6    1    1    2  501    0  0.71981448098E+02  0.61766586796E+02 -0.11108535037E+03  0.22565547895E+03  0.17200000000E+03 0. -1.
         -6    1    1    2    0  502 -0.71981448098E+02 -0.61766586796E+02  0.33592001171E+03  0.38913069062E+03  0.17200000000E+03 0. -1.
<mgrwt>
<rscale>  2 0.19641904E+03</rscale>
<asrwt>0</asrwt>
<pdfrwt beam="1">  1       21 0.10495260E+00 0.19641904E+03</pdfrwt>
<pdfrwt beam="2">  1       21 0.48743939E-01 0.19641904E+03</pdfrwt>
<totfact> 0.29289991E+03</totfact>
</mgrwt>
</event>
<event>
 4    1  0.1115666E+000  0.1963000E+03  0.7546771E-02  0.1152899E+00
         21   -1    0    0  503  502  0.00000000000E+00  0.00000000000E+00  0.15718441727E+03  0.15718441727E+03  0.00000000000E+00 0. -1.
         21   -1    0    0  501  503 -0.00000000000E+00 -0.00000000000E+00 -0.24582888889E+03  0.24582888889E+03  0.00000000000E+00 0.  1.
          6    1    1    2  501    0 -0.76734015607E+02 -0.55331729217E+02 -0.54914163059E+02  0.20383639202E+03  0.17200000000E+03 0. -1.
         -6    1    1    2    0  502  0.76734015607E+02  0.55331729217E+02 -0.33730308557E+02  0.19917691414E+03  0.17200000000E+03 0.  1.
<mgrwt>
<rscale>  2 0.19630005E+03</rscale>
<asrwt>0</asrwt>
<pdfrwt beam="1">  1       21 0.39296104E-01 0.19630005E+03</pdfrwt>
<pdfrwt beam="2">  1       21 0.61457222E-01 0.19630005E+03</pdfrwt>
<totfact> 0.15328126E+04</totfact>
</mgrwt>
</event>
<event>
 4    1  0.1115666E+000  0.2286802E+03  0.7546771E-02  0.1127572E+00
         21   -1    0    0  503  502  0.00000000000E+00  0.00000000000E+00  0.22059513180E+03  0.22059513180E+03  0.00000000000E+00 0.  1.
         21   -1    0    0  501  503 -0.00000000000E+00 -0.00000000000E+00 -0.28634569856E+03  0.28634569856E+03  0.00000000000E+00 0. -1.
          6    1    1    2  501    0  0.15057253544E+03  0.62095151093E+01 -0.13803154088E+03  0.26710925252E+03  0.17200000000E+03 0. -1.
         -6    1    1    2    0  502 -0.15057253544E+03 -0.62095151093E+01  0.72280974123E+02  0.23983157784E+03  0.17200000000E+03 0. -1.
<mgrwt>
<rscale>  2 0.22868023E+03</rscale>
<asrwt>0</asrwt>
<pdfrwt beam="1">  1       21 0.55148783E-01 0.22868023E+03</pdfrwt>
<pdfrwt beam="2">  1       21 0.71586424E-01 0.22868023E+03</pdfrwt>
<totfact> 0.53268526E+03</totfact>
</mgrwt>
</event>
<event>
 4    1  0.1115666E+000  0.1864695E+03  0.7546771E-02  0.1161685E+00
         21   -1    0    0  503  502  0.00000000000E+00  0.00000000000E+00  0.90069052751E+02  0.90069052751E+02  0.00000000000E+00 0. -1.
         21   -1    0    0  501  503 -0.00000000000E+00 -0.00000000000E+00 -0.69935336069E+03  0.69935336069E+03  0.00000000000E+00 0.  1.
          6    1    1    2  501    0 -0.37184650673E+02 -0.61677962991E+02 -0.56883184709E+03  0.59861551903E+03  0.17200000000E+03 0.  1.
         -6    1    1    2    0  502  0.37184650673E+02  0.61677962991E+02 -0.40452460848E+02  0.19080689441E+03  0.17200000000E+03 0. -1.
<mgrwt>
<rscale>  2 0.18646949E+03</rscale>
<asrwt>0</asrwt>
<pdfrwt beam="1">  1       21 0.22517264E-01 0.18646949E+03</pdfrwt>
<pdfrwt beam="2">  1       21 0.17483834E+00 0.18646949E+03</pdfrwt>
<totfact> 0.36685916E+03</totfact>
</mgrwt>
</event>
<event>
 4    1  0.1115666E+000  0.1996927E+03  0.7546771E-02  0.1149998E+00
         21   -1    0    0  501  502  0.00000000000E+00  0.00000000000E+00  0.37569465726E+03  0.37569465726E+03  0.00000000000E+00 0. -1.
         21   -1    0    0  502  503 -0.00000000000E+00 -0.00000000000E+00 -0.14530850550E+03  0.14530850550E+03  0.00000000000E+00 0. -1.
          6    1    1    2  501    0 -0.87381100814E+02 -0.51553231117E+02  0.25043743423E+03  0.32030626107E+03  0.17200000000E+03 0. -1.
         -6    1    1    2    0  503  0.87381100814E+02  0.51553231117E+02 -0.20051282465E+02  0.20069690169E+03  0.17200000000E+03 0. -1.
<mgrwt>
<rscale>  2 0.19969275E+03</rscale>
<asrwt>0</asrwt>
<pdfrwt beam="1">  1       21 0.93923662E-01 0.19969275E+03</pdfrwt>
<pdfrwt beam="2">  1       21 0.36327127E-01 0.19969275E+03</pdfrwt>
<totfact> 0.69157904E+03</totfact>
</mgrwt>
</event>
<event>
 4    1  0.1115666E+000  0.2060837E+03  0.7546771E-02  0.1144705E+00
         21   -1    0    0  501  502  0.00000000000E+00  0.00000000000E+00  0.57628810660E+03  0.57628810660E+03  0.00000000000E+00 0.  1.
         21   -1    0    0  502  503 -0.00000000000E+00 -0.00000000000E+00 -0.82095188173E+02  0.82095188173E+02  0.00000000000E+00 0.  1.
          6    1    1    2  501    0  0.10662042505E+03  0.38968740129E+02  0.14180505094E+03  0.25015825034E+03  0.17200000000E+03 0.  1.
         -6    1    1    2    0  503 -0.10662042505E+03 -0.38968740129E+02  0.35238786749E+03  0.40822504443E+03  0.17200000000E+03 0.  1.
<mgrwt>
<rscale>  2 0.20608367E+03</rscale>
<asrwt>0</asrwt>
<pdfrwt beam="1">  1       21 0.14407201E+00 0.20608367E+03</pdfrwt>
<pdfrwt beam="2">  1       21 0.20523799E-01 0.20608367E+03</pdfrwt>
<totfact> 0.72294846E+03</totfact>
</mgrwt>
</event>
<event>
 4    1  0.1115666E+000  0.1862685E+03  0.7546771E-02  0.1161871E+00
         21   -1    0    0  503  502  0.00000000000E+00  0.00000000000E+00  0.21242073977E+03  0.21242073977E+03  0.00000000000E+00 0.  1.
         21   -1    0    0  501  503 -0.00000000000E+00 -0.00000000000E+00 -0.20334699771E+03  0.20334699771E+03  0.00000000000E+00 0.  1.
          6    1    1    2  501    0 -0.49605312984E+01  0.71325733853E+02 -0.87675939863E+02  0.20587141038E+03  0.17200000000E+03 0.  1.
         -6    1    1    2    0  502  0.49605312984E+01 -0.71325733853E+02  0.96749681918E+02  0.20989632710E+03  0.17200000000E+03 0.  1.
<mgrwt>
<rscale>  2 0.18626854E+03</rscale>
<asrwt>0</asrwt>
<pdfrwt beam="1">  1       21 0.53105185E-01 0.18626854E+03</pdfrwt>
<pdfrwt beam="2">  1       21 0.50836749E-01 0.18626854E+03</pdfrwt>
<totfact> 0.12413996E+04</totfact>
</mgrwt>
</event>
<event>
 4    1  0.1115666E+000  0.2042408E+03  0.7546771E-02  0.1146210E+00
         21   -1    0    0  503  502  0.00000000000E+00  0.00000000000E+00  0.83066225038E+02  0.83066225038E+02  0.00000000000E+00 0. -1.
         21   -1    0    0  501  503 -0.00000000000E+00 -0.00000000000E+00 -0.60513088386E+03  0.60513088386E+03  0.00000000000E+00 0. -1.
          6    1    1    2  501    0 -0.87891154419E+02  0.66373540126E+02 -0.40296114005E+03  0.45176540620E+03  0.17200000000E+03 0. -1.
         -6    1    1    2    0  502  0.87891154419E+02 -0.66373540126E+02 -0.11910351877E+03  0.23643170269E+03  0.17200000000E+03 0. -1.
<mgrwt>
<rscale>  2 0.20424079E+03</rscale>
<asrwt>0</asrwt>
<pdfrwt beam="1">  1       21 0.20766556E-01 0.20424079E+03</pdfrwt>
<pdfrwt beam="2">  1       21 0.15128272E+00 0.20424079E+03</pdfrwt>
<totfact> 0.62291292E+03</totfact>
</mgrwt>
</event>
<event>
 4    1  0.1115666E+000  0.1977816E+03  0.7546771E-02  0.1151624E+00
         21   -1    0    0  501  502  0.00000000000E+00  0.00000000000E+00  0.58990412455E+03  0.58990412455E+03  0.00000000000E+00 0. -1.
         21   -1    0    0  502  503 -0.00000000000E+00 -0.00000000000E+00 -0.66671805337E+02  0.66671805337E+02  0.00000000000E+00 0.  1.
          6    1    1    2  501    0 -0.91942732134E+02  0.32864600680E+02  0.28574274940E+03  0.34751470012E+03  0.17200000000E+03 0. -1.
         -6    1    1    2    0  503  0.91942732134E+02 -0.32864600680E+02  0.23748956982E+03  0.30906122976E+03  0.17200000000E+03 0.  1.
<mgrwt>
<rscale>  2 0.19778157E+03</rscale>
<asrwt>0</asrwt>
<pdfrwt beam="1">  1       21 0.14747602E+00 0.19778157E+03</pdfrwt>
<pdfrwt beam="2">  1       21 0.16667953E-01 0.19778157E+03</pdfrwt>
<totfact> 0.10070787E+04</totfact>
</mgrwt>
</event>
<event>
 4    1  0.1115666E+000  0.2172617E+03  0.7546771E-02  0.1135941E+00
         21   -1    0    0  503  502  0.00000000000E+00  0.00000000000E+00  0.10424293189E+03  0.10424293189E+03  0.00000000000E+00 0.  1.
         21   -1    0    0  501  503 -0.00000000000E+00 -0.00000000000E+00 -0.79372823296E+03  0.79372823296E+03  0.00000000000E+00 0.  1.
          6    1    1    2  501    0  0.99996515409E+02  0.87288725499E+02 -0.63899453789E+03  0.67491973163E+03  0.17200000000E+03 0.  1.
         -6    1    1    2    0  502 -0.99996515409E+02 -0.87288725499E+02 -0.50490763177E+02  0.22305143322E+03  0.17200000000E+03 0.  1.
<mgrwt>
<rscale>  2 0.21726165E+03</rscale>
<asrwt>0</asrwt>
<pdfrwt beam="1">  1       21 0.26060733E-01 0.21726165E+03</pdfrwt>
<pdfrwt beam="2">  1       21 0.19843206E+00 0.21726165E+03</pdfrwt>
<totfact> 0.18755913E+03</totfact>
</mgrwt>
</event>
<event>
 4    1  0.1115666E+000  0.1720245E+03  0.7546771E-02  0.1175753E+00
         21   -1    0    0  503  502  0.00000000000E+00  0.00000000000E+00  0.18866921863E+03  0.18866921863E+03  0.00000000000E+00 0. -1.
         21   -1    0    0  501  503 -0.00000000000E+00 -0.00000000000E+00 -0.41828070605E+03  0.41828070605E+03  0.00000000000E+00 0. -1.
          6    1    1    2  501    0 -0.15971785011E+01  0.24241502073E+01 -0.35472700857E+03  0.39423809822E+03  0.17200000000E+03 0. -1.
         -6    1    1    2    0  502  0.15971785011E+01 -0.24241502073E+01  0.12511552115E+03  0.21271182646E+03  0.17200000000E+03 0. -1.
<mgrwt>
<rscale>  2 0.17202450E+03</rscale>
<asrwt>0</asrwt>
<pdfrwt beam="1">  1       21 0.47167305E-01 0.17202450E+03</pdfrwt>
<pdfrwt beam="2">  1       21 0.10457018E+00 0.17202450E+03</pdfrwt>
<totfact> 0.32319968E+03</totfact>
</mgrwt>
</event>
<event>
 4    1  0.1115666E+000  0.1924999E+03  0.7546771E-02  0.1156226E+00
         21   -1    0    0  501  502  0.00000000000E+00  0.00000000000E+00  0.20703413597E+03  0.20703413597E+03  0.00000000000E+00 0. -1.
         21   -1    0    0  502  503 -0.00000000000E+00 -0.00000000000E+00 -0.22610134823E+03  0.22610134823E+03  0.00000000000E+00 0. -1.
          6    1    1    2  501    0  0.71939983868E+02  0.47925610464E+02  0.89326960087E+02  0.21221576571E+03  0.17200000000E+03 0. -1.
         -6    1    1    2    0  503 -0.71939983868E+02 -0.47925610464E+02 -0.10839417234E+03  0.22091971848E+03  0.17200000000E+03 0. -1.
<mgrwt>
<rscale>  2 0.19249994E+03</rscale>
<asrwt>0</asrwt>
<pdfrwt beam="1">  1       21 0.51758534E-01 0.19249994E+03</pdfrwt>
<pdfrwt beam="2">  1       21 0.56525337E-01 0.19249994E+03</pdfrwt>
<totfact> 0.10435528E+04</totfact>
</mgrwt>
</event>
<event>
 4    1  0.1115666E+000  0.3548411E+03  0.7546771E-02  0.1060645E+00
         21   -1    0    0  503  502  0.00000000000E+00  0.00000000000E+00  0.16794272931E+04  0.16794272931E+04  0.00000000000E+00 0. -1.
         21   -1    0    0  501  503 -0.00000000000E+00 -0.00000000000E+00 -0.77712254269E+02  0.77712254269E+02  0.00000000000E+00 0.  1.
          6    1    1    2  501    0  0.24809692542E+03 -0.18648362829E+03  0.63591870525E+03  0.72822031537E+03  0.17200000000E+03 0.  1.
         -6    1    1    2    0  502 -0.24809692542E+03  0.18648362829E+03  0.96579633356E+03  0.10289192320E+04  0.17200000000E+03 0. -1.
<mgrwt>
<rscale>  2 0.35484113E+03</rscale>
<asrwt>0</asrwt>
<pdfrwt beam="1">  1       21 0.41985670E+00 0.35484113E+03</pdfrwt>
<pdfrwt beam="2">  1       21 0.19428069E-01 0.35484113E+03</pdfrwt>
<totfact> 0.12943126E+02</totfact>
</mgrwt>
</event>
<event>
 4    1  0.1115666E+000  0.1870084E+03  0.7546771E-02  0.1161188E+00
         21   -1    0    0  501  502  0.00000000000E+00  0.00000000000E+00  0.46397158659E+03  0.46397158659E+03  0.00000000000E+00 0. -1.
         21   -1    0    0  502  503 -0.00000000000E+00 -0.00000000000E+00 -0.90132358694E+02  0.90132358694E+02  0.00000000000E+00 0.  1.
          6    1    1    2  501    0  0.43532467143E+02 -0.59102183809E+02  0.29902233159E+03  0.35268470142E+03  0.17200000000E+03 0. -1.
         -6    1    1    2    0  503 -0.43532467143E+02  0.59102183809E+02  0.74816896308E+02  0.20141924387E+03  0.17200000000E+03 0.  1.
<mgrwt>
<rscale>  2 0.18700841E+03</rscale>
<asrwt>0</asrwt>
<pdfrwt beam="1">  1       21 0.11599289E+00 0.18700841E+03</pdfrwt>
<pdfrwt beam="2">  1       21 0.22533091E-01 0.18700841E+03</pdfrwt>
<totfact> 0.10634764E+04</totfact>
</mgrwt>
</event>
<event>
 4    1  0.1115666E+000  0.2483722E+03  0.7546771E-02  0.1114338E+00
         21   -1    0    0  503  502  0.00000000000E+00  0.00000000000E+00  0.10797612559E+04  0.10797612559E+04  0.00000000000E+00 0.  1.
         21   -1    0    0  501  503 -0.00000000000E+00 -0.00000000000E+00 -0.66962253747E+02  0.66962253747E+02  0.00000000000E+00 0.  1.
          6    1    1    2  501    0 -0.12089910885E+03 -0.13224280945E+03  0.72608400670E+03  0.76738956206E+03  0.17200000000E+03 0.  1.
         -6    1    1    2    0  502  0.12089910885E+03  0.13224280945E+03  0.28671499543E+03  0.37933394756E+03  0.17200000000E+03 0.  1.
<mgrwt>
<rscale>  2 0.24837221E+03</rscale>
<asrwt>0</asrwt>
<pdfrwt beam="1">  1       21 0.26994026E+00 0.24837221E+03</pdfrwt>
<pdfrwt beam="2">  1       21 0.16740567E-01 0.24837221E+03</pdfrwt>
<totfact> 0.15366149E+03</totfact>
</mgrwt>
</event>
<event>
 4    1  0.1115666E+000  0.1753397E+03  0.7546771E-02  0.1172391E+00
         21   -1    0    0  501  502  0.00000000000E+00  0.00000000000E+00  0.11235947454E+04  0.11235947454E+04  0.00000000000E+00 0. -1.
         21   -1    0    0  502  503 -0.00000000000E+00 -0.00000000000E+00 -0.13619457727E+03  0.13619457727E+03  0.00000000000E+00 0. -1.
          6    1    1    2  501    0  0.11124461315E+01  0.34040951645E+02  0.10567761631E+04  0.10712235448E+04  0.17200000000E+03 0. -1.
         -6    1    1    2    0  503 -0.11124461315E+01 -0.34040951645E+02 -0.69375994964E+02  0.18856577792E+03  0.17200000000E+03 0. -1.
<mgrwt>
<rscale>  2 0.17533974E+03</rscale>
<asrwt>0</asrwt>
<pdfrwt beam="1">  1       21 0.28089866E+00 0.17533974E+03</pdfrwt>
<pdfrwt beam="2">  1       21 0.34048648E-01 0.17533974E+03</pdfrwt>
<totfact> 0.37511721E+02</totfact>
</mgrwt>
</event>
<event>
 4    1  0.1115666E+000  0.2181632E+03  0.7546771E-02  0.1135260E+00
         21   -1    0    0  501  502  0.00000000000E+00  0.00000000000E+00  0.48808609043E+03  0.48808609043E+03  0.00000000000E+00 0. -1.
         21   -1    0    0  502  503 -0.00000000000E+00 -0.00000000000E+00 -0.47379262185E+03  0.47379262185E+03  0.00000000000E+00 0. -1.
          6    1    1    2  501    0 -0.10425831078E+03  0.84506744355E+02  0.43574557572E+03  0.48730831305E+03  0.17200000000E+03 0. -1.
         -6    1    1    2    0  503  0.10425831078E+03 -0.84506744355E+02 -0.42145210714E+03  0.47457039922E+03  0.17200000000E+03 0. -1.
<mgrwt>
<rscale>  2 0.21816321E+03</rscale>
<asrwt>0</asrwt>
<pdfrwt beam="1">  1       21 0.12202152E+00 0.21816321E+03</pdfrwt>
<pdfrwt beam="2">  1       21 0.11844816E+00 0.21816321E+03</pdfrwt>
<totfact> 0.26824239E+02</totfact>
</mgrwt>
</event>
<event>
 4    1  0.1115666E+000  0.2141498E+03  0.7546771E-02  0.1138321E+00
         21   -1    0    0  501  502  0.00000000000E+00  0.00000000000E+00  0.76351559470E+03  0.76351559470E+03  0.00000000000E+00 0. -1.
         21   -1    0    0  502  503 -0.00000000000E+00 -0.00000000000E+00 -0.85972523425E+02  0.85972523425E+02  0.00000000000E+00 0. -1.
          6    1    1    2  501    0 -0.12655557612E+03 -0.16119051103E+02  0.57193747430E+03  0.61071483703E+03  0.17200000000E+03 0. -1.
         -6    1    1    2    0  503  0.12655557612E+03  0.16119051103E+02  0.10560559698E+03  0.23877328110E+03  0.17200000000E+03 0. -1.
<mgrwt>
<rscale>  2 0.21414980E+03</rscale>
<asrwt>0</asrwt>
<pdfrwt beam="1">  1       21 0.19087888E+00 0.21414980E+03</pdfrwt>
<pdfrwt beam="2">  1       21 0.21493133E-01 0.21414980E+03</pdfrwt>
<totfact> 0.30421208E+03</totfact>
</mgrwt>
</event>
<event>
 4    1  0.1115666E+000  0.2178846E+03  0.7546771E-02  0.1135470E+00
         21   -1    0    0  501  502  0.00000000000E+00  0.00000000000E+00  0.40872660290E+03  0.40872660290E+03  0.00000000000E+00 0. -1.
         21   -1    0    0  502  503 -0.00000000000E+00 -0.00000000000E+00 -0.30517350882E+03  0.30517350882E+03  0.00000000000E+00 0. -1.
          6    1    1    2  501    0  0.45983004691E+02  0.12559959554E+03  0.33270237363E+03  0.39769908793E+03  0.17200000000E+03 0. -1.
         -6    1    1    2    0  503 -0.45983004691E+02 -0.12559959554E+03 -0.22914927955E+03  0.31620102378E+03  0.17200000000E+03 0. -1.
<mgrwt>
<rscale>  2 0.21788459E+03</rscale>
<asrwt>0</asrwt>
<pdfrwt beam="1">  1       21 0.10218165E+00 0.21788459E+03</pdfrwt>
<pdfrwt beam="2">  1       21 0.76293377E-01 0.21788459E+03</pdfrwt>
<totfact> 0.11650965E+03</totfact>
</mgrwt>
</event>
<event>
 4    1  0.1115666E+000  0.2392311E+03  0.7546771E-02  0.1120306E+00
         21   -1    0    0  503  502  0.00000000000E+00  0.00000000000E+00  0.26313898944E+03  0.26313898944E+03  0.00000000000E+00 0. -1.
         21   -1    0    0  501  503 -0.00000000000E+00 -0.00000000000E+00 -0.22173462384E+03  0.22173462384E+03  0.00000000000E+00 0. -1.
          6    1    1    2  501    0 -0.15560534165E+03 -0.58604637819E+02 -0.12819342671E+02  0.23957433391E+03  0.17200000000E+03 0. -1.
         -6    1    1    2    0  502  0.15560534165E+03  0.58604637819E+02  0.54223708270E+02  0.24529927937E+03  0.17200000000E+03 0. -1.
<mgrwt>
<rscale>  2 0.23923111E+03</rscale>
<asrwt>0</asrwt>
<pdfrwt beam="1">  1       21 0.65784747E-01 0.23923111E+03</pdfrwt>
<pdfrwt beam="2">  1       21 0.55433656E-01 0.23923111E+03</pdfrwt>
<totfact> 0.63068155E+03</totfact>
</mgrwt>
</event>
<event>
 4    1  0.1115666E+000  0.1885228E+03  0.7546771E-02  0.1159800E+00
         21   -1    0    0  501  502  0.00000000000E+00  0.00000000000E+00  0.17893242896E+03  0.17893242896E+03  0.00000000000E+00 0. -1.
         21   -1    0    0  502  503 -0.00000000000E+00 -0.00000000000E+00 -0.23909766150E+03  0.23909766150E+03  0.00000000000E+00 0. -1.
          6    1    1    2  501    0 -0.76976555314E+02  0.56093080656E+01 -0.11607475512E+03  0.22139151561E+03  0.17200000000E+03 0. -1.
         -6    1    1    2    0  503  0.76976555314E+02 -0.56093080656E+01  0.55909522589E+02  0.19663857486E+03  0.17200000000E+03 0. -1.
<mgrwt>
<rscale>  2 0.18852282E+03</rscale>
<asrwt>0</asrwt>
<pdfrwt beam="1">  1       21 0.44733108E-01 0.18852282E+03</pdfrwt>
<pdfrwt beam="2">  1       21 0.59774415E-01 0.18852282E+03</pdfrwt>
<totfact> 0.12564645E+04</totfact>
</mgrwt>
</event>
<event>
 4    1  0.1115666E+000  0.2056174E+03  0.7546771E-02  0.1145084E+00
         21   -1    0    0  501  502  0.00000000000E+00  0.00000000000E+00  0.13317513679E+04  0.13317513679E+04  0.00000000000E+00 0. -1.
         21   -1    0    0  502  503 -0.00000000000E+00 -0.00000000000E+00 -0.33516872635E+02  0.33516872635E+02  0.00000000000E+00 0.  1.
          6    1    1    2  501    0  0.87707519878E+02  0.70724185086E+02  0.49223213976E+03  0.53345196486E+03  0.17200000000E+03 0.  1.
         -6    1    1    2    0  503 -0.87707519878E+02 -0.70724185086E+02  0.80600235551E+03  0.83181627568E+03  0.17200000000E+03 0. -1.
<mgrwt>
<rscale>  2 0.20561741E+03</rscale>
<asrwt>0</asrwt>
<pdfrwt beam="1">  1       21 0.33293767E+00 0.20561741E+03</pdfrwt>
<pdfrwt beam="2">  1       21 0.83792226E-02 0.20561741E+03</pdfrwt>
<totfact> 0.23969365E+03</totfact>
</mgrwt>
</event>
<event>
 4    1  0.1115666E+000  0.2550809E+03  0.7546771E-02  0.1110135E+00
         21   -1    0    0  501  502  0.00000000000E+00  0.00000000000E+00  0.75314010064E+03  0.75314010064E+03  0.00000000000E+00 0.  1.
         21   -1    0    0  502  503 -0.00000000000E+00 -0.00000000000E+00 -0.10567317404E+03  0.10567317404E+03  0.00000000000E+00 0.  1.
          6    1    1    2  501    0  0.14056176333E+03 -0.12539807253E+03  0.50714982126E+03  0.56768585248E+03  0.17200000000E+03 0.  1.
         -6    1    1    2    0  503 -0.14056176333E+03  0.12539807253E+03  0.14031710535E+03  0.29112742220E+03  0.17200000000E+03 0.  1.
<mgrwt>
<rscale>  2 0.25508094E+03</rscale>
<asrwt>0</asrwt>
<pdfrwt beam="1">  1       21 0.18828501E+00 0.25508094E+03</pdfrwt>
<pdfrwt beam="2">  1       21 0.26418296E-01 0.25508094E+03</pdfrwt>
<totfact> 0.20633812E+03</totfact>
</mgrwt>
</event>
<event>
 4    1  0.1115666E+000  0.1795366E+03  0.7546771E-02  0.1168252E+00
         21   -1    0    0  501  502  0.00000000000E+00  0.00000000000E+00  0.89490414589E+03  0.89490414589E+03  0.00000000000E+00 0.  1.
         21   -1    0    0  502  503 -0.00000000000E+00 -0.00000000000E+00 -0.58468333591E+02  0.58468333591E+02  0.00000000000E+00 0.  1.
          6    1    1    2  501    0 -0.25569416362E+01 -0.51408571806E+02  0.71359434932E+03  0.73583304804E+03  0.17200000000E+03 0.  1.
         -6    1    1    2    0  503  0.25569416362E+01  0.51408571806E+02  0.12284146298E+03  0.21753943144E+03  0.17200000000E+03 0.  1.
<mgrwt>
<rscale>  2 0.17953657E+03</rscale>
<asrwt>0</asrwt>
<pdfrwt beam="1">  1       21 0.22372599E+00 0.17953657E+03</pdfrwt>
<pdfrwt beam="2">  1       21 0.14617086E-01 0.17953657E+03</pdfrwt>
<totfact> 0.39785211E+03</totfact>
</mgrwt>
</event>
<event>
 4    1  0.1115666E+000  0.1851197E+03  0.7546771E-02  0.1162938E+00
         21   -1    0    0  501  502  0.00000000000E+00  0.00000000000E+00  0.11860261255E+03  0.11860261255E+03  0.00000000000E+00 0.  1.
         21   -1    0    0  502  503 -0.00000000000E+00 -0.00000000000E+00 -0.29648826486E+03  0.29648826486E+03  0.00000000000E+00 0. -1.
          6    1    1    2  501    0 -0.18051408306E+02  0.66026155289E+02 -0.55832148170E+02  0.19335598075E+03  0.17200000000E+03 0. -1.
         -6    1    1    2    0  503  0.18051408306E+02 -0.66026155289E+02 -0.12205350414E+03  0.22173489666E+03  0.17200000000E+03 0. -1.
<mgrwt>
<rscale>  2 0.18511971E+03</rscale>
<asrwt>0</asrwt>
<pdfrwt beam="1">  1       21 0.29650653E-01 0.18511971E+03</pdfrwt>
<pdfrwt beam="2">  1       21 0.74122066E-01 0.18511971E+03</pdfrwt>
<totfact> 0.17877090E+04</totfact>
</mgrwt>
</event>
<event>
 4    1  0.1115666E+000  0.1830074E+03  0.7546771E-02  0.1164924E+00
         21   -1    0    0  501  502  0.00000000000E+00  0.00000000000E+00  0.91034686725E+02  0.91034686725E+02  0.00000000000E+00 0. -1.
         21   -1    0    0  502  503 -0.00000000000E+00 -0.00000000000E+00 -0.43373726810E+03  0.43373726810E+03  0.00000000000E+00 0.  1.
          6    1    1    2  501    0 -0.14732333823E+02  0.60750780182E+02 -0.69125192134E+02  0.19562717383E+03  0.17200000000E+03 0. -1.
         -6    1    1    2    0  503  0.14732333823E+02 -0.60750780182E+02 -0.27357738924E+03  0.32914478099E+03  0.17200000000E+03 0.  1.
<mgrwt>
<rscale>  2 0.18300737E+03</rscale>
<asrwt>0</asrwt>
<pdfrwt beam="1">  1       21 0.22758672E-01 0.18300737E+03</pdfrwt>
<pdfrwt beam="2">  1       21 0.10843432E+00 0.18300737E+03</pdfrwt>
<totfact> 0.12323640E+04</totfact>
</mgrwt>
</event>
<event>
 4    1  0.1115666E+000  0.1763779E+03  0.7546771E-02  0.1171355E+00
         21   -1    0    0  501  502  0.00000000000E+00  0.00000000000E+00  0.11929632277E+03  0.11929632277E+03  0.00000000000E+00 0. -1.
         21   -1    0    0  502  503 -0.00000000000E+00 -0.00000000000E+00 -0.60539407066E+03  0.60539407066E+03  0.00000000000E+00 0. -1.
          6    1    1    2  501    0 -0.38462551342E+02 -0.67665535988E+01  0.30336263179E+02  0.17896771487E+03  0.17200000000E+03 0. -1.
         -6    1    1    2    0  503  0.38462551342E+02  0.67665535988E+01 -0.51643401107E+03  0.54572267856E+03  0.17200000000E+03 0. -1.
<mgrwt>
<rscale>  2 0.17637787E+03</rscale>
<asrwt>0</asrwt>
<pdfrwt beam="1">  1       21 0.29824081E-01 0.17637787E+03</pdfrwt>
<pdfrwt beam="2">  1       21 0.15134852E+00 0.17637787E+03</pdfrwt>
<totfact> 0.31947445E+03</totfact>
</mgrwt>
</event>
<event>
 4    1  0.1115666E+000  0.2610922E+03  0.7546771E-02  0.1106489E+00
         21   -1    0    0  501  502  0.00000000000E+00  0.00000000000E+00  0.16083320475E+03  0.16083320475E+03  0.00000000000E+00 0. -1.
         21   -1    0    0  502  503 -0.00000000000E+00 -0.00000000000E+00 -0.55772256058E+03  0.55772256058E+03  0.00000000000E+00 0.  1.
          6    1    1    2  501    0 -0.10749582995E+03 -0.16440737535E+03 -0.37446682568E+03  0.45650251046E+03  0.17200000000E+03 0.  1.
         -6    1    1    2    0  503  0.10749582995E+03  0.16440737535E+03 -0.22422530149E+02  0.26205325486E+03  0.17200000000E+03 0. -1.
<mgrwt>
<rscale>  2 0.26109220E+03</rscale>
<asrwt>0</asrwt>
<pdfrwt beam="1">  1       21 0.40208302E-01 0.26109220E+03</pdfrwt>
<pdfrwt beam="2">  1       21 0.13943064E+00 0.26109220E+03</pdfrwt>
<totfact> 0.20375150E+03</totfact>
</mgrwt>
</event>
<event>
 4    1  0.1115666E+000  0.1868007E+03  0.7546771E-02  0.1161379E+00
         21   -1    0    0  503  502  0.00000000000E+00  0.00000000000E+00  0.20060194039E+03  0.20060194039E+03  0.00000000000E+00 0.  1.
         21   -1    0    0  501  503 -0.00000000000E+00 -0.00000000000E+00 -0.17643332870E+03  0.17643332870E+03  0.00000000000E+00 0.  1.
          6    1    1    2  501    0  0.50628112916E+02 -0.52414740649E+02  0.34454228654E+02  0.18995158522E+03  0.17200000000E+03 0.  1.
         -6    1    1    2    0  502 -0.50628112916E+02  0.52414740649E+02 -0.10285616969E+02  0.18708368387E+03  0.17200000000E+03 0.  1.
<mgrwt>
<rscale>  2 0.18680072E+03</rscale>
<asrwt>0</asrwt>
<pdfrwt beam="1">  1       21 0.50150485E-01 0.18680072E+03</pdfrwt>
<pdfrwt beam="2">  1       21 0.44108332E-01 0.18680072E+03</pdfrwt>
<totfact> 0.18761012E+04</totfact>
</mgrwt>
</event>
<event>
 4    1  0.1115666E+000  0.2047035E+03  0.7546771E-02  0.1145830E+00
         21   -1    0    0  501  502  0.00000000000E+00  0.00000000000E+00  0.57800988085E+02  0.57800988085E+02  0.00000000000E+00 0. -1.
         21   -1    0    0  502  503 -0.00000000000E+00 -0.00000000000E+00 -0.73162836680E+03  0.73162836680E+03  0.00000000000E+00 0. -1.
          6    1    1    2  501    0 -0.64376399158E+02 -0.90416764734E+02 -0.29923576130E+03  0.36255420692E+03  0.17200000000E+03 0. -1.
         -6    1    1    2    0  503  0.64376399158E+02  0.90416764734E+02 -0.37459161741E+03  0.42687514797E+03  0.17200000000E+03 0. -1.
<mgrwt>
<rscale>  2 0.20470347E+03</rscale>
<asrwt>0</asrwt>
<pdfrwt beam="1">  1       21 0.14450247E-01 0.20470347E+03</pdfrwt>
<pdfrwt beam="2">  1       21 0.18290709E+00 0.20470347E+03</pdfrwt>
<totfact> 0.72272168E+03</totfact>
</mgrwt>
</event>
<event>
 4    1  0.1115666E+000  0.1751375E+03  0.7546771E-02  0.1172594E+00
         21   -1    0    0  501  502  0.00000000000E+00  0.00000000000E+00  0.60097595612E+02  0.60097595612E+02  0.00000000000E+00 0.  1.
         21   -1    0    0  502  503 -0.00000000000E+00 -0.00000000000E+00 -0.62618089080E+03  0.62618089080E+03  0.00000000000E+00 0.  1.
          6    1    1    2  501    0 -0.29382271019E+02  0.15027501752E+02 -0.13548465041E+03  0.22142545959E+03  0.17200000000E+03 0.  1.
         -6    1    1    2    0  503  0.29382271019E+02 -0.15027501752E+02 -0.43059864477E+03  0.46485302681E+03  0.17200000000E+03 0.  1.
<mgrwt>
<rscale>  2 0.17513750E+03</rscale>
<asrwt>0</asrwt>
<pdfrwt beam="1">  1       21 0.15024399E-01 0.17513750E+03</pdfrwt>
<pdfrwt beam="2">  1       21 0.15654522E+00 0.17513750E+03</pdfrwt>
<totfact> 0.10582723E+04</totfact>
</mgrwt>
</event>
<event>
 4    1  0.1115666E+000  0.2207418E+03  0.7546771E-02  0.1133331E+00
         21   -1    0    0  501  502  0.00000000000E+00  0.00000000000E+00  0.19298598459E+03  0.19298598459E+03  0.00000000000E+00 0. -1.
         21   -1    0    0  502  503 -0.00000000000E+00 -0.00000000000E+00 -0.25374354077E+03  0.25374354077E+03  0.00000000000E+00 0. -1.
          6    1    1    2  501    0 -0.21832830594E+02 -0.13662458346E+03 -0.14676598339E+02  0.22122918396E+03  0.17200000000E+03 0. -1.
         -6    1    1    2    0  503  0.21832830594E+02  0.13662458346E+03 -0.46080957843E+02  0.22550034140E+03  0.17200000000E+03 0. -1.
<mgrwt>
<rscale>  2 0.22074182E+03</rscale>
<asrwt>0</asrwt>
<pdfrwt beam="1">  1       21 0.48246496E-01 0.22074182E+03</pdfrwt>
<pdfrwt beam="2">  1       21 0.63435885E-01 0.22074182E+03</pdfrwt>
<totfact> 0.92535838E+03</totfact>
</mgrwt>
</event>
<event>
 4    1  0.1115666E+000  0.1849344E+03  0.7546771E-02  0.1163111E+00
         21   -1    0    0  501  502  0.00000000000E+00  0.00000000000E+00  0.52915420630E+03  0.52915420630E+03  0.00000000000E+00 0. -1.
         21   -1    0    0  502  503 -0.00000000000E+00 -0.00000000000E+00 -0.11411180260E+03  0.11411180260E+03  0.00000000000E+00 0. -1.
          6    1    1    2  501    0 -0.44328005533E+02  0.51495126302E+02  0.41931136031E+03  0.45828237692E+03  0.17200000000E+03 0. -1.
         -6    1    1    2    0  503  0.44328005533E+02 -0.51495126302E+02 -0.42689566105E+01  0.18498363197E+03  0.17200000000E+03 0. -1.
<mgrwt>
<rscale>  2 0.18493437E+03</rscale>
<asrwt>0</asrwt>
<pdfrwt beam="1">  1       21 0.13228855E+00 0.18493437E+03</pdfrwt>
<pdfrwt beam="2">  1       21 0.28527952E-01 0.18493437E+03</pdfrwt>
<totfact> 0.48914091E+03</totfact>
</mgrwt>
</event>
<event>
 4    1  0.1115666E+000  0.2936332E+03  0.7546771E-02  0.1088467E+00
         21   -1    0    0  501  502  0.00000000000E+00  0.00000000000E+00  0.19011414628E+03  0.19011414628E+03  0.00000000000E+00 0.  1.
         21   -1    0    0  502  503 -0.00000000000E+00 -0.00000000000E+00 -0.59450542658E+03  0.59450542658E+03  0.00000000000E+00 0.  1.
          6    1    1    2  501    0  0.77661974753E+01  0.23785734127E+03 -0.11148972030E+02  0.29384473485E+03  0.17200000000E+03 0.  1.
         -6    1    1    2    0  503 -0.77661974753E+01 -0.23785734127E+03 -0.39324230826E+03  0.49077483801E+03  0.17200000000E+03 0.  1.
<mgrwt>
<rscale>  2 0.29363315E+03</rscale>
<asrwt>0</asrwt>
<pdfrwt beam="1">  1       21 0.47528537E-01 0.29363315E+03</pdfrwt>
<pdfrwt beam="2">  1       21 0.14862636E+00 0.29363315E+03</pdfrwt>
<totfact> 0.11919913E+03</totfact>
</mgrwt>
</event>
<event>
 4    1  0.1115666E+000  0.2439115E+03  0.7546771E-02  0.1117214E+00
         21   -1    0    0  501  502  0.00000000000E+00  0.00000000000E+00  0.73416429042E+03  0.73416429042E+03  0.00000000000E+00 0.  1.
         21   -1    0    0  502  503 -0.00000000000E+00 -0.00000000000E+00 -0.94083940650E+02  0.94083940650E+02  0.00000000000E+00 0.  1.
          6    1    1    2  501    0 -0.16783750756E+03  0.41706279387E+02  0.47426846353E+03  0.53331362085E+03  0.17200000000E+03 0.  1.
         -6    1    1    2    0  503  0.16783750756E+03 -0.41706279387E+02  0.16581188624E+03  0.29493461021E+03  0.17200000000E+03 0.  1.
<mgrwt>
<rscale>  2 0.24391155E+03</rscale>
<asrwt>0</asrwt>
<pdfrwt beam="1">  1       21 0.18354106E+00 0.24391155E+03</pdfrwt>
<pdfrwt beam="2">  1       21 0.23520987E-01 0.24391155E+03</pdfrwt>
<totfact> 0.28004910E+03</totfact>
</mgrwt>
</event>
<event>
 4    1  0.1115666E+000  0.2256889E+03  0.7546771E-02  0.1129711E+00
         21   -1    0    0  503  502  0.00000000000E+00  0.00000000000E+00  0.15300691665E+03  0.15300691665E+03  0.00000000000E+00 0.  1.
         21   -1    0    0  501  503 -0.00000000000E+00 -0.00000000000E+00 -0.33302581383E+03  0.33302581383E+03  0.00000000000E+00 0.  1.
          6    1    1    2  501    0 -0.31227457152E+02 -0.14274564635E+03 -0.94797365204E+02  0.24478973443E+03  0.17200000000E+03 0.  1.
         -6    1    1    2    0  502  0.31227457152E+02  0.14274564635E+03 -0.85221531978E+02  0.24124299605E+03  0.17200000000E+03 0.  1.
<mgrwt>
<rscale>  2 0.22568889E+03</rscale>
<asrwt>0</asrwt>
<pdfrwt beam="1">  1       21 0.38251730E-01 0.22568889E+03</pdfrwt>
<pdfrwt beam="2">  1       21 0.83256453E-01 0.22568889E+03</pdfrwt>
<totfact> 0.80935191E+03</totfact>
</mgrwt>
</event>
<event>
 4    1  0.1115666E+000  0.1763134E+03  0.7546771E-02  0.1171419E+00
         21   -1    0    0  503  502  0.00000000000E+00  0.00000000000E+00  0.33779411976E+03  0.33779411976E+03  0.00000000000E+00 0. -1.
         21   -1    0    0  501  503 -0.00000000000E+00 -0.00000000000E+00 -0.93503852694E+02  0.93503852694E+02  0.00000000000E+00 0. -1.
          6    1    1    2  501    0 -0.24624503504E+02  0.29934294260E+02  0.95049894698E+02  0.20030204849E+03  0.17200000000E+03 0.  1.
         -6    1    1    2    0  502  0.24624503504E+02 -0.29934294260E+02  0.14924037237E+03  0.23099592397E+03  0.17200000000E+03 0.  1.
<mgrwt>
<rscale>  2 0.17631344E+03</rscale>
<asrwt>0</asrwt>
<pdfrwt beam="1">  1       21 0.84448527E-01 0.17631344E+03</pdfrwt>
<pdfrwt beam="2">  1       21 0.23375964E-01 0.17631344E+03</pdfrwt>
<totfact> 0.21141100E+04</totfact>
</mgrwt>
</event>
<event>
 4    1  0.1115666E+000  0.1810085E+03  0.7546771E-02  0.1166831E+00
         21   -1    0    0  501  502  0.00000000000E+00  0.00000000000E+00  0.15382550920E+03  0.15382550920E+03  0.00000000000E+00 0. -1.
         21   -1    0    0  502  503 -0.00000000000E+00 -0.00000000000E+00 -0.55696434456E+03  0.55696434456E+03  0.00000000000E+00 0. -1.
          6    1    1    2  501    0  0.12242148359E+02 -0.55047160524E+02  0.77721886611E+02  0.19698921731E+03  0.17200000000E+03 0. -1.
         -6    1    1    2    0  503 -0.12242148359E+02  0.55047160524E+02 -0.48086072197E+03  0.51380063645E+03  0.17200000000E+03 0. -1.
<mgrwt>
<rscale>  2 0.18100845E+03</rscale>
<asrwt>0</asrwt>
<pdfrwt beam="1">  1       21 0.38456378E-01 0.18100845E+03</pdfrwt>
<pdfrwt beam="2">  1       21 0.13924108E+00 0.18100845E+03</pdfrwt>
<totfact> 0.23923265E+03</totfact>
</mgrwt>
</event>
<event>
 4    1  0.1115666E+000  0.1877674E+03  0.7546771E-02  0.1160491E+00
         21   -1    0    0  503  502  0.00000000000E+00  0.00000000000E+00  0.87190743965E+03  0.87190743965E+03  0.00000000000E+00 0.  1.
         21   -1    0    0  501  503 -0.00000000000E+00 -0.00000000000E+00 -0.43913665428E+02  0.43913665428E+02  0.00000000000E+00 0.  1.
          6    1    1    2  501    0  0.65180725354E+02 -0.37736715328E+02  0.28513785476E+03  0.34140911361E+03  0.17200000000E+03 0.  1.
         -6    1    1    2    0  502 -0.65180725354E+02  0.37736715328E+02  0.54285591947E+03  0.57441199147E+03  0.17200000000E+03 0.  1.
<mgrwt>
<rscale>  2 0.18776737E+03</rscale>
<asrwt>0</asrwt>
<pdfrwt beam="1">  1       21 0.21797680E+00 0.18776737E+03</pdfrwt>
<pdfrwt beam="2">  1       21 0.10978419E-01 0.18776737E+03</pdfrwt>
<totfact> 0.71518749E+03</totfact>
</mgrwt>
</event>
<event>
 4    1  0.1115666E+000  0.1797141E+03  0.7546771E-02  0.1168080E+00
         21   -1    0    0  503  502  0.00000000000E+00  0.00000000000E+00  0.16216405815E+03  0.16216405815E+03  0.00000000000E+00 0.  1.
         21   -1    0    0  501  503 -0.00000000000E+00 -0.00000000000E+00 -0.25535601785E+03  0.25535601785E+03  0.00000000000E+00 0.  1.
          6    1    1    2  501    0  0.44913997359E+02 -0.26379509947E+02 -0.14452557040E+03  0.23061826945E+03  0.17200000000E+03 0.  1.
         -6    1    1    2    0  502 -0.44913997359E+02  0.26379509947E+02  0.51333610696E+02  0.18690180655E+03  0.17200000000E+03 0.  1.
<mgrwt>
<rscale>  2 0.17971407E+03</rscale>
<asrwt>0</asrwt>
<pdfrwt beam="1">  1       21 0.40541015E-01 0.17971407E+03</pdfrwt>
<pdfrwt beam="2">  1       21 0.63839004E-01 0.17971407E+03</pdfrwt>
<totfact> 0.13399540E+04</totfact>
</mgrwt>
</event>
<event>
 4    1  0.1115666E+000  0.2100524E+03  0.7546771E-02  0.1141524E+00
         21   -1    0    0  501  502  0.00000000000E+00  0.00000000000E+00  0.29126501620E+03  0.29126501620E+03  0.00000000000E+00 0. -1.
         21   -1    0    0  502  503 -0.00000000000E+00 -0.00000000000E+00 -0.37290724408E+03  0.37290724408E+03  0.00000000000E+00 0. -1.
          6    1    1    2  501    0  0.11674131993E+03  0.30157565119E+02  0.21507391451E+03  0.30063067578E+03  0.17200000000E+03 0. -1.
         -6    1    1    2    0  503 -0.11674131993E+03 -0.30157565119E+02 -0.29671614239E+03  0.36354158451E+03  0.17200000000E+03 0. -1.
<mgrwt>
<rscale>  2 0.21005241E+03</rscale>
<asrwt>0</asrwt>
<pdfrwt beam="1">  1       21 0.72816254E-01 0.21005241E+03</pdfrwt>
<pdfrwt beam="2">  1       21 0.93226811E-01 0.21005241E+03</pdfrwt>
<totfact> 0.16177271E+03</totfact>
</mgrwt>
</event>
<event>
 4    1  0.1115666E+000  0.2005889E+03  0.7546771E-02  0.1149243E+00
         21   -1    0    0  503  502  0.00000000000E+00  0.00000000000E+00  0.50689081470E+03  0.50689081470E+03  0.00000000000E+00 0. -1.
         21   -1    0    0  501  503 -0.00000000000E+00 -0.00000000000E+00 -0.92842165962E+02  0.92842165962E+02  0.00000000000E+00 0. -1.
          6    1    1    2  501    0  0.10197196331E+03 -0.15925862970E+02  0.92829323887E+02  0.22102759508E+03  0.17200000000E+03 0. -1.
         -6    1    1    2    0  502 -0.10197196331E+03  0.15925862970E+02  0.32121932485E+03  0.37870538558E+03  0.17200000000E+03 0. -1.
<mgrwt>
<rscale>  2 0.20058892E+03</rscale>
<asrwt>0</asrwt>
<pdfrwt beam="1">  1       21 0.12672270E+00 0.20058892E+03</pdfrwt>
<pdfrwt beam="2">  1       21 0.23210543E-01 0.20058892E+03</pdfrwt>
<totfact> 0.79928204E+03</totfact>
</mgrwt>
</event>
<event>
 4    1  0.1115666E+000  0.2173415E+03  0.7546771E-02  0.1135881E+00
         21   -1    0    0  503  502  0.00000000000E+00  0.00000000000E+00  0.80860717082E+02  0.80860717082E+02  0.00000000000E+00 0.  1.
         21   -1    0    0  501  503 -0.00000000000E+00 -0.00000000000E+00 -0.11188369876E+04  0.11188369876E+04  0.00000000000E+00 0.  1.
          6    1    1    2  501    0  0.11795663970E+03  0.61151950657E+02 -0.93365130628E+03  0.95861467318E+03  0.17200000000E+03 0.  1.
         -6    1    1    2    0  502 -0.11795663970E+03 -0.61151950657E+02 -0.10432496425E+03  0.24108303151E+03  0.17200000000E+03 0.  1.
<mgrwt>
<rscale>  2 0.21734151E+03</rscale>
<asrwt>0</asrwt>
<pdfrwt beam="1">  1       21 0.20215180E-01 0.21734151E+03</pdfrwt>
<pdfrwt beam="2">  1       21 0.27970924E+00 0.21734151E+03</pdfrwt>
<totfact> 0.98027428E+02</totfact>
</mgrwt>
</event>
<event>
 4    1  0.1115666E+000  0.1759098E+03  0.7546771E-02  0.1171821E+00
         21   -1    0    0  503  502  0.00000000000E+00  0.00000000000E+00  0.22099976713E+03  0.22099976713E+03  0.00000000000E+00 0. -1.
         21   -1    0    0  501  503 -0.00000000000E+00 -0.00000000000E+00 -0.14004070465E+03  0.14004070465E+03  0.00000000000E+00 0. -1.
          6    1    1    2  501    0 -0.36740472133E+02 -0.32253860810E+01  0.38255474635E+02  0.18002151746E+03  0.17200000000E+03 0. -1.
         -6    1    1    2    0  502  0.36740472133E+02  0.32253860810E+01  0.42703587850E+02  0.18101895432E+03  0.17200000000E+03 0. -1.
<mgrwt>
<rscale>  2 0.17590982E+03</rscale>
<asrwt>0</asrwt>
<pdfrwt beam="1">  1       21 0.55249941E-01 0.17590982E+03</pdfrwt>
<pdfrwt beam="2">  1       21 0.35010177E-01 0.17590982E+03</pdfrwt>
<totfact> 0.24532250E+04</totfact>
</mgrwt>
</event>
<event>
 4    1  0.1115666E+000  0.1835699E+03  0.7546771E-02  0.1164392E+00
         21   -1    0    0  503  502  0.00000000000E+00  0.00000000000E+00  0.65964105519E+02  0.65964105519E+02  0.00000000000E+00 0. -1.
         21   -1    0    0  501  503 -0.00000000000E+00 -0.00000000000E+00 -0.80764747568E+03  0.80764747568E+03  0.00000000000E+00 0.  1.
          6    1    1    2  501    0 -0.13877712519E+02  0.62620287008E+02 -0.63563447128E+03  0.66161096751E+03  0.17200000000E+03 0.  1.
         -6    1    1    2    0  502  0.13877712519E+02 -0.62620287008E+02 -0.10604889888E+03  0.21200061368E+03  0.17200000000E+03 0. -1.
<mgrwt>
<rscale>  2 0.18356985E+03</rscale>
<asrwt>0</asrwt>
<pdfrwt beam="1">  1       21 0.16491026E-01 0.18356985E+03</pdfrwt>
<pdfrwt beam="2">  1       21 0.20191187E+00 0.18356985E+03</pdfrwt>
<totfact> 0.43442050E+03</totfact>
</mgrwt>
</event>
<event>
 4    1  0.1115666E+000  0.1914011E+03  0.7546771E-02  0.1157204E+00
         21   -1    0    0  503  502  0.00000000000E+00  0.00000000000E+00  0.65109436987E+02  0.65109436987E+02  0.00000000000E+00 0. -1.
         21   -1    0    0  501  503 -0.00000000000E+00 -0.00000000000E+00 -0.81470611722E+03  0.81470611722E+03  0.00000000000E+00 0. -1.
          6    1    1    2  501    0 -0.61842999336E+02  0.56796250476E+02 -0.61948063709E+03  0.64837537766E+03  0.17200000000E+03 0. -1.
         -6    1    1    2    0  502  0.61842999336E+02 -0.56796250476E+02 -0.13011604315E+03  0.23144017655E+03  0.17200000000E+03 0. -1.
<mgrwt>
<rscale>  2 0.19140107E+03</rscale>
<asrwt>0</asrwt>
<pdfrwt beam="1">  1       21 0.16277359E-01 0.19140107E+03</pdfrwt>
<pdfrwt beam="2">  1       21 0.20367653E+00 0.19140107E+03</pdfrwt>
<totfact> 0.43030594E+03</totfact>
</mgrwt>
</event>
<event>
 4    1  0.1115666E+000  0.1859187E+03  0.7546771E-02  0.1162195E+00
         21   -1    0    0  501  502  0.00000000000E+00  0.00000000000E+00  0.61722260458E+02  0.61722260458E+02  0.00000000000E+00 0.  1.
         21   -1    0    0  502  503 -0.00000000000E+00 -0.00000000000E+00 -0.56231587002E+03  0.56231587002E+03  0.00000000000E+00 0.  1.
          6    1    1    2  501    0  0.48057173498E+02 -0.51694134433E+02 -0.23036487221E+03  0.29602998126E+03  0.17200000000E+03 0.  1.
         -6    1    1    2    0  503 -0.48057173498E+02  0.51694134433E+02 -0.27022873736E+03  0.32800814922E+03  0.17200000000E+03 0.  1.
<mgrwt>
<rscale>  2 0.18591873E+03</rscale>
<asrwt>0</asrwt>
<pdfrwt beam="1">  1       21 0.15430565E-01 0.18591873E+03</pdfrwt>
<pdfrwt beam="2">  1       21 0.14057897E+00 0.18591873E+03</pdfrwt>
<totfact> 0.13252990E+04</totfact>
</mgrwt>
</event>
<event>
 4    1  0.1115666E+000  0.1987368E+03  0.7546771E-02  0.1150809E+00
         21   -1    0    0  503  502  0.00000000000E+00  0.00000000000E+00  0.77204531584E+03  0.77204531584E+03  0.00000000000E+00 0. -1.
         21   -1    0    0  501  503 -0.00000000000E+00 -0.00000000000E+00 -0.73551455042E+02  0.73551455042E+02  0.00000000000E+00 0. -1.
          6    1    1    2  501    0 -0.24359230372E+02 -0.96534754758E+02  0.11595604180E+03  0.23009157875E+03  0.17200000000E+03 0. -1.
         -6    1    1    2    0  502  0.24359230372E+02  0.96534754758E+02  0.58253781900E+03  0.61550519213E+03  0.17200000000E+03 0. -1.
<mgrwt>
<rscale>  2 0.19873684E+03</rscale>
<asrwt>0</asrwt>
<pdfrwt beam="1">  1       21 0.19301130E+00 0.19873684E+03</pdfrwt>
<pdfrwt beam="2">  1       21 0.18387866E-01 0.19873684E+03</pdfrwt>
<totfact> 0.39993912E+03</totfact>
</mgrwt>
</event>
<event>
 4    1  0.1115666E+000  0.1766619E+03  0.7546771E-02  0.1171073E+00
         21   -1    0    0  503  502  0.00000000000E+00  0.00000000000E+00  0.14033471491E+03  0.14033471491E+03  0.00000000000E+00 0.  1.
         21   -1    0    0  501  503 -0.00000000000E+00 -0.00000000000E+00 -0.22242186825E+03  0.22242186825E+03  0.00000000000E+00 0.  1.
          6    1    1    2  501    0  0.15097855943E+02 -0.37382909088E+02 -0.43117858421E+02  0.18184767488E+03  0.17200000000E+03 0. -1.
         -6    1    1    2    0  502 -0.15097855943E+02  0.37382909088E+02 -0.38969294927E+02  0.18090890827E+03  0.17200000000E+03 0. -1.
<mgrwt>
<rscale>  2 0.17666190E+03</rscale>
<asrwt>0</asrwt>
<pdfrwt beam="1">  1       21 0.35083679E-01 0.17666190E+03</pdfrwt>
<pdfrwt beam="2">  1       21 0.55605467E-01 0.17666190E+03</pdfrwt>
<totfact> 0.24090842E+04</totfact>
</mgrwt>
</event>
<event>
 4    1  0.1115666E+000  0.1983586E+03  0.7546771E-02  0.1151131E+00
         21   -1    0    0  501  502  0.00000000000E+00  0.00000000000E+00  0.17993711802E+03  0.17993711802E+03  0.00000000000E+00 0. -1.
         21   -1    0    0  502  503 -0.00000000000E+00 -0.00000000000E+00 -0.26867220134E+03  0.26867220134E+03  0.00000000000E+00 0. -1.
          6    1    1    2  501    0 -0.98759646464E+02  0.29409001640E+01  0.52402110415E+02  0.20516358800E+03  0.17200000000E+03 0. -1.
         -6    1    1    2    0  503  0.98759646464E+02 -0.29409001640E+01 -0.14113719373E+03  0.24344573136E+03  0.17200000000E+03 0. -1.
<mgrwt>
<rscale>  2 0.19835856E+03</rscale>
<asrwt>0</asrwt>
<pdfrwt beam="1">  1       21 0.44984280E-01 0.19835856E+03</pdfrwt>
<pdfrwt beam="2">  1       21 0.67168050E-01 0.19835856E+03</pdfrwt>
<totfact> 0.95828570E+03</totfact>
</mgrwt>
</event>
<event>
 4    1  0.1115666E+000  0.1836469E+03  0.7546771E-02  0.1164320E+00
         21   -1    0    0  503  502  0.00000000000E+00  0.00000000000E+00  0.31932378330E+03  0.31932378330E+03  0.00000000000E+00 0. -1.
         21   -1    0    0  501  503 -0.00000000000E+00 -0.00000000000E+00 -0.12432292270E+03  0.12432292270E+03  0.00000000000E+00 0. -1.
          6    1    1    2  501    0  0.27267193313E+02  0.58298150782E+02  0.11457414876E+02  0.18400393086E+03  0.17200000000E+03 0. -1.
         -6    1    1    2    0  502 -0.27267193313E+02 -0.58298150782E+02  0.18354344572E+03  0.25964277514E+03  0.17200000000E+03 0. -1.
<mgrwt>
<rscale>  2 0.18364687E+03</rscale>
<asrwt>0</asrwt>
<pdfrwt beam="1">  1       21 0.79830944E-01 0.18364687E+03</pdfrwt>
<pdfrwt beam="2">  1       21 0.31080731E-01 0.18364687E+03</pdfrwt>
<totfact> 0.13823645E+04</totfact>
</mgrwt>
</event>
<event>
 4    1  0.1115666E+000  0.1916514E+03  0.7546771E-02  0.1156980E+00
         21   -1    0    0  501  502  0.00000000000E+00  0.00000000000E+00  0.14748506602E+04  0.14748506602E+04  0.00000000000E+00 0. -1.
         21   -1    0    0  502  503 -0.00000000000E+00 -0.00000000000E+00 -0.28111995244E+02  0.28111995244E+02  0.00000000000E+00 0. -1.
          6    1    1    2  501    0 -0.42933428243E+02 -0.72821602932E+02  0.97721070021E+03  0.99582680106E+03  0.17200000000E+03 0. -1.
         -6    1    1    2    0  503  0.42933428243E+02  0.72821602932E+02  0.46952796470E+03  0.50713585433E+03  0.17200000000E+03 0. -1.
<mgrwt>
<rscale>  2 0.19165142E+03</rscale>
<asrwt>0</asrwt>
<pdfrwt beam="1">  1       21 0.36871240E+00 0.19165142E+03</pdfrwt>
<pdfrwt beam="2">  1       21 0.70280038E-02 0.19165142E+03</pdfrwt>
<totfact> 0.20354488E+03</totfact>
</mgrwt>
</event>
<event>
 4    1  0.1115666E+000  0.1758155E+03  0.7546771E-02  0.1171915E+00
         21   -1    0    0  503  502  0.00000000000E+00  0.00000000000E+00  0.39140306588E+03  0.39140306588E+03  0.00000000000E+00 0.  1.
         21   -1    0    0  501  503 -0.00000000000E+00 -0.00000000000E+00 -0.85105970908E+02  0.85105970908E+02  0.00000000000E+00 0.  1.
          6    1    1    2  501    0  0.24393926125E+02  0.27055783398E+02  0.89201017464E+02  0.19714943714E+03  0.17200000000E+03 0.  1.
         -6    1    1    2    0  502 -0.24393926125E+02 -0.27055783398E+02  0.21709607751E+03  0.27935959965E+03  0.17200000000E+03 0.  1.
<mgrwt>
<rscale>  2 0.17581547E+03</rscale>
<asrwt>0</asrwt>
<pdfrwt beam="1">  1       21 0.97850762E-01 0.17581547E+03</pdfrwt>
<pdfrwt beam="2">  1       21 0.21276494E-01 0.17581547E+03</pdfrwt>
<totfact> 0.17957082E+04</totfact>
</mgrwt>
</event>
<event>
 4    1  0.1115666E+000  0.1864477E+03  0.7546771E-02  0.1161705E+00
         21   -1    0    0  503  502  0.00000000000E+00  0.00000000000E+00  0.39688328966E+02  0.39688328966E+02  0.00000000000E+00 0. -1.
         21   -1    0    0  501  503 -0.00000000000E+00 -0.00000000000E+00 -0.88833970033E+03  0.88833970033E+03  0.00000000000E+00 0. -1.
          6    1    1    2  501    0 -0.10673967587E+02 -0.71167553415E+02 -0.47924913601E+03  0.51423971901E+03  0.17200000000E+03 0. -1.
         -6    1    1    2    0  502  0.10673967587E+02  0.71167553415E+02 -0.36940223535E+03  0.41378831028E+03  0.17200000000E+03 0. -1.
<mgrwt>
<rscale>  2 0.18644773E+03</rscale>
<asrwt>0</asrwt>
<pdfrwt beam="1">  1       21 0.99220826E-02 0.18644773E+03</pdfrwt>
<pdfrwt beam="2">  1       21 0.22208492E+00 0.18644773E+03</pdfrwt>
<totfact> 0.80830314E+03</totfact>
</mgrwt>
</event>
<event>
 4    1  0.1115666E+000  0.1887075E+03  0.7546771E-02  0.1159632E+00
         21   -1    0    0  503  502  0.00000000000E+00  0.00000000000E+00  0.66897259241E+02  0.66897259241E+02  0.00000000000E+00 0. -1.
         21   -1    0    0  501  503 -0.00000000000E+00 -0.00000000000E+00 -0.56340573988E+03  0.56340573988E+03  0.00000000000E+00 0. -1.
          6    1    1    2  501    0 -0.90839316109E+01 -0.77097448655E+02 -0.17422355668E+03  0.25683532098E+03  0.17200000000E+03 0. -1.
         -6    1    1    2    0  502  0.90839316109E+01  0.77097448655E+02 -0.32228492397E+03  0.37346767814E+03  0.17200000000E+03 0. -1.
<mgrwt>
<rscale>  2 0.18870754E+03</rscale>
<asrwt>0</asrwt>
<pdfrwt beam="1">  1       21 0.16724315E-01 0.18870754E+03</pdfrwt>
<pdfrwt beam="2">  1       21 0.14085143E+00 0.18870754E+03</pdfrwt>
<totfact> 0.11357571E+04</totfact>
</mgrwt>
</event>
<event>
 4    1  0.1115666E+000  0.2667361E+03  0.7546771E-02  0.1103162E+00
         21   -1    0    0  501  502  0.00000000000E+00  0.00000000000E+00  0.69289677196E+03  0.69289677196E+03  0.00000000000E+00 0.  1.
         21   -1    0    0  502  503 -0.00000000000E+00 -0.00000000000E+00 -0.10674230302E+03  0.10674230302E+03  0.00000000000E+00 0.  1.
          6    1    1    2  501    0  0.12113534302E+03  0.16398285641E+03  0.37105405445E+03  0.45697840195E+03  0.17200000000E+03 0.  1.
         -6    1    1    2    0  503 -0.12113534302E+03 -0.16398285641E+03  0.21510041449E+03  0.34266067303E+03  0.17200000000E+03 0.  1.
<mgrwt>
<rscale>  2 0.26673610E+03</rscale>
<asrwt>0</asrwt>
<pdfrwt beam="1">  1       21 0.17322418E+00 0.26673610E+03</pdfrwt>
<pdfrwt beam="2">  1       21 0.26685578E-01 0.26673610E+03</pdfrwt>
<totfact> 0.25468618E+03</totfact>
</mgrwt>
</event>
<event>
 4    1  0.1115666E+000  0.2500482E+03  0.7546771E-02  0.1113274E+00
         21   -1    0    0  503  502  0.00000000000E+00  0.00000000000E+00  0.43931391451E+03  0.43931391451E+03  0.00000000000E+00 0.  1.
         21   -1    0    0  501  503 -0.00000000000E+00 -0.00000000000E+00 -0.14242292043E+03  0.14242292043E+03  0.00000000000E+00 0.  1.
          6    1    1    2  501    0  0.77907807497E+02  0.16392217379E+03  0.14070889647E+03  0.28692002209E+03  0.17200000000E+03 0.  1.
         -6    1    1    2    0  502 -0.77907807497E+02 -0.16392217379E+03  0.15618209761E+03  0.29481681286E+03  0.17200000000E+03 0.  1.
<mgrwt>
<rscale>  2 0.25004821E+03</rscale>
<asrwt>0</asrwt>
<pdfrwt beam="1">  1       21 0.10982848E+00 0.25004821E+03</pdfrwt>
<pdfrwt beam="2">  1       21 0.35605731E-01 0.25004821E+03</pdfrwt>
<totfact> 0.47829841E+03</totfact>
</mgrwt>
</event>
<event>
 4    1  0.1115666E+000  0.1953716E+03  0.7546771E-02  0.1153704E+00
         21   -1    0    0  503  502  0.00000000000E+00  0.00000000000E+00  0.85122955139E+02  0.85122955139E+02  0.00000000000E+00 0. -1.
         21   -1    0    0  501  503 -0.00000000000E+00 -0.00000000000E+00 -0.70635892187E+03  0.70635892187E+03  0.00000000000E+00 0. -1.
          6    1    1    2  501    0  0.59614686616E+02  0.70937650081E+02 -0.54976466630E+03  0.58344772634E+03  0.17200000000E+03 0. -1.
         -6    1    1    2    0  502 -0.59614686616E+02 -0.70937650081E+02 -0.71471300430E+02  0.20803415067E+03  0.17200000000E+03 0. -1.
<mgrwt>
<rscale>  2 0.19537160E+03</rscale>
<asrwt>0</asrwt>
<pdfrwt beam="1">  1       21 0.21280739E-01 0.19537160E+03</pdfrwt>
<pdfrwt beam="2">  1       21 0.17658973E+00 0.19537160E+03</pdfrwt>
<totfact> 0.39359046E+03</totfact>
</mgrwt>
</event>
<event>
 4    1  0.1115666E+000  0.1784692E+03  0.7546771E-02  0.1169293E+00
         21   -1    0    0  501  502  0.00000000000E+00  0.00000000000E+00  0.16141044316E+03  0.16141044316E+03  0.00000000000E+00 0. -1.
         21   -1    0    0  502  503 -0.00000000000E+00 -0.00000000000E+00 -0.23582304339E+03  0.23582304339E+03  0.00000000000E+00 0. -1.
          6    1    1    2  501    0 -0.35314619061E+02 -0.31939756686E+02 -0.11744958550E+03  0.21364848586E+03  0.17200000000E+03 0.  1.
         -6    1    1    2    0  503  0.35314619061E+02  0.31939756686E+02  0.43036985266E+02  0.18358500069E+03  0.17200000000E+03 0.  1.
<mgrwt>
<rscale>  2 0.17846924E+03</rscale>
<asrwt>0</asrwt>
<pdfrwt beam="1">  1       21 0.40352611E-01 0.17846924E+03</pdfrwt>
<pdfrwt beam="2">  1       21 0.58955761E-01 0.17846924E+03</pdfrwt>
<totfact> 0.16064690E+04</totfact>
</mgrwt>
</event>
<event>
 4    1  0.1115666E+000  0.2663984E+03  0.7546771E-02  0.1103359E+00
         21   -1    0    0  501  502  0.00000000000E+00  0.00000000000E+00  0.64108747132E+03  0.64108747132E+03  0.00000000000E+00 0. -1.
         21   -1    0    0  502  503 -0.00000000000E+00 -0.00000000000E+00 -0.12074002711E+03  0.12074002711E+03  0.00000000000E+00 0. -1.
          6    1    1    2  501    0 -0.17289276845E+03 -0.10720155049E+03  0.15032914513E+03  0.30588712572E+03  0.17200000000E+03 0. -1.
         -6    1    1    2    0  503  0.17289276845E+03  0.10720155049E+03  0.37001829908E+03  0.45594037271E+03  0.17200000000E+03 0. -1.
<mgrwt>
<rscale>  2 0.26639835E+03</rscale>
<asrwt>0</asrwt>
<pdfrwt beam="1">  1       21 0.16027186E+00 0.26639835E+03</pdfrwt>
<pdfrwt beam="2">  1       21 0.30185009E-01 0.26639835E+03</pdfrwt>
<totfact> 0.24841074E+03</totfact>
</mgrwt>
</event>
<event>
 4    1  0.1115666E+000  0.2291929E+03  0.7546771E-02  0.1127209E+00
         21   -1    0    0  503  502  0.00000000000E+00  0.00000000000E+00  0.32403449573E+03  0.32403449573E+03  0.00000000000E+00 0.  1.
         21   -1    0    0  501  503 -0.00000000000E+00 -0.00000000000E+00 -0.19389772634E+03  0.19389772634E+03  0.00000000000E+00 0.  1.
          6    1    1    2  501    0 -0.10851271569E+03  0.10568997174E+03 -0.39785180097E+02  0.23262037776E+03  0.17200000000E+03 0.  1.
         -6    1    1    2    0  502  0.10851271569E+03 -0.10568997174E+03  0.16992194949E+03  0.28531184432E+03  0.17200000000E+03 0.  1.
<mgrwt>
<rscale>  2 0.22919289E+03</rscale>
<asrwt>0</asrwt>
<pdfrwt beam="1">  1       21 0.81008623E-01 0.22919289E+03</pdfrwt>
<pdfrwt beam="2">  1       21 0.48474432E-01 0.22919289E+03</pdfrwt>
<totfact> 0.52896897E+03</totfact>
</mgrwt>
</event>
<event>
 4    1  0.1115666E+000  0.2239099E+03  0.7546771E-02  0.1131001E+00
         21   -1    0    0  503  502  0.00000000000E+00  0.00000000000E+00  0.23638118124E+03  0.23638118124E+03  0.00000000000E+00 0.  1.
         21   -1    0    0  501  503 -0.00000000000E+00 -0.00000000000E+00 -0.21214614187E+03  0.21214614187E+03  0.00000000000E+00 0.  1.
          6    1    1    2  501    0  0.23289357937E+02  0.14145404042E+03  0.86896673942E+01  0.22407844623E+03  0.17200000000E+03 0.  1.
         -6    1    1    2    0  502 -0.23289357937E+02 -0.14145404042E+03  0.15545371977E+02  0.22444887688E+03  0.17200000000E+03 0.  1.
<mgrwt>
<rscale>  2 0.22390989E+03</rscale>
<asrwt>0</asrwt>
<pdfrwt beam="1">  1       21 0.59095295E-01 0.22390989E+03</pdfrwt>
<pdfrwt beam="2">  1       21 0.53036535E-01 0.22390989E+03</pdfrwt>
<totfact> 0.88272128E+03</totfact>
</mgrwt>
</event>
<event>
 4    1  0.1115666E+000  0.2321099E+03  0.7546771E-02  0.1125163E+00
         21   -1    0    0  503  502  0.00000000000E+00  0.00000000000E+00  0.99220571922E+02  0.99220571922E+02  0.00000000000E+00 0. -1.
         21   -1    0    0  501  503 -0.00000000000E+00 -0.00000000000E+00 -0.56806847113E+03  0.56806847113E+03  0.00000000000E+00 0. -1.
          6    1    1    2  501    0  0.69807295048E+02 -0.13934831960E+03 -0.16431055464E+03  0.28438173462E+03  0.17200000000E+03 0. -1.
         -6    1    1    2    0  502 -0.69807295048E+02  0.13934831960E+03 -0.30453734456E+03  0.38290730843E+03  0.17200000000E+03 0. -1.
<mgrwt>
<rscale>  2 0.23210991E+03</rscale>
<asrwt>0</asrwt>
<pdfrwt beam="1">  1       21 0.24805143E-01 0.23210991E+03</pdfrwt>
<pdfrwt beam="2">  1       21 0.14201712E+00 0.23210991E+03</pdfrwt>
<totfact> 0.51411657E+03</totfact>
</mgrwt>
</event>
<event>
 4    1  0.1115666E+000  0.2931342E+03  0.7546771E-02  0.1088724E+00
         21   -1    0    0  503  502  0.00000000000E+00  0.00000000000E+00  0.12078254870E+04  0.12078254870E+04  0.00000000000E+00 0.  1.
         21   -1    0    0  501  503 -0.00000000000E+00 -0.00000000000E+00 -0.77806861921E+02  0.77806861921E+02  0.00000000000E+00 0. -1.
          6    1    1    2  501    0  0.20675797458E+03 -0.11659665434E+03  0.37687872051E+03  0.47745702407E+03  0.17200000000E+03 0.  1.
         -6    1    1    2    0  502 -0.20675797458E+03  0.11659665434E+03  0.75313990453E+03  0.80817532482E+03  0.17200000000E+03 0. -1.
<mgrwt>
<rscale>  2 0.29313417E+03</rscale>
<asrwt>0</asrwt>
<pdfrwt beam="1">  1       21 0.30195631E+00 0.29313417E+03</pdfrwt>
<pdfrwt beam="2">  1       21 0.19451719E-01 0.29313417E+03</pdfrwt>
<totfact> 0.72276633E+02</totfact>
</mgrwt>
</event>
<event>
 4    1  0.1115666E+000  0.2072834E+03  0.7546771E-02  0.1143736E+00
         21   -1    0    0  501  502  0.00000000000E+00  0.00000000000E+00  0.17982719836E+03  0.17982719836E+03  0.00000000000E+00 0.  1.
         21   -1    0    0  502  503 -0.00000000000E+00 -0.00000000000E+00 -0.24505161686E+03  0.24505161686E+03  0.00000000000E+00 0.  1.
          6    1    1    2  501    0 -0.11539739241E+03  0.81138261118E+01 -0.66184746098E+02  0.21759322822E+03  0.17200000000E+03 0. -1.
         -6    1    1    2    0  503  0.11539739241E+03 -0.81138261118E+01  0.96032760118E+00  0.20728558700E+03  0.17200000000E+03 0. -1.
<mgrwt>
<rscale>  2 0.20728336E+03</rscale>
<asrwt>0</asrwt>
<pdfrwt beam="1">  1       21 0.44956800E-01 0.20728336E+03</pdfrwt>
<pdfrwt beam="2">  1       21 0.61262904E-01 0.20728336E+03</pdfrwt>
<totfact> 0.11650049E+04</totfact>
</mgrwt>
</event>
<event>
 4    1  0.1115666E+000  0.2698066E+03  0.7546771E-02  0.1101390E+00
         21   -1    0    0  501  502  0.00000000000E+00  0.00000000000E+00  0.89010388126E+02  0.89010388126E+02  0.00000000000E+00 0.  1.
         21   -1    0    0  502  503 -0.00000000000E+00 -0.00000000000E+00 -0.86505253114E+03  0.86505253114E+03  0.00000000000E+00 0.  1.
          6    1    1    2  501    0  0.14134428776E+03 -0.15242512527E+03 -0.27656930948E+03  0.38637573609E+03  0.17200000000E+03 0.  1.
         -6    1    1    2    0  503 -0.14134428776E+03  0.15242512527E+03 -0.49947283353E+03  0.56768718317E+03  0.17200000000E+03 0.  1.
<mgrwt>
<rscale>  2 0.26980665E+03</rscale>
<asrwt>0</asrwt>
<pdfrwt beam="1">  1       21 0.22252597E-01 0.26980665E+03</pdfrwt>
<pdfrwt beam="2">  1       21 0.21626313E+00 0.26980665E+03</pdfrwt>
<totfact> 0.18665424E+03</totfact>
</mgrwt>
</event>
<event>
 4    1  0.1115666E+000  0.2444865E+03  0.7546771E-02  0.1116840E+00
         21   -1    0    0  501  502  0.00000000000E+00  0.00000000000E+00  0.65627628764E+03  0.65627628764E+03  0.00000000000E+00 0.  1.
         21   -1    0    0  502  503 -0.00000000000E+00 -0.00000000000E+00 -0.14424614946E+03  0.14424614946E+03  0.00000000000E+00 0. -1.
          6    1    1    2  501    0  0.16112951163E+03 -0.65015025155E+02  0.49901649604E+03  0.55568978426E+03  0.17200000000E+03 0.  1.
         -6    1    1    2    0  503 -0.16112951163E+03  0.65015025155E+02  0.13013642142E+02  0.24483265284E+03  0.17200000000E+03 0. -1.
<mgrwt>
<rscale>  2 0.24448655E+03</rscale>
<asrwt>0</asrwt>
<pdfrwt beam="1">  1       21 0.16406906E+00 0.24448655E+03</pdfrwt>
<pdfrwt beam="2">  1       21 0.36061539E-01 0.24448655E+03</pdfrwt>
<totfact> 0.16637979E+03</totfact>
</mgrwt>
</event>
<event>
 4    1  0.1115666E+000  0.2747302E+03  0.7546771E-02  0.1098603E+00
         21   -1    0    0  503  502  0.00000000000E+00  0.00000000000E+00  0.16301985320E+03  0.16301985320E+03  0.00000000000E+00 0. -1.
         21   -1    0    0  501  503 -0.00000000000E+00 -0.00000000000E+00 -0.64107941401E+03  0.64107941401E+03  0.00000000000E+00 0. -1.
          6    1    1    2  501    0  0.14094279068E+03  0.16133131810E+03 -0.45093518821E+03  0.52803334024E+03  0.17200000000E+03 0. -1.
         -6    1    1    2    0  502 -0.14094279068E+03 -0.16133131810E+03 -0.27124372592E+02  0.27606592697E+03  0.17200000000E+03 0. -1.
<mgrwt>
<rscale>  2 0.27473017E+03</rscale>
<asrwt>0</asrwt>
<pdfrwt beam="1">  1       21 0.40754964E-01 0.27473017E+03</pdfrwt>
<pdfrwt beam="2">  1       21 0.16026985E+00 0.27473017E+03</pdfrwt>
<totfact> 0.13536663E+03</totfact>
</mgrwt>
</event>
<event>
 4    1  0.1115666E+000  0.1764602E+03  0.7546771E-02  0.1171274E+00
         21   -1    0    0  501  502  0.00000000000E+00  0.00000000000E+00  0.20966298964E+03  0.20966298964E+03  0.00000000000E+00 0.  1.
         21   -1    0    0  502  503 -0.00000000000E+00 -0.00000000000E+00 -0.25484182780E+03  0.25484182780E+03  0.00000000000E+00 0. -1.
          6    1    1    2  501    0  0.36894352798E+02  0.13892452335E+02  0.12742927422E+03  0.21766123547E+03  0.17200000000E+03 0.  1.
         -6    1    1    2    0  503 -0.36894352798E+02 -0.13892452335E+02 -0.17260811238E+03  0.24684358197E+03  0.17200000000E+03 0. -1.
<mgrwt>
<rscale>  2 0.17646018E+03</rscale>
<asrwt>0</asrwt>
<pdfrwt beam="1">  1       21 0.52415748E-01 0.17646018E+03</pdfrwt>
<pdfrwt beam="2">  1       21 0.63710457E-01 0.17646018E+03</pdfrwt>
<totfact> 0.79525557E+03</totfact>
</mgrwt>
</event>
<event>
 4    1  0.1115666E+000  0.2090598E+03  0.7546771E-02  0.1142313E+00
         21   -1    0    0  501  502  0.00000000000E+00  0.00000000000E+00  0.68489276734E+03  0.68489276734E+03  0.00000000000E+00 0. -1.
         21   -1    0    0  502  503 -0.00000000000E+00 -0.00000000000E+00 -0.64709448382E+02  0.64709448382E+02  0.00000000000E+00 0.  1.
          6    1    1    2  501    0 -0.90998975345E+01 -0.11848705828E+03  0.26601071779E+03  0.33833074512E+03  0.17200000000E+03 0. -1.
         -6    1    1    2    0  503  0.90998975345E+01  0.11848705828E+03  0.35417260118E+03  0.41127147061E+03  0.17200000000E+03 0.  1.
<mgrwt>
<rscale>  2 0.20905978E+03</rscale>
<asrwt>0</asrwt>
<pdfrwt beam="1">  1       21 0.17122317E+00 0.20905978E+03</pdfrwt>
<pdfrwt beam="2">  1       21 0.16177364E-01 0.20905978E+03</pdfrwt>
<totfact> 0.70535294E+03</totfact>
</mgrwt>
</event>
<event>
 4    1  0.1115666E+000  0.2388182E+03  0.7546771E-02  0.1120583E+00
         21   -1    0    0  503  502  0.00000000000E+00  0.00000000000E+00  0.49949428470E+03  0.49949428470E+03  0.00000000000E+00 0. -1.
         21   -1    0    0  501  503 -0.00000000000E+00 -0.00000000000E+00 -0.18445534489E+03  0.18445534489E+03  0.00000000000E+00 0.  1.
          6    1    1    2  501    0 -0.43793618282E+02 -0.15978813759E+03 -0.53556313577E+02  0.24474968568E+03  0.17200000000E+03 0.  1.
         -6    1    1    2    0  502  0.43793618282E+02  0.15978813759E+03  0.36859525338E+03  0.43919994391E+03  0.17200000000E+03 0. -1.
<mgrwt>
<rscale>  2 0.23881819E+03</rscale>
<asrwt>0</asrwt>
<pdfrwt beam="1">  1       21 0.12487357E+00 0.23881819E+03</pdfrwt>
<pdfrwt beam="2">  1       21 0.46113837E-01 0.23881819E+03</pdfrwt>
<totfact> 0.20720518E+03</totfact>
</mgrwt>
</event>
<event>
 4    1  0.1115666E+000  0.1796023E+03  0.7546771E-02  0.1168189E+00
         21   -1    0    0  501  502  0.00000000000E+00  0.00000000000E+00  0.10559622420E+03  0.10559622420E+03  0.00000000000E+00 0. -1.
         21   -1    0    0  502  503 -0.00000000000E+00 -0.00000000000E+00 -0.31908926641E+03  0.31908926641E+03  0.00000000000E+00 0. -1.
          6    1    1    2  501    0  0.16786965824E+02  0.48899610082E+02 -0.15060800915E+03  0.23439229192E+03  0.17200000000E+03 0.  1.
         -6    1    1    2    0  503 -0.16786965824E+02 -0.48899610082E+02 -0.62885033050E+02  0.19029319869E+03  0.17200000000E+03 0.  1.
<mgrwt>
<rscale>  2 0.17960227E+03</rscale>
<asrwt>0</asrwt>
<pdfrwt beam="1">  1       21 0.26399056E-01 0.17960227E+03</pdfrwt>
<pdfrwt beam="2">  1       21 0.79772316E-01 0.17960227E+03</pdfrwt>
<totfact> 0.19042601E+04</totfact>
</mgrwt>
</event>
<event>
 4    1  0.1115666E+000  0.1886617E+03  0.7546771E-02  0.1159674E+00
         21   -1    0    0  501  502  0.00000000000E+00  0.00000000000E+00  0.12867015976E+03  0.12867015976E+03  0.00000000000E+00 0. -1.
         21   -1    0    0  502  503 -0.00000000000E+00 -0.00000000000E+00 -0.68869699914E+03  0.68869699914E+03  0.00000000000E+00 0. -1.
          6    1    1    2  501    0  0.32004000258E+01  0.77453176762E+02  0.36112599529E+02  0.19208684753E+03  0.17200000000E+03 0. -1.
         -6    1    1    2    0  503 -0.32004000258E+01 -0.77453176762E+02 -0.59613943892E+03  0.62528031137E+03  0.17200000000E+03 0. -1.
<mgrwt>
<rscale>  2 0.18866170E+03</rscale>
<asrwt>0</asrwt>
<pdfrwt beam="1">  1       21 0.32167540E-01 0.18866170E+03</pdfrwt>
<pdfrwt beam="2">  1       21 0.17217425E+00 0.18866170E+03</pdfrwt>
<totfact> 0.19230971E+03</totfact>
</mgrwt>
</event>
<event>
 4    1  0.1115666E+000  0.1764251E+03  0.7546771E-02  0.1171308E+00
         21   -1    0    0  503  502  0.00000000000E+00  0.00000000000E+00  0.47535311885E+03  0.47535311885E+03  0.00000000000E+00 0.  1.
         21   -1    0    0  501  503 -0.00000000000E+00 -0.00000000000E+00 -0.11687095984E+03  0.11687095984E+03  0.00000000000E+00 0.  1.
          6    1    1    2  501    0 -0.39252271557E+02  0.10298364873E+01 -0.17117090691E+02  0.17725348002E+03  0.17200000000E+03 0.  1.
         -6    1    1    2    0  502  0.39252271557E+02 -0.10298364873E+01  0.37559924970E+03  0.41497059867E+03  0.17200000000E+03 0.  1.
<mgrwt>
<rscale>  2 0.17642506E+03</rscale>
<asrwt>0</asrwt>
<pdfrwt beam="1">  1       21 0.11883827E+00 0.17642506E+03</pdfrwt>
<pdfrwt beam="2">  1       21 0.29217741E-01 0.17642506E+03</pdfrwt>
<totfact> 0.61483068E+03</totfact>
</mgrwt>
</event>
<event>
 4    1  0.1115666E+000  0.2092359E+03  0.7546771E-02  0.1142172E+00
         21   -1    0    0  501  502  0.00000000000E+00  0.00000000000E+00  0.20267573103E+03  0.20267573103E+03  0.00000000000E+00 0.  1.
         21   -1    0    0  502  503 -0.00000000000E+00 -0.00000000000E+00 -0.43201948125E+03  0.43201948125E+03  0.00000000000E+00 0. -1.
          6    1    1    2  501    0 -0.11896660741E+03  0.65277852185E+01  0.10972745200E+03  0.23626209891E+03  0.17200000000E+03 0.  1.
         -6    1    1    2    0  503  0.11896660741E+03 -0.65277852185E+01 -0.33907120222E+03  0.39843311338E+03  0.17200000000E+03 0. -1.
<mgrwt>
<rscale>  2 0.20923591E+03</rscale>
<asrwt>0</asrwt>
<pdfrwt beam="1">  1       21 0.50668933E-01 0.20923591E+03</pdfrwt>
<pdfrwt beam="2">  1       21 0.10800487E+00 0.20923591E+03</pdfrwt>
<totfact> 0.24936708E+03</totfact>
</mgrwt>
</event>
<event>
 4    1  0.1115666E+000  0.1722980E+03  0.7546771E-02  0.1175472E+00
         21   -1    0    0  503  502  0.00000000000E+00  0.00000000000E+00  0.58454342907E+03  0.58454342907E+03  0.00000000000E+00 0.  1.
         21   -1    0    0  501  503 -0.00000000000E+00 -0.00000000000E+00 -0.66576707953E+02  0.66576707953E+02  0.00000000000E+00 0.  1.
          6    1    1    2  501    0 -0.95288961739E+01 -0.34360890837E+01  0.10043157020E+03  0.19943196048E+03  0.17200000000E+03 0.  1.
         -6    1    1    2    0  502  0.95288961739E+01  0.34360890837E+01  0.41753515092E+03  0.45168817654E+03  0.17200000000E+03 0.  1.
<mgrwt>
<rscale>  2 0.17229802E+03</rscale>
<asrwt>0</asrwt>
<pdfrwt beam="1">  1       21 0.14613584E+00 0.17229802E+03</pdfrwt>
<pdfrwt beam="2">  1       21 0.16644179E-01 0.17229802E+03</pdfrwt>
<totfact> 0.10545165E+04</totfact>
</mgrwt>
</event>
<event>
 4    1  0.1115666E+000  0.1900856E+03  0.7546771E-02  0.1158384E+00
         21   -1    0    0  501  502  0.00000000000E+00  0.00000000000E+00  0.17261709401E+03  0.17261709401E+03  0.00000000000E+00 0.  1.
         21   -1    0    0  502  503 -0.00000000000E+00 -0.00000000000E+00 -0.25033135756E+03  0.25033135756E+03  0.00000000000E+00 0.  1.
          6    1    1    2  501    0  0.61636987543E+02 -0.52435036838E+02  0.46736493868E+02  0.19574690593E+03  0.17200000000E+03 0.  1.
         -6    1    1    2    0  503 -0.61636987543E+02  0.52435036838E+02 -0.12445075741E+03  0.22720154564E+03  0.17200000000E+03 0.  1.
<mgrwt>
<rscale>  2 0.19008564E+03</rscale>
<asrwt>0</asrwt>
<pdfrwt beam="1">  1       21 0.43154274E-01 0.19008564E+03</pdfrwt>
<pdfrwt beam="2">  1       21 0.62582839E-01 0.19008564E+03</pdfrwt>
<totfact> 0.12237799E+04</totfact>
</mgrwt>
</event>
<event>
 4    1  0.1115666E+000  0.1847077E+03  0.7546771E-02  0.1163323E+00
         21   -1    0    0  501  502  0.00000000000E+00  0.00000000000E+00  0.22637021538E+03  0.22637021538E+03  0.00000000000E+00 0.  1.
         21   -1    0    0  502  503 -0.00000000000E+00 -0.00000000000E+00 -0.15235698881E+03  0.15235698881E+03  0.00000000000E+00 0.  1.
          6    1    1    2  501    0  0.53014046160E+02  0.41502484623E+02  0.17336434977E+02  0.18551953347E+03  0.17200000000E+03 0.  1.
         -6    1    1    2    0  503 -0.53014046160E+02 -0.41502484623E+02  0.56676791587E+02  0.19320767072E+03  0.17200000000E+03 0.  1.
<mgrwt>
<rscale>  2 0.18470773E+03</rscale>
<asrwt>0</asrwt>
<pdfrwt beam="1">  1       21 0.56592554E-01 0.18470773E+03</pdfrwt>
<pdfrwt beam="2">  1       21 0.38089247E-01 0.18470773E+03</pdfrwt>
<totfact> 0.19608792E+04</totfact>
</mgrwt>
</event>
<event>
 4    1  0.1115666E+000  0.1832394E+03  0.7546771E-02  0.1164704E+00
         21   -1    0    0  501  502  0.00000000000E+00  0.00000000000E+00  0.65924481525E+02  0.65924481525E+02  0.00000000000E+00 0.  1.
         21   -1    0    0  502  503 -0.00000000000E+00 -0.00000000000E+00 -0.51024702053E+03  0.51024702053E+03  0.00000000000E+00 0.  1.
          6    1    1    2  501    0  0.53708943248E+02  0.33287182330E+02 -0.23443761262E+03  0.29755282103E+03  0.17200000000E+03 0.  1.
         -6    1    1    2    0  503 -0.53708943248E+02 -0.33287182330E+02 -0.20988492639E+03  0.27861868103E+03  0.17200000000E+03 0.  1.
<mgrwt>
<rscale>  2 0.18323943E+03</rscale>
<asrwt>0</asrwt>
<pdfrwt beam="1">  1       21 0.16481121E-01 0.18323943E+03</pdfrwt>
<pdfrwt beam="2">  1       21 0.12756175E+00 0.18323943E+03</pdfrwt>
<totfact> 0.15068561E+04</totfact>
</mgrwt>
</event>
<event>
 4    1  0.1115666E+000  0.1948504E+03  0.7546771E-02  0.1154158E+00
         21   -1    0    0  501  502  0.00000000000E+00  0.00000000000E+00  0.42132736581E+03  0.42132736581E+03  0.00000000000E+00 0.  1.
         21   -1    0    0  502  503 -0.00000000000E+00 -0.00000000000E+00 -0.14799588985E+03  0.14799588985E+03  0.00000000000E+00 0. -1.
          6    1    1    2  501    0 -0.25783424045E+02  0.87851483079E+02  0.31469148186E+03  0.37013159388E+03  0.17200000000E+03 0.  1.
         -6    1    1    2    0  503  0.25783424045E+02 -0.87851483079E+02 -0.41360005905E+02  0.19919166178E+03  0.17200000000E+03 0. -1.
<mgrwt>
<rscale>  2 0.19485037E+03</rscale>
<asrwt>0</asrwt>
<pdfrwt beam="1">  1       21 0.10533184E+00 0.19485037E+03</pdfrwt>
<pdfrwt beam="2">  1       21 0.36998973E-01 0.19485037E+03</pdfrwt>
<totfact> 0.50997574E+03</totfact>
</mgrwt>
</event>
<event>
 4    1  0.1115666E+000  0.8774722E+03  0.7546771E-02  0.9454189E-01
         21   -1    0    0  501  502  0.00000000000E+00  0.00000000000E+00  0.13671199163E+04  0.13671199163E+04  0.00000000000E+00 0.  1.
         21   -1    0    0  502  503 -0.00000000000E+00 -0.00000000000E+00 -0.67210122463E+03  0.67210122463E+03  0.00000000000E+00 0. -1.
          6    1    1    2  501    0 -0.83377540100E+03  0.21258437336E+03  0.75793999795E+03  0.11594958282E+04  0.17200000000E+03 0.  1.
         -6    1    1    2    0  503  0.83377540100E+03 -0.21258437336E+03 -0.62921306264E+02  0.87972531275E+03  0.17200000000E+03 0. -1.
<mgrwt>
<rscale>  2 0.87747224E+03</rscale>
<asrwt>0</asrwt>
<pdfrwt beam="1">  1       21 0.34177997E+00 0.87747224E+03</pdfrwt>
<pdfrwt beam="2">  1       21 0.16802531E+00 0.87747224E+03</pdfrwt>
<totfact> 0.23466977E+00</totfact>
</mgrwt>
</event>
<event>
 4    1  0.1115666E+000  0.3638459E+03  0.7546771E-02  0.1057071E+00
         21   -1    0    0  501  502  0.00000000000E+00  0.00000000000E+00  0.18782486791E+03  0.18782486791E+03  0.00000000000E+00 0. -1.
         21   -1    0    0  502  503 -0.00000000000E+00 -0.00000000000E+00 -0.70496065313E+03  0.70496065313E+03  0.00000000000E+00 0. -1.
          6    1    1    2  501    0  0.22565603687E+03  0.22776999753E+03 -0.25239463976E+03  0.44281697452E+03  0.17200000000E+03 0. -1.
         -6    1    1    2    0  503 -0.22565603687E+03 -0.22776999753E+03 -0.26474114546E+03  0.44996854651E+03  0.17200000000E+03 0. -1.
<mgrwt>
<rscale>  2 0.36384587E+03</rscale>
<asrwt>0</asrwt>
<pdfrwt beam="1">  1       21 0.46956218E-01 0.36384587E+03</pdfrwt>
<pdfrwt beam="2">  1       21 0.17624016E+00 0.36384587E+03</pdfrwt>
<totfact> 0.73072136E+02</totfact>
</mgrwt>
</event>
<event>
 4    1  0.1115666E+000  0.1837943E+03  0.7546771E-02  0.1164181E+00
         21   -1    0    0  503  502  0.00000000000E+00  0.00000000000E+00  0.14141809654E+03  0.14141809654E+03  0.00000000000E+00 0.  1.
         21   -1    0    0  501  503 -0.00000000000E+00 -0.00000000000E+00 -0.53653899103E+03  0.53653899103E+03  0.00000000000E+00 0.  1.
          6    1    1    2  501    0 -0.23713073586E+02  0.60282923972E+02 -0.45004766378E+03  0.48613088819E+03  0.17200000000E+03 0.  1.
         -6    1    1    2    0  502  0.23713073586E+02 -0.60282923972E+02  0.54926769299E+02  0.19182619938E+03  0.17200000000E+03 0.  1.
<mgrwt>
<rscale>  2 0.18379429E+03</rscale>
<asrwt>0</asrwt>
<pdfrwt beam="1">  1       21 0.35354525E-01 0.18379429E+03</pdfrwt>
<pdfrwt beam="2">  1       21 0.13413475E+00 0.18379429E+03</pdfrwt>
<totfact> 0.31046128E+03</totfact>
</mgrwt>
</event>
<event>
 4    1  0.1115666E+000  0.1764659E+03  0.7546771E-02  0.1171268E+00
         21   -1    0    0  501  502  0.00000000000E+00  0.00000000000E+00  0.18126112608E+03  0.18126112608E+03  0.00000000000E+00 0.  1.
         21   -1    0    0  502  503 -0.00000000000E+00 -0.00000000000E+00 -0.20001806808E+03  0.20001806808E+03  0.00000000000E+00 0.  1.
          6    1    1    2  501    0 -0.37144780113E+02 -0.13285130195E+02  0.62229353365E+02  0.18711686667E+03  0.17200000000E+03 0.  1.
         -6    1    1    2    0  503  0.37144780113E+02  0.13285130195E+02 -0.80986295366E+02  0.19416232748E+03  0.17200000000E+03 0.  1.
<mgrwt>
<rscale>  2 0.17646594E+03</rscale>
<asrwt>0</asrwt>
<pdfrwt beam="1">  1       21 0.45315281E-01 0.17646594E+03</pdfrwt>
<pdfrwt beam="2">  1       21 0.50004517E-01 0.17646594E+03</pdfrwt>
<totfact> 0.17974030E+04</totfact>
</mgrwt>
</event>
<event>
 4    1  0.1115666E+000  0.1857959E+03  0.7546771E-02  0.1162309E+00
         21   -1    0    0  503  502  0.00000000000E+00  0.00000000000E+00  0.12938249202E+03  0.12938249202E+03  0.00000000000E+00 0.  1.
         21   -1    0    0  501  503 -0.00000000000E+00 -0.00000000000E+00 -0.26765229435E+03  0.26765229435E+03  0.00000000000E+00 0.  1.
          6    1    1    2  501    0 -0.68310422392E+02 -0.16425956086E+02 -0.80292585005E+02  0.20240312509E+03  0.17200000000E+03 0. -1.
         -6    1    1    2    0  502  0.68310422392E+02  0.16425956086E+02 -0.57977217327E+02  0.19463166127E+03  0.17200000000E+03 0. -1.
<mgrwt>
<rscale>  2 0.18579593E+03</rscale>
<asrwt>0</asrwt>
<pdfrwt beam="1">  1       21 0.32345623E-01 0.18579593E+03</pdfrwt>
<pdfrwt beam="2">  1       21 0.66913073E-01 0.18579593E+03</pdfrwt>
<totfact> 0.18891552E+04</totfact>
</mgrwt>
</event>
<event>
 4    1  0.1115666E+000  0.1902625E+03  0.7546771E-02  0.1158225E+00
         21   -1    0    0  501  502  0.00000000000E+00  0.00000000000E+00  0.18486487415E+03  0.18486487415E+03  0.00000000000E+00 0.  1.
         21   -1    0    0  502  503 -0.00000000000E+00 -0.00000000000E+00 -0.21896764512E+03  0.21896764512E+03  0.00000000000E+00 0. -1.
          6    1    1    2  501    0 -0.77080373350E+02  0.25969570829E+02  0.48601966683E+02  0.19637197797E+03  0.17200000000E+03 0.  1.
         -6    1    1    2    0  503  0.77080373350E+02 -0.25969570829E+02 -0.82704737652E+02  0.20746054130E+03  0.17200000000E+03 0. -1.
<mgrwt>
<rscale>  2 0.19026246E+03</rscale>
<asrwt>0</asrwt>
<pdfrwt beam="1">  1       21 0.46216219E-01 0.19026246E+03</pdfrwt>
<pdfrwt beam="2">  1       21 0.54741911E-01 0.19026246E+03</pdfrwt>
<totfact> 0.14153365E+04</totfact>
</mgrwt>
</event>
<event>
 4    1  0.1115666E+000  0.1797775E+03  0.7546771E-02  0.1168019E+00
         21   -1    0    0  501  502  0.00000000000E+00  0.00000000000E+00  0.32364827821E+03  0.32364827821E+03  0.00000000000E+00 0.  1.
         21   -1    0    0  502  503 -0.00000000000E+00 -0.00000000000E+00 -0.22311205448E+03  0.22311205448E+03  0.00000000000E+00 0. -1.
          6    1    1    2  501    0 -0.45378281867E+02 -0.26014301716E+02  0.25345716600E+03  0.31074180175E+03  0.17200000000E+03 0.  1.
         -6    1    1    2    0  503  0.45378281867E+02  0.26014301716E+02 -0.15292094228E+03  0.23601853094E+03  0.17200000000E+03 0. -1.
<mgrwt>
<rscale>  2 0.17977745E+03</rscale>
<asrwt>0</asrwt>
<pdfrwt beam="1">  1       21 0.80912069E-01 0.17977745E+03</pdfrwt>
<pdfrwt beam="2">  1       21 0.55778014E-01 0.17977745E+03</pdfrwt>
<totfact> 0.41020704E+03</totfact>
</mgrwt>
</event>
<event>
 4    1  0.1115666E+000  0.1884881E+03  0.7546771E-02  0.1159832E+00
         21   -1    0    0  503  502  0.00000000000E+00  0.00000000000E+00  0.33426065304E+02  0.33426065304E+02  0.00000000000E+00 0. -1.
         21   -1    0    0  501  503 -0.00000000000E+00 -0.00000000000E+00 -0.10628928303E+04  0.10628928303E+04  0.00000000000E+00 0. -1.
          6    1    1    2  501    0 -0.77079625791E+02  0.15739680615E+01 -0.51252036414E+03  0.54608137648E+03  0.17200000000E+03 0.  1.
         -6    1    1    2    0  502  0.77079625791E+02 -0.15739680615E+01 -0.51694640089E+03  0.55023751915E+03  0.17200000000E+03 0.  1.
<mgrwt>
<rscale>  2 0.18848805E+03</rscale>
<asrwt>0</asrwt>
<pdfrwt beam="1">  1       21 0.83565169E-02 0.18848805E+03</pdfrwt>
<pdfrwt beam="2">  1       21 0.26572319E+00 0.18848805E+03</pdfrwt>
<totfact> 0.60127759E+03</totfact>
</mgrwt>
</event>
<event>
 4    1  0.1115666E+000  0.3603891E+03  0.7546771E-02  0.1058430E+00
         21   -1    0    0  501  502  0.00000000000E+00  0.00000000000E+00  0.64167004770E+03  0.64167004770E+03  0.00000000000E+00 0. -1.
         21   -1    0    0  502  503 -0.00000000000E+00 -0.00000000000E+00 -0.48963858134E+03  0.48963858134E+03  0.00000000000E+00 0.  1.
          6    1    1    2  501    0  0.28765366798E+03  0.13248259314E+03  0.50925449762E+03  0.62387531890E+03  0.17200000000E+03 0. -1.
         -6    1    1    2    0  503 -0.28765366798E+03 -0.13248259314E+03 -0.35722303126E+03  0.50743331015E+03  0.17200000000E+03 0.  1.
<mgrwt>
<rscale>  2 0.36038905E+03</rscale>
<asrwt>0</asrwt>
<pdfrwt beam="1">  1       21 0.16041751E+00 0.36038905E+03</pdfrwt>
<pdfrwt beam="2">  1       21 0.12240965E+00 0.36038905E+03</pdfrwt>
<totfact> 0.10652418E+02</totfact>
</mgrwt>
</event>
<event>
 4    1  0.1115666E+000  0.1854573E+03  0.7546771E-02  0.1162624E+00
         21   -1    0    0  503  502  0.00000000000E+00  0.00000000000E+00  0.53381422418E+02  0.53381422418E+02  0.00000000000E+00 0. -1.
         21   -1    0    0  501  503 -0.00000000000E+00 -0.00000000000E+00 -0.92528962997E+03  0.92528962997E+03  0.00000000000E+00 0. -1.
          6    1    1    2  501    0 -0.56147045524E+02 -0.40717427907E+02 -0.70560520584E+03  0.72957049431E+03  0.17200000000E+03 0. -1.
         -6    1    1    2    0  502  0.56147045524E+02  0.40717427907E+02 -0.16630300171E+03  0.24910055807E+03  0.17200000000E+03 0. -1.
<mgrwt>
<rscale>  2 0.18545727E+03</rscale>
<asrwt>0</asrwt>
<pdfrwt beam="1">  1       21 0.13345356E-01 0.18545727E+03</pdfrwt>
<pdfrwt beam="2">  1       21 0.23132240E+00 0.18545727E+03</pdfrwt>
<totfact> 0.41940918E+03</totfact>
</mgrwt>
</event>
<event>
 4    1  0.1115666E+000  0.2001071E+03  0.7546771E-02  0.1149649E+00
         21   -1    0    0  501  502  0.00000000000E+00  0.00000000000E+00  0.53569414146E+03  0.53569414146E+03  0.00000000000E+00 0.  1.
         21   -1    0    0  502  503 -0.00000000000E+00 -0.00000000000E+00 -0.76224012390E+02  0.76224012390E+02  0.00000000000E+00 0.  1.
          6    1    1    2  501    0  0.95592436798E+02 -0.36344870937E+02  0.18718078967E+03  0.27400640803E+03  0.17200000000E+03 0.  1.
         -6    1    1    2    0  503 -0.95592436798E+02  0.36344870937E+02  0.27228933940E+03  0.33791174582E+03  0.17200000000E+03 0.  1.
<mgrwt>
<rscale>  2 0.20010713E+03</rscale>
<asrwt>0</asrwt>
<pdfrwt beam="1">  1       21 0.13392352E+00 0.20010713E+03</pdfrwt>
<pdfrwt beam="2">  1       21 0.19056005E-01 0.20010713E+03</pdfrwt>
<totfact> 0.10071476E+04</totfact>
</mgrwt>
</event>
<event>
 4    1  0.1115666E+000  0.2504909E+03  0.7546771E-02  0.1112995E+00
         21   -1    0    0  503  502  0.00000000000E+00  0.00000000000E+00  0.10147427703E+03  0.10147427703E+03  0.00000000000E+00 0. -1.
         21   -1    0    0  501  503 -0.00000000000E+00 -0.00000000000E+00 -0.11778004908E+04  0.11778004908E+04  0.00000000000E+00 0. -1.
          6    1    1    2  501    0  0.78069757230E+02 -0.16451991171E+03 -0.97900449687E+03  0.10105421779E+04  0.17200000000E+03 0. -1.
         -6    1    1    2    0  502 -0.78069757230E+02  0.16451991171E+03 -0.97321716932E+02  0.26873259000E+03  0.17200000000E+03 0. -1.
<mgrwt>
<rscale>  2 0.25049089E+03</rscale>
<asrwt>0</asrwt>
<pdfrwt beam="1">  1       21 0.25368570E-01 0.25049089E+03</pdfrwt>
<pdfrwt beam="2">  1       21 0.29445012E+00 0.25049089E+03</pdfrwt>
<totfact> 0.50344262E+02</totfact>
</mgrwt>
</event>
<event>
 4    1  0.1115666E+000  0.3006361E+03  0.7546771E-02  0.1084923E+00
         21   -1    0    0  501  502  0.00000000000E+00  0.00000000000E+00  0.57316839180E+03  0.57316839180E+03  0.00000000000E+00 0. -1.
         21   -1    0    0  502  503 -0.00000000000E+00 -0.00000000000E+00 -0.18289836355E+03  0.18289836355E+03  0.00000000000E+00 0. -1.
          6    1    1    2  501    0  0.14515530841E+03 -0.19931880714E+03  0.33548445515E+03  0.45047960008E+03  0.17200000000E+03 0. -1.
         -6    1    1    2    0  503 -0.14515530841E+03  0.19931880714E+03  0.54785573094E+02  0.30558715526E+03  0.17200000000E+03 0. -1.
<mgrwt>
<rscale>  2 0.30063608E+03</rscale>
<asrwt>0</asrwt>
<pdfrwt beam="1">  1       21 0.14329209E+00 0.30063608E+03</pdfrwt>
<pdfrwt beam="2">  1       21 0.45724592E-01 0.30063608E+03</pdfrwt>
<totfact> 0.14174302E+03</totfact>
</mgrwt>
</event>
<event>
 4    1  0.1115666E+000  0.1899628E+03  0.7546771E-02  0.1158495E+00
         21   -1    0    0  501  502  0.00000000000E+00  0.00000000000E+00  0.35031155492E+02  0.35031155492E+02  0.00000000000E+00 0.  1.
         21   -1    0    0  502  503 -0.00000000000E+00 -0.00000000000E+00 -0.11514593449E+04  0.11514593449E+04  0.00000000000E+00 0.  1.
          6    1    1    2  501    0 -0.28314962017E+02  0.75499089221E+02 -0.75080398550E+03  0.77446270032E+03  0.17200000000E+03 0.  1.
         -6    1    1    2    0  503  0.28314962017E+02 -0.75499089221E+02 -0.36562420392E+03  0.41202780008E+03  0.17200000000E+03 0.  1.
<mgrwt>
<rscale>  2 0.18996276E+03</rscale>
<asrwt>0</asrwt>
<pdfrwt beam="1">  1       21 0.87577892E-02 0.18996276E+03</pdfrwt>
<pdfrwt beam="2">  1       21 0.28786482E+00 0.18996276E+03</pdfrwt>
<totfact> 0.41208970E+03</totfact>
</mgrwt>
</event>
<event>
 4    1  0.1115666E+000  0.1984781E+03  0.7546771E-02  0.1151029E+00
         21   -1    0    0  503  502  0.00000000000E+00  0.00000000000E+00  0.28409154146E+03  0.28409154146E+03  0.00000000000E+00 0. -1.
         21   -1    0    0  501  503 -0.00000000000E+00 -0.00000000000E+00 -0.15332539419E+03  0.15332539419E+03  0.00000000000E+00 0. -1.
          6    1    1    2  501    0 -0.67355802523E+02  0.72613746312E+02 -0.22456246499E+01  0.19849081368E+03  0.17200000000E+03 0. -1.
         -6    1    1    2    0  502  0.67355802523E+02 -0.72613746312E+02  0.13301177192E+03  0.23892612196E+03  0.17200000000E+03 0. -1.
<mgrwt>
<rscale>  2 0.19847811E+03</rscale>
<asrwt>0</asrwt>
<pdfrwt beam="1">  1       21 0.71022885E-01 0.19847811E+03</pdfrwt>
<pdfrwt beam="2">  1       21 0.38331349E-01 0.19847811E+03</pdfrwt>
<totfact> 0.11731781E+04</totfact>
</mgrwt>
</event>
<event>
 4    1  0.1115666E+000  0.2174890E+03  0.7546771E-02  0.1135769E+00
         21   -1    0    0  501  502  0.00000000000E+00  0.00000000000E+00  0.66100281392E+02  0.66100281392E+02  0.00000000000E+00 0.  1.
         21   -1    0    0  502  503 -0.00000000000E+00 -0.00000000000E+00 -0.99279935408E+03  0.99279935408E+03  0.00000000000E+00 0.  1.
          6    1    1    2  501    0 -0.99345987058E+02 -0.88587942474E+02 -0.18358727345E+03  0.28461506578E+03  0.17200000000E+03 0.  1.
         -6    1    1    2    0  503  0.99345987058E+02  0.88587942474E+02 -0.74311179924E+03  0.77428456969E+03  0.17200000000E+03 0.  1.
<mgrwt>
<rscale>  2 0.21748896E+03</rscale>
<asrwt>0</asrwt>
<pdfrwt beam="1">  1       21 0.16525070E-01 0.21748896E+03</pdfrwt>
<pdfrwt beam="2">  1       21 0.24819984E+00 0.21748896E+03</pdfrwt>
<totfact> 0.21798788E+03</totfact>
</mgrwt>
</event>
<event>
 4    1  0.1115666E+000  0.1928899E+03  0.7546771E-02  0.1155880E+00
         21   -1    0    0  503  502  0.00000000000E+00  0.00000000000E+00  0.56915416654E+03  0.56915416654E+03  0.00000000000E+00 0.  1.
         21   -1    0    0  501  503 -0.00000000000E+00 -0.00000000000E+00 -0.72207305941E+02  0.72207305941E+02  0.00000000000E+00 0.  1.
          6    1    1    2  501    0 -0.78902298167E+02  0.37375701668E+02  0.14980592620E+03  0.24423007853E+03  0.17200000000E+03 0.  1.
         -6    1    1    2    0  502  0.78902298167E+02 -0.37375701668E+02  0.34714093440E+03  0.39713139396E+03  0.17200000000E+03 0.  1.
<mgrwt>
<rscale>  2 0.19288991E+03</rscale>
<asrwt>0</asrwt>
<pdfrwt beam="1">  1       21 0.14228853E+00 0.19288991E+03</pdfrwt>
<pdfrwt beam="2">  1       21 0.18051828E-01 0.19288991E+03</pdfrwt>
<totfact> 0.95808825E+03</totfact>
</mgrwt>
</event>
<event>
 4    1  0.1115666E+000  0.1934853E+03  0.7546771E-02  0.1155355E+00
         21   -1    0    0  503  502  0.00000000000E+00  0.00000000000E+00  0.14869252035E+04  0.14869252035E+04  0.00000000000E+00 0.  1.
         21   -1    0    0  501  503 -0.00000000000E+00 -0.00000000000E+00 -0.25178185327E+02  0.25178185327E+02  0.00000000000E+00 0.  1.
          6    1    1    2  501    0  0.57569914327E+02  0.67366718487E+02  0.72607425324E+03  0.75141226435E+03  0.17200000000E+03 0.  1.
         -6    1    1    2    0  502 -0.57569914327E+02 -0.67366718487E+02  0.73567276492E+03  0.76069112447E+03  0.17200000000E+03 0.  1.
<mgrwt>
<rscale>  2 0.19348532E+03</rscale>
<asrwt>0</asrwt>
<pdfrwt beam="1">  1       21 0.37173100E+00 0.19348532E+03</pdfrwt>
<pdfrwt beam="2">  1       21 0.62945513E-02 0.19348532E+03</pdfrwt>
<totfact> 0.23539438E+03</totfact>
</mgrwt>
</event>
<event>
 4    1  0.1115666E+000  0.2249466E+03  0.7546771E-02  0.1130248E+00
         21   -1    0    0  503  502  0.00000000000E+00  0.00000000000E+00  0.23945278625E+03  0.23945278625E+03  0.00000000000E+00 0. -1.
         21   -1    0    0  501  503 -0.00000000000E+00 -0.00000000000E+00 -0.36224425437E+03  0.36224425437E+03  0.00000000000E+00 0. -1.
          6    1    1    2  501    0 -0.26146153097E+02 -0.14259513299E+03 -0.25558609320E+03  0.34047796450E+03  0.17200000000E+03 0. -1.
         -6    1    1    2    0  502  0.26146153097E+02  0.14259513299E+03  0.13279462509E+03  0.26121907611E+03  0.17200000000E+03 0. -1.
<mgrwt>
<rscale>  2 0.22494665E+03</rscale>
<asrwt>0</asrwt>
<pdfrwt beam="1">  1       21 0.59863197E-01 0.22494665E+03</pdfrwt>
<pdfrwt beam="2">  1       21 0.90561063E-01 0.22494665E+03</pdfrwt>
<totfact> 0.26253830E+03</totfact>
</mgrwt>
</event>
<event>
 4    1  0.1115666E+000  0.2029023E+03  0.7546771E-02  0.1147313E+00
         21   -1    0    0  501  502  0.00000000000E+00  0.00000000000E+00  0.24254335240E+03  0.24254335240E+03  0.00000000000E+00 0.  1.
         21   -1    0    0  502  503 -0.00000000000E+00 -0.00000000000E+00 -0.29346972776E+03  0.29346972776E+03  0.00000000000E+00 0. -1.
          6    1    1    2  501    0 -0.15161224860E+02 -0.10656206075E+03  0.14855737621E+03  0.25147292013E+03  0.17200000000E+03 0.  1.
         -6    1    1    2    0  503  0.15161224860E+02  0.10656206075E+03 -0.19948375157E+03  0.28454016003E+03  0.17200000000E+03 0. -1.
<mgrwt>
<rscale>  2 0.20290228E+03</rscale>
<asrwt>0</asrwt>
<pdfrwt beam="1">  1       21 0.60635838E-01 0.20290228E+03</pdfrwt>
<pdfrwt beam="2">  1       21 0.73367431E-01 0.20290228E+03</pdfrwt>
<totfact> 0.41953611E+03</totfact>
</mgrwt>
</event>
<event>
 4    1  0.1115666E+000  0.1992066E+03  0.7546771E-02  0.1150410E+00
         21   -1    0    0  503  502  0.00000000000E+00  0.00000000000E+00  0.11187421470E+04  0.11187421470E+04  0.00000000000E+00 0.  1.
         21   -1    0    0  501  503 -0.00000000000E+00 -0.00000000000E+00 -0.38858785610E+02  0.38858785610E+02  0.00000000000E+00 0.  1.
          6    1    1    2  501    0 -0.98409876429E+02  0.20366151945E+02  0.36905021423E+03  0.41938209851E+03  0.17200000000E+03 0.  1.
         -6    1    1    2    0  502  0.98409876429E+02 -0.20366151945E+02  0.71083314713E+03  0.73821883407E+03  0.17200000000E+03 0.  1.
<mgrwt>
<rscale>  2 0.19920664E+03</rscale>
<asrwt>0</asrwt>
<pdfrwt beam="1">  1       21 0.27968543E+00 0.19920664E+03</pdfrwt>
<pdfrwt beam="2">  1       21 0.97147001E-02 0.19920664E+03</pdfrwt>
<totfact> 0.37881021E+03</totfact>
</mgrwt>
</event>
<event>
 4    1  0.1115666E+000  0.3546147E+03  0.7546771E-02  0.1060737E+00
         21   -1    0    0  503  502  0.00000000000E+00  0.00000000000E+00  0.83352063032E+03  0.83352063032E+03  0.00000000000E+00 0. -1.
         21   -1    0    0  501  503 -0.00000000000E+00 -0.00000000000E+00 -0.37198076992E+03  0.37198076992E+03  0.00000000000E+00 0. -1.
          6    1    1    2  501    0 -0.29729383658E+02 -0.30868062256E+03 -0.23394264413E+03  0.42483022932E+03  0.17200000000E+03 0. -1.
         -6    1    1    2    0  502  0.29729383658E+02  0.30868062256E+03  0.69548250453E+03  0.78067117092E+03  0.17200000000E+03 0. -1.
<mgrwt>
<rscale>  2 0.35461467E+03</rscale>
<asrwt>0</asrwt>
<pdfrwt beam="1">  1       21 0.20838015E+00 0.35461467E+03</pdfrwt>
<pdfrwt beam="2">  1       21 0.92995194E-01 0.35461467E+03</pdfrwt>
<totfact> 0.97709028E+01</totfact>
</mgrwt>
</event>
<event>
 4    1  0.1115666E+000  0.1842272E+03  0.7546771E-02  0.1163774E+00
         21   -1    0    0  501  502  0.00000000000E+00  0.00000000000E+00  0.23278920691E+03  0.23278920691E+03  0.00000000000E+00 0.  1.
         21   -1    0    0  502  503 -0.00000000000E+00 -0.00000000000E+00 -0.14583736964E+03  0.14583736964E+03  0.00000000000E+00 0.  1.
          6    1    1    2  501    0 -0.39707193217E+02  0.52716076346E+02  0.46679178078E+02  0.19004891887E+03  0.17200000000E+03 0.  1.
         -6    1    1    2    0  503  0.39707193217E+02 -0.52716076346E+02  0.40272659192E+02  0.18857765768E+03  0.17200000000E+03 0.  1.
<mgrwt>
<rscale>  2 0.18422716E+03</rscale>
<asrwt>0</asrwt>
<pdfrwt beam="1">  1       21 0.58197301E-01 0.18422716E+03</pdfrwt>
<pdfrwt beam="2">  1       21 0.36459343E-01 0.18422716E+03</pdfrwt>
<totfact> 0.20168916E+04</totfact>
</mgrwt>
</event>
<event>
 4    1  0.1115666E+000  0.2086642E+03  0.7546771E-02  0.1142628E+00
         21   -1    0    0  501  502  0.00000000000E+00  0.00000000000E+00  0.20816579774E+03  0.20816579774E+03  0.00000000000E+00 0.  1.
         21   -1    0    0  502  503 -0.00000000000E+00 -0.00000000000E+00 -0.21162292194E+03  0.21162292194E+03  0.00000000000E+00 0. -1.
          6    1    1    2  501    0 -0.11538331511E+03 -0.25366211650E+02 -0.24354542484E+02  0.21008069364E+03  0.17200000000E+03 0. -1.
         -6    1    1    2    0  503  0.11538331511E+03  0.25366211650E+02  0.20897418282E+02  0.20970802605E+03  0.17200000000E+03 0. -1.
<mgrwt>
<rscale>  2 0.20866421E+03</rscale>
<asrwt>0</asrwt>
<pdfrwt beam="1">  1       21 0.52041449E-01 0.20866421E+03</pdfrwt>
<pdfrwt beam="2">  1       21 0.52905730E-01 0.20866421E+03</pdfrwt>
<totfact> 0.11738876E+04</totfact>
</mgrwt>
</event>
<event>
 4    1  0.1115666E+000  0.1849372E+03  0.7546771E-02  0.1163109E+00
         21   -1    0    0  503  502  0.00000000000E+00  0.00000000000E+00  0.39419647213E+03  0.39419647213E+03  0.00000000000E+00 0. -1.
         21   -1    0    0  501  503 -0.00000000000E+00 -0.00000000000E+00 -0.93070832855E+02  0.93070832855E+02  0.00000000000E+00 0. -1.
          6    1    1    2  501    0 -0.42092769509E+02  0.53347773219E+02  0.87137846695E+02  0.20443774231E+03  0.17200000000E+03 0. -1.
         -6    1    1    2    0  502  0.42092769509E+02 -0.53347773219E+02  0.21398779258E+03  0.28282956268E+03  0.17200000000E+03 0. -1.
<mgrwt>
<rscale>  2 0.18493725E+03</rscale>
<asrwt>0</asrwt>
<pdfrwt beam="1">  1       21 0.98549114E-01 0.18493725E+03</pdfrwt>
<pdfrwt beam="2">  1       21 0.23267709E-01 0.18493725E+03</pdfrwt>
<totfact> 0.14830644E+04</totfact>
</mgrwt>
</event>
<event>
 4    1  0.1115666E+000  0.2431129E+03  0.7546771E-02  0.1117736E+00
         21   -1    0    0  503  502  0.00000000000E+00  0.00000000000E+00  0.83652192934E+02  0.83652192934E+02  0.00000000000E+00 0.  1.
         21   -1    0    0  501  503 -0.00000000000E+00 -0.00000000000E+00 -0.72113583289E+03  0.72113583289E+03  0.00000000000E+00 0.  1.
          6    1    1    2  501    0  0.12100901436E+03 -0.12197002847E+03 -0.37598359914E+03  0.44773601176E+03  0.17200000000E+03 0.  1.
         -6    1    1    2    0  502 -0.12100901436E+03  0.12197002847E+03 -0.26150004081E+03  0.35705201406E+03  0.17200000000E+03 0.  1.
<mgrwt>
<rscale>  2 0.24311287E+03</rscale>
<asrwt>0</asrwt>
<pdfrwt beam="1">  1       21 0.20913048E-01 0.24311287E+03</pdfrwt>
<pdfrwt beam="2">  1       21 0.18028396E+00 0.24311287E+03</pdfrwt>
<totfact> 0.36860845E+03</totfact>
</mgrwt>
</event>
<event>
 4    1  0.1115666E+000  0.1808858E+03  0.7546771E-02  0.1166948E+00
         21   -1    0    0  501  502  0.00000000000E+00  0.00000000000E+00  0.17880202423E+03  0.17880202423E+03  0.00000000000E+00 0.  1.
         21   -1    0    0  502  503 -0.00000000000E+00 -0.00000000000E+00 -0.26077393133E+03  0.26077393133E+03  0.00000000000E+00 0.  1.
          6    1    1    2  501    0 -0.32400835760E+02  0.45671316147E+02  0.79048480097E+02  0.19740401587E+03  0.17200000000E+03 0.  1.
         -6    1    1    2    0  503  0.32400835760E+02 -0.45671316147E+02 -0.16102038720E+03  0.24217193968E+03  0.17200000000E+03 0.  1.
<mgrwt>
<rscale>  2 0.18088583E+03</rscale>
<asrwt>0</asrwt>
<pdfrwt beam="1">  1       21 0.44700506E-01 0.18088583E+03</pdfrwt>
<pdfrwt beam="2">  1       21 0.65193482E-01 0.18088583E+03</pdfrwt>
<totfact> 0.10487262E+04</totfact>
</mgrwt>
</event>
<event>
 4    1  0.1115666E+000  0.2213307E+03  0.7546771E-02  0.1132895E+00
         21   -1    0    0  503  502  0.00000000000E+00  0.00000000000E+00  0.25045224402E+03  0.25045224402E+03  0.00000000000E+00 0.  1.
         21   -1    0    0  501  503 -0.00000000000E+00 -0.00000000000E+00 -0.22188594183E+03  0.22188594183E+03  0.00000000000E+00 0. -1.
          6    1    1    2  501    0 -0.13929397314E+03 -0.68055132529E+00 -0.67010946829E+02  0.23125254830E+03  0.17200000000E+03 0. -1.
         -6    1    1    2    0  502  0.13929397314E+03  0.68055132529E+00  0.95577249020E+02  0.24108563755E+03  0.17200000000E+03 0.  1.
<mgrwt>
<rscale>  2 0.22133069E+03</rscale>
<asrwt>0</asrwt>
<pdfrwt beam="1">  1       21 0.62613061E-01 0.22133069E+03</pdfrwt>
<pdfrwt beam="2">  1       21 0.55471486E-01 0.22133069E+03</pdfrwt>
<totfact> 0.70957858E+03</totfact>
</mgrwt>
</event>
<event>
 4    1  0.1115666E+000  0.2965217E+03  0.7546771E-02  0.1086992E+00
         21   -1    0    0  501  502  0.00000000000E+00  0.00000000000E+00  0.48767695469E+03  0.48767695469E+03  0.00000000000E+00 0.  1.
         21   -1    0    0  502  503 -0.00000000000E+00 -0.00000000000E+00 -0.25028186597E+03  0.25028186597E+03  0.00000000000E+00 0.  1.
          6    1    1    2  501    0 -0.19718934018E+03  0.13949014760E+03 -0.76421382882E+02  0.30621130763E+03  0.17200000000E+03 0.  1.
         -6    1    1    2    0  503  0.19718934018E+03 -0.13949014760E+03  0.31381647160E+03  0.43174751303E+03  0.17200000000E+03 0.  1.
<mgrwt>
<rscale>  2 0.29652173E+03</rscale>
<asrwt>0</asrwt>
<pdfrwt beam="1">  1       21 0.12191924E+00 0.29652173E+03</pdfrwt>
<pdfrwt beam="2">  1       21 0.62570467E-01 0.29652173E+03</pdfrwt>
<totfact> 0.11045275E+03</totfact>
</mgrwt>
</event>
<event>
 4    1  0.1115666E+000  0.2340458E+03  0.7546771E-02  0.1123824E+00
         21   -1    0    0  501  502  0.00000000000E+00  0.00000000000E+00  0.72492735012E+02  0.72492735012E+02  0.00000000000E+00 0. -1.
         21   -1    0    0  502  503 -0.00000000000E+00 -0.00000000000E+00 -0.86367964037E+03  0.86367964037E+03  0.00000000000E+00 0.  1.
          6    1    1    2  501    0 -0.11857365371E+02 -0.15828083254E+03 -0.23002845391E+03  0.32816232062E+03  0.17200000000E+03 0.  1.
         -6    1    1    2    0  503  0.11857365371E+02  0.15828083254E+03 -0.56115845144E+03  0.60801005476E+03  0.17200000000E+03 0.  1.
<mgrwt>
<rscale>  2 0.23404576E+03</rscale>
<asrwt>0</asrwt>
<pdfrwt beam="1">  1       21 0.18123184E-01 0.23404576E+03</pdfrwt>
<pdfrwt beam="2">  1       21 0.21591991E+00 0.23404576E+03</pdfrwt>
<totfact> 0.28408154E+03</totfact>
</mgrwt>
</event>
<event>
 4    1  0.1115666E+000  0.1829295E+03  0.7546771E-02  0.1164998E+00
         21   -1    0    0  503  502  0.00000000000E+00  0.00000000000E+00  0.19095342010E+03  0.19095342010E+03  0.00000000000E+00 0. -1.
         21   -1    0    0  501  503 -0.00000000000E+00 -0.00000000000E+00 -0.22023791783E+03  0.22023791783E+03  0.00000000000E+00 0. -1.
          6    1    1    2  501    0  0.43387519761E+01 -0.62132040874E+02 -0.10757109178E+03  0.21221393700E+03  0.17200000000E+03 0. -1.
         -6    1    1    2    0  502 -0.43387519761E+01  0.62132040874E+02  0.78286594052E+02  0.19897740093E+03  0.17200000000E+03 0. -1.
<mgrwt>
<rscale>  2 0.18292954E+03</rscale>
<asrwt>0</asrwt>
<pdfrwt beam="1">  1       21 0.47738355E-01 0.18292954E+03</pdfrwt>
<pdfrwt beam="2">  1       21 0.55059479E-01 0.18292954E+03</pdfrwt>
<totfact> 0.13138483E+04</totfact>
</mgrwt>
</event>
<event>
 4    1  0.1115666E+000  0.1816494E+03  0.7546771E-02  0.1166216E+00
         21   -1    0    0  501  502  0.00000000000E+00  0.00000000000E+00  0.84639106589E+02  0.84639106589E+02  0.00000000000E+00 0. -1.
         21   -1    0    0  502  503 -0.00000000000E+00 -0.00000000000E+00 -0.74709764486E+03  0.74709764486E+03  0.00000000000E+00 0. -1.
          6    1    1    2  501    0  0.56064780995E+02  0.16408419181E+02 -0.43653474016E+02  0.18682109539E+03  0.17200000000E+03 0. -1.
         -6    1    1    2    0  503 -0.56064780995E+02 -0.16408419181E+02 -0.61880506426E+03  0.64491565607E+03  0.17200000000E+03 0. -1.
<mgrwt>
<rscale>  2 0.18164938E+03</rscale>
<asrwt>0</asrwt>
<pdfrwt beam="1">  1       21 0.21159777E-01 0.18164938E+03</pdfrwt>
<pdfrwt beam="2">  1       21 0.18677441E+00 0.18164938E+03</pdfrwt>
<totfact> 0.34393006E+03</totfact>
</mgrwt>
</event>
<event>
 4    1  0.1115666E+000  0.1724145E+03  0.7546771E-02  0.1175353E+00
         21   -1    0    0  503  502  0.00000000000E+00  0.00000000000E+00  0.59613869568E+03  0.59613869568E+03  0.00000000000E+00 0.  1.
         21   -1    0    0  501  503 -0.00000000000E+00 -0.00000000000E+00 -0.65467985130E+02  0.65467985130E+02  0.00000000000E+00 0.  1.
          6    1    1    2  501    0  0.76684099461E+01  0.91633852598E+01  0.10384303776E+03  0.20127133087E+03  0.17200000000E+03 0.  1.
         -6    1    1    2    0  502 -0.76684099461E+01 -0.91633852598E+01  0.42682767279E+03  0.46033534993E+03  0.17200000000E+03 0.  1.
<mgrwt>
<rscale>  2 0.17241454E+03</rscale>
<asrwt>0</asrwt>
<pdfrwt beam="1">  1       21 0.14903466E+00 0.17241454E+03</pdfrwt>
<pdfrwt beam="2">  1       21 0.16366998E-01 0.17241454E+03</pdfrwt>
<totfact> 0.10330106E+04</totfact>
</mgrwt>
</event>
<event>
 4    1  0.1115666E+000  0.1822162E+03  0.7546771E-02  0.1165675E+00
         21   -1    0    0  503  502  0.00000000000E+00  0.00000000000E+00  0.44348297862E+03  0.44348297862E+03  0.00000000000E+00 0. -1.
         21   -1    0    0  501  503 -0.00000000000E+00 -0.00000000000E+00 -0.10271569016E+03  0.10271569016E+03  0.00000000000E+00 0. -1.
          6    1    1    2  501    0 -0.45788544960E+02 -0.39014578469E+02  0.28184804321E+02  0.18438305610E+03  0.17200000000E+03 0. -1.
         -6    1    1    2    0  502  0.45788544960E+02  0.39014578469E+02  0.31258248415E+03  0.36181561268E+03  0.17200000000E+03 0. -1.
<mgrwt>
<rscale>  2 0.18221616E+03</rscale>
<asrwt>0</asrwt>
<pdfrwt beam="1">  1       21 0.11087074E+00 0.18221616E+03</pdfrwt>
<pdfrwt beam="2">  1       21 0.25678924E-01 0.18221616E+03</pdfrwt>
<totfact> 0.92909790E+03</totfact>
</mgrwt>
</event>
<event>
 4    1  0.1115666E+000  0.1831618E+03  0.7546771E-02  0.1164778E+00
         21   -1    0    0  501  502  0.00000000000E+00  0.00000000000E+00  0.92415851377E+03  0.92415851377E+03  0.00000000000E+00 0.  1.
         21   -1    0    0  502  503 -0.00000000000E+00 -0.00000000000E+00 -0.36302317880E+02  0.36302317880E+02  0.00000000000E+00 0.  1.
          6    1    1    2  501    0 -0.35443361602E+01  0.62862328120E+02  0.44149453483E+03  0.47798081436E+03  0.17200000000E+03 0.  1.
         -6    1    1    2    0  503  0.35443361602E+01 -0.62862328120E+02  0.44636166106E+03  0.48248001729E+03  0.17200000000E+03 0.  1.
<mgrwt>
<rscale>  2 0.18316177E+03</rscale>
<asrwt>0</asrwt>
<pdfrwt beam="1">  1       21 0.23103955E+00 0.18316177E+03</pdfrwt>
<pdfrwt beam="2">  1       21 0.90755825E-02 0.18316177E+03</pdfrwt>
<totfact> 0.83726782E+03</totfact>
</mgrwt>
</event>
<event>
 4    1  0.1115666E+000  0.2031335E+03  0.7546771E-02  0.1147122E+00
         21   -1    0    0  501  502  0.00000000000E+00  0.00000000000E+00  0.84138617606E+03  0.84138617606E+03  0.00000000000E+00 0. -1.
         21   -1    0    0  502  503 -0.00000000000E+00 -0.00000000000E+00 -0.49267626019E+02  0.49267626019E+02  0.00000000000E+00 0. -1.
          6    1    1    2  501    0  0.36282661705E+02 -0.10179772928E+03  0.36591868579E+03  0.41852084039E+03  0.17200000000E+03 0. -1.
         -6    1    1    2    0  503 -0.36282661705E+02  0.10179772928E+03  0.42619986424E+03  0.47213296168E+03  0.17200000000E+03 0. -1.
<mgrwt>
<rscale>  2 0.20313348E+03</rscale>
<asrwt>0</asrwt>
<pdfrwt beam="1">  1       21 0.21034650E+00 0.20313348E+03</pdfrwt>
<pdfrwt beam="2">  1       21 0.12316909E-01 0.20313348E+03</pdfrwt>
<totfact> 0.64053562E+03</totfact>
</mgrwt>
</event>
<event>
 4    1  0.1115666E+000  0.1756483E+03  0.7546771E-02  0.1172082E+00
         21   -1    0    0  501  502  0.00000000000E+00  0.00000000000E+00  0.20210462692E+03  0.20210462692E+03  0.00000000000E+00 0. -1.
         21   -1    0    0  502  503 -0.00000000000E+00 -0.00000000000E+00 -0.25187302382E+03  0.25187302382E+03  0.00000000000E+00 0. -1.
          6    1    1    2  501    0 -0.30460185395E+02  0.18452487753E+02  0.11758092301E+03  0.21137074219E+03  0.17200000000E+03 0. -1.
         -6    1    1    2    0  503  0.30460185395E+02 -0.18452487753E+02 -0.16734931992E+03  0.24260690855E+03  0.17200000000E+03 0. -1.
<mgrwt>
<rscale>  2 0.17564828E+03</rscale>
<asrwt>0</asrwt>
<pdfrwt beam="1">  1       21 0.50526157E-01 0.17564828E+03</pdfrwt>
<pdfrwt beam="2">  1       21 0.62968256E-01 0.17564828E+03</pdfrwt>
<totfact> 0.88122399E+03</totfact>
</mgrwt>
</event>
<event>
 4    1  0.1115666E+000  0.1977665E+03  0.7546771E-02  0.1151637E+00
         21   -1    0    0  501  502  0.00000000000E+00  0.00000000000E+00  0.94681166789E+02  0.94681166789E+02  0.00000000000E+00 0.  1.
         21   -1    0    0  502  503 -0.00000000000E+00 -0.00000000000E+00 -0.60674606181E+03  0.60674606181E+03  0.00000000000E+00 0.  1.
          6    1    1    2  501    0  0.15253468207E+01  0.97597537850E+02 -0.57894573885E+02  0.20606646443E+03  0.17200000000E+03 0.  1.
         -6    1    1    2    0  503 -0.15253468207E+01 -0.97597537850E+02 -0.45417032114E+03  0.49536076417E+03  0.17200000000E+03 0.  1.
<mgrwt>
<rscale>  2 0.19776654E+03</rscale>
<asrwt>0</asrwt>
<pdfrwt beam="1">  1       21 0.23670292E-01 0.19776654E+03</pdfrwt>
<pdfrwt beam="2">  1       21 0.15168651E+00 0.19776654E+03</pdfrwt>
<totfact> 0.48568415E+03</totfact>
</mgrwt>
</event>
<event>
 4    1  0.1115666E+000  0.2028289E+03  0.7546771E-02  0.1147374E+00
         21   -1    0    0  503  502  0.00000000000E+00  0.00000000000E+00  0.54859192616E+03  0.54859192616E+03  0.00000000000E+00 0.  1.
         21   -1    0    0  501  503 -0.00000000000E+00 -0.00000000000E+00 -0.99149199648E+02  0.99149199648E+02  0.00000000000E+00 0. -1.
          6    1    1    2  501    0 -0.95474841241E+02 -0.49397698823E+02  0.64854971452E+02  0.21294540446E+03  0.17200000000E+03 0. -1.
         -6    1    1    2    0  502  0.95474841241E+02  0.49397698823E+02  0.38458775506E+03  0.43479572134E+03  0.17200000000E+03 0. -1.
<mgrwt>
<rscale>  2 0.20282894E+03</rscale>
<asrwt>0</asrwt>
<pdfrwt beam="1">  1       21 0.13714797E+00 0.20282894E+03</pdfrwt>
<pdfrwt beam="2">  1       21 0.24787301E-01 0.20282894E+03</pdfrwt>
<totfact> 0.57617856E+03</totfact>
</mgrwt>
</event>
<event>
 4    1  0.1115666E+000  0.1933910E+03  0.7546771E-02  0.1155438E+00
         21   -1    0    0  503  502  0.00000000000E+00  0.00000000000E+00  0.44730717313E+03  0.44730717313E+03  0.00000000000E+00 0.  1.
         21   -1    0    0  501  503 -0.00000000000E+00 -0.00000000000E+00 -0.13947211341E+03  0.13947211341E+03  0.00000000000E+00 0.  1.
          6    1    1    2  501    0 -0.43896362129E+02  0.76741028711E+02 -0.31757491729E+02  0.19598115822E+03  0.17200000000E+03 0.  1.
         -6    1    1    2    0  502  0.43896362129E+02 -0.76741028711E+02  0.33959255145E+03  0.39079812831E+03  0.17200000000E+03 0.  1.
<mgrwt>
<rscale>  2 0.19339099E+03</rscale>
<asrwt>0</asrwt>
<pdfrwt beam="1">  1       21 0.11182679E+00 0.19339099E+03</pdfrwt>
<pdfrwt beam="2">  1       21 0.34868029E-01 0.19339099E+03</pdfrwt>
<totfact> 0.49729409E+03</totfact>
</mgrwt>
</event>
<event>
 4    1  0.1115666E+000  0.2320684E+03  0.7546771E-02  0.1125192E+00
         21   -1    0    0  501  502  0.00000000000E+00  0.00000000000E+00  0.38941226478E+03  0.38941226478E+03  0.00000000000E+00 0. -1.
         21   -1    0    0  502  503 -0.00000000000E+00 -0.00000000000E+00 -0.16334422400E+03  0.16334422400E+03  0.00000000000E+00 0. -1.
          6    1    1    2  501    0 -0.96749675299E+02  0.12211150855E+03  0.22125355553E+03  0.32063820114E+03  0.17200000000E+03 0. -1.
         -6    1    1    2    0  503  0.96749675299E+02 -0.12211150855E+03  0.48144852460E+01  0.23211828765E+03  0.17200000000E+03 0. -1.
<mgrwt>
<rscale>  2 0.23206835E+03</rscale>
<asrwt>0</asrwt>
<pdfrwt beam="1">  1       21 0.97353064E-01 0.23206835E+03</pdfrwt>
<pdfrwt beam="2">  1       21 0.40836057E-01 0.23206835E+03</pdfrwt>
<totfact> 0.49061692E+03</totfact>
</mgrwt>
</event>
<event>
 4    1  0.1115666E+000  0.1947486E+03  0.7546771E-02  0.1154247E+00
         21   -1    0    0  501  502  0.00000000000E+00  0.00000000000E+00  0.95551066239E+02  0.95551066239E+02  0.00000000000E+00 0.  1.
         21   -1    0    0  502  503 -0.00000000000E+00 -0.00000000000E+00 -0.39692939901E+03  0.39692939901E+03  0.00000000000E+00 0.  1.
          6    1    1    2  501    0 -0.31344626773E+02 -0.85793458900E+02 -0.15049296133E+03  0.24612016298E+03  0.17200000000E+03 0. -1.
         -6    1    1    2    0  503  0.31344626773E+02  0.85793458900E+02 -0.15088537144E+03  0.24636030227E+03  0.17200000000E+03 0. -1.
<mgrwt>
<rscale>  2 0.19474856E+03</rscale>
<asrwt>0</asrwt>
<pdfrwt beam="1">  1       21 0.23887767E-01 0.19474856E+03</pdfrwt>
<pdfrwt beam="2">  1       21 0.99232348E-01 0.19474856E+03</pdfrwt>
<totfact> 0.13791772E+04</totfact>
</mgrwt>
</event>
<event>
 4    1  0.1115666E+000  0.3236378E+03  0.7546771E-02  0.1073987E+00
         21   -1    0    0  503  502  0.00000000000E+00  0.00000000000E+00  0.40859770444E+03  0.40859770444E+03  0.00000000000E+00 0. -1.
         21   -1    0    0  501  503 -0.00000000000E+00 -0.00000000000E+00 -0.25677878375E+03  0.25677878375E+03  0.00000000000E+00 0. -1.
          6    1    1    2  501    0  0.16566617011E+03 -0.21843115475E+03  0.89603827758E+02  0.33581288724E+03  0.17200000000E+03 0. -1.
         -6    1    1    2    0  502 -0.16566617011E+03  0.21843115475E+03  0.62215092938E+02  0.32956360095E+03  0.17200000000E+03 0. -1.
<mgrwt>
<rscale>  2 0.32363784E+03</rscale>
<asrwt>0</asrwt>
<pdfrwt beam="1">  1       21 0.10214943E+00 0.32363784E+03</pdfrwt>
<pdfrwt beam="2">  1       21 0.64194696E-01 0.32363784E+03</pdfrwt>
<totfact> 0.15890101E+03</totfact>
</mgrwt>
</event>
<event>
 4    1  0.1115666E+000  0.2147049E+03  0.7546771E-02  0.1137893E+00
         21   -1    0    0  503  502  0.00000000000E+00  0.00000000000E+00  0.14310275936E+04  0.14310275936E+04  0.00000000000E+00 0. -1.
         21   -1    0    0  501  503 -0.00000000000E+00 -0.00000000000E+00 -0.35098454330E+02  0.35098454330E+02  0.00000000000E+00 0. -1.
          6    1    1    2  501    0 -0.11787259422E+03 -0.51188434717E+02  0.48779130494E+03  0.53295268222E+03  0.17200000000E+03 0. -1.
         -6    1    1    2    0  502  0.11787259422E+03  0.51188434717E+02  0.90813783433E+03  0.93317336570E+03  0.17200000000E+03 0. -1.
<mgrwt>
<rscale>  2 0.21470492E+03</rscale>
<asrwt>0</asrwt>
<pdfrwt beam="1">  1       21 0.35775670E+00 0.21470492E+03</pdfrwt>
<pdfrwt beam="2">  1       21 0.87746184E-02 0.21470492E+03</pdfrwt>
<totfact> 0.15593969E+03</totfact>
</mgrwt>
</event>
<event>
 4    1  0.1115666E+000  0.2011632E+03  0.7546771E-02  0.1148761E+00
         21   -1    0    0  503  502  0.00000000000E+00  0.00000000000E+00  0.62144198729E+03  0.62144198729E+03  0.00000000000E+00 0.  1.
         21   -1    0    0  501  503 -0.00000000000E+00 -0.00000000000E+00 -0.66661825954E+02  0.66661825954E+02  0.00000000000E+00 0. -1.
          6    1    1    2  501    0 -0.96923864911E+02  0.38579816631E+02  0.32975975973E+03  0.38627469109E+03  0.17200000000E+03 0.  1.
         -6    1    1    2    0  502  0.96923864911E+02 -0.38579816631E+02  0.22502040161E+03  0.30182912215E+03  0.17200000000E+03 0. -1.
<mgrwt>
<rscale>  2 0.20116321E+03</rscale>
<asrwt>0</asrwt>
<pdfrwt beam="1">  1       21 0.15536048E+00 0.20116321E+03</pdfrwt>
<pdfrwt beam="2">  1       21 0.16665458E-01 0.20116321E+03</pdfrwt>
<totfact> 0.87554168E+03</totfact>
</mgrwt>
</event>
<event>
 4    1  0.1115666E+000  0.1907598E+03  0.7546771E-02  0.1157778E+00
         21   -1    0    0  501  502  0.00000000000E+00  0.00000000000E+00  0.57706846095E+03  0.57706846095E+03  0.00000000000E+00 0. -1.
         21   -1    0    0  502  503 -0.00000000000E+00 -0.00000000000E+00 -0.63060456037E+02  0.63060456037E+02  0.00000000000E+00 0.  1.
          6    1    1    2  501    0 -0.33275061497E+02 -0.75485489023E+02  0.25860589484E+03  0.32135073925E+03  0.17200000000E+03 0. -1.
         -6    1    1    2    0  503  0.33275061497E+02  0.75485489023E+02  0.25540211007E+03  0.31877817774E+03  0.17200000000E+03 0. -1.
<mgrwt>
<rscale>  2 0.19075977E+03</rscale>
<asrwt>0</asrwt>
<pdfrwt beam="1">  1       21 0.14426710E+00 0.19075977E+03</pdfrwt>
<pdfrwt beam="2">  1       21 0.15765116E-01 0.19075977E+03</pdfrwt>
<totfact> 0.11874884E+04</totfact>
</mgrwt>
</event>
<event>
 4    1  0.1115666E+000  0.1731154E+03  0.7546771E-02  0.1174637E+00
         21   -1    0    0  503  502  0.00000000000E+00  0.00000000000E+00  0.58103789465E+03  0.58103789465E+03  0.00000000000E+00 0.  1.
         21   -1    0    0  501  503 -0.00000000000E+00 -0.00000000000E+00 -0.63975836360E+02  0.63975836360E+02  0.00000000000E+00 0.  1.
          6    1    1    2  501    0 -0.17014424277E+02 -0.97699532709E+01  0.11656030393E+03  0.20869893884E+03  0.17200000000E+03 0.  1.
         -6    1    1    2    0  502  0.17014424277E+02  0.97699532709E+01  0.40050175436E+03  0.43631479217E+03  0.17200000000E+03 0.  1.
<mgrwt>
<rscale>  2 0.17311540E+03</rscale>
<asrwt>0</asrwt>
<pdfrwt beam="1">  1       21 0.14525946E+00 0.17311540E+03</pdfrwt>
<pdfrwt beam="2">  1       21 0.15993961E-01 0.17311540E+03</pdfrwt>
<totfact> 0.11513559E+04</totfact>
</mgrwt>
</event>
<event>
 4    1  0.1115666E+000  0.2594607E+03  0.7546771E-02  0.1107468E+00
         21   -1    0    0  503  502  0.00000000000E+00  0.00000000000E+00  0.57006213263E+03  0.57006213263E+03  0.00000000000E+00 0. -1.
         21   -1    0    0  501  503 -0.00000000000E+00 -0.00000000000E+00 -0.16611653324E+03  0.16611653324E+03  0.00000000000E+00 0.  1.
          6    1    1    2  501    0 -0.20110420411E+02  0.19321342735E+03  0.40582406842E+01  0.25949244080E+03  0.17200000000E+03 0.  1.
         -6    1    1    2    0  502  0.20110420411E+02 -0.19321342735E+03  0.39988735871E+03  0.47668622507E+03  0.17200000000E+03 0. -1.
<mgrwt>
<rscale>  2 0.25946071E+03</rscale>
<asrwt>0</asrwt>
<pdfrwt beam="1">  1       21 0.14251553E+00 0.25946071E+03</pdfrwt>
<pdfrwt beam="2">  1       21 0.41529135E-01 0.25946071E+03</pdfrwt>
<totfact> 0.18033175E+03</totfact>
</mgrwt>
</event>
<event>
 4    1  0.1115666E+000  0.2089047E+03  0.7546771E-02  0.1142436E+00
         21   -1    0    0  503  502  0.00000000000E+00  0.00000000000E+00  0.16302524569E+03  0.16302524569E+03  0.00000000000E+00 0. -1.
         21   -1    0    0  501  503 -0.00000000000E+00 -0.00000000000E+00 -0.29227526160E+03  0.29227526160E+03  0.00000000000E+00 0.  1.
          6    1    1    2  501    0  0.10522535189E+03 -0.54633434468E+02  0.13922638584E+01  0.20890937088E+03  0.17200000000E+03 0. -1.
         -6    1    1    2    0  502 -0.10522535189E+03  0.54633434468E+02 -0.13064227977E+03  0.24639113642E+03  0.17200000000E+03 0. -1.
<mgrwt>
<rscale>  2 0.20890473E+03</rscale>
<asrwt>0</asrwt>
<pdfrwt beam="1">  1       21 0.40756312E-01 0.20890473E+03</pdfrwt>
<pdfrwt beam="2">  1       21 0.73068815E-01 0.20890473E+03</pdfrwt>
<totfact> 0.96636522E+03</totfact>
</mgrwt>
</event>
<event>
 4    1  0.1115666E+000  0.2206746E+03  0.7546771E-02  0.1133381E+00
         21   -1    0    0  501  502  0.00000000000E+00  0.00000000000E+00  0.13138591652E+03  0.13138591652E+03  0.00000000000E+00 0.  1.
         21   -1    0    0  502  503 -0.00000000000E+00 -0.00000000000E+00 -0.37619711631E+03  0.37619711631E+03  0.00000000000E+00 0.  1.
          6    1    1    2  501    0 -0.98590974183E+02 -0.96918008900E+02 -0.15324271664E+03  0.26866449494E+03  0.17200000000E+03 0.  1.
         -6    1    1    2    0  503  0.98590974183E+02  0.96918008900E+02 -0.91568483144E+02  0.23891853788E+03  0.17200000000E+03 0.  1.
<mgrwt>
<rscale>  2 0.22067460E+03</rscale>
<asrwt>0</asrwt>
<pdfrwt beam="1">  1       21 0.32846480E-01 0.22067460E+03</pdfrwt>
<pdfrwt beam="2">  1       21 0.94049278E-01 0.22067460E+03</pdfrwt>
<totfact> 0.82974933E+03</totfact>
</mgrwt>
</event>
<event>
 4    1  0.1115666E+000  0.1944976E+03  0.7546771E-02  0.1154466E+00
         21   -1    0    0  503  502  0.00000000000E+00  0.00000000000E+00  0.59980477219E+03  0.59980477219E+03  0.00000000000E+00 0. -1.
         21   -1    0    0  501  503 -0.00000000000E+00 -0.00000000000E+00 -0.91687761578E+02  0.91687761578E+02  0.00000000000E+00 0.  1.
          6    1    1    2  501    0  0.19735517560E+02  0.88633166905E+02  0.60895401755E+02  0.20380770075E+03  0.17200000000E+03 0.  1.
         -6    1    1    2    0  502 -0.19735517560E+02 -0.88633166905E+02  0.44722160886E+03  0.48768483302E+03  0.17200000000E+03 0. -1.
<mgrwt>
<rscale>  2 0.19449763E+03</rscale>
<asrwt>0</asrwt>
<pdfrwt beam="1">  1       21 0.14995118E+00 0.19449763E+03</pdfrwt>
<pdfrwt beam="2">  1       21 0.22921942E-01 0.19449763E+03</pdfrwt>
<totfact> 0.53358072E+03</totfact>
</mgrwt>
</event>
<event>
 4    1  0.1115666E+000  0.1961632E+03  0.7546771E-02  0.1153017E+00
         21   -1    0    0  503  502  0.00000000000E+00  0.00000000000E+00  0.80548019043E+03  0.80548019043E+03  0.00000000000E+00 0. -1.
         21   -1    0    0  501  503 -0.00000000000E+00 -0.00000000000E+00 -0.56506665079E+02  0.56506665079E+02  0.00000000000E+00 0.  1.
          6    1    1    2  501    0  0.36405842274E+01 -0.94248405381E+02  0.20504325970E+03  0.28376531522E+03  0.17200000000E+03 0.  1.
         -6    1    1    2    0  502 -0.36405842274E+01  0.94248405381E+02  0.54393026565E+03  0.57822154030E+03  0.17200000000E+03 0. -1.
<mgrwt>
<rscale>  2 0.19616324E+03</rscale>
<asrwt>0</asrwt>
<pdfrwt beam="1">  1       21 0.20137001E+00 0.19616324E+03</pdfrwt>
<pdfrwt beam="2">  1       21 0.14126669E-01 0.19616324E+03</pdfrwt>
<totfact> 0.57376446E+03</totfact>
</mgrwt>
</event>
<event>
 4    1  0.1115666E+000  0.2231754E+03  0.7546771E-02  0.1131538E+00
         21   -1    0    0  501  502  0.00000000000E+00  0.00000000000E+00  0.58457606069E+02  0.58457606069E+02  0.00000000000E+00 0.  1.
         21   -1    0    0  502  503 -0.00000000000E+00 -0.00000000000E+00 -0.87493091084E+03  0.87493091084E+03  0.00000000000E+00 0.  1.
          6    1    1    2  501    0  0.14210475723E+03  0.54326215444E+01 -0.33272219092E+03  0.40063865482E+03  0.17200000000E+03 0.  1.
         -6    1    1    2    0  503 -0.14210475723E+03 -0.54326215444E+01 -0.48375111385E+03  0.53274986209E+03  0.17200000000E+03 0.  1.
<mgrwt>
<rscale>  2 0.22317544E+03</rscale>
<asrwt>0</asrwt>
<pdfrwt beam="1">  1       21 0.14614402E-01 0.22317544E+03</pdfrwt>
<pdfrwt beam="2">  1       21 0.21873273E+00 0.22317544E+03</pdfrwt>
<totfact> 0.40935167E+03</totfact>
</mgrwt>
</event>
<event>
 4    1  0.1115666E+000  0.2861539E+03  0.7546771E-02  0.1092374E+00
         21   -1    0    0  503  502  0.00000000000E+00  0.00000000000E+00  0.51182644942E+03  0.51182644942E+03  0.00000000000E+00 0.  1.
         21   -1    0    0  501  503 -0.00000000000E+00 -0.00000000000E+00 -0.23795973697E+03  0.23795973697E+03  0.00000000000E+00 0. -1.
          6    1    1    2  501    0  0.10053135725E+03 -0.20541062833E+03 -0.77669372630E+02  0.29650735483E+03  0.17200000000E+03 0.  1.
         -6    1    1    2    0  502 -0.10053135725E+03  0.20541062833E+03  0.35153608508E+03  0.45327883155E+03  0.17200000000E+03 0. -1.
<mgrwt>
<rscale>  2 0.28615394E+03</rscale>
<asrwt>0</asrwt>
<pdfrwt beam="1">  1       21 0.12795661E+00 0.28615394E+03</pdfrwt>
<pdfrwt beam="2">  1       21 0.59489935E-01 0.28615394E+03</pdfrwt>
<totfact> 0.10980073E+03</totfact>
</mgrwt>
</event>
<event>
 4    1  0.1115666E+000  0.2963699E+03  0.7546771E-02  0.1087069E+00
         21   -1    0    0  503  502  0.00000000000E+00  0.00000000000E+00  0.15021974322E+04  0.15021974322E+04  0.00000000000E+00 0.  1.
         21   -1    0    0  501  503 -0.00000000000E+00 -0.00000000000E+00 -0.65442357516E+02  0.65442357516E+02  0.00000000000E+00 0. -1.
          6    1    1    2  501    0 -0.12110281727E+02  0.24104860570E+03  0.46255231942E+03  0.54935392729E+03  0.17200000000E+03 0. -1.
         -6    1    1    2    0  502  0.12110281727E+02 -0.24104860570E+03  0.97420275522E+03  0.10182858624E+04  0.17200000000E+03 0.  1.
<mgrwt>
<rscale>  2 0.29636985E+03</rscale>
<asrwt>0</asrwt>
<pdfrwt beam="1">  1       21 0.37554925E+00 0.29636985E+03</pdfrwt>
<pdfrwt beam="2">  1       21 0.16360594E-01 0.29636985E+03</pdfrwt>
<totfact> 0.36041200E+02</totfact>
</mgrwt>
</event>
<event>
 4    1  0.1115666E+000  0.2625290E+03  0.7546771E-02  0.1105633E+00
         21   -1    0    0  501  502  0.00000000000E+00  0.00000000000E+00  0.25774485396E+03  0.25774485396E+03  0.00000000000E+00 0. -1.
         21   -1    0    0  502  503 -0.00000000000E+00 -0.00000000000E+00 -0.32568945201E+03  0.32568945201E+03  0.00000000000E+00 0. -1.
          6    1    1    2  501    0  0.17097761428E+03  0.10051922720E+03  0.89437057002E+02  0.27734535653E+03  0.17200000000E+03 0. -1.
         -6    1    1    2    0  503 -0.17097761428E+03 -0.10051922720E+03 -0.15738165505E+03  0.30608894944E+03  0.17200000000E+03 0. -1.
<mgrwt>
<rscale>  2 0.26252897E+03</rscale>
<asrwt>0</asrwt>
<pdfrwt beam="1">  1       21 0.64436214E-01 0.26252897E+03</pdfrwt>
<pdfrwt beam="2">  1       21 0.81422363E-01 0.26252897E+03</pdfrwt>
<totfact> 0.27854529E+03</totfact>
</mgrwt>
</event>
<event>
 4    1  0.1115666E+000  0.1730285E+03  0.7546771E-02  0.1174726E+00
         21   -1    0    0  501  502  0.00000000000E+00  0.00000000000E+00  0.13503024206E+04  0.13503024206E+04  0.00000000000E+00 0. -1.
         21   -1    0    0  502  503 -0.00000000000E+00 -0.00000000000E+00 -0.22652943597E+02  0.22652943597E+02  0.00000000000E+00 0. -1.
          6    1    1    2  501    0  0.15459114597E+02  0.10764503031E+02  0.76385392328E+03  0.78320602326E+03  0.17200000000E+03 0. -1.
         -6    1    1    2    0  503 -0.15459114597E+02 -0.10764503031E+02  0.56379555377E+03  0.58974934099E+03  0.17200000000E+03 0. -1.
<mgrwt>
<rscale>  2 0.17302849E+03</rscale>
<asrwt>0</asrwt>
<pdfrwt beam="1">  1       21 0.33757533E+00 0.17302849E+03</pdfrwt>
<pdfrwt beam="2">  1       21 0.56632405E-02 0.17302849E+03</pdfrwt>
<totfact> 0.46204763E+03</totfact>
</mgrwt>
</event>
<event>
 4    1  0.1115666E+000  0.1816133E+03  0.7546771E-02  0.1166251E+00
         21   -1    0    0  501  502  0.00000000000E+00  0.00000000000E+00  0.39653710700E+03  0.39653710700E+03  0.00000000000E+00 0. -1.
         21   -1    0    0  502  503 -0.00000000000E+00 -0.00000000000E+00 -0.94015019574E+02  0.94015019574E+02  0.00000000000E+00 0. -1.
          6    1    1    2  501    0 -0.12764766375E+02 -0.56889875919E+02  0.23453317174E+03  0.29662974545E+03  0.17200000000E+03 0. -1.
         -6    1    1    2    0  503  0.12764766375E+02  0.56889875919E+02  0.67988915687E+02  0.19392238112E+03  0.17200000000E+03 0. -1.
<mgrwt>
<rscale>  2 0.18161332E+03</rscale>
<asrwt>0</asrwt>
<pdfrwt beam="1">  1       21 0.99134273E-01 0.18161332E+03</pdfrwt>
<pdfrwt beam="2">  1       21 0.23503756E-01 0.18161332E+03</pdfrwt>
<totfact> 0.14379882E+04</totfact>
</mgrwt>
</event>
<event>
 4    1  0.1115666E+000  0.2149944E+03  0.7546771E-02  0.1137671E+00
         21   -1    0    0  501  502  0.00000000000E+00  0.00000000000E+00  0.37828298459E+03  0.37828298459E+03  0.00000000000E+00 0. -1.
         21   -1    0    0  502  503 -0.00000000000E+00 -0.00000000000E+00 -0.19959647123E+03  0.19959647123E+03  0.00000000000E+00 0. -1.
          6    1    1    2  501    0  0.10067709872E+03 -0.80639292166E+02  0.26927929792E+03  0.34457787790E+03  0.17200000000E+03 0. -1.
         -6    1    1    2    0  503 -0.10067709872E+03  0.80639292166E+02 -0.90592784559E+02  0.23330157792E+03  0.17200000000E+03 0. -1.
<mgrwt>
<rscale>  2 0.21499436E+03</rscale>
<asrwt>0</asrwt>
<pdfrwt beam="1">  1       21 0.94570745E-01 0.21499436E+03</pdfrwt>
<pdfrwt beam="2">  1       21 0.49899118E-01 0.21499436E+03</pdfrwt>
<totfact> 0.35180617E+03</totfact>
</mgrwt>
</event>
<event>
 4    1  0.1115666E+000  0.1785160E+03  0.7546771E-02  0.1169247E+00
         21   -1    0    0  503  502  0.00000000000E+00  0.00000000000E+00  0.92441578879E+02  0.92441578879E+02  0.00000000000E+00 0.  1.
         21   -1    0    0  501  503 -0.00000000000E+00 -0.00000000000E+00 -0.46363578701E+03  0.46363578701E+03  0.00000000000E+00 0.  1.
          6    1    1    2  501    0  0.24894307798E+01  0.47725913365E+02 -0.32639847769E+03  0.37202678171E+03  0.17200000000E+03 0.  1.
         -6    1    1    2    0  502 -0.24894307798E+01 -0.47725913365E+02 -0.44795730448E+02  0.18405058418E+03  0.17200000000E+03 0.  1.
<mgrwt>
<rscale>  2 0.17851599E+03</rscale>
<asrwt>0</asrwt>
<pdfrwt beam="1">  1       21 0.23110395E-01 0.17851599E+03</pdfrwt>
<pdfrwt beam="2">  1       21 0.11590895E+00 0.17851599E+03</pdfrwt>
<totfact> 0.10219342E+04</totfact>
</mgrwt>
</event>
<event>
 4    1  0.1115666E+000  0.2101394E+03  0.7546771E-02  0.1141456E+00
         21   -1    0    0  503  502  0.00000000000E+00  0.00000000000E+00  0.92350271663E+02  0.92350271663E+02  0.00000000000E+00 0.  1.
         21   -1    0    0  501  503 -0.00000000000E+00 -0.00000000000E+00 -0.49089193085E+03  0.49089193085E+03  0.00000000000E+00 0.  1.
          6    1    1    2  501    0  0.11426295664E+03  0.38968445796E+02 -0.24622856772E+03  0.32370831097E+03  0.17200000000E+03 0.  1.
         -6    1    1    2    0  502 -0.11426295664E+03 -0.38968445796E+02 -0.15231309146E+03  0.25953389154E+03  0.17200000000E+03 0.  1.
<mgrwt>
<rscale>  2 0.21013939E+03</rscale>
<asrwt>0</asrwt>
<pdfrwt beam="1">  1       21 0.23087568E-01 0.21013939E+03</pdfrwt>
<pdfrwt beam="2">  1       21 0.12272298E+00 0.21013939E+03</pdfrwt>
<totfact> 0.86889349E+03</totfact>
</mgrwt>
</event>
<event>
 4    1  0.1115666E+000  0.1854291E+03  0.7546771E-02  0.1162650E+00
         21   -1    0    0  501  502  0.00000000000E+00  0.00000000000E+00  0.49895137359E+03  0.49895137359E+03  0.00000000000E+00 0.  1.
         21   -1    0    0  502  503 -0.00000000000E+00 -0.00000000000E+00 -0.69048552397E+02  0.69048552397E+02  0.00000000000E+00 0.  1.
          6    1    1    2  501    0  0.68337248702E+02 -0.11399945926E+02  0.22756237318E+03  0.29354483816E+03  0.17200000000E+03 0.  1.
         -6    1    1    2    0  503 -0.68337248702E+02  0.11399945926E+02  0.20234044801E+03  0.27445508782E+03  0.17200000000E+03 0.  1.
<mgrwt>
<rscale>  2 0.18542907E+03</rscale>
<asrwt>0</asrwt>
<pdfrwt beam="1">  1       21 0.12473783E+00 0.18542907E+03</pdfrwt>
<pdfrwt beam="2">  1       21 0.17262140E-01 0.18542907E+03</pdfrwt>
<totfact> 0.14616032E+04</totfact>
</mgrwt>
</event>
<event>
 4    1  0.1115666E+000  0.1753846E+03  0.7546771E-02  0.1172346E+00
         21   -1    0    0  501  502  0.00000000000E+00  0.00000000000E+00  0.98389904823E+03  0.98389904823E+03  0.00000000000E+00 0. -1.
         21   -1    0    0  502  503 -0.00000000000E+00 -0.00000000000E+00 -0.32012083937E+02  0.32012083937E+02  0.00000000000E+00 0. -1.
          6    1    1    2  501    0 -0.23314678284E+02 -0.25143066713E+02  0.39824706952E+03  0.43515569215E+03  0.17200000000E+03 0.  1.
         -6    1    1    2    0  503  0.23314678284E+02  0.25143066713E+02  0.55363989477E+03  0.58075544002E+03  0.17200000000E+03 0.  1.
<mgrwt>
<rscale>  2 0.17538457E+03</rscale>
<asrwt>0</asrwt>
<pdfrwt beam="1">  1       21 0.24597466E+00 0.17538457E+03</pdfrwt>
<pdfrwt beam="2">  1       21 0.80030243E-02 0.17538457E+03</pdfrwt>
<totfact> 0.85684658E+03</totfact>
</mgrwt>
</event>
<event>
 4    1  0.1115666E+000  0.2535757E+03  0.7546771E-02  0.1111066E+00
         21   -1    0    0  503  502  0.00000000000E+00  0.00000000000E+00  0.72213925482E+02  0.72213925482E+02  0.00000000000E+00 0.  1.
         21   -1    0    0  501  503 -0.00000000000E+00 -0.00000000000E+00 -0.10330030140E+04  0.10330030140E+04  0.00000000000E+00 0. -1.
          6    1    1    2  501    0  0.17414395601E+03 -0.66261059831E+02 -0.27508824042E+03  0.37413124099E+03  0.17200000000E+03 0.  1.
         -6    1    1    2    0  502 -0.17414395601E+03  0.66261059831E+02 -0.68570084811E+03  0.73108569850E+03  0.17200000000E+03 0. -1.
<mgrwt>
<rscale>  2 0.25357572E+03</rscale>
<asrwt>0</asrwt>
<pdfrwt beam="1">  1       21 0.18053482E-01 0.25357572E+03</pdfrwt>
<pdfrwt beam="2">  1       21 0.25825075E+00 0.25357572E+03</pdfrwt>
<totfact> 0.15580954E+03</totfact>
</mgrwt>
</event>
<event>
 4    1  0.1115666E+000  0.2030891E+03  0.7546771E-02  0.1147159E+00
         21   -1    0    0  501  502  0.00000000000E+00  0.00000000000E+00  0.73684993475E+03  0.73684993475E+03  0.00000000000E+00 0. -1.
         21   -1    0    0  502  503 -0.00000000000E+00 -0.00000000000E+00 -0.71184499870E+02  0.71184499870E+02  0.00000000000E+00 0. -1.
          6    1    1    2  501    0  0.78549418245E+02  0.74102558188E+02  0.51958423245E+03  0.55786465639E+03  0.17200000000E+03 0. -1.
         -6    1    1    2    0  503 -0.78549418245E+02 -0.74102558188E+02  0.14608120243E+03  0.25016977823E+03  0.17200000000E+03 0. -1.
<mgrwt>
<rscale>  2 0.20308914E+03</rscale>
<asrwt>0</asrwt>
<pdfrwt beam="1">  1       21 0.18421246E+00 0.20308914E+03</pdfrwt>
<pdfrwt beam="2">  1       21 0.17796127E-01 0.20308914E+03</pdfrwt>
<totfact> 0.48410248E+03</totfact>
</mgrwt>
</event>
<event>
 4    1  0.1115666E+000  0.2051198E+03  0.7546771E-02  0.1145490E+00
         21   -1    0    0  503  502  0.00000000000E+00  0.00000000000E+00  0.65189267026E+03  0.65189267026E+03  0.00000000000E+00 0.  1.
         21   -1    0    0  501  503 -0.00000000000E+00 -0.00000000000E+00 -0.85990403479E+02  0.85990403479E+02  0.00000000000E+00 0. -1.
          6    1    1    2  501    0  0.95156439559E+02  0.58612029770E+02  0.46721293142E+03  0.51025683857E+03  0.17200000000E+03 0.  1.
         -6    1    1    2    0  502 -0.95156439559E+02 -0.58612029770E+02  0.98689335366E+02  0.22762623517E+03  0.17200000000E+03 0. -1.
<mgrwt>
<rscale>  2 0.20511977E+03</rscale>
<asrwt>0</asrwt>
<pdfrwt beam="1">  1       21 0.16297315E+00 0.20511977E+03</pdfrwt>
<pdfrwt beam="2">  1       21 0.21497603E-01 0.20511977E+03</pdfrwt>
<totfact> 0.47765316E+03</totfact>
</mgrwt>
</event>
<event>
 4    1  0.1115666E+000  0.1940786E+03  0.7546771E-02  0.1154833E+00
         21   -1    0    0  503  502  0.00000000000E+00  0.00000000000E+00  0.81254036206E+03  0.81254036206E+03  0.00000000000E+00 0. -1.
         21   -1    0    0  501  503 -0.00000000000E+00 -0.00000000000E+00 -0.70691786429E+02  0.70691786429E+02  0.00000000000E+00 0.  1.
          6    1    1    2  501    0  0.84879020328E+02 -0.29632041731E+02  0.11181745873E+03  0.22398582559E+03  0.17200000000E+03 0.  1.
         -6    1    1    2    0  502 -0.84879020328E+02  0.29632041731E+02  0.63003111690E+03  0.65924632290E+03  0.17200000000E+03 0. -1.
<mgrwt>
<rscale>  2 0.19407861E+03</rscale>
<asrwt>0</asrwt>
<pdfrwt beam="1">  1       21 0.20313506E+00 0.19407861E+03</pdfrwt>
<pdfrwt beam="2">  1       21 0.17672949E-01 0.19407861E+03</pdfrwt>
<totfact> 0.37186704E+03</totfact>
</mgrwt>
</event>
<event>
 4    1  0.1115666E+000  0.2360537E+03  0.7546771E-02  0.1122450E+00
         21   -1    0    0  501  502  0.00000000000E+00  0.00000000000E+00  0.90345981593E+03  0.90345981593E+03  0.00000000000E+00 0. -1.
         21   -1    0    0  502  503 -0.00000000000E+00 -0.00000000000E+00 -0.64710080358E+02  0.64710080358E+02  0.00000000000E+00 0.  1.
          6    1    1    2  501    0  0.90820837204E+01 -0.16141513184E+03  0.52420484056E+03  0.57490176891E+03  0.17200000000E+03 0.  1.
         -6    1    1    2    0  503 -0.90820837204E+01  0.16141513184E+03  0.31454489502E+03  0.39326812738E+03  0.17200000000E+03 0.  1.
<mgrwt>
<rscale>  2 0.23605366E+03</rscale>
<asrwt>0</asrwt>
<pdfrwt beam="1">  1       21 0.22586491E+00 0.23605366E+03</pdfrwt>
<pdfrwt beam="2">  1       21 0.16177523E-01 0.23605366E+03</pdfrwt>
<totfact> 0.30363977E+03</totfact>
</mgrwt>
</event>
<event>
 4    1  0.1115666E+000  0.2484887E+03  0.7546771E-02  0.1114264E+00
         21   -1    0    0  501  502  0.00000000000E+00  0.00000000000E+00  0.51725458035E+03  0.51725458035E+03  0.00000000000E+00 0. -1.
         21   -1    0    0  502  503 -0.00000000000E+00 -0.00000000000E+00 -0.11965186609E+03  0.11965186609E+03  0.00000000000E+00 0.  1.
          6    1    1    2  501    0 -0.93266143814E+02 -0.15317975207E+03  0.21415503602E+03  0.32803809151E+03  0.17200000000E+03 0. -1.
         -6    1    1    2    0  503  0.93266143814E+02  0.15317975207E+03  0.18344767824E+03  0.30886835493E+03  0.17200000000E+03 0.  1.
<mgrwt>
<rscale>  2 0.24848865E+03</rscale>
<asrwt>0</asrwt>
<pdfrwt beam="1">  1       21 0.12931364E+00 0.24848865E+03</pdfrwt>
<pdfrwt beam="2">  1       21 0.29912968E-01 0.24848865E+03</pdfrwt>
<totfact> 0.45022741E+03</totfact>
</mgrwt>
</event>
<event>
 4    1  0.1115666E+000  0.1914203E+03  0.7546771E-02  0.1157187E+00
         21   -1    0    0  501  502  0.00000000000E+00  0.00000000000E+00  0.13450807329E+03  0.13450807329E+03  0.00000000000E+00 0.  1.
         21   -1    0    0  502  503 -0.00000000000E+00 -0.00000000000E+00 -0.44991500127E+03  0.44991500127E+03  0.00000000000E+00 0. -1.
          6    1    1    2  501    0  0.78969415442E+00  0.84006620209E+02  0.25837858825E+02  0.19315623419E+03  0.17200000000E+03 0.  1.
         -6    1    1    2    0  503 -0.78969415442E+00 -0.84006620209E+02 -0.34124478680E+03  0.39126684038E+03  0.17200000000E+03 0. -1.
<mgrwt>
<rscale>  2 0.19142031E+03</rscale>
<asrwt>0</asrwt>
<pdfrwt beam="1">  1       21 0.33627019E-01 0.19142031E+03</pdfrwt>
<pdfrwt beam="2">  1       21 0.11247875E+00 0.19142031E+03</pdfrwt>
<totfact> 0.52761335E+03</totfact>
</mgrwt>
</event>
<event>
 4    1  0.1115666E+000  0.2165653E+03  0.7546771E-02  0.1136470E+00
         21   -1    0    0  501  502  0.00000000000E+00  0.00000000000E+00  0.83033270239E+03  0.83033270239E+03  0.00000000000E+00 0.  1.
         21   -1    0    0  502  503 -0.00000000000E+00 -0.00000000000E+00 -0.81700587758E+02  0.81700587758E+02  0.00000000000E+00 0.  1.
          6    1    1    2  501    0  0.34194333520E+02 -0.12707187064E+03  0.62766042875E+03  0.66397148023E+03  0.17200000000E+03 0.  1.
         -6    1    1    2    0  503 -0.34194333520E+02  0.12707187064E+03  0.12097168589E+03  0.24806180992E+03  0.17200000000E+03 0.  1.
<mgrwt>
<rscale>  2 0.21656526E+03</rscale>
<asrwt>0</asrwt>
<pdfrwt beam="1">  1       21 0.20758315E+00 0.21656526E+03</pdfrwt>
<pdfrwt beam="2">  1       21 0.20425149E-01 0.21656526E+03</pdfrwt>
<totfact> 0.26049152E+03</totfact>
</mgrwt>
</event>
<event>
 4    1  0.1115666E+000  0.1835627E+03  0.7546771E-02  0.1164399E+00
         21   -1    0    0  503  502  0.00000000000E+00  0.00000000000E+00  0.58719551090E+03  0.58719551090E+03  0.00000000000E+00 0. -1.
         21   -1    0    0  501  503 -0.00000000000E+00 -0.00000000000E+00 -0.76845313819E+02  0.76845313819E+02  0.00000000000E+00 0. -1.
          6    1    1    2  501    0  0.15963857634E+02  0.62100083123E+02  0.88085640938E+02  0.20360340177E+03  0.17200000000E+03 0. -1.
         -6    1    1    2    0  502 -0.15963857634E+02 -0.62100083123E+02  0.42226455614E+03  0.46043742295E+03  0.17200000000E+03 0. -1.
<mgrwt>
<rscale>  2 0.18356270E+03</rscale>
<asrwt>0</asrwt>
<pdfrwt beam="1">  1       21 0.14679886E+00 0.18356270E+03</pdfrwt>
<pdfrwt beam="2">  1       21 0.19211330E-01 0.18356270E+03</pdfrwt>
<totfact> 0.79268002E+03</totfact>
</mgrwt>
</event>
<event>
 4    1  0.1115666E+000  0.1789044E+03  0.7546771E-02  0.1168868E+00
         21   -1    0    0  503  502  0.00000000000E+00  0.00000000000E+00  0.39492851757E+03  0.39492851757E+03  0.00000000000E+00 0.  1.
         21   -1    0    0  501  503 -0.00000000000E+00 -0.00000000000E+00 -0.11085034457E+03  0.11085034457E+03  0.00000000000E+00 0.  1.
          6    1    1    2  501    0 -0.38302041932E+02  0.30914732512E+02  0.10905726853E+02  0.17923644155E+03  0.17200000000E+03 0.  1.
         -6    1    1    2    0  502  0.38302041932E+02 -0.30914732512E+02  0.27317244615E+03  0.32654242058E+03  0.17200000000E+03 0.  1.
<mgrwt>
<rscale>  2 0.17890435E+03</rscale>
<asrwt>0</asrwt>
<pdfrwt beam="1">  1       21 0.98732126E-01 0.17890435E+03</pdfrwt>
<pdfrwt beam="2">  1       21 0.27712587E-01 0.17890435E+03</pdfrwt>
<totfact> 0.10618668E+04</totfact>
</mgrwt>
</event>
<event>
 4    1  0.1115666E+000  0.1848917E+03  0.7546771E-02  0.1163151E+00
         21   -1    0    0  503  502  0.00000000000E+00  0.00000000000E+00  0.67806677961E+03  0.67806677961E+03  0.00000000000E+00 0. -1.
         21   -1    0    0  501  503 -0.00000000000E+00 -0.00000000000E+00 -0.50917207817E+02  0.50917207817E+02  0.00000000000E+00 0. -1.
          6    1    1    2  501    0 -0.67472561253E+02  0.69575236864E+01  0.27738724757E+03  0.33335962379E+03  0.17200000000E+03 0. -1.
         -6    1    1    2    0  502  0.67472561253E+02 -0.69575236864E+01  0.34976232421E+03  0.39562436363E+03  0.17200000000E+03 0. -1.
<mgrwt>
<rscale>  2 0.18489173E+03</rscale>
<asrwt>0</asrwt>
<pdfrwt beam="1">  1       21 0.16951667E+00 0.18489173E+03</pdfrwt>
<pdfrwt beam="2">  1       21 0.12729304E-01 0.18489173E+03</pdfrwt>
<totfact> 0.11421803E+04</totfact>
</mgrwt>
</event>
<event>
 4    1  0.1115666E+000  0.1879023E+03  0.7546771E-02  0.1160367E+00
         21   -1    0    0  501  502  0.00000000000E+00  0.00000000000E+00  0.67867440319E+03  0.67867440319E+03  0.00000000000E+00 0.  1.
         21   -1    0    0  502  503 -0.00000000000E+00 -0.00000000000E+00 -0.64649717294E+02  0.64649717294E+02  0.00000000000E+00 0.  1.
          6    1    1    2  501    0  0.39456268205E+01  0.75549342191E+02  0.47125846581E+03  0.50733796692E+03  0.17200000000E+03 0.  1.
         -6    1    1    2    0  503 -0.39456268205E+01 -0.75549342191E+02  0.14276622008E+03  0.23598615356E+03  0.17200000000E+03 0.  1.
<mgrwt>
<rscale>  2 0.18790229E+03</rscale>
<asrwt>0</asrwt>
<pdfrwt beam="1">  1       21 0.16966858E+00 0.18790229E+03</pdfrwt>
<pdfrwt beam="2">  1       21 0.16162431E-01 0.18790229E+03</pdfrwt>
<totfact> 0.73721458E+03</totfact>
</mgrwt>
</event>
<event>
 4    1  0.1115666E+000  0.1813578E+03  0.7546771E-02  0.1166495E+00
         21   -1    0    0  501  502  0.00000000000E+00  0.00000000000E+00  0.56937228932E+02  0.56937228932E+02  0.00000000000E+00 0.  1.
         21   -1    0    0  502  503 -0.00000000000E+00 -0.00000000000E+00 -0.80397541366E+03  0.80397541366E+03  0.00000000000E+00 0.  1.
          6    1    1    2  501    0  0.56400344288E+02 -0.11210103078E+02 -0.14513827495E+03  0.23228384382E+03  0.17200000000E+03 0.  1.
         -6    1    1    2    0  503 -0.56400344288E+02  0.11210103078E+02 -0.60189990978E+03  0.62862879877E+03  0.17200000000E+03 0.  1.
<mgrwt>
<rscale>  2 0.18135784E+03</rscale>
<asrwt>0</asrwt>
<pdfrwt beam="1">  1       21 0.14234307E-01 0.18135784E+03</pdfrwt>
<pdfrwt beam="2">  1       21 0.20099385E+00 0.18135784E+03</pdfrwt>
<totfact> 0.57692062E+03</totfact>
</mgrwt>
</event>
<event>
 4    1  0.1115666E+000  0.1744419E+03  0.7546771E-02  0.1173293E+00
         21   -1    0    0  501  502  0.00000000000E+00  0.00000000000E+00  0.46195556788E+02  0.46195556788E+02  0.00000000000E+00 0.  1.
         21   -1    0    0  502  503 -0.00000000000E+00 -0.00000000000E+00 -0.22387019445E+04  0.22387019445E+04  0.00000000000E+00 0.  1.
          6    1    1    2  501    0 -0.10919456421E+02 -0.26958185800E+02 -0.13648903347E+03  0.22149319305E+03  0.17200000000E+03 0.  1.
         -6    1    1    2    0  503  0.10919456421E+02  0.26958185800E+02 -0.20560173542E+04  0.20634043082E+04  0.17200000000E+03 0.  1.
<mgrwt>
<rscale>  2 0.17444191E+03</rscale>
<asrwt>0</asrwt>
<pdfrwt beam="1">  1       21 0.11548890E-01 0.17444191E+03</pdfrwt>
<pdfrwt beam="2">  1       21 0.55967546E+00 0.17444191E+03</pdfrwt>
<totfact> 0.45338744E+01</totfact>
</mgrwt>
</event>
<event>
 4    1  0.1115666E+000  0.1751137E+03  0.7546771E-02  0.1172618E+00
         21   -1    0    0  501  502  0.00000000000E+00  0.00000000000E+00  0.87881197259E+03  0.87881197259E+03  0.00000000000E+00 0.  1.
         21   -1    0    0  502  503 -0.00000000000E+00 -0.00000000000E+00 -0.45959954701E+02  0.45959954701E+02  0.00000000000E+00 0. -1.
          6    1    1    2  501    0  0.51428571938E+01  0.32470668239E+02  0.64331834277E+03  0.66672579327E+03  0.17200000000E+03 0.  1.
         -6    1    1    2    0  503 -0.51428571938E+01 -0.32470668239E+02  0.18953367512E+03  0.25804613402E+03  0.17200000000E+03 0. -1.
<mgrwt>
<rscale>  2 0.17511366E+03</rscale>
<asrwt>0</asrwt>
<pdfrwt beam="1">  1       21 0.21970294E+00 0.17511366E+03</pdfrwt>
<pdfrwt beam="2">  1       21 0.11489992E-01 0.17511366E+03</pdfrwt>
<totfact> 0.65162169E+03</totfact>
</mgrwt>
</event>
<event>
 4    1  0.1115666E+000  0.2062221E+03  0.7546771E-02  0.1144593E+00
         21   -1    0    0  501  502  0.00000000000E+00  0.00000000000E+00  0.83445985802E+03  0.83445985802E+03  0.00000000000E+00 0.  1.
         21   -1    0    0  502  503 -0.00000000000E+00 -0.00000000000E+00 -0.51958164760E+02  0.51958164760E+02  0.00000000000E+00 0.  1.
          6    1    1    2  501    0 -0.82310775919E+02  0.78539686406E+02  0.45255300892E+03  0.49732461436E+03  0.17200000000E+03 0.  1.
         -6    1    1    2    0  503  0.82310775919E+02 -0.78539686406E+02  0.32994868434E+03  0.38909340841E+03  0.17200000000E+03 0.  1.
<mgrwt>
<rscale>  2 0.20622208E+03</rscale>
<asrwt>0</asrwt>
<pdfrwt beam="1">  1       21 0.20861492E+00 0.20622208E+03</pdfrwt>
<pdfrwt beam="2">  1       21 0.12989544E-01 0.20622208E+03</pdfrwt>
<totfact> 0.59525484E+03</totfact>
</mgrwt>
</event>
<event>
 4    1  0.1115666E+000  0.2056971E+03  0.7546771E-02  0.1145019E+00
         21   -1    0    0  503  502  0.00000000000E+00  0.00000000000E+00  0.27606201724E+03  0.27606201724E+03  0.00000000000E+00 0. -1.
         21   -1    0    0  501  503 -0.00000000000E+00 -0.00000000000E+00 -0.26426122346E+03  0.26426122346E+03  0.00000000000E+00 0.  1.
          6    1    1    2  501    0 -0.97178933402E+02 -0.57302124168E+02 -0.16918766843E+03  0.26633765351E+03  0.17200000000E+03 0.  1.
         -6    1    1    2    0  502  0.97178933402E+02  0.57302124168E+02  0.18098846221E+03  0.27398558719E+03  0.17200000000E+03 0. -1.
<mgrwt>
<rscale>  2 0.20569706E+03</rscale>
<asrwt>0</asrwt>
<pdfrwt beam="1">  1       21 0.69015504E-01 0.20569706E+03</pdfrwt>
<pdfrwt beam="2">  1       21 0.66065306E-01 0.20569706E+03</pdfrwt>
<totfact> 0.39793752E+03</totfact>
</mgrwt>
</event>
<event>
 4    1  0.1115666E+000  0.1852473E+03  0.7546771E-02  0.1162819E+00
         21   -1    0    0  501  502  0.00000000000E+00  0.00000000000E+00  0.37714914826E+03  0.37714914826E+03  0.00000000000E+00 0.  1.
         21   -1    0    0  502  503 -0.00000000000E+00 -0.00000000000E+00 -0.91289819462E+02  0.91289819462E+02  0.00000000000E+00 0.  1.
          6    1    1    2  501    0  0.18644820468E+02  0.66218950134E+02  0.12949371818E+03  0.22602035690E+03  0.17200000000E+03 0.  1.
         -6    1    1    2    0  503 -0.18644820468E+02 -0.66218950134E+02  0.15636561062E+03  0.24241861082E+03  0.17200000000E+03 0.  1.
<mgrwt>
<rscale>  2 0.18524734E+03</rscale>
<asrwt>0</asrwt>
<pdfrwt beam="1">  1       21 0.94287283E-01 0.18524734E+03</pdfrwt>
<pdfrwt beam="2">  1       21 0.22822456E-01 0.18524734E+03</pdfrwt>
<totfact> 0.17060133E+04</totfact>
</mgrwt>
</event>
<event>
 4    1  0.1115666E+000  0.1961370E+03  0.7546771E-02  0.1153040E+00
         21   -1    0    0  503  502  0.00000000000E+00  0.00000000000E+00  0.58728570648E+03  0.58728570648E+03  0.00000000000E+00 0. -1.
         21   -1    0    0  501  503 -0.00000000000E+00 -0.00000000000E+00 -0.74721020160E+02  0.74721020160E+02  0.00000000000E+00 0. -1.
          6    1    1    2  501    0  0.10309440197E+02  0.93698735496E+02  0.14003065406E+03  0.24099444323E+03  0.17200000000E+03 0. -1.
         -6    1    1    2    0  502 -0.10309440197E+02 -0.93698735496E+02  0.37253403226E+03  0.42101228341E+03  0.17200000000E+03 0. -1.
<mgrwt>
<rscale>  2 0.19613704E+03</rscale>
<asrwt>0</asrwt>
<pdfrwt beam="1">  1       21 0.14682141E+00 0.19613704E+03</pdfrwt>
<pdfrwt beam="2">  1       21 0.18680257E-01 0.19613704E+03</pdfrwt>
<totfact> 0.82654382E+03</totfact>
</mgrwt>
</event>
<event>
 4    1  0.1115666E+000  0.1762670E+03  0.7546771E-02  0.1171465E+00
         21   -1    0    0  501  502  0.00000000000E+00  0.00000000000E+00  0.16379192333E+03  0.16379192333E+03  0.00000000000E+00 0.  1.
         21   -1    0    0  502  503 -0.00000000000E+00 -0.00000000000E+00 -0.20136604580E+03  0.20136604580E+03  0.00000000000E+00 0.  1.
          6    1    1    2  501    0 -0.22662479612E+01 -0.38482909935E+02 -0.62747536204E+02  0.18710244129E+03  0.17200000000E+03 0. -1.
         -6    1    1    2    0  503  0.22662479612E+01  0.38482909935E+02  0.25173413732E+02  0.17805552784E+03  0.17200000000E+03 0. -1.
<mgrwt>
<rscale>  2 0.17626704E+03</rscale>
<asrwt>0</asrwt>
<pdfrwt beam="1">  1       21 0.40947981E-01 0.17626704E+03</pdfrwt>
<pdfrwt beam="2">  1       21 0.50341511E-01 0.17626704E+03</pdfrwt>
<totfact> 0.21790223E+04</totfact>
</mgrwt>
</event>
<event>
 4    1  0.1115666E+000  0.1842215E+03  0.7546771E-02  0.1163779E+00
         21   -1    0    0  503  502  0.00000000000E+00  0.00000000000E+00  0.13869341125E+03  0.13869341125E+03  0.00000000000E+00 0. -1.
         21   -1    0    0  501  503 -0.00000000000E+00 -0.00000000000E+00 -0.28787959987E+03  0.28787959987E+03  0.00000000000E+00 0.  1.
          6    1    1    2  501    0  0.65450844526E+02  0.83513872543E+01 -0.15720132298E+03  0.24217723812E+03  0.17200000000E+03 0.  1.
         -6    1    1    2    0  502 -0.65450844526E+02 -0.83513872543E+01  0.80151343559E+01  0.18439577299E+03  0.17200000000E+03 0. -1.
<mgrwt>
<rscale>  2 0.18422149E+03</rscale>
<asrwt>0</asrwt>
<pdfrwt beam="1">  1       21 0.34673353E-01 0.18422149E+03</pdfrwt>
<pdfrwt beam="2">  1       21 0.71969899E-01 0.18422149E+03</pdfrwt>
<totfact> 0.14047354E+04</totfact>
</mgrwt>
</event>
<event>
 4    1  0.1115666E+000  0.1761578E+03  0.7546771E-02  0.1171574E+00
         21   -1    0    0  503  502  0.00000000000E+00  0.00000000000E+00  0.13091576198E+03  0.13091576198E+03  0.00000000000E+00 0.  1.
         21   -1    0    0  501  503 -0.00000000000E+00 -0.00000000000E+00 -0.24603743787E+03  0.24603743787E+03  0.00000000000E+00 0.  1.
          6    1    1    2  501    0 -0.23722909592E+02  0.29745389280E+02 -0.93614275170E+02  0.19948733578E+03  0.17200000000E+03 0. -1.
         -6    1    1    2    0  502  0.23722909592E+02 -0.29745389280E+02 -0.21507400721E+02  0.17746586407E+03  0.17200000000E+03 0. -1.
<mgrwt>
<rscale>  2 0.17615778E+03</rscale>
<asrwt>0</asrwt>
<pdfrwt beam="1">  1       21 0.32728941E-01 0.17615778E+03</pdfrwt>
<pdfrwt beam="2">  1       21 0.61509359E-01 0.17615778E+03</pdfrwt>
<totfact> 0.22286274E+04</totfact>
</mgrwt>
</event>
<event>
 4    1  0.1115666E+000  0.2029723E+03  0.7546771E-02  0.1147255E+00
         21   -1    0    0  501  502  0.00000000000E+00  0.00000000000E+00  0.25085572587E+03  0.25085572587E+03  0.00000000000E+00 0. -1.
         21   -1    0    0  502  503 -0.00000000000E+00 -0.00000000000E+00 -0.17052346216E+03  0.17052346216E+03  0.00000000000E+00 0. -1.
          6    1    1    2  501    0 -0.10658884562E+03  0.15892629975E+02  0.80645533494E+02  0.21840663857E+03  0.17200000000E+03 0. -1.
         -6    1    1    2    0  503  0.10658884562E+03 -0.15892629975E+02 -0.31326977461E+00  0.20297254946E+03  0.17200000000E+03 0. -1.
<mgrwt>
<rscale>  2 0.20297231E+03</rscale>
<asrwt>0</asrwt>
<pdfrwt beam="1">  1       21 0.62713931E-01 0.20297231E+03</pdfrwt>
<pdfrwt beam="2">  1       21 0.42630866E-01 0.20297231E+03</pdfrwt>
<totfact> 0.12383256E+04</totfact>
</mgrwt>
</event>
<event>
 4    1  0.1115666E+000  0.1724154E+03  0.7546771E-02  0.1175352E+00
         21   -1    0    0  501  502  0.00000000000E+00  0.00000000000E+00  0.75540590842E+02  0.75540590842E+02  0.00000000000E+00 0. -1.
         21   -1    0    0  502  503 -0.00000000000E+00 -0.00000000000E+00 -0.52779917987E+03  0.52779917987E+03  0.00000000000E+00 0. -1.
          6    1    1    2  501    0 -0.11961853417E+02 -0.31976306727E-01 -0.73971441426E+02  0.18761359521E+03  0.17200000000E+03 0. -1.
         -6    1    1    2    0  503  0.11961853417E+02  0.31976306727E-01 -0.37828714760E+03  0.41572617551E+03  0.17200000000E+03 0. -1.
<mgrwt>
<rscale>  2 0.17241545E+03</rscale>
<asrwt>0</asrwt>
<pdfrwt beam="1">  1       21 0.18885148E-01 0.17241545E+03</pdfrwt>
<pdfrwt beam="2">  1       21 0.13194979E+00 0.17241545E+03</pdfrwt>
<totfact> 0.10855453E+04</totfact>
</mgrwt>
</event>
<event>
 4    1  0.1115666E+000  0.1825353E+03  0.7546771E-02  0.1165372E+00
         21   -1    0    0  501  502  0.00000000000E+00  0.00000000000E+00  0.53304794778E+03  0.53304794778E+03  0.00000000000E+00 0.  1.
         21   -1    0    0  502  503 -0.00000000000E+00 -0.00000000000E+00 -0.71257194690E+02  0.71257194690E+02  0.00000000000E+00 0.  1.
          6    1    1    2  501    0  0.48134895805E+02  0.37658439858E+02  0.33677820415E+03  0.38306485753E+03  0.17200000000E+03 0.  1.
         -6    1    1    2    0  503 -0.48134895805E+02 -0.37658439858E+02  0.12501254894E+03  0.22124028494E+03  0.17200000000E+03 0.  1.
<mgrwt>
<rscale>  2 0.18253527E+03</rscale>
<asrwt>0</asrwt>
<pdfrwt beam="1">  1       21 0.13326198E+00 0.18253527E+03</pdfrwt>
<pdfrwt beam="2">  1       21 0.17814300E-01 0.18253527E+03</pdfrwt>
<totfact> 0.11703832E+04</totfact>
</mgrwt>
</event>
<event>
 4    1  0.1115666E+000  0.1737558E+03  0.7546771E-02  0.1173987E+00
         21   -1    0    0  503  502  0.00000000000E+00  0.00000000000E+00  0.70381299069E+03  0.70381299069E+03  0.00000000000E+00 0.  1.
         21   -1    0    0  501  503 -0.00000000000E+00 -0.00000000000E+00 -0.48885350618E+02  0.48885350618E+02  0.00000000000E+00 0.  1.
          6    1    1    2  501    0  0.11589705446E+01  0.24611621710E+02  0.19573665775E+03  0.26173252439E+03  0.17200000000E+03 0.  1.
         -6    1    1    2    0  502 -0.11589705446E+01 -0.24611621710E+02  0.45919098232E+03  0.49096581692E+03  0.17200000000E+03 0.  1.
<mgrwt>
<rscale>  2 0.17375579E+03</rscale>
<asrwt>0</asrwt>
<pdfrwt beam="1">  1       21 0.17595322E+00 0.17375579E+03</pdfrwt>
<pdfrwt beam="2">  1       21 0.12221340E-01 0.17375579E+03</pdfrwt>
<totfact> 0.11185106E+04</totfact>
</mgrwt>
</event>
<event>
 4    1  0.1115666E+000  0.3321797E+03  0.7546771E-02  0.1070176E+00
         21   -1    0    0  501  502  0.00000000000E+00  0.00000000000E+00  0.78173973861E+03  0.78173973861E+03  0.00000000000E+00 0. -1.
         21   -1    0    0  502  503 -0.00000000000E+00 -0.00000000000E+00 -0.14543590921E+03  0.14543590921E+03  0.00000000000E+00 0.  1.
          6    1    1    2  501    0  0.31366110059E+02  0.28244559472E+03  0.39772513673E+03  0.51819748284E+03  0.17200000000E+03 0.  1.
         -6    1    1    2    0  503 -0.31366110059E+02 -0.28244559472E+03  0.23857869266E+03  0.40897816497E+03  0.17200000000E+03 0. -1.
<mgrwt>
<rscale>  2 0.33217969E+03</rscale>
<asrwt>0</asrwt>
<pdfrwt beam="1">  1       21 0.19543492E+00 0.33217969E+03</pdfrwt>
<pdfrwt beam="2">  1       21 0.36358979E-01 0.33217969E+03</pdfrwt>
<totfact> 0.93127831E+02</totfact>
</mgrwt>
</event>
<event>
 4    1  0.1115666E+000  0.2120060E+03  0.7546771E-02  0.1139987E+00
         21   -1    0    0  501  502  0.00000000000E+00  0.00000000000E+00  0.30250285388E+03  0.30250285388E+03  0.00000000000E+00 0. -1.
         21   -1    0    0  502  503 -0.00000000000E+00 -0.00000000000E+00 -0.16843875439E+03  0.16843875439E+03  0.00000000000E+00 0. -1.
          6    1    1    2  501    0  0.56990186425E+02 -0.11006662987E+03  0.14787977905E+03  0.25848592498E+03  0.17200000000E+03 0. -1.
         -6    1    1    2    0  503 -0.56990186425E+02  0.11006662987E+03 -0.13815679557E+02  0.21245568329E+03  0.17200000000E+03 0. -1.
<mgrwt>
<rscale>  2 0.21200600E+03</rscale>
<asrwt>0</asrwt>
<pdfrwt beam="1">  1       21 0.75625713E-01 0.21200600E+03</pdfrwt>
<pdfrwt beam="2">  1       21 0.42109689E-01 0.21200600E+03</pdfrwt>
<totfact> 0.83559167E+03</totfact>
</mgrwt>
</event>
<event>
 4    1  0.1115666E+000  0.1821137E+03  0.7546771E-02  0.1165773E+00
         21   -1    0    0  501  502  0.00000000000E+00  0.00000000000E+00  0.24936459101E+03  0.24936459101E+03  0.00000000000E+00 0. -1.
         21   -1    0    0  502  503 -0.00000000000E+00 -0.00000000000E+00 -0.24218161847E+03  0.24218161847E+03  0.00000000000E+00 0. -1.
          6    1    1    2  501    0  0.52943086200E+02  0.27900369972E+02  0.16861249806E+03  0.24818455940E+03  0.17200000000E+03 0. -1.
         -6    1    1    2    0  503 -0.52943086200E+02 -0.27900369972E+02 -0.16142952553E+03  0.24336165009E+03  0.17200000000E+03 0. -1.
<mgrwt>
<rscale>  2 0.18211370E+03</rscale>
<asrwt>0</asrwt>
<pdfrwt beam="1">  1       21 0.62341148E-01 0.18211370E+03</pdfrwt>
<pdfrwt beam="2">  1       21 0.60545405E-01 0.18211370E+03</pdfrwt>
<totfact> 0.61126342E+03</totfact>
</mgrwt>
</event>
<event>
 4    1  0.1115666E+000  0.2811266E+03  0.7546771E-02  0.1095075E+00
         21   -1    0    0  503  502  0.00000000000E+00  0.00000000000E+00  0.10981568564E+04  0.10981568564E+04  0.00000000000E+00 0.  1.
         21   -1    0    0  501  503 -0.00000000000E+00 -0.00000000000E+00 -0.14553991208E+03  0.14553991208E+03  0.00000000000E+00 0. -1.
          6    1    1    2  501    0  0.82844098327E+02  0.20636137626E+03  0.34179014100E+02  0.28319669356E+03  0.17200000000E+03 0. -1.
         -6    1    1    2    0  502 -0.82844098327E+02 -0.20636137626E+03  0.91843793022E+03  0.96050007491E+03  0.17200000000E+03 0.  1.
<mgrwt>
<rscale>  2 0.28112659E+03</rscale>
<asrwt>0</asrwt>
<pdfrwt beam="1">  1       21 0.27453919E+00 0.28112659E+03</pdfrwt>
<pdfrwt beam="2">  1       21 0.36384981E-01 0.28112659E+03</pdfrwt>
<totfact> 0.31393743E+02</totfact>
</mgrwt>
</event>
<event>
 4    1  0.1115666E+000  0.1792483E+03  0.7546771E-02  0.1168533E+00
         21   -1    0    0  501  502  0.00000000000E+00  0.00000000000E+00  0.37295661611E+02  0.37295661611E+02  0.00000000000E+00 0.  1.
         21   -1    0    0  502  503 -0.00000000000E+00 -0.00000000000E+00 -0.88293629612E+03  0.88293629612E+03  0.00000000000E+00 0.  1.
          6    1    1    2  501    0 -0.83279283057E+01 -0.49765501430E+02 -0.35111585242E+03  0.39422366918E+03  0.17200000000E+03 0.  1.
         -6    1    1    2    0  503  0.83279283057E+01  0.49765501430E+02 -0.49452478209E+03  0.52600828855E+03  0.17200000000E+03 0.  1.
<mgrwt>
<rscale>  2 0.17924832E+03</rscale>
<asrwt>0</asrwt>
<pdfrwt beam="1">  1       21 0.93239152E-02 0.17924832E+03</pdfrwt>
<pdfrwt beam="2">  1       21 0.22073408E+00 0.17924832E+03</pdfrwt>
<totfact> 0.92528893E+03</totfact>
</mgrwt>
</event>
<event>
 4    1  0.1115666E+000  0.2489788E+03  0.7546771E-02  0.1113952E+00
         21   -1    0    0  501  502  0.00000000000E+00  0.00000000000E+00  0.23873003738E+03  0.23873003738E+03  0.00000000000E+00 0. -1.
         21   -1    0    0  502  503 -0.00000000000E+00 -0.00000000000E+00 -0.32926108429E+03  0.32926108429E+03  0.00000000000E+00 0.  1.
          6    1    1    2  501    0 -0.17728053681E+03 -0.31274227198E+02  0.85299095926E+02  0.26318510935E+03  0.17200000000E+03 0. -1.
         -6    1    1    2    0  503  0.17728053681E+03  0.31274227198E+02 -0.17583014284E+03  0.30480601232E+03  0.17200000000E+03 0.  1.
<mgrwt>
<rscale>  2 0.24897885E+03</rscale>
<asrwt>0</asrwt>
<pdfrwt beam="1">  1       21 0.59682509E-01 0.24897885E+03</pdfrwt>
<pdfrwt beam="2">  1       21 0.82315271E-01 0.24897885E+03</pdfrwt>
<totfact> 0.32380696E+03</totfact>
</mgrwt>
</event>
<event>
 4    1  0.1115666E+000  0.2300903E+03  0.7546771E-02  0.1126576E+00
         21   -1    0    0  503  502  0.00000000000E+00  0.00000000000E+00  0.21922844859E+03  0.21922844859E+03  0.00000000000E+00 0.  1.
         21   -1    0    0  501  503 -0.00000000000E+00 -0.00000000000E+00 -0.24161216423E+03  0.24161216423E+03  0.00000000000E+00 0. -1.
          6    1    1    2  501    0 -0.13425763424E+03 -0.73023451423E+02 -0.60163087028E+01  0.23016892227E+03  0.17200000000E+03 0.  1.
         -6    1    1    2    0  502  0.13425763424E+03  0.73023451423E+02 -0.16367406944E+02  0.23067169055E+03  0.17200000000E+03 0.  1.
<mgrwt>
<rscale>  2 0.23009028E+03</rscale>
<asrwt>0</asrwt>
<pdfrwt beam="1">  1       21 0.54807112E-01 0.23009028E+03</pdfrwt>
<pdfrwt beam="2">  1       21 0.60403041E-01 0.23009028E+03</pdfrwt>
<totfact> 0.78242129E+03</totfact>
</mgrwt>
</event>
<event>
 4    1  0.1115666E+000  0.2144467E+03  0.7546771E-02  0.1138092E+00
         21   -1    0    0  501  502  0.00000000000E+00  0.00000000000E+00  0.21658313291E+03  0.21658313291E+03  0.00000000000E+00 0.  1.
         21   -1    0    0  502  503 -0.00000000000E+00 -0.00000000000E+00 -0.34356305332E+03  0.34356305332E+03  0.00000000000E+00 0.  1.
          6    1    1    2  501    0  0.39274115595E+02  0.12190548767E+03  0.10960619782E+03  0.24083380718E+03  0.17200000000E+03 0.  1.
         -6    1    1    2    0  503 -0.39274115595E+02 -0.12190548767E+03 -0.23658611823E+03  0.31931237906E+03  0.17200000000E+03 0.  1.
<mgrwt>
<rscale>  2 0.21444674E+03</rscale>
<asrwt>0</asrwt>
<pdfrwt beam="1">  1       21 0.54145784E-01 0.21444674E+03</pdfrwt>
<pdfrwt beam="2">  1       21 0.85890763E-01 0.21444674E+03</pdfrwt>
<totfact> 0.37067485E+03</totfact>
</mgrwt>
</event>
<event>
 4    1  0.1115666E+000  0.2117020E+03  0.7546771E-02  0.1140225E+00
         21   -1    0    0  501  502  0.00000000000E+00  0.00000000000E+00  0.40353632237E+03  0.40353632237E+03  0.00000000000E+00 0. -1.
         21   -1    0    0  502  503 -0.00000000000E+00 -0.00000000000E+00 -0.11518898860E+03  0.11518898860E+03  0.00000000000E+00 0.  1.
          6    1    1    2  501    0  0.54950261178E+02 -0.11051784164E+03  0.19326399941E+03  0.28665082939E+03  0.17200000000E+03 0. -1.
         -6    1    1    2    0  503 -0.54950261178E+02  0.11051784164E+03  0.95083334372E+02  0.23207448158E+03  0.17200000000E+03 0.  1.
<mgrwt>
<rscale>  2 0.21170197E+03</rscale>
<asrwt>0</asrwt>
<pdfrwt beam="1">  1       21 0.10088408E+00 0.21170197E+03</pdfrwt>
<pdfrwt beam="2">  1       21 0.28797248E-01 0.21170197E+03</pdfrwt>
<totfact> 0.91527159E+03</totfact>
</mgrwt>
</event>
<event>
 4    1  0.1115666E+000  0.2681845E+03  0.7546771E-02  0.1102323E+00
         21   -1    0    0  503  502  0.00000000000E+00  0.00000000000E+00  0.49392067440E+03  0.49392067440E+03  0.00000000000E+00 0.  1.
         21   -1    0    0  501  503 -0.00000000000E+00 -0.00000000000E+00 -0.15362956655E+03  0.15362956655E+03  0.00000000000E+00 0. -1.
          6    1    1    2  501    0  0.28201942871E+02  0.20382238051E+03  0.96200309875E+02  0.28491650005E+03  0.17200000000E+03 0.  1.
         -6    1    1    2    0  502 -0.28201942871E+02 -0.20382238051E+03  0.24409079797E+03  0.36263374089E+03  0.17200000000E+03 0. -1.
<mgrwt>
<rscale>  2 0.26818447E+03</rscale>
<asrwt>0</asrwt>
<pdfrwt beam="1">  1       21 0.12348017E+00 0.26818447E+03</pdfrwt>
<pdfrwt beam="2">  1       21 0.38407393E-01 0.26818447E+03</pdfrwt>
<totfact> 0.30372052E+03</totfact>
</mgrwt>
</event>
<event>
 4    1  0.1115666E+000  0.2338729E+03  0.7546771E-02  0.1123943E+00
         21   -1    0    0  503  502  0.00000000000E+00  0.00000000000E+00  0.13242014262E+03  0.13242014262E+03  0.00000000000E+00 0.  1.
         21   -1    0    0  501  503 -0.00000000000E+00 -0.00000000000E+00 -0.87337707603E+03  0.87337707603E+03  0.00000000000E+00 0. -1.
          6    1    1    2  501    0 -0.15539515241E+03  0.31062788111E+02 -0.73557805146E+03  0.77186243592E+03  0.17200000000E+03 0. -1.
         -6    1    1    2    0  502  0.15539515241E+03 -0.31062788111E+02 -0.53788819538E+01  0.23393478272E+03  0.17200000000E+03 0.  1.
<mgrwt>
<rscale>  2 0.23387294E+03</rscale>
<asrwt>0</asrwt>
<pdfrwt beam="1">  1       21 0.33105037E-01 0.23387294E+03</pdfrwt>
<pdfrwt beam="2">  1       21 0.21834426E+00 0.23387294E+03</pdfrwt>
<totfact> 0.86491896E+02</totfact>
</mgrwt>
</event>
<event>
 4    1  0.1115666E+000  0.2543141E+03  0.7546771E-02  0.1110608E+00
         21   -1    0    0  503  502  0.00000000000E+00  0.00000000000E+00  0.68448067593E+03  0.68448067593E+03  0.00000000000E+00 0. -1.
         21   -1    0    0  501  503 -0.00000000000E+00 -0.00000000000E+00 -0.15993310537E+03  0.15993310537E+03  0.00000000000E+00 0. -1.
          6    1    1    2  501    0  0.15116916757E+03  0.11063257005E+03 -0.78062155995E+01  0.25443392027E+03  0.17200000000E+03 0. -1.
         -6    1    1    2    0  502 -0.15116916757E+03 -0.11063257005E+03  0.53235378617E+03  0.58997986103E+03  0.17200000000E+03 0. -1.
<mgrwt>
<rscale>  2 0.25431414E+03</rscale>
<asrwt>0</asrwt>
<pdfrwt beam="1">  1       21 0.17112016E+00 0.25431414E+03</pdfrwt>
<pdfrwt beam="2">  1       21 0.39983278E-01 0.25431414E+03</pdfrwt>
<totfact> 0.11929403E+03</totfact>
</mgrwt>
</event>
<event>
 4    1  0.1115666E+000  0.2088968E+03  0.7546771E-02  0.1142443E+00
         21   -1    0    0  503  502  0.00000000000E+00  0.00000000000E+00  0.76770668377E+02  0.76770668377E+02  0.00000000000E+00 0. -1.
         21   -1    0    0  501  503 -0.00000000000E+00 -0.00000000000E+00 -0.85965264652E+03  0.85965264652E+03  0.00000000000E+00 0.  1.
          6    1    1    2  501    0 -0.65495024052E+02 -0.98814320291E+02 -0.66396317760E+03  0.69604954513E+03  0.17200000000E+03 0.  1.
         -6    1    1    2    0  502  0.65495024052E+02  0.98814320291E+02 -0.11891880055E+03  0.24037376977E+03  0.17200000000E+03 0. -1.
<mgrwt>
<rscale>  2 0.20889679E+03</rscale>
<asrwt>0</asrwt>
<pdfrwt beam="1">  1       21 0.19192667E-01 0.20889679E+03</pdfrwt>
<pdfrwt beam="2">  1       21 0.21491316E+00 0.20889679E+03</pdfrwt>
<totfact> 0.26515845E+03</totfact>
</mgrwt>
</event>
<event>
 4    1  0.1115666E+000  0.2673985E+03  0.7546771E-02  0.1102778E+00
         21   -1    0    0  503  502  0.00000000000E+00  0.00000000000E+00  0.29079246795E+03  0.29079246795E+03  0.00000000000E+00 0.  1.
         21   -1    0    0  501  503 -0.00000000000E+00 -0.00000000000E+00 -0.26731439239E+03  0.26731439239E+03  0.00000000000E+00 0.  1.
          6    1    1    2  501    0 -0.18811654901E+03  0.80809224230E+02 -0.67267870408E+02  0.27572981906E+03  0.17200000000E+03 0.  1.
         -6    1    1    2    0  502  0.18811654901E+03 -0.80809224230E+02  0.90745945965E+02  0.28237704128E+03  0.17200000000E+03 0.  1.
<mgrwt>
<rscale>  2 0.26739852E+03</rscale>
<asrwt>0</asrwt>
<pdfrwt beam="1">  1       21 0.72698117E-01 0.26739852E+03</pdfrwt>
<pdfrwt beam="2">  1       21 0.66828598E-01 0.26739852E+03</pdfrwt>
<totfact> 0.33123395E+03</totfact>
</mgrwt>
</event>
<event>
 4    1  0.1115666E+000  0.1723853E+03  0.7546771E-02  0.1175383E+00
         21   -1    0    0  503  502  0.00000000000E+00  0.00000000000E+00  0.20034086897E+03  0.20034086897E+03  0.00000000000E+00 0. -1.
         21   -1    0    0  501  503 -0.00000000000E+00 -0.00000000000E+00 -0.16877504547E+03  0.16877504547E+03  0.00000000000E+00 0. -1.
          6    1    1    2  501    0 -0.91242304501E+01  0.70310073067E+01  0.80017070678E+02  0.19005109377E+03  0.17200000000E+03 0. -1.
         -6    1    1    2    0  502  0.91242304501E+01 -0.70310073067E+01 -0.48451247183E+02  0.17906482066E+03  0.17200000000E+03 0. -1.
<mgrwt>
<rscale>  2 0.17238529E+03</rscale>
<asrwt>0</asrwt>
<pdfrwt beam="1">  1       21 0.50085217E-01 0.17238529E+03</pdfrwt>
<pdfrwt beam="2">  1       21 0.42193761E-01 0.17238529E+03</pdfrwt>
<totfact> 0.20775500E+04</totfact>
</mgrwt>
</event>
<event>
 4    1  0.1115666E+000  0.2282080E+03  0.7546771E-02  0.1127907E+00
         21   -1    0    0  501  502  0.00000000000E+00  0.00000000000E+00  0.24626701756E+03  0.24626701756E+03  0.00000000000E+00 0.  1.
         21   -1    0    0  502  503 -0.00000000000E+00 -0.00000000000E+00 -0.21999804557E+03  0.21999804557E+03  0.00000000000E+00 0. -1.
          6    1    1    2  501    0 -0.51760311967E+02  0.14076847799E+03  0.59026239931E+02  0.23571803345E+03  0.17200000000E+03 0.  1.
         -6    1    1    2    0  503  0.51760311967E+02 -0.14076847799E+03 -0.32757267937E+02  0.23054702968E+03  0.17200000000E+03 0. -1.
<mgrwt>
<rscale>  2 0.22820801E+03</rscale>
<asrwt>0</asrwt>
<pdfrwt beam="1">  1       21 0.61566754E-01 0.22820801E+03</pdfrwt>
<pdfrwt beam="2">  1       21 0.54999511E-01 0.22820801E+03</pdfrwt>
<totfact> 0.74611228E+03</totfact>
</mgrwt>
</event>
<event>
 4    1  0.1115666E+000  0.1743873E+03  0.7546771E-02  0.1173348E+00
         21   -1    0    0  501  502  0.00000000000E+00  0.00000000000E+00  0.13405836082E+03  0.13405836082E+03  0.00000000000E+00 0. -1.
         21   -1    0    0  502  503 -0.00000000000E+00 -0.00000000000E+00 -0.23648885125E+03  0.23648885125E+03  0.00000000000E+00 0. -1.
          6    1    1    2  501    0 -0.15070142921E+02  0.24491528452E+02 -0.13808181360E+02  0.17493315880E+03  0.17200000000E+03 0. -1.
         -6    1    1    2    0  503  0.15070142921E+02 -0.24491528452E+02 -0.88622309077E+02  0.19561405328E+03  0.17200000000E+03 0. -1.
<mgrwt>
<rscale>  2 0.17438734E+03</rscale>
<asrwt>0</asrwt>
<pdfrwt beam="1">  1       21 0.33514590E-01 0.17438734E+03</pdfrwt>
<pdfrwt beam="2">  1       21 0.59122212E-01 0.17438734E+03</pdfrwt>
<totfact> 0.23178919E+04</totfact>
</mgrwt>
</event>
<event>
 4    1  0.1115666E+000  0.3578940E+03  0.7546771E-02  0.1059421E+00
         21   -1    0    0  503  502  0.00000000000E+00  0.00000000000E+00  0.47659111472E+03  0.47659111472E+03  0.00000000000E+00 0. -1.
         21   -1    0    0  501  503 -0.00000000000E+00 -0.00000000000E+00 -0.28143258435E+03  0.28143258435E+03  0.00000000000E+00 0. -1.
          6    1    1    2  501    0  0.20629017761E+03 -0.23653430630E+03  0.17800899718E+03  0.39971904947E+03  0.17200000000E+03 0. -1.
         -6    1    1    2    0  502 -0.20629017761E+03  0.23653430630E+03  0.17149533187E+02  0.35830464960E+03  0.17200000000E+03 0. -1.
<mgrwt>
<rscale>  2 0.35789400E+03</rscale>
<asrwt>0</asrwt>
<pdfrwt beam="1">  1       21 0.11914778E+00 0.35789400E+03</pdfrwt>
<pdfrwt beam="2">  1       21 0.70358147E-01 0.35789400E+03</pdfrwt>
<totfact> 0.87046618E+02</totfact>
</mgrwt>
</event>
<event>
 4    1  0.1115666E+000  0.2300904E+03  0.7546771E-02  0.1126576E+00
         21   -1    0    0  501  502  0.00000000000E+00  0.00000000000E+00  0.11925930250E+03  0.11925930250E+03  0.00000000000E+00 0.  1.
         21   -1    0    0  502  503 -0.00000000000E+00 -0.00000000000E+00 -0.44992477871E+03  0.44992477871E+03  0.00000000000E+00 0. -1.
          6    1    1    2  501    0  0.64778287094E+02 -0.13842451584E+03 -0.13245466926E+03  0.26549164295E+03  0.17200000000E+03 0. -1.
         -6    1    1    2    0  503 -0.64778287094E+02  0.13842451584E+03 -0.19821080696E+03  0.30369243826E+03  0.17200000000E+03 0.  1.
<mgrwt>
<rscale>  2 0.23009036E+03</rscale>
<asrwt>0</asrwt>
<pdfrwt beam="1">  1       21 0.29814826E-01 0.23009036E+03</pdfrwt>
<pdfrwt beam="2">  1       21 0.11248119E+00 0.23009036E+03</pdfrwt>
<totfact> 0.64941899E+03</totfact>
</mgrwt>
</event>
<event>
 4    1  0.1115666E+000  0.1884859E+03  0.7546771E-02  0.1159834E+00
         21   -1    0    0  503  502  0.00000000000E+00  0.00000000000E+00  0.37562222701E+02  0.37562222701E+02  0.00000000000E+00 0.  1.
         21   -1    0    0  501  503 -0.00000000000E+00 -0.00000000000E+00 -0.17739097109E+04  0.17739097109E+04  0.00000000000E+00 0.  1.
          6    1    1    2  501    0 -0.61701173830E+02 -0.46215828646E+02 -0.14870099234E+04  0.14989080859E+04  0.17200000000E+03 0.  1.
         -6    1    1    2    0  502  0.61701173830E+02  0.46215828646E+02 -0.24933756477E+03  0.31256384768E+03  0.17200000000E+03 0.  1.
<mgrwt>
<rscale>  2 0.18848591E+03</rscale>
<asrwt>0</asrwt>
<pdfrwt beam="1">  1       21 0.93905551E-02 0.18848591E+03</pdfrwt>
<pdfrwt beam="2">  1       21 0.44347745E+00 0.18848591E+03</pdfrwt>
<totfact> 0.41952017E+02</totfact>
</mgrwt>
</event>
<event>
 4    1  0.1115666E+000  0.2769499E+03  0.7546771E-02  0.1097367E+00
         21   -1    0    0  503  502  0.00000000000E+00  0.00000000000E+00  0.33385539962E+03  0.33385539962E+03  0.00000000000E+00 0.  1.
         21   -1    0    0  501  503 -0.00000000000E+00 -0.00000000000E+00 -0.25060563935E+03  0.25060563935E+03  0.00000000000E+00 0.  1.
          6    1    1    2  501    0  0.19653998248E+03 -0.92137319665E+02 -0.42690175704E+02  0.28022080846E+03  0.17200000000E+03 0.  1.
         -6    1    1    2    0  502 -0.19653998248E+03  0.92137319665E+02  0.12593993597E+03  0.30424023051E+03  0.17200000000E+03 0.  1.
<mgrwt>
<rscale>  2 0.27694991E+03</rscale>
<asrwt>0</asrwt>
<pdfrwt beam="1">  1       21 0.83463850E-01 0.27694991E+03</pdfrwt>
<pdfrwt beam="2">  1       21 0.62651410E-01 0.27694991E+03</pdfrwt>
<totfact> 0.27730569E+03</totfact>
</mgrwt>
</event>
<event>
 4    1  0.1115666E+000  0.2277057E+03  0.7546771E-02  0.1128265E+00
         21   -1    0    0  501  502  0.00000000000E+00  0.00000000000E+00  0.23015414586E+03  0.23015414586E+03  0.00000000000E+00 0. -1.
         21   -1    0    0  502  503 -0.00000000000E+00 -0.00000000000E+00 -0.23998484768E+03  0.23998484768E+03  0.00000000000E+00 0. -1.
          6    1    1    2  501    0  0.10830604913E+03  0.10264348798E+03 -0.63096978817E+02  0.23628608642E+03  0.17200000000E+03 0. -1.
         -6    1    1    2    0  503 -0.10830604913E+03 -0.10264348798E+03  0.53266276991E+02  0.23385290711E+03  0.17200000000E+03 0. -1.
<mgrwt>
<rscale>  2 0.22770570E+03</rscale>
<asrwt>0</asrwt>
<pdfrwt beam="1">  1       21 0.57538537E-01 0.22770570E+03</pdfrwt>
<pdfrwt beam="2">  1       21 0.59996212E-01 0.22770570E+03</pdfrwt>
<totfact> 0.71680784E+03</totfact>
</mgrwt>
</event>
<event>
 4    1  0.1115666E+000  0.3034015E+03  0.7546771E-02  0.1083553E+00
         21   -1    0    0  503  502  0.00000000000E+00  0.00000000000E+00  0.22183628398E+03  0.22183628398E+03  0.00000000000E+00 0.  1.
         21   -1    0    0  501  503 -0.00000000000E+00 -0.00000000000E+00 -0.45147608640E+03  0.45147608640E+03  0.00000000000E+00 0. -1.
          6    1    1    2  501    0  0.24659709199E+03  0.40722421033E+02 -0.21056824104E+03  0.36931209768E+03  0.17200000000E+03 0. -1.
         -6    1    1    2    0  502 -0.24659709199E+03 -0.40722421033E+02 -0.19071561382E+02  0.30400027271E+03  0.17200000000E+03 0.  1.
<mgrwt>
<rscale>  2 0.30340145E+03</rscale>
<asrwt>0</asrwt>
<pdfrwt beam="1">  1       21 0.55459072E-01 0.30340145E+03</pdfrwt>
<pdfrwt beam="2">  1       21 0.11286902E+00 0.30340145E+03</pdfrwt>
<totfact> 0.17304074E+03</totfact>
</mgrwt>
</event>
<event>
 4    1  0.1115666E+000  0.2054190E+03  0.7546771E-02  0.1145246E+00
         21   -1    0    0  503  502  0.00000000000E+00  0.00000000000E+00  0.16751008408E+03  0.16751008408E+03  0.00000000000E+00 0.  1.
         21   -1    0    0  501  503 -0.00000000000E+00 -0.00000000000E+00 -0.34766801855E+03  0.34766801855E+03  0.00000000000E+00 0.  1.
          6    1    1    2  501    0 -0.26297005796E+02  0.10918527141E+03 -0.22526738903E+03  0.30486448230E+03  0.17200000000E+03 0.  1.
         -6    1    1    2    0  502  0.26297005796E+02 -0.10918527141E+03  0.45109454556E+02  0.21031362033E+03  0.17200000000E+03 0.  1.
<mgrwt>
<rscale>  2 0.20541898E+03</rscale>
<asrwt>0</asrwt>
<pdfrwt beam="1">  1       21 0.41877521E-01 0.20541898E+03</pdfrwt>
<pdfrwt beam="2">  1       21 0.86917004E-01 0.20541898E+03</pdfrwt>
<totfact> 0.61892419E+03</totfact>
</mgrwt>
</event>
<event>
 4    1  0.1115666E+000  0.1776032E+03  0.7546771E-02  0.1170143E+00
         21   -1    0    0  501  502  0.00000000000E+00  0.00000000000E+00  0.51389885531E+02  0.51389885531E+02  0.00000000000E+00 0.  1.
         21   -1    0    0  502  503 -0.00000000000E+00 -0.00000000000E+00 -0.73866074988E+03  0.73866074988E+03  0.00000000000E+00 0.  1.
          6    1    1    2  501    0 -0.44254239372E+02  0.66491090499E+00 -0.18122151615E+03  0.25374025641E+03  0.17200000000E+03 0. -1.
         -6    1    1    2    0  503  0.44254239372E+02 -0.66491090499E+00 -0.50604934819E+03  0.53631037899E+03  0.17200000000E+03 0. -1.
<mgrwt>
<rscale>  2 0.17760315E+03</rscale>
<asrwt>0</asrwt>
<pdfrwt beam="1">  1       21 0.12847472E-01 0.17760315E+03</pdfrwt>
<pdfrwt beam="2">  1       21 0.18466518E+00 0.17760315E+03</pdfrwt>
<totfact> 0.88996200E+03</totfact>
</mgrwt>
</event>
<event>
 4    1  0.1115666E+000  0.3404692E+03  0.7546771E-02  0.1066596E+00
         21   -1    0    0  501  502  0.00000000000E+00  0.00000000000E+00  0.22988655607E+03  0.22988655607E+03  0.00000000000E+00 0. -1.
         21   -1    0    0  502  503 -0.00000000000E+00 -0.00000000000E+00 -0.52993030085E+03  0.52993030085E+03  0.00000000000E+00 0.  1.
          6    1    1    2  501    0  0.95660544157E+02 -0.27782067254E+03 -0.66383130334E+02  0.34688036236E+03  0.17200000000E+03 0. -1.
         -6    1    1    2    0  503 -0.95660544157E+02  0.27782067254E+03 -0.23366061445E+03  0.41293649456E+03  0.17200000000E+03 0.  1.
<mgrwt>
<rscale>  2 0.34046918E+03</rscale>
<asrwt>0</asrwt>
<pdfrwt beam="1">  1       21 0.57471639E-01 0.34046918E+03</pdfrwt>
<pdfrwt beam="2">  1       21 0.13248257E+00 0.34046918E+03</pdfrwt>
<totfact> 0.10462085E+03</totfact>
</mgrwt>
</event>
<event>
 4    1  0.1115666E+000  0.2311296E+03  0.7546771E-02  0.1125847E+00
         21   -1    0    0  501  502  0.00000000000E+00  0.00000000000E+00  0.41117834281E+03  0.41117834281E+03  0.00000000000E+00 0. -1.
         21   -1    0    0  502  503 -0.00000000000E+00 -0.00000000000E+00 -0.31800320756E+03  0.31800320756E+03  0.00000000000E+00 0.  1.
          6    1    1    2  501    0  0.15412148176E+03 -0.91365415549E+01  0.32697800879E+03  0.40041918755E+03  0.17200000000E+03 0. -1.
         -6    1    1    2    0  503 -0.15412148176E+03  0.91365415549E+01 -0.23380287353E+03  0.32876236282E+03  0.17200000000E+03 0.  1.
<mgrwt>
<rscale>  2 0.23112963E+03</rscale>
<asrwt>0</asrwt>
<pdfrwt beam="1">  1       21 0.10279459E+00 0.23112963E+03</pdfrwt>
<pdfrwt beam="2">  1       21 0.79500802E-01 0.23112963E+03</pdfrwt>
<totfact> 0.10343328E+03</totfact>
</mgrwt>
</event>
<event>
 4    1  0.1115666E+000  0.1723428E+03  0.7546771E-02  0.1175426E+00
         21   -1    0    0  501  502  0.00000000000E+00  0.00000000000E+00  0.36332344286E+02  0.36332344286E+02  0.00000000000E+00 0. -1.
         21   -1    0    0  502  503 -0.00000000000E+00 -0.00000000000E+00 -0.84276090203E+03  0.84276090203E+03  0.00000000000E+00 0. -1.
          6    1    1    2  501    0 -0.10385884583E+02  0.31886583014E+01 -0.32712979636E+03  0.36975118364E+03  0.17200000000E+03 0. -1.
         -6    1    1    2    0  503  0.10385884583E+02 -0.31886583014E+01 -0.47929876138E+03  0.50934206267E+03  0.17200000000E+03 0. -1.
<mgrwt>
<rscale>  2 0.17234278E+03</rscale>
<asrwt>0</asrwt>
<pdfrwt beam="1">  1       21 0.90830868E-02 0.17234278E+03</pdfrwt>
<pdfrwt beam="2">  1       21 0.21069021E+00 0.17234278E+03</pdfrwt>
<totfact> 0.11243374E+04</totfact>
</mgrwt>
</event>
<event>
 4    1  0.1115666E+000  0.2102271E+03  0.7546771E-02  0.1141386E+00
         21   -1    0    0  501  502  0.00000000000E+00  0.00000000000E+00  0.20243941394E+03  0.20243941394E+03  0.00000000000E+00 0.  1.
         21   -1    0    0  502  503 -0.00000000000E+00 -0.00000000000E+00 -0.39547363887E+03  0.39547363887E+03  0.00000000000E+00 0.  1.
          6    1    1    2  501    0 -0.11667823374E+03 -0.31585502565E+02  0.10357551209E+03  0.23435729326E+03  0.17200000000E+03 0.  1.
         -6    1    1    2    0  503  0.11667823374E+03  0.31585502565E+02 -0.29660973703E+03  0.36355575955E+03  0.17200000000E+03 0.  1.
<mgrwt>
<rscale>  2 0.21022715E+03</rscale>
<asrwt>0</asrwt>
<pdfrwt beam="1">  1       21 0.50609854E-01 0.21022715E+03</pdfrwt>
<pdfrwt beam="2">  1       21 0.98868409E-01 0.21022715E+03</pdfrwt>
<totfact> 0.30874832E+03</totfact>
</mgrwt>
</event>
<event>
 4    1  0.1115666E+000  0.2084642E+03  0.7546771E-02  0.1142788E+00
         21   -1    0    0  501  502  0.00000000000E+00  0.00000000000E+00  0.84504503754E+03  0.84504503754E+03  0.00000000000E+00 0.  1.
         21   -1    0    0  502  503 -0.00000000000E+00 -0.00000000000E+00 -0.97682383708E+02  0.97682383708E+02  0.00000000000E+00 0.  1.
          6    1    1    2  501    0 -0.92317263114E+02  0.73149487278E+02  0.69804607147E+03  0.72850919174E+03  0.17200000000E+03 0.  1.
         -6    1    1    2    0  503  0.92317263114E+02 -0.73149487278E+02  0.49316582367E+02  0.21421822951E+03  0.17200000000E+03 0.  1.
<mgrwt>
<rscale>  2 0.20846420E+03</rscale>
<asrwt>0</asrwt>
<pdfrwt beam="1">  1       21 0.21126124E+00 0.20846420E+03</pdfrwt>
<pdfrwt beam="2">  1       21 0.24420598E-01 0.20846420E+03</pdfrwt>
<totfact> 0.17751638E+03</totfact>
</mgrwt>
</event>
<event>
 4    1  0.1115666E+000  0.2146057E+03  0.7546771E-02  0.1137970E+00
         21   -1    0    0  503  502  0.00000000000E+00  0.00000000000E+00  0.21545528609E+03  0.21545528609E+03  0.00000000000E+00 0.  1.
         21   -1    0    0  501  503 -0.00000000000E+00 -0.00000000000E+00 -0.34260817448E+03  0.34260817448E+03  0.00000000000E+00 0. -1.
          6    1    1    2  501    0  0.91341842403E+01  0.12801622801E+03 -0.23469413654E+03  0.31802032275E+03  0.17200000000E+03 0. -1.
         -6    1    1    2    0  502 -0.91341842403E+01 -0.12801622801E+03  0.10754124815E+03  0.24004313781E+03  0.17200000000E+03 0.  1.
<mgrwt>
<rscale>  2 0.21460566E+03</rscale>
<asrwt>0</asrwt>
<pdfrwt beam="1">  1       21 0.53863822E-01 0.21460566E+03</pdfrwt>
<pdfrwt beam="2">  1       21 0.85652043E-01 0.21460566E+03</pdfrwt>
<totfact> 0.37715096E+03</totfact>
</mgrwt>
</event>
<event>
 4    1  0.1115666E+000  0.1726027E+03  0.7546771E-02  0.1175160E+00
         21   -1    0    0  501  502  0.00000000000E+00  0.00000000000E+00  0.28945035224E+03  0.28945035224E+03  0.00000000000E+00 0.  1.
         21   -1    0    0  502  503 -0.00000000000E+00 -0.00000000000E+00 -0.47682057502E+03  0.47682057502E+03  0.00000000000E+00 0.  1.
          6    1    1    2  501    0  0.13881498368E+02 -0.38743160214E+01  0.24558840820E+03  0.30017556956E+03  0.17200000000E+03 0.  1.
         -6    1    1    2    0  503 -0.13881498368E+02  0.38743160214E+01 -0.43295863098E+03  0.46609535769E+03  0.17200000000E+03 0.  1.
<mgrwt>
<rscale>  2 0.17260274E+03</rscale>
<asrwt>0</asrwt>
<pdfrwt beam="1">  1       21 0.72362589E-01 0.17260274E+03</pdfrwt>
<pdfrwt beam="2">  1       21 0.11920514E+00 0.17260274E+03</pdfrwt>
<totfact> 0.94451797E+02</totfact>
</mgrwt>
</event>
<event>
 4    1  0.1115666E+000  0.1965955E+03  0.7546771E-02  0.1152644E+00
         21   -1    0    0  501  502  0.00000000000E+00  0.00000000000E+00  0.15257251979E+04  0.15257251979E+04  0.00000000000E+00 0. -1.
         21   -1    0    0  502  503 -0.00000000000E+00 -0.00000000000E+00 -0.26923680564E+02  0.26923680564E+02  0.00000000000E+00 0. -1.
          6    1    1    2  501    0  0.92638250045E+02 -0.21998538986E+02  0.93815387490E+03  0.95853141528E+03  0.17200000000E+03 0. -1.
         -6    1    1    2    0  503 -0.92638250045E+02  0.21998538986E+02  0.56064764241E+03  0.59411746316E+03  0.17200000000E+03 0. -1.
<mgrwt>
<rscale>  2 0.19659548E+03</rscale>
<asrwt>0</asrwt>
<pdfrwt beam="1">  1       21 0.38143101E+00 0.19659548E+03</pdfrwt>
<pdfrwt beam="2">  1       21 0.67309253E-02 0.19659548E+03</pdfrwt>
<totfact> 0.18240861E+03</totfact>
</mgrwt>
</event>
<event>
 4    1  0.1115666E+000  0.2177126E+03  0.7546771E-02  0.1135600E+00
         21   -1    0    0  503  502  0.00000000000E+00  0.00000000000E+00  0.94711338549E+02  0.94711338549E+02  0.00000000000E+00 0.  1.
         21   -1    0    0  501  503 -0.00000000000E+00 -0.00000000000E+00 -0.65729441781E+03  0.65729441781E+03  0.00000000000E+00 0.  1.
          6    1    1    2  501    0 -0.13289434382E+03  0.12404812833E+02 -0.46496164319E+03  0.51340833227E+03  0.17200000000E+03 0.  1.
         -6    1    1    2    0  502  0.13289434382E+03 -0.12404812833E+02 -0.97621436066E+02  0.23859742409E+03  0.17200000000E+03 0.  1.
<mgrwt>
<rscale>  2 0.21771262E+03</rscale>
<asrwt>0</asrwt>
<pdfrwt beam="1">  1       21 0.23677835E-01 0.21771262E+03</pdfrwt>
<pdfrwt beam="2">  1       21 0.16432360E+00 0.21771262E+03</pdfrwt>
<totfact> 0.38490005E+03</totfact>
</mgrwt>
</event>
<event>
 4    1  0.1115666E+000  0.1994451E+03  0.7546771E-02  0.1150208E+00
         21   -1    0    0  501  502  0.00000000000E+00  0.00000000000E+00  0.30505797603E+03  0.30505797603E+03  0.00000000000E+00 0. -1.
         21   -1    0    0  502  503 -0.00000000000E+00 -0.00000000000E+00 -0.13040476132E+03  0.13040476132E+03  0.00000000000E+00 0. -1.
          6    1    1    2  501    0  0.33304068613E+02 -0.95316241343E+02  0.89108940847E+02  0.21844621807E+03  0.17200000000E+03 0. -1.
         -6    1    1    2    0  503 -0.33304068613E+02  0.95316241343E+02  0.85544273863E+02  0.21701651928E+03  0.17200000000E+03 0. -1.
<mgrwt>
<rscale>  2 0.19944510E+03</rscale>
<asrwt>0</asrwt>
<pdfrwt beam="1">  1       21 0.76264492E-01 0.19944510E+03</pdfrwt>
<pdfrwt beam="2">  1       21 0.32601191E-01 0.19944510E+03</pdfrwt>
<totfact> 0.13806679E+04</totfact>
</mgrwt>
</event>
<event>
 4    1  0.1115666E+000  0.2569459E+03  0.7546771E-02  0.1108992E+00
         21   -1    0    0  501  502  0.00000000000E+00  0.00000000000E+00  0.34364939489E+03  0.34364939489E+03  0.00000000000E+00 0.  1.
         21   -1    0    0  502  503 -0.00000000000E+00 -0.00000000000E+00 -0.27071226122E+03  0.27071226122E+03  0.00000000000E+00 0.  1.
          6    1    1    2  501    0 -0.11183704626E+03 -0.15469220189E+03  0.20198298072E+03  0.32683073103E+03  0.17200000000E+03 0.  1.
         -6    1    1    2    0  503  0.11183704626E+03  0.15469220189E+03 -0.12904584705E+03  0.28753092509E+03  0.17200000000E+03 0.  1.
<mgrwt>
<rscale>  2 0.25694591E+03</rscale>
<asrwt>0</asrwt>
<pdfrwt beam="1">  1       21 0.85912348E-01 0.25694591E+03</pdfrwt>
<pdfrwt beam="2">  1       21 0.67678066E-01 0.25694591E+03</pdfrwt>
<totfact> 0.22183167E+03</totfact>
</mgrwt>
</event>
<event>
 4    1  0.1115666E+000  0.1722966E+03  0.7546771E-02  0.1175474E+00
         21   -1    0    0  501  502  0.00000000000E+00  0.00000000000E+00  0.28546197376E+02  0.28546197376E+02  0.00000000000E+00 0. -1.
         21   -1    0    0  502  503 -0.00000000000E+00 -0.00000000000E+00 -0.10464661800E+04  0.10464661800E+04  0.00000000000E+00 0. -1.
          6    1    1    2  501    0  0.75294905595E+01  0.67396825795E+01 -0.46648806513E+03  0.49728988674E+03  0.17200000000E+03 0.  1.
         -6    1    1    2    0  503 -0.75294905595E+01 -0.67396825795E+01 -0.55143191747E+03  0.57772249060E+03  0.17200000000E+03 0.  1.
<mgrwt>
<rscale>  2 0.17229659E+03</rscale>
<asrwt>0</asrwt>
<pdfrwt beam="1">  1       21 0.71365498E-02 0.17229659E+03</pdfrwt>
<pdfrwt beam="2">  1       21 0.26161653E+00 0.17229659E+03</pdfrwt>
<totfact> 0.84985013E+03</totfact>
</mgrwt>
</event>
<event>
 4    1  0.1115666E+000  0.2241941E+03  0.7546771E-02  0.1130794E+00
         21   -1    0    0  503  502  0.00000000000E+00  0.00000000000E+00  0.15999180914E+03  0.15999180914E+03  0.00000000000E+00 0.  1.
         21   -1    0    0  501  503 -0.00000000000E+00 -0.00000000000E+00 -0.34966624116E+03  0.34966624116E+03  0.00000000000E+00 0.  1.
          6    1    1    2  501    0  0.11398455922E+03  0.87672810178E+02 -0.17604083027E+03  0.28504977690E+03  0.17200000000E+03 0.  1.
         -6    1    1    2    0  502 -0.11398455922E+03 -0.87672810178E+02 -0.13633601746E+02  0.22460827341E+03  0.17200000000E+03 0.  1.
<mgrwt>
<rscale>  2 0.22419412E+03</rscale>
<asrwt>0</asrwt>
<pdfrwt beam="1">  1       21 0.39997952E-01 0.22419412E+03</pdfrwt>
<pdfrwt beam="2">  1       21 0.87416560E-01 0.22419412E+03</pdfrwt>
<totfact> 0.66174157E+03</totfact>
</mgrwt>
</event>
<event>
 4    1  0.1115666E+000  0.1720755E+03  0.7546771E-02  0.1175701E+00
         21   -1    0    0  503  502  0.00000000000E+00  0.00000000000E+00  0.32550042838E+03  0.32550042838E+03  0.00000000000E+00 0.  1.
         21   -1    0    0  501  503 -0.00000000000E+00 -0.00000000000E+00 -0.16090487649E+03  0.16090487649E+03  0.00000000000E+00 0.  1.
          6    1    1    2  501    0 -0.47755157526E+01 -0.17851149584E+01 -0.78040816784E+02  0.18894539230E+03  0.17200000000E+03 0.  1.
         -6    1    1    2    0  502  0.47755157526E+01  0.17851149584E+01  0.24263636867E+03  0.29745991257E+03  0.17200000000E+03 0.  1.
<mgrwt>
<rscale>  2 0.17207554E+03</rscale>
<asrwt>0</asrwt>
<pdfrwt beam="1">  1       21 0.81375106E-01 0.17207554E+03</pdfrwt>
<pdfrwt beam="2">  1       21 0.40226220E-01 0.17207554E+03</pdfrwt>
<totfact> 0.80022323E+03</totfact>
</mgrwt>
</event>
<event>
 4    1  0.1115666E+000  0.2462150E+03  0.7546771E-02  0.1115720E+00
         21   -1    0    0  503  502  0.00000000000E+00  0.00000000000E+00  0.57370824468E+03  0.57370824468E+03  0.00000000000E+00 0. -1.
         21   -1    0    0  501  503 -0.00000000000E+00 -0.00000000000E+00 -0.10611281604E+03  0.10611281604E+03  0.00000000000E+00 0.  1.
          6    1    1    2  501    0  0.14118581640E+03  0.10537737730E+03  0.21175675167E+03  0.32475028603E+03  0.17200000000E+03 0.  1.
         -6    1    1    2    0  502 -0.14118581640E+03 -0.10537737730E+03  0.25583867698E+03  0.35507077469E+03  0.17200000000E+03 0.  1.
<mgrwt>
<rscale>  2 0.24621500E+03</rscale>
<asrwt>0</asrwt>
<pdfrwt beam="1">  1       21 0.14342705E+00 0.24621500E+03</pdfrwt>
<pdfrwt beam="2">  1       21 0.26528206E-01 0.24621500E+03</pdfrwt>
<totfact> 0.43599943E+03</totfact>
</mgrwt>
</event>
<event>
 4    1  0.1115666E+000  0.2614276E+03  0.7546771E-02  0.1106289E+00
         21   -1    0    0  503  502  0.00000000000E+00  0.00000000000E+00  0.27536000381E+03  0.27536000381E+03  0.00000000000E+00 0. -1.
         21   -1    0    0  501  503 -0.00000000000E+00 -0.00000000000E+00 -0.27144062313E+03  0.27144062313E+03  0.00000000000E+00 0.  1.
          6    1    1    2  501    0  0.17862122793E+03  0.82793911174E+02 -0.78039341117E+02  0.27282689302E+03  0.17200000000E+03 0.  1.
         -6    1    1    2    0  502 -0.17862122793E+03 -0.82793911174E+02  0.81958721804E+02  0.27397373391E+03  0.17200000000E+03 0. -1.
<mgrwt>
<rscale>  2 0.26142757E+03</rscale>
<asrwt>0</asrwt>
<pdfrwt beam="1">  1       21 0.68840001E-01 0.26142757E+03</pdfrwt>
<pdfrwt beam="2">  1       21 0.67860156E-01 0.26142757E+03</pdfrwt>
<totfact> 0.36291009E+03</totfact>
</mgrwt>
</event>
<event>
 4    1  0.1115666E+000  0.1862279E+03  0.7546771E-02  0.1161908E+00
         21   -1    0    0  503  502  0.00000000000E+00  0.00000000000E+00  0.86780207028E+02  0.86780207028E+02  0.00000000000E+00 0. -1.
         21   -1    0    0  501  503 -0.00000000000E+00 -0.00000000000E+00 -0.85557833329E+03  0.85557833329E+03  0.00000000000E+00 0. -1.
          6    1    1    2  501    0 -0.10623669331E+02  0.70597203510E+02 -0.72836023434E+03  0.75179083425E+03  0.17200000000E+03 0. -1.
         -6    1    1    2    0  502  0.10623669331E+02 -0.70597203510E+02 -0.40437891923E+02  0.19056770607E+03  0.17200000000E+03 0. -1.
<mgrwt>
<rscale>  2 0.18622789E+03</rscale>
<asrwt>0</asrwt>
<pdfrwt beam="1">  1       21 0.21695052E-01 0.18622789E+03</pdfrwt>
<pdfrwt beam="2">  1       21 0.21389458E+00 0.18622789E+03</pdfrwt>
<totfact> 0.21894903E+03</totfact>
</mgrwt>
</event>
<event>
 4    1  0.1115666E+000  0.2334677E+03  0.7546771E-02  0.1124223E+00
         21   -1    0    0  501  502  0.00000000000E+00  0.00000000000E+00  0.31297363045E+03  0.31297363045E+03  0.00000000000E+00 0. -1.
         21   -1    0    0  502  503 -0.00000000000E+00 -0.00000000000E+00 -0.17560635409E+03  0.17560635409E+03  0.00000000000E+00 0.  1.
          6    1    1    2  501    0  0.14325845887E+03  0.66333695563E+02  0.90862384992E+02  0.25052568374E+03  0.17200000000E+03 0. -1.
         -6    1    1    2    0  503 -0.14325845887E+03 -0.66333695563E+02  0.46504891368E+02  0.23805430080E+03  0.17200000000E+03 0.  1.
<mgrwt>
<rscale>  2 0.23346765E+03</rscale>
<asrwt>0</asrwt>
<pdfrwt beam="1">  1       21 0.78243407E-01 0.23346765E+03</pdfrwt>
<pdfrwt beam="2">  1       21 0.43901589E-01 0.23346765E+03</pdfrwt>
<totfact> 0.70070028E+03</totfact>
</mgrwt>
</event>
<event>
 4    1  0.1115666E+000  0.1853767E+03  0.7546771E-02  0.1162699E+00
         21   -1    0    0  503  502  0.00000000000E+00  0.00000000000E+00  0.36092431607E+03  0.36092431607E+03  0.00000000000E+00 0. -1.
         21   -1    0    0  501  503 -0.00000000000E+00 -0.00000000000E+00 -0.99655429212E+02  0.99655429212E+02  0.00000000000E+00 0. -1.
          6    1    1    2  501    0  0.49074752041E+02 -0.48705173285E+02  0.82009790362E+02  0.20270700754E+03  0.17200000000E+03 0. -1.
         -6    1    1    2    0  502 -0.49074752041E+02  0.48705173285E+02  0.17925909650E+03  0.25787273774E+03  0.17200000000E+03 0. -1.
<mgrwt>
<rscale>  2 0.18537671E+03</rscale>
<asrwt>0</asrwt>
<pdfrwt beam="1">  1       21 0.90231076E-01 0.18537671E+03</pdfrwt>
<pdfrwt beam="2">  1       21 0.24913858E-01 0.18537671E+03</pdfrwt>
<totfact> 0.15997221E+04</totfact>
</mgrwt>
</event>
<event>
 4    1  0.1115666E+000  0.1930936E+03  0.7546771E-02  0.1155700E+00
         21   -1    0    0  503  502  0.00000000000E+00  0.00000000000E+00  0.50347659989E+03  0.50347659989E+03  0.00000000000E+00 0.  1.
         21   -1    0    0  501  503 -0.00000000000E+00 -0.00000000000E+00 -0.77632515629E+02  0.77632515629E+02  0.00000000000E+00 0.  1.
          6    1    1    2  501    0 -0.19281248821E+02 -0.85611712153E+02  0.15055202398E+03  0.24484902233E+03  0.17200000000E+03 0.  1.
         -6    1    1    2    0  502  0.19281248821E+02  0.85611712153E+02  0.27529206028E+03  0.33626009318E+03  0.17200000000E+03 0.  1.
<mgrwt>
<rscale>  2 0.19309358E+03</rscale>
<asrwt>0</asrwt>
<pdfrwt beam="1">  1       21 0.12586914E+00 0.19309358E+03</pdfrwt>
<pdfrwt beam="2">  1       21 0.19408130E-01 0.19309358E+03</pdfrwt>
<totfact> 0.11442589E+04</totfact>
</mgrwt>
</event>
<event>
 4    1  0.1115666E+000  0.1728169E+03  0.7546771E-02  0.1174942E+00
         21   -1    0    0  501  502  0.00000000000E+00  0.00000000000E+00  0.56551442659E+02  0.56551442659E+02  0.00000000000E+00 0. -1.
         21   -1    0    0  502  503 -0.00000000000E+00 -0.00000000000E+00 -0.53365215541E+03  0.53365215541E+03  0.00000000000E+00 0. -1.
          6    1    1    2  501    0 -0.16000573960E+02  0.50657951673E+01 -0.20849130123E+03  0.27080307114E+03  0.17200000000E+03 0.  1.
         -6    1    1    2    0  503  0.16000573960E+02 -0.50657951673E+01 -0.26860941152E+03  0.31940052693E+03  0.17200000000E+03 0.  1.
<mgrwt>
<rscale>  2 0.17281690E+03</rscale>
<asrwt>0</asrwt>
<pdfrwt beam="1">  1       21 0.14137861E-01 0.17281690E+03</pdfrwt>
<pdfrwt beam="2">  1       21 0.13341304E+00 0.17281690E+03</pdfrwt>
<totfact> 0.17923069E+04</totfact>
</mgrwt>
</event>
<event>
 4    1  0.1115666E+000  0.1816534E+03  0.7546771E-02  0.1166212E+00
         21   -1    0    0  501  502  0.00000000000E+00  0.00000000000E+00  0.74045292147E+03  0.74045292147E+03  0.00000000000E+00 0.  1.
         21   -1    0    0  502  503 -0.00000000000E+00 -0.00000000000E+00 -0.20007954710E+03  0.20007954710E+03  0.00000000000E+00 0.  1.
          6    1    1    2  501    0 -0.57246793662E+02  0.11695297663E+02  0.68478596564E+03  0.70847003755E+03  0.17200000000E+03 0.  1.
         -6    1    1    2    0  503  0.57246793662E+02 -0.11695297663E+02 -0.14441259126E+03  0.23206243101E+03  0.17200000000E+03 0.  1.
<mgrwt>
<rscale>  2 0.18165345E+03</rscale>
<asrwt>0</asrwt>
<pdfrwt beam="1">  1       21 0.18511322E+00 0.18165345E+03</pdfrwt>
<pdfrwt beam="2">  1       21 0.50019889E-01 0.18165345E+03</pdfrwt>
<totfact> 0.64831497E+02</totfact>
</mgrwt>
</event>
<event>
 4    1  0.1115666E+000  0.2370349E+03  0.7546771E-02  0.1121784E+00
         21   -1    0    0  503  502  0.00000000000E+00  0.00000000000E+00  0.16475886745E+03  0.16475886745E+03  0.00000000000E+00 0. -1.
         21   -1    0    0  501  503 -0.00000000000E+00 -0.00000000000E+00 -0.38992836278E+03  0.38992836278E+03  0.00000000000E+00 0. -1.
          6    1    1    2  501    0  0.15134505253E+03  0.60796689047E+02 -0.21081176893E+03  0.31721784982E+03  0.17200000000E+03 0. -1.
         -6    1    1    2    0  502 -0.15134505253E+03 -0.60796689047E+02 -0.14357726403E+02  0.23746938041E+03  0.17200000000E+03 0. -1.
<mgrwt>
<rscale>  2 0.23703494E+03</rscale>
<asrwt>0</asrwt>
<pdfrwt beam="1">  1       21 0.41189717E-01 0.23703494E+03</pdfrwt>
<pdfrwt beam="2">  1       21 0.97482090E-01 0.23703494E+03</pdfrwt>
<totfact> 0.47897125E+03</totfact>
</mgrwt>
</event>
<event>
 4    1  0.1115666E+000  0.1820074E+03  0.7546771E-02  0.1165874E+00
         21   -1    0    0  501  502  0.00000000000E+00  0.00000000000E+00  0.23802291565E+03  0.23802291565E+03  0.00000000000E+00 0. -1.
         21   -1    0    0  502  503 -0.00000000000E+00 -0.00000000000E+00 -0.14098644017E+03  0.14098644017E+03  0.00000000000E+00 0.  1.
          6    1    1    2  501    0 -0.27513814544E+02  0.52779446173E+02  0.27033824250E+02  0.18400409665E+03  0.17200000000E+03 0.  1.
         -6    1    1    2    0  503  0.27513814544E+02 -0.52779446173E+02  0.70002651227E+02  0.19500525918E+03  0.17200000000E+03 0. -1.
<mgrwt>
<rscale>  2 0.18200736E+03</rscale>
<asrwt>0</asrwt>
<pdfrwt beam="1">  1       21 0.59505728E-01 0.18200736E+03</pdfrwt>
<pdfrwt beam="2">  1       21 0.35246610E-01 0.18200736E+03</pdfrwt>
<totfact> 0.20598238E+04</totfact>
</mgrwt>
</event>
<event>
 4    1  0.1115666E+000  0.2160588E+03  0.7546771E-02  0.1136856E+00
         21   -1    0    0  501  502  0.00000000000E+00  0.00000000000E+00  0.16432153539E+03  0.16432153539E+03  0.00000000000E+00 0. -1.
         21   -1    0    0  502  503 -0.00000000000E+00 -0.00000000000E+00 -0.55689833683E+03  0.55689833683E+03  0.00000000000E+00 0.  1.
          6    1    1    2  501    0  0.57355977894E+02  0.11750611013E+03  0.56107322055E+02  0.22322505618E+03  0.17200000000E+03 0. -1.
         -6    1    1    2    0  503 -0.57355977894E+02 -0.11750611013E+03 -0.44868412349E+03  0.49799481603E+03  0.17200000000E+03 0.  1.
<mgrwt>
<rscale>  2 0.21605877E+03</rscale>
<asrwt>0</asrwt>
<pdfrwt beam="1">  1       21 0.41080384E-01 0.21605877E+03</pdfrwt>
<pdfrwt beam="2">  1       21 0.13922458E+00 0.21605877E+03</pdfrwt>
<totfact> 0.20279908E+03</totfact>
</mgrwt>
</event>
<event>
 4    1  0.1115666E+000  0.2375148E+03  0.7546771E-02  0.1121460E+00
         21   -1    0    0  501  502  0.00000000000E+00  0.00000000000E+00  0.15032045780E+03  0.15032045780E+03  0.00000000000E+00 0. -1.
         21   -1    0    0  502  503 -0.00000000000E+00 -0.00000000000E+00 -0.44995511898E+03  0.44995511898E+03  0.00000000000E+00 0. -1.
          6    1    1    2  501    0  0.14833003830E+03 -0.69480238079E+02 -0.27551845150E+02  0.23910752375E+03  0.17200000000E+03 0. -1.
         -6    1    1    2    0  503 -0.14833003830E+03  0.69480238079E+02 -0.27208281604E+03  0.36116805303E+03  0.17200000000E+03 0. -1.
<mgrwt>
<rscale>  2 0.23751485E+03</rscale>
<asrwt>0</asrwt>
<pdfrwt beam="1">  1       21 0.37580115E-01 0.23751485E+03</pdfrwt>
<pdfrwt beam="2">  1       21 0.11248878E+00 0.23751485E+03</pdfrwt>
<totfact> 0.40818121E+03</totfact>
</mgrwt>
</event>
<event>
 4    1  0.1115666E+000  0.2829990E+03  0.7546771E-02  0.1094062E+00
         21   -1    0    0  503  502  0.00000000000E+00  0.00000000000E+00  0.10928469418E+04  0.10928469418E+04  0.00000000000E+00 0.  1.
         21   -1    0    0  501  503 -0.00000000000E+00 -0.00000000000E+00 -0.83517295139E+02  0.83517295139E+02  0.00000000000E+00 0. -1.
          6    1    1    2  501    0  0.18270138458E+03  0.13086124048E+03  0.29877910916E+03  0.41153057755E+03  0.17200000000E+03 0. -1.
         -6    1    1    2    0  502 -0.18270138458E+03 -0.13086124048E+03  0.71055053747E+03  0.76483365936E+03  0.17200000000E+03 0. -1.
<mgrwt>
<rscale>  2 0.28299905E+03</rscale>
<asrwt>0</asrwt>
<pdfrwt beam="1">  1       21 0.27321169E+00 0.28299905E+03</pdfrwt>
<pdfrwt beam="2">  1       21 0.20879327E-01 0.28299905E+03</pdfrwt>
<totfact> 0.94206241E+02</totfact>
</mgrwt>
</event>
<event>
 4    1  0.1115666E+000  0.2667216E+03  0.7546771E-02  0.1103171E+00
         21   -1    0    0  503  502  0.00000000000E+00  0.00000000000E+00  0.40172698131E+03  0.40172698131E+03  0.00000000000E+00 0. -1.
         21   -1    0    0  501  503 -0.00000000000E+00 -0.00000000000E+00 -0.30127593124E+03  0.30127593124E+03  0.00000000000E+00 0.  1.
          6    1    1    2  501    0 -0.50392756967E+02  0.19752711456E+03 -0.17545151527E+03  0.31925479660E+03  0.17200000000E+03 0.  1.
         -6    1    1    2    0  502  0.50392756967E+02 -0.19752711456E+03  0.27590256534E+03  0.38374811596E+03  0.17200000000E+03 0. -1.
<mgrwt>
<rscale>  2 0.26672156E+03</rscale>
<asrwt>0</asrwt>
<pdfrwt beam="1">  1       21 0.10043175E+00 0.26672156E+03</pdfrwt>
<pdfrwt beam="2">  1       21 0.75318983E-01 0.26672156E+03</pdfrwt>
<totfact> 0.12021868E+03</totfact>
</mgrwt>
</event>
<event>
 4    1  0.1115666E+000  0.2478127E+03  0.7546771E-02  0.1114695E+00
         21   -1    0    0  501  502  0.00000000000E+00  0.00000000000E+00  0.80524640150E+02  0.80524640150E+02  0.00000000000E+00 0.  1.
         21   -1    0    0  502  503 -0.00000000000E+00 -0.00000000000E+00 -0.77394858190E+03  0.77394858190E+03  0.00000000000E+00 0.  1.
          6    1    1    2  501    0 -0.76029083825E+02 -0.16138993096E+03 -0.29506326570E+03  0.38532254303E+03  0.17200000000E+03 0.  1.
         -6    1    1    2    0  503  0.76029083825E+02  0.16138993096E+03 -0.39836067605E+03  0.46915067902E+03  0.17200000000E+03 0.  1.
<mgrwt>
<rscale>  2 0.24781269E+03</rscale>
<asrwt>0</asrwt>
<pdfrwt beam="1">  1       21 0.20131160E-01 0.24781269E+03</pdfrwt>
<pdfrwt beam="2">  1       21 0.19348715E+00 0.24781269E+03</pdfrwt>
<totfact> 0.32161507E+03</totfact>
</mgrwt>
</event>
<event>
 4    1  0.1115666E+000  0.2416262E+03  0.7546771E-02  0.1118714E+00
         21   -1    0    0  503  502  0.00000000000E+00  0.00000000000E+00  0.43970535573E+03  0.43970535573E+03  0.00000000000E+00 0.  1.
         21   -1    0    0  501  503 -0.00000000000E+00 -0.00000000000E+00 -0.15367979943E+03  0.15367979943E+03  0.00000000000E+00 0.  1.
          6    1    1    2  501    0  0.14588945770E+03  0.86691795181E+02  0.33594457620E+02  0.24395038184E+03  0.17200000000E+03 0.  1.
         -6    1    1    2    0  502 -0.14588945770E+03 -0.86691795181E+02  0.25243109869E+03  0.34943477332E+03  0.17200000000E+03 0.  1.
<mgrwt>
<rscale>  2 0.24162616E+03</rscale>
<asrwt>0</asrwt>
<pdfrwt beam="1">  1       21 0.10992634E+00 0.24162616E+03</pdfrwt>
<pdfrwt beam="2">  1       21 0.38419951E-01 0.24162616E+03</pdfrwt>
<totfact> 0.41183300E+03</totfact>
</mgrwt>
</event>
<event>
 4    1  0.1115666E+000  0.2226364E+03  0.7546771E-02  0.1131933E+00
         21   -1    0    0  501  502  0.00000000000E+00  0.00000000000E+00  0.33285616558E+03  0.33285616558E+03  0.00000000000E+00 0. -1.
         21   -1    0    0  502  503 -0.00000000000E+00 -0.00000000000E+00 -0.17630477473E+03  0.17630477473E+03  0.00000000000E+00 0. -1.
          6    1    1    2  501    0 -0.29750589125E+01 -0.14132977118E+03  0.17862050559E+03  0.28543342519E+03  0.17200000000E+03 0. -1.
         -6    1    1    2    0  503  0.29750589125E+01  0.14132977118E+03 -0.22069114750E+02  0.22372751512E+03  0.17200000000E+03 0. -1.
<mgrwt>
<rscale>  2 0.22263637E+03</rscale>
<asrwt>0</asrwt>
<pdfrwt beam="1">  1       21 0.83214040E-01 0.22263637E+03</pdfrwt>
<pdfrwt beam="2">  1       21 0.44076194E-01 0.22263637E+03</pdfrwt>
<totfact> 0.60848911E+03</totfact>
</mgrwt>
</event>
<event>
 4    1  0.1115666E+000  0.1839040E+03  0.7546771E-02  0.1164077E+00
         21   -1    0    0  501  502  0.00000000000E+00  0.00000000000E+00  0.46503185294E+03  0.46503185294E+03  0.00000000000E+00 0. -1.
         21   -1    0    0  502  503 -0.00000000000E+00 -0.00000000000E+00 -0.47387082172E+03  0.47387082172E+03  0.00000000000E+00 0. -1.
          6    1    1    2  501    0  0.15273368815E+02 -0.63272592158E+02  0.42750743506E+03  0.46538511337E+03  0.17200000000E+03 0. -1.
         -6    1    1    2    0  503 -0.15273368815E+02  0.63272592158E+02 -0.43634640383E+03  0.47351756129E+03  0.17200000000E+03 0. -1.
<mgrwt>
<rscale>  2 0.18390404E+03</rscale>
<asrwt>0</asrwt>
<pdfrwt beam="1">  1       21 0.11625796E+00 0.18390404E+03</pdfrwt>
<pdfrwt beam="2">  1       21 0.11846771E+00 0.18390404E+03</pdfrwt>
<totfact> 0.31459311E+02</totfact>
</mgrwt>
</event>
<event>
 4    1  0.1115666E+000  0.2568925E+03  0.7546771E-02  0.1109025E+00
         21   -1    0    0  501  502  0.00000000000E+00  0.00000000000E+00  0.29010803792E+03  0.29010803792E+03  0.00000000000E+00 0. -1.
         21   -1    0    0  502  503 -0.00000000000E+00 -0.00000000000E+00 -0.25742738899E+03  0.25742738899E+03  0.00000000000E+00 0.  1.
          6    1    1    2  501    0 -0.45991222595E+02  0.18518787528E+03 -0.77035662104E+02  0.26819439767E+03  0.17200000000E+03 0.  1.
         -6    1    1    2    0  503  0.45991222595E+02 -0.18518787528E+03  0.10971631103E+03  0.27934102923E+03  0.17200000000E+03 0. -1.
<mgrwt>
<rscale>  2 0.25689247E+03</rscale>
<asrwt>0</asrwt>
<pdfrwt beam="1">  1       21 0.72527009E-01 0.25689247E+03</pdfrwt>
<pdfrwt beam="2">  1       21 0.64356847E-01 0.25689247E+03</pdfrwt>
<totfact> 0.36410638E+03</totfact>
</mgrwt>
</event>
<event>
 4    1  0.1115666E+000  0.1948383E+03  0.7546771E-02  0.1154169E+00
         21   -1    0    0  503  502  0.00000000000E+00  0.00000000000E+00  0.66357738383E+02  0.66357738383E+02  0.00000000000E+00 0.  1.
         21   -1    0    0  501  503 -0.00000000000E+00 -0.00000000000E+00 -0.57259924839E+03  0.57259924839E+03  0.00000000000E+00 0.  1.
          6    1    1    2  501    0 -0.87977710274E+02 -0.25256132208E+02 -0.26273933309E+03  0.32709923092E+03  0.17200000000E+03 0.  1.
         -6    1    1    2    0  502  0.87977710274E+02  0.25256132208E+02 -0.24350217693E+03  0.31185775585E+03  0.17200000000E+03 0.  1.
<mgrwt>
<rscale>  2 0.19483827E+03</rscale>
<asrwt>0</asrwt>
<pdfrwt beam="1">  1       21 0.16589434E-01 0.19483827E+03</pdfrwt>
<pdfrwt beam="2">  1       21 0.14314981E+00 0.19483827E+03</pdfrwt>
<totfact> 0.11004425E+04</totfact>
</mgrwt>
</event>
<event>
 4    1  0.1115666E+000  0.1753331E+03  0.7546771E-02  0.1172398E+00
         21   -1    0    0  501  502  0.00000000000E+00  0.00000000000E+00  0.10593514768E+03  0.10593514768E+03  0.00000000000E+00 0. -1.
         21   -1    0    0  502  503 -0.00000000000E+00 -0.00000000000E+00 -0.49265830506E+03  0.49265830506E+03  0.00000000000E+00 0. -1.
          6    1    1    2  501    0  0.14430369366E+02 -0.30813176255E+02 -0.14929941561E+01  0.17533943202E+03  0.17200000000E+03 0. -1.
         -6    1    1    2    0  503 -0.14430369366E+02  0.30813176255E+02 -0.38523016322E+03  0.42325402071E+03  0.17200000000E+03 0. -1.
<mgrwt>
<rscale>  2 0.17533308E+03</rscale>
<asrwt>0</asrwt>
<pdfrwt beam="1">  1       21 0.26483787E-01 0.17533308E+03</pdfrwt>
<pdfrwt beam="2">  1       21 0.12316457E+00 0.17533308E+03</pdfrwt>
<totfact> 0.68065717E+03</totfact>
</mgrwt>
</event>
<event>
 4    1  0.1115666E+000  0.2112850E+03  0.7546771E-02  0.1140552E+00
         21   -1    0    0  501  502  0.00000000000E+00  0.00000000000E+00  0.10583889032E+03  0.10583889032E+03  0.00000000000E+00 0.  1.
         21   -1    0    0  502  503 -0.00000000000E+00 -0.00000000000E+00 -0.65036273831E+03  0.65036273831E+03  0.00000000000E+00 0.  1.
          6    1    1    2  501    0  0.10488668992E+03  0.63687711806E+02 -0.48108188435E+02  0.21669273212E+03  0.17200000000E+03 0.  1.
         -6    1    1    2    0  503 -0.10488668992E+03 -0.63687711806E+02 -0.49641565956E+03  0.53950889651E+03  0.17200000000E+03 0.  1.
<mgrwt>
<rscale>  2 0.21128498E+03</rscale>
<asrwt>0</asrwt>
<pdfrwt beam="1">  1       21 0.26459723E-01 0.21128498E+03</pdfrwt>
<pdfrwt beam="2">  1       21 0.16259068E+00 0.21128498E+03</pdfrwt>
<totfact> 0.32203643E+03</totfact>
</mgrwt>
</event>
<event>
 4    1  0.1115666E+000  0.2604081E+03  0.7546771E-02  0.1106898E+00
         21   -1    0    0  503  502  0.00000000000E+00  0.00000000000E+00  0.68591966948E+03  0.68591966948E+03  0.00000000000E+00 0. -1.
         21   -1    0    0  501  503 -0.00000000000E+00 -0.00000000000E+00 -0.99108896350E+02  0.99108896350E+02  0.00000000000E+00 0. -1.
          6    1    1    2  501    0 -0.34953917465E+02 -0.19237097133E+03  0.31293981173E+03  0.40711631351E+03  0.17200000000E+03 0. -1.
         -6    1    1    2    0  502  0.34953917465E+02  0.19237097133E+03  0.27387096139E+03  0.37791225232E+03  0.17200000000E+03 0. -1.
<mgrwt>
<rscale>  2 0.26040808E+03</rscale>
<asrwt>0</asrwt>
<pdfrwt beam="1">  1       21 0.17147990E+00 0.26040808E+03</pdfrwt>
<pdfrwt beam="2">  1       21 0.24777226E-01 0.26040808E+03</pdfrwt>
<totfact> 0.30368395E+03</totfact>
</mgrwt>
</event>
<event>
 4    1  0.1115666E+000  0.2210149E+03  0.7546771E-02  0.1133129E+00
         21   -1    0    0  503  502  0.00000000000E+00  0.00000000000E+00  0.54182205314E+03  0.54182205314E+03  0.00000000000E+00 0.  1.
         21   -1    0    0  501  503 -0.00000000000E+00 -0.00000000000E+00 -0.90172030678E+02  0.90172030678E+02  0.00000000000E+00 0.  1.
          6    1    1    2  501    0  0.12657789260E+03  0.56935243699E+02  0.22139322488E+03  0.31282989770E+03  0.17200000000E+03 0.  1.
         -6    1    1    2    0  502 -0.12657789260E+03 -0.56935243699E+02  0.23025679758E+03  0.31916418612E+03  0.17200000000E+03 0.  1.
<mgrwt>
<rscale>  2 0.22101490E+03</rscale>
<asrwt>0</asrwt>
<pdfrwt beam="1">  1       21 0.13545550E+00 0.22101490E+03</pdfrwt>
<pdfrwt beam="2">  1       21 0.22543009E-01 0.22101490E+03</pdfrwt>
<totfact> 0.70285486E+03</totfact>
</mgrwt>
</event>
<event>
 4    1  0.1115666E+000  0.2627604E+03  0.7546771E-02  0.1105496E+00
         21   -1    0    0  501  502  0.00000000000E+00  0.00000000000E+00  0.72567322137E+02  0.72567322137E+02  0.00000000000E+00 0. -1.
         21   -1    0    0  502  503 -0.00000000000E+00 -0.00000000000E+00 -0.95385473149E+03  0.95385473149E+03  0.00000000000E+00 0. -1.
          6    1    1    2  501    0  0.12276731116E+03 -0.15616406626E+03 -0.41479046755E+03  0.49101340130E+03  0.17200000000E+03 0. -1.
         -6    1    1    2    0  503 -0.12276731116E+03  0.15616406626E+03 -0.46649694180E+03  0.53540865233E+03  0.17200000000E+03 0. -1.
<mgrwt>
<rscale>  2 0.26276040E+03</rscale>
<asrwt>0</asrwt>
<pdfrwt beam="1">  1       21 0.18141831E-01 0.26276040E+03</pdfrwt>
<pdfrwt beam="2">  1       21 0.23846368E+00 0.26276040E+03</pdfrwt>
<totfact> 0.20120513E+03</totfact>
</mgrwt>
</event>
<event>
 4    1  0.1115666E+000  0.2477464E+03  0.7546771E-02  0.1114737E+00
         21   -1    0    0  503  502  0.00000000000E+00  0.00000000000E+00  0.49993866796E+03  0.49993866796E+03  0.00000000000E+00 0. -1.
         21   -1    0    0  501  503 -0.00000000000E+00 -0.00000000000E+00 -0.14300085227E+03  0.14300085227E+03  0.00000000000E+00 0.  1.
          6    1    1    2  501    0  0.17002783252E+03 -0.53710408217E+02  0.57559333095E+02  0.25434494021E+03  0.17200000000E+03 0.  1.
         -6    1    1    2    0  502 -0.17002783252E+03  0.53710408217E+02  0.29937848260E+03  0.38859458002E+03  0.17200000000E+03 0. -1.
<mgrwt>
<rscale>  2 0.24774639E+03</rscale>
<asrwt>0</asrwt>
<pdfrwt beam="1">  1       21 0.12498466E+00 0.24774639E+03</pdfrwt>
<pdfrwt beam="2">  1       21 0.35750214E-01 0.24774639E+03</pdfrwt>
<totfact> 0.34494588E+03</totfact>
</mgrwt>
</event>
<event>
 4    1  0.1115666E+000  0.2417125E+03  0.7546771E-02  0.1118657E+00
         21   -1    0    0  501  502  0.00000000000E+00  0.00000000000E+00  0.18322955343E+03  0.18322955343E+03  0.00000000000E+00 0. -1.
         21   -1    0    0  502  503 -0.00000000000E+00 -0.00000000000E+00 -0.37264324601E+03  0.37264324601E+03  0.00000000000E+00 0.  1.
          6    1    1    2  501    0 -0.10661413808E+03 -0.13219058545E+03  0.10881161280E+02  0.24195727927E+03  0.17200000000E+03 0.  1.
         -6    1    1    2    0  503  0.10661413808E+03  0.13219058545E+03 -0.20029485385E+03  0.31391552017E+03  0.17200000000E+03 0.  1.
<mgrwt>
<rscale>  2 0.24171248E+03</rscale>
<asrwt>0</asrwt>
<pdfrwt beam="1">  1       21 0.45807389E-01 0.24171248E+03</pdfrwt>
<pdfrwt beam="2">  1       21 0.93160811E-01 0.24171248E+03</pdfrwt>
<totfact> 0.42715602E+03</totfact>
</mgrwt>
</event>
<event>
 4    1  0.1115666E+000  0.1759003E+03  0.7546771E-02  0.1171831E+00
         21   -1    0    0  503  502  0.00000000000E+00  0.00000000000E+00  0.73565846123E+02  0.73565846123E+02  0.00000000000E+00 0. -1.
         21   -1    0    0  501  503 -0.00000000000E+00 -0.00000000000E+00 -0.42915218547E+03  0.42915218547E+03  0.00000000000E+00 0.  1.
          6    1    1    2  501    0 -0.30982352034E+02  0.19925526658E+02 -0.14228529210E+03  0.22624331393E+03  0.17200000000E+03 0.  1.
         -6    1    1    2    0  502  0.30982352034E+02 -0.19925526658E+02 -0.21330104725E+03  0.27647471766E+03  0.17200000000E+03 0.  1.
<mgrwt>
<rscale>  2 0.17590035E+03</rscale>
<asrwt>0</asrwt>
<pdfrwt beam="1">  1       21 0.18391462E-01 0.17590035E+03</pdfrwt>
<pdfrwt beam="2">  1       21 0.10728805E+00 0.17590035E+03</pdfrwt>
<totfact> 0.18916978E+04</totfact>
</mgrwt>
</event>
<event>
 4    1  0.1115666E+000  0.1738691E+03  0.7546771E-02  0.1173872E+00
         21   -1    0    0  503  502  0.00000000000E+00  0.00000000000E+00  0.20132836409E+03  0.20132836409E+03  0.00000000000E+00 0. -1.
         21   -1    0    0  501  503 -0.00000000000E+00 -0.00000000000E+00 -0.20899445124E+03  0.20899445124E+03  0.00000000000E+00 0. -1.
          6    1    1    2  501    0  0.16756920815E+02 -0.19122786160E+02 -0.11269153893E+03  0.20719521783E+03  0.17200000000E+03 0. -1.
         -6    1    1    2    0  502 -0.16756920815E+02  0.19122786160E+02  0.10502545177E+03  0.20312759750E+03  0.17200000000E+03 0. -1.
<mgrwt>
<rscale>  2 0.17386913E+03</rscale>
<asrwt>0</asrwt>
<pdfrwt beam="1">  1       21 0.50332091E-01 0.17386913E+03</pdfrwt>
<pdfrwt beam="2">  1       21 0.52248613E-01 0.17386913E+03</pdfrwt>
<totfact> 0.13224919E+04</totfact>
</mgrwt>
</event>
<event>
 4    1  0.1115666E+000  0.1819752E+03  0.7546771E-02  0.1165905E+00
         21   -1    0    0  501  502  0.00000000000E+00  0.00000000000E+00  0.13542806922E+03  0.13542806922E+03  0.00000000000E+00 0. -1.
         21   -1    0    0  502  503 -0.00000000000E+00 -0.00000000000E+00 -0.25938210947E+03  0.25938210947E+03  0.00000000000E+00 0. -1.
          6    1    1    2  501    0  0.41906922469E+02 -0.42128090739E+02 -0.14725221144E+02  0.18256998197E+03  0.17200000000E+03 0. -1.
         -6    1    1    2    0  503 -0.41906922469E+02  0.42128090739E+02 -0.10922881911E+03  0.21224019672E+03  0.17200000000E+03 0. -1.
<mgrwt>
<rscale>  2 0.18197518E+03</rscale>
<asrwt>0</asrwt>
<pdfrwt beam="1">  1       21 0.33857018E-01 0.18197518E+03</pdfrwt>
<pdfrwt beam="2">  1       21 0.64845527E-01 0.18197518E+03</pdfrwt>
<totfact> 0.18532072E+04</totfact>
</mgrwt>
</event>
<event>
 4    1  0.1115666E+000  0.1726771E+03  0.7546771E-02  0.1175084E+00
         21   -1    0    0  503  502  0.00000000000E+00  0.00000000000E+00  0.29487494603E+02  0.29487494603E+02  0.00000000000E+00 0. -1.
         21   -1    0    0  501  503 -0.00000000000E+00 -0.00000000000E+00 -0.13141529132E+04  0.13141529132E+04  0.00000000000E+00 0. -1.
          6    1    1    2  501    0  0.15264516162E+02 -0.61401294118E+00 -0.96490474869E+03  0.98023392949E+03  0.17200000000E+03 0. -1.
         -6    1    1    2    0  502 -0.15264516162E+02  0.61401294118E+00 -0.31976066991E+03  0.36340647832E+03  0.17200000000E+03 0. -1.
<mgrwt>
<rscale>  2 0.17267710E+03</rscale>
<asrwt>0</asrwt>
<pdfrwt beam="1">  1       21 0.73718740E-02 0.17267710E+03</pdfrwt>
<pdfrwt beam="2">  1       21 0.32853821E+00 0.17267710E+03</pdfrwt>
<totfact> 0.33178035E+03</totfact>
</mgrwt>
</event>
<event>
 4    1  0.1115666E+000  0.3628543E+03  0.7546771E-02  0.1057459E+00
         21   -1    0    0  503  502  0.00000000000E+00  0.00000000000E+00  0.15990391334E+03  0.15990391334E+03  0.00000000000E+00 0.  1.
         21   -1    0    0  501  503 -0.00000000000E+00 -0.00000000000E+00 -0.11644333353E+04  0.11644333353E+04  0.00000000000E+00 0.  1.
          6    1    1    2  501    0 -0.18552823614E+02 -0.31895928558E+03 -0.86062201986E+03  0.93398795184E+03  0.17200000000E+03 0.  1.
         -6    1    1    2    0  502  0.18552823614E+02  0.31895928558E+03 -0.14390740207E+03  0.39034929677E+03  0.17200000000E+03 0.  1.
<mgrwt>
<rscale>  2 0.36285429E+03</rscale>
<asrwt>0</asrwt>
<pdfrwt beam="1">  1       21 0.39975979E-01 0.36285429E+03</pdfrwt>
<pdfrwt beam="2">  1       21 0.29110833E+00 0.36285429E+03</pdfrwt>
<totfact> 0.19281920E+02</totfact>
</mgrwt>
</event>
<event>
 4    1  0.1115666E+000  0.2276266E+03  0.7546771E-02  0.1128322E+00
         21   -1    0    0  501  502  0.00000000000E+00  0.00000000000E+00  0.43590196871E+03  0.43590196871E+03  0.00000000000E+00 0.  1.
         21   -1    0    0  502  503 -0.00000000000E+00 -0.00000000000E+00 -0.13479229505E+03  0.13479229505E+03  0.00000000000E+00 0.  1.
          6    1    1    2  501    0  0.34460259663E+02 -0.14505983841E+03  0.24863928325E+03  0.33709844169E+03  0.17200000000E+03 0.  1.
         -6    1    1    2    0  503 -0.34460259663E+02  0.14505983841E+03  0.52470390412E+02  0.23359582206E+03  0.17200000000E+03 0.  1.
<mgrwt>
<rscale>  2 0.22762659E+03</rscale>
<asrwt>0</asrwt>
<pdfrwt beam="1">  1       21 0.10897549E+00 0.22762659E+03</pdfrwt>
<pdfrwt beam="2">  1       21 0.33698075E-01 0.22762659E+03</pdfrwt>
<totfact> 0.55209710E+03</totfact>
</mgrwt>
</event>
<event>
 4    1  0.1115666E+000  0.1941990E+03  0.7546771E-02  0.1154728E+00
         21   -1    0    0  501  502  0.00000000000E+00  0.00000000000E+00  0.34501653634E+02  0.34501653634E+02  0.00000000000E+00 0.  1.
         21   -1    0    0  502  503 -0.00000000000E+00 -0.00000000000E+00 -0.11495940176E+04  0.11495940176E+04  0.00000000000E+00 0.  1.
          6    1    1    2  501    0 -0.45094475410E+02  0.78075125180E+02 -0.42628274160E+03  0.46843378686E+03  0.17200000000E+03 0.  1.
         -6    1    1    2    0  503  0.45094475410E+02 -0.78075125180E+02 -0.68880962236E+03  0.71566188437E+03  0.17200000000E+03 0.  1.
<mgrwt>
<rscale>  2 0.19419896E+03</rscale>
<asrwt>0</asrwt>
<pdfrwt beam="1">  1       21 0.86254137E-02 0.19419896E+03</pdfrwt>
<pdfrwt beam="2">  1       21 0.28739849E+00 0.19419896E+03</pdfrwt>
<totfact> 0.42375796E+03</totfact>
</mgrwt>
</event>
<event>
 4    1  0.1115666E+000  0.1768737E+03  0.7546771E-02  0.1170863E+00
         21   -1    0    0  501  502  0.00000000000E+00  0.00000000000E+00  0.53285580486E+02  0.53285580486E+02  0.00000000000E+00 0.  1.
         21   -1    0    0  502  503 -0.00000000000E+00 -0.00000000000E+00 -0.61777539803E+03  0.61777539803E+03  0.00000000000E+00 0. -1.
          6    1    1    2  501    0  0.16742320096E+02 -0.37683076872E+02 -0.20748571864E+03  0.27264380243E+03  0.17200000000E+03 0.  1.
         -6    1    1    2    0  503 -0.16742320096E+02  0.37683076872E+02 -0.35700409891E+03  0.39841717609E+03  0.17200000000E+03 0. -1.
<mgrwt>
<rscale>  2 0.17687374E+03</rscale>
<asrwt>0</asrwt>
<pdfrwt beam="1">  1       21 0.13321396E-01 0.17687374E+03</pdfrwt>
<pdfrwt beam="2">  1       21 0.15444384E+00 0.17687374E+03</pdfrwt>
<totfact> 0.13617512E+04</totfact>
</mgrwt>
</event>
<event>
 4    1  0.1115666E+000  0.1927143E+03  0.7546771E-02  0.1156036E+00
         21   -1    0    0  501  502  0.00000000000E+00  0.00000000000E+00  0.27612930254E+03  0.27612930254E+03  0.00000000000E+00 0. -1.
         21   -1    0    0  502  503 -0.00000000000E+00 -0.00000000000E+00 -0.13979742261E+03  0.13979742261E+03  0.00000000000E+00 0. -1.
          6    1    1    2  501    0 -0.84621502781E+02  0.19849481289E+02  0.10865681927E+03  0.22123540633E+03  0.17200000000E+03 0. -1.
         -6    1    1    2    0  503  0.84621502781E+02 -0.19849481289E+02  0.27675060659E+02  0.19469131882E+03  0.17200000000E+03 0. -1.
<mgrwt>
<rscale>  2 0.19271430E+03</rscale>
<asrwt>0</asrwt>
<pdfrwt beam="1">  1       21 0.69032325E-01 0.19271430E+03</pdfrwt>
<pdfrwt beam="2">  1       21 0.34949356E-01 0.19271430E+03</pdfrwt>
<totfact> 0.15078849E+04</totfact>
</mgrwt>
</event>
<event>
 4    1  0.1115666E+000  0.2111026E+03  0.7546771E-02  0.1140696E+00
         21   -1    0    0  503  502  0.00000000000E+00  0.00000000000E+00  0.17250495835E+03  0.17250495835E+03  0.00000000000E+00 0. -1.
         21   -1    0    0  501  503 -0.00000000000E+00 -0.00000000000E+00 -0.32936993592E+03  0.32936993592E+03  0.00000000000E+00 0. -1.
          6    1    1    2  501    0  0.54787400280E+02  0.10944702497E+03 -0.19496717318E+03  0.28736128675E+03  0.17200000000E+03 0. -1.
         -6    1    1    2    0  502 -0.54787400280E+02 -0.10944702497E+03  0.38102195609E+02  0.21451360753E+03  0.17200000000E+03 0. -1.
<mgrwt>
<rscale>  2 0.21110261E+03</rscale>
<asrwt>0</asrwt>
<pdfrwt beam="1">  1       21 0.43126240E-01 0.21110261E+03</pdfrwt>
<pdfrwt beam="2">  1       21 0.82342483E-01 0.21110261E+03</pdfrwt>
<totfact> 0.65702957E+03</totfact>
</mgrwt>
</event>
<event>
 4    1  0.1115666E+000  0.1875758E+03  0.7546771E-02  0.1160666E+00
         21   -1    0    0  503  502  0.00000000000E+00  0.00000000000E+00  0.27095511176E+03  0.27095511176E+03  0.00000000000E+00 0.  1.
         21   -1    0    0  501  503 -0.00000000000E+00 -0.00000000000E+00 -0.19339676757E+03  0.19339676757E+03  0.00000000000E+00 0. -1.
          6    1    1    2  501    0 -0.68612454930E+01  0.74522399500E+02 -0.94304543475E+02  0.20994764023E+03  0.17200000000E+03 0. -1.
         -6    1    1    2    0  502  0.68612454930E+01 -0.74522399500E+02  0.17186288767E+03  0.25440423910E+03  0.17200000000E+03 0.  1.
<mgrwt>
<rscale>  2 0.18757576E+03</rscale>
<asrwt>0</asrwt>
<pdfrwt beam="1">  1       21 0.67738778E-01 0.18757576E+03</pdfrwt>
<pdfrwt beam="2">  1       21 0.48349192E-01 0.18757576E+03</pdfrwt>
<totfact> 0.81674542E+03</totfact>
</mgrwt>
</event>
<event>
 4    1  0.1115666E+000  0.2139120E+03  0.7546771E-02  0.1138505E+00
         21   -1    0    0  501  502  0.00000000000E+00  0.00000000000E+00  0.19762826659E+03  0.19762826659E+03  0.00000000000E+00 0.  1.
         21   -1    0    0  502  503 -0.00000000000E+00 -0.00000000000E+00 -0.34024394627E+03  0.34024394627E+03  0.00000000000E+00 0. -1.
          6    1    1    2  501    0  0.45972737851E+02  0.11857848667E+03  0.80705466726E+02  0.22863009969E+03  0.17200000000E+03 0.  1.
         -6    1    1    2    0  503 -0.45972737851E+02 -0.11857848667E+03 -0.22332114641E+03  0.30924211317E+03  0.17200000000E+03 0. -1.
<mgrwt>
<rscale>  2 0.21391201E+03</rscale>
<asrwt>0</asrwt>
<pdfrwt beam="1">  1       21 0.49407067E-01 0.21391201E+03</pdfrwt>
<pdfrwt beam="2">  1       21 0.85060986E-01 0.21391201E+03</pdfrwt>
<totfact> 0.45965906E+03</totfact>
</mgrwt>
</event>
<event>
 4    1  0.1115666E+000  0.2448654E+03  0.7546771E-02  0.1116593E+00
         21   -1    0    0  503  502  0.00000000000E+00  0.00000000000E+00  0.52137248090E+03  0.52137248090E+03  0.00000000000E+00 0.  1.
         21   -1    0    0  501  503 -0.00000000000E+00 -0.00000000000E+00 -0.11544195643E+03  0.11544195643E+03  0.00000000000E+00 0.  1.
          6    1    1    2  501    0 -0.16854719589E+03 -0.44349830232E+02  0.18331677375E+03  0.30588250068E+03  0.17200000000E+03 0.  1.
         -6    1    1    2    0  502  0.16854719589E+03  0.44349830232E+02  0.22261375072E+03  0.33093193665E+03  0.17200000000E+03 0.  1.
<mgrwt>
<rscale>  2 0.24486540E+03</rscale>
<asrwt>0</asrwt>
<pdfrwt beam="1">  1       21 0.13034311E+00 0.24486540E+03</pdfrwt>
<pdfrwt beam="2">  1       21 0.28860490E-01 0.24486540E+03</pdfrwt>
<totfact> 0.47438922E+03</totfact>
</mgrwt>
</event>
<event>
 4    1  0.1115666E+000  0.2247564E+03  0.7546771E-02  0.1130386E+00
         21   -1    0    0  503  502  0.00000000000E+00  0.00000000000E+00  0.14461411918E+04  0.14461411918E+04  0.00000000000E+00 0. -1.
         21   -1    0    0  501  503 -0.00000000000E+00 -0.00000000000E+00 -0.39670801872E+02  0.39670801872E+02  0.00000000000E+00 0.  1.
          6    1    1    2  501    0  0.51826906282E+01 -0.14458409455E+03  0.96002048754E+03  0.98597908556E+03  0.17200000000E+03 0. -1.
         -6    1    1    2    0  502 -0.51826906282E+01  0.14458409455E+03  0.44644990237E+03  0.49983290809E+03  0.17200000000E+03 0.  1.
<mgrwt>
<rscale>  2 0.22475636E+03</rscale>
<asrwt>0</asrwt>
<pdfrwt beam="1">  1       21 0.36153512E+00 0.22475636E+03</pdfrwt>
<pdfrwt beam="2">  1       21 0.99177053E-02 0.22475636E+03</pdfrwt>
<totfact> 0.11772264E+03</totfact>
</mgrwt>
</event>
<event>
 4    1  0.1115666E+000  0.1724555E+03  0.7546771E-02  0.1175311E+00
         21   -1    0    0  501  502  0.00000000000E+00  0.00000000000E+00  0.12424906181E+03  0.12424906181E+03  0.00000000000E+00 0. -1.
         21   -1    0    0  502  503 -0.00000000000E+00 -0.00000000000E+00 -0.45169861043E+03  0.45169861043E+03  0.00000000000E+00 0. -1.
          6    1    1    2  501    0 -0.12443105579E+02  0.14364209735E+01  0.33716471451E+02  0.17572050145E+03  0.17200000000E+03 0. -1.
         -6    1    1    2    0  503  0.12443105579E+02 -0.14364209735E+01 -0.36116602008E+03  0.40022717079E+03  0.17200000000E+03 0. -1.
<mgrwt>
<rscale>  2 0.17245548E+03</rscale>
<asrwt>0</asrwt>
<pdfrwt beam="1">  1       21 0.31062266E-01 0.17245548E+03</pdfrwt>
<pdfrwt beam="2">  1       21 0.11292465E+00 0.17245548E+03</pdfrwt>
<totfact> 0.62010414E+03</totfact>
</mgrwt>
</event>
<event>
 4    1  0.1115666E+000  0.1843877E+03  0.7546771E-02  0.1163623E+00
         21   -1    0    0  501  502  0.00000000000E+00  0.00000000000E+00  0.80243290512E+03  0.80243290512E+03  0.00000000000E+00 0. -1.
         21   -1    0    0  502  503 -0.00000000000E+00 -0.00000000000E+00 -0.11595039013E+03  0.11595039013E+03  0.00000000000E+00 0. -1.
          6    1    1    2  501    0 -0.60040247652E+02  0.28460581460E+02  0.70903798952E+03  0.73262112078E+03  0.17200000000E+03 0. -1.
         -6    1    1    2    0  503  0.60040247652E+02 -0.28460581460E+02 -0.22555474528E+02  0.18576217448E+03  0.17200000000E+03 0. -1.
<mgrwt>
<rscale>  2 0.18438773E+03</rscale>
<asrwt>0</asrwt>
<pdfrwt beam="1">  1       21 0.20060821E+00 0.18438773E+03</pdfrwt>
<pdfrwt beam="2">  1       21 0.28987600E-01 0.18438773E+03</pdfrwt>
<totfact> 0.15297475E+03</totfact>
</mgrwt>
</event>
<event>
 4    1  0.1115666E+000  0.1871690E+03  0.7546771E-02  0.1161040E+00
         21   -1    0    0  503  502  0.00000000000E+00  0.00000000000E+00  0.29969559740E+03  0.29969559740E+03  0.00000000000E+00 0. -1.
         21   -1    0    0  501  503 -0.00000000000E+00 -0.00000000000E+00 -0.34053111785E+03  0.34053111785E+03  0.00000000000E+00 0. -1.
          6    1    1    2  501    0 -0.64296748525E+02 -0.36251312074E+02 -0.27983485656E+03  0.33665973392E+03  0.17200000000E+03 0. -1.
         -6    1    1    2    0  502  0.64296748525E+02  0.36251312074E+02  0.23899933610E+03  0.30356698133E+03  0.17200000000E+03 0. -1.
<mgrwt>
<rscale>  2 0.18716899E+03</rscale>
<asrwt>0</asrwt>
<pdfrwt beam="1">  1       21 0.74923899E-01 0.18716899E+03</pdfrwt>
<pdfrwt beam="2">  1       21 0.85132780E-01 0.18716899E+03</pdfrwt>
<totfact> 0.19123229E+03</totfact>
</mgrwt>
</event>
<event>
 4    1  0.1115666E+000  0.1852579E+03  0.7546771E-02  0.1162809E+00
         21   -1    0    0  503  502  0.00000000000E+00  0.00000000000E+00  0.40991052134E+03  0.40991052134E+03  0.00000000000E+00 0. -1.
         21   -1    0    0  501  503 -0.00000000000E+00 -0.00000000000E+00 -0.83909363830E+02  0.83909363830E+02  0.00000000000E+00 0. -1.
          6    1    1    2  501    0  0.28486717334E+02 -0.62649780021E+02  0.15148290870E+03  0.23930641368E+03  0.17200000000E+03 0. -1.
         -6    1    1    2    0  502 -0.28486717334E+02  0.62649780021E+02  0.17451824882E+03  0.25451347149E+03  0.17200000000E+03 0. -1.
<mgrwt>
<rscale>  2 0.18525790E+03</rscale>
<asrwt>0</asrwt>
<pdfrwt beam="1">  1       21 0.10247762E+00 0.18525790E+03</pdfrwt>
<pdfrwt beam="2">  1       21 0.20977342E-01 0.18525790E+03</pdfrwt>
<totfact> 0.16426739E+04</totfact>
</mgrwt>
</event>
<event>
 4    1  0.1115666E+000  0.2411493E+03  0.7546771E-02  0.1119030E+00
         21   -1    0    0  503  502  0.00000000000E+00  0.00000000000E+00  0.95185018857E+02  0.95185018857E+02  0.00000000000E+00 0. -1.
         21   -1    0    0  501  503 -0.00000000000E+00 -0.00000000000E+00 -0.61120880961E+03  0.61120880961E+03  0.00000000000E+00 0. -1.
          6    1    1    2  501    0  0.83941330693E+02 -0.14670664994E+03 -0.25069994549E+03  0.34785550276E+03  0.17200000000E+03 0. -1.
         -6    1    1    2    0  502 -0.83941330693E+02  0.14670664994E+03 -0.26532384527E+03  0.35853832571E+03  0.17200000000E+03 0. -1.
<mgrwt>
<rscale>  2 0.24114931E+03</rscale>
<asrwt>0</asrwt>
<pdfrwt beam="1">  1       21 0.23796255E-01 0.24114931E+03</pdfrwt>
<pdfrwt beam="2">  1       21 0.15280220E+00 0.24114931E+03</pdfrwt>
<totfact> 0.45591405E+03</totfact>
</mgrwt>
</event>
<event>
 4    1  0.1115666E+000  0.2320834E+03  0.7546771E-02  0.1125182E+00
         21   -1    0    0  503  502  0.00000000000E+00  0.00000000000E+00  0.68228286996E+02  0.68228286996E+02  0.00000000000E+00 0.  1.
         21   -1    0    0  501  503 -0.00000000000E+00 -0.00000000000E+00 -0.10185049940E+04  0.10185049940E+04  0.00000000000E+00 0. -1.
          6    1    1    2  501    0  0.40370120340E+02  0.15049567120E+03 -0.73281973760E+03  0.76869204593E+03  0.17200000000E+03 0. -1.
         -6    1    1    2    0  502 -0.40370120340E+02 -0.15049567120E+03 -0.21745696945E+03  0.31804123510E+03  0.17200000000E+03 0.  1.
<mgrwt>
<rscale>  2 0.23208338E+03</rscale>
<asrwt>0</asrwt>
<pdfrwt beam="1">  1       21 0.17057072E-01 0.23208338E+03</pdfrwt>
<pdfrwt beam="2">  1       21 0.25462625E+00 0.23208338E+03</pdfrwt>
<totfact> 0.18557144E+03</totfact>
</mgrwt>
</event>
<event>
 4    1  0.1115666E+000  0.2005334E+03  0.7546771E-02  0.1149290E+00
         21   -1    0    0  503  502  0.00000000000E+00  0.00000000000E+00  0.12039294114E+03  0.12039294114E+03  0.00000000000E+00 0.  1.
         21   -1    0    0  501  503 -0.00000000000E+00 -0.00000000000E+00 -0.75050954367E+03  0.75050954367E+03  0.00000000000E+00 0.  1.
          6    1    1    2  501    0  0.10053239181E+03 -0.22866808436E+02 -0.63944531875E+03  0.67015219794E+03  0.17200000000E+03 0.  1.
         -6    1    1    2    0  502 -0.10053239181E+03  0.22866808436E+02  0.93287162284E+01  0.20075028687E+03  0.17200000000E+03 0.  1.
<mgrwt>
<rscale>  2 0.20053342E+03</rscale>
<asrwt>0</asrwt>
<pdfrwt beam="1">  1       21 0.30098235E-01 0.20053342E+03</pdfrwt>
<pdfrwt beam="2">  1       21 0.18762738E+00 0.20053342E+03</pdfrwt>
<totfact> 0.16983952E+03</totfact>
</mgrwt>
</event>
<event>
 4    1  0.1115666E+000  0.2181179E+03  0.7546771E-02  0.1135294E+00
         21   -1    0    0  503  502  0.00000000000E+00  0.00000000000E+00  0.19507478765E+03  0.19507478765E+03  0.00000000000E+00 0. -1.
         21   -1    0    0  501  503 -0.00000000000E+00 -0.00000000000E+00 -0.24414303463E+03  0.24414303463E+03  0.00000000000E+00 0. -1.
          6    1    1    2  501    0 -0.90548137642E+02  0.98956834771E+02 -0.31701508837E+02  0.22040963237E+03  0.17200000000E+03 0. -1.
         -6    1    1    2    0  502  0.90548137642E+02 -0.98956834771E+02 -0.17366738148E+02  0.21880818991E+03  0.17200000000E+03 0. -1.
<mgrwt>
<rscale>  2 0.21811790E+03</rscale>
<asrwt>0</asrwt>
<pdfrwt beam="1">  1       21 0.48768697E-01 0.21811790E+03</pdfrwt>
<pdfrwt beam="2">  1       21 0.61035758E-01 0.21811790E+03</pdfrwt>
<totfact> 0.98538913E+03</totfact>
</mgrwt>
</event>
<event>
 4    1  0.1115666E+000  0.2196192E+03  0.7546771E-02  0.1134167E+00
         21   -1    0    0  501  502  0.00000000000E+00  0.00000000000E+00  0.29468573634E+03  0.29468573634E+03  0.00000000000E+00 0.  1.
         21   -1    0    0  502  503 -0.00000000000E+00 -0.00000000000E+00 -0.22044159441E+03  0.22044159441E+03  0.00000000000E+00 0. -1.
          6    1    1    2  501    0  0.33203963530E+02 -0.13246162917E+03  0.16782507305E+03  0.27640159468E+03  0.17200000000E+03 0. -1.
         -6    1    1    2    0  503 -0.33203963530E+02  0.13246162917E+03 -0.93580931115E+02  0.23872573607E+03  0.17200000000E+03 0.  1.
<mgrwt>
<rscale>  2 0.21961918E+03</rscale>
<asrwt>0</asrwt>
<pdfrwt beam="1">  1       21 0.73671434E-01 0.21961918E+03</pdfrwt>
<pdfrwt beam="2">  1       21 0.55110399E-01 0.21961918E+03</pdfrwt>
<totfact> 0.50357295E+03</totfact>
</mgrwt>
</event>
<event>
 4    1  0.1115666E+000  0.1914429E+03  0.7546771E-02  0.1157166E+00
         21   -1    0    0  503  502  0.00000000000E+00  0.00000000000E+00  0.86082169801E+02  0.86082169801E+02  0.00000000000E+00 0. -1.
         21   -1    0    0  501  503 -0.00000000000E+00 -0.00000000000E+00 -0.54912854027E+03  0.54912854027E+03  0.00000000000E+00 0.  1.
          6    1    1    2  501    0  0.37086849370E+02  0.75438446617E+02 -0.38206322247E+03  0.42734377215E+03  0.17200000000E+03 0.  1.
         -6    1    1    2    0  502 -0.37086849370E+02 -0.75438446617E+02 -0.80983147998E+02  0.20786693793E+03  0.17200000000E+03 0. -1.
<mgrwt>
<rscale>  2 0.19144293E+03</rscale>
<asrwt>0</asrwt>
<pdfrwt beam="1">  1       21 0.21520543E-01 0.19144293E+03</pdfrwt>
<pdfrwt beam="2">  1       21 0.13728213E+00 0.19144293E+03</pdfrwt>
<totfact> 0.75803932E+03</totfact>
</mgrwt>
</event>
<event>
 4    1  0.1115666E+000  0.2747921E+03  0.7546771E-02  0.1098568E+00
         21   -1    0    0  501  502  0.00000000000E+00  0.00000000000E+00  0.18701341905E+03  0.18701341905E+03  0.00000000000E+00 0. -1.
         21   -1    0    0  502  503 -0.00000000000E+00 -0.00000000000E+00 -0.49391921076E+03  0.49391921076E+03  0.00000000000E+00 0.  1.
          6    1    1    2  501    0 -0.15592729474E+03  0.14701494462E+03 -0.79997222146E+01  0.27490854977E+03  0.17200000000E+03 0. -1.
         -6    1    1    2    0  503  0.15592729474E+03 -0.14701494462E+03 -0.29890606949E+03  0.40602408003E+03  0.17200000000E+03 0. -1.
<mgrwt>
<rscale>  2 0.27479213E+03</rscale>
<asrwt>0</asrwt>
<pdfrwt beam="1">  1       21 0.46753355E-01 0.27479213E+03</pdfrwt>
<pdfrwt beam="2">  1       21 0.12347980E+00 0.27479213E+03</pdfrwt>
<totfact> 0.20194109E+03</totfact>
</mgrwt>
</event>
<event>
 4    1  0.1115666E+000  0.2137383E+03  0.7546771E-02  0.1138639E+00
         21   -1    0    0  501  502  0.00000000000E+00  0.00000000000E+00  0.35934290397E+03  0.35934290397E+03  0.00000000000E+00 0. -1.
         21   -1    0    0  502  503 -0.00000000000E+00 -0.00000000000E+00 -0.14326687173E+03  0.14326687173E+03  0.00000000000E+00 0.  1.
          6    1    1    2  501    0 -0.12438592516E+03  0.25064152135E+02  0.19237294987E+03  0.28756116209E+03  0.17200000000E+03 0. -1.
         -6    1    1    2    0  503  0.12438592516E+03 -0.25064152135E+02  0.23703082379E+02  0.21504861361E+03  0.17200000000E+03 0.  1.
<mgrwt>
<rscale>  2 0.21373832E+03</rscale>
<asrwt>0</asrwt>
<pdfrwt beam="1">  1       21 0.89835724E-01 0.21373832E+03</pdfrwt>
<pdfrwt beam="2">  1       21 0.35816719E-01 0.21373832E+03</pdfrwt>
<totfact> 0.78118145E+03</totfact>
</mgrwt>
</event>
<event>
 4    1  0.1115666E+000  0.2990013E+03  0.7546771E-02  0.1085741E+00
         21   -1    0    0  503  502  0.00000000000E+00  0.00000000000E+00  0.33773465194E+03  0.33773465194E+03  0.00000000000E+00 0. -1.
         21   -1    0    0  501  503 -0.00000000000E+00 -0.00000000000E+00 -0.58940480946E+03  0.58940480946E+03  0.00000000000E+00 0.  1.
          6    1    1    2  501    0 -0.15829501217E+03  0.18644157365E+03 -0.46990431499E+03  0.55696663859E+03  0.17200000000E+03 0.  1.
         -6    1    1    2    0  502  0.15829501217E+03 -0.18644157365E+03  0.21823415747E+03  0.37017282281E+03  0.17200000000E+03 0. -1.
<mgrwt>
<rscale>  2 0.29900129E+03</rscale>
<asrwt>0</asrwt>
<pdfrwt beam="1">  1       21 0.84433664E-01 0.29900129E+03</pdfrwt>
<pdfrwt beam="2">  1       21 0.14735120E+00 0.29900129E+03</pdfrwt>
<totfact> 0.34443577E+02</totfact>
</mgrwt>
</event>
<event>
 4    1  0.1115666E+000  0.1901032E+03  0.7546771E-02  0.1158368E+00
         21   -1    0    0  503  502  0.00000000000E+00  0.00000000000E+00  0.42178904261E+02  0.42178904261E+02  0.00000000000E+00 0.  1.
         21   -1    0    0  501  503 -0.00000000000E+00 -0.00000000000E+00 -0.13555916161E+04  0.13555916161E+04  0.00000000000E+00 0. -1.
          6    1    1    2  501    0 -0.14482864619E+02 -0.79658388702E+02 -0.10806397620E+04  0.10972335702E+04  0.17200000000E+03 0. -1.
         -6    1    1    2    0  502  0.14482864619E+02  0.79658388702E+02 -0.23277294980E+03  0.30053695017E+03  0.17200000000E+03 0.  1.
<mgrwt>
<rscale>  2 0.19010316E+03</rscale>
<asrwt>0</asrwt>
<pdfrwt beam="1">  1       21 0.10544726E-01 0.19010316E+03</pdfrwt>
<pdfrwt beam="2">  1       21 0.33889790E+00 0.19010316E+03</pdfrwt>
<totfact> 0.15065928E+03</totfact>
</mgrwt>
</event>
<event>
 4    1  0.1115666E+000  0.2838478E+03  0.7546771E-02  0.1093606E+00
         21   -1    0    0  501  502  0.00000000000E+00  0.00000000000E+00  0.62004735624E+03  0.62004735624E+03  0.00000000000E+00 0. -1.
         21   -1    0    0  502  503 -0.00000000000E+00 -0.00000000000E+00 -0.12994266622E+03  0.12994266622E+03  0.00000000000E+00 0.  1.
          6    1    1    2  501    0 -0.21762610665E+03  0.60203630482E+02  0.24637821850E+03  0.37586144518E+03  0.17200000000E+03 0. -1.
         -6    1    1    2    0  503  0.21762610665E+03 -0.60203630482E+02  0.24372647152E+03  0.37412857728E+03  0.17200000000E+03 0.  1.
<mgrwt>
<rscale>  2 0.28384785E+03</rscale>
<asrwt>0</asrwt>
<pdfrwt beam="1">  1       21 0.15501183E+00 0.28384785E+03</pdfrwt>
<pdfrwt beam="2">  1       21 0.32485668E-01 0.28384785E+03</pdfrwt>
<totfact> 0.23254161E+03</totfact>
</mgrwt>
</event>
<event>
 4    1  0.1115666E+000  0.1895821E+03  0.7546771E-02  0.1158839E+00
         21   -1    0    0  503  502  0.00000000000E+00  0.00000000000E+00  0.54570072423E+03  0.54570072423E+03  0.00000000000E+00 0.  1.
         21   -1    0    0  501  503 -0.00000000000E+00 -0.00000000000E+00 -0.15381102183E+03  0.15381102183E+03  0.00000000000E+00 0.  1.
          6    1    1    2  501    0 -0.79678104084E+02 -0.29648113589E+01 -0.68530231233E+02  0.20158815186E+03  0.17200000000E+03 0.  1.
         -6    1    1    2    0  502  0.79678104084E+02  0.29648113589E+01  0.46041993363E+03  0.49792359420E+03  0.17200000000E+03 0.  1.
<mgrwt>
<rscale>  2 0.18958215E+03</rscale>
<asrwt>0</asrwt>
<pdfrwt beam="1">  1       21 0.13642518E+00 0.18958215E+03</pdfrwt>
<pdfrwt beam="2">  1       21 0.38452757E-01 0.18958215E+03</pdfrwt>
<totfact> 0.25014406E+03</totfact>
</mgrwt>
</event>
<event>
 4    1  0.1115666E+000  0.2187727E+03  0.7546771E-02  0.1134801E+00
         21   -1    0    0  503  502  0.00000000000E+00  0.00000000000E+00  0.23010934976E+03  0.23010934976E+03  0.00000000000E+00 0.  1.
         21   -1    0    0  501  503 -0.00000000000E+00 -0.00000000000E+00 -0.20799519860E+03  0.20799519860E+03  0.00000000000E+00 0.  1.
          6    1    1    2  501    0  0.28578601533E+02  0.13213913562E+03  0.11447798623E+02  0.21907199666E+03  0.17200000000E+03 0.  1.
         -6    1    1    2    0  502 -0.28578601533E+02 -0.13213913562E+03  0.10666352534E+02  0.21903255170E+03  0.17200000000E+03 0.  1.
<mgrwt>
<rscale>  2 0.21877268E+03</rscale>
<asrwt>0</asrwt>
<pdfrwt beam="1">  1       21 0.57527337E-01 0.21877268E+03</pdfrwt>
<pdfrwt beam="2">  1       21 0.51998800E-01 0.21877268E+03</pdfrwt>
<totfact> 0.97808490E+03</totfact>
</mgrwt>
</event>
<event>
 4    1  0.1115666E+000  0.1982756E+03  0.7546771E-02  0.1151202E+00
         21   -1    0    0  503  502  0.00000000000E+00  0.00000000000E+00  0.11424818226E+03  0.11424818226E+03  0.00000000000E+00 0.  1.
         21   -1    0    0  501  503 -0.00000000000E+00 -0.00000000000E+00 -0.46023838786E+03  0.46023838786E+03  0.00000000000E+00 0. -1.
          6    1    1    2  501    0  0.53843719620E+02  0.82644194774E+02 -0.31728624090E+03  0.37414404677E+03  0.17200000000E+03 0. -1.
         -6    1    1    2    0  502 -0.53843719620E+02 -0.82644194774E+02 -0.28703964694E+02  0.20034252335E+03  0.17200000000E+03 0.  1.
<mgrwt>
<rscale>  2 0.19827559E+03</rscale>
<asrwt>0</asrwt>
<pdfrwt beam="1">  1       21 0.28562046E-01 0.19827559E+03</pdfrwt>
<pdfrwt beam="2">  1       21 0.11505960E+00 0.19827559E+03</pdfrwt>
<totfact> 0.68349548E+03</totfact>
</mgrwt>
</event>
<event>
 4    1  0.1115666E+000  0.1786143E+03  0.7546771E-02  0.1169151E+00
         21   -1    0    0  501  502  0.00000000000E+00  0.00000000000E+00  0.55028663462E+03  0.55028663462E+03  0.00000000000E+00 0.  1.
         21   -1    0    0  502  503 -0.00000000000E+00 -0.00000000000E+00 -0.59814313566E+02  0.59814313566E+02  0.00000000000E+00 0.  1.
          6    1    1    2  501    0 -0.43858565800E+02 -0.19886619084E+02  0.29872431332E+03  0.34805066698E+03  0.17200000000E+03 0.  1.
         -6    1    1    2    0  503  0.43858565800E+02  0.19886619084E+02  0.19174800773E+03  0.26205028121E+03  0.17200000000E+03 0.  1.
<mgrwt>
<rscale>  2 0.17861425E+03</rscale>
<asrwt>0</asrwt>
<pdfrwt beam="1">  1       21 0.13757164E+00 0.17861425E+03</pdfrwt>
<pdfrwt beam="2">  1       21 0.14953580E-01 0.17861425E+03</pdfrwt>
<totfact> 0.14913783E+04</totfact>
</mgrwt>
</event>
<event>
 4    1  0.1115666E+000  0.1904321E+03  0.7546771E-02  0.1158072E+00
         21   -1    0    0  503  502  0.00000000000E+00  0.00000000000E+00  0.15937309755E+03  0.15937309755E+03  0.00000000000E+00 0.  1.
         21   -1    0    0  501  503 -0.00000000000E+00 -0.00000000000E+00 -0.26313077838E+03  0.26313077838E+03  0.00000000000E+00 0.  1.
          6    1    1    2  501    0 -0.48983935145E+02 -0.65429153058E+02 -0.12956772969E+03  0.23033062443E+03  0.17200000000E+03 0.  1.
         -6    1    1    2    0  502  0.48983935145E+02  0.65429153058E+02  0.25810048853E+02  0.19217325150E+03  0.17200000000E+03 0.  1.
<mgrwt>
<rscale>  2 0.19043214E+03</rscale>
<asrwt>0</asrwt>
<pdfrwt beam="1">  1       21 0.39843274E-01 0.19043214E+03</pdfrwt>
<pdfrwt beam="2">  1       21 0.65782694E-01 0.19043214E+03</pdfrwt>
<totfact> 0.12911208E+04</totfact>
</mgrwt>
</event>
<event>
 4    1  0.1115666E+000  0.1823106E+03  0.7546771E-02  0.1165585E+00
         21   -1    0    0  501  502  0.00000000000E+00  0.00000000000E+00  0.67869998630E+03  0.67869998630E+03  0.00000000000E+00 0.  1.
         21   -1    0    0  502  503 -0.00000000000E+00 -0.00000000000E+00 -0.49765804555E+02  0.49765804555E+02  0.00000000000E+00 0.  1.
          6    1    1    2  501    0  0.40186114284E+02 -0.45146947578E+02  0.36047376617E+03  0.40395359480E+03  0.17200000000E+03 0. -1.
         -6    1    1    2    0  503 -0.40186114284E+02  0.45146947578E+02  0.26846041558E+03  0.32451219605E+03  0.17200000000E+03 0. -1.
<mgrwt>
<rscale>  2 0.18231064E+03</rscale>
<asrwt>0</asrwt>
<pdfrwt beam="1">  1       21 0.16967497E+00 0.18231064E+03</pdfrwt>
<pdfrwt beam="2">  1       21 0.12441453E-01 0.18231064E+03</pdfrwt>
<totfact> 0.11893696E+04</totfact>
</mgrwt>
</event>
<event>
 4    1  0.1115666E+000  0.2028124E+03  0.7546771E-02  0.1147388E+00
         21   -1    0    0  501  502  0.00000000000E+00  0.00000000000E+00  0.40032997491E+03  0.40032997491E+03  0.00000000000E+00 0.  1.
         21   -1    0    0  502  503 -0.00000000000E+00 -0.00000000000E+00 -0.14808793617E+03  0.14808793617E+03  0.00000000000E+00 0.  1.
          6    1    1    2  501    0  0.10339950430E+03  0.29281648209E+02 -0.25606731517E+02  0.20442254550E+03  0.17200000000E+03 0.  1.
         -6    1    1    2    0  503 -0.10339950430E+03 -0.29281648209E+02  0.27784877026E+03  0.34399536559E+03  0.17200000000E+03 0.  1.
<mgrwt>
<rscale>  2 0.20281241E+03</rscale>
<asrwt>0</asrwt>
<pdfrwt beam="1">  1       21 0.10008249E+00 0.20281241E+03</pdfrwt>
<pdfrwt beam="2">  1       21 0.37021985E-01 0.20281241E+03</pdfrwt>
<totfact> 0.57203354E+03</totfact>
</mgrwt>
</event>
<event>
 4    1  0.1115666E+000  0.1867348E+03  0.7546771E-02  0.1161440E+00
         21   -1    0    0  501  502  0.00000000000E+00  0.00000000000E+00  0.51979551195E+03  0.51979551195E+03  0.00000000000E+00 0.  1.
         21   -1    0    0  502  503 -0.00000000000E+00 -0.00000000000E+00 -0.17736252612E+03  0.17736252612E+03  0.00000000000E+00 0. -1.
          6    1    1    2  501    0  0.27282585816E+02  0.67390943711E+02  0.44607937931E+03  0.48358731521E+03  0.17200000000E+03 0.  1.
         -6    1    1    2    0  503 -0.27282585816E+02 -0.67390943711E+02 -0.10364639348E+03  0.21357072287E+03  0.17200000000E+03 0. -1.
<mgrwt>
<rscale>  2 0.18673478E+03</rscale>
<asrwt>0</asrwt>
<pdfrwt beam="1">  1       21 0.12994887E+00 0.18673478E+03</pdfrwt>
<pdfrwt beam="2">  1       21 0.44340633E-01 0.18673478E+03</pdfrwt>
<totfact> 0.21251480E+03</totfact>
</mgrwt>
</event>
<event>
 4    1  0.1115666E+000  0.1853962E+03  0.7546771E-02  0.1162680E+00
         21   -1    0    0  503  502  0.00000000000E+00  0.00000000000E+00  0.23165986940E+03  0.23165986940E+03  0.00000000000E+00 0.  1.
         21   -1    0    0  501  503 -0.00000000000E+00 -0.00000000000E+00 -0.21507361733E+03  0.21507361733E+03  0.00000000000E+00 0.  1.
          6    1    1    2  501    0  0.51556815986E+02 -0.46148090841E+02 -0.11609941557E+03  0.21874831624E+03  0.17200000000E+03 0.  1.
         -6    1    1    2    0  502 -0.51556815986E+02  0.46148090841E+02  0.13268566765E+03  0.22798517049E+03  0.17200000000E+03 0.  1.
<mgrwt>
<rscale>  2 0.18539620E+03</rscale>
<asrwt>0</asrwt>
<pdfrwt beam="1">  1       21 0.57914967E-01 0.18539620E+03</pdfrwt>
<pdfrwt beam="2">  1       21 0.53768404E-01 0.18539620E+03</pdfrwt>
<totfact> 0.91918488E+03</totfact>
</mgrwt>
</event>
<event>
 4    1  0.1115666E+000  0.1855409E+03  0.7546771E-02  0.1162546E+00
         21   -1    0    0  501  502  0.00000000000E+00  0.00000000000E+00  0.69240310129E+02  0.69240310129E+02  0.00000000000E+00 0. -1.
         21   -1    0    0  502  503 -0.00000000000E+00 -0.00000000000E+00 -0.80569442665E+03  0.80569442665E+03  0.00000000000E+00 0.  1.
          6    1    1    2  501    0 -0.69542739778E+02 -0.22877451078E+01 -0.97524198017E+02  0.20961010384E+03  0.17200000000E+03 0. -1.
         -6    1    1    2    0  503  0.69542739778E+02  0.22877451078E+01 -0.63892991851E+03  0.66532463294E+03  0.17200000000E+03 0.  1.
<mgrwt>
<rscale>  2 0.18554090E+03</rscale>
<asrwt>0</asrwt>
<pdfrwt beam="1">  1       21 0.17310077E-01 0.18554090E+03</pdfrwt>
<pdfrwt beam="2">  1       21 0.20142361E+00 0.18554090E+03</pdfrwt>
<totfact> 0.39949769E+03</totfact>
</mgrwt>
</event>
<event>
 4    1  0.1115666E+000  0.2034772E+03  0.7546771E-02  0.1146838E+00
         21   -1    0    0  503  502  0.00000000000E+00  0.00000000000E+00  0.47143132398E+02  0.47143132398E+02  0.00000000000E+00 0.  1.
         21   -1    0    0  501  503 -0.00000000000E+00 -0.00000000000E+00 -0.88338366854E+03  0.88338366854E+03  0.00000000000E+00 0. -1.
          6    1    1    2  501    0  0.15804560484E+02 -0.10756009726E+03 -0.45362481087E+03  0.49717042117E+03  0.17200000000E+03 0. -1.
         -6    1    1    2    0  502 -0.15804560484E+02  0.10756009726E+03 -0.38261572527E+03  0.43335637976E+03  0.17200000000E+03 0.  1.
<mgrwt>
<rscale>  2 0.20347717E+03</rscale>
<asrwt>0</asrwt>
<pdfrwt beam="1">  1       21 0.11785783E-01 0.20347717E+03</pdfrwt>
<pdfrwt beam="2">  1       21 0.22084592E+00 0.20347717E+03</pdfrwt>
<totfact> 0.59633088E+03</totfact>
</mgrwt>
</event>
<event>
 4    1  0.1115666E+000  0.2552672E+03  0.7546771E-02  0.1110021E+00
         21   -1    0    0  501  502  0.00000000000E+00  0.00000000000E+00  0.70499825321E+02  0.70499825321E+02  0.00000000000E+00 0. -1.
         21   -1    0    0  502  503 -0.00000000000E+00 -0.00000000000E+00 -0.96031416105E+03  0.96031416105E+03  0.00000000000E+00 0. -1.
          6    1    1    2  501    0 -0.14647991743E+03 -0.11883179718E+03 -0.54475056223E+03  0.60159333215E+03  0.17200000000E+03 0. -1.
         -6    1    1    2    0  503  0.14647991743E+03  0.11883179718E+03 -0.34506377349E+03  0.42922065422E+03  0.17200000000E+03 0. -1.
<mgrwt>
<rscale>  2 0.25526724E+03</rscale>
<asrwt>0</asrwt>
<pdfrwt beam="1">  1       21 0.17624956E-01 0.25526724E+03</pdfrwt>
<pdfrwt beam="2">  1       21 0.24007854E+00 0.25526724E+03</pdfrwt>
<totfact> 0.20891112E+03</totfact>
</mgrwt>
</event>
<event>
 4    1  0.1115666E+000  0.2568399E+03  0.7546771E-02  0.1109057E+00
         21   -1    0    0  501  502  0.00000000000E+00  0.00000000000E+00  0.60122481784E+03  0.60122481784E+03  0.00000000000E+00 0.  1.
         21   -1    0    0  502  503 -0.00000000000E+00 -0.00000000000E+00 -0.10979882891E+03  0.10979882891E+03  0.00000000000E+00 0.  1.
          6    1    1    2  501    0 -0.17804747746E+02  0.18990982310E+03  0.25520217373E+03  0.36207029625E+03  0.17200000000E+03 0.  1.
         -6    1    1    2    0  503  0.17804747746E+02 -0.18990982310E+03  0.23622381520E+03  0.34895335050E+03  0.17200000000E+03 0.  1.
<mgrwt>
<rscale>  2 0.25683993E+03</rscale>
<asrwt>0</asrwt>
<pdfrwt beam="1">  1       21 0.15030620E+00 0.25683993E+03</pdfrwt>
<pdfrwt beam="2">  1       21 0.27449709E-01 0.25683993E+03</pdfrwt>
<totfact> 0.35796880E+03</totfact>
</mgrwt>
</event>
<event>
 4    1  0.1115666E+000  0.2446436E+03  0.7546771E-02  0.1116737E+00
         21   -1    0    0  501  502  0.00000000000E+00  0.00000000000E+00  0.31321125894E+03  0.31321125894E+03  0.00000000000E+00 0. -1.
         21   -1    0    0  502  503 -0.00000000000E+00 -0.00000000000E+00 -0.19164786091E+03  0.19164786091E+03  0.00000000000E+00 0.  1.
          6    1    1    2  501    0 -0.60070968501E+02 -0.16327273841E+03  0.74441011805E+02  0.25571854177E+03  0.17200000000E+03 0.  1.
         -6    1    1    2    0  503  0.60070968501E+02  0.16327273841E+03  0.47122386227E+02  0.24914057808E+03  0.17200000000E+03 0.  1.
<mgrwt>
<rscale>  2 0.24464364E+03</rscale>
<asrwt>0</asrwt>
<pdfrwt beam="1">  1       21 0.78302814E-01 0.24464364E+03</pdfrwt>
<pdfrwt beam="2">  1       21 0.47911966E-01 0.24464364E+03</pdfrwt>
<totfact> 0.57967982E+03</totfact>
</mgrwt>
</event>
<event>
 4    1  0.1115666E+000  0.2240382E+03  0.7546771E-02  0.1130908E+00
         21   -1    0    0  501  502  0.00000000000E+00  0.00000000000E+00  0.42462701384E+03  0.42462701384E+03  0.00000000000E+00 0. -1.
         21   -1    0    0  502  503 -0.00000000000E+00 -0.00000000000E+00 -0.24671025960E+03  0.24671025960E+03  0.00000000000E+00 0. -1.
          6    1    1    2  501    0 -0.13805063414E+03  0.39384617694E+02  0.33121589041E+03  0.39987134401E+03  0.17200000000E+03 0. -1.
         -6    1    1    2    0  503  0.13805063414E+03 -0.39384617694E+02 -0.15329913617E+03  0.27146592944E+03  0.17200000000E+03 0. -1.
<mgrwt>
<rscale>  2 0.22403822E+03</rscale>
<asrwt>0</asrwt>
<pdfrwt beam="1">  1       21 0.10615675E+00 0.22403822E+03</pdfrwt>
<pdfrwt beam="2">  1       21 0.61677565E-01 0.22403822E+03</pdfrwt>
<totfact> 0.16897656E+03</totfact>
</mgrwt>
</event>
<event>
 4    1  0.1115666E+000  0.2464802E+03  0.7546771E-02  0.1115550E+00
         21   -1    0    0  501  502  0.00000000000E+00  0.00000000000E+00  0.12058727665E+03  0.12058727665E+03  0.00000000000E+00 0. -1.
         21   -1    0    0  502  503 -0.00000000000E+00 -0.00000000000E+00 -0.50409065885E+03  0.50409065885E+03  0.00000000000E+00 0. -1.
          6    1    1    2  501    0 -0.10977267819E+03 -0.13826949119E+03 -0.18431861533E+03  0.30777564073E+03  0.17200000000E+03 0. -1.
         -6    1    1    2    0  503  0.10977267819E+03  0.13826949119E+03 -0.19918476687E+03  0.31690229476E+03  0.17200000000E+03 0. -1.
<mgrwt>
<rscale>  2 0.24648021E+03</rscale>
<asrwt>0</asrwt>
<pdfrwt beam="1">  1       21 0.30146820E-01 0.24648021E+03</pdfrwt>
<pdfrwt beam="2">  1       21 0.12602266E+00 0.24648021E+03</pdfrwt>
<totfact> 0.47397445E+03</totfact>
</mgrwt>
</event>
<event>
 4    1  0.1115666E+000  0.1874134E+03  0.7546771E-02  0.1160815E+00
         21   -1    0    0  503  502  0.00000000000E+00  0.00000000000E+00  0.42003350291E+03  0.42003350291E+03  0.00000000000E+00 0. -1.
         21   -1    0    0  501  503 -0.00000000000E+00 -0.00000000000E+00 -0.32697371738E+03  0.32697371738E+03  0.00000000000E+00 0. -1.
          6    1    1    2  501    0 -0.74282812585E+02 -0.46723090710E+01 -0.27569283745E+03  0.33336212643E+03  0.17200000000E+03 0. -1.
         -6    1    1    2    0  502  0.74282812585E+02  0.46723090710E+01  0.36875262298E+03  0.41364509385E+03  0.17200000000E+03 0. -1.
<mgrwt>
<rscale>  2 0.18741336E+03</rscale>
<asrwt>0</asrwt>
<pdfrwt beam="1">  1       21 0.10500838E+00 0.18741336E+03</pdfrwt>
<pdfrwt beam="2">  1       21 0.81743430E-01 0.18741336E+03</pdfrwt>
<totfact> 0.96197294E+02</totfact>
</mgrwt>
</event>
<event>
 4    1  0.1115666E+000  0.1984585E+03  0.7546771E-02  0.1151046E+00
         21   -1    0    0  501  502  0.00000000000E+00  0.00000000000E+00  0.53383936759E+03  0.53383936759E+03  0.00000000000E+00 0. -1.
         21   -1    0    0  502  503 -0.00000000000E+00 -0.00000000000E+00 -0.15057763892E+03  0.15057763892E+03  0.00000000000E+00 0. -1.
          6    1    1    2  501    0 -0.92585080365E+02  0.35067976221E+02  0.43602416742E+03  0.47906454120E+03  0.17200000000E+03 0. -1.
         -6    1    1    2    0  503  0.92585080365E+02 -0.35067976221E+02 -0.52762438761E+02  0.20535246530E+03  0.17200000000E+03 0. -1.
<mgrwt>
<rscale>  2 0.19845846E+03</rscale>
<asrwt>0</asrwt>
<pdfrwt beam="1">  1       21 0.13345984E+00 0.19845846E+03</pdfrwt>
<pdfrwt beam="2">  1       21 0.37644411E-01 0.19845846E+03</pdfrwt>
<totfact> 0.27383142E+03</totfact>
</mgrwt>
</event>
<event>
 4    1  0.1115666E+000  0.2648570E+03  0.7546771E-02  0.1104260E+00
         21   -1    0    0  503  502  0.00000000000E+00  0.00000000000E+00  0.22081250534E+03  0.22081250534E+03  0.00000000000E+00 0. -1.
         21   -1    0    0  501  503 -0.00000000000E+00 -0.00000000000E+00 -0.31998663681E+03  0.31998663681E+03  0.00000000000E+00 0.  1.
          6    1    1    2  501    0 -0.16604002810E+03  0.11399981610E+03 -0.72510275363E+02  0.27460333034E+03  0.17200000000E+03 0. -1.
         -6    1    1    2    0  502  0.16604002810E+03 -0.11399981610E+03 -0.26663856107E+02  0.26619581181E+03  0.17200000000E+03 0.  1.
<mgrwt>
<rscale>  2 0.26485704E+03</rscale>
<asrwt>0</asrwt>
<pdfrwt beam="1">  1       21 0.55203127E-01 0.26485704E+03</pdfrwt>
<pdfrwt beam="2">  1       21 0.79996659E-01 0.26485704E+03</pdfrwt>
<totfact> 0.40457394E+03</totfact>
</mgrwt>
</event>
<event>
 4    1  0.1115666E+000  0.1792395E+03  0.7546771E-02  0.1168541E+00
         21   -1    0    0  503  502  0.00000000000E+00  0.00000000000E+00  0.42136472043E+03  0.42136472043E+03  0.00000000000E+00 0. -1.
         21   -1    0    0  501  503 -0.00000000000E+00 -0.00000000000E+00 -0.78264335306E+02  0.78264335306E+02  0.00000000000E+00 0. -1.
          6    1    1    2  501    0  0.34990551455E+02  0.36310769525E+02  0.21168085296E+03  0.27737266301E+03  0.17200000000E+03 0. -1.
         -6    1    1    2    0  502 -0.34990551455E+02 -0.36310769525E+02  0.13141953216E+03  0.22225639273E+03  0.17200000000E+03 0. -1.
<mgrwt>
<rscale>  2 0.17923953E+03</rscale>
<asrwt>0</asrwt>
<pdfrwt beam="1">  1       21 0.10534117E+00 0.17923953E+03</pdfrwt>
<pdfrwt beam="2">  1       21 0.19566085E-01 0.17923953E+03</pdfrwt>
<totfact> 0.17583784E+04</totfact>
</mgrwt>
</event>
<event>
 4    1  0.1115666E+000  0.3111185E+03  0.7546771E-02  0.1079811E+00
         21   -1    0    0  501  502  0.00000000000E+00  0.00000000000E+00  0.11416485140E+04  0.11416485140E+04  0.00000000000E+00 0. -1.
         21   -1    0    0  502  503 -0.00000000000E+00 -0.00000000000E+00 -0.43631767440E+03  0.43631767440E+03  0.00000000000E+00 0.  1.
          6    1    1    2  501    0  0.17166289280E+03 -0.19427448853E+03  0.10608543163E+04  0.11055345340E+04  0.17200000000E+03 0. -1.
         -6    1    1    2    0  503 -0.17166289280E+03  0.19427448853E+03 -0.35552347661E+03  0.47243165440E+03  0.17200000000E+03 0.  1.
<mgrwt>
<rscale>  2 0.31111851E+03</rscale>
<asrwt>0</asrwt>
<pdfrwt beam="1">  1       21 0.28541212E+00 0.31111851E+03</pdfrwt>
<pdfrwt beam="2">  1       21 0.10907942E+00 0.31111851E+03</pdfrwt>
<totfact> 0.23396341E+01</totfact>
</mgrwt>
</event>
<event>
 4    1  0.1115666E+000  0.2481319E+03  0.7546771E-02  0.1114491E+00
         21   -1    0    0  503  502  0.00000000000E+00  0.00000000000E+00  0.19535786252E+03  0.19535786252E+03  0.00000000000E+00 0. -1.
         21   -1    0    0  501  503 -0.00000000000E+00 -0.00000000000E+00 -0.34283189837E+03  0.34283189837E+03  0.00000000000E+00 0.  1.
          6    1    1    2  501    0 -0.36935970376E+02 -0.17498903857E+03 -0.15018506611E+03  0.29004307199E+03  0.17200000000E+03 0. -1.
         -6    1    1    2    0  502  0.36935970376E+02  0.17498903857E+03  0.27110302664E+01  0.24814668890E+03  0.17200000000E+03 0.  1.
<mgrwt>
<rscale>  2 0.24813188E+03</rscale>
<asrwt>0</asrwt>
<pdfrwt beam="1">  1       21 0.48839466E-01 0.24813188E+03</pdfrwt>
<pdfrwt beam="2">  1       21 0.85707974E-01 0.24813188E+03</pdfrwt>
<totfact> 0.45200076E+03</totfact>
</mgrwt>
</event>
<event>
 4    1  0.1115666E+000  0.1728320E+03  0.7546771E-02  0.1174926E+00
         21   -1    0    0  501  502  0.00000000000E+00  0.00000000000E+00  0.12723662349E+03  0.12723662349E+03  0.00000000000E+00 0.  1.
         21   -1    0    0  502  503 -0.00000000000E+00 -0.00000000000E+00 -0.24640072992E+03  0.24640072992E+03  0.00000000000E+00 0.  1.
          6    1    1    2  501    0  0.60501868347E+01 -0.15820960001E+02 -0.18987614757E+02  0.17387189839E+03  0.17200000000E+03 0.  1.
         -6    1    1    2    0  503 -0.60501868347E+01  0.15820960001E+02 -0.10017649167E+03  0.19976545502E+03  0.17200000000E+03 0.  1.
<mgrwt>
<rscale>  2 0.17283202E+03</rscale>
<asrwt>0</asrwt>
<pdfrwt beam="1">  1       21 0.31809156E-01 0.17283202E+03</pdfrwt>
<pdfrwt beam="2">  1       21 0.61600182E-01 0.17283202E+03</pdfrwt>
<totfact> 0.23540451E+04</totfact>
</mgrwt>
</event>
<event>
 4    1  0.1115666E+000  0.1805389E+03  0.7546771E-02  0.1167282E+00
         21   -1    0    0  503  502  0.00000000000E+00  0.00000000000E+00  0.48994611609E+03  0.48994611609E+03  0.00000000000E+00 0. -1.
         21   -1    0    0  501  503 -0.00000000000E+00 -0.00000000000E+00 -0.89319252168E+02  0.89319252168E+02  0.00000000000E+00 0.  1.
          6    1    1    2  501    0 -0.24810733332E+02 -0.48936043672E+02  0.54003033861E+02  0.18844266111E+03  0.17200000000E+03 0.  1.
         -6    1    1    2    0  502  0.24810733332E+02  0.48936043672E+02  0.34662383007E+03  0.39082270716E+03  0.17200000000E+03 0. -1.
<mgrwt>
<rscale>  2 0.18053894E+03</rscale>
<asrwt>0</asrwt>
<pdfrwt beam="1">  1       21 0.12248652E+00 0.18053894E+03</pdfrwt>
<pdfrwt beam="2">  1       21 0.22329814E-01 0.18053894E+03</pdfrwt>
<totfact> 0.95037118E+03</totfact>
</mgrwt>
</event>
<event>
 4    1  0.1115666E+000  0.1873379E+03  0.7546771E-02  0.1160885E+00
         21   -1    0    0  501  502  0.00000000000E+00  0.00000000000E+00  0.52239872792E+02  0.52239872792E+02  0.00000000000E+00 0. -1.
         21   -1    0    0  502  503 -0.00000000000E+00 -0.00000000000E+00 -0.85884013225E+03  0.85884013225E+03  0.00000000000E+00 0. -1.
          6    1    1    2  501    0 -0.73360445799E+02 -0.11390168813E+02 -0.19072071306E+03  0.26733851452E+03  0.17200000000E+03 0. -1.
         -6    1    1    2    0  503  0.73360445799E+02  0.11390168813E+02 -0.61587954640E+03  0.64374149053E+03  0.17200000000E+03 0. -1.
<mgrwt>
<rscale>  2 0.18733791E+03</rscale>
<asrwt>0</asrwt>
<pdfrwt beam="1">  1       21 0.13059968E-01 0.18733791E+03</pdfrwt>
<pdfrwt beam="2">  1       21 0.21471003E+00 0.18733791E+03</pdfrwt>
<totfact> 0.54949997E+03</totfact>
</mgrwt>
</event>
<event>
 4    1  0.1115666E+000  0.1980245E+03  0.7546771E-02  0.1151416E+00
         21   -1    0    0  501  502  0.00000000000E+00  0.00000000000E+00  0.34910023548E+03  0.34910023548E+03  0.00000000000E+00 0. -1.
         21   -1    0    0  502  503 -0.00000000000E+00 -0.00000000000E+00 -0.15946837882E+03  0.15946837882E+03  0.00000000000E+00 0.  1.
          6    1    1    2  501    0 -0.55492930943E+02 -0.80933633555E+02  0.23307033183E+03  0.30583573696E+03  0.17200000000E+03 0. -1.
         -6    1    1    2    0  503  0.55492930943E+02  0.80933633555E+02 -0.43438475170E+02  0.20273287733E+03  0.17200000000E+03 0.  1.
<mgrwt>
<rscale>  2 0.19802454E+03</rscale>
<asrwt>0</asrwt>
<pdfrwt beam="1">  1       21 0.87275058E-01 0.19802454E+03</pdfrwt>
<pdfrwt beam="2">  1       21 0.39867095E-01 0.19802454E+03</pdfrwt>
<totfact> 0.68118743E+03</totfact>
</mgrwt>
</event>
<event>
 4    1  0.1115666E+000  0.2393186E+03  0.7546771E-02  0.1120248E+00
         21   -1    0    0  503  502  0.00000000000E+00  0.00000000000E+00  0.48216726162E+03  0.48216726162E+03  0.00000000000E+00 0.  1.
         21   -1    0    0  501  503 -0.00000000000E+00 -0.00000000000E+00 -0.21719081396E+03  0.21719081396E+03  0.00000000000E+00 0. -1.
          6    1    1    2  501    0 -0.16607999468E+03 -0.10335912050E+02 -0.10288827930E+03  0.26049835648E+03  0.17200000000E+03 0. -1.
         -6    1    1    2    0  502  0.16607999468E+03  0.10335912050E+02  0.36786472696E+03  0.43885971910E+03  0.17200000000E+03 0.  1.
<mgrwt>
<rscale>  2 0.23931861E+03</rscale>
<asrwt>0</asrwt>
<pdfrwt beam="1">  1       21 0.12054181E+00 0.23931861E+03</pdfrwt>
<pdfrwt beam="2">  1       21 0.54297704E-01 0.23931861E+03</pdfrwt>
<totfact> 0.16067902E+03</totfact>
</mgrwt>
</event>
<event>
 4    1  0.1115666E+000  0.2131917E+03  0.7546771E-02  0.1139063E+00
         21   -1    0    0  503  502  0.00000000000E+00  0.00000000000E+00  0.26802049883E+02  0.26802049883E+02  0.00000000000E+00 0. -1.
         21   -1    0    0  501  503 -0.00000000000E+00 -0.00000000000E+00 -0.19365420764E+04  0.19365420764E+04  0.00000000000E+00 0. -1.
          6    1    1    2  501    0  0.27281322175E+02 -0.12297326635E+03 -0.60874226640E+03  0.64499445089E+03  0.17200000000E+03 0. -1.
         -6    1    1    2    0  502 -0.27281322175E+02  0.12297326635E+03 -0.13009977601E+04  0.13183496754E+04  0.17200000000E+03 0. -1.
<mgrwt>
<rscale>  2 0.21319169E+03</rscale>
<asrwt>0</asrwt>
<pdfrwt beam="1">  1       21 0.67005136E-02 0.21319169E+03</pdfrwt>
<pdfrwt beam="2">  1       21 0.48413544E+00 0.21319169E+03</pdfrwt>
<totfact> 0.38551358E+02</totfact>
</mgrwt>
</event>
<event>
 4    1  0.1115666E+000  0.1948790E+03  0.7546771E-02  0.1154133E+00
         21   -1    0    0  503  502  0.00000000000E+00  0.00000000000E+00  0.74520045563E+02  0.74520045563E+02  0.00000000000E+00 0.  1.
         21   -1    0    0  501  503 -0.00000000000E+00 -0.00000000000E+00 -0.51518632688E+03  0.51518632688E+03  0.00000000000E+00 0.  1.
          6    1    1    2  501    0  0.91450084759E+02  0.55403593452E+01 -0.25094799368E+03  0.31773056056E+03  0.17200000000E+03 0.  1.
         -6    1    1    2    0  502 -0.91450084759E+02 -0.55403593452E+01 -0.18971828764E+03  0.27197581188E+03  0.17200000000E+03 0.  1.
<mgrwt>
<rscale>  2 0.19487897E+03</rscale>
<asrwt>0</asrwt>
<pdfrwt beam="1">  1       21 0.18630012E-01 0.19487897E+03</pdfrwt>
<pdfrwt beam="2">  1       21 0.12879658E+00 0.19487897E+03</pdfrwt>
<totfact> 0.11638771E+04</totfact>
</mgrwt>
</event>
<event>
 4    1  0.1115666E+000  0.1793624E+03  0.7546771E-02  0.1168422E+00
         21   -1    0    0  501  502  0.00000000000E+00  0.00000000000E+00  0.71463587875E+03  0.71463587875E+03  0.00000000000E+00 0.  1.
         21   -1    0    0  502  503 -0.00000000000E+00 -0.00000000000E+00 -0.49226473831E+02  0.49226473831E+02  0.00000000000E+00 0. -1.
          6    1    1    2  501    0 -0.20016542071E+02  0.46756889451E+02  0.22102042177E+03  0.28464169671E+03  0.17200000000E+03 0. -1.
         -6    1    1    2    0  503  0.20016542071E+02 -0.46756889451E+02  0.44438898315E+03  0.47922065587E+03  0.17200000000E+03 0.  1.
<mgrwt>
<rscale>  2 0.17936239E+03</rscale>
<asrwt>0</asrwt>
<pdfrwt beam="1">  1       21 0.17865894E+00 0.17936239E+03</pdfrwt>
<pdfrwt beam="2">  1       21 0.12306621E-01 0.17936239E+03</pdfrwt>
<totfact> 0.10536337E+04</totfact>
</mgrwt>
</event>
<event>
 4    1  0.1115666E+000  0.2706694E+03  0.7546771E-02  0.1100897E+00
         21   -1    0    0  503  502  0.00000000000E+00  0.00000000000E+00  0.16075769323E+04  0.16075769323E+04  0.00000000000E+00 0. -1.
         21   -1    0    0  501  503 -0.00000000000E+00 -0.00000000000E+00 -0.46971187253E+02  0.46971187253E+02  0.00000000000E+00 0.  1.
          6    1    1    2  501    0  0.33589615004E+02 -0.20627564300E+03  0.63756616754E+03  0.69264169751E+03  0.17200000000E+03 0.  1.
         -6    1    1    2    0  502 -0.33589615004E+02  0.20627564300E+03  0.92303957748E+03  0.96190642202E+03  0.17200000000E+03 0. -1.
<mgrwt>
<rscale>  2 0.27066936E+03</rscale>
<asrwt>0</asrwt>
<pdfrwt beam="1">  1       21 0.40189405E+00 0.27066936E+03</pdfrwt>
<pdfrwt beam="2">  1       21 0.11742802E-01 0.27066936E+03</pdfrwt>
<totfact> 0.46489429E+02</totfact>
</mgrwt>
</event>
<event>
 4    1  0.1115666E+000  0.2305296E+03  0.7546771E-02  0.1126268E+00
         21   -1    0    0  503  502  0.00000000000E+00  0.00000000000E+00  0.27473201351E+03  0.27473201351E+03  0.00000000000E+00 0. -1.
         21   -1    0    0  501  503 -0.00000000000E+00 -0.00000000000E+00 -0.22767908066E+03  0.22767908066E+03  0.00000000000E+00 0. -1.
          6    1    1    2  501    0  0.81578779674E+02  0.13001843334E+03 -0.73890578177E+02  0.24208202710E+03  0.17200000000E+03 0. -1.
         -6    1    1    2    0  502 -0.81578779674E+02 -0.13001843334E+03  0.12094351102E+03  0.26032906707E+03  0.17200000000E+03 0. -1.
<mgrwt>
<rscale>  2 0.23052959E+03</rscale>
<asrwt>0</asrwt>
<pdfrwt beam="1">  1       21 0.68683003E-01 0.23052959E+03</pdfrwt>
<pdfrwt beam="2">  1       21 0.56919770E-01 0.23052959E+03</pdfrwt>
<totfact> 0.54515022E+03</totfact>
</mgrwt>
</event>
<event>
 4    1  0.1115666E+000  0.1740351E+03  0.7546771E-02  0.1173704E+00
         21   -1    0    0  501  502  0.00000000000E+00  0.00000000000E+00  0.16396146009E+03  0.16396146009E+03  0.00000000000E+00 0.  1.
         21   -1    0    0  502  503 -0.00000000000E+00 -0.00000000000E+00 -0.33184377054E+03  0.33184377054E+03  0.00000000000E+00 0.  1.
          6    1    1    2  501    0 -0.24547922860E+02 -0.10080554933E+02  0.81119809775E+02  0.19201208723E+03  0.17200000000E+03 0.  1.
         -6    1    1    2    0  503  0.24547922860E+02  0.10080554933E+02 -0.24900212022E+03  0.30379314340E+03  0.17200000000E+03 0.  1.
<mgrwt>
<rscale>  2 0.17403511E+03</rscale>
<asrwt>0</asrwt>
<pdfrwt beam="1">  1       21 0.40990365E-01 0.17403511E+03</pdfrwt>
<pdfrwt beam="2">  1       21 0.82960942E-01 0.17403511E+03</pdfrwt>
<totfact> 0.73630314E+03</totfact>
</mgrwt>
</event>
<event>
 4    1  0.1115666E+000  0.1999922E+03  0.7546771E-02  0.1149746E+00
         21   -1    0    0  503  502  0.00000000000E+00  0.00000000000E+00  0.45635754388E+03  0.45635754388E+03  0.00000000000E+00 0.  1.
         21   -1    0    0  501  503 -0.00000000000E+00 -0.00000000000E+00 -0.12838906728E+03  0.12838906728E+03  0.00000000000E+00 0.  1.
          6    1    1    2  501    0 -0.59832198484E+02 -0.82661808708E+02 -0.72303602598E+00  0.19999347333E+03  0.17200000000E+03 0.  1.
         -6    1    1    2    0  502  0.59832198484E+02  0.82661808708E+02  0.32869151263E+03  0.38475313783E+03  0.17200000000E+03 0.  1.
<mgrwt>
<rscale>  2 0.19999217E+03</rscale>
<asrwt>0</asrwt>
<pdfrwt beam="1">  1       21 0.11408938E+00 0.19999217E+03</pdfrwt>
<pdfrwt beam="2">  1       21 0.32097268E-01 0.19999217E+03</pdfrwt>
<totfact> 0.55483868E+03</totfact>
</mgrwt>
</event>
<event>
 4    1  0.1115666E+000  0.2323021E+03  0.7546771E-02  0.1125030E+00
         21   -1    0    0  501  502  0.00000000000E+00  0.00000000000E+00  0.91123557525E+02  0.91123557525E+02  0.00000000000E+00 0. -1.
         21   -1    0    0  502  503 -0.00000000000E+00 -0.00000000000E+00 -0.59281871726E+03  0.59281871726E+03  0.00000000000E+00 0.  1.
          6    1    1    2  501    0 -0.59997458397E+02 -0.14415475002E+03 -0.26180521593E+03  0.35000893997E+03  0.17200000000E+03 0. -1.
         -6    1    1    2    0  503  0.59997458397E+02  0.14415475002E+03 -0.23988994381E+03  0.33393333482E+03  0.17200000000E+03 0. -1.
<mgrwt>
<rscale>  2 0.23230215E+03</rscale>
<asrwt>0</asrwt>
<pdfrwt beam="1">  1       21 0.22780890E-01 0.23230215E+03</pdfrwt>
<pdfrwt beam="2">  1       21 0.14820468E+00 0.23230215E+03</pdfrwt>
<totfact> 0.54059777E+03</totfact>
</mgrwt>
</event>
<event>
 4    1  0.1115666E+000  0.2354488E+03  0.7546771E-02  0.1122862E+00
         21   -1    0    0  503  502  0.00000000000E+00  0.00000000000E+00  0.12046098847E+03  0.12046098847E+03  0.00000000000E+00 0.  1.
         21   -1    0    0  501  503 -0.00000000000E+00 -0.00000000000E+00 -0.46148911511E+03  0.46148911511E+03  0.00000000000E+00 0.  1.
          6    1    1    2  501    0  0.11563138405E+03  0.11172072865E+03 -0.18589323868E+03  0.29998739036E+03  0.17200000000E+03 0. -1.
         -6    1    1    2    0  502 -0.11563138405E+03 -0.11172072865E+03 -0.15513488796E+03  0.28196271322E+03  0.17200000000E+03 0. -1.
<mgrwt>
<rscale>  2 0.23544880E+03</rscale>
<asrwt>0</asrwt>
<pdfrwt beam="1">  1       21 0.30115247E-01 0.23544880E+03</pdfrwt>
<pdfrwt beam="2">  1       21 0.11537228E+00 0.23544880E+03</pdfrwt>
<totfact> 0.59630420E+03</totfact>
</mgrwt>
</event>
<event>
 4    1  0.1115666E+000  0.1988961E+03  0.7546771E-02  0.1150674E+00
         21   -1    0    0  501  502  0.00000000000E+00  0.00000000000E+00  0.47191258482E+03  0.47191258482E+03  0.00000000000E+00 0.  1.
         21   -1    0    0  502  503 -0.00000000000E+00 -0.00000000000E+00 -0.14771259273E+03  0.14771259273E+03  0.00000000000E+00 0.  1.
          6    1    1    2  501    0  0.98686506355E+02 -0.15382410024E+02  0.36584512523E+03  0.41641601882E+03  0.17200000000E+03 0.  1.
         -6    1    1    2    0  503 -0.98686506355E+02  0.15382410024E+02 -0.41645133144E+02  0.20320915872E+03  0.17200000000E+03 0.  1.
<mgrwt>
<rscale>  2 0.19889607E+03</rscale>
<asrwt>0</asrwt>
<pdfrwt beam="1">  1       21 0.11797814E+00 0.19889607E+03</pdfrwt>
<pdfrwt beam="2">  1       21 0.36928149E-01 0.19889607E+03</pdfrwt>
<totfact> 0.38747478E+03</totfact>
</mgrwt>
</event>
<event>
 4    1  0.1115666E+000  0.2332029E+03  0.7546771E-02  0.1124406E+00
         21   -1    0    0  503  502  0.00000000000E+00  0.00000000000E+00  0.80153652964E+02  0.80153652964E+02  0.00000000000E+00 0. -1.
         21   -1    0    0  501  503 -0.00000000000E+00 -0.00000000000E+00 -0.16320854079E+04  0.16320854079E+04  0.00000000000E+00 0. -1.
          6    1    1    2  501    0 -0.12898786652E+03  0.90342226344E+02 -0.14303679318E+04  0.14492536037E+04  0.17200000000E+03 0. -1.
         -6    1    1    2    0  502  0.12898786652E+03 -0.90342226344E+02 -0.12156382312E+03  0.26298545713E+03  0.17200000000E+03 0. -1.
<mgrwt>
<rscale>  2 0.23320289E+03</rscale>
<asrwt>0</asrwt>
<pdfrwt beam="1">  1       21 0.20038413E-01 0.23320289E+03</pdfrwt>
<pdfrwt beam="2">  1       21 0.40802135E+00 0.23320289E+03</pdfrwt>
<totfact> 0.16717493E+02</totfact>
</mgrwt>
</event>
<event>
 4    1  0.1115666E+000  0.1878289E+03  0.7546771E-02  0.1160434E+00
         21   -1    0    0  503  502  0.00000000000E+00  0.00000000000E+00  0.23904810945E+03  0.23904810945E+03  0.00000000000E+00 0. -1.
         21   -1    0    0  501  503 -0.00000000000E+00 -0.00000000000E+00 -0.14888493471E+03  0.14888493471E+03  0.00000000000E+00 0.  1.
          6    1    1    2  501    0  0.21720927200E+02 -0.72276557049E+02  0.63212219956E+02  0.19818043326E+03  0.17200000000E+03 0.  1.
         -6    1    1    2    0  502 -0.21720927200E+02  0.72276557049E+02  0.26950954779E+02  0.18975261089E+03  0.17200000000E+03 0.  1.
<mgrwt>
<rscale>  2 0.18782891E+03</rscale>
<asrwt>0</asrwt>
<pdfrwt beam="1">  1       21 0.59762027E-01 0.18782891E+03</pdfrwt>
<pdfrwt beam="2">  1       21 0.37221234E-01 0.18782891E+03</pdfrwt>
<totfact> 0.18246190E+04</totfact>
</mgrwt>
</event>
<event>
 4    1  0.1115666E+000  0.2575021E+03  0.7546771E-02  0.1108653E+00
         21   -1    0    0  501  502  0.00000000000E+00  0.00000000000E+00  0.30127265854E+03  0.30127265854E+03  0.00000000000E+00 0.  1.
         21   -1    0    0  502  503 -0.00000000000E+00 -0.00000000000E+00 -0.22351407606E+03  0.22351407606E+03  0.00000000000E+00 0.  1.
          6    1    1    2  501    0 -0.24938524545E+02  0.19000363934E+03  0.64059364104E+01  0.25758173264E+03  0.17200000000E+03 0.  1.
         -6    1    1    2    0  503  0.24938524545E+02 -0.19000363934E+03  0.71352646069E+02  0.26720500196E+03  0.17200000000E+03 0.  1.
<mgrwt>
<rscale>  2 0.25750206E+03</rscale>
<asrwt>0</asrwt>
<pdfrwt beam="1">  1       21 0.75318164E-01 0.25750206E+03</pdfrwt>
<pdfrwt beam="2">  1       21 0.55878519E-01 0.25750206E+03</pdfrwt>
<totfact> 0.45389038E+03</totfact>
</mgrwt>
</event>
<event>
 4    1  0.1115666E+000  0.1984440E+03  0.7546771E-02  0.1151059E+00
         21   -1    0    0  501  502  0.00000000000E+00  0.00000000000E+00  0.75756004495E+02  0.75756004495E+02  0.00000000000E+00 0. -1.
         21   -1    0    0  502  503 -0.00000000000E+00 -0.00000000000E+00 -0.60234698243E+03  0.60234698243E+03  0.00000000000E+00 0.  1.
          6    1    1    2  501    0  0.71085118166E+02  0.68868781480E+02 -0.38878930431E+03  0.43650558557E+03  0.17200000000E+03 0.  1.
         -6    1    1    2    0  503 -0.71085118166E+02 -0.68868781480E+02 -0.13780167362E+03  0.24159740135E+03  0.17200000000E+03 0. -1.
<mgrwt>
<rscale>  2 0.19844395E+03</rscale>
<asrwt>0</asrwt>
<pdfrwt beam="1">  1       21 0.18939001E-01 0.19844395E+03</pdfrwt>
<pdfrwt beam="2">  1       21 0.15058674E+00 0.19844395E+03</pdfrwt>
<totfact> 0.75243499E+03</totfact>
</mgrwt>
</event>
<event>
 4    1  0.1115666E+000  0.1839096E+03  0.7546771E-02  0.1164072E+00
         21   -1    0    0  503  502  0.00000000000E+00  0.00000000000E+00  0.96238839043E+02  0.96238839043E+02  0.00000000000E+00 0. -1.
         21   -1    0    0  501  503 -0.00000000000E+00 -0.00000000000E+00 -0.38525859317E+03  0.38525859317E+03  0.00000000000E+00 0.  1.
          6    1    1    2  501    0 -0.24427047756E+02 -0.60349531385E+02 -0.21583255060E+03  0.28356028724E+03  0.17200000000E+03 0.  1.
         -6    1    1    2    0  502  0.24427047756E+02  0.60349531385E+02 -0.73187203525E+02  0.19793714497E+03  0.17200000000E+03 0.  1.
<mgrwt>
<rscale>  2 0.18390962E+03</rscale>
<asrwt>0</asrwt>
<pdfrwt beam="1">  1       21 0.24059710E-01 0.18390962E+03</pdfrwt>
<pdfrwt beam="2">  1       21 0.96314647E-01 0.18390962E+03</pdfrwt>
<totfact> 0.14699480E+04</totfact>
</mgrwt>
</event>
<event>
 4    1  0.1115666E+000  0.1853285E+03  0.7546771E-02  0.1162743E+00
         21   -1    0    0  501  502  0.00000000000E+00  0.00000000000E+00  0.59464063317E+02  0.59464063317E+02  0.00000000000E+00 0.  1.
         21   -1    0    0  502  503 -0.00000000000E+00 -0.00000000000E+00 -0.58334716903E+03  0.58334716903E+03  0.00000000000E+00 0.  1.
          6    1    1    2  501    0 -0.49251417474E+02 -0.48342037194E+02 -0.23004951019E+03  0.29541400072E+03  0.17200000000E+03 0.  1.
         -6    1    1    2    0  503  0.49251417474E+02  0.48342037194E+02 -0.29383359553E+03  0.34739723163E+03  0.17200000000E+03 0.  1.
<mgrwt>
<rscale>  2 0.18532850E+03</rscale>
<asrwt>0</asrwt>
<pdfrwt beam="1">  1       21 0.14866016E-01 0.18532850E+03</pdfrwt>
<pdfrwt beam="2">  1       21 0.14583679E+00 0.18532850E+03</pdfrwt>
<totfact> 0.12899427E+04</totfact>
</mgrwt>
</event>
<event>
 4    1  0.1115666E+000  0.1913102E+03  0.7546771E-02  0.1157285E+00
         21   -1    0    0  503  502  0.00000000000E+00  0.00000000000E+00  0.11397594287E+03  0.11397594287E+03  0.00000000000E+00 0. -1.
         21   -1    0    0  501  503 -0.00000000000E+00 -0.00000000000E+00 -0.42324372877E+03  0.42324372877E+03  0.00000000000E+00 0. -1.
          6    1    1    2  501    0 -0.26014594717E+02 -0.79616837335E+02 -0.28658000480E+03  0.34456885971E+03  0.17200000000E+03 0. -1.
         -6    1    1    2    0  502  0.26014594717E+02  0.79616837335E+02 -0.22687781092E+02  0.19265081193E+03  0.17200000000E+03 0. -1.
<mgrwt>
<rscale>  2 0.19131022E+03</rscale>
<asrwt>0</asrwt>
<pdfrwt beam="1">  1       21 0.28493986E-01 0.19131022E+03</pdfrwt>
<pdfrwt beam="2">  1       21 0.10581093E+00 0.19131022E+03</pdfrwt>
<totfact> 0.84561240E+03</totfact>
</mgrwt>
</event>
<event>
 4    1  0.1115666E+000  0.1792623E+03  0.7546771E-02  0.1168519E+00
         21   -1    0    0  503  502  0.00000000000E+00  0.00000000000E+00  0.66267388539E+02  0.66267388539E+02  0.00000000000E+00 0. -1.
         21   -1    0    0  501  503 -0.00000000000E+00 -0.00000000000E+00 -0.49403726914E+03  0.49403726914E+03  0.00000000000E+00 0. -1.
          6    1    1    2  501    0  0.48739418672E+02 -0.13245006110E+02 -0.25192476839E+03  0.30919419472E+03  0.17200000000E+03 0.  1.
         -6    1    1    2    0  502 -0.48739418672E+02  0.13245006110E+02 -0.17584511221E+03  0.25111046296E+03  0.17200000000E+03 0.  1.
<mgrwt>
<rscale>  2 0.17926227E+03</rscale>
<asrwt>0</asrwt>
<pdfrwt beam="1">  1       21 0.16566847E-01 0.17926227E+03</pdfrwt>
<pdfrwt beam="2">  1       21 0.12350931E+00 0.17926227E+03</pdfrwt>
<totfact> 0.16224673E+04</totfact>
</mgrwt>
</event>
<event>
 4    1  0.1115666E+000  0.2104745E+03  0.7546771E-02  0.1141191E+00
         21   -1    0    0  503  502  0.00000000000E+00  0.00000000000E+00  0.40605105206E+03  0.40605105206E+03  0.00000000000E+00 0. -1.
         21   -1    0    0  501  503 -0.00000000000E+00 -0.00000000000E+00 -0.11530214777E+03  0.11530214777E+03  0.00000000000E+00 0. -1.
          6    1    1    2  501    0 -0.10901928798E+03  0.53200799594E+02  0.20584021578E+03  0.29439722258E+03  0.17200000000E+03 0. -1.
         -6    1    1    2    0  502  0.10901928798E+03 -0.53200799594E+02  0.84908688511E+02  0.22695597726E+03  0.17200000000E+03 0. -1.
<mgrwt>
<rscale>  2 0.21047454E+03</rscale>
<asrwt>0</asrwt>
<pdfrwt beam="1">  1       21 0.10151276E+00 0.21047454E+03</pdfrwt>
<pdfrwt beam="2">  1       21 0.28825538E-01 0.21047454E+03</pdfrwt>
<totfact> 0.90081285E+03</totfact>
</mgrwt>
</event>
<event>
 4    1  0.1115666E+000  0.1722532E+03  0.7546771E-02  0.1175518E+00
         21   -1    0    0  501  502  0.00000000000E+00  0.00000000000E+00  0.28394870908E+02  0.28394870908E+02  0.00000000000E+00 0. -1.
         21   -1    0    0  502  503 -0.00000000000E+00 -0.00000000000E+00 -0.10660440532E+04  0.10660440532E+04  0.00000000000E+00 0. -1.
          6    1    1    2  501    0  0.88067783044E+01 -0.30996354443E+01 -0.44184540959E+03  0.47423468141E+03  0.17200000000E+03 0.  1.
         -6    1    1    2    0  503 -0.88067783044E+01  0.30996354443E+01 -0.59580377269E+03  0.62020424268E+03  0.17200000000E+03 0.  1.
<mgrwt>
<rscale>  2 0.17225321E+03</rscale>
<asrwt>0</asrwt>
<pdfrwt beam="1">  1       21 0.70987180E-02 0.17225321E+03</pdfrwt>
<pdfrwt beam="2">  1       21 0.26651100E+00 0.17225321E+03</pdfrwt>
<totfact> 0.80370030E+03</totfact>
</mgrwt>
</event>
<event>
 4    1  0.1115666E+000  0.1813376E+03  0.7546771E-02  0.1166515E+00
         21   -1    0    0  501  502  0.00000000000E+00  0.00000000000E+00  0.77090915526E+02  0.77090915526E+02  0.00000000000E+00 0. -1.
         21   -1    0    0  502  503 -0.00000000000E+00 -0.00000000000E+00 -0.42833178780E+03  0.42833178780E+03  0.00000000000E+00 0. -1.
          6    1    1    2  501    0 -0.42871894302E+02  0.38227065785E+02 -0.15933193097E+03  0.24139173993E+03  0.17200000000E+03 0. -1.
         -6    1    1    2    0  503  0.42871894302E+02 -0.38227065785E+02 -0.19190894130E+03  0.26403096339E+03  0.17200000000E+03 0. -1.
<mgrwt>
<rscale>  2 0.18133755E+03</rscale>
<asrwt>0</asrwt>
<pdfrwt beam="1">  1       21 0.19272729E-01 0.18133755E+03</pdfrwt>
<pdfrwt beam="2">  1       21 0.10708294E+00 0.18133755E+03</pdfrwt>
<totfact> 0.17362663E+04</totfact>
</mgrwt>
</event>
<event>
 4    1  0.1115666E+000  0.3302428E+03  0.7546771E-02  0.1071029E+00
         21   -1    0    0  503  502  0.00000000000E+00  0.00000000000E+00  0.26313470988E+03  0.26313470988E+03  0.00000000000E+00 0. -1.
         21   -1    0    0  501  503 -0.00000000000E+00 -0.00000000000E+00 -0.42935735848E+03  0.42935735848E+03  0.00000000000E+00 0. -1.
          6    1    1    2  501    0  0.27759259057E+03 -0.49179883876E+02 -0.14759460588E+03  0.36172430801E+03  0.17200000000E+03 0. -1.
         -6    1    1    2    0  502 -0.27759259057E+03  0.49179883876E+02 -0.18628042723E+02  0.33076776036E+03  0.17200000000E+03 0. -1.
<mgrwt>
<rscale>  2 0.33024280E+03</rscale>
<asrwt>0</asrwt>
<pdfrwt beam="1">  1       21 0.65783678E-01 0.33024280E+03</pdfrwt>
<pdfrwt beam="2">  1       21 0.10733934E+00 0.33024280E+03</pdfrwt>
<totfact> 0.13292787E+03</totfact>
</mgrwt>
</event>
<event>
 4    1  0.1115666E+000  0.1890890E+03  0.7546771E-02  0.1159286E+00
         21   -1    0    0  501  502  0.00000000000E+00  0.00000000000E+00  0.27780452615E+03  0.27780452615E+03  0.00000000000E+00 0.  1.
         21   -1    0    0  502  503 -0.00000000000E+00 -0.00000000000E+00 -0.14853332200E+03  0.14853332200E+03  0.00000000000E+00 0.  1.
          6    1    1    2  501    0 -0.52112811521E+02 -0.58778314260E+02  0.14252218689E+03  0.23678515390E+03  0.17200000000E+03 0.  1.
         -6    1    1    2    0  503  0.52112811521E+02  0.58778314260E+02 -0.13250982744E+02  0.18955269425E+03  0.17200000000E+03 0.  1.
<mgrwt>
<rscale>  2 0.18908896E+03</rscale>
<asrwt>0</asrwt>
<pdfrwt beam="1">  1       21 0.69451131E-01 0.18908896E+03</pdfrwt>
<pdfrwt beam="2">  1       21 0.37133331E-01 0.18908896E+03</pdfrwt>
<totfact> 0.13217530E+04</totfact>
</mgrwt>
</event>
<event>
 4    1  0.1115666E+000  0.2554609E+03  0.7546771E-02  0.1109901E+00
         21   -1    0    0  503  502  0.00000000000E+00  0.00000000000E+00  0.89473271227E+03  0.89473271227E+03  0.00000000000E+00 0.  1.
         21   -1    0    0  501  503 -0.00000000000E+00 -0.00000000000E+00 -0.10162586413E+03  0.10162586413E+03  0.00000000000E+00 0.  1.
          6    1    1    2  501    0 -0.16972383723E+03  0.82886076014E+02  0.13186778242E+03  0.28748807725E+03  0.17200000000E+03 0.  1.
         -6    1    1    2    0  502  0.16972383723E+03 -0.82886076014E+02  0.66123906572E+03  0.70887049915E+03  0.17200000000E+03 0.  1.
<mgrwt>
<rscale>  2 0.25546092E+03</rscale>
<asrwt>0</asrwt>
<pdfrwt beam="1">  1       21 0.22368315E+00 0.25546092E+03</pdfrwt>
<pdfrwt beam="2">  1       21 0.25406469E-01 0.25546092E+03</pdfrwt>
<totfact> 0.13175163E+03</totfact>
</mgrwt>
</event>
<event>
 4    1  0.1115666E+000  0.1942419E+03  0.7546771E-02  0.1154690E+00
         21   -1    0    0  501  502  0.00000000000E+00  0.00000000000E+00  0.19358563886E+03  0.19358563886E+03  0.00000000000E+00 0.  1.
         21   -1    0    0  502  503 -0.00000000000E+00 -0.00000000000E+00 -0.10248490550E+04  0.10248490550E+04  0.00000000000E+00 0.  1.
          6    1    1    2  501    0  0.47421499720E+02 -0.76792796652E+02  0.13260473680E+03  0.23518917593E+03  0.17200000000E+03 0.  1.
         -6    1    1    2    0  503 -0.47421499720E+02  0.76792796652E+02 -0.96386815292E+03  0.98324551790E+03  0.17200000000E+03 0.  1.
<mgrwt>
<rscale>  2 0.19424194E+03</rscale>
<asrwt>0</asrwt>
<pdfrwt beam="1">  1       21 0.48396411E-01 0.19424194E+03</pdfrwt>
<pdfrwt beam="2">  1       21 0.25621226E+00 0.19424194E+03</pdfrwt>
<totfact> 0.24876476E+02</totfact>
</mgrwt>
</event>
<event>
 4    1  0.1115666E+000  0.1985950E+03  0.7546771E-02  0.1150930E+00
         21   -1    0    0  501  502  0.00000000000E+00  0.00000000000E+00  0.36885104994E+03  0.36885104994E+03  0.00000000000E+00 0. -1.
         21   -1    0    0  502  503 -0.00000000000E+00 -0.00000000000E+00 -0.10804745126E+03  0.10804745126E+03  0.00000000000E+00 0. -1.
          6    1    1    2  501    0  0.64083122425E+02 -0.75824427017E+02  0.15468812598E+03  0.25173082177E+03  0.17200000000E+03 0. -1.
         -6    1    1    2    0  503 -0.64083122425E+02  0.75824427017E+02  0.10611547271E+03  0.22516767943E+03  0.17200000000E+03 0. -1.
<mgrwt>
<rscale>  2 0.19859504E+03</rscale>
<asrwt>0</asrwt>
<pdfrwt beam="1">  1       21 0.92212760E-01 0.19859504E+03</pdfrwt>
<pdfrwt beam="2">  1       21 0.27011864E-01 0.19859504E+03</pdfrwt>
<totfact> 0.12915426E+04</totfact>
</mgrwt>
</event>
<event>
 4    1  0.1115666E+000  0.1808394E+03  0.7546771E-02  0.1166993E+00
         21   -1    0    0  503  502  0.00000000000E+00  0.00000000000E+00  0.78805555649E+02  0.78805555649E+02  0.00000000000E+00 0.  1.
         21   -1    0    0  501  503 -0.00000000000E+00 -0.00000000000E+00 -0.61240920280E+03  0.61240920280E+03  0.00000000000E+00 0.  1.
          6    1    1    2  501    0 -0.45299639981E+02 -0.32662603688E+02 -0.46303183354E+03  0.49709293088E+03  0.17200000000E+03 0.  1.
         -6    1    1    2    0  502  0.45299639981E+02  0.32662603688E+02 -0.70571813615E+02  0.19412182757E+03  0.17200000000E+03 0.  1.
<mgrwt>
<rscale>  2 0.18083944E+03</rscale>
<asrwt>0</asrwt>
<pdfrwt beam="1">  1       21 0.19701389E-01 0.18083944E+03</pdfrwt>
<pdfrwt beam="2">  1       21 0.15310230E+00 0.18083944E+03</pdfrwt>
<totfact> 0.67884151E+03</totfact>
</mgrwt>
</event>
<event>
 4    1  0.1115666E+000  0.2205464E+03  0.7546771E-02  0.1133476E+00
         21   -1    0    0  501  502  0.00000000000E+00  0.00000000000E+00  0.95823038482E+03  0.95823038482E+03  0.00000000000E+00 0.  1.
         21   -1    0    0  502  503 -0.00000000000E+00 -0.00000000000E+00 -0.13041037489E+03  0.13041037489E+03  0.00000000000E+00 0. -1.
          6    1    1    2  501    0 -0.11205771035E+03  0.80621263593E+02  0.83930242682E+03  0.86779564545E+03  0.17200000000E+03 0.  1.
         -6    1    1    2    0  503  0.11205771035E+03 -0.80621263593E+02 -0.11482416893E+02  0.22084511425E+03  0.17200000000E+03 0. -1.
<mgrwt>
<rscale>  2 0.22054641E+03</rscale>
<asrwt>0</asrwt>
<pdfrwt beam="1">  1       21 0.23955758E+00 0.22054641E+03</pdfrwt>
<pdfrwt beam="2">  1       21 0.32602597E-01 0.22054641E+03</pdfrwt>
<totfact> 0.67127069E+02</totfact>
</mgrwt>
</event>
<event>
 4    1  0.1115666E+000  0.1821445E+03  0.7546771E-02  0.1165744E+00
         21   -1    0    0  501  502  0.00000000000E+00  0.00000000000E+00  0.72412328713E+02  0.72412328713E+02  0.00000000000E+00 0.  1.
         21   -1    0    0  502  503 -0.00000000000E+00 -0.00000000000E+00 -0.56120067768E+03  0.56120067768E+03  0.00000000000E+00 0.  1.
          6    1    1    2  501    0  0.27860911402E+02  0.53069597410E+02 -0.10864596554E+03  0.21208620507E+03  0.17200000000E+03 0. -1.
         -6    1    1    2    0  503 -0.27860911402E+02 -0.53069597410E+02 -0.38014238343E+03  0.42152680132E+03  0.17200000000E+03 0. -1.
<mgrwt>
<rscale>  2 0.18214448E+03</rscale>
<asrwt>0</asrwt>
<pdfrwt beam="1">  1       21 0.18103082E-01 0.18214448E+03</pdfrwt>
<pdfrwt beam="2">  1       21 0.14030017E+00 0.18214448E+03</pdfrwt>
<totfact> 0.99642457E+03</totfact>
</mgrwt>
</event>
<event>
 4    1  0.1115666E+000  0.1751355E+03  0.7546771E-02  0.1172596E+00
         21   -1    0    0  503  502  0.00000000000E+00  0.00000000000E+00  0.22522522106E+03  0.22522522106E+03  0.00000000000E+00 0. -1.
         21   -1    0    0  501  503 -0.00000000000E+00 -0.00000000000E+00 -0.13839050046E+03  0.13839050046E+03  0.00000000000E+00 0. -1.
          6    1    1    2  501    0 -0.13838537144E+02 -0.29949051247E+02  0.20469312847E+02  0.17632765963E+03  0.17200000000E+03 0. -1.
         -6    1    1    2    0  502  0.13838537144E+02  0.29949051247E+02  0.66365407753E+02  0.18728806189E+03  0.17200000000E+03 0. -1.
<mgrwt>
<rscale>  2 0.17513552E+03</rscale>
<asrwt>0</asrwt>
<pdfrwt beam="1">  1       21 0.56306305E-01 0.17513552E+03</pdfrwt>
<pdfrwt beam="2">  1       21 0.34597625E-01 0.17513552E+03</pdfrwt>
<totfact> 0.24139508E+04</totfact>
</mgrwt>
</event>
<event>
 4    1  0.1115666E+000  0.1783643E+03  0.7546771E-02  0.1169395E+00
         21   -1    0    0  503  502  0.00000000000E+00  0.00000000000E+00  0.15193088961E+03  0.15193088961E+03  0.00000000000E+00 0.  1.
         21   -1    0    0  501  503 -0.00000000000E+00 -0.00000000000E+00 -0.21523939865E+03  0.21523939865E+03  0.00000000000E+00 0. -1.
          6    1    1    2  501    0 -0.46450785415E+02  0.84948552428E+01 -0.14073682354E+01  0.17836989297E+03  0.17200000000E+03 0. -1.
         -6    1    1    2    0  502  0.46450785415E+02 -0.84948552428E+01 -0.61901140796E+02  0.18880039529E+03  0.17200000000E+03 0. -1.
<mgrwt>
<rscale>  2 0.17836434E+03</rscale>
<asrwt>0</asrwt>
<pdfrwt beam="1">  1       21 0.37982723E-01 0.17836434E+03</pdfrwt>
<pdfrwt beam="2">  1       21 0.53809849E-01 0.17836434E+03</pdfrwt>
<totfact> 0.22020151E+04</totfact>
</mgrwt>
</event>
<event>
 4    1  0.1115666E+000  0.2184547E+03  0.7546771E-02  0.1135040E+00
         21   -1    0    0  503  502  0.00000000000E+00  0.00000000000E+00  0.13701446612E+03  0.13701446612E+03  0.00000000000E+00 0.  1.
         21   -1    0    0  501  503 -0.00000000000E+00 -0.00000000000E+00 -0.34830581666E+03  0.34830581666E+03  0.00000000000E+00 0.  1.
          6    1    1    2  501    0 -0.89327653230E+02 -0.10079204201E+03 -0.10640732257E+03  0.24299173579E+03  0.17200000000E+03 0.  1.
         -6    1    1    2    0  502  0.89327653230E+02  0.10079204201E+03 -0.10488402797E+03  0.24232854699E+03  0.17200000000E+03 0.  1.
<mgrwt>
<rscale>  2 0.21845472E+03</rscale>
<asrwt>0</asrwt>
<pdfrwt beam="1">  1       21 0.34253617E-01 0.21845472E+03</pdfrwt>
<pdfrwt beam="2">  1       21 0.87076453E-01 0.21845472E+03</pdfrwt>
<totfact> 0.91475758E+03</totfact>
</mgrwt>
</event>
<event>
 4    1  0.1115666E+000  0.2792820E+03  0.7546771E-02  0.1096082E+00
         21   -1    0    0  501  502  0.00000000000E+00  0.00000000000E+00  0.57900017173E+03  0.57900017173E+03  0.00000000000E+00 0.  1.
         21   -1    0    0  502  503 -0.00000000000E+00 -0.00000000000E+00 -0.28760802768E+03  0.28760802768E+03  0.00000000000E+00 0. -1.
          6    1    1    2  501    0  0.25262703715E+02  0.21857772861E+03  0.46162545076E+03  0.53953358045E+03  0.17200000000E+03 0.  1.
         -6    1    1    2    0  503 -0.25262703715E+02 -0.21857772861E+03 -0.17023330671E+03  0.32707461895E+03  0.17200000000E+03 0. -1.
<mgrwt>
<rscale>  2 0.27928199E+03</rscale>
<asrwt>0</asrwt>
<pdfrwt beam="1">  1       21 0.14475004E+00 0.27928199E+03</pdfrwt>
<pdfrwt beam="2">  1       21 0.71902008E-01 0.27928199E+03</pdfrwt>
<totfact> 0.52817310E+02</totfact>
</mgrwt>
</event>
<event>
 4    1  0.1115666E+000  0.2068945E+03  0.7546771E-02  0.1144049E+00
         21   -1    0    0  501  502  0.00000000000E+00  0.00000000000E+00  0.30066893805E+03  0.30066893805E+03  0.00000000000E+00 0.  1.
         21   -1    0    0  502  503 -0.00000000000E+00 -0.00000000000E+00 -0.29327479717E+03  0.29327479717E+03  0.00000000000E+00 0. -1.
          6    1    1    2  501    0  0.11449149582E+03 -0.10630951474E+02  0.21672367740E+03  0.29962388437E+03  0.17200000000E+03 0.  1.
         -6    1    1    2    0  503 -0.11449149582E+03  0.10630951474E+02 -0.20932953652E+03  0.29431985085E+03  0.17200000000E+03 0. -1.
<mgrwt>
<rscale>  2 0.20689447E+03</rscale>
<asrwt>0</asrwt>
<pdfrwt beam="1">  1       21 0.75167234E-01 0.20689447E+03</pdfrwt>
<pdfrwt beam="2">  1       21 0.73318699E-01 0.20689447E+03</pdfrwt>
<totfact> 0.26135331E+03</totfact>
</mgrwt>
</event>
<event>
 4    1  0.1115666E+000  0.1849920E+03  0.7546771E-02  0.1163057E+00
         21   -1    0    0  503  502  0.00000000000E+00  0.00000000000E+00  0.51000085811E+03  0.51000085811E+03  0.00000000000E+00 0. -1.
         21   -1    0    0  501  503 -0.00000000000E+00 -0.00000000000E+00 -0.11034759202E+03  0.11034759202E+03  0.00000000000E+00 0. -1.
          6    1    1    2  501    0  0.68091636962E+02  0.12472483720E+01  0.56505659837E+01  0.18507824169E+03  0.17200000000E+03 0. -1.
         -6    1    1    2    0  502 -0.68091636962E+02 -0.12472483720E+01  0.39400270011E+03  0.43527020843E+03  0.17200000000E+03 0. -1.
<mgrwt>
<rscale>  2 0.18499196E+03</rscale>
<asrwt>0</asrwt>
<pdfrwt beam="1">  1       21 0.12750021E+00 0.18499196E+03</pdfrwt>
<pdfrwt beam="2">  1       21 0.27586899E-01 0.18499196E+03</pdfrwt>
<totfact> 0.57265867E+03</totfact>
</mgrwt>
</event>
<event>
 4    1  0.1115666E+000  0.1956535E+03  0.7546771E-02  0.1153459E+00
         21   -1    0    0  501  502  0.00000000000E+00  0.00000000000E+00  0.21379996567E+03  0.21379996567E+03  0.00000000000E+00 0. -1.
         21   -1    0    0  502  503 -0.00000000000E+00 -0.00000000000E+00 -0.17914733077E+03  0.17914733077E+03  0.00000000000E+00 0. -1.
          6    1    1    2  501    0 -0.13309490055E+02  0.92299297194E+02  0.21969380399E+02  0.19688310355E+03  0.17200000000E+03 0. -1.
         -6    1    1    2    0  503  0.13309490055E+02 -0.92299297194E+02  0.12683254506E+02  0.19606419289E+03  0.17200000000E+03 0. -1.
<mgrwt>
<rscale>  2 0.19565353E+03</rscale>
<asrwt>0</asrwt>
<pdfrwt beam="1">  1       21 0.53449991E-01 0.19565353E+03</pdfrwt>
<pdfrwt beam="2">  1       21 0.44786833E-01 0.19565353E+03</pdfrwt>
<totfact> 0.15824338E+04</totfact>
</mgrwt>
</event>
<event>
 4    1  0.1115666E+000  0.1747821E+03  0.7546771E-02  0.1172951E+00
         21   -1    0    0  503  502  0.00000000000E+00  0.00000000000E+00  0.82264008899E+03  0.82264008899E+03  0.00000000000E+00 0.  1.
         21   -1    0    0  501  503 -0.00000000000E+00 -0.00000000000E+00 -0.76961702551E+02  0.76961702551E+02  0.00000000000E+00 0.  1.
          6    1    1    2  501    0  0.29120785607E+02 -0.10805890419E+02  0.49268006536E+02  0.18159329253E+03  0.17200000000E+03 0.  1.
         -6    1    1    2    0  502 -0.29120785607E+02  0.10805890419E+02  0.69641037991E+03  0.71800849902E+03  0.17200000000E+03 0.  1.
<mgrwt>
<rscale>  2 0.17478211E+03</rscale>
<asrwt>0</asrwt>
<pdfrwt beam="1">  1       21 0.20565999E+00 0.17478211E+03</pdfrwt>
<pdfrwt beam="2">  1       21 0.19240428E-01 0.17478211E+03</pdfrwt>
<totfact> 0.31232210E+03</totfact>
</mgrwt>
</event>
<event>
 4    1  0.1115666E+000  0.2111828E+03  0.7546771E-02  0.1140633E+00
         21   -1    0    0  501  502  0.00000000000E+00  0.00000000000E+00  0.10044846335E+03  0.10044846335E+03  0.00000000000E+00 0.  1.
         21   -1    0    0  502  503 -0.00000000000E+00 -0.00000000000E+00 -0.51129139716E+03  0.51129139716E+03  0.00000000000E+00 0.  1.
          6    1    1    2  501    0 -0.11748406940E+03  0.34808743428E+02 -0.94449512616E+02  0.23134144811E+03  0.17200000000E+03 0.  1.
         -6    1    1    2    0  503  0.11748406940E+03 -0.34808743428E+02 -0.31639342120E+03  0.38039841240E+03  0.17200000000E+03 0.  1.
<mgrwt>
<rscale>  2 0.21118275E+03</rscale>
<asrwt>0</asrwt>
<pdfrwt beam="1">  1       21 0.25112116E-01 0.21118275E+03</pdfrwt>
<pdfrwt beam="2">  1       21 0.12782285E+00 0.21118275E+03</pdfrwt>
<totfact> 0.66781898E+03</totfact>
</mgrwt>
</event>
<event>
 4    1  0.1115666E+000  0.2138744E+03  0.7546771E-02  0.1138534E+00
         21   -1    0    0  503  502  0.00000000000E+00  0.00000000000E+00  0.16432486418E+03  0.16432486418E+03  0.00000000000E+00 0.  1.
         21   -1    0    0  501  503 -0.00000000000E+00 -0.00000000000E+00 -0.43200178208E+03  0.43200178208E+03  0.00000000000E+00 0. -1.
          6    1    1    2  501    0 -0.12575245684E+03  0.18563033004E+02 -0.31164971936E+03  0.37797858957E+03  0.17200000000E+03 0. -1.
         -6    1    1    2    0  502  0.12575245684E+03 -0.18563033004E+02  0.43972801461E+02  0.21834805670E+03  0.17200000000E+03 0.  1.
<mgrwt>
<rscale>  2 0.21387442E+03</rscale>
<asrwt>0</asrwt>
<pdfrwt beam="1">  1       21 0.41081216E-01 0.21387442E+03</pdfrwt>
<pdfrwt beam="2">  1       21 0.10800044E+00 0.21387442E+03</pdfrwt>
<totfact> 0.38296621E+03</totfact>
</mgrwt>
</event>
<event>
 4    1  0.1115666E+000  0.1966172E+03  0.7546771E-02  0.1152625E+00
         21   -1    0    0  501  502  0.00000000000E+00  0.00000000000E+00  0.14516623943E+03  0.14516623943E+03  0.00000000000E+00 0.  1.
         21   -1    0    0  502  503 -0.00000000000E+00 -0.00000000000E+00 -0.30802485192E+03  0.30802485192E+03  0.00000000000E+00 0.  1.
          6    1    1    2  501    0 -0.68826277471E+02 -0.65858029005E+02  0.19648400781E+01  0.19662705066E+03  0.17200000000E+03 0.  1.
         -6    1    1    2    0  503  0.68826277471E+02  0.65858029005E+02 -0.16482345257E+03  0.25656404068E+03  0.17200000000E+03 0.  1.
<mgrwt>
<rscale>  2 0.19661723E+03</rscale>
<asrwt>0</asrwt>
<pdfrwt beam="1">  1       21 0.36291560E-01 0.19661723E+03</pdfrwt>
<pdfrwt beam="2">  1       21 0.77006212E-01 0.19661723E+03</pdfrwt>
<totfact> 0.10944101E+04</totfact>
</mgrwt>
</event>
<event>
 4    1  0.1115666E+000  0.1943954E+03  0.7546771E-02  0.1154556E+00
         21   -1    0    0  503  502  0.00000000000E+00  0.00000000000E+00  0.91974150288E+03  0.91974150288E+03  0.00000000000E+00 0.  1.
         21   -1    0    0  501  503 -0.00000000000E+00 -0.00000000000E+00 -0.50337495436E+02  0.50337495436E+02  0.00000000000E+00 0.  1.
          6    1    1    2  501    0  0.23423926105E+02  0.87503596195E+02  0.22677532572E+03  0.29869149305E+03  0.17200000000E+03 0.  1.
         -6    1    1    2    0  502 -0.23423926105E+02 -0.87503596195E+02  0.64262868172E+03  0.67138750527E+03  0.17200000000E+03 0.  1.
<mgrwt>
<rscale>  2 0.19439537E+03</rscale>
<asrwt>0</asrwt>
<pdfrwt beam="1">  1       21 0.22993532E+00 0.19439537E+03</pdfrwt>
<pdfrwt beam="2">  1       21 0.12584377E-01 0.19439537E+03</pdfrwt>
<totfact> 0.47088886E+03</totfact>
</mgrwt>
</event>
<event>
 4    1  0.1115666E+000  0.1863617E+03  0.7546771E-02  0.1161784E+00
         21   -1    0    0  503  502  0.00000000000E+00  0.00000000000E+00  0.15656870865E+03  0.15656870865E+03  0.00000000000E+00 0.  1.
         21   -1    0    0  501  503 -0.00000000000E+00 -0.00000000000E+00 -0.34578820399E+03  0.34578820399E+03  0.00000000000E+00 0.  1.
          6    1    1    2  501    0 -0.15317375772E+02  0.70086087435E+02 -0.24500205500E+03  0.30782574390E+03  0.17200000000E+03 0.  1.
         -6    1    1    2    0  502  0.15317375772E+02 -0.70086087435E+02  0.55782559658E+02  0.19453116875E+03  0.17200000000E+03 0.  1.
<mgrwt>
<rscale>  2 0.18636170E+03</rscale>
<asrwt>0</asrwt>
<pdfrwt beam="1">  1       21 0.39142177E-01 0.18636170E+03</pdfrwt>
<pdfrwt beam="2">  1       21 0.86447050E-01 0.18636170E+03</pdfrwt>
<totfact> 0.72880204E+03</totfact>
</mgrwt>
</event>
<event>
 4    1  0.1115666E+000  0.1758489E+03  0.7546771E-02  0.1171882E+00
         21   -1    0    0  503  502  0.00000000000E+00  0.00000000000E+00  0.46538902009E+03  0.46538902009E+03  0.00000000000E+00 0.  1.
         21   -1    0    0  501  503 -0.00000000000E+00 -0.00000000000E+00 -0.22789893767E+03  0.22789893767E+03  0.00000000000E+00 0.  1.
          6    1    1    2  501    0  0.34893771760E+02  0.11011572221E+02 -0.17302229328E+03  0.24669727198E+03  0.17200000000E+03 0.  1.
         -6    1    1    2    0  502 -0.34893771760E+02 -0.11011572221E+02  0.41051237569E+03  0.44659068578E+03  0.17200000000E+03 0.  1.
<mgrwt>
<rscale>  2 0.17584888E+03</rscale>
<asrwt>0</asrwt>
<pdfrwt beam="1">  1       21 0.11634725E+00 0.17584888E+03</pdfrwt>
<pdfrwt beam="2">  1       21 0.56974735E-01 0.17584888E+03</pdfrwt>
<totfact> 0.16766419E+03</totfact>
</mgrwt>
</event>
<event>
 4    1  0.1115666E+000  0.1941755E+03  0.7546771E-02  0.1154748E+00
         21   -1    0    0  501  502  0.00000000000E+00  0.00000000000E+00  0.54710246681E+03  0.54710246681E+03  0.00000000000E+00 0. -1.
         21   -1    0    0  502  503 -0.00000000000E+00 -0.00000000000E+00 -0.13126490026E+03  0.13126490026E+03  0.00000000000E+00 0. -1.
          6    1    1    2  501    0  0.90047078374E+02 -0.34130924758E+01  0.44168135084E+03  0.48247957594E+03  0.17200000000E+03 0. -1.
         -6    1    1    2    0  503 -0.90047078374E+02  0.34130924758E+01 -0.25843784290E+02  0.19588779112E+03  0.17200000000E+03 0. -1.
<mgrwt>
<rscale>  2 0.19417550E+03</rscale>
<asrwt>0</asrwt>
<pdfrwt beam="1">  1       21 0.13677561E+00 0.19417550E+03</pdfrwt>
<pdfrwt beam="2">  1       21 0.32816226E-01 0.19417550E+03</pdfrwt>
<totfact> 0.33919297E+03</totfact>
</mgrwt>
</event>
<event>
 4    1  0.1115666E+000  0.2563359E+03  0.7546771E-02  0.1109365E+00
         21   -1    0    0  501  502  0.00000000000E+00  0.00000000000E+00  0.39174692751E+03  0.39174692751E+03  0.00000000000E+00 0. -1.
         21   -1    0    0  502  503 -0.00000000000E+00 -0.00000000000E+00 -0.44619077422E+03  0.44619077422E+03  0.00000000000E+00 0. -1.
          6    1    1    2  501    0 -0.11536564044E+03 -0.15104593251E+03  0.30375877974E+03  0.39746383608E+03  0.17200000000E+03 0. -1.
         -6    1    1    2    0  503  0.11536564044E+03  0.15104593251E+03 -0.35820262645E+03  0.44047386565E+03  0.17200000000E+03 0. -1.
<mgrwt>
<rscale>  2 0.25633592E+03</rscale>
<asrwt>0</asrwt>
<pdfrwt beam="1">  1       21 0.97936732E-01 0.25633592E+03</pdfrwt>
<pdfrwt beam="2">  1       21 0.11154769E+00 0.25633592E+03</pdfrwt>
<totfact> 0.51179490E+02</totfact>
</mgrwt>
</event>
<event>
 4    1  0.1115666E+000  0.2522365E+03  0.7546771E-02  0.1111900E+00
         21   -1    0    0  503  502  0.00000000000E+00  0.00000000000E+00  0.10590907338E+04  0.10590907338E+04  0.00000000000E+00 0.  1.
         21   -1    0    0  501  503 -0.00000000000E+00 -0.00000000000E+00 -0.35534280647E+03  0.35534280647E+03  0.00000000000E+00 0. -1.
          6    1    1    2  501    0  0.13437292943E+03 -0.12642457842E+03 -0.29279677558E+03  0.38646243023E+03  0.17200000000E+03 0. -1.
         -6    1    1    2    0  502 -0.13437292943E+03  0.12642457842E+03  0.99654470291E+03  0.10279711100E+04  0.17200000000E+03 0.  1.
<mgrwt>
<rscale>  2 0.25223651E+03</rscale>
<asrwt>0</asrwt>
<pdfrwt beam="1">  1       21 0.26477268E+00 0.25223651E+03</pdfrwt>
<pdfrwt beam="2">  1       21 0.88835704E-01 0.25223651E+03</pdfrwt>
<totfact> 0.54162510E+01</totfact>
</mgrwt>
</event>
<event>
 4    1  0.1115666E+000  0.2178737E+03  0.7546771E-02  0.1135478E+00
         21   -1    0    0  501  502  0.00000000000E+00  0.00000000000E+00  0.11395958852E+03  0.11395958852E+03  0.00000000000E+00 0.  1.
         21   -1    0    0  502  503 -0.00000000000E+00 -0.00000000000E+00 -0.49969861469E+03  0.49969861469E+03  0.00000000000E+00 0.  1.
          6    1    1    2  501    0 -0.67987464368E+02  0.11516368178E+03 -0.67702307762E+02  0.22815032630E+03  0.17200000000E+03 0.  1.
         -6    1    1    2    0  503  0.67987464368E+02 -0.11516368178E+03 -0.31803671841E+03  0.38550787692E+03  0.17200000000E+03 0.  1.
<mgrwt>
<rscale>  2 0.21787375E+03</rscale>
<asrwt>0</asrwt>
<pdfrwt beam="1">  1       21 0.28489897E-01 0.21787375E+03</pdfrwt>
<pdfrwt beam="2">  1       21 0.12492465E+00 0.21787375E+03</pdfrwt>
<totfact> 0.55195126E+03</totfact>
</mgrwt>
</event>
<event>
 4    1  0.1115666E+000  0.2025739E+03  0.7546771E-02  0.1147585E+00
         21   -1    0    0  501  502  0.00000000000E+00  0.00000000000E+00  0.26941405875E+03  0.26941405875E+03  0.00000000000E+00 0.  1.
         21   -1    0    0  502  503 -0.00000000000E+00 -0.00000000000E+00 -0.16253457541E+03  0.16253457541E+03  0.00000000000E+00 0.  1.
          6    1    1    2  501    0 -0.22915879331E+02 -0.10453244998E+03  0.10759200447E+03  0.22937351645E+03  0.17200000000E+03 0.  1.
         -6    1    1    2    0  503  0.22915879331E+02  0.10453244998E+03 -0.71252112694E+00  0.20257511770E+03  0.17200000000E+03 0.  1.
<mgrwt>
<rscale>  2 0.20257386E+03</rscale>
<asrwt>0</asrwt>
<pdfrwt beam="1">  1       21 0.67353514E-01 0.20257386E+03</pdfrwt>
<pdfrwt beam="2">  1       21 0.40633644E-01 0.20257386E+03</pdfrwt>
<totfact> 0.11689233E+04</totfact>
</mgrwt>
</event>
<event>
 4    1  0.1115666E+000  0.1928223E+03  0.7546771E-02  0.1155940E+00
         21   -1    0    0  503  502  0.00000000000E+00  0.00000000000E+00  0.40449786188E+03  0.40449786188E+03  0.00000000000E+00 0.  1.
         21   -1    0    0  501  503 -0.00000000000E+00 -0.00000000000E+00 -0.10888529396E+03  0.10888529396E+03  0.00000000000E+00 0.  1.
          6    1    1    2  501    0  0.38595026124E+02  0.78146340994E+02  0.46475856954E+02  0.19834422586E+03  0.17200000000E+03 0.  1.
         -6    1    1    2    0  502 -0.38595026124E+02 -0.78146340994E+02  0.24913671097E+03  0.31503892998E+03  0.17200000000E+03 0.  1.
<mgrwt>
<rscale>  2 0.19282227E+03</rscale>
<asrwt>0</asrwt>
<pdfrwt beam="1">  1       21 0.10112446E+00 0.19282227E+03</pdfrwt>
<pdfrwt beam="2">  1       21 0.27221324E-01 0.19282227E+03</pdfrwt>
<totfact> 0.10284076E+04</totfact>
</mgrwt>
</event>
<event>
 4    1  0.1115666E+000  0.1745214E+03  0.7546771E-02  0.1173213E+00
         21   -1    0    0  503  502  0.00000000000E+00  0.00000000000E+00  0.36715895377E+02  0.36715895377E+02  0.00000000000E+00 0.  1.
         21   -1    0    0  501  503 -0.00000000000E+00 -0.00000000000E+00 -0.95586631883E+03  0.95586631883E+03  0.00000000000E+00 0.  1.
          6    1    1    2  501    0 -0.13719705607E+02 -0.26181700615E+02 -0.63998734249E+03  0.66335624691E+03  0.17200000000E+03 0.  1.
         -6    1    1    2    0  502  0.13719705607E+02  0.26181700615E+02 -0.27916308096E+03  0.32922596729E+03  0.17200000000E+03 0.  1.
<mgrwt>
<rscale>  2 0.17452138E+03</rscale>
<asrwt>0</asrwt>
<pdfrwt beam="1">  1       21 0.91789738E-02 0.17452138E+03</pdfrwt>
<pdfrwt beam="2">  1       21 0.23896658E+00 0.17452138E+03</pdfrwt>
<totfact> 0.74255248E+03</totfact>
</mgrwt>
</event>
<event>
 4    1  0.1115666E+000  0.2800058E+03  0.7546771E-02  0.1095686E+00
         21   -1    0    0  501  502  0.00000000000E+00  0.00000000000E+00  0.95350483264E+03  0.95350483264E+03  0.00000000000E+00 0. -1.
         21   -1    0    0  502  503 -0.00000000000E+00 -0.00000000000E+00 -0.93145956037E+02  0.93145956037E+02  0.00000000000E+00 0.  1.
          6    1    1    2  501    0  0.70177684557E+01 -0.22083933677E+03  0.25099822820E+03  0.37603639757E+03  0.17200000000E+03 0.  1.
         -6    1    1    2    0  503 -0.70177684557E+01  0.22083933677E+03  0.60936064840E+03  0.67061439110E+03  0.17200000000E+03 0. -1.
<mgrwt>
<rscale>  2 0.28000582E+03</rscale>
<asrwt>0</asrwt>
<pdfrwt beam="1">  1       21 0.23837618E+00 0.28000582E+03</pdfrwt>
<pdfrwt beam="2">  1       21 0.23286492E-01 0.28000582E+03</pdfrwt>
<totfact> 0.12396148E+03</totfact>
</mgrwt>
</event>
<event>
 4    1  0.1115666E+000  0.2067828E+03  0.7546771E-02  0.1144139E+00
         21   -1    0    0  501  502  0.00000000000E+00  0.00000000000E+00  0.11457101537E+03  0.11457101537E+03  0.00000000000E+00 0.  1.
         21   -1    0    0  502  503 -0.00000000000E+00 -0.00000000000E+00 -0.37326640405E+03  0.37326640405E+03  0.00000000000E+00 0.  1.
          6    1    1    2  501    0 -0.10679563089E+03 -0.42069100901E+02 -0.13233042947E+03  0.24550042483E+03  0.17200000000E+03 0.  1.
         -6    1    1    2    0  503  0.10679563089E+03  0.42069100901E+02 -0.12636495921E+03  0.24233699459E+03  0.17200000000E+03 0.  1.
<mgrwt>
<rscale>  2 0.20678277E+03</rscale>
<asrwt>0</asrwt>
<pdfrwt beam="1">  1       21 0.28642754E-01 0.20678277E+03</pdfrwt>
<pdfrwt beam="2">  1       21 0.93316601E-01 0.20678277E+03</pdfrwt>
<totfact> 0.11153489E+04</totfact>
</mgrwt>
</event>
<event>
 4    1  0.1115666E+000  0.2384555E+03  0.7546771E-02  0.1120826E+00
         21   -1    0    0  503  502  0.00000000000E+00  0.00000000000E+00  0.52446188525E+03  0.52446188525E+03  0.00000000000E+00 0.  1.
         21   -1    0    0  501  503 -0.00000000000E+00 -0.00000000000E+00 -0.10982661935E+03  0.10982661935E+03  0.00000000000E+00 0.  1.
          6    1    1    2  501    0  0.16030444223E+03  0.39742791057E+02  0.17139809564E+03  0.29366360147E+03  0.17200000000E+03 0.  1.
         -6    1    1    2    0  502 -0.16030444223E+03 -0.39742791057E+02  0.24323717025E+03  0.34062490313E+03  0.17200000000E+03 0.  1.
<mgrwt>
<rscale>  2 0.23845545E+03</rscale>
<asrwt>0</asrwt>
<pdfrwt beam="1">  1       21 0.13111546E+00 0.23845545E+03</pdfrwt>
<pdfrwt beam="2">  1       21 0.27456656E-01 0.23845545E+03</pdfrwt>
<totfact> 0.51711892E+03</totfact>
</mgrwt>
</event>
<event>
 4    1  0.1115666E+000  0.1871079E+03  0.7546771E-02  0.1161096E+00
         21   -1    0    0  501  502  0.00000000000E+00  0.00000000000E+00  0.19835027270E+03  0.19835027270E+03  0.00000000000E+00 0. -1.
         21   -1    0    0  502  503 -0.00000000000E+00 -0.00000000000E+00 -0.25471161274E+03  0.25471161274E+03  0.00000000000E+00 0. -1.
          6    1    1    2  501    0  0.62869652174E+02  0.38376541321E+02  0.97344661172E+02  0.21091546920E+03  0.17200000000E+03 0. -1.
         -6    1    1    2    0  503 -0.62869652174E+02 -0.38376541321E+02 -0.15370600121E+03  0.24214641624E+03  0.17200000000E+03 0. -1.
<mgrwt>
<rscale>  2 0.18710786E+03</rscale>
<asrwt>0</asrwt>
<pdfrwt beam="1">  1       21 0.49587568E-01 0.18710786E+03</pdfrwt>
<pdfrwt beam="2">  1       21 0.63677903E-01 0.18710786E+03</pdfrwt>
<totfact> 0.88697302E+03</totfact>
</mgrwt>
</event>
<event>
 4    1  0.1115666E+000  0.2462268E+03  0.7546771E-02  0.1115713E+00
         21   -1    0    0  503  502  0.00000000000E+00  0.00000000000E+00  0.11770313196E+03  0.11770313196E+03  0.00000000000E+00 0. -1.
         21   -1    0    0  501  503 -0.00000000000E+00 -0.00000000000E+00 -0.58516207546E+03  0.58516207546E+03  0.00000000000E+00 0. -1.
          6    1    1    2  501    0 -0.12386608418E+02  0.17575616630E+03 -0.35534183369E+03  0.43231409511E+03  0.17200000000E+03 0. -1.
         -6    1    1    2    0  502  0.12386608418E+02 -0.17575616630E+03 -0.11211710981E+03  0.27055111231E+03  0.17200000000E+03 0. -1.
<mgrwt>
<rscale>  2 0.24622684E+03</rscale>
<asrwt>0</asrwt>
<pdfrwt beam="1">  1       21 0.29425784E-01 0.24622684E+03</pdfrwt>
<pdfrwt beam="2">  1       21 0.14629051E+00 0.24622684E+03</pdfrwt>
<totfact> 0.33833389E+03</totfact>
</mgrwt>
</event>
<event>
 4    1  0.1115666E+000  0.1723693E+03  0.7546771E-02  0.1175399E+00
         21   -1    0    0  501  502  0.00000000000E+00  0.00000000000E+00  0.34538967860E+03  0.34538967860E+03  0.00000000000E+00 0.  1.
         21   -1    0    0  502  503 -0.00000000000E+00 -0.00000000000E+00 -0.86320011921E+02  0.86320011921E+02  0.00000000000E+00 0.  1.
          6    1    1    2  501    0  0.10326105884E+02 -0.45334320892E+01  0.11685609243E+03  0.20824631283E+03  0.17200000000E+03 0.  1.
         -6    1    1    2    0  503 -0.10326105884E+02  0.45334320892E+01  0.14221357426E+03  0.22346337770E+03  0.17200000000E+03 0.  1.
<mgrwt>
<rscale>  2 0.17236931E+03</rscale>
<asrwt>0</asrwt>
<pdfrwt beam="1">  1       21 0.86347416E-01 0.17236931E+03</pdfrwt>
<pdfrwt beam="2">  1       21 0.21580004E-01 0.17236931E+03</pdfrwt>
<totfact> 0.23418727E+04</totfact>
</mgrwt>
</event>
<event>
 4    1  0.1115666E+000  0.2552047E+03  0.7546771E-02  0.1110059E+00
         21   -1    0    0  501  502  0.00000000000E+00  0.00000000000E+00  0.27202367752E+03  0.27202367752E+03  0.00000000000E+00 0. -1.
         21   -1    0    0  502  503 -0.00000000000E+00 -0.00000000000E+00 -0.42343726161E+03  0.42343726161E+03  0.00000000000E+00 0. -1.
          6    1    1    2  501    0 -0.10287345609E+02 -0.18825416681E+03  0.15352284156E+03  0.29782330951E+03  0.17200000000E+03 0. -1.
         -6    1    1    2    0  503  0.10287345609E+02  0.18825416681E+03 -0.30493642565E+03  0.39763762962E+03  0.17200000000E+03 0. -1.
<mgrwt>
<rscale>  2 0.25520474E+03</rscale>
<asrwt>0</asrwt>
<pdfrwt beam="1">  1       21 0.68005920E-01 0.25520474E+03</pdfrwt>
<pdfrwt beam="2">  1       21 0.10585931E+00 0.25520474E+03</pdfrwt>
<totfact> 0.13409352E+03</totfact>
</mgrwt>
</event>
<event>
 4    1  0.1115666E+000  0.1896719E+03  0.7546771E-02  0.1158758E+00
         21   -1    0    0  503  502  0.00000000000E+00  0.00000000000E+00  0.27977012938E+03  0.27977012938E+03  0.00000000000E+00 0. -1.
         21   -1    0    0  501  503 -0.00000000000E+00 -0.00000000000E+00 -0.13866115410E+03  0.13866115410E+03  0.00000000000E+00 0. -1.
          6    1    1    2  501    0  0.21103917378E+02  0.77110781994E+02  0.14168494692E+02  0.19020040555E+03  0.17200000000E+03 0. -1.
         -6    1    1    2    0  502 -0.21103917378E+02 -0.77110781994E+02  0.12694048059E+03  0.22823087793E+03  0.17200000000E+03 0. -1.
<mgrwt>
<rscale>  2 0.18967195E+03</rscale>
<asrwt>0</asrwt>
<pdfrwt beam="1">  1       21 0.69942531E-01 0.18967195E+03</pdfrwt>
<pdfrwt beam="2">  1       21 0.34665289E-01 0.18967195E+03</pdfrwt>
<totfact> 0.14917308E+04</totfact>
</mgrwt>
</event>
<event>
 4    1  0.1115666E+000  0.2719396E+03  0.7546771E-02  0.1100175E+00
         21   -1    0    0  503  502  0.00000000000E+00  0.00000000000E+00  0.13548133584E+04  0.13548133584E+04  0.00000000000E+00 0.  1.
         21   -1    0    0  501  503 -0.00000000000E+00 -0.00000000000E+00 -0.64941612236E+02  0.64941612236E+02  0.00000000000E+00 0. -1.
          6    1    1    2  501    0  0.53054714303E+02 -0.20384398288E+03  0.36143716860E+03  0.45231404898E+03  0.17200000000E+03 0. -1.
         -6    1    1    2    0  502 -0.53054714303E+02  0.20384398288E+03  0.92843457756E+03  0.96744092165E+03  0.17200000000E+03 0.  1.
<mgrwt>
<rscale>  2 0.27193965E+03</rscale>
<asrwt>0</asrwt>
<pdfrwt beam="1">  1       21 0.33870325E+00 0.27193965E+03</pdfrwt>
<pdfrwt beam="2">  1       21 0.16235407E-01 0.27193965E+03</pdfrwt>
<totfact> 0.62651525E+02</totfact>
</mgrwt>
</event>
<event>
 4    1  0.1115666E+000  0.1771283E+03  0.7546771E-02  0.1170612E+00
         21   -1    0    0  501  502  0.00000000000E+00  0.00000000000E+00  0.15992932960E+03  0.15992932960E+03  0.00000000000E+00 0. -1.
         21   -1    0    0  502  503 -0.00000000000E+00 -0.00000000000E+00 -0.23322949872E+03  0.23322949872E+03  0.00000000000E+00 0. -1.
          6    1    1    2  501    0 -0.32831088399E+02 -0.26693432270E+02 -0.11500322022E+03  0.21118750046E+03  0.17200000000E+03 0. -1.
         -6    1    1    2    0  503  0.32831088399E+02  0.26693432270E+02  0.41703051093E+02  0.18197132786E+03  0.17200000000E+03 0. -1.
<mgrwt>
<rscale>  2 0.17712826E+03</rscale>
<asrwt>0</asrwt>
<pdfrwt beam="1">  1       21 0.39982333E-01 0.17712826E+03</pdfrwt>
<pdfrwt beam="2">  1       21 0.58307374E-01 0.17712826E+03</pdfrwt>
<totfact> 0.16771756E+04</totfact>
</mgrwt>
</event>
<event>
 4    1  0.1115666E+000  0.1840042E+03  0.7546771E-02  0.1163983E+00
         21   -1    0    0  501  502  0.00000000000E+00  0.00000000000E+00  0.28287802296E+03  0.28287802296E+03  0.00000000000E+00 0. -1.
         21   -1    0    0  502  503 -0.00000000000E+00 -0.00000000000E+00 -0.13783492288E+03  0.13783492288E+03  0.00000000000E+00 0. -1.
          6    1    1    2  501    0 -0.75595984544E+01 -0.64933738153E+02  0.14884525136E+03  0.23666948838E+03  0.17200000000E+03 0. -1.
         -6    1    1    2    0  503  0.75595984544E+01  0.64933738153E+02 -0.38021512722E+01  0.18404345746E+03  0.17200000000E+03 0. -1.
<mgrwt>
<rscale>  2 0.18400418E+03</rscale>
<asrwt>0</asrwt>
<pdfrwt beam="1">  1       21 0.70719505E-01 0.18400418E+03</pdfrwt>
<pdfrwt beam="2">  1       21 0.34458731E-01 0.18400418E+03</pdfrwt>
<totfact> 0.14784703E+04</totfact>
</mgrwt>
</event>
<event>
 4    1  0.1115666E+000  0.1860493E+03  0.7546771E-02  0.1162074E+00
         21   -1    0    0  501  502  0.00000000000E+00  0.00000000000E+00  0.23948167395E+03  0.23948167395E+03  0.00000000000E+00 0. -1.
         21   -1    0    0  502  503 -0.00000000000E+00 -0.00000000000E+00 -0.19006369549E+03  0.19006369549E+03  0.00000000000E+00 0. -1.
          6    1    1    2  501    0 -0.38593113705E+02  0.59505426410E+02  0.12982172169E+03  0.22686560696E+03  0.17200000000E+03 0. -1.
         -6    1    1    2    0  503  0.38593113705E+02 -0.59505426410E+02 -0.80403743221E+02  0.20267976249E+03  0.17200000000E+03 0. -1.
<mgrwt>
<rscale>  2 0.18604925E+03</rscale>
<asrwt>0</asrwt>
<pdfrwt beam="1">  1       21 0.59870418E-01 0.18604925E+03</pdfrwt>
<pdfrwt beam="2">  1       21 0.47515924E-01 0.18604925E+03</pdfrwt>
<totfact> 0.11076282E+04</totfact>
</mgrwt>
</event>
<event>
 4    1  0.1115666E+000  0.3622189E+03  0.7546771E-02  0.1057709E+00
         21   -1    0    0  501  502  0.00000000000E+00  0.00000000000E+00  0.63223249278E+03  0.63223249278E+03  0.00000000000E+00 0.  1.
         21   -1    0    0  502  503 -0.00000000000E+00 -0.00000000000E+00 -0.10773096324E+04  0.10773096324E+04  0.00000000000E+00 0.  1.
          6    1    1    2  501    0 -0.27409635901E+03 -0.16275659745E+03  0.54550526355E+03  0.65481181770E+03  0.17200000000E+03 0.  1.
         -6    1    1    2    0  503  0.27409635901E+03  0.16275659745E+03 -0.99058240320E+03  0.10547303075E+04  0.17200000000E+03 0.  1.
<mgrwt>
<rscale>  2 0.36221889E+03</rscale>
<asrwt>0</asrwt>
<pdfrwt beam="1">  1       21 0.15805812E+00 0.36221889E+03</pdfrwt>
<pdfrwt beam="2">  1       21 0.26932741E+00 0.36221889E+03</pdfrwt>
<totfact> 0.10606523E+01</totfact>
</mgrwt>
</event>
<event>
 4    1  0.1115666E+000  0.2592331E+03  0.7546771E-02  0.1107605E+00
         21   -1    0    0  503  502  0.00000000000E+00  0.00000000000E+00  0.32951244295E+03  0.32951244295E+03  0.00000000000E+00 0.  1.
         21   -1    0    0  501  503 -0.00000000000E+00 -0.00000000000E+00 -0.22330145674E+03  0.22330145674E+03  0.00000000000E+00 0.  1.
          6    1    1    2  501    0  0.77049306809E+02 -0.17799220871E+03 -0.28277995691E+02  0.26077090919E+03  0.17200000000E+03 0.  1.
         -6    1    1    2    0  502 -0.77049306809E+02  0.17799220871E+03  0.13448898190E+03  0.29204299049E+03  0.17200000000E+03 0.  1.
<mgrwt>
<rscale>  2 0.25923314E+03</rscale>
<asrwt>0</asrwt>
<pdfrwt beam="1">  1       21 0.82378110E-01 0.25923314E+03</pdfrwt>
<pdfrwt beam="2">  1       21 0.55825364E-01 0.25923314E+03</pdfrwt>
<totfact> 0.37067005E+03</totfact>
</mgrwt>
</event>
<event>
 4    1  0.1115666E+000  0.1971905E+03  0.7546771E-02  0.1152131E+00
         21   -1    0    0  501  502  0.00000000000E+00  0.00000000000E+00  0.12537688463E+04  0.12537688463E+04  0.00000000000E+00 0.  1.
         21   -1    0    0  502  503 -0.00000000000E+00 -0.00000000000E+00 -0.37284547003E+02  0.37284547003E+02  0.00000000000E+00 0.  1.
          6    1    1    2  501    0 -0.37372605618E+02  0.88901013460E+02  0.87297654001E+03  0.89497046948E+03  0.17200000000E+03 0.  1.
         -6    1    1    2    0  503  0.37372605618E+02 -0.88901013460E+02  0.34350775925E+03  0.39608292378E+03  0.17200000000E+03 0.  1.
<mgrwt>
<rscale>  2 0.19719052E+03</rscale>
<asrwt>0</asrwt>
<pdfrwt beam="1">  1       21 0.31344207E+00 0.19719052E+03</pdfrwt>
<pdfrwt beam="2">  1       21 0.93211409E-02 0.19719052E+03</pdfrwt>
<totfact> 0.26081820E+03</totfact>
</mgrwt>
</event>
<event>
 4    1  0.1115666E+000  0.1829176E+03  0.7546771E-02  0.1165009E+00
         21   -1    0    0  503  502  0.00000000000E+00  0.00000000000E+00  0.34268949613E+03  0.34268949613E+03  0.00000000000E+00 0.  1.
         21   -1    0    0  501  503 -0.00000000000E+00 -0.00000000000E+00 -0.10072993602E+03  0.10072993602E+03  0.00000000000E+00 0. -1.
          6    1    1    2  501    0  0.14419344366E+02 -0.60555235719E+02  0.82123920624E+02  0.20050733753E+03  0.17200000000E+03 0. -1.
         -6    1    1    2    0  502 -0.14419344366E+02  0.60555235719E+02  0.15983563948E+03  0.24291209462E+03  0.17200000000E+03 0. -1.
<mgrwt>
<rscale>  2 0.18291762E+03</rscale>
<asrwt>0</asrwt>
<pdfrwt beam="1">  1       21 0.85672371E-01 0.18291762E+03</pdfrwt>
<pdfrwt beam="2">  1       21 0.25182485E-01 0.18291762E+03</pdfrwt>
<totfact> 0.17686086E+04</totfact>
</mgrwt>
</event>
<event>
 4    1  0.1115666E+000  0.1737991E+03  0.7546771E-02  0.1173943E+00
         21   -1    0    0  501  502  0.00000000000E+00  0.00000000000E+00  0.32439167763E+03  0.32439167763E+03  0.00000000000E+00 0. -1.
         21   -1    0    0  502  503 -0.00000000000E+00 -0.00000000000E+00 -0.16072108220E+03  0.16072108220E+03  0.00000000000E+00 0. -1.
          6    1    1    2  501    0  0.60658808225E+01  0.24193774202E+02  0.23914850188E+03  0.29563176347E+03  0.17200000000E+03 0. -1.
         -6    1    1    2    0  503 -0.60658808225E+01 -0.24193774202E+02 -0.75477906454E+02  0.18948099636E+03  0.17200000000E+03 0. -1.
<mgrwt>
<rscale>  2 0.17379912E+03</rscale>
<asrwt>0</asrwt>
<pdfrwt beam="1">  1       21 0.81097918E-01 0.17379912E+03</pdfrwt>
<pdfrwt beam="2">  1       21 0.40180271E-01 0.17379912E+03</pdfrwt>
<totfact> 0.80719629E+03</totfact>
</mgrwt>
</event>
<event>
 4    1  0.1115666E+000  0.1783540E+03  0.7546771E-02  0.1169406E+00
         21   -1    0    0  501  502  0.00000000000E+00  0.00000000000E+00  0.32187877739E+03  0.32187877739E+03  0.00000000000E+00 0.  1.
         21   -1    0    0  502  503 -0.00000000000E+00 -0.00000000000E+00 -0.52714237099E+03  0.52714237099E+03  0.00000000000E+00 0.  1.
          6    1    1    2  501    0  0.33497886252E+02  0.33226882490E+02  0.28002256063E+03  0.33199814542E+03  0.17200000000E+03 0.  1.
         -6    1    1    2    0  503 -0.33497886252E+02 -0.33226882490E+02 -0.48528615423E+03  0.51702300296E+03  0.17200000000E+03 0.  1.
<mgrwt>
<rscale>  2 0.17835396E+03</rscale>
<asrwt>0</asrwt>
<pdfrwt beam="1">  1       21 0.80469695E-01 0.17835396E+03</pdfrwt>
<pdfrwt beam="2">  1       21 0.13178559E+00 0.17835396E+03</pdfrwt>
<totfact> 0.57615990E+02</totfact>
</mgrwt>
</event>
<event>
 4    1  0.1115666E+000  0.1776546E+03  0.7546771E-02  0.1170092E+00
         21   -1    0    0  503  502  0.00000000000E+00  0.00000000000E+00  0.77067563956E+02  0.77067563956E+02  0.00000000000E+00 0. -1.
         21   -1    0    0  501  503 -0.00000000000E+00 -0.00000000000E+00 -0.43048582912E+03  0.43048582912E+03  0.00000000000E+00 0.  1.
          6    1    1    2  501    0 -0.43981178121E+02 -0.65430520815E+01 -0.12071167869E+03  0.21478469436E+03  0.17200000000E+03 0. -1.
         -6    1    1    2    0  502  0.43981178121E+02  0.65430520815E+01 -0.23270658647E+03  0.29276869871E+03  0.17200000000E+03 0.  1.
<mgrwt>
<rscale>  2 0.17765460E+03</rscale>
<asrwt>0</asrwt>
<pdfrwt beam="1">  1       21 0.19266891E-01 0.17765460E+03</pdfrwt>
<pdfrwt beam="2">  1       21 0.10762146E+00 0.17765460E+03</pdfrwt>
<totfact> 0.17206043E+04</totfact>
</mgrwt>
</event>
