<event>
11    0  0.3462209E-009  0.9118800E+02  0.7816531E-02  0.1126479E+00
         25   -1    0    0    0    0  0.00000000000E+00  0.00000000000E+00  0.99999998245E-14  0.12500000000E+03  0.12500000000E+03 0.  0.
    3000001    1    3    3    0    0  0.28118299749E+02 -0.72196507335E+01  0.47369793347E+02  0.55566711791E+02  0.10000000000E+01 0.  1.
    1000022    2    1    0    0    0  0.32004447366E+02 -0.47197085040E+01  0.52532749739E+02  0.62499999281E+02  0.99999907736E+01 0.  0.
    3000022    2    3    3    0    0  0.38861476162E+01  0.24999422296E+01  0.51629563916E+01  0.69332874900E+01  0.25000454340E+00 0.  0.
    1000022    2    1    0    0    0 -0.32004447366E+02  0.47197085040E+01 -0.52532749739E+02  0.62500000719E+02  0.99999997619E+01 0.  0.
    3000022    2    5    5    0    0 -0.76342389511E+01  0.55602025413E+01 -0.15274026463E+02  0.17959839645E+02  0.24999801906E+00 0.  0.
        -13    1    4    4    0    0  0.21534200468E+01  0.13682901773E+01  0.27524667893E+01  0.37545351688E+01  0.10500000000E+00 0. -1.
         13    1    4    4    0    0  0.17327275694E+01  0.11316520523E+01  0.24104896022E+01  0.31787523212E+01  0.10500000000E+00 0.  1.
    3000001    1    5    5    0    0 -0.24370208414E+02 -0.84049403737E+00 -0.37258723275E+02  0.44540161074E+02  0.10000000000E+01 0.  1.
        -13    1    6    6    0    0 -0.25746747491E+01  0.19040539055E+01 -0.52742754268E+01  0.61711731151E+01  0.10500000000E+00 0. -1.
         13    1    6    6    0    0 -0.50595642019E+01  0.36561486359E+01 -0.99997510364E+01  0.11788666530E+02  0.10500000000E+00 0.  1.
</event>
<event>
11    0  0.3462209E-009  0.9118800E+02  0.7816531E-02  0.1126479E+00
         25   -1    0    0    0    0  0.00000000000E+00  0.00000000000E+00  0.99999998245E-14  0.12500000000E+03  0.12500000000E+03 0.  0.
    3000001    1    3    3    0    0 -0.78867110204E+01 -0.13059817335E+01  0.27991581205E+01  0.85288384433E+01  0.10000000000E+01 0.  1.
    1000022    2    1    0    0    0 -0.61115560894E+02 -0.77212181632E+01 -0.33942357512E+01  0.62500000626E+02  0.10000012435E+02 0.  0.
    3000022    2    3    3    0    0 -0.53228849873E+02 -0.64152364298E+01 -0.61933938717E+01  0.53971162183E+02  0.25000493497E+00 0.  0.
    1000022    2    1    0    0    0  0.61115560894E+02  0.77212181632E+01  0.33942357512E+01  0.62499999374E+02  0.10000004607E+02 0.  0.
    3000022    2    5    5    0    0  0.18295296922E+02 -0.21980137522E+01  0.16002059012E+01  0.18497900430E+02  0.25001492391E+00 0.  0.
        -13    1    4    4    0    0 -0.13764165267E+02 -0.16871391952E+01 -0.16151736561E+01  0.13961321395E+02  0.10500000000E+00 0.  1.
         13    1    4    4    0    0 -0.39464684607E+02 -0.47280972345E+01 -0.45782202156E+01  0.40009840788E+02  0.10500000000E+00 0. -1.
    3000001    1    5    5    0    0  0.42820263971E+02  0.99192319154E+01  0.17940298500E+01  0.44002098944E+02  0.10000000000E+01 0. -1.
        -13    1    6    6    0    0  0.64126478428E+01 -0.74320040047E+00  0.51074601180E+00  0.64765952227E+01  0.10500000000E+00 0. -1.
         13    1    6    6    0    0  0.11882649079E+02 -0.14548133517E+01  0.10894598894E+01  0.12021305207E+02  0.10500000000E+00 0.  1.
</event>
<event>
11    0  0.3462209E-009  0.9118800E+02  0.7816531E-02  0.1126479E+00
         25   -1    0    0    0    0  0.00000000000E+00  0.00000000000E+00  0.99999998245E-14  0.12500000000E+03  0.12500000000E+03 0.  0.
    3000001    1    3    3    0    0  0.97895852151E+01 -0.43143725127E+01  0.12271383211E+02  0.16310629503E+02  0.10000000000E+01 0.  1.
    1000022    2    1    0    0    0  0.37195748026E+02 -0.30656793729E+02  0.38508276430E+02  0.62500000364E+02  0.10000000947E+02 0.  0.
    3000022    2    3    3    0    0  0.27406162811E+02 -0.26342421216E+02  0.26236893218E+02  0.46189370861E+02  0.24999845381E+00 0.  0.
    1000022    2    1    0    0    0 -0.37195748026E+02  0.30656793729E+02 -0.38508276430E+02  0.62499999636E+02  0.99999964023E+01 0.  0.
    3000022    2    5    5    0    0 -0.20660567635E+02  0.20666045954E+02 -0.28059774261E+02  0.40513675950E+02  0.24999413528E+00 0.  0.
        -13    1    4    4    0    0  0.15124010609E+02 -0.14493074223E+02  0.14528899867E+02  0.25492839263E+02  0.10500000000E+00 0. -1.
         13    1    4    4    0    0  0.12282152202E+02 -0.11849346993E+02  0.11707993351E+02  0.20696531598E+02  0.10500000000E+00 0.  1.
    3000001    1    5    5    0    0 -0.16535180391E+02  0.99907477747E+01 -0.10448502169E+02  0.21986323686E+02  0.10000000000E+01 0.  1.
        -13    1    6    6    0    0 -0.13547278288E+02  0.13550621839E+02 -0.18321509181E+02  0.26511069856E+02  0.10500000000E+00 0.  1.
         13    1    6    6    0    0 -0.71132893472E+01  0.71154241143E+01 -0.97382650805E+01  0.14002606095E+02  0.10500000000E+00 0. -1.
</event>
<event>
11    0  0.3462209E-009  0.9118800E+02  0.7816531E-02  0.1126479E+00
         25   -1    0    0    0    0  0.00000000000E+00  0.00000000000E+00  0.99999998245E-14  0.12500000000E+03  0.12500000000E+03 0.  0.
    3000001    1    3    3    0    0  0.37232688928E+02 -0.16251696086E+02 -0.11869558415E+02  0.42335294583E+02  0.10000000000E+01 0.  1.
    1000022    2    1    0    0    0  0.56967311134E+02 -0.17693987577E+02 -0.15744771939E+02  0.62499999071E+02  0.10000015310E+02 0.  0.
    3000022    2    3    3    0    0  0.19734622206E+02 -0.14422914909E+01 -0.38752135239E+01  0.20164704488E+02  0.25001769242E+00 0.  0.
    1000022    2    1    0    0    0 -0.56967311134E+02  0.17693987577E+02  0.15744771939E+02  0.62500000929E+02  0.10000026928E+02 0.  0.
    3000022    2    5    5    0    0 -0.17030336881E+02  0.20653341338E+01  0.79104353607E+01  0.18892736047E+02  0.25001674083E+00 0.  0.
        -13    1    4    4    0    0  0.56059917576E+01 -0.37432872965E+00 -0.11218164424E+01  0.57303370507E+01  0.10500000000E+00 0. -1.
         13    1    4    4    0    0  0.14128630449E+02 -0.10679627613E+01 -0.27533970815E+01  0.14434367437E+02  0.10500000000E+00 0.  1.
    3000001    1    5    5    0    0 -0.39936974253E+02  0.15628653443E+02  0.78343365786E+01  0.43607264883E+02  0.10000000000E+01 0.  1.
        -13    1    6    6    0    0 -0.40163567959E+01  0.50059042483E+00  0.18579301483E+01  0.44547325533E+01  0.10500000000E+00 0.  1.
         13    1    6    6    0    0 -0.13013980085E+02  0.15647437090E+01  0.60525052124E+01  0.14438003493E+02  0.10500000000E+00 0. -1.
</event>
<event>
11    0  0.3462209E-009  0.9118800E+02  0.7816531E-02  0.1126479E+00
         25   -1    0    0    0    0  0.00000000000E+00  0.00000000000E+00  0.99999998245E-14  0.12500000000E+03  0.12500000000E+03 0.  0.
    3000001    1    3    3    0    0 -0.10931544089E+01 -0.53906493140E+01 -0.88810903608E+01  0.10494181844E+02  0.10000000000E+01 0. -1.
    1000022    2    1    0    0    0  0.76421989048E+01 -0.44373929111E+02 -0.42175836599E+02  0.62500000052E+02  0.10000001245E+02 0.  0.
    3000022    2    3    3    0    0  0.87353533137E+01 -0.38983279797E+02 -0.33294746238E+02  0.52005818208E+02  0.24999834994E+00 0.  0.
    1000022    2    1    0    0    0 -0.76421989048E+01  0.44373929111E+02  0.42175836599E+02  0.62499999948E+02  0.10000000594E+02 0.  0.
    3000022    2    5    5    0    0 -0.42825571639E+01  0.38718708272E+02  0.32366770734E+02  0.50647300319E+02  0.25003144532E+00 0.  0.
        -13    1    4    4    0    0  0.54576371435E+01 -0.24108965525E+02 -0.20563910623E+02  0.32154524829E+02  0.10500000000E+00 0.  1.
         13    1    4    4    0    0  0.32777161702E+01 -0.14874314272E+02 -0.12730835615E+02  0.19851293379E+02  0.10500000000E+00 0. -1.
    3000001    1    5    5    0    0 -0.33596417409E+01  0.56552208390E+01  0.98090658647E+01  0.11852699629E+02  0.10000000000E+01 0.  1.
        -13    1    6    6    0    0 -0.28131523297E+01  0.25864063926E+02  0.21648376505E+02  0.33845632792E+02  0.10500000000E+00 0.  1.
         13    1    6    6    0    0 -0.14694048342E+01  0.12854644346E+02  0.10718394229E+02  0.16801667527E+02  0.10500000000E+00 0. -1.
</event>
<event>
11    0  0.3462209E-009  0.9118800E+02  0.7816531E-02  0.1126479E+00
         25   -1    0    0    0    0  0.00000000000E+00  0.00000000000E+00  0.99999998245E-14  0.12500000000E+03  0.12500000000E+03 0.  0.
    3000001    1    3    3    0    0  0.81968104293E+01  0.18457406183E+02  0.24599418006E+01  0.20369458949E+02  0.10000000000E+01 0. -1.
    1000022    2    1    0    0    0  0.36518745149E+02  0.49644706412E+02  0.28344946890E+01  0.62499999781E+02  0.99999995225E+01 0.  0.
    3000022    2    3    3    0    0  0.28321934720E+02  0.31187300229E+02  0.37455288840E+00  0.42130540832E+02  0.24999810662E+00 0.  0.
    1000022    2    1    0    0    0 -0.36518745149E+02 -0.49644706412E+02 -0.28344946890E+01  0.62500000219E+02  0.10000002262E+02 0.  0.
    3000022    2    5    5    0    0 -0.18023531130E+02 -0.30120975467E+02 -0.51949807815E+01  0.35484802530E+02  0.25009546397E+00 0.  0.
        -13    1    4    4    0    0  0.91917156614E+01  0.10195740682E+02  0.10710005551E+00  0.13728192171E+02  0.10500000000E+00 0.  1.
         13    1    4    4    0    0  0.19130219059E+02  0.20991559547E+02  0.26745283289E+00  0.28402348661E+02  0.10500000000E+00 0. -1.
    3000001    1    5    5    0    0 -0.18495214019E+02 -0.19523730945E+02  0.23604860925E+01  0.27015197690E+02  0.10000000000E+01 0. -1.
        -13    1    6    6    0    0 -0.11024769100E+02 -0.18527687097E+02 -0.32226622378E+01  0.21799479347E+02  0.10500000000E+00 0. -1.
         13    1    6    6    0    0 -0.69987620296E+01 -0.11593288370E+02 -0.19723185437E+01  0.13685323183E+02  0.10500000000E+00 0.  1.
</event>
<event>
11    0  0.3462209E-009  0.9118800E+02  0.7816531E-02  0.1126479E+00
         25   -1    0    0    0    0  0.00000000000E+00  0.00000000000E+00  0.99999998245E-14  0.12500000000E+03  0.12500000000E+03 0.  0.
    3000001    1    3    3    0    0 -0.22980409757E+02  0.70160931053E+01 -0.58661242937E+01  0.24753509029E+02  0.10000000000E+01 0.  1.
    1000022    2    1    0    0    0 -0.52377525703E+02  0.28457841180E+02 -0.15905851630E+02  0.62500000493E+02  0.10000001107E+02 0.  0.
    3000022    2    3    3    0    0 -0.29397115946E+02  0.21441748075E+02 -0.10039727337E+02  0.37746491463E+02  0.25001269390E+00 0.  0.
    1000022    2    1    0    0    0  0.52377525703E+02 -0.28457841180E+02  0.15905851630E+02  0.62499999507E+02  0.99999949499E+01 0.  0.
    3000022    2    5    5    0    0  0.45119052245E+02 -0.26441204136E+02  0.10959554566E+02  0.53432578896E+02  0.24999901373E+00 0.  0.
        -13    1    4    4    0    0 -0.17000572760E+02  0.12346742019E+02 -0.57467517404E+01  0.21782967962E+02  0.10500000000E+00 0. -1.
         13    1    4    4    0    0 -0.12396543186E+02  0.90950060559E+01 -0.42929755962E+01  0.15963523501E+02  0.10500000000E+00 0.  1.
    3000001    1    5    5    0    0  0.72584734576E+01 -0.20166370437E+01  0.49462970643E+01  0.90674206117E+01  0.10000000000E+01 0. -1.
        -13    1    6    6    0    0  0.26373969702E+02 -0.15480060205E+02  0.63465351759E+01  0.31233124652E+02  0.10500000000E+00 0. -1.
         13    1    6    6    0    0  0.18745082542E+02 -0.10961143931E+02  0.46130193900E+01  0.22199454243E+02  0.10500000000E+00 0.  1.
</event>
<event>
11    0  0.3462209E-009  0.9118800E+02  0.7816531E-02  0.1126479E+00
         25   -1    0    0    0    0  0.00000000000E+00  0.00000000000E+00  0.99999998245E-14  0.12500000000E+03  0.12500000000E+03 0.  0.
    3000001    1    3    3    0    0 -0.15566515366E+02  0.17889408197E+01 -0.12967591793E+02  0.20363574019E+02  0.10000000000E+01 0. -1.
    1000022    2    1    0    0    0 -0.39969399245E+02  0.16528276772E+02 -0.43994468528E+02  0.62499999470E+02  0.99999931784E+01 0.  0.
    3000022    2    3    3    0    0 -0.24402883879E+02  0.14739335952E+02 -0.31026876735E+02  0.42136425451E+02  0.25000786947E+00 0.  0.
    1000022    2    1    0    0    0  0.39969399245E+02 -0.16528276772E+02  0.43994468528E+02  0.62500000530E+02  0.99999998039E+01 0.  0.
    3000022    2    5    5    0    0  0.14978846583E+02 -0.40697688643E+01  0.22072861841E+02  0.26985229217E+02  0.25000495545E+00 0.  0.
        -13    1    4    4    0    0 -0.12816827663E+02  0.77678564678E+01 -0.16216710767E+02  0.22081743558E+02  0.10500000000E+00 0. -1.
         13    1    4    4    0    0 -0.11586056216E+02  0.69714794842E+01 -0.14810165968E+02  0.20054681893E+02  0.10500000000E+00 0.  1.
    3000001    1    5    5    0    0  0.24990552663E+02 -0.12458507907E+02  0.21921606687E+02  0.35514771313E+02  0.10000000000E+01 0. -1.
        -13    1    6    6    0    0  0.47047152784E+01 -0.13288677825E+01  0.69375269746E+01  0.84876699369E+01  0.10500000000E+00 0.  1.
         13    1    6    6    0    0  0.10274131304E+02 -0.27409010819E+01  0.15135334867E+02  0.18497559280E+02  0.10500000000E+00 0. -1.
</event>
<event>
11    0  0.3462209E-009  0.9118800E+02  0.7816531E-02  0.1126479E+00
         25   -1    0    0    0    0  0.00000000000E+00  0.00000000000E+00  0.99999998245E-14  0.12500000000E+03  0.12500000000E+03 0.  0.
    3000001    1    3    3    0    0  0.10061361322E+02  0.99290289634E+01 -0.12026749141E+02  0.18586535521E+02  0.10000000000E+01 0. -1.
    1000022    2    1    0    0    0  0.34112356906E+02  0.42730473325E+02 -0.28578025043E+02  0.62500000130E+02  0.10000012837E+02 0.  0.
    3000022    2    3    3    0    0  0.24050995584E+02  0.32801444361E+02 -0.16551275902E+02  0.43913464609E+02  0.24999838908E+00 0.  0.
    1000022    2    1    0    0    0 -0.34112356906E+02 -0.42730473325E+02  0.28578025043E+02  0.62499999870E+02  0.10000011206E+02 0.  0.
    3000022    2    5    5    0    0 -0.32907712232E+02 -0.36521643793E+02  0.24748979420E+02  0.55039281183E+02  0.25000216980E+00 0.  0.
        -13    1    4    4    0    0  0.13306797222E+02  0.18035931519E+02 -0.91264625443E+01  0.24200599613E+02  0.10500000000E+00 0. -1.
         13    1    4    4    0    0  0.10744198362E+02  0.14765512843E+02 -0.74248133579E+01  0.19712864996E+02  0.10500000000E+00 0.  1.
    3000001    1    5    5    0    0 -0.12046446740E+01 -0.62088295314E+01  0.38290456232E+01  0.74607186869E+01  0.10000000000E+01 0. -1.
        -13    1    6    6    0    0 -0.11864801009E+02 -0.13115711255E+02  0.89557771709E+01  0.19824539199E+02  0.10500000000E+00 0. -1.
         13    1    6    6    0    0 -0.21042911223E+02 -0.23405932538E+02  0.15793202249E+02  0.35214741984E+02  0.10500000000E+00 0.  1.
</event>
<event>
11    0  0.3462209E-009  0.9118800E+02  0.7816531E-02  0.1126479E+00
         25   -1    0    0    0    0  0.00000000000E+00  0.00000000000E+00  0.99999998245E-14  0.12500000000E+03  0.12500000000E+03 0.  0.
    3000001    1    3    3    0    0  0.28249074936E+02  0.93057931930E+01 -0.58295742244E+01  0.30324774646E+02  0.10000000000E+01 0.  1.
    1000022    2    1    0    0    0  0.55707522364E+02  0.26050955878E+02 -0.49263866680E+01  0.62499998879E+02  0.10000011211E+02 0.  0.
    3000022    2    3    3    0    0  0.27458447428E+02  0.16745162685E+02  0.90318755640E+00  0.32175224233E+02  0.24999639843E+00 0.  0.
    1000022    2    1    0    0    0 -0.55707522364E+02 -0.26050955878E+02  0.49263866680E+01  0.62500001121E+02  0.10000025225E+02 0.  0.
    3000022    2    5    5    0    0 -0.53697374826E+02 -0.26458922162E+02  0.38763615736E+01  0.59988093020E+02  0.24999975171E+00 0.  0.
        -13    1    4    4    0    0  0.16758784772E+02  0.10199264620E+02  0.49152651782E+00  0.19624843672E+02  0.10500000000E+00 0.  1.
         13    1    4    4    0    0  0.10699662656E+02  0.65458980646E+01  0.41166103858E+00  0.12550380561E+02  0.10500000000E+00 0. -1.
    3000001    1    5    5    0    0 -0.20101475373E+01  0.40796628448E+00  0.10500250944E+01  0.25119081014E+01  0.10000000000E+01 0. -1.
        -13    1    6    6    0    0 -0.21652518259E+02 -0.10738025913E+02  0.15791350451E+01  0.24220682071E+02  0.10500000000E+00 0.  1.
         13    1    6    6    0    0 -0.32044856567E+02 -0.15720896249E+02  0.22972265284E+01  0.35767410949E+02  0.10500000000E+00 0. -1.
</event>
<event>
11    0  0.3462209E-009  0.9118800E+02  0.7816531E-02  0.1126479E+00
         25   -1    0    0    0    0  0.00000000000E+00  0.00000000000E+00  0.99999998245E-14  0.12500000000E+03  0.12500000000E+03 0.  0.
    3000001    1    3    3    0    0  0.12201949548E+02 -0.57773337909E+01 -0.23032890743E+02  0.26716646767E+02  0.10000000000E+01 0. -1.
    1000022    2    1    0    0    0  0.29971576936E+02 -0.23513504883E+02 -0.48529057541E+02  0.62500001288E+02  0.10000019968E+02 0.  0.
    3000022    2    3    3    0    0  0.17769627387E+02 -0.17736171092E+02 -0.25496166798E+02  0.35783354521E+02  0.25003381089E+00 0.  0.
    1000022    2    1    0    0    0 -0.29971576936E+02  0.23513504883E+02  0.48529057541E+02  0.62499998712E+02  0.10000003864E+02 0.  0.
    3000022    2    5    5    0    0 -0.28539484972E+02  0.24001168236E+02  0.47582843699E+02  0.60454510122E+02  0.25000082542E+00 0.  0.
        -13    1    4    4    0    0  0.90766305415E+01 -0.90953846364E+01 -0.12959395791E+02  0.18250156381E+02  0.10500000000E+00 0. -1.
         13    1    4    4    0    0  0.86929968459E+01 -0.86407864560E+01 -0.12536771007E+02  0.17533198140E+02  0.10500000000E+00 0.  1.
    3000001    1    5    5    0    0 -0.14320919632E+01 -0.48766335285E+00  0.94621384154E+00  0.20454885897E+01  0.10000000000E+01 0.  1.
        -13    1    6    6    0    0 -0.20825075397E+02  0.17513400829E+02  0.34778835862E+02  0.44158593986E+02  0.10500000000E+00 0. -1.
         13    1    6    6    0    0 -0.77144095755E+01  0.64877674073E+01  0.12804007837E+02  0.16295916136E+02  0.10500000000E+00 0.  1.
</event>
<event>
11    0  0.3462209E-009  0.9118800E+02  0.7816531E-02  0.1126479E+00
         25   -1    0    0    0    0  0.00000000000E+00  0.00000000000E+00  0.99999998245E-14  0.12500000000E+03  0.12500000000E+03 0.  0.
    3000001    1    3    3    0    0  0.21747229524E+01 -0.59607754390E+02  0.35757280996E+01  0.59762861669E+02  0.10000000000E+01 0.  1.
    1000022    2    1    0    0    0  0.31597322381E+00 -0.61568203477E+02  0.39378240713E+01  0.62499999662E+02  0.99999990474E+01 0.  0.
    3000022    2    3    3    0    0 -0.18587497286E+01 -0.19604490861E+01  0.36209597178E+00  0.27371379934E+01  0.24999945969E+00 0.  0.
    1000022    2    1    0    0    0 -0.31597322381E+00  0.61568203477E+02 -0.39378240713E+01  0.62500000338E+02  0.10000003270E+02 0.  0.
    3000022    2    5    5    0    0 -0.80154166966E-01  0.24320042507E+01 -0.22611422653E+01  0.33311155132E+01  0.24999370521E+00 0.  0.
        -13    1    4    4    0    0 -0.61126535903E+00 -0.72537484958E+00  0.11565595175E+00  0.96136117600E+00  0.10500000000E+00 0. -1.
         13    1    4    4    0    0 -0.12474843695E+01 -0.12350742365E+01  0.24644002003E+00  0.17757768174E+01  0.10500000000E+00 0.  1.
    3000001    1    5    5    0    0 -0.23581905684E+00  0.59136199226E+02 -0.16766818060E+01  0.59168884825E+02  0.10000000000E+01 0.  1.
        -13    1    6    6    0    0  0.56654289353E-03  0.58955443331E+00 -0.56637115378E+00  0.82424270372E+00  0.10500000000E+00 0. -1.
         13    1    6    6    0    0 -0.80720709859E-01  0.18424498174E+01 -0.16947711115E+01  0.25068728095E+01  0.10500000000E+00 0.  1.
</event>
<event>
11    0  0.3462209E-009  0.9118800E+02  0.7816531E-02  0.1126479E+00
         25   -1    0    0    0    0  0.00000000000E+00  0.00000000000E+00  0.99999998245E-14  0.12500000000E+03  0.12500000000E+03 0.  0.
    3000001    1    3    3    0    0  0.19471004190E+02 -0.11209513057E+02 -0.10764797087E+01  0.22515150359E+02  0.10000000000E+01 0.  1.
    1000022    2    1    0    0    0  0.51306892295E+02 -0.32848401936E+02  0.97383337427E+01  0.62499997120E+02  0.99999894602E+01 0.  0.
    3000022    2    3    3    0    0  0.31835888105E+02 -0.21638888879E+02  0.10814813451E+02  0.39984846761E+02  0.24999427151E+00 0.  0.
    1000022    2    1    0    0    0 -0.51306892295E+02  0.32848401936E+02 -0.97383337427E+01  0.62500002880E+02  0.10000025463E+02 0.  0.
    3000022    2    5    5    0    0 -0.65893225967E+01  0.25807187424E+01  0.17279537129E+01  0.72888678293E+01  0.24997737508E+00 0.  0.
        -13    1    4    4    0    0  0.11054754626E+02 -0.74465534718E+01  0.37404861831E+01  0.13844169182E+02  0.10500000000E+00 0. -1.
         13    1    4    4    0    0  0.20781133479E+02 -0.14192335407E+02  0.70743272683E+01  0.26140677579E+02  0.10500000000E+00 0.  1.
    3000001    1    5    5    0    0 -0.44717569698E+02  0.30267683194E+02 -0.11466287456E+02  0.55211135051E+02  0.10000000000E+01 0.  1.
        -13    1    6    6    0    0 -0.49643492050E+01  0.19179923666E+01  0.13048402788E+01  0.54806104496E+01  0.10500000000E+00 0. -1.
         13    1    6    6    0    0 -0.16249733917E+01  0.66272637581E+00  0.42311343417E+00  0.18082573796E+01  0.10500000000E+00 0.  1.
</event>
<event>
11    0  0.3462209E-009  0.9118800E+02  0.7816531E-02  0.1126479E+00
         25   -1    0    0    0    0  0.00000000000E+00  0.00000000000E+00  0.99999998245E-14  0.12500000000E+03  0.12500000000E+03 0.  0.
    3000001    1    3    3    0    0 -0.84951003471E+01 -0.20760733614E+02  0.19491192446E+02  0.29733505899E+02  0.10000000000E+01 0.  1.
    1000022    2    1    0    0    0 -0.27192719861E+02 -0.39891207181E+02  0.38412204710E+02  0.62500000582E+02  0.10000008913E+02 0.  0.
    3000022    2    3    3    0    0 -0.18697619514E+02 -0.19130473567E+02  0.18921012264E+02  0.32766494683E+02  0.24994859593E+00 0.  0.
    1000022    2    1    0    0    0  0.27192719861E+02  0.39891207181E+02 -0.38412204710E+02  0.62499999418E+02  0.10000001641E+02 0.  0.
    3000022    2    5    5    0    0  0.65622434844E+01  0.16845440000E+02 -0.17405403786E+02  0.25096662327E+02  0.24998135104E+00 0.  0.
        -13    1    4    4    0    0 -0.13409792369E+02 -0.13700827975E+02  0.13606905742E+02  0.23509447621E+02  0.10500000000E+00 0. -1.
         13    1    4    4    0    0 -0.52878271451E+01 -0.54296455916E+01  0.53141065220E+01  0.92570470613E+01  0.10500000000E+00 0.  1.
    3000001    1    5    5    0    0  0.20630476377E+02  0.23045767181E+02 -0.21006800924E+02  0.37403337091E+02  0.10000000000E+01 0.  1.
        -13    1    6    6    0    0  0.21240498751E+01  0.54436524209E+01 -0.56976488635E+01  0.81620565499E+01  0.10500000000E+00 0.  1.
         13    1    6    6    0    0  0.44381936093E+01  0.11401787579E+02 -0.11707754922E+02  0.16934605777E+02  0.10500000000E+00 0. -1.
</event>
<event>
11    0  0.3462209E-009  0.9118800E+02  0.7816531E-02  0.1126479E+00
         25   -1    0    0    0    0  0.00000000000E+00  0.00000000000E+00  0.99999998245E-14  0.12500000000E+03  0.12500000000E+03 0.  0.
    3000001    1    3    3    0    0 -0.51425805759E+01 -0.63617363164E+01 -0.20834041430E+01  0.85004939128E+01  0.10000000000E+01 0.  1.
    1000022    2    1    0    0    0 -0.20254880845E+02 -0.58193064417E+02 -0.30914306057E+01  0.62500001422E+02  0.10000014513E+02 0.  0.
    3000022    2    3    3    0    0 -0.15112300269E+02 -0.51831328100E+02 -0.10080264628E+01  0.53999507509E+02  0.25000355389E+00 0.  0.
    1000022    2    1    0    0    0  0.20254880845E+02  0.58193064417E+02  0.30914306057E+01  0.62499998578E+02  0.99999967439E+01 0.  0.
    3000022    2    5    5    0    0  0.55084868385E+01  0.27221283551E+02 -0.18144632104E+01  0.27833369952E+02  0.25000147257E+00 0.  0.
        -13    1    4    4    0    0 -0.10408380473E+02 -0.35612620645E+02 -0.73560169919E+00  0.37109907951E+02  0.10500000000E+00 0.  1.
         13    1    4    4    0    0 -0.47039197955E+01 -0.16218707456E+02 -0.27242476357E+00  0.16889599558E+02  0.10500000000E+00 0. -1.
    3000001    1    5    5    0    0  0.14746394006E+02  0.30971780865E+02  0.49058938161E+01  0.34666628626E+02  0.10000000000E+01 0. -1.
        -13    1    6    6    0    0  0.36305254352E+01  0.17941671128E+02 -0.11408408299E+01  0.18341123755E+02  0.10500000000E+00 0.  1.
         13    1    6    6    0    0  0.18779614034E+01  0.92796124233E+01 -0.67362238050E+00  0.94922461973E+01  0.10500000000E+00 0. -1.
</event>
<event>
11    0  0.3462209E-009  0.9118800E+02  0.7816531E-02  0.1126479E+00
         25   -1    0    0    0    0  0.00000000000E+00  0.00000000000E+00  0.99999998245E-14  0.12500000000E+03  0.12500000000E+03 0.  0.
    3000001    1    3    3    0    0 -0.20574893309E+02 -0.22976857238E+02  0.29979431276E+02  0.43023580776E+02  0.10000000000E+01 0.  1.
    1000022    2    1    0    0    0 -0.26577983343E+02 -0.29105729337E+02  0.47462801969E+02  0.62500000217E+02  0.99999888744E+01 0.  0.
    3000022    2    3    3    0    0 -0.60030900335E+01 -0.61288720995E+01  0.17483370694E+02  0.19476419440E+02  0.25000048083E+00 0.  0.
    1000022    2    1    0    0    0  0.26577983343E+02  0.29105729337E+02 -0.47462801969E+02  0.62499999783E+02  0.99999861671E+01 0.  0.
    3000022    2    5    5    0    0  0.26114414659E+02  0.29370816717E+02 -0.47020969967E+02  0.61283289973E+02  0.24997157365E+00 0.  0.
        -13    1    4    4    0    0 -0.33667741028E+01 -0.35274577244E+01  0.99768182677E+01  0.11105226409E+02  0.10500000000E+00 0.  1.
         13    1    4    4    0    0 -0.26363159307E+01 -0.26014143751E+01  0.75065524260E+01  0.83711930310E+01  0.10500000000E+00 0. -1.
    3000001    1    5    5    0    0  0.46356868389E+00 -0.26508737935E+00 -0.44183200259E+00  0.12167098101E+01  0.10000000000E+01 0. -1.
        -13    1    6    6    0    0  0.66479577632E+01  0.74802307001E+01 -0.11928637376E+02  0.15570889775E+02  0.10500000000E+00 0.  1.
         13    1    6    6    0    0  0.19466456895E+02  0.21890586016E+02 -0.35092332591E+02  0.45712400198E+02  0.10500000000E+00 0. -1.
</event>
<event>
11    0  0.3462209E-009  0.9118800E+02  0.7816531E-02  0.1126479E+00
         25   -1    0    0    0    0  0.00000000000E+00  0.00000000000E+00  0.99999998245E-14  0.12500000000E+03  0.12500000000E+03 0.  0.
    3000001    1    3    3    0    0 -0.27862167965E+02 -0.12093031077E+02 -0.15864494246E+02  0.34281539960E+02  0.10000000000E+01 0.  1.
    1000022    2    1    0    0    0 -0.46371114797E+02 -0.29774610654E+02 -0.27738821232E+02  0.62500000441E+02  0.10000006238E+02 0.  0.
    3000022    2    3    3    0    0 -0.18508946832E+02 -0.17681579578E+02 -0.11874326986E+02  0.28218460482E+02  0.25000283236E+00 0.  0.
    1000022    2    1    0    0    0  0.46371114797E+02  0.29774610654E+02  0.27738821232E+02  0.62499999559E+02  0.10000000719E+02 0.  0.
    3000022    2    5    5    0    0  0.24264659200E+01  0.39998229855E+01  0.47465844075E+00  0.47089412799E+01  0.25001313181E+00 0.  0.
        -13    1    4    4    0    0 -0.43986203064E+01 -0.42145032086E+01 -0.28428698035E+01  0.67233051110E+01  0.10500000000E+00 0.  1.
         13    1    4    4    0    0 -0.14110326525E+02 -0.13467076369E+02 -0.90314571827E+01  0.21495155371E+02  0.10500000000E+00 0. -1.
    3000001    1    5    5    0    0  0.43944648877E+02  0.25774787669E+02  0.27264162791E+02  0.57791058279E+02  0.10000000000E+01 0. -1.
        -13    1    6    6    0    0  0.12202545365E+01  0.19983885643E+01  0.30540574881E+00  0.23636572635E+01  0.10500000000E+00 0. -1.
         13    1    6    6    0    0  0.12062113835E+01  0.20014344211E+01  0.16925269194E+00  0.23452840164E+01  0.10500000000E+00 0.  1.
</event>
<event>
11    0  0.3462209E-009  0.9118800E+02  0.7816531E-02  0.1126479E+00
         25   -1    0    0    0    0  0.00000000000E+00  0.00000000000E+00  0.99999998245E-14  0.12500000000E+03  0.12500000000E+03 0.  0.
    3000001    1    3    3    0    0 -0.41749182108E+02 -0.64032566312E+01 -0.96349065544E+01  0.43333905046E+02  0.10000000000E+01 0.  1.
    1000022    2    1    0    0    0 -0.60530691124E+02 -0.30905417917E+01 -0.11520998926E+02  0.62499995058E+02  0.99999974734E+01 0.  0.
    3000022    2    3    3    0    0 -0.18781509016E+02  0.33127148395E+01 -0.18860923713E+01  0.19166090012E+02  0.25000281091E+00 0.  0.
    1000022    2    1    0    0    0  0.60530691124E+02  0.30905417917E+01  0.11520998926E+02  0.62500004942E+02  0.10000059248E+02 0.  0.
    3000022    2    5    5    0    0  0.53005827116E+01 -0.78240348190E+00 -0.15894647123E+01  0.55943915356E+01  0.24997257929E+00 0.  0.
        -13    1    4    4    0    0 -0.78315202029E+01  0.13524496123E+01 -0.84422173996E+00  0.79928445493E+01  0.10500000000E+00 0.  1.
         13    1    4    4    0    0 -0.10949988813E+02  0.19602652272E+01 -0.10418706313E+01  0.11173245463E+02  0.10500000000E+00 0. -1.
    3000001    1    5    5    0    0  0.55230108413E+02  0.38729452736E+01  0.13110463638E+02  0.56905613406E+02  0.10000000000E+01 0.  1.
        -13    1    6    6    0    0  0.36587153868E+01 -0.49402573806E+00 -0.10765269817E+01  0.38471021632E+01  0.10500000000E+00 0.  1.
         13    1    6    6    0    0  0.16418673248E+01 -0.28837774385E+00 -0.51293773067E+00  0.17472893724E+01  0.10500000000E+00 0. -1.
</event>
<event>
11    0  0.3462209E-009  0.9118800E+02  0.7816531E-02  0.1126479E+00
         25   -1    0    0    0    0  0.00000000000E+00  0.00000000000E+00  0.99999998245E-14  0.12500000000E+03  0.12500000000E+03 0.  0.
    3000001    1    3    3    0    0  0.12104827977E+02 -0.11198716272E+02  0.30606013662E+02  0.34780255588E+02  0.10000000000E+01 0. -1.
    1000022    2    1    0    0    0  0.17925966493E+02 -0.12615237751E+02  0.57669449557E+02  0.62500000423E+02  0.10000007120E+02 0.  0.
    3000022    2    3    3    0    0  0.58211385159E+01 -0.14165214790E+01  0.27063435896E+02  0.27719744835E+02  0.25000904674E+00 0.  0.
    1000022    2    1    0    0    0 -0.17925966493E+02  0.12615237751E+02 -0.57669449557E+02  0.62499999577E+02  0.10000001830E+02 0.  0.
    3000022    2    5    5    0    0 -0.93858450932E+01  0.25099252186E+01 -0.34038840332E+02  0.35399137833E+02  0.24999083943E+00 0.  0.
        -13    1    4    4    0    0  0.40714905641E+01 -0.99061673469E+00  0.18706665653E+02  0.19170516993E+02  0.10500000000E+00 0.  1.
         13    1    4    4    0    0  0.17496479519E+01 -0.42590474429E+00  0.83567702432E+01  0.85492278426E+01  0.10500000000E+00 0. -1.
    3000001    1    5    5    0    0 -0.85401214000E+01  0.10105312533E+02 -0.23630609225E+02  0.27100861744E+02  0.10000000000E+01 0.  1.
        -13    1    6    6    0    0 -0.52616142338E+01  0.14441697811E+01 -0.19316054473E+02  0.20072149763E+02  0.10500000000E+00 0. -1.
         13    1    6    6    0    0 -0.41242308594E+01  0.10657554375E+01 -0.14722785859E+02  0.15326988070E+02  0.10500000000E+00 0.  1.
</event>
<event>
11    0  0.3462209E-009  0.9118800E+02  0.7816531E-02  0.1126479E+00
         25   -1    0    0    0    0  0.00000000000E+00  0.00000000000E+00  0.99999998245E-14  0.12500000000E+03  0.12500000000E+03 0.  0.
    3000001    1    3    3    0    0  0.32977658953E+02  0.36158335489E+01 -0.25499302261E+02  0.41854685019E+02  0.10000000000E+01 0.  1.
    1000022    2    1    0    0    0  0.48781855070E+02 -0.15409206386E+01 -0.37738656196E+02  0.62499999718E+02  0.99999986388E+01 0.  0.
    3000022    2    3    3    0    0  0.15804196117E+02 -0.51567541875E+01 -0.12239353935E+02  0.20645314699E+02  0.25001120242E+00 0.  0.
    1000022    2    1    0    0    0 -0.48781855070E+02  0.15409206386E+01  0.37738656196E+02  0.62500000282E+02  0.10000002164E+02 0.  0.
    3000022    2    5    5    0    0 -0.69860505619E+01 -0.25667877581E+00  0.15246353936E+01  0.71594551019E+01  0.24999565299E+00 0.  0.
        -13    1    4    4    0    0  0.78015830829E+01 -0.24848599955E+01 -0.60721656353E+01  0.10194186986E+02  0.10500000000E+00 0. -1.
         13    1    4    4    0    0  0.80026130340E+01 -0.26718941919E+01 -0.61671883000E+01  0.10451127713E+02  0.10500000000E+00 0.  1.
    3000001    1    5    5    0    0 -0.41795804508E+02  0.17975994144E+01  0.36214020802E+02  0.55340545180E+02  0.10000000000E+01 0.  1.
        -13    1    6    6    0    0 -0.28607907264E+01 -0.43685438160E-01  0.60581020867E+00  0.29264420388E+01  0.10500000000E+00 0. -1.
         13    1    6    6    0    0 -0.41252598355E+01 -0.21299333765E+00  0.91882518490E+00  0.42330130631E+01  0.10500000000E+00 0.  1.
</event>
<event>
11    0  0.3462209E-009  0.9118800E+02  0.7816531E-02  0.1126479E+00
         25   -1    0    0    0    0  0.00000000000E+00  0.00000000000E+00  0.99999998245E-14  0.12500000000E+03  0.12500000000E+03 0.  0.
    3000001    1    3    3    0    0  0.23283386332E+01 -0.27360498008E+02 -0.33170875604E+02  0.43073483727E+02  0.10000000000E+01 0.  1.
    1000022    2    1    0    0    0  0.55450962117E+01 -0.34139808038E+02 -0.51087924758E+02  0.62500004834E+02  0.99999981643E+01 0.  0.
    3000022    2    3    3    0    0  0.32167575784E+01 -0.67793100301E+01 -0.17917049154E+02  0.19426521107E+02  0.24999626628E+00 0.  0.
    1000022    2    1    0    0    0 -0.55450962117E+01  0.34139808038E+02  0.51087924758E+02  0.62499995166E+02  0.99999377426E+01 0.  0.
    3000022    2    5    5    0    0  0.16078295745E+01  0.15237913706E+01  0.58812279049E+01  0.62895483534E+01  0.25004147412E+00 0.  0.
        -13    1    4    4    0    0  0.19836503252E+01 -0.40479327152E+01 -0.10690543601E+02  0.11602559001E+02  0.10500000000E+00 0.  1.
         13    1    4    4    0    0  0.12331072532E+01 -0.27313773149E+01 -0.72265055524E+01  0.78239621058E+01  0.10500000000E+00 0. -1.
    3000001    1    5    5    0    0 -0.71529257862E+01  0.32616016667E+02  0.45206696853E+02  0.56210446813E+02  0.10000000000E+01 0.  1.
        -13    1    6    6    0    0  0.49872198393E+00  0.41615831840E+00  0.16901310924E+01  0.18136922210E+01  0.10500000000E+00 0.  1.
         13    1    6    6    0    0  0.11091075906E+01  0.11076330522E+01  0.41910968125E+01  0.44758561323E+01  0.10500000000E+00 0.  1.
</event>
<event>
11    0  0.3462209E-009  0.9118800E+02  0.7816531E-02  0.1126479E+00
         25   -1    0    0    0    0  0.00000000000E+00  0.00000000000E+00  0.99999998245E-14  0.12500000000E+03  0.12500000000E+03 0.  0.
    3000001    1    3    3    0    0  0.54581936192E-01 -0.17393657441E+02 -0.17778325113E+02  0.24891989519E+02  0.10000000000E+01 0.  1.
    1000022    2    1    0    0    0  0.11341380072E+02 -0.39292856897E+02 -0.46191932524E+02  0.62499998447E+02  0.99999835248E+01 0.  0.
    3000022    2    3    3    0    0  0.11286798136E+02 -0.21899199456E+02 -0.28413607411E+02  0.37608008928E+02  0.25000097198E+00 0.  0.
    1000022    2    1    0    0    0 -0.11341380072E+02  0.39292856897E+02  0.46191932524E+02  0.62500001553E+02  0.10000002935E+02 0.  0.
    3000022    2    5    5    0    0 -0.68739216073E+01  0.83872375851E+01  0.11263115542E+02  0.15637033807E+02  0.25000397184E+00 0.  0.
        -13    1    4    4    0    0  0.45665987146E+01 -0.89744023041E+01 -0.11557188700E+02  0.15328840667E+02  0.10500000000E+00 0.  1.
         13    1    4    4    0    0  0.67201994209E+01 -0.12924797152E+02 -0.16856418711E+02  0.22279168261E+02  0.10500000000E+00 0. -1.
    3000001    1    5    5    0    0 -0.44674584644E+01  0.30905619312E+02  0.34928816982E+02  0.46862967746E+02  0.10000000000E+01 0. -1.
        -13    1    6    6    0    0 -0.37961368588E+01  0.47156619142E+01  0.63441164070E+01  0.87696613575E+01  0.10500000000E+00 0. -1.
         13    1    6    6    0    0 -0.30777847485E+01  0.36715756709E+01  0.49189991350E+01  0.68673724491E+01  0.10500000000E+00 0.  1.
</event>
<event>
11    0  0.3462209E-009  0.9118800E+02  0.7816531E-02  0.1126479E+00
         25   -1    0    0    0    0  0.00000000000E+00  0.00000000000E+00  0.99999998245E-14  0.12500000000E+03  0.12500000000E+03 0.  0.
    3000001    1    3    3    0    0 -0.39883581366E+02  0.20686403085E+02 -0.11498369431E+02  0.46387927684E+02  0.10000000000E+01 0.  1.
    1000022    2    1    0    0    0 -0.52291914785E+02  0.25438324468E+02 -0.20608187551E+02  0.62499997221E+02  0.99999777421E+01 0.  0.
    3000022    2    3    3    0    0 -0.12408333418E+02  0.47519213825E+01 -0.91098181200E+01  0.16112069537E+02  0.25000706364E+00 0.  0.
    1000022    2    1    0    0    0  0.52291914785E+02 -0.25438324468E+02  0.20608187551E+02  0.62500002779E+02  0.10000012485E+02 0.  0.
    3000022    2    5    5    0    0  0.39394768887E+02 -0.14343810693E+02  0.15653463761E+02  0.44752498841E+02  0.25000786968E+00 0.  0.
        -13    1    4    4    0    0 -0.94846506193E+01  0.36226653968E+01 -0.69447071241E+01  0.12301312287E+02  0.10500000000E+00 0.  1.
         13    1    4    4    0    0 -0.29236827992E+01  0.11292559857E+01 -0.21651109959E+01  0.38107572497E+01  0.10500000000E+00 0. -1.
    3000001    1    5    5    0    0  0.12897145898E+02 -0.11094513775E+02  0.49547237896E+01  0.17747503939E+02  0.10000000000E+01 0. -1.
        -13    1    6    6    0    0  0.26651010554E+02 -0.96530044885E+01  0.10562114159E+02  0.30249398998E+02  0.10500000000E+00 0.  1.
         13    1    6    6    0    0  0.12743758333E+02 -0.46908062041E+01  0.50913496016E+01  0.14503099843E+02  0.10500000000E+00 0. -1.
</event>
<event>
11    0  0.3462209E-009  0.9118800E+02  0.7816531E-02  0.1126479E+00
         25   -1    0    0    0    0  0.00000000000E+00  0.00000000000E+00  0.99999998245E-14  0.12500000000E+03  0.12500000000E+03 0.  0.
    3000001    1    3    3    0    0  0.10147688385E+02 -0.16202088487E+02  0.23353411628E+02  0.30197103927E+02  0.10000000000E+01 0. -1.
    1000022    2    1    0    0    0  0.25018036656E+02 -0.24458629233E+02  0.50814598526E+02  0.62499998688E+02  0.99999855294E+01 0.  0.
    3000022    2    3    3    0    0  0.14870348271E+02 -0.82565407458E+01  0.27461186898E+02  0.32302894761E+02  0.25000264944E+00 0.  0.
    1000022    2    1    0    0    0 -0.25018036656E+02  0.24458629233E+02 -0.50814598526E+02  0.62500001312E+02  0.10000001925E+02 0.  0.
    3000022    2    5    5    0    0 -0.14560975573E+02  0.81352687915E+01 -0.27481990711E+02  0.32148513538E+02  0.25000268032E+00 0.  0.
        -13    1    4    4    0    0  0.73923792571E+01 -0.41799494298E+01  0.13740728501E+02  0.16153572146E+02  0.10500000000E+00 0.  1.
         13    1    4    4    0    0  0.74779690136E+01 -0.40765913160E+01  0.13720458397E+02  0.16149322616E+02  0.10500000000E+00 0. -1.
    3000001    1    5    5    0    0 -0.10457061084E+02  0.16323360442E+02 -0.23332607815E+02  0.30351487774E+02  0.10000000000E+01 0.  1.
        -13    1    6    6    0    0 -0.10632327814E+02  0.59438343202E+01 -0.20137435067E+02  0.23535141327E+02  0.10500000000E+00 0. -1.
         13    1    6    6    0    0 -0.39286477585E+01  0.21914344713E+01 -0.73445556437E+01  0.86133722116E+01  0.10500000000E+00 0.  1.
</event>
<event>
11    0  0.3462209E-009  0.9118800E+02  0.7816531E-02  0.1126479E+00
         25   -1    0    0    0    0  0.00000000000E+00  0.00000000000E+00  0.99999998245E-14  0.12500000000E+03  0.12500000000E+03 0.  0.
    3000001    1    3    3    0    0  0.38402085595E+02 -0.37208322732E+02 -0.13505621422E+02  0.55159598154E+02  0.10000000000E+01 0. -1.
    1000022    2    1    0    0    0  0.45056858030E+02 -0.40187135140E+02 -0.12693438446E+02  0.62499997227E+02  0.99999993758E+01 0.  0.
    3000022    2    3    3    0    0  0.66547724352E+01 -0.29788124081E+01  0.81218297652E+00  0.73403990727E+01  0.24999566448E+00 0.  0.
    1000022    2    1    0    0    0 -0.45056858030E+02  0.40187135140E+02  0.12693438446E+02  0.62500002773E+02  0.10000034038E+02 0.  0.
    3000022    2    5    5    0    0 -0.25611852204E+02  0.24020261239E+02  0.12246499640E+02  0.37188427997E+02  0.25000043371E+00 0.  0.
        -13    1    4    4    0    0  0.47024166946E+01 -0.21360068010E+01  0.54201239114E+00  0.51942324030E+01  0.10500000000E+00 0. -1.
         13    1    4    4    0    0  0.19523557406E+01 -0.84280560706E+00  0.27017058538E+00  0.21461666697E+01  0.10500000000E+00 0.  1.
    3000001    1    5    5    0    0 -0.19445005826E+02  0.16166873901E+02  0.44693880595E+00  0.25311574776E+02  0.10000000000E+01 0. -1.
        -13    1    6    6    0    0 -0.15054496981E+02  0.14198311113E+02  0.72463377304E+01  0.21926020007E+02  0.10500000000E+00 0.  1.
         13    1    6    6    0    0 -0.10557355222E+02  0.98219501256E+01  0.50001619094E+01  0.15262407991E+02  0.10500000000E+00 0. -1.
</event>
<event>
11    0  0.3462209E-009  0.9118800E+02  0.7816531E-02  0.1126479E+00
         25   -1    0    0    0    0  0.00000000000E+00  0.00000000000E+00  0.99999998245E-14  0.12500000000E+03  0.12500000000E+03 0.  0.
    3000001    1    3    3    0    0  0.99611220089E+01  0.25785173995E+02 -0.44222624393E+02  0.52160709906E+02  0.10000000000E+01 0. -1.
    1000022    2    1    0    0    0  0.10445020846E+02  0.27013017159E+02 -0.54474291478E+02  0.62500000745E+02  0.10000005229E+02 0.  0.
    3000022    2    3    3    0    0  0.48389883698E+00  0.12278431639E+01 -0.10251667085E+02  0.10339290840E+02  0.25000024621E+00 0.  0.
    1000022    2    1    0    0    0 -0.10445020846E+02 -0.27013017159E+02  0.54474291478E+02  0.62499999255E+02  0.99999959137E+01 0.  0.
    3000022    2    5    5    0    0 -0.95782276823E+01 -0.22546446834E+02  0.51339727207E+02  0.56885101747E+02  0.25000122855E+00 0.  0.
        -13    1    4    4    0    0  0.18584756612E+00  0.64752283621E+00 -0.53663415195E+01  0.54094797758E+01  0.10500000000E+00 0.  1.
         13    1    4    4    0    0  0.29805127086E+00  0.58032032768E+00 -0.48853255655E+01  0.49298110637E+01  0.10500000000E+00 0. -1.
    3000001    1    5    5    0    0 -0.86679316359E+00 -0.44665703254E+01  0.31345642708E+01  0.56148975082E+01  0.10000000000E+01 0.  1.
        -13    1    6    6    0    0 -0.43052441546E+01 -0.10002673420E+02  0.22920302904E+02  0.25375971174E+02  0.10500000000E+00 0.  1.
         13    1    6    6    0    0 -0.52729835277E+01 -0.12543773414E+02  0.28419424303E+02  0.31509130573E+02  0.10500000000E+00 0. -1.
</event>
<event>
11    0  0.3462209E-009  0.9118800E+02  0.7816531E-02  0.1126479E+00
         25   -1    0    0    0    0  0.00000000000E+00  0.00000000000E+00  0.99999998245E-14  0.12500000000E+03  0.12500000000E+03 0.  0.
    3000001    1    3    3    0    0  0.13702637819E+02 -0.14584304067E+02 -0.25609198171E+01  0.20199567288E+02  0.10000000000E+01 0.  1.
    1000022    2    1    0    0    0  0.48601502748E+02 -0.37908209454E+02  0.26667763651E+01  0.62500000464E+02  0.99999974265E+01 0.  0.
    3000022    2    3    3    0    0  0.34898864929E+02 -0.23323905387E+02  0.52276961822E+01  0.42300433176E+02  0.25000742131E+00 0.  0.
    1000022    2    1    0    0    0 -0.48601502748E+02  0.37908209454E+02 -0.26667763651E+01  0.62499999536E+02  0.99999916214E+01 0.  0.
    3000022    2    5    5    0    0 -0.35532601588E+02  0.25500374353E+02  0.22474280412E+01  0.43794386625E+02  0.24999861634E+00 0.  0.
        -13    1    4    4    0    0  0.94342583788E+01 -0.63210532282E+01  0.14483169770E+01  0.11448562885E+02  0.10500000000E+00 0. -1.
         13    1    4    4    0    0  0.25464606550E+02 -0.17002852158E+02  0.37793792053E+01  0.30851870291E+02  0.10500000000E+00 0.  1.
    3000001    1    5    5    0    0 -0.13068901160E+02  0.12407835101E+02 -0.49142044063E+01  0.18705612911E+02  0.10000000000E+01 0. -1.
        -13    1    6    6    0    0 -0.13148346762E+02  0.94482664672E+01  0.77320336626E+00  0.16209800439E+02  0.10500000000E+00 0.  1.
         13    1    6    6    0    0 -0.22384254825E+02  0.16052107886E+02  0.14742246749E+01  0.27584586186E+02  0.10500000000E+00 0. -1.
</event>
<event>
11    0  0.3462209E-009  0.9118800E+02  0.7816531E-02  0.1126479E+00
         25   -1    0    0    0    0  0.00000000000E+00  0.00000000000E+00  0.99999998245E-14  0.12500000000E+03  0.12500000000E+03 0.  0.
    3000001    1    3    3    0    0 -0.40109531942E+02  0.22540125397E+02  0.36812640373E+02  0.58932183879E+02  0.10000000000E+01 0. -1.
    1000022    2    1    0    0    0 -0.41644205673E+02  0.25652617855E+02  0.37602569827E+02  0.62500001018E+02  0.10000010038E+02 0.  0.
    3000022    2    3    3    0    0 -0.15346737311E+01  0.31124924579E+01  0.78992945375E+00  0.35678171393E+01  0.24999567243E+00 0.  0.
    1000022    2    1    0    0    0  0.41644205673E+02 -0.25652617855E+02 -0.37602569827E+02  0.62499998982E+02  0.99999973131E+01 0.  0.
    3000022    2    5    5    0    0  0.22767402890E+02 -0.12318407337E+02 -0.13913824149E+02  0.29389705640E+02  0.25000292560E+00 0.  0.
        -13    1    4    4    0    0 -0.10492525444E+01  0.21485333246E+01  0.49435745321E+00  0.24438781967E+01  0.10500000000E+00 0. -1.
         13    1    4    4    0    0 -0.48542118672E+00  0.96395913325E+00  0.29557200053E+00  0.11239389426E+01  0.10500000000E+00 0.  1.
    3000001    1    5    5    0    0  0.18876802783E+02 -0.13334210517E+02 -0.23688745678E+02  0.33110293342E+02  0.10000000000E+01 0. -1.
        -13    1    6    6    0    0  0.75076499665E+01 -0.40024997462E+01 -0.45677362799E+01  0.96571244146E+01  0.10500000000E+00 0. -1.
         13    1    6    6    0    0  0.15259752923E+02 -0.83159075912E+01 -0.93460878691E+01  0.19732581225E+02  0.10500000000E+00 0.  1.
</event>
<event>
11    0  0.3462209E-009  0.9118800E+02  0.7816531E-02  0.1126479E+00
         25   -1    0    0    0    0  0.00000000000E+00  0.00000000000E+00  0.99999998245E-14  0.12500000000E+03  0.12500000000E+03 0.  0.
    3000001    1    3    3    0    0  0.36713988783E+02 -0.55172512534E+01  0.40000255931E+01  0.37354480835E+02  0.10000000000E+01 0.  1.
    1000022    2    1    0    0    0  0.59807779077E+02 -0.59186006416E+01  0.13937350094E+02  0.62500000242E+02  0.10000001549E+02 0.  0.
    3000022    2    3    3    0    0  0.23093790294E+02 -0.40134938822E+00  0.99373245010E+01  0.25145519407E+02  0.24999304643E+00 0.  0.
    1000022    2    1    0    0    0 -0.59807779077E+02  0.59186006416E+01 -0.13937350094E+02  0.62499999758E+02  0.99999985237E+01 0.  0.
    3000022    2    5    5    0    0 -0.38053371050E+02  0.47042686597E+01 -0.40655396425E+01  0.38558790258E+02  0.25000330533E+00 0.  0.
        -13    1    4    4    0    0  0.10072377723E+02 -0.11805361387E+00  0.42977727054E+01  0.10952105043E+02  0.10500000000E+00 0.  1.
         13    1    4    4    0    0  0.13021412571E+02 -0.28329577435E+00  0.56395517956E+01  0.14193414363E+02  0.10500000000E+00 0. -1.
    3000001    1    5    5    0    0 -0.21754408027E+02  0.12143319820E+01 -0.98718104516E+01  0.23941209500E+02  0.10000000000E+01 0.  1.
        -13    1    6    6    0    0 -0.13104011344E+02  0.15941056187E+01 -0.14492317219E+01  0.13280345764E+02  0.10500000000E+00 0.  1.
         13    1    6    6    0    0 -0.24949359706E+02  0.31101630410E+01 -0.26163079206E+01  0.25278444494E+02  0.10500000000E+00 0. -1.
</event>
<event>
11    0  0.3462209E-009  0.9118800E+02  0.7816531E-02  0.1126479E+00
         25   -1    0    0    0    0  0.00000000000E+00  0.00000000000E+00  0.99999998245E-14  0.12500000000E+03  0.12500000000E+03 0.  0.
    3000001    1    3    3    0    0  0.59138834155E+01 -0.26718449895E+01  0.24247748465E+01  0.69994503896E+01  0.10000000000E+01 0. -1.
    1000022    2    1    0    0    0  0.61112415180E+02 -0.21538734775E+01  0.81782965015E+01  0.62500006430E+02  0.99999904995E+01 0.  0.
    3000022    2    3    3    0    0  0.55198531765E+02  0.51797151204E+00  0.57535216551E+01  0.55500556040E+02  0.25001182823E+00 0.  0.
    1000022    2    1    0    0    0 -0.61112415180E+02  0.21538734775E+01 -0.81782965015E+01  0.62499993570E+02  0.99999101230E+01 0.  0.
    3000022    2    5    5    0    0 -0.34645914962E+02 -0.33946469414E+01 -0.62663132061E+01  0.35372196152E+02  0.25005598622E+00 0.  0.
        -13    1    4    4    0    0  0.23870826298E+02  0.28934232075E+00  0.24950985366E+01  0.24002845849E+02  0.10500000000E+00 0.  1.
         13    1    4    4    0    0  0.31327705466E+02  0.22862919129E+00  0.32584231185E+01  0.31497710192E+02  0.10500000000E+00 0. -1.
    3000001    1    5    5    0    0 -0.26466500218E+02  0.55485204188E+01 -0.19119832954E+01  0.27127797418E+02  0.10000000000E+01 0.  1.
        -13    1    6    6    0    0 -0.14031374825E+02 -0.13355236164E+01 -0.24862271081E+01  0.14312772375E+02  0.10500000000E+00 0. -1.
         13    1    6    6    0    0 -0.20614540137E+02 -0.20591233249E+01 -0.37800860980E+01  0.21059423777E+02  0.10500000000E+00 0.  1.
</event>
<event>
11    0  0.3462209E-009  0.9118800E+02  0.7816531E-02  0.1126479E+00
         25   -1    0    0    0    0  0.00000000000E+00  0.00000000000E+00  0.99999998245E-14  0.12500000000E+03  0.12500000000E+03 0.  0.
    3000001    1    3    3    0    0 -0.19552112541E+02 -0.17078542993E+02  0.19907203760E+02  0.32730085504E+02  0.10000000000E+01 0.  1.
    1000022    2    1    0    0    0 -0.29520015071E+02 -0.32548345052E+02  0.43306166357E+02  0.62500000325E+02  0.99999970380E+01 0.  0.
    3000022    2    3    3    0    0 -0.99679025302E+01 -0.15469802058E+02  0.23398962597E+02  0.29769914821E+02  0.25004253499E+00 0.  0.
    1000022    2    1    0    0    0  0.29520015071E+02  0.32548345052E+02 -0.43306166357E+02  0.62499999675E+02  0.99999929709E+01 0.  0.
    3000022    2    5    5    0    0  0.13264279117E+02  0.11496415200E+02 -0.23450876793E+02  0.29293596293E+02  0.24999692634E+00 0.  0.
        -13    1    4    4    0    0 -0.34357572231E+01 -0.52314186541E+01  0.79669346670E+01  0.10131892312E+02  0.10500000000E+00 0.  1.
         13    1    4    4    0    0 -0.65321453072E+01 -0.10238383404E+02  0.15432027930E+02  0.19638022509E+02  0.10500000000E+00 0. -1.
    3000001    1    5    5    0    0  0.16255735954E+02  0.21051929852E+02 -0.19855289564E+02  0.33206403382E+02  0.10000000000E+01 0. -1.
        -13    1    6    6    0    0  0.58559513178E+01  0.50050395570E+01 -0.10226477866E+02  0.12803689365E+02  0.10500000000E+00 0.  1.
         13    1    6    6    0    0  0.74083277994E+01  0.64913756426E+01 -0.13224398927E+02  0.16489906928E+02  0.10500000000E+00 0. -1.
</event>
<event>
11    0  0.3462209E-009  0.9118800E+02  0.7816531E-02  0.1126479E+00
         25   -1    0    0    0    0  0.00000000000E+00  0.00000000000E+00  0.99999998245E-14  0.12500000000E+03  0.12500000000E+03 0.  0.
    3000001    1    3    3    0    0  0.41798423077E+02  0.31989952348E+02 -0.91925455610E+01  0.53441258564E+02  0.10000000000E+01 0. -1.
    1000022    2    1    0    0    0  0.50635914210E+02  0.33809774283E+02 -0.99575844791E+01  0.62499999493E+02  0.99999901499E+01 0.  0.
    3000022    2    3    3    0    0  0.88374911333E+01  0.18198219341E+01 -0.76503891811E+00  0.90587409291E+01  0.25000254549E+00 0.  0.
    1000022    2    1    0    0    0 -0.50635914210E+02 -0.33809774283E+02  0.99575844791E+01  0.62500000507E+02  0.99999964886E+01 0.  0.
    3000022    2    5    5    0    0 -0.12835411552E+02 -0.36880378934E+01  0.21743420723E+01  0.13532910879E+02  0.25000037639E+00 0.  0.
        -13    1    4    4    0    0  0.57395022216E+01  0.11243144015E+01 -0.48867818107E+00  0.58699063016E+01  0.10500000000E+00 0.  1.
         13    1    4    4    0    0  0.30979889117E+01  0.69550753260E+00 -0.27636073704E+00  0.31888346275E+01  0.10500000000E+00 0. -1.
    3000001    1    5    5    0    0 -0.37800502658E+02 -0.30121736389E+02  0.77832424068E+01  0.48967089629E+02  0.10000000000E+01 0.  1.
        -13    1    6    6    0    0 -0.31367342128E+01 -0.92337477690E+00  0.54170733134E+00  0.33160510149E+01  0.10500000000E+00 0.  1.
         13    1    6    6    0    0 -0.96986773391E+01 -0.27646631164E+01  0.16326347410E+01  0.10216859864E+02  0.10500000000E+00 0. -1.
</event>
<event>
11    0  0.3462209E-009  0.9118800E+02  0.7816531E-02  0.1126479E+00
         25   -1    0    0    0    0  0.00000000000E+00  0.00000000000E+00  0.99999998245E-14  0.12500000000E+03  0.12500000000E+03 0.  0.
    3000001    1    3    3    0    0 -0.20769241408E-02 -0.18103575350E+02  0.15909300537E+02  0.24121469448E+02  0.10000000000E+01 0.  1.
    1000022    2    1    0    0    0 -0.25440772390E+01 -0.37481718388E+02  0.48937696813E+02  0.62500000521E+02  0.10000017674E+02 0.  0.
    3000022    2    3    3    0    0 -0.25420003149E+01 -0.19378143039E+02  0.33028396275E+02  0.38378531073E+02  0.24998713912E+00 0.  0.
    1000022    2    1    0    0    0  0.25440772390E+01  0.37481718388E+02 -0.48937696813E+02  0.62499999479E+02  0.10000011159E+02 0.  0.
    3000022    2    5    5    0    0 -0.43695730716E+00  0.30452291234E+02 -0.43377139116E+02  0.53001619881E+02  0.25007808070E+00 0.  0.
        -13    1    4    4    0    0 -0.10059993473E+01 -0.72241534484E+01  0.12295596951E+02  0.14296613485E+02  0.10500000000E+00 0. -1.
         13    1    4    4    0    0 -0.15360009677E+01 -0.12153989590E+02  0.20732799324E+02  0.24081917588E+02  0.10500000000E+00 0.  1.
    3000001    1    5    5    0    0  0.29810345462E+01  0.70294271540E+01 -0.55605576967E+01  0.94983795974E+01  0.10000000000E+01 0. -1.
        -13    1    6    6    0    0 -0.20518065829E+00  0.10667292741E+02 -0.15234953379E+02  0.18599679110E+02  0.10500000000E+00 0.  1.
         13    1    6    6    0    0 -0.23177664886E+00  0.19784998493E+02 -0.28142185737E+02  0.34401940771E+02  0.10500000000E+00 0. -1.
</event>
<event>
11    0  0.3462209E-009  0.9118800E+02  0.7816531E-02  0.1126479E+00
         25   -1    0    0    0    0  0.00000000000E+00  0.00000000000E+00  0.99999998245E-14  0.12500000000E+03  0.12500000000E+03 0.  0.
    3000001    1    3    3    0    0 -0.14297267105E+02  0.48473949781E+01 -0.39506579923E+02  0.42304597173E+02  0.10000000000E+01 0. -1.
    1000022    2    1    0    0    0 -0.14383021015E+02  0.76259711609E+01 -0.59508178112E+02  0.62499999358E+02  0.99999963933E+01 0.  0.
    3000022    2    3    3    0    0 -0.85753910204E-01  0.27785761828E+01 -0.20001598189E+02  0.20195402185E+02  0.24999993641E+00 0.  0.
    1000022    2    1    0    0    0  0.14383021015E+02 -0.76259711609E+01  0.59508178112E+02  0.62500000642E+02  0.10000004417E+02 0.  0.
    3000022    2    5    5    0    0  0.61474664743E+01 -0.79024270079E+01  0.41170661458E+02  0.42371282266E+02  0.24999854894E+00 0.  0.
        -13    1    4    4    0    0 -0.10636834900E+00  0.12915058981E+01 -0.93920959921E+01  0.94816556485E+01  0.10500000000E+00 0.  1.
         13    1    4    4    0    0  0.20614438799E-01  0.14870702847E+01 -0.10609502197E+02  0.10713746537E+02  0.10500000000E+00 0. -1.
    3000001    1    5    5    0    0  0.82355545406E+01  0.27645584699E+00  0.18337516654E+02  0.20128718376E+02  0.10000000000E+01 0.  1.
        -13    1    6    6    0    0  0.29709243310E+01 -0.39182864021E+01  0.20093422729E+02  0.20686614553E+02  0.10500000000E+00 0. -1.
         13    1    6    6    0    0  0.31765421433E+01 -0.39841406058E+01  0.21077238729E+02  0.21684667713E+02  0.10500000000E+00 0.  1.
</event>
<event>
11    0  0.3462209E-009  0.9118800E+02  0.7816531E-02  0.1126479E+00
         25   -1    0    0    0    0  0.00000000000E+00  0.00000000000E+00  0.99999998245E-14  0.12500000000E+03  0.12500000000E+03 0.  0.
    3000001    1    3    3    0    0  0.23159297024E+02  0.16191485997E+02 -0.78814834266E+01  0.29353620534E+02  0.10000000000E+01 0.  1.
    1000022    2    1    0    0    0  0.51288055611E+02  0.33669122416E+02 -0.64941911937E+01  0.62499991837E+02  0.10000000389E+02 0.  0.
    3000022    2    3    3    0    0  0.28128758587E+02  0.17477636419E+02  0.13872922329E+01  0.33146371303E+02  0.25003281242E+00 0.  0.
    1000022    2    1    0    0    0 -0.51288055611E+02 -0.33669122416E+02  0.64941911937E+01  0.62500008163E+02  0.10000102422E+02 0.  0.
    3000022    2    5    5    0    0 -0.33128341819E+02 -0.24378311375E+02  0.84248522048E+01  0.41986065910E+02  0.24999748532E+00 0.  0.
        -13    1    4    4    0    0  0.17401603628E+02  0.10856620163E+02  0.81118504826E+00  0.20526837467E+02  0.10500000000E+00 0. -1.
         13    1    4    4    0    0  0.10727154958E+02  0.66210162567E+01  0.57610718467E+00  0.12619533837E+02  0.10500000000E+00 0.  1.
    3000001    1    5    5    0    0 -0.18159713792E+02 -0.92908110408E+01 -0.19306610112E+01  0.20513942253E+02  0.10000000000E+01 0.  1.
        -13    1    6    6    0    0 -0.11712725399E+02 -0.86460695777E+01  0.29280152909E+01  0.14850143231E+02  0.10500000000E+00 0. -1.
         13    1    6    6    0    0 -0.21415616420E+02 -0.15732241798E+02  0.54968369139E+01  0.27135922680E+02  0.10500000000E+00 0.  1.
</event>
<event>
11    0  0.3462209E-009  0.9118800E+02  0.7816531E-02  0.1126479E+00
         25   -1    0    0    0    0  0.00000000000E+00  0.00000000000E+00  0.99999998245E-14  0.12500000000E+03  0.12500000000E+03 0.  0.
    3000001    1    3    3    0    0  0.11298909354E+02  0.81027948546E+01 -0.75857830784E+01  0.15870247067E+02  0.10000000000E+01 0.  1.
    1000022    2    1    0    0    0  0.32617931466E+02  0.31623880127E+02 -0.41740274027E+02  0.62499999804E+02  0.10000012614E+02 0.  0.
    3000022    2    3    3    0    0  0.21319022112E+02  0.23521085272E+02 -0.34154490949E+02  0.46629752738E+02  0.24986436834E+00 0.  0.
    1000022    2    1    0    0    0 -0.32617931466E+02 -0.31623880127E+02  0.41740274027E+02  0.62500000196E+02  0.10000015060E+02 0.  0.
    3000022    2    5    5    0    0 -0.70827479709E+01 -0.19424051061E+01  0.68768436929E+01  0.10064379381E+02  0.24999346843E+00 0.  0.
        -13    1    4    4    0    0  0.10889400487E+02  0.11973066331E+02 -0.17503470983E+02  0.23839376707E+02  0.10500000000E+00 0. -1.
         13    1    4    4    0    0  0.10429621626E+02  0.11548018941E+02 -0.16651019966E+02  0.22790376031E+02  0.10500000000E+00 0.  1.
    3000001    1    5    5    0    0 -0.25535183495E+02 -0.29681475021E+02  0.34863430334E+02  0.52435620815E+02  0.10000000000E+01 0.  1.
        -13    1    6    6    0    0 -0.50974903498E+01 -0.14127358746E+01  0.50018669227E+01  0.72807917310E+01  0.10500000000E+00 0. -1.
         13    1    6    6    0    0 -0.19852576211E+01 -0.52966923148E+00  0.18749767702E+01  0.27835876501E+01  0.10500000000E+00 0.  1.
</event>
<event>
11    0  0.3462209E-009  0.9118800E+02  0.7816531E-02  0.1126479E+00
         25   -1    0    0    0    0  0.00000000000E+00  0.00000000000E+00  0.99999998245E-14  0.12500000000E+03  0.12500000000E+03 0.  0.
    3000001    1    3    3    0    0 -0.45799797299E+02 -0.27790097332E+02 -0.67624718861E+01  0.54005943825E+02  0.10000000000E+01 0. -1.
    1000022    2    1    0    0    0 -0.53923278851E+02 -0.29550246762E+02 -0.50311968884E+01  0.62499994128E+02  0.99999619053E+01 0.  0.
    3000022    2    3    3    0    0 -0.81234815517E+01 -0.17601494295E+01  0.17312749976E+01  0.84940503029E+01  0.24999779314E+00 0.  0.
    1000022    2    1    0    0    0  0.53923278851E+02  0.29550246762E+02  0.50311968884E+01  0.62500005872E+02  0.10000035308E+02 0.  0.
    3000022    2    5    5    0    0  0.36720941944E+02  0.16645076963E+02 -0.30929071904E+00  0.40319279769E+02  0.24999191962E+00 0.  0.
        -13    1    4    4    0    0 -0.26914113767E+01 -0.52960982595E+00  0.57907610959E+00  0.28054475413E+01  0.10500000000E+00 0. -1.
         13    1    4    4    0    0 -0.54320701750E+01 -0.12305396036E+01  0.11521988880E+01  0.56886027616E+01  0.10500000000E+00 0.  1.
    3000001    1    5    5    0    0  0.17202336907E+02  0.12905169798E+02  0.53404876075E+01  0.22180726104E+02  0.10000000000E+01 0.  1.
        -13    1    6    6    0    0  0.12988790967E+02  0.59410929595E+01 -0.13958699905E+00  0.14284109558E+02  0.10500000000E+00 0.  1.
         13    1    6    6    0    0  0.23732150977E+02  0.10703984004E+02 -0.16970371999E+00  0.26035170211E+02  0.10500000000E+00 0. -1.
</event>
<event>
11    0  0.3462209E-009  0.9118800E+02  0.7816531E-02  0.1126479E+00
         25   -1    0    0    0    0  0.00000000000E+00  0.00000000000E+00  0.99999998245E-14  0.12500000000E+03  0.12500000000E+03 0.  0.
    3000001    1    3    3    0    0  0.31655985283E+01  0.75852407006E+00 -0.16250488520E+01  0.37732156814E+01  0.10000000000E+01 0. -1.
    1000022    2    1    0    0    0  0.60382360005E+02 -0.12455919009E+02 -0.22519201957E+01  0.62499996501E+02  0.99999549939E+01 0.  0.
    3000022    2    3    3    0    0  0.57216761477E+02 -0.13214443079E+02 -0.62687134370E+00  0.58726780819E+02  0.25003586109E+00 0.  0.
    1000022    2    1    0    0    0 -0.60382360005E+02  0.12455919009E+02  0.22519201957E+01  0.62500003499E+02  0.99999987373E+01 0.  0.
    3000022    2    5    5    0    0 -0.27925106863E+02  0.13423142640E+01  0.33645120063E+01  0.28160181827E+02  0.24999721438E+00 0.  0.
        -13    1    4    4    0    0  0.34861958857E+02 -0.80249019271E+01 -0.43834100370E+00  0.35776506175E+02  0.10500000000E+00 0. -1.
         13    1    4    4    0    0  0.22354802620E+02 -0.51895411521E+01 -0.18853034000E+00  0.22950274644E+02  0.10500000000E+00 0.  1.
    3000001    1    5    5    0    0 -0.32457253142E+02  0.11113604745E+02 -0.11125918106E+01  0.34339821672E+02  0.10000000000E+01 0. -1.
        -13    1    6    6    0    0 -0.20283637646E+02  0.10123990860E+01  0.24446408877E+01  0.20455762077E+02  0.10500000000E+00 0.  1.
         13    1    6    6    0    0 -0.76414692168E+01  0.32991517800E+00  0.91987111866E+00  0.77044197504E+01  0.10500000000E+00 0. -1.
</event>
<event>
11    0  0.3462209E-009  0.9118800E+02  0.7816531E-02  0.1126479E+00
         25   -1    0    0    0    0  0.00000000000E+00  0.00000000000E+00  0.99999998245E-14  0.12500000000E+03  0.12500000000E+03 0.  0.
    3000001    1    3    3    0    0  0.75523731575E+01  0.49803940455E+00 -0.11047363626E+02  0.13428723940E+02  0.10000000000E+01 0.  1.
    1000022    2    1    0    0    0  0.45164388651E+02 -0.94450606992E+01 -0.40953861752E+02  0.62499999526E+02  0.99999987267E+01 0.  0.
    3000022    2    3    3    0    0  0.37612015493E+02 -0.99431001038E+01 -0.29906498125E+02  0.49071275586E+02  0.25001674049E+00 0.  0.
    1000022    2    1    0    0    0 -0.45164388651E+02  0.94450606992E+01  0.40953861752E+02  0.62500000474E+02  0.10000004656E+02 0.  0.
    3000022    2    5    5    0    0 -0.17032722493E+02  0.21749742725E+01  0.21509461372E+02  0.27523872850E+02  0.24999908431E+00 0.  0.
        -13    1    4    4    0    0  0.15339523803E+02 -0.39896541884E+01 -0.12193666052E+02  0.19997871083E+02  0.10500000000E+00 0. -1.
         13    1    4    4    0    0  0.22272491690E+02 -0.59534459154E+01 -0.17712832073E+02  0.29073404503E+02  0.10500000000E+00 0.  1.
    3000001    1    5    5    0    0 -0.28131666158E+02  0.72700864267E+01  0.19444400379E+02  0.34976127624E+02  0.10000000000E+01 0.  1.
        -13    1    6    6    0    0 -0.10177592956E+02  0.13605002009E+01  0.12891897174E+02  0.16481698848E+02  0.10500000000E+00 0.  1.
         13    1    6    6    0    0 -0.68551295372E+01  0.81447407159E+00  0.86175641979E+01  0.11042174002E+02  0.10500000000E+00 0. -1.
</event>
<event>
11    0  0.3462209E-009  0.9118800E+02  0.7816531E-02  0.1126479E+00
         25   -1    0    0    0    0  0.00000000000E+00  0.00000000000E+00  0.99999998245E-14  0.12500000000E+03  0.12500000000E+03 0.  0.
    3000001    1    3    3    0    0 -0.37386862641E+02 -0.17201698371E+01 -0.15986151401E+02  0.40709870045E+02  0.10000000000E+01 0.  1.
    1000022    2    1    0    0    0 -0.54099496697E+02 -0.76171324072E+01 -0.28661363030E+02  0.62500000779E+02  0.10000005887E+02 0.  0.
    3000022    2    3    3    0    0 -0.16712634056E+02 -0.58969625701E+01 -0.12675211628E+02  0.21790130735E+02  0.25000596593E+00 0.  0.
    1000022    2    1    0    0    0  0.54099496697E+02  0.76171324072E+01  0.28661363030E+02  0.62499999221E+02  0.99999961446E+01 0.  0.
    3000022    2    5    5    0    0  0.27401584371E+02 -0.60192372500E-01  0.10776301960E+02  0.29445570655E+02  0.24999621538E+00 0.  0.
        -13    1    4    4    0    0 -0.65891173213E+01 -0.23751882915E+01 -0.50597671995E+01  0.86411952650E+01  0.10500000000E+00 0.  1.
         13    1    4    4    0    0 -0.10123516734E+02 -0.35217742786E+01 -0.76154444289E+01  0.13148935470E+02  0.10500000000E+00 0. -1.
    3000001    1    5    5    0    0  0.26697912326E+02  0.76773247797E+01  0.17885061069E+02  0.33054428566E+02  0.10000000000E+01 0.  1.
        -13    1    6    6    0    0  0.97172663938E+01 -0.50472195053E-01  0.38746686939E+01  0.10461926022E+02  0.10500000000E+00 0. -1.
         13    1    6    6    0    0  0.17684317977E+02 -0.97201774468E-02  0.69016332665E+01  0.18983644633E+02  0.10500000000E+00 0.  1.
</event>
<event>
11    0  0.3462209E-009  0.9118800E+02  0.7816531E-02  0.1126479E+00
         25   -1    0    0    0    0  0.00000000000E+00  0.00000000000E+00  0.99999998245E-14  0.12500000000E+03  0.12500000000E+03 0.  0.
    3000001    1    3    3    0    0 -0.28774359985E+02  0.44112804202E+01 -0.45836694011E+00  0.29131311123E+02  0.10000000000E+01 0.  1.
    1000022    2    1    0    0    0 -0.61411011368E+02  0.10583101804E+00 -0.59098713328E+01  0.62499998667E+02  0.99999868348E+01 0.  0.
    3000022    2    3    3    0    0 -0.32636651383E+02 -0.43054494021E+01 -0.54515043927E+01  0.33368687543E+02  0.25000036750E+00 0.  0.
    1000022    2    1    0    0    0  0.61411011368E+02 -0.10583101804E+00  0.59098713328E+01  0.62500001333E+02  0.10000003500E+02 0.  0.
    3000022    2    5    5    0    0  0.44553872773E+02 -0.82313300137E+00  0.86023518679E+01  0.45384888269E+02  0.24999709617E+00 0.  0.
        -13    1    4    4    0    0 -0.14136767487E+02 -0.18132417618E+01 -0.23185491474E+01  0.14440316333E+02  0.10500000000E+00 0.  1.
         13    1    4    4    0    0 -0.18499883896E+02 -0.24922076403E+01 -0.31329552452E+01  0.18928371210E+02  0.10500000000E+00 0. -1.
    3000001    1    5    5    0    0  0.16857138595E+02  0.71730198333E+00 -0.26924805351E+01  0.17115113064E+02  0.10000000000E+01 0. -1.
        -13    1    6    6    0    0  0.31735351535E+02 -0.62806590057E+00  0.61210576005E+01  0.32326542886E+02  0.10500000000E+00 0.  1.
         13    1    6    6    0    0  0.12818521238E+02 -0.19506710080E+00  0.24812942673E+01  0.13058345383E+02  0.10500000000E+00 0. -1.
</event>
<event>
11    0  0.3462209E-009  0.9118800E+02  0.7816531E-02  0.1126479E+00
         25   -1    0    0    0    0  0.00000000000E+00  0.00000000000E+00  0.99999998245E-14  0.12500000000E+03  0.12500000000E+03 0.  0.
    3000001    1    3    3    0    0  0.49982269196E+02  0.17897115133E+02 -0.17246778346E+02  0.55829968004E+02  0.10000000000E+01 0. -1.
    1000022    2    1    0    0    0  0.55802725513E+02  0.16755038974E+02 -0.20287300075E+02  0.62499999512E+02  0.99999944501E+01 0.  0.
    3000022    2    3    3    0    0  0.58204563174E+01 -0.11420761589E+01 -0.30405217286E+01  0.66700315081E+01  0.24999648242E+00 0.  0.
    1000022    2    1    0    0    0 -0.55802725513E+02 -0.16755038974E+02  0.20287300075E+02  0.62500000488E+02  0.10000000546E+02 0.  0.
    3000022    2    5    5    0    0 -0.79436684136E+00 -0.16629070241E+01 -0.22761407669E+00  0.18736557752E+01  0.24999869299E+00 0.  0.
        -13    1    4    4    0    0  0.30396700805E+01 -0.64348175097E+00 -0.15369746670E+01  0.34679935250E+01  0.10500000000E+00 0.  1.
         13    1    4    4    0    0  0.27807862369E+01 -0.49859440792E+00 -0.15035470616E+01  0.32020379831E+01  0.10500000000E+00 0. -1.
    3000001    1    5    5    0    0 -0.55008358672E+02 -0.15092131950E+02  0.20514914152E+02  0.60626344712E+02  0.10000000000E+01 0. -1.
        -13    1    6    6    0    0 -0.42825882108E+00 -0.83017047736E+00 -0.17722787926E+00  0.95656853413E+00  0.10500000000E+00 0.  1.
         13    1    6    6    0    0 -0.36610802028E+00 -0.83273654675E+00 -0.50386197434E-01  0.91708724105E+00  0.10500000000E+00 0. -1.
</event>
<event>
11    0  0.3462209E-009  0.9118800E+02  0.7816531E-02  0.1126479E+00
         25   -1    0    0    0    0  0.00000000000E+00  0.00000000000E+00  0.99999998245E-14  0.12500000000E+03  0.12500000000E+03 0.  0.
    3000001    1    3    3    0    0 -0.38232982584E+02  0.20488283672E+01  0.43480585550E+02  0.57944110785E+02  0.10000000000E+01 0.  1.
    1000022    2    1    0    0    0 -0.41844310485E+02  0.42663178411E+01  0.45134269063E+02  0.62500000204E+02  0.99999996893E+01 0.  0.
    3000022    2    3    3    0    0 -0.36113279016E+01  0.22174894739E+01  0.16536835134E+01  0.45558894194E+01  0.25002091856E+00 0.  0.
    1000022    2    1    0    0    0  0.41844310485E+02 -0.42663178411E+01 -0.45134269063E+02  0.62499999796E+02  0.99999971335E+01 0.  0.
    3000022    2    5    5    0    0  0.27059084484E+02  0.47074690173E+00 -0.33537198782E+02  0.43095496983E+02  0.25000465975E+00 0.  0.
        -13    1    4    4    0    0 -0.24361951402E+01  0.15496089880E+01  0.11024047866E+01  0.30923544574E+01  0.10500000000E+00 0. -1.
         13    1    4    4    0    0 -0.11751327614E+01  0.66788048597E+00  0.55127872679E+00  0.14635349620E+01  0.10500000000E+00 0.  1.
    3000001    1    5    5    0    0  0.14785226002E+02 -0.47370647428E+01 -0.11597070281E+02  0.19404502813E+02  0.10000000000E+01 0.  1.
        -13    1    6    6    0    0  0.10138478438E+02  0.11662817645E+00 -0.12553577955E+02  0.16137090557E+02  0.10500000000E+00 0.  1.
         13    1    6    6    0    0  0.16920606046E+02  0.35411872528E+00 -0.20983620827E+02  0.26958406426E+02  0.10500000000E+00 0. -1.
</event>
<event>
11    0  0.3462209E-009  0.9118800E+02  0.7816531E-02  0.1126479E+00
         25   -1    0    0    0    0  0.00000000000E+00  0.00000000000E+00  0.99999998245E-14  0.12500000000E+03  0.12500000000E+03 0.  0.
    3000001    1    3    3    0    0 -0.66444152811E+01  0.53328376658E+01 -0.31923582024E+01  0.91530630332E+01  0.10000000000E+01 0.  1.
    1000022    2    1    0    0    0 -0.55608243113E+02  0.26507005999E+02 -0.33692748700E+01  0.62499999625E+02  0.99999935388E+01 0.  0.
    3000022    2    3    3    0    0 -0.48963827832E+02  0.21174168333E+02 -0.17691666766E+00  0.53346936591E+02  0.25000724444E+00 0.  0.
    1000022    2    1    0    0    0  0.55608243113E+02 -0.26507005999E+02  0.33692748700E+01  0.62500000375E+02  0.99999982321E+01 0.  0.
    3000022    2    5    5    0    0  0.10206568983E+02 -0.65811796004E+01 -0.29696071614E+01  0.12504680625E+02  0.24999103995E+00 0.  0.
        -13    1    4    4    0    0 -0.23596242798E+02  0.10212953776E+02 -0.15245863141E+00  0.25712280483E+02  0.10500000000E+00 0. -1.
         13    1    4    4    0    0 -0.25367585034E+02  0.10961214558E+02 -0.24458036257E-01  0.27634656109E+02  0.10500000000E+00 0.  1.
    3000001    1    5    5    0    0  0.45401674130E+02 -0.19925826399E+02  0.63388820315E+01  0.49995319750E+02  0.10000000000E+01 0. -1.
        -13    1    6    6    0    0  0.33299309045E+01 -0.22026815355E+01 -0.10013652852E+01  0.41175239174E+01  0.10500000000E+00 0. -1.
         13    1    6    6    0    0  0.68766380782E+01 -0.43784980649E+01 -0.19682418762E+01  0.83871567080E+01  0.10500000000E+00 0.  1.
</event>
<event>
11    0  0.3462209E-009  0.9118800E+02  0.7816531E-02  0.1126479E+00
         25   -1    0    0    0    0  0.00000000000E+00  0.00000000000E+00  0.99999998245E-14  0.12500000000E+03  0.12500000000E+03 0.  0.
    3000001    1    3    3    0    0 -0.28826162960E+00  0.76662793080E+01  0.46318046008E+01  0.90171252101E+01  0.10000000000E+01 0. -1.
    1000022    2    1    0    0    0  0.16695304244E+02  0.56506075369E+02  0.18291539809E+02  0.62500001485E+02  0.10000000978E+02 0.  0.
    3000022    2    3    3    0    0  0.16983565874E+02  0.48839796061E+02  0.13659735208E+02  0.53482876275E+02  0.24999909704E+00 0.  0.
    1000022    2    1    0    0    0 -0.16695304244E+02 -0.56506075369E+02 -0.18291539809E+02  0.62499998515E+02  0.99999824172E+01 0.  0.
    3000022    2    5    5    0    0 -0.13325282756E+02 -0.53038296100E+02 -0.15563592980E+02  0.56858701519E+02  0.24999666166E+00 0.  0.
        -13    1    4    4    0    0  0.76620385615E+01  0.21851747867E+02  0.60868701690E+01  0.23942989229E+02  0.10500000000E+00 0. -1.
         13    1    4    4    0    0  0.93215273125E+01  0.26988048195E+02  0.75728650389E+01  0.29539887046E+02  0.10500000000E+00 0.  1.
    3000001    1    5    5    0    0 -0.33700214879E+01 -0.34677792699E+01 -0.27279468290E+01  0.56412969959E+01  0.10000000000E+01 0. -1.
        -13    1    6    6    0    0 -0.81913173483E+01 -0.32747124382E+02 -0.96589821086E+01  0.35110949796E+02  0.10500000000E+00 0.  1.
         13    1    6    6    0    0 -0.51339654082E+01 -0.20291171718E+02 -0.59046108711E+01  0.21747751723E+02  0.10500000000E+00 0. -1.
</event>
<event>
11    0  0.3462209E-009  0.9118800E+02  0.7816531E-02  0.1126479E+00
         25   -1    0    0    0    0  0.00000000000E+00  0.00000000000E+00  0.99999998245E-14  0.12500000000E+03  0.12500000000E+03 0.  0.
    3000001    1    3    3    0    0 -0.18269986191E+02 -0.17823199323E+02  0.27618463189E+02  0.37619653620E+02  0.10000000000E+01 0. -1.
    1000022    2    1    0    0    0 -0.22797854630E+02 -0.31666739221E+02  0.47788337869E+02  0.62499997851E+02  0.99999973269E+01 0.  0.
    3000022    2    3    3    0    0 -0.45278684383E+01 -0.13843539898E+02  0.20169874680E+02  0.24880344231E+02  0.24998996683E+00 0.  0.
    1000022    2    1    0    0    0  0.22797854630E+02  0.31666739221E+02 -0.47788337869E+02  0.62500002149E+02  0.10000024183E+02 0.  0.
    3000022    2    5    5    0    0  0.17119138007E+02  0.29503487113E+02 -0.40990133065E+02  0.53327048932E+02  0.25000229166E+00 0.  0.
        -13    1    4    4    0    0 -0.19345508528E+01 -0.57146814831E+01  0.83267233026E+01  0.10283259085E+02  0.10500000000E+00 0. -1.
         13    1    4    4    0    0 -0.25933175854E+01 -0.81288584149E+01  0.11843151377E+02  0.14597085146E+02  0.10500000000E+00 0.  1.
    3000001    1    5    5    0    0  0.56787166223E+01  0.21632521085E+01 -0.67982048035E+01  0.91729532165E+01  0.10000000000E+01 0.  1.
        -13    1    6    6    0    0  0.60166335623E+01  0.10402022591E+02 -0.14355569024E+02  0.18721520783E+02  0.10500000000E+00 0.  1.
         13    1    6    6    0    0  0.11102504445E+02  0.19101464522E+02 -0.26634564041E+02  0.34605528149E+02  0.10500000000E+00 0. -1.
</event>
<event>
11    0  0.3462209E-009  0.9118800E+02  0.7816531E-02  0.1126479E+00
         25   -1    0    0    0    0  0.00000000000E+00  0.00000000000E+00  0.99999998245E-14  0.12500000000E+03  0.12500000000E+03 0.  0.
    3000001    1    3    3    0    0  0.51102543534E+01 -0.79067038696E+01  0.64160372019E+01  0.11436616589E+02  0.10000000000E+01 0. -1.
    1000022    2    1    0    0    0  0.43590331096E+02 -0.30485581366E+02  0.31253198967E+02  0.62499999937E+02  0.99999955063E+01 0.  0.
    3000022    2    3    3    0    0  0.38480076742E+02 -0.22578877497E+02  0.24837161765E+02  0.51063383347E+02  0.24999840360E+00 0.  0.
    1000022    2    1    0    0    0 -0.43590331096E+02  0.30485581366E+02 -0.31253198967E+02  0.62500000063E+02  0.99999962980E+01 0.  0.
    3000022    2    5    5    0    0 -0.20556038064E+02  0.14226497202E+02 -0.90115468234E+01  0.26574694728E+02  0.25000044795E+00 0.  0.
        -13    1    4    4    0    0  0.18683270545E+02 -0.11023161071E+02  0.12125772357E+02  0.24851962870E+02  0.10500000000E+00 0. -1.
         13    1    4    4    0    0  0.19796806198E+02 -0.11555716426E+02  0.12711389408E+02  0.26211420477E+02  0.10500000000E+00 0.  1.
    3000001    1    5    5    0    0 -0.23034293032E+02  0.16259084164E+02 -0.22241652144E+02  0.35925305335E+02  0.10000000000E+01 0.  1.
        -13    1    6    6    0    0 -0.82461643892E+01  0.56748255248E+01 -0.36693804405E+01  0.10662000267E+02  0.10500000000E+00 0.  1.
         13    1    6    6    0    0 -0.12309873675E+02  0.85516716771E+01 -0.53421663829E+01  0.15912694462E+02  0.10500000000E+00 0. -1.
</event>
<event>
11    0  0.3462209E-009  0.9118800E+02  0.7816531E-02  0.1126479E+00
         25   -1    0    0    0    0  0.00000000000E+00  0.00000000000E+00  0.99999998245E-14  0.12500000000E+03  0.12500000000E+03 0.  0.
    3000001    1    3    3    0    0  0.41417502903E+02 -0.14224413092E+02 -0.77849715493E+01  0.44489878136E+02  0.10000000000E+01 0.  1.
    1000022    2    1    0    0    0  0.56054452913E+02 -0.24705701505E+02 -0.73332552770E+01  0.62499993755E+02  0.99999604133E+01 0.  0.
    3000022    2    3    3    0    0  0.14636950010E+02 -0.10481288412E+02  0.45171627235E+00  0.18010115619E+02  0.25000931073E+00 0.  0.
    1000022    2    1    0    0    0 -0.56054452913E+02  0.24705701505E+02  0.73332552770E+01  0.62500006245E+02  0.10000038476E+02 0.  0.
    3000022    2    5    5    0    0 -0.13267376049E+02  0.55412621670E+01 -0.24749067472E+01  0.14591659123E+02  0.24999786505E+00 0.  0.
        -13    1    4    4    0    0  0.82008197196E+01 -0.59435838295E+01  0.22226646769E+00  0.10131143084E+02  0.10500000000E+00 0. -1.
         13    1    4    4    0    0  0.64361302904E+01 -0.45377045828E+01  0.22944980465E+00  0.78789725351E+01  0.10500000000E+00 0.  1.
    3000001    1    5    5    0    0 -0.42787076864E+02  0.19164439338E+02  0.98081620242E+01  0.47908347122E+02  0.10000000000E+01 0. -1.
        -13    1    6    6    0    0 -0.64711110103E+01  0.26332476712E+01 -0.11803734639E+01  0.70861539300E+01  0.10500000000E+00 0.  1.
         13    1    6    6    0    0 -0.67962650383E+01  0.29080144958E+01 -0.12945332833E+01  0.75055051928E+01  0.10500000000E+00 0. -1.
</event>
<event>
11    0  0.3462209E-009  0.9118800E+02  0.7816531E-02  0.1126479E+00
         25   -1    0    0    0    0  0.00000000000E+00  0.00000000000E+00  0.99999998245E-14  0.12500000000E+03  0.12500000000E+03 0.  0.
    3000001    1    3    3    0    0 -0.14194201103E+01 -0.51724759051E+01  0.46643253372E+01  0.71781049929E+01  0.10000000000E+01 0. -1.
    1000022    2    1    0    0    0 -0.10551181356E+02 -0.58167631275E+02  0.17647928143E+02  0.62499999421E+02  0.99999901843E+01 0.  0.
    3000022    2    3    3    0    0 -0.91317612454E+01 -0.52995155370E+02  0.12983602806E+02  0.55321894428E+02  0.25001023632E+00 0.  0.
    1000022    2    1    0    0    0  0.10551181356E+02  0.58167631275E+02 -0.17647928143E+02  0.62500000579E+02  0.99999974277E+01 0.  0.
    3000022    2    5    5    0    0  0.28874576173E+01  0.10635610867E+02  0.50724531940E+00  0.11035100414E+02  0.25002665076E+00 0.  0.
        -13    1    4    4    0    0 -0.30279566881E+01 -0.17320002136E+02  0.42144278078E+01  0.18081023822E+02  0.10500000000E+00 0.  1.
         13    1    4    4    0    0 -0.61038045573E+01 -0.35675153234E+02  0.87691749977E+01  0.37240870606E+02  0.10500000000E+00 0. -1.
    3000001    1    5    5    0    0  0.76637237385E+01  0.47532020408E+02 -0.18155173462E+02  0.51464900166E+02  0.10000000000E+01 0.  1.
        -13    1    6    6    0    0  0.72899596189E+00  0.26178174049E+01  0.14185965347E+00  0.27231511598E+01  0.10500000000E+00 0.  1.
         13    1    6    6    0    0  0.21584616554E+01  0.80177934618E+01  0.36538566593E+00  0.83119492539E+01  0.10500000000E+00 0. -1.
</event>
<event>
11    0  0.3462209E-009  0.9118800E+02  0.7816531E-02  0.1126479E+00
         25   -1    0    0    0    0  0.00000000000E+00  0.00000000000E+00  0.99999998245E-14  0.12500000000E+03  0.12500000000E+03 0.  0.
    3000001    1    3    3    0    0 -0.36038332519E+02  0.98195593356E+01  0.12527547841E+02  0.39409701994E+02  0.10000000000E+01 0. -1.
    1000022    2    1    0    0    0 -0.53482014154E+02  0.22014120329E+02  0.21477963529E+02  0.62499998473E+02  0.99999779992E+01 0.  0.
    3000022    2    3    3    0    0 -0.17443681635E+02  0.12194560993E+02  0.89504156882E+01  0.23090296480E+02  0.25000748348E+00 0.  0.
    1000022    2    1    0    0    0  0.53482014154E+02 -0.22014120329E+02 -0.21477963529E+02  0.62500001527E+02  0.99999970840E+01 0.  0.
    3000022    2    5    5    0    0  0.10453387139E+02 -0.74065952611E+01 -0.16788217194E+01  0.12923307932E+02  0.24997899524E+00 0.  0.
        -13    1    4    4    0    0 -0.11719119168E+02  0.82228500083E+01  0.60701945589E+01  0.15550283062E+02  0.10500000000E+00 0.  1.
         13    1    4    4    0    0 -0.57245624664E+01  0.39717109848E+01  0.28802211293E+01  0.75400134172E+01  0.10500000000E+00 0. -1.
    3000001    1    5    5    0    0  0.43028627015E+02 -0.14607525068E+02 -0.19799141810E+02  0.49576693595E+02  0.10000000000E+01 0.  1.
        -13    1    6    6    0    0  0.53955472477E+01 -0.37414978546E+01 -0.84712019441E+00  0.66211308643E+01  0.10500000000E+00 0. -1.
         13    1    6    6    0    0  0.50578398910E+01 -0.36650974065E+01 -0.83170152495E+00  0.63021770674E+01  0.10500000000E+00 0.  1.
</event>
<event>
11    0  0.3462209E-009  0.9118800E+02  0.7816531E-02  0.1126479E+00
         25   -1    0    0    0    0  0.00000000000E+00  0.00000000000E+00  0.99999998245E-14  0.12500000000E+03  0.12500000000E+03 0.  0.
    3000001    1    3    3    0    0 -0.24513378137E+02  0.28012867586E+02  0.16771108472E+02  0.40839889048E+02  0.10000000000E+01 0. -1.
    1000022    2    1    0    0    0 -0.41382649032E+02  0.41257981780E+02  0.19786492767E+02  0.62499999737E+02  0.99999984783E+01 0.  0.
    3000022    2    3    3    0    0 -0.16869270895E+02  0.13245114195E+02  0.30153842941E+01  0.21660110689E+02  0.25000406972E+00 0.  0.
    1000022    2    1    0    0    0  0.41382649032E+02 -0.41257981780E+02 -0.19786492767E+02  0.62500000263E+02  0.10000001769E+02 0.  0.
    3000022    2    5    5    0    0  0.32658117976E+02 -0.34691675333E+02 -0.19636993405E+02  0.51533862722E+02  0.24997981046E+00 0.  0.
        -13    1    4    4    0    0 -0.52591266367E+01  0.40765234606E+01  0.96089800492E+00  0.67238981612E+01  0.10500000000E+00 0.  1.
         13    1    4    4    0    0 -0.11610144259E+02  0.91685907342E+01  0.20544862891E+01  0.14936212528E+02  0.10500000000E+00 0. -1.
    3000001    1    5    5    0    0  0.87245310565E+01 -0.65663064476E+01 -0.14949936107E+00  0.10966137541E+02  0.10000000000E+01 0. -1.
        -13    1    6    6    0    0  0.15572382458E+02 -0.16590396757E+02 -0.93143458940E+01  0.24586753027E+02  0.10500000000E+00 0. -1.
         13    1    6    6    0    0  0.17085735518E+02 -0.18101278576E+02 -0.10322647511E+02  0.26947109695E+02  0.10500000000E+00 0.  1.
</event>
<event>
11    0  0.3462209E-009  0.9118800E+02  0.7816531E-02  0.1126479E+00
         25   -1    0    0    0    0  0.00000000000E+00  0.00000000000E+00  0.99999998245E-14  0.12500000000E+03  0.12500000000E+03 0.  0.
    3000001    1    3    3    0    0 -0.32259011317E+02  0.35809790946E+02 -0.61838392157E+01  0.48602724268E+02  0.10000000000E+01 0.  1.
    1000022    2    1    0    0    0 -0.44073536668E+02  0.41965356201E+02 -0.10133236343E+02  0.62499998471E+02  0.99999787327E+01 0.  0.
    3000022    2    3    3    0    0 -0.11814525350E+02  0.61555652543E+01 -0.39493971273E+01  0.13897274204E+02  0.24999952230E+00 0.  0.
    1000022    2    1    0    0    0  0.44073536668E+02 -0.41965356201E+02  0.10133236343E+02  0.62500001529E+02  0.99999978410E+01 0.  0.
    3000022    2    5    5    0    0  0.24573633163E+02 -0.16606708183E+02  0.53889647138E+01  0.30145475117E+02  0.25005173784E+00 0.  0.
        -13    1    4    4    0    0 -0.43067773492E+01  0.23087732100E+01 -0.14628042892E+01  0.51019198601E+01  0.10500000000E+00 0.  1.
         13    1    4    4    0    0 -0.75077480013E+01  0.38467920443E+01 -0.24865928381E+01  0.87953543434E+01  0.10500000000E+00 0. -1.
    3000001    1    5    5    0    0  0.19499903505E+02 -0.25358648018E+02  0.47442716292E+01  0.32354526411E+02  0.10000000000E+01 0.  1.
        -13    1    6    6    0    0  0.18177043317E+02 -0.12246625203E+02  0.39914002583E+01  0.22278398363E+02  0.10500000000E+00 0. -1.
         13    1    6    6    0    0  0.63965898456E+01 -0.43600829801E+01  0.13975644555E+01  0.78670767540E+01  0.10500000000E+00 0.  1.
</event>
<event>
11    0  0.3462209E-009  0.9118800E+02  0.7816531E-02  0.1126479E+00
         25   -1    0    0    0    0  0.00000000000E+00  0.00000000000E+00  0.99999998245E-14  0.12500000000E+03  0.12500000000E+03 0.  0.
    3000001    1    3    3    0    0  0.12738472444E+02  0.79936181494E+01 -0.10684379000E+02  0.18474917211E+02  0.10000000000E+01 0.  1.
    1000022    2    1    0    0    0  0.48422643550E+02  0.30918255352E+02 -0.22484640819E+02  0.62499997935E+02  0.99999873402E+01 0.  0.
    3000022    2    3    3    0    0  0.35684171106E+02  0.22924637202E+02 -0.11800261819E+02  0.44025080725E+02  0.24999089617E+00 0.  0.
    1000022    2    1    0    0    0 -0.48422643550E+02 -0.30918255352E+02  0.22484640819E+02  0.62500002065E+02  0.10000013150E+02 0.  0.
    3000022    2    5    5    0    0 -0.21475616591E+02 -0.16605147281E+02  0.15203333338E+02  0.31114897904E+02  0.25000559775E+00 0.  0.
        -13    1    4    4    0    0  0.12076169131E+02  0.78230382073E+01 -0.40031552692E+01  0.14935530282E+02  0.10500000000E+00 0.  1.
         13    1    4    4    0    0  0.23608001974E+02  0.15101598995E+02 -0.77971065499E+01  0.29089550443E+02  0.10500000000E+00 0. -1.
    3000001    1    5    5    0    0 -0.26947026958E+02 -0.14313108071E+02  0.72813074807E+01  0.31385104161E+02  0.10000000000E+01 0.  1.
        -13    1    6    6    0    0 -0.11103619852E+02 -0.86136758231E+01  0.77970696746E+01  0.16071437568E+02  0.10500000000E+00 0.  1.
         13    1    6    6    0    0 -0.10371996740E+02 -0.79914714576E+01  0.74062636637E+01  0.15043460336E+02  0.10500000000E+00 0. -1.
</event>
<event>
11    0  0.3462209E-009  0.9118800E+02  0.7816531E-02  0.1126479E+00
         25   -1    0    0    0    0  0.00000000000E+00  0.00000000000E+00  0.99999998245E-14  0.12500000000E+03  0.12500000000E+03 0.  0.
    3000001    1    3    3    0    0  0.15747603903E+02  0.36269309725E+02  0.22462264670E+02  0.45486296736E+02  0.10000000000E+01 0.  1.
    1000022    2    1    0    0    0  0.15982864202E+02  0.49585565406E+02  0.33046479422E+02  0.62500000420E+02  0.10000000282E+02 0.  0.
    3000022    2    3    3    0    0  0.23526029859E+00  0.13316255681E+02  0.10584214752E+02  0.17013703685E+02  0.24999677421E+00 0.  0.
    1000022    2    1    0    0    0 -0.15982864202E+02 -0.49585565406E+02 -0.33046479422E+02  0.62499999580E+02  0.99999950272E+01 0.  0.
    3000022    2    5    5    0    0 -0.79407700652E+01 -0.22648851607E+02 -0.21029574431E+02  0.31911311573E+02  0.24999445798E+00 0.  0.
        -13    1    4    4    0    0  0.36277587446E-01  0.51985483225E+01  0.41668555745E+01  0.66633273297E+01  0.10500000000E+00 0.  1.
         13    1    4    4    0    0  0.19898271114E+00  0.81177073585E+01  0.64173591776E+01  0.10350376355E+02  0.10500000000E+00 0. -1.
    3000001    1    5    5    0    0 -0.80420941366E+01 -0.26936713799E+02 -0.12016904991E+02  0.30588688007E+02  0.10000000000E+01 0. -1.
        -13    1    6    6    0    0 -0.24796028735E+01 -0.70442878793E+01 -0.64803977837E+01  0.98882254511E+01  0.10500000000E+00 0. -1.
         13    1    6    6    0    0 -0.54611671918E+01 -0.15604563727E+02 -0.14549176647E+02  0.22023086122E+02  0.10500000000E+00 0.  1.
</event>
<event>
11    0  0.3462209E-009  0.9118800E+02  0.7816531E-02  0.1126479E+00
         25   -1    0    0    0    0  0.00000000000E+00  0.00000000000E+00  0.99999998245E-14  0.12500000000E+03  0.12500000000E+03 0.  0.
    3000001    1    3    3    0    0 -0.14169481688E+02  0.89224618531E+01  0.44560441259E+01  0.17356291829E+02  0.10000000000E+01 0. -1.
    1000022    2    1    0    0    0 -0.40243192783E+02  0.43702300503E+02  0.16638653750E+02  0.62499996449E+02  0.99999561475E+01 0.  0.
    3000022    2    3    3    0    0 -0.26073711096E+02  0.34779838650E+02  0.12182609624E+02  0.45143704620E+02  0.25000555277E+00 0.  0.
    1000022    2    1    0    0    0  0.40243192783E+02 -0.43702300503E+02 -0.16638653750E+02  0.62500003551E+02  0.10000000531E+02 0.  0.
    3000022    2    5    5    0    0  0.22450480722E+02 -0.30282036669E+02 -0.77508095014E+01  0.38485885636E+02  0.25003152382E+00 0.  0.
        -13    1    4    4    0    0 -0.11490769587E+02  0.15250249288E+02  0.53026852519E+01  0.19817602906E+02  0.10500000000E+00 0.  1.
         13    1    4    4    0    0 -0.14582941509E+02  0.19529589361E+02  0.68799243718E+01  0.25326101714E+02  0.10500000000E+00 0. -1.
    3000001    1    5    5    0    0  0.17792712061E+02 -0.13420263834E+02 -0.88878442482E+01  0.24014117915E+02  0.10000000000E+01 0.  1.
        -13    1    6    6    0    0  0.14871060662E+02 -0.20026613661E+02 -0.51808563086E+01  0.25476773678E+02  0.10500000000E+00 0. -1.
         13    1    6    6    0    0  0.75794200607E+01 -0.10255423007E+02 -0.25699531928E+01  0.13009111958E+02  0.10500000000E+00 0.  1.
</event>
<event>
11    0  0.3462209E-009  0.9118800E+02  0.7816531E-02  0.1126479E+00
         25   -1    0    0    0    0  0.00000000000E+00  0.00000000000E+00  0.99999998245E-14  0.12500000000E+03  0.12500000000E+03 0.  0.
    3000001    1    3    3    0    0 -0.71968170202E+01  0.63547767694E+01 -0.24827892933E+02  0.26638348870E+02  0.10000000000E+01 0.  1.
    1000022    2    1    0    0    0 -0.59615784548E+01  0.18354728344E+02 -0.58598750827E+02  0.62499999676E+02  0.99999945344E+01 0.  0.
    3000022    2    3    3    0    0  0.12352385654E+01  0.11999951575E+02 -0.33770857894E+02  0.35861650806E+02  0.25000701565E+00 0.  0.
    1000022    2    1    0    0    0  0.59615784548E+01 -0.18354728344E+02  0.58598750827E+02  0.62500000324E+02  0.99999985883E+01 0.  0.
    3000022    2    5    5    0    0 -0.22690503693E+00 -0.12508480160E+02  0.26989352944E+02  0.29748970107E+02  0.24997654749E+00 0.  0.
        -13    1    4    4    0    0  0.71093722795E+00  0.74109077498E+01 -0.20742055864E+02  0.22037942097E+02  0.10500000000E+00 0.  1.
         13    1    4    4    0    0  0.52430133750E+00  0.45890438247E+01 -0.13028802031E+02  0.13823708709E+02  0.10500000000E+00 0. -1.
    3000001    1    5    5    0    0  0.61884834917E+01 -0.58462481838E+01  0.31609397884E+02  0.32751030218E+02  0.10000000000E+01 0. -1.
        -13    1    6    6    0    0 -0.18127612918E+00 -0.96310581601E+01  0.20775401946E+02  0.22900185444E+02  0.10500000000E+00 0.  1.
         13    1    6    6    0    0 -0.45628907749E-01 -0.28774220000E+01  0.62139509975E+01  0.68487846632E+01  0.10500000000E+00 0. -1.
</event>
<event>
11    0  0.3462209E-009  0.9118800E+02  0.7816531E-02  0.1126479E+00
         25   -1    0    0    0    0  0.00000000000E+00  0.00000000000E+00  0.99999998245E-14  0.12500000000E+03  0.12500000000E+03 0.  0.
    3000001    1    3    3    0    0 -0.82921702575E+01  0.28943053728E+02 -0.21658623187E+02  0.37101973061E+02  0.10000000000E+01 0. -1.
    1000022    2    1    0    0    0 -0.16365330155E+02  0.42678466398E+02 -0.41436387969E+02  0.62500003619E+02  0.10000033964E+02 0.  0.
    3000022    2    3    3    0    0 -0.80731598971E+01  0.13735412669E+02 -0.19777764782E+02  0.25398030557E+02  0.25000895722E+00 0.  0.
    1000022    2    1    0    0    0  0.16365330155E+02 -0.42678466398E+02  0.41436387969E+02  0.62499996381E+02  0.99999887315E+01 0.  0.
    3000022    2    5    5    0    0  0.13007017135E+02 -0.34279609393E+02  0.27402601741E+02  0.45773782786E+02  0.24998708854E+00 0.  0.
        -13    1    4    4    0    0 -0.19162346216E+01  0.32517024770E+01 -0.47121343881E+01  0.60382745562E+01  0.10500000000E+00 0.  1.
         13    1    4    4    0    0 -0.61569252755E+01  0.10483710192E+02 -0.15065630394E+02  0.19359756001E+02  0.10500000000E+00 0. -1.
    3000001    1    5    5    0    0  0.33583130197E+01 -0.83988570051E+01  0.14033786228E+02  0.16726213595E+02  0.10000000000E+01 0. -1.
        -13    1    6    6    0    0  0.69486063391E+01 -0.18352884091E+02  0.14748991083E+02  0.24549037608E+02  0.10500000000E+00 0.  1.
         13    1    6    6    0    0  0.60584107958E+01 -0.15926725302E+02  0.12653610658E+02  0.21224745179E+02  0.10500000000E+00 0. -1.
</event>
<event>
11    0  0.3462209E-009  0.9118800E+02  0.7816531E-02  0.1126479E+00
         25   -1    0    0    0    0  0.00000000000E+00  0.00000000000E+00  0.99999998245E-14  0.12500000000E+03  0.12500000000E+03 0.  0.
    3000001    1    3    3    0    0  0.16191709545E+02  0.13723296189E+01 -0.36038785726E+01  0.16674612060E+02  0.10000000000E+01 0. -1.
    1000022    2    1    0    0    0  0.60745338047E+02  0.10631751637E+02  0.17943445410E+01  0.62499998161E+02  0.99999930276E+01 0.  0.
    3000022    2    3    3    0    0  0.44553628502E+02  0.92594220177E+01  0.53982231136E+01  0.45825386102E+02  0.24997961733E+00 0.  0.
    1000022    2    1    0    0    0 -0.60745338047E+02 -0.10631751637E+02 -0.17943445410E+01  0.62500001839E+02  0.10000016013E+02 0.  0.
    3000022    2    5    5    0    0 -0.55624349765E+02 -0.12326211667E+02 -0.12614305274E+01  0.56988222352E+02  0.24999783190E+00 0.  0.
        -13    1    4    4    0    0  0.23206930686E+02  0.47944090114E+01  0.27491493213E+01  0.23856169781E+02  0.10500000000E+00 0. -1.
         13    1    4    4    0    0  0.21346697816E+02  0.44650130063E+01  0.26490737922E+01  0.21969216321E+02  0.10500000000E+00 0.  1.
    3000001    1    5    5    0    0 -0.51209882811E+01  0.16944600307E+01 -0.53291401360E+00  0.55117794873E+01  0.10000000000E+01 0. -1.
        -13    1    6    6    0    0 -0.38417426623E+02 -0.84803892564E+01 -0.90718362871E+00  0.39352886519E+02  0.10500000000E+00 0. -1.
         13    1    6    6    0    0 -0.17206923143E+02 -0.38458224108E+01 -0.35424689866E+00  0.17635335832E+02  0.10500000000E+00 0.  1.
</event>
<event>
11    0  0.3462209E-009  0.9118800E+02  0.7816531E-02  0.1126479E+00
         25   -1    0    0    0    0  0.00000000000E+00  0.00000000000E+00  0.99999998245E-14  0.12500000000E+03  0.12500000000E+03 0.  0.
    3000001    1    3    3    0    0  0.29947637813E+01 -0.15993468759E+02  0.13319866997E+01  0.16356461769E+02  0.10000000000E+01 0.  1.
    1000022    2    1    0    0    0 -0.26335101982E+01 -0.61542529985E+02 -0.34397208202E+01  0.62500000210E+02  0.99999987013E+01 0.  0.
    3000022    2    3    3    0    0 -0.56282739795E+01 -0.45549061226E+02 -0.47717075199E+01  0.46143538441E+02  0.25000120520E+00 0.  0.
    1000022    2    1    0    0    0  0.26335101982E+01  0.61542529985E+02  0.34397208202E+01  0.62499999790E+02  0.99999960774E+01 0.  0.
    3000022    2    5    5    0    0 -0.18246494072E+01  0.17000405294E+02 -0.26775049905E+01  0.17308224978E+02  0.24998659786E+00 0.  0.
        -13    1    4    4    0    0 -0.35052326182E+01 -0.28076027605E+02 -0.28916677246E+01  0.28441567274E+02  0.10500000000E+00 0.  1.
         13    1    4    4    0    0 -0.21230413612E+01 -0.17473033621E+02 -0.18800397953E+01  0.17701971167E+02  0.10500000000E+00 0. -1.
    3000001    1    5    5    0    0  0.44581596054E+01  0.44542124691E+02  0.61172258108E+01  0.45191774812E+02  0.10000000000E+01 0.  1.
        -13    1    6    6    0    0 -0.13440791662E+01  0.12264902052E+02 -0.19601311313E+01  0.12493498718E+02  0.10500000000E+00 0.  1.
         13    1    6    6    0    0 -0.48057024100E+00  0.47355032412E+01 -0.71737385920E+00  0.48147262600E+01  0.10500000000E+00 0. -1.
</event>
<event>
11    0  0.3462209E-009  0.9118800E+02  0.7816531E-02  0.1126479E+00
         25   -1    0    0    0    0  0.00000000000E+00  0.00000000000E+00  0.99999998245E-14  0.12500000000E+03  0.12500000000E+03 0.  0.
    3000001    1    3    3    0    0 -0.17900144658E+02 -0.14797049010E+02  0.31506383517E+01  0.23458353740E+02  0.10000000000E+01 0.  1.
    1000022    2    1    0    0    0 -0.53911320171E+02 -0.29870884076E+02  0.27476937831E+01  0.62499999746E+02  0.99999994511E+01 0.  0.
    3000022    2    3    3    0    0 -0.36011175513E+02 -0.15073835066E+02 -0.40294456857E+00  0.39041646005E+02  0.24998610288E+00 0.  0.
    1000022    2    1    0    0    0  0.53911320171E+02  0.29870884076E+02 -0.27476937831E+01  0.62500000254E+02  0.10000002632E+02 0.  0.
    3000022    2    5    5    0    0  0.13287467870E+02  0.36360867134E+01  0.18980812477E+01  0.13908383755E+02  0.24999452905E+00 0.  0.
        -13    1    4    4    0    0 -0.18658384416E+02 -0.78490013203E+01 -0.15153645568E+00  0.20242927630E+02  0.10500000000E+00 0. -1.
         13    1    4    4    0    0 -0.17352791097E+02 -0.72248337452E+01 -0.25140811289E+00  0.18798718375E+02  0.10500000000E+00 0.  1.
    3000001    1    5    5    0    0  0.40623852301E+02  0.26234797362E+02 -0.46457750308E+01  0.48591616500E+02  0.10000000000E+01 0. -1.
        -13    1    6    6    0    0  0.79078612899E+01  0.21498119468E+01  0.10664046748E+01  0.82646358370E+01  0.10500000000E+00 0. -1.
         13    1    6    6    0    0  0.53796065801E+01  0.14862747665E+01  0.83167657290E+00  0.56437479179E+01  0.10500000000E+00 0.  1.
</event>
<event>
11    0  0.3462209E-009  0.9118800E+02  0.7816531E-02  0.1126479E+00
         25   -1    0    0    0    0  0.00000000000E+00  0.00000000000E+00  0.99999998245E-14  0.12500000000E+03  0.12500000000E+03 0.  0.
    3000001    1    3    3    0    0  0.40329772893E+02  0.40069092393E+02 -0.17588561676E+02  0.59517898557E+02  0.10000000000E+01 0. -1.
    1000022    2    1    0    0    0  0.43210165176E+02  0.40589860617E+02 -0.17076149388E+02  0.62499999682E+02  0.99999961436E+01 0.  0.
    3000022    2    3    3    0    0  0.28803922822E+01  0.52076822455E+00  0.51241228764E+00  0.29821011249E+01  0.25000304706E+00 0.  0.
    1000022    2    1    0    0    0 -0.43210165176E+02 -0.40589860617E+02  0.17076149388E+02  0.62500000318E+02  0.10000000120E+02 0.  0.
    3000022    2    5    5    0    0 -0.36470613360E+02 -0.34704107632E+02  0.17962982273E+02  0.53452894734E+02  0.24999588020E+00 0.  0.
        -13    1    4    4    0    0  0.17068971679E+01  0.36204568242E+00  0.34106015507E+00  0.17809890643E+01  0.10500000000E+00 0. -1.
         13    1    4    4    0    0  0.11734951144E+01  0.15872254213E+00  0.17135213258E+00  0.12011120606E+01  0.10500000000E+00 0.  1.
    3000001    1    5    5    0    0 -0.67395518153E+01 -0.58857529856E+01 -0.88683288512E+00  0.90471055838E+01  0.10000000000E+01 0. -1.
        -13    1    6    6    0    0 -0.21641926512E+02 -0.20564319397E+02  0.10715868985E+02  0.31719159644E+02  0.10500000000E+00 0. -1.
         13    1    6    6    0    0 -0.14828686848E+02 -0.14139788235E+02  0.72471132885E+01  0.21733735090E+02  0.10500000000E+00 0.  1.
</event>
<event>
11    0  0.3462209E-009  0.9118800E+02  0.7816531E-02  0.1126479E+00
         25   -1    0    0    0    0  0.00000000000E+00  0.00000000000E+00  0.99999998245E-14  0.12500000000E+03  0.12500000000E+03 0.  0.
    3000001    1    3    3    0    0  0.17295332544E+02  0.32125692789E+02 -0.30072706803E+01  0.36622839076E+02  0.10000000000E+01 0.  1.
    1000022    2    1    0    0    0  0.36131416524E+02  0.49797113940E+02 -0.45845598972E+01  0.62500001154E+02  0.10000006903E+02 0.  0.
    3000022    2    3    3    0    0  0.18836083980E+02  0.17671421150E+02 -0.15772892170E+01  0.25877162079E+02  0.24998159219E+00 0.  0.
    1000022    2    1    0    0    0 -0.36131416524E+02 -0.49797113940E+02  0.45845598972E+01  0.62499998846E+02  0.99999924759E+01 0.  0.
    3000022    2    5    5    0    0 -0.34894366023E+02 -0.47858825545E+02  0.25731134080E+01  0.59285473558E+02  0.24999956703E+00 0.  0.
        -13    1    4    4    0    0  0.13001458629E+02  0.12204649785E+02 -0.11370797795E+01  0.17868838191E+02  0.10500000000E+00 0. -1.
         13    1    4    4    0    0  0.58346253507E+01  0.54667713649E+01 -0.44020943751E+00  0.80083238875E+01  0.10500000000E+00 0.  1.
    3000001    1    5    5    0    0 -0.12370505014E+01 -0.19382883952E+01  0.20114464892E+01  0.32145252876E+01  0.10000000000E+01 0. -1.
        -13    1    6    6    0    0 -0.11883651192E+02 -0.16356096698E+02  0.83481830132E+00  0.20234895884E+02  0.10500000000E+00 0.  1.
         13    1    6    6    0    0 -0.23010714831E+02 -0.31502728847E+02  0.17382951067E+01  0.39050577674E+02  0.10500000000E+00 0. -1.
</event>
<event>
11    0  0.3462209E-009  0.9118800E+02  0.7816531E-02  0.1126479E+00
         25   -1    0    0    0    0  0.00000000000E+00  0.00000000000E+00  0.99999998245E-14  0.12500000000E+03  0.12500000000E+03 0.  0.
    3000001    1    3    3    0    0  0.71935420990E+01 -0.32118092996E+01  0.21574361424E+02  0.22989472324E+02  0.10000000000E+01 0. -1.
    1000022    2    1    0    0    0  0.82180337756E+01 -0.14899000652E+02  0.59302052719E+02  0.62499992622E+02  0.99999660724E+01 0.  0.
    3000022    2    3    3    0    0  0.10244916766E+01 -0.11687191353E+02  0.37727691296E+02  0.39510520298E+02  0.24999758136E+00 0.  0.
    1000022    2    1    0    0    0 -0.82180337756E+01  0.14899000652E+02 -0.59302052719E+02  0.62500007378E+02  0.10000058299E+02 0.  0.
    3000022    2    5    5    0    0  0.35167729027E+00  0.95967518649E+00 -0.84948378781E-01  0.10556407636E+01  0.25001562906E+00 0.  0.
        -13    1    4    4    0    0  0.40352776639E+00 -0.53029901461E+01  0.17193304601E+02  0.17997368898E+02  0.10500000000E+00 0. -1.
         13    1    4    4    0    0  0.62096391024E+00 -0.63842012065E+01  0.20534386695E+02  0.21513151400E+02  0.10500000000E+00 0.  1.
    3000001    1    5    5    0    0 -0.85697110659E+01  0.13939325466E+02 -0.59217104340E+02  0.61444366614E+02  0.10000000000E+01 0.  1.
        -13    1    6    6    0    0  0.26148930277E+00  0.72480627993E+00 -0.90943618515E-01  0.78295372829E+00  0.10500000000E+00 0. -1.
         13    1    6    6    0    0  0.90187987498E-01  0.23486890655E+00  0.59952397343E-02  0.27268703536E+00  0.10500000000E+00 0.  1.
</event>
<event>
11    0  0.3462209E-009  0.9118800E+02  0.7816531E-02  0.1126479E+00
         25   -1    0    0    0    0  0.00000000000E+00  0.00000000000E+00  0.99999998245E-14  0.12500000000E+03  0.12500000000E+03 0.  0.
    3000001    1    3    3    0    0 -0.17070331690E+01 -0.26927684362E+02  0.27136412661E+02  0.38280530814E+02  0.10000000000E+01 0. -1.
    1000022    2    1    0    0    0  0.49222492427E+01 -0.42346998020E+02  0.44595435332E+02  0.62499998096E+02  0.10000006531E+02 0.  0.
    3000022    2    3    3    0    0  0.66292824117E+01 -0.15419313658E+02  0.17459022671E+02  0.24219467281E+02  0.25000756589E+00 0.  0.
    1000022    2    1    0    0    0 -0.49222492427E+01  0.42346998020E+02 -0.44595435332E+02  0.62500001904E+02  0.10000030336E+02 0.  0.
    3000022    2    5    5    0    0  0.29055351056E+01  0.90502496294E+01 -0.83644566542E+01  0.12663955943E+02  0.24998478346E+00 0.  0.
        -13    1    4    4    0    0  0.26799527790E+01 -0.60981925423E+01  0.69766630875E+01  0.96464994696E+01  0.10500000000E+00 0. -1.
         13    1    4    4    0    0  0.39493296327E+01 -0.93211211159E+01  0.10482359584E+02  0.14572967812E+02  0.10500000000E+00 0.  1.
    3000001    1    5    5    0    0 -0.78277843483E+01  0.33296748390E+02 -0.36230978678E+02  0.49836045962E+02  0.10000000000E+01 0. -1.
        -13    1    6    6    0    0  0.16872495960E+01  0.50412191043E+01 -0.46648324410E+01  0.70733576157E+01  0.10500000000E+00 0. -1.
         13    1    6    6    0    0  0.12182855096E+01  0.40090305250E+01 -0.36996242131E+01  0.55905983268E+01  0.10500000000E+00 0.  1.
</event>
<event>
11    0  0.3462209E-009  0.9118800E+02  0.7816531E-02  0.1126479E+00
         25   -1    0    0    0    0  0.00000000000E+00  0.00000000000E+00  0.99999998245E-14  0.12500000000E+03  0.12500000000E+03 0.  0.
    3000001    1    3    3    0    0 -0.32804298393E+02  0.80561269614E+01  0.24597414516E+02  0.41797798693E+02  0.10000000000E+01 0.  1.
    1000022    2    1    0    0    0 -0.43871749341E+02  0.13629623523E+02  0.41179521660E+02  0.62499999357E+02  0.99999943917E+01 0.  0.
    3000022    2    3    3    0    0 -0.11067450948E+02  0.55734965615E+01  0.16582107144E+02  0.20702200664E+02  0.25000119357E+00 0.  0.
    1000022    2    1    0    0    0  0.43871749341E+02 -0.13629623523E+02 -0.41179521660E+02  0.62500000643E+02  0.10000002433E+02 0.  0.
    3000022    2    5    5    0    0  0.30342826118E+02 -0.10787536764E+02 -0.34219219411E+02  0.46990164148E+02  0.25000658083E+00 0.  0.
        -13    1    4    4    0    0 -0.53431295501E+01  0.27412943486E+01  0.79516788584E+01  0.99651367156E+01  0.10500000000E+00 0.  1.
         13    1    4    4    0    0 -0.57243213977E+01  0.28322022129E+01  0.86304282857E+01  0.10737063948E+02  0.10500000000E+00 0. -1.
    3000001    1    5    5    0    0  0.13528923223E+02 -0.28420867585E+01 -0.69603022491E+01  0.15509836495E+02  0.10000000000E+01 0. -1.
        -13    1    6    6    0    0  0.88660556536E+01 -0.31881390098E+01 -0.10052135118E+02  0.13777794403E+02  0.10500000000E+00 0.  1.
         13    1    6    6    0    0  0.21476770464E+02 -0.75993977545E+01 -0.24167084294E+02  0.33212369745E+02  0.10500000000E+00 0. -1.
</event>
<event>
11    0  0.3462209E-009  0.9118800E+02  0.7816531E-02  0.1126479E+00
         25   -1    0    0    0    0  0.00000000000E+00  0.00000000000E+00  0.99999998245E-14  0.12500000000E+03  0.12500000000E+03 0.  0.
    3000001    1    3    3    0    0  0.27173480960E+01 -0.16324058437E+01 -0.15331016631E+01  0.36604822391E+01  0.10000000000E+01 0.  1.
    1000022    2    1    0    0    0  0.45236981812E+02  0.51690774882E+01 -0.41631070091E+02  0.62500001173E+02  0.10000013204E+02 0.  0.
    3000022    2    3    3    0    0  0.42519633716E+02  0.68014833319E+01 -0.40097968428E+02  0.58839518934E+02  0.24997877583E+00 0.  0.
    1000022    2    1    0    0    0 -0.45236981812E+02 -0.51690774882E+01  0.41631070091E+02  0.62499998827E+02  0.99999985451E+01 0.  0.
    3000022    2    5    5    0    0 -0.39270658660E+02 -0.39733704486E+01  0.39830610558E+02  0.56075951675E+02  0.25002908744E+00 0.  0.
        -13    1    4    4    0    0  0.20641287454E+02  0.33515588317E+01 -0.19409362428E+02  0.28531212193E+02  0.10500000000E+00 0. -1.
         13    1    4    4    0    0  0.21878346262E+02  0.34499245002E+01 -0.20688606000E+02  0.30308306740E+02  0.10500000000E+00 0.  1.
    3000001    1    5    5    0    0 -0.59663231522E+01 -0.11957070396E+01  0.18004595334E+01  0.64240471520E+01  0.10000000000E+01 0. -1.
        -13    1    6    6    0    0 -0.24713791298E+02 -0.25484173706E+01  0.25121770209E+02  0.35332425262E+02  0.10500000000E+00 0. -1.
         13    1    6    6    0    0 -0.14556867362E+02 -0.14249530780E+01  0.14708840349E+02  0.20743526414E+02  0.10500000000E+00 0.  1.
</event>
<event>
11    0  0.3462209E-009  0.9118800E+02  0.7816531E-02  0.1126479E+00
         25   -1    0    0    0    0  0.00000000000E+00  0.00000000000E+00  0.99999998245E-14  0.12500000000E+03  0.12500000000E+03 0.  0.
    3000001    1    3    3    0    0  0.31843346377E+01 -0.20119667072E+01 -0.19826724444E+02  0.20206112919E+02  0.10000000000E+01 0. -1.
    1000022    2    1    0    0    0  0.41016996877E+01  0.67992748183E+01 -0.61181663950E+02  0.62500002048E+02  0.10000008692E+02 0.  0.
    3000022    2    3    3    0    0  0.91736505002E+00  0.88112415255E+01 -0.41354939507E+02  0.42293889129E+02  0.25000039975E+00 0.  0.
    1000022    2    1    0    0    0 -0.41016996877E+01 -0.67992748183E+01  0.61181663950E+02  0.62499997952E+02  0.99999830978E+01 0.  0.
    3000022    2    5    5    0    0 -0.43870948068E+00 -0.11509813162E+01  0.44021613458E+02  0.44039552410E+02  0.25000200451E+00 0.  0.
        -13    1    4    4    0    0  0.45833781529E+00  0.47932777261E+01 -0.22730242901E+02  0.23234899445E+02  0.10500000000E+00 0. -1.
         13    1    4    4    0    0  0.45902723474E+00  0.40179637993E+01 -0.18624696606E+02  0.19058989684E+02  0.10500000000E+00 0.  1.
    3000001    1    5    5    0    0 -0.36629902070E+01 -0.56482935020E+01  0.17160050492E+02  0.18460445543E+02  0.10000000000E+01 0. -1.
        -13    1    6    6    0    0 -0.28844688629E+00 -0.56667808526E+00  0.22484520042E+02  0.22493754515E+02  0.10500000000E+00 0.  1.
         13    1    6    6    0    0 -0.15026259439E+00 -0.58430323098E+00  0.21537093416E+02  0.21545797895E+02  0.10500000000E+00 0. -1.
</event>
<event>
11    0  0.3462209E-009  0.9118800E+02  0.7816531E-02  0.1126479E+00
         25   -1    0    0    0    0  0.00000000000E+00  0.00000000000E+00  0.99999998245E-14  0.12500000000E+03  0.12500000000E+03 0.  0.
    3000001    1    3    3    0    0 -0.62504320967E+01 -0.47412363990E+01 -0.12657872833E+02  0.14925447016E+02  0.10000000000E+01 0. -1.
    1000022    2    1    0    0    0 -0.39639127885E+02 -0.21655577680E+02 -0.42024105235E+02  0.62499999582E+02  0.10000001142E+02 0.  0.
    3000022    2    3    3    0    0 -0.33388695788E+02 -0.16914341280E+02 -0.29366232402E+02  0.47574552566E+02  0.24999786551E+00 0.  0.
    1000022    2    1    0    0    0  0.39639127885E+02  0.21655577680E+02  0.42024105235E+02  0.62500000418E+02  0.10000006368E+02 0.  0.
    3000022    2    5    5    0    0  0.34522913824E+02  0.17444322285E+02  0.30876050454E+02  0.49492716162E+02  0.25000516976E+00 0.  0.
        -13    1    4    4    0    0 -0.15141900455E+02 -0.77134435845E+01 -0.13402698418E+02  0.21642959853E+02  0.10500000000E+00 0.  1.
         13    1    4    4    0    0 -0.18246795333E+02 -0.92008976960E+01 -0.15963533984E+02  0.25931592712E+02  0.10500000000E+00 0. -1.
    3000001    1    5    5    0    0  0.51162140605E+01  0.42112553948E+01  0.11148054781E+02  0.13007284256E+02  0.10000000000E+01 0.  1.
        -13    1    6    6    0    0  0.20982251338E+02  0.10578512278E+02  0.18682155235E+02  0.30019889115E+02  0.10500000000E+00 0. -1.
         13    1    6    6    0    0  0.13540662486E+02  0.68658100065E+01  0.12193895219E+02  0.19472827048E+02  0.10500000000E+00 0.  1.
</event>
<event>
11    0  0.3462209E-009  0.9118800E+02  0.7816531E-02  0.1126479E+00
         25   -1    0    0    0    0  0.00000000000E+00  0.00000000000E+00  0.99999998245E-14  0.12500000000E+03  0.12500000000E+03 0.  0.
    3000001    1    3    3    0    0  0.23335902056E+01 -0.45444769035E+01  0.91667222844E+00  0.52856599918E+01  0.10000000000E+01 0.  1.
    1000022    2    1    0    0    0  0.50295112382E+02 -0.32996571526E+02  0.13706892212E+02  0.62500007108E+02  0.99999966226E+01 0.  0.
    3000022    2    3    3    0    0  0.47961522176E+02 -0.28452094623E+02  0.12790219983E+02  0.57214347116E+02  0.24998174532E+00 0.  0.
    1000022    2    1    0    0    0 -0.50295112382E+02  0.32996571526E+02 -0.13706892212E+02  0.62499992892E+02  0.99999077695E+01 0.  0.
    3000022    2    5    5    0    0 -0.15926758907E+02  0.94455541923E+01 -0.89062599987E+01  0.20549066708E+02  0.25006424934E+00 0.  0.
        -13    1    4    4    0    0  0.18394789373E+02 -0.10932431444E+02  0.49681341519E+01  0.21967697087E+02  0.10500000000E+00 0. -1.
         13    1    4    4    0    0  0.29566732803E+02 -0.17519663179E+02  0.78220858312E+01  0.35246650030E+02  0.10500000000E+00 0.  1.
    3000001    1    5    5    0    0 -0.34368353474E+02  0.23551017334E+02 -0.48006322129E+01  0.41950926183E+02  0.10000000000E+01 0. -1.
        -13    1    6    6    0    0 -0.52779848977E+01  0.31651124306E+01 -0.30092706632E+01  0.68514083372E+01  0.10500000000E+00 0. -1.
         13    1    6    6    0    0 -0.10648774010E+02  0.62804417616E+01 -0.58969893355E+01  0.13697658371E+02  0.10500000000E+00 0.  1.
</event>
<event>
11    0  0.3462209E-009  0.9118800E+02  0.7816531E-02  0.1126479E+00
         25   -1    0    0    0    0  0.00000000000E+00  0.00000000000E+00  0.99999998245E-14  0.12500000000E+03  0.12500000000E+03 0.  0.
    3000001    1    3    3    0    0 -0.19941085162E+02 -0.24243815030E+02 -0.30953242507E+01  0.31559316800E+02  0.10000000000E+01 0. -1.
    1000022    2    1    0    0    0 -0.37753911947E+02 -0.46231611206E+02 -0.15605455727E+02  0.62499999891E+02  0.99999997963E+01 0.  0.
    3000022    2    3    3    0    0 -0.17812826784E+02 -0.21987796176E+02 -0.12510131477E+02  0.30940683091E+02  0.25000369664E+00 0.  0.
    1000022    2    1    0    0    0  0.37753911947E+02  0.46231611206E+02  0.15605455727E+02  0.62500000109E+02  0.10000001160E+02 0.  0.
    3000022    2    5    5    0    0  0.10061642169E+02  0.81389017674E+01  0.66455760982E+01  0.14550070383E+02  0.25000268578E+00 0.  0.
        -13    1    4    4    0    0 -0.63033006266E+01 -0.77767923441E+01 -0.44880907831E+01  0.10971056550E+02  0.10500000000E+00 0. -1.
         13    1    4    4    0    0 -0.11509526158E+02 -0.14211003832E+02 -0.80220406936E+01  0.19969626541E+02  0.10500000000E+00 0.  1.
    3000001    1    5    5    0    0  0.27692269777E+02  0.38092709439E+02  0.89598796292E+01  0.47949929726E+02  0.10000000000E+01 0.  1.
        -13    1    6    6    0    0  0.74468884280E+01  0.59948877339E+01  0.48826570954E+01  0.10735277896E+02  0.10500000000E+00 0.  1.
         13    1    6    6    0    0  0.26147537413E+01  0.21440140335E+01  0.17629190028E+01  0.38147924863E+01  0.10500000000E+00 0. -1.
</event>
<event>
11    0  0.3462209E-009  0.9118800E+02  0.7816531E-02  0.1126479E+00
         25   -1    0    0    0    0  0.00000000000E+00  0.00000000000E+00  0.99999998245E-14  0.12500000000E+03  0.12500000000E+03 0.  0.
    3000001    1    3    3    0    0  0.26046430763E+02 -0.52828514632E+02 -0.87275356896E+01  0.59551980596E+02  0.10000000000E+01 0.  1.
    1000022    2    1    0    0    0  0.25372421835E+02 -0.55636493395E+02 -0.81896820037E+01  0.62500000114E+02  0.99999967926E+01 0.  0.
    3000022    2    3    3    0    0 -0.67400892800E+00 -0.28079787626E+01  0.53785368592E+00  0.29480195174E+01  0.24999944209E+00 0.  0.
    1000022    2    1    0    0    0 -0.25372421835E+02  0.55636493395E+02  0.81896820037E+01  0.62499999886E+02  0.99999953711E+01 0.  0.
    3000022    2    5    5    0    0 -0.12570240835E+02  0.34067539378E+02  0.75997971328E+00  0.36321457302E+02  0.24999483490E+00 0.  0.
        -13    1    4    4    0    0 -0.22875288710E+00 -0.10763532478E+01  0.26004972236E+00  0.11355681642E+01  0.10500000000E+00 0.  1.
         13    1    4    4    0    0 -0.44525604090E+00 -0.17316255148E+01  0.27780396356E+00  0.18124513532E+01  0.10500000000E+00 0. -1.
    3000001    1    5    5    0    0 -0.12802181000E+02  0.21568954016E+02  0.74297022904E+01  0.26178542584E+02  0.10000000000E+01 0.  1.
        -13    1    6    6    0    0 -0.64190874631E+01  0.17590883772E+02  0.38340208627E+00  0.18729706295E+02  0.10500000000E+00 0. -1.
         13    1    6    6    0    0 -0.61511533719E+01  0.16476655606E+02  0.37657762700E+00  0.17591751007E+02  0.10500000000E+00 0.  1.
</event>
<event>
11    0  0.3462209E-009  0.9118800E+02  0.7816531E-02  0.1126479E+00
         25   -1    0    0    0    0  0.00000000000E+00  0.00000000000E+00  0.99999998245E-14  0.12500000000E+03  0.12500000000E+03 0.  0.
    3000001    1    3    3    0    0  0.26575759847E+02  0.12566457557E+01  0.39062251889E+02  0.47272716155E+02  0.10000000000E+01 0. -1.
    1000022    2    1    0    0    0  0.38108884757E+02  0.50349002862E+01  0.48255700696E+02  0.62500000137E+02  0.10000002461E+02 0.  0.
    3000022    2    3    3    0    0  0.11533124911E+02  0.37782545305E+01  0.91934488062E+01  0.15227283983E+02  0.24999806251E+00 0.  0.
    1000022    2    1    0    0    0 -0.38108884757E+02 -0.50349002862E+01 -0.48255700696E+02  0.62499999863E+02  0.10000000743E+02 0.  0.
    3000022    2    5    5    0    0 -0.21572761898E+02  0.16075545981E+01 -0.29807320632E+02  0.36830790816E+02  0.25000234711E+00 0.  0.
        -13    1    4    4    0    0  0.71199758946E+01  0.22771080491E+01  0.57015034114E+01  0.94019914889E+01  0.10500000000E+00 0. -1.
         13    1    4    4    0    0  0.44131490162E+01  0.15011464814E+01  0.34919453948E+01  0.58252924938E+01  0.10500000000E+00 0.  1.
    3000001    1    5    5    0    0 -0.16536122860E+02 -0.66424548844E+01 -0.18448380063E+02  0.25669209047E+02  0.10000000000E+01 0. -1.
        -13    1    6    6    0    0 -0.80600863757E+01  0.59742925661E+00 -0.11034853563E+02  0.13678484282E+02  0.10500000000E+00 0.  1.
         13    1    6    6    0    0 -0.13512675522E+02  0.10101253415E+01 -0.18772467070E+02  0.23152306534E+02  0.10500000000E+00 0. -1.
</event>
<event>
11    0  0.3462209E-009  0.9118800E+02  0.7816531E-02  0.1126479E+00
         25   -1    0    0    0    0  0.00000000000E+00  0.00000000000E+00  0.99999998245E-14  0.12500000000E+03  0.12500000000E+03 0.  0.
    3000001    1    3    3    0    0 -0.96433033041E+01  0.16494988025E+02  0.32575972518E+02  0.37779252429E+02  0.10000000000E+01 0.  1.
    1000022    2    1    0    0    0 -0.11289658531E+02  0.33056155798E+02  0.50853555754E+02  0.62499999152E+02  0.99999967615E+01 0.  0.
    3000022    2    3    3    0    0 -0.16463552271E+01  0.16561167773E+02  0.18277583236E+02  0.24720746723E+02  0.25001212552E+00 0.  0.
    1000022    2    1    0    0    0  0.11289658531E+02 -0.33056155798E+02 -0.50853555754E+02  0.62500000848E+02  0.10000007365E+02 0.  0.
    3000022    2    5    5    0    0  0.78879395694E+01 -0.88523950169E+01 -0.15840686989E+02  0.19788237749E+02  0.25000151807E+00 0.  0.
        -13    1    4    4    0    0 -0.48680115881E+00  0.47059973785E+01  0.51423826742E+01  0.69884555707E+01  0.10500000000E+00 0. -1.
         13    1    4    4    0    0 -0.11595540683E+01  0.11855170394E+02  0.13135200561E+02  0.17732291152E+02  0.10500000000E+00 0.  1.
    3000001    1    5    5    0    0  0.34017189617E+01 -0.24203760781E+02 -0.35012868765E+02  0.42711763099E+02  0.10000000000E+01 0.  1.
        -13    1    6    6    0    0  0.45503385176E+01 -0.50268907599E+01 -0.91216603902E+01  0.11366218571E+02  0.10500000000E+00 0. -1.
         13    1    6    6    0    0  0.33376010518E+01 -0.38255042570E+01 -0.67190265986E+01  0.84220191780E+01  0.10500000000E+00 0.  1.
</event>
<event>
11    0  0.3462209E-009  0.9118800E+02  0.7816531E-02  0.1126479E+00
         25   -1    0    0    0    0  0.00000000000E+00  0.00000000000E+00  0.99999998245E-14  0.12500000000E+03  0.12500000000E+03 0.  0.
    3000001    1    3    3    0    0 -0.34650878311E+02 -0.13272787554E+02  0.14074680070E+02  0.39698197392E+02  0.10000000000E+01 0. -1.
    1000022    2    1    0    0    0 -0.57090223132E+02 -0.15993529529E+02  0.17063512410E+02  0.62500001098E+02  0.10000005872E+02 0.  0.
    3000022    2    3    3    0    0 -0.22439344822E+02 -0.27207419749E+01  0.29888323403E+01  0.22801803706E+02  0.25000111875E+00 0.  0.
    1000022    2    1    0    0    0  0.57090223132E+02  0.15993529529E+02 -0.17063512410E+02  0.62499998902E+02  0.99999921440E+01 0.  0.
    3000022    2    5    5    0    0  0.22671062895E+02  0.38491757613E+01 -0.10981896602E+02  0.25484462019E+02  0.25000919701E+00 0.  0.
        -13    1    4    4    0    0 -0.13178842280E+02 -0.15688029043E+01  0.18127327977E+01  0.13395523565E+02  0.10500000000E+00 0. -1.
         13    1    4    4    0    0 -0.92605025420E+01 -0.11519390706E+01  0.11760995426E+01  0.94062801408E+01  0.10500000000E+00 0.  1.
    3000001    1    5    5    0    0  0.34419160237E+02  0.12144353767E+02 -0.60816158077E+01  0.37015536882E+02  0.10000000000E+01 0. -1.
        -13    1    6    6    0    0  0.70746441740E+01  0.12423828015E+01 -0.34001825663E+01  0.79477274550E+01  0.10500000000E+00 0.  1.
         13    1    6    6    0    0  0.15596418721E+02  0.26067929597E+01 -0.75817140361E+01  0.17536734564E+02  0.10500000000E+00 0. -1.
</event>
<event>
11    0  0.3462209E-009  0.9118800E+02  0.7816531E-02  0.1126479E+00
         25   -1    0    0    0    0  0.00000000000E+00  0.00000000000E+00  0.99999998245E-14  0.12500000000E+03  0.12500000000E+03 0.  0.
    3000001    1    3    3    0    0  0.72337951731E+00  0.26983160845E+01  0.81751842620E+00  0.30777465775E+01  0.10000000000E+01 0.  1.
    1000022    2    1    0    0    0 -0.18578364999E+02  0.58709704939E+02 -0.37768898509E+01  0.62499999262E+02  0.99999955409E+01 0.  0.
    3000022    2    3    3    0    0 -0.19301744517E+02  0.56011388854E+02 -0.45944082771E+01  0.59422252685E+02  0.25000794845E+00 0.  0.
    1000022    2    1    0    0    0  0.18578364999E+02 -0.58709704939E+02  0.37768898509E+01  0.62500000738E+02  0.10000004760E+02 0.  0.
    3000022    2    5    5    0    0  0.68344303026E+01 -0.10876673916E+02 -0.15840784122E+01  0.12945396111E+02  0.25000603270E+00 0.  0.
        -13    1    4    4    0    0 -0.73842264817E+01  0.21421786067E+02 -0.18184992846E+01  0.22731864940E+02  0.10500000000E+00 0.  1.
         13    1    4    4    0    0 -0.11917518035E+02  0.34589602788E+02 -0.27759089925E+01  0.36690387745E+02  0.10500000000E+00 0. -1.
    3000001    1    5    5    0    0  0.11743934697E+02 -0.47833031022E+02  0.53609682631E+01  0.49554604626E+02  0.10000000000E+01 0.  1.
        -13    1    6    6    0    0  0.16346830918E+01 -0.26391798402E+01 -0.38845947561E+00  0.31303969084E+01  0.10500000000E+00 0.  1.
         13    1    6    6    0    0  0.51997472109E+01 -0.82374940762E+01 -0.11956189365E+01  0.98149992029E+01  0.10500000000E+00 0. -1.
</event>
<event>
11    0  0.3462209E-009  0.9118800E+02  0.7816531E-02  0.1126479E+00
         25   -1    0    0    0    0  0.00000000000E+00  0.00000000000E+00  0.99999998245E-14  0.12500000000E+03  0.12500000000E+03 0.  0.
    3000001    1    3    3    0    0  0.17652066158E+02 -0.54709259067E+01  0.12756427383E+02  0.22477831513E+02  0.10000000000E+01 0. -1.
    1000022    2    1    0    0    0  0.54544997829E+02 -0.56616091771E+01  0.28267284164E+02  0.62499999997E+02  0.10000001950E+02 0.  0.
    3000022    2    3    3    0    0  0.36892931671E+02 -0.19068327033E+00  0.15510856781E+02  0.40022168485E+02  0.25004949153E+00 0.  0.
    1000022    2    1    0    0    0 -0.54544997829E+02  0.56616091771E+01 -0.28267284164E+02  0.62500000003E+02  0.10000001984E+02 0.  0.
    3000022    2    5    5    0    0 -0.10376440154E+02  0.50859105478E+01 -0.57923916609E+01  0.12928700755E+02  0.25001141465E+00 0.  0.
        -13    1    4    4    0    0  0.18847116170E+02 -0.56579386204E-01  0.79825108237E+01  0.20468231316E+02  0.10500000000E+00 0.  1.
         13    1    4    4    0    0  0.18045815501E+02 -0.13410388412E+00  0.75283459572E+01  0.19553937168E+02  0.10500000000E+00 0. -1.
    3000001    1    5    5    0    0 -0.44168557675E+02  0.57569862928E+00 -0.22474892503E+02  0.49571299247E+02  0.10000000000E+01 0.  1.
        -13    1    6    6    0    0 -0.64902952244E+01  0.32089852131E+01 -0.36898681849E+01  0.81269717866E+01  0.10500000000E+00 0.  1.
         13    1    6    6    0    0 -0.38861449293E+01  0.18769253347E+01 -0.21025234760E+01  0.48017289689E+01  0.10500000000E+00 0.  1.
</event>
<event>
11    0  0.3462209E-009  0.9118800E+02  0.7816531E-02  0.1126479E+00
         25   -1    0    0    0    0  0.00000000000E+00  0.00000000000E+00  0.99999998245E-14  0.12500000000E+03  0.12500000000E+03 0.  0.
    3000001    1    3    3    0    0 -0.10223929030E+02  0.35593404173E+02 -0.28462395754E+02  0.46717524736E+02  0.10000000000E+01 0.  1.
    1000022    2    1    0    0    0 -0.86026751858E+01  0.49373859772E+02 -0.35978684297E+02  0.62499999666E+02  0.10000009264E+02 0.  0.
    3000022    2    3    3    0    0  0.16212538444E+01  0.13780455600E+02 -0.75162885431E+01  0.15782474930E+02  0.25000174288E+00 0.  0.
    1000022    2    1    0    0    0  0.86026751858E+01 -0.49373859772E+02  0.35978684297E+02  0.62500000334E+02  0.10000013442E+02 0.  0.
    3000022    2    5    5    0    0  0.68463989440E+01 -0.19527713695E+02  0.19049605043E+02  0.28127472549E+02  0.24995813765E+00 0.  0.
        -13    1    4    4    0    0  0.44635610368E+00  0.35606260923E+01 -0.19276779823E+01  0.40748324314E+01  0.10500000000E+00 0.  1.
         13    1    4    4    0    0  0.11748977407E+01  0.10219829508E+02 -0.55886105608E+01  0.11707642498E+02  0.10500000000E+00 0. -1.
    3000001    1    5    5    0    0  0.17562762418E+01 -0.29846146078E+02  0.16929079254E+02  0.34372527785E+02  0.10000000000E+01 0.  1.
        -13    1    6    6    0    0  0.25977119521E+01 -0.73027904199E+01  0.70695666218E+01  0.10491360852E+02  0.10500000000E+00 0.  1.
         13    1    6    6    0    0  0.42486869919E+01 -0.12224923275E+02  0.11980038421E+02  0.17636111697E+02  0.10500000000E+00 0. -1.
</event>
<event>
11    0  0.3462209E-009  0.9118800E+02  0.7816531E-02  0.1126479E+00
         25   -1    0    0    0    0  0.00000000000E+00  0.00000000000E+00  0.99999998245E-14  0.12500000000E+03  0.12500000000E+03 0.  0.
    3000001    1    3    3    0    0 -0.47881609349E+01 -0.22968887398E+02  0.29667409736E+02  0.37837170532E+02  0.10000000000E+01 0. -1.
    1000022    2    1    0    0    0 -0.11394159819E+02 -0.42395746260E+02  0.43347706942E+02  0.62499998759E+02  0.99999984400E+01 0.  0.
    3000022    2    3    3    0    0 -0.66059988837E+01 -0.19426858862E+02  0.13680297207E+02  0.24662828227E+02  0.24999599781E+00 0.  0.
    1000022    2    1    0    0    0  0.11394159819E+02  0.42395746260E+02 -0.43347706942E+02  0.62500001241E+02  0.10000013954E+02 0.  0.
    3000022    2    5    5    0    0  0.86343369369E+01  0.22257484320E+02 -0.17497742645E+02  0.29600352755E+02  0.25000598829E+00 0.  0.
        -13    1    4    4    0    0 -0.29295951302E+01 -0.84378994159E+01  0.59944138900E+01  0.10757541404E+02  0.10500000000E+00 0. -1.
         13    1    4    4    0    0 -0.36764037535E+01 -0.10988959446E+02  0.76858833165E+01  0.13905286822E+02  0.10500000000E+00 0.  1.
    3000001    1    5    5    0    0  0.27598228817E+01  0.20138261940E+02 -0.25849964297E+02  0.32899648486E+02  0.10000000000E+01 0.  1.
        -13    1    6    6    0    0  0.36006688284E+01  0.94605478964E+01 -0.74286627343E+01  0.12556386325E+02  0.10500000000E+00 0. -1.
         13    1    6    6    0    0  0.50336681085E+01  0.12796936423E+02 -0.10069079910E+02  0.17043966431E+02  0.10500000000E+00 0.  1.
</event>
<event>
11    0  0.3462209E-009  0.9118800E+02  0.7816531E-02  0.1126479E+00
         25   -1    0    0    0    0  0.00000000000E+00  0.00000000000E+00  0.99999998245E-14  0.12500000000E+03  0.12500000000E+03 0.  0.
    3000001    1    3    3    0    0  0.90577661833E+01  0.41734912228E+01  0.85558310036E+01  0.13178141044E+02  0.10000000000E+01 0. -1.
    1000022    2    1    0    0    0  0.33630770049E+02  0.35864434795E+02  0.37268803190E+02  0.62499999217E+02  0.99999916851E+01 0.  0.
    3000022    2    3    3    0    0  0.24573003865E+02  0.31690943572E+02  0.28712972187E+02  0.49321858173E+02  0.24999679687E+00 0.  0.
    1000022    2    1    0    0    0 -0.33630770049E+02 -0.35864434795E+02 -0.37268803190E+02  0.62500000783E+02  0.10000001469E+02 0.  0.
    3000022    2    5    5    0    0 -0.19057022473E+02 -0.25033870229E+02 -0.27860215701E+02  0.42025217126E+02  0.24998292455E+00 0.  0.
        -13    1    4    4    0    0  0.13985171305E+02  0.17943008964E+02  0.16248563822E+02  0.27956456113E+02  0.10500000000E+00 0.  1.
         13    1    4    4    0    0  0.10587832560E+02  0.13747934608E+02  0.12464408365E+02  0.21365402060E+02  0.10500000000E+00 0. -1.
    3000001    1    5    5    0    0 -0.14573747576E+02 -0.10830564566E+02 -0.94085874895E+01  0.20474783656E+02  0.10000000000E+01 0.  1.
        -13    1    6    6    0    0 -0.12058220339E+02 -0.15767045310E+02 -0.17523763693E+02  0.26478174305E+02  0.10500000000E+00 0. -1.
         13    1    6    6    0    0 -0.69988021332E+01 -0.92668249187E+01 -0.10336452008E+02  0.15547042821E+02  0.10500000000E+00 0.  1.
</event>
<event>
11    0  0.3462209E-009  0.9118800E+02  0.7816531E-02  0.1126479E+00
         25   -1    0    0    0    0  0.00000000000E+00  0.00000000000E+00  0.99999998245E-14  0.12500000000E+03  0.12500000000E+03 0.  0.
    3000001    1    3    3    0    0 -0.20029259830E+02 -0.20553946657E+02 -0.34462172986E+02  0.44858414366E+02  0.10000000000E+01 0.  1.
    1000022    2    1    0    0    0 -0.30056932802E+02 -0.22852422294E+02 -0.48791367566E+02  0.62499999738E+02  0.10000000204E+02 0.  0.
    3000022    2    3    3    0    0 -0.10027672972E+02 -0.22984756369E+01 -0.14329194580E+02  0.17641585372E+02  0.25000324768E+00 0.  0.
    1000022    2    1    0    0    0  0.30056932802E+02  0.22852422294E+02  0.48791367566E+02  0.62500000262E+02  0.10000003485E+02 0.  0.
    3000022    2    5    5    0    0  0.10398066151E+02  0.31582677898E+01  0.10155662611E+02  0.14875967916E+02  0.25000647823E+00 0.  0.
        -13    1    4    4    0    0 -0.26857551722E+01 -0.58006235504E+00 -0.38343039213E+01  0.47183328349E+01  0.10500000000E+00 0. -1.
         13    1    4    4    0    0 -0.73419178000E+01 -0.17184132819E+01 -0.10494890659E+02  0.12923252537E+02  0.10500000000E+00 0.  1.
    3000001    1    5    5    0    0  0.19658866651E+02  0.19694154505E+02  0.38635704954E+02  0.47624032347E+02  0.10000000000E+01 0.  1.
        -13    1    6    6    0    0  0.34590197159E+01  0.11042031051E+01  0.34156152422E+01  0.49861342115E+01  0.10500000000E+00 0. -1.
         13    1    6    6    0    0  0.69390464351E+01  0.20540646847E+01  0.67400473691E+01  0.98898337041E+01  0.10500000000E+00 0.  1.
</event>
<event>
11    0  0.3462209E-009  0.9118800E+02  0.7816531E-02  0.1126479E+00
         25   -1    0    0    0    0  0.00000000000E+00  0.00000000000E+00  0.99999998245E-14  0.12500000000E+03  0.12500000000E+03 0.  0.
    3000001    1    3    3    0    0 -0.96509905928E+01 -0.12361104404E+02 -0.73511642477E+01  0.17348721489E+02  0.10000000000E+01 0.  1.
    1000022    2    1    0    0    0 -0.42596496162E+02 -0.31688627012E+02 -0.31426391808E+02  0.62500006624E+02  0.10000107936E+02 0.  0.
    3000022    2    3    3    0    0 -0.32945505569E+02 -0.19327522608E+02 -0.24075227560E+02  0.45151285135E+02  0.24999973758E+00 0.  0.
    1000022    2    1    0    0    0  0.42596496162E+02  0.31688627012E+02  0.31426391808E+02  0.62499993376E+02  0.10000025134E+02 0.  0.
    3000022    2    5    5    0    0  0.29817262748E+02  0.26082614389E+02  0.19694476495E+02  0.44241460546E+02  0.24999132774E+00 0.  0.
        -13    1    4    4    0    0 -0.22259772423E+02 -0.13031040883E+02 -0.16203229099E+02  0.30460813401E+02  0.10500000000E+00 0. -1.
         13    1    4    4    0    0 -0.10685733146E+02 -0.62964817255E+01 -0.78719984615E+01  0.14690471734E+02  0.10500000000E+00 0.  1.
    3000001    1    5    5    0    0  0.12779233414E+02  0.56060126228E+01  0.11731915313E+02  0.18258532830E+02  0.10000000000E+01 0.  1.
        -13    1    6    6    0    0  0.22259741133E+02  0.19455726764E+02  0.14726060452E+02  0.33028612757E+02  0.10500000000E+00 0.  1.
         13    1    6    6    0    0  0.75575216144E+01  0.66268876259E+01  0.49684160432E+01  0.11212847789E+02  0.10500000000E+00 0. -1.
</event>
<event>
11    0  0.3462209E-009  0.9118800E+02  0.7816531E-02  0.1126479E+00
         25   -1    0    0    0    0  0.00000000000E+00  0.00000000000E+00  0.99999998245E-14  0.12500000000E+03  0.12500000000E+03 0.  0.
    3000001    1    3    3    0    0  0.99171589151E+01 -0.46056374650E+00  0.46686047708E+02  0.47740435802E+02  0.10000000000E+01 0.  1.
    1000022    2    1    0    0    0  0.16431150181E+02  0.33328622431E+01  0.59373052241E+02  0.62500000250E+02  0.10000001594E+02 0.  0.
    3000022    2    3    3    0    0  0.65139912657E+01  0.37934259896E+01  0.12687004533E+02  0.14759564449E+02  0.24999150652E+00 0.  0.
    1000022    2    1    0    0    0 -0.16431150181E+02 -0.33328622431E+01 -0.59373052241E+02  0.62499999750E+02  0.99999984663E+01 0.  0.
    3000022    2    5    5    0    0 -0.57155666592E+01 -0.34812620337E+01 -0.37826337192E+02  0.38414595827E+02  0.24999926895E+00 0.  0.
        -13    1    4    4    0    0  0.47390783140E+01  0.27792972496E+01  0.93067132838E+01  0.10807834825E+02  0.10500000000E+00 0. -1.
         13    1    4    4    0    0  0.17749129518E+01  0.10141287401E+01  0.33802912489E+01  0.39517296232E+01  0.10500000000E+00 0. -1.
    3000001    1    5    5    0    0 -0.10715583522E+02  0.14839979061E+00 -0.21546715049E+02  0.24085403922E+02  0.10000000000E+01 0.  1.
        -13    1    6    6    0    0 -0.22504979891E+01 -0.13531014499E+01 -0.15194429814E+02  0.15420030711E+02  0.10500000000E+00 0.  1.
         13    1    6    6    0    0 -0.34650686700E+01 -0.21281605838E+01 -0.22631907378E+02  0.22994565117E+02  0.10500000000E+00 0. -1.
</event>
<event>
11    0  0.3462209E-009  0.9118800E+02  0.7816531E-02  0.1126479E+00
         25   -1    0    0    0    0  0.00000000000E+00  0.00000000000E+00  0.99999998245E-14  0.12500000000E+03  0.12500000000E+03 0.  0.
    3000001    1    3    3    0    0 -0.38443186716E+02 -0.10538001031E+02  0.19877119230E+02  0.44553652370E+02  0.10000000000E+01 0. -1.
    1000022    2    1    0    0    0 -0.55884481196E+02 -0.10163465287E+02  0.24080682076E+02  0.62500001962E+02  0.99999865376E+01 0.  0.
    3000022    2    3    3    0    0 -0.17441294480E+02  0.37453574384E+00  0.42035628452E+01  0.17946349591E+02  0.24998579423E+00 0.  0.
    1000022    2    1    0    0    0  0.55884481196E+02  0.10163465287E+02 -0.24080682076E+02  0.62499998038E+02  0.99999620171E+01 0.  0.
    3000022    2    5    5    0    0  0.21086024479E+02  0.54386050221E+01 -0.14224985397E+02  0.26011758132E+02  0.24999734109E+00 0.  0.
        -13    1    4    4    0    0 -0.99603470727E+01  0.27903934626E+00  0.24072863592E+01  0.10251459866E+02  0.10500000000E+00 0.  1.
         13    1    4    4    0    0 -0.74809474074E+01  0.95496397578E-01  0.17962764860E+01  0.76948897256E+01  0.10500000000E+00 0. -1.
    3000001    1    5    5    0    0  0.34798456718E+02  0.47248602654E+01 -0.98556966790E+01  0.36488239907E+02  0.10000000000E+01 0. -1.
        -13    1    6    6    0    0  0.15487314024E+02  0.40157089826E+01 -0.10483444962E+02  0.19128420154E+02  0.10500000000E+00 0. -1.
         13    1    6    6    0    0  0.55987104549E+01  0.14228960395E+01 -0.37415404343E+01  0.68833379780E+01  0.10500000000E+00 0.  1.
</event>
<event>
11    0  0.3462209E-009  0.9118800E+02  0.7816531E-02  0.1126479E+00
         25   -1    0    0    0    0  0.00000000000E+00  0.00000000000E+00  0.99999998245E-14  0.12500000000E+03  0.12500000000E+03 0.  0.
    3000001    1    3    3    0    0  0.31911490148E+02  0.16393087598E+02 -0.55216712596E+01  0.36312055546E+02  0.10000000000E+01 0.  1.
    1000022    2    1    0    0    0  0.57240121840E+02  0.22742523783E+02 -0.35491032847E+01  0.62500000239E+02  0.99999979677E+01 0.  0.
    3000022    2    3    3    0    0  0.25328631693E+02  0.63494361851E+01  0.19725679749E+01  0.26187944693E+02  0.24999905769E+00 0.  0.
    1000022    2    1    0    0    0 -0.57240121840E+02 -0.22742523783E+02  0.35491032847E+01  0.62499999761E+02  0.99999949849E+01 0.  0.
    3000022    2    5    5    0    0 -0.76118383249E+01 -0.35950438907E+01  0.39338997941E+01  0.92952952768E+01  0.25004685901E+00 0.  0.
        -13    1    4    4    0    0  0.11431240468E+02  0.29047028595E+01  0.83590612363E+00  0.11824564321E+02  0.10500000000E+00 0. -1.
         13    1    4    4    0    0  0.13897391225E+02  0.34447333255E+01  0.11366618513E+01  0.14363380372E+02  0.10500000000E+00 0.  1.
    3000001    1    5    5    0    0 -0.49628283516E+02 -0.19147479893E+02 -0.38479650939E+00  0.53204704485E+02  0.10000000000E+01 0.  1.
        -13    1    6    6    0    0 -0.36560443818E+01 -0.17473856232E+01  0.19655091439E+01  0.45049160073E+01  0.10500000000E+00 0. -1.
         13    1    6    6    0    0 -0.39557939431E+01 -0.18476582675E+01  0.19683906502E+01  0.47903792695E+01  0.10500000000E+00 0.  1.
</event>
<event>
11    0  0.3462209E-009  0.9118800E+02  0.7816531E-02  0.1126479E+00
         25   -1    0    0    0    0  0.00000000000E+00  0.00000000000E+00  0.99999998245E-14  0.12500000000E+03  0.12500000000E+03 0.  0.
    3000001    1    3    3    0    0  0.24757226430E+01 -0.75148857476E+01 -0.90584316771E+00  0.80264102966E+01  0.10000000000E+01 0. -1.
    1000022    2    1    0    0    0  0.16884799355E+02 -0.56617296854E+02  0.17766108632E+02  0.62500005261E+02  0.10000064469E+02 0.  0.
    3000022    2    3    3    0    0  0.14409076712E+02 -0.49102411107E+02  0.18671951800E+02  0.54473594965E+02  0.24999234620E+00 0.  0.
    1000022    2    1    0    0    0 -0.16884799355E+02  0.56617296854E+02 -0.17766108632E+02  0.62499994739E+02  0.99999987044E+01 0.  0.
    3000022    2    5    5    0    0 -0.23988165498E+00  0.81072113488E+01 -0.53600586604E+01  0.97250787570E+01  0.25001784979E+00 0.  0.
        -13    1    4    4    0    0  0.10521506449E+02 -0.35969956060E+02  0.13660699929E+02  0.39889416948E+02  0.10500000000E+00 0.  1.
         13    1    4    4    0    0  0.38875702624E+01 -0.13132455047E+02  0.50112518712E+01  0.14584178016E+02  0.10500000000E+00 0. -1.
    3000001    1    5    5    0    0 -0.16644917700E+02  0.48510085506E+02 -0.12406049972E+02  0.52774915982E+02  0.10000000000E+01 0.  1.
        -13    1    6    6    0    0 -0.33725762965E-01  0.30017566967E+01 -0.20113910981E+01  0.36150241829E+01  0.10500000000E+00 0. -1.
         13    1    6    6    0    0 -0.20615589202E+00  0.51054546520E+01 -0.33486675623E+01  0.61100545741E+01  0.10500000000E+00 0.  1.
</event>
<event>
11    0  0.3462209E-009  0.9118800E+02  0.7816531E-02  0.1126479E+00
         25   -1    0    0    0    0  0.00000000000E+00  0.00000000000E+00  0.99999998245E-14  0.12500000000E+03  0.12500000000E+03 0.  0.
    3000001    1    3    3    0    0  0.22771246118E+01 -0.79869620593E+01 -0.13347407501E+02  0.15752147359E+02  0.10000000000E+01 0. -1.
    1000022    2    1    0    0    0 -0.37299990399E+01 -0.40535876050E+02 -0.46359251187E+02  0.62499999310E+02  0.99999801546E+01 0.  0.
    3000022    2    3    3    0    0 -0.60071236517E+01 -0.32548913991E+02 -0.33011843686E+02  0.46747851950E+02  0.25000371813E+00 0.  0.
    1000022    2    1    0    0    0  0.37299990399E+01  0.40535876050E+02  0.46359251187E+02  0.62500000690E+02  0.99999887834E+01 0.  0.
    3000022    2    5    5    0    0 -0.57687353489E+00  0.13696456292E+02  0.22339861784E+02  0.26211783985E+02  0.24999427289E+00 0.  0.
        -13    1    4    4    0    0 -0.31881526118E+01 -0.16959400793E+02 -0.17160204151E+02  0.24336582008E+02  0.10500000000E+00 0.  1.
         13    1    4    4    0    0 -0.28189710398E+01 -0.15589513198E+02 -0.15851639535E+02  0.22411269942E+02  0.10500000000E+00 0. -1.
    3000001    1    5    5    0    0  0.43068725748E+01  0.26839419758E+02  0.24019389403E+02  0.36288216705E+02  0.10000000000E+01 0. -1.
        -13    1    6    6    0    0 -0.36539374171E+00  0.93147253164E+01  0.15272028223E+02  0.17892554075E+02  0.10500000000E+00 0.  1.
         13    1    6    6    0    0 -0.21147979318E+00  0.43817309760E+01  0.70678335611E+01  0.83192299101E+01  0.10500000000E+00 0. -1.
</event>
<event>
11    0  0.3462209E-009  0.9118800E+02  0.7816531E-02  0.1126479E+00
         25   -1    0    0    0    0  0.00000000000E+00  0.00000000000E+00  0.99999998245E-14  0.12500000000E+03  0.12500000000E+03 0.  0.
    3000001    1    3    3    0    0  0.63273899225E+01  0.46522198176E+02  0.38092249695E+02  0.60467927641E+02  0.10000000000E+01 0. -1.
    1000022    2    1    0    0    0  0.66496425602E+01  0.46428076207E+02  0.40080743608E+02  0.62500000644E+02  0.10000003295E+02 0.  0.
    3000022    2    3    3    0    0  0.32225263767E+00 -0.94121969001E-01  0.19884939127E+01  0.20320730032E+01  0.25001388340E+00 0.  0.
    1000022    2    1    0    0    0 -0.66496425602E+01 -0.46428076207E+02 -0.40080743608E+02  0.62499999356E+02  0.99999952459E+01 0.  0.
    3000022    2    5    5    0    0 -0.87719110348E+01 -0.35710114221E+02 -0.28301817911E+02  0.46402737999E+02  0.25003182134E+00 0.  0.
        -13    1    4    4    0    0  0.93226918640E-01  0.58227642603E-02  0.51360165294E+00  0.53248175635E+00  0.10500000000E+00 0. -1.
         13    1    4    4    0    0  0.22902571903E+00 -0.99944733261E-01  0.14748922597E+01  0.14995912468E+01  0.10500000000E+00 0.  1.
    3000001    1    5    5    0    0  0.21222684746E+01 -0.10717961985E+02 -0.11778925697E+02  0.16097261357E+02  0.10000000000E+01 0.  1.
        -13    1    6    6    0    0 -0.42114305670E+01 -0.17342654954E+02 -0.13797166087E+02  0.22558294380E+02  0.10500000000E+00 0. -1.
         13    1    6    6    0    0 -0.45604804678E+01 -0.18367459267E+02 -0.14504651823E+02  0.23844443620E+02  0.10500000000E+00 0.  1.
</event>
<event>
11    0  0.3462209E-009  0.9118800E+02  0.7816531E-02  0.1126479E+00
         25   -1    0    0    0    0  0.00000000000E+00  0.00000000000E+00  0.99999998245E-14  0.12500000000E+03  0.12500000000E+03 0.  0.
    3000001    1    3    3    0    0  0.17383534786E+02 -0.16322139057E+02 -0.75633390462E+01  0.25036046065E+02  0.10000000000E+01 0.  1.
    1000022    2    1    0    0    0  0.49550872627E+02 -0.35370376538E+02 -0.99948871583E+01  0.62500000768E+02  0.99999906069E+01 0.  0.
    3000022    2    3    3    0    0  0.32167337841E+02 -0.19048237481E+02 -0.24315481120E+01  0.37463954703E+02  0.25000165013E+00 0.  0.
    1000022    2    1    0    0    0 -0.49550872627E+02  0.35370376538E+02  0.99948871583E+01  0.62499999232E+02  0.99999810096E+01 0.  0.
    3000022    2    5    5    0    0 -0.20029391287E+02  0.10721889272E+02 -0.12228682963E+00  0.22720318558E+02  0.24999287941E+00 0.  0.
        -13    1    4    4    0    0  0.11766450736E+02 -0.70217156035E+01 -0.92766332842E+00  0.13734097611E+02  0.10500000000E+00 0. -1.
         13    1    4    4    0    0  0.20400887105E+02 -0.12026521878E+02 -0.15038847836E+01  0.23729857092E+02  0.10500000000E+00 0.  1.
    3000001    1    5    5    0    0 -0.29521481340E+02  0.24648487267E+02  0.10117173988E+02  0.39779680674E+02  0.10000000000E+01 0. -1.
        -13    1    6    6    0    0 -0.11924343370E+02  0.63110361813E+01 -0.71293893860E-01  0.13492043963E+02  0.10500000000E+00 0. -1.
         13    1    6    6    0    0 -0.81050479165E+01  0.44108530902E+01 -0.50992935775E-01  0.92282745945E+01  0.10500000000E+00 0.  1.
</event>
<event>
11    0  0.3462209E-009  0.9118800E+02  0.7816531E-02  0.1126479E+00
         25   -1    0    0    0    0  0.00000000000E+00  0.00000000000E+00  0.99999998245E-14  0.12500000000E+03  0.12500000000E+03 0.  0.
    3000001    1    3    3    0    0 -0.80872235973E+00 -0.64063658556E+00 -0.29384246349E+01  0.32708999411E+01  0.10000000000E+01 0.  1.
    1000022    2    1    0    0    0  0.17652240358E+02  0.67581865653E+01 -0.58727976540E+02  0.62500000339E+02  0.10000006934E+02 0.  0.
    3000022    2    3    3    0    0  0.18460962718E+02  0.73988231509E+01 -0.55789551905E+02  0.59229100398E+02  0.25000757085E+00 0.  0.
    1000022    2    1    0    0    0 -0.17652240358E+02 -0.67581865653E+01  0.58727976540E+02  0.62499999661E+02  0.10000002692E+02 0.  0.
    3000022    2    5    5    0    0 -0.12513606541E+02 -0.53576388929E+01  0.26225376627E+02  0.29548731212E+02  0.24998770367E+00 0.  0.
        -13    1    4    4    0    0  0.10794149232E+02  0.42574649197E+01 -0.32517050420E+02  0.34525487081E+02  0.10500000000E+00 0. -1.
         13    1    4    4    0    0  0.76668134859E+01  0.31413582312E+01 -0.23272501485E+02  0.24703613317E+02  0.10500000000E+00 0.  1.
    3000001    1    5    5    0    0 -0.51386338173E+01 -0.14005476724E+01  0.32502599912E+02  0.32951268448E+02  0.10000000000E+01 0. -1.
        -13    1    6    6    0    0 -0.41745050688E+01 -0.18021237400E+01  0.86488259257E+01  0.97717632717E+01  0.10500000000E+00 0.  1.
         13    1    6    6    0    0 -0.83391014720E+01 -0.35555151529E+01  0.17576550702E+02  0.19776967941E+02  0.10500000000E+00 0. -1.
</event>
<event>
11    0  0.3462209E-009  0.9118800E+02  0.7816531E-02  0.1126479E+00
         25   -1    0    0    0    0  0.00000000000E+00  0.00000000000E+00  0.99999998245E-14  0.12500000000E+03  0.12500000000E+03 0.  0.
    3000001    1    3    3    0    0  0.17527694107E+02 -0.14524580344E+02 -0.18232970189E+02  0.29182609492E+02  0.10000000000E+01 0.  1.
    1000022    2    1    0    0    0  0.33925431579E+02 -0.39255896732E+02 -0.33380978506E+02  0.62499999263E+02  0.99999922891E+01 0.  0.
    3000022    2    3    3    0    0  0.16397737472E+02 -0.24731316389E+02 -0.15148008317E+02  0.33317389771E+02  0.25000130786E+00 0.  0.
    1000022    2    1    0    0    0 -0.33925431579E+02  0.39255896732E+02  0.33380978506E+02  0.62500000737E+02  0.10000001497E+02 0.  0.
    3000022    2    5    5    0    0 -0.24723072679E+02  0.28110869386E+02  0.29028269802E+02  0.47372505341E+02  0.25002848836E+00 0.  0.
        -13    1    4    4    0    0  0.11131727267E+02 -0.16726252385E+02 -0.10213884497E+02  0.22539239834E+02  0.10500000000E+00 0. -1.
         13    1    4    4    0    0  0.52660102050E+01 -0.80050640037E+01 -0.49341238203E+01  0.10778149937E+02  0.10500000000E+00 0.  1.
    3000001    1    5    5    0    0 -0.92023589003E+01  0.11145027347E+02  0.43527087040E+01  0.15127495396E+02  0.10000000000E+01 0.  1.
        -13    1    6    6    0    0 -0.14812530604E+02  0.16754414773E+02  0.17308557181E+02  0.28279297268E+02  0.10500000000E+00 0.  1.
         13    1    6    6    0    0 -0.99105420745E+01  0.11356454613E+02  0.11719712621E+02  0.19093208073E+02  0.10500000000E+00 0. -1.
</event>
<event>
11    0  0.3462209E-009  0.9118800E+02  0.7816531E-02  0.1126479E+00
         25   -1    0    0    0    0  0.00000000000E+00  0.00000000000E+00  0.99999998245E-14  0.12500000000E+03  0.12500000000E+03 0.  0.
    3000001    1    3    3    0    0  0.10256372587E+02 -0.12119940636E+02 -0.63131215058E+01  0.17115538052E+02  0.10000000000E+01 0. -1.
    1000022    2    1    0    0    0  0.23717679987E+02 -0.52387957619E+02 -0.22343310000E+02  0.62500000462E+02  0.10000005430E+02 0.  0.
    3000022    2    3    3    0    0  0.13461307400E+02 -0.40268016982E+02 -0.16030188494E+02  0.45384462410E+02  0.24999296952E+00 0.  0.
    1000022    2    1    0    0    0 -0.23717679987E+02  0.52387957619E+02  0.22343310000E+02  0.62499999538E+02  0.99999996538E+01 0.  0.
    3000022    2    5    5    0    0 -0.17532958730E+02  0.43889479763E+02  0.14805953848E+02  0.49527465451E+02  0.24997778631E+00 0.  0.
        -13    1    4    4    0    0  0.83067012230E+01 -0.24659843455E+02 -0.98083211028E+01  0.27808692027E+02  0.10500000000E+00 0.  1.
         13    1    4    4    0    0  0.51546061774E+01 -0.15608173527E+02 -0.62218673917E+01  0.17575770383E+02  0.10500000000E+00 0. -1.
    3000001    1    5    5    0    0 -0.61847212573E+01  0.84984778551E+01  0.75373561519E+01  0.12972534087E+02  0.10000000000E+01 0.  1.
        -13    1    6    6    0    0 -0.64774279699E+01  0.16276060420E+02  0.55455822521E+01  0.18374757779E+02  0.10500000000E+00 0.  1.
         13    1    6    6    0    0 -0.11055530760E+02  0.27613419343E+02  0.92603715962E+01  0.31152707672E+02  0.10500000000E+00 0. -1.
</event>
<event>
11    0  0.3462209E-009  0.9118800E+02  0.7816531E-02  0.1126479E+00
         25   -1    0    0    0    0  0.00000000000E+00  0.00000000000E+00  0.99999998245E-14  0.12500000000E+03  0.12500000000E+03 0.  0.
    3000001    1    3    3    0    0  0.18115610330E+02 -0.67852258926E+01 -0.39443059822E+02  0.43942799139E+02  0.10000000000E+01 0. -1.
    1000022    2    1    0    0    0  0.26602086019E+02 -0.32820878266E+01 -0.55568038783E+02  0.62499999648E+02  0.99999970376E+01 0.  0.
    3000022    2    3    3    0    0  0.84864756891E+01  0.35031380660E+01 -0.16124978961E+02  0.18557200509E+02  0.24999662652E+00 0.  0.
    1000022    2    1    0    0    0 -0.26602086019E+02  0.32820878266E+01  0.55568038783E+02  0.62500000352E+02  0.10000001436E+02 0.  0.
    3000022    2    5    5    0    0 -0.57933721092E+01  0.45722917862E+01  0.10540156951E+02  0.12869592907E+02  0.25000094139E+00 0.  0.
        -13    1    4    4    0    0  0.60673787924E+01  0.24746381054E+01 -0.11569234663E+02  0.13296433163E+02  0.10500000000E+00 0.  1.
         13    1    4    4    0    0  0.24190968967E+01  0.10284999606E+01 -0.45557442980E+01  0.52607673465E+01  0.10500000000E+00 0. -1.
    3000001    1    5    5    0    0 -0.20808713910E+02 -0.12902039596E+01  0.45027881832E+02  0.49630407445E+02  0.10000000000E+01 0. -1.
        -13    1    6    6    0    0 -0.24811476270E+01  0.20193189244E+01  0.44906145517E+01  0.55145613168E+01  0.10500000000E+00 0.  1.
         13    1    6    6    0    0 -0.33122244823E+01  0.25529728618E+01  0.60495423993E+01  0.73550315903E+01  0.10500000000E+00 0. -1.
</event>
<event>
11    0  0.3462209E-009  0.9118800E+02  0.7816531E-02  0.1126479E+00
         25   -1    0    0    0    0  0.00000000000E+00  0.00000000000E+00  0.99999998245E-14  0.12500000000E+03  0.12500000000E+03 0.  0.
    3000001    1    3    3    0    0 -0.19717998916E+00  0.14785349386E+01  0.21106636770E+01  0.27712536279E+01  0.10000000000E+01 0. -1.
    1000022    2    1    0    0    0  0.32308225135E+02  0.15728172239E+02  0.50150304285E+02  0.62499999534E+02  0.10000005429E+02 0.  0.
    3000022    2    3    3    0    0  0.32505405124E+02  0.14249637301E+02  0.48039640608E+02  0.59728745906E+02  0.24998469004E+00 0.  0.
    1000022    2    1    0    0    0 -0.32308225135E+02 -0.15728172239E+02 -0.50150304285E+02  0.62500000466E+02  0.10000011252E+02 0.  0.
    3000022    2    5    5    0    0 -0.21889579728E+02 -0.58218352536E+01 -0.27160087350E+02  0.35366372635E+02  0.25000415397E+00 0.  0.
        -13    1    4    4    0    0  0.95374579574E+01  0.42078698092E+01  0.14049013931E+02  0.17494430258E+02  0.10500000000E+00 0.  1.
         13    1    4    4    0    0  0.22967947167E+02  0.10041767492E+02  0.33990626676E+02  0.42234315648E+02  0.10500000000E+00 0. -1.
    3000001    1    5    5    0    0 -0.10418645406E+02 -0.99063369858E+01 -0.22990216934E+02  0.27133627831E+02  0.10000000000E+01 0.  1.
        -13    1    6    6    0    0 -0.99281985109E+01 -0.26510998511E+01 -0.12425208005E+02  0.16124337972E+02  0.10500000000E+00 0. -1.
         13    1    6    6    0    0 -0.11961381217E+02 -0.31707354025E+01 -0.14734879346E+02  0.19242034662E+02  0.10500000000E+00 0.  1.
</event>
<event>
11    0  0.3462209E-009  0.9118800E+02  0.7816531E-02  0.1126479E+00
         25   -1    0    0    0    0  0.00000000000E+00  0.00000000000E+00  0.99999998245E-14  0.12500000000E+03  0.12500000000E+03 0.  0.
    3000001    1    3    3    0    0 -0.21151199088E+00  0.14104317804E+00 -0.22759997859E+01  0.24989608892E+01  0.10000000000E+01 0. -1.
    1000022    2    1    0    0    0  0.11590342565E+02  0.40569641991E+02 -0.45011310304E+02  0.62499999492E+02  0.99999994564E+01 0.  0.
    3000022    2    3    3    0    0  0.11801854556E+02  0.40428598813E+02 -0.42735310518E+02  0.60001038603E+02  0.24999072366E+00 0.  0.
    1000022    2    1    0    0    0 -0.11590342565E+02 -0.40569641991E+02  0.45011310304E+02  0.62500000508E+02  0.10000005807E+02 0.  0.
    3000022    2    5    5    0    0 -0.12553838859E+02 -0.39799039750E+02  0.43833922008E+02  0.60523034114E+02  0.25000929218E+00 0.  0.
        -13    1    4    4    0    0  0.30072667485E+01  0.10202807929E+02 -0.10796396222E+02  0.15156323410E+02  0.10500000000E+00 0. -1.
         13    1    4    4    0    0  0.87945878070E+01  0.30225790884E+02 -0.31938914296E+02  0.44844715192E+02  0.10500000000E+00 0.  1.
    3000001    1    5    5    0    0  0.96349629419E+00 -0.77060224120E+00  0.11773882964E+01  0.19769663941E+01  0.10000000000E+01 0.  1.
        -13    1    6    6    0    0 -0.77158151875E+01 -0.24654552393E+02  0.27108157609E+02  0.37446548461E+02  0.10500000000E+00 0. -1.
         13    1    6    6    0    0 -0.48380236713E+01 -0.15144487357E+02  0.16725764399E+02  0.23076485653E+02  0.10500000000E+00 0.  1.
</event>
<event>
11    0  0.3462209E-009  0.9118800E+02  0.7816531E-02  0.1126479E+00
         25   -1    0    0    0    0  0.00000000000E+00  0.00000000000E+00  0.99999998245E-14  0.12500000000E+03  0.12500000000E+03 0.  0.
    3000001    1    3    3    0    0  0.21523563123E+02 -0.23130736209E+02 -0.38359958319E+02  0.49706952525E+02  0.10000000000E+01 0. -1.
    1000022    2    1    0    0    0  0.23712939601E+02 -0.32534831989E+02 -0.46748594458E+02  0.62500001342E+02  0.10000014345E+02 0.  0.
    3000022    2    3    3    0    0  0.21893764781E+01 -0.94040957803E+01 -0.83886361387E+01  0.12793048817E+02  0.24998993103E+00 0.  0.
    1000022    2    1    0    0    0 -0.23712939601E+02  0.32534831989E+02  0.46748594458E+02  0.62499998658E+02  0.99999975699E+01 0.  0.
    3000022    2    5    5    0    0 -0.91915666300E+01  0.20657099872E+02  0.27511427225E+02  0.35610978662E+02  0.25000213704E+00 0.  0.
        -13    1    4    4    0    0  0.11804165670E+01 -0.51032758140E+01 -0.46386254723E+01  0.69974765865E+01  0.10500000000E+00 0.  1.
         13    1    4    4    0    0  0.10089599111E+01 -0.43008199663E+01 -0.37500106664E+01  0.57955722308E+01  0.10500000000E+00 0. -1.
    3000001    1    5    5    0    0 -0.14521372971E+02  0.11877732117E+02  0.19237167233E+02  0.26889019996E+02  0.10000000000E+01 0. -1.
        -13    1    6    6    0    0 -0.55757285237E+01  0.12588716077E+02  0.16843287518E+02  0.21754812811E+02  0.10500000000E+00 0.  1.
         13    1    6    6    0    0 -0.36158381062E+01  0.80683837946E+01  0.10668139708E+02  0.13856165851E+02  0.10500000000E+00 0. -1.
</event>
<event>
11    0  0.3462209E-009  0.9118800E+02  0.7816531E-02  0.1126479E+00
         25   -1    0    0    0    0  0.00000000000E+00  0.00000000000E+00  0.99999998245E-14  0.12500000000E+03  0.12500000000E+03 0.  0.
    3000001    1    3    3    0    0  0.41399677856E+01 -0.36111967335E+01  0.10502810137E+01  0.56818276392E+01  0.10000000000E+01 0. -1.
    1000022    2    1    0    0    0  0.56721684981E+02 -0.13461807889E+02  0.20191092166E+02  0.62499999685E+02  0.99999969555E+01 0.  0.
    3000022    2    3    3    0    0  0.52581717195E+02 -0.98506111554E+01  0.19140811152E+02  0.56818172046E+02  0.24999952318E+00 0.  0.
    1000022    2    1    0    0    0 -0.56721684981E+02  0.13461807889E+02 -0.20191092166E+02  0.62500000315E+02  0.10000000889E+02 0.  0.
    3000022    2    5    5    0    0 -0.35856530892E+02  0.12746440511E+02 -0.15420493304E+02  0.41061133294E+02  0.25000069622E+00 0.  0.
        -13    1    4    4    0    0  0.28570074648E+02 -0.53513284410E+01  0.10471105830E+02  0.30895646357E+02  0.10500000000E+00 0. -1.
         13    1    4    4    0    0  0.24011642547E+02 -0.44992827144E+01  0.86697053224E+01  0.25922525689E+02  0.10500000000E+00 0.  1.
    3000001    1    5    5    0    0 -0.20865154089E+02  0.71536737838E+00 -0.47705988624E+01  0.21438867021E+02  0.10000000000E+01 0. -1.
        -13    1    6    6    0    0 -0.19783085767E+02  0.70784135426E+01 -0.85687666191E+01  0.22691610942E+02  0.10500000000E+00 0. -1.
         13    1    6    6    0    0 -0.16073445125E+02  0.56680269680E+01 -0.68517266845E+01  0.18369522352E+02  0.10500000000E+00 0.  1.
</event>
<event>
11    0  0.3462209E-009  0.9118800E+02  0.7816531E-02  0.1126479E+00
         25   -1    0    0    0    0  0.00000000000E+00  0.00000000000E+00  0.99999998245E-14  0.12500000000E+03  0.12500000000E+03 0.  0.
    3000001    1    3    3    0    0 -0.40068965687E+02  0.31482485623E+02 -0.15534797369E+02  0.53282256348E+02  0.10000000000E+01 0. -1.
    1000022    2    1    0    0    0 -0.48941340255E+02  0.33505927949E+02 -0.16980814655E+02  0.62500001156E+02  0.10000004222E+02 0.  0.
    3000022    2    3    3    0    0 -0.88723745679E+01  0.20234423265E+01 -0.14460172856E+01  0.92177448079E+01  0.25000806562E+00 0.  0.
    1000022    2    1    0    0    0  0.48941340255E+02 -0.33505927949E+02  0.16980814655E+02  0.62499998844E+02  0.99999897752E+01 0.  0.
    3000022    2    5    5    0    0  0.15600565518E+02 -0.10022781859E+02  0.10145641349E+02  0.21138361975E+02  0.25001589249E+00 0.  0.
        -13    1    4    4    0    0 -0.62557894978E+01  0.14545822757E+01 -0.98499522434E+00  0.64986115771E+01  0.10500000000E+00 0. -1.
         13    1    4    4    0    0 -0.26165850701E+01  0.56886005076E+00 -0.46102206130E+00  0.27191332309E+01  0.10500000000E+00 0.  1.
    3000001    1    5    5    0    0  0.33340774737E+02 -0.23483146090E+02  0.68351733062E+01  0.41361636869E+02  0.10000000000E+01 0.  1.
        -13    1    6    6    0    0  0.52651655882E+01 -0.33972122638E+01  0.33683056714E+01  0.71147401873E+01  0.10500000000E+00 0. -1.
         13    1    6    6    0    0  0.10335399929E+02 -0.66255695950E+01  0.67773356775E+01  0.14023621788E+02  0.10500000000E+00 0.  1.
</event>
<event>
11    0  0.3462209E-009  0.9118800E+02  0.7816531E-02  0.1126479E+00
         25   -1    0    0    0    0  0.00000000000E+00  0.00000000000E+00  0.99999998245E-14  0.12500000000E+03  0.12500000000E+03 0.  0.
    3000001    1    3    3    0    0 -0.25860902304E+02  0.10401812405E+02 -0.41774261304E+02  0.50230198853E+02  0.10000000000E+01 0. -1.
    1000022    2    1    0    0    0 -0.33980269167E+02  0.85425771563E+01 -0.50780069968E+02  0.62499998935E+02  0.10000002188E+02 0.  0.
    3000022    2    3    3    0    0 -0.81193668628E+01 -0.18592352487E+01 -0.90058086637E+01  0.12269800082E+02  0.25006078406E+00 0.  0.
    1000022    2    1    0    0    0  0.33980269167E+02 -0.85425771563E+01  0.50780069968E+02  0.62500001065E+02  0.10000015502E+02 0.  0.
    3000022    2    5    5    0    0  0.13841679124E+02  0.39133841647E-01  0.25727639330E+02  0.29215877921E+02  0.24996960424E+00 0.  0.
        -13    1    4    4    0    0 -0.51747982127E+01 -0.12059726892E+01 -0.56630661754E+01  0.77662249630E+01  0.10500000000E+00 0.  1.
         13    1    4    4    0    0 -0.29445686501E+01 -0.65326255951E+00 -0.33427424883E+01  0.45035751188E+01  0.10500000000E+00 0. -1.
    3000001    1    5    5    0    0  0.20138590043E+02 -0.85817109979E+01  0.25052430639E+02  0.33284123144E+02  0.10000000000E+01 0. -1.
        -13    1    6    6    0    0  0.60183012489E+01  0.77207983778E-01  0.11130990866E+02  0.12654481169E+02  0.10500000000E+00 0. -1.
         13    1    6    6    0    0  0.78233778756E+01 -0.38074142131E-01  0.14596648463E+02  0.16561396752E+02  0.10500000000E+00 0.  1.
</event>
<event>
11    0  0.3462209E-009  0.9118800E+02  0.7816531E-02  0.1126479E+00
         25   -1    0    0    0    0  0.00000000000E+00  0.00000000000E+00  0.99999998245E-14  0.12500000000E+03  0.12500000000E+03 0.  0.
    3000001    1    3    3    0    0  0.34257890828E+01 -0.59410677808E+00  0.13134876020E+01  0.38489275629E+01  0.10000000000E+01 0.  1.
    1000022    2    1    0    0    0  0.60523204986E+02  0.48855835026E+01 -0.10923496892E+02  0.62499999128E+02  0.99999919375E+01 0.  0.
    3000022    2    3    3    0    0  0.57097415903E+02  0.54796902807E+01 -0.12236984494E+02  0.58651071565E+02  0.24999574674E+00 0.  0.
    1000022    2    1    0    0    0 -0.60523204986E+02 -0.48855835026E+01  0.10923496892E+02  0.62500000872E+02  0.10000002835E+02 0.  0.
    3000022    2    5    5    0    0 -0.10955999406E+02 -0.47069152371E+01  0.13066591156E+01  0.11998284464E+02  0.24999598405E+00 0.  0.
        -13    1    4    4    0    0  0.20548190758E+02  0.19674584416E+01 -0.43445838295E+01  0.21094678708E+02  0.10500000000E+00 0. -1.
         13    1    4    4    0    0  0.36549225145E+02  0.35122318391E+01 -0.78924006644E+01  0.37556392857E+02  0.10500000000E+00 0.  1.
    3000001    1    5    5    0    0 -0.49567205580E+02 -0.17866826550E+00  0.96168377762E+01  0.50501716408E+02  0.10000000000E+01 0. -1.
        -13    1    6    6    0    0 -0.27878183063E+01 -0.11852182017E+01  0.30568674638E+00  0.30464967555E+01  0.10500000000E+00 0. -1.
         13    1    6    6    0    0 -0.81681810999E+01 -0.35216970355E+01  0.10009723692E+01  0.89517877083E+01  0.10500000000E+00 0.  1.
</event>
<event>
11    0  0.3462209E-009  0.9118800E+02  0.7816531E-02  0.1126479E+00
         25   -1    0    0    0    0  0.00000000000E+00  0.00000000000E+00  0.99999998245E-14  0.12500000000E+03  0.12500000000E+03 0.  0.
    3000001    1    3    3    0    0 -0.47730517355E+02 -0.31042209467E+02 -0.11206945037E+02  0.58038062275E+02  0.10000000000E+01 0.  1.
    1000022    2    1    0    0    0 -0.51634886141E+02 -0.32390063797E+02 -0.95379391351E+01  0.62499999496E+02  0.99999977230E+01 0.  0.
    3000022    2    3    3    0    0 -0.39043687854E+01 -0.13478543294E+01  0.16690059014E+01  0.44619372201E+01  0.24999230285E+00 0.  0.
    1000022    2    1    0    0    0  0.51634886141E+02  0.32390063797E+02  0.95379391351E+01  0.62500000504E+02  0.10000004029E+02 0.  0.
    3000022    2    5    5    0    0  0.42496070959E+02  0.29981768195E+02  0.59754344288E+01  0.52350652230E+02  0.25000230146E+00 0.  0.
        -13    1    4    4    0    0 -0.20977610843E+01 -0.66097595512E+00  0.85471579480E+00  0.23620023010E+01  0.10500000000E+00 0.  1.
         13    1    4    4    0    0 -0.18066077011E+01 -0.68687837432E+00  0.81429010663E+00  0.20999349191E+01  0.10500000000E+00 0. -1.
    3000001    1    5    5    0    0  0.91388151813E+01  0.24082956018E+01  0.35625047064E+01  0.10149348275E+02  0.10000000000E+01 0.  1.
        -13    1    6    6    0    0  0.20396604243E+02  0.14466669346E+02  0.28991464157E+01  0.25173836846E+02  0.10500000000E+00 0. -1.
         13    1    6    6    0    0  0.22099466717E+02  0.15515098849E+02  0.30762880131E+01  0.27176815384E+02  0.10500000000E+00 0.  1.
</event>
<event>
11    0  0.3462209E-009  0.9118800E+02  0.7816531E-02  0.1126479E+00
         25   -1    0    0    0    0  0.00000000000E+00  0.00000000000E+00  0.99999998245E-14  0.12500000000E+03  0.12500000000E+03 0.  0.
    3000001    1    3    3    0    0  0.43945349583E+01 -0.13514738657E+02 -0.76755535476E+01  0.16182528256E+02  0.10000000000E+01 0. -1.
    1000022    2    1    0    0    0  0.30627348989E+02 -0.43053569880E+02 -0.31852868916E+02  0.62499999663E+02  0.10000015712E+02 0.  0.
    3000022    2    3    3    0    0  0.26232814030E+02 -0.29538831222E+02 -0.24177315368E+02  0.46317471407E+02  0.24999445973E+00 0.  0.
    1000022    2    1    0    0    0 -0.30627348989E+02  0.43053569880E+02  0.31852868916E+02  0.62500000337E+02  0.10000019924E+02 0.  0.
    3000022    2    5    5    0    0 -0.27282815080E+02  0.40282994598E+02  0.26065515382E+02  0.55195518467E+02  0.25002854232E+00 0.  0.
        -13    1    4    4    0    0  0.71120121170E+01 -0.79886358744E+01 -0.65856138376E+01  0.12561065007E+02  0.10500000000E+00 0. -1.
         13    1    4    4    0    0  0.19120801913E+02 -0.21550195348E+02 -0.17591701531E+02  0.33756406401E+02  0.10500000000E+00 0.  1.
    3000001    1    5    5    0    0 -0.33445339082E+01  0.27705752822E+01  0.57873535342E+01  0.73044818699E+01  0.10000000000E+01 0. -1.
        -13    1    6    6    0    0 -0.12493168743E+02  0.18326744756E+02  0.11882295721E+02  0.25162448513E+02  0.10500000000E+00 0. -1.
         13    1    6    6    0    0 -0.14789646337E+02  0.21956249842E+02  0.14183219661E+02  0.30033069954E+02  0.10500000000E+00 0.  1.
</event>
<event>
11    0  0.3462209E-009  0.9118800E+02  0.7816531E-02  0.1126479E+00
         25   -1    0    0    0    0  0.00000000000E+00  0.00000000000E+00  0.99999998245E-14  0.12500000000E+03  0.12500000000E+03 0.  0.
    3000001    1    3    3    0    0  0.26328205110E+01 -0.90385287215E+01 -0.14284551097E+02  0.17136952627E+02  0.10000000000E+01 0.  1.
    1000022    2    1    0    0    0  0.23106392741E+02 -0.36256721618E+02 -0.44246972531E+02  0.62500003478E+02  0.10000030431E+02 0.  0.
    3000022    2    3    3    0    0  0.20473572230E+02 -0.27218192897E+02 -0.29962421433E+02  0.45363050851E+02  0.24999985272E+00 0.  0.
    1000022    2    1    0    0    0 -0.23106392741E+02  0.36256721618E+02  0.44246972531E+02  0.62499996522E+02  0.99999869565E+01 0.  0.
    3000022    2    5    5    0    0 -0.18673070441E+02  0.22319972335E+02  0.33167625137E+02  0.44125033505E+02  0.24999979547E+00 0.  0.
        -13    1    4    4    0    0  0.10008397974E+02 -0.13296126050E+02 -0.14550479289E+02  0.22106163631E+02  0.10500000000E+00 0.  1.
         13    1    4    4    0    0  0.10465174257E+02 -0.13922066847E+02 -0.15411942145E+02  0.23256887220E+02  0.10500000000E+00 0. -1.
    3000001    1    5    5    0    0 -0.44333223001E+01  0.13936749283E+02  0.11079347394E+02  0.18374963017E+02  0.10000000000E+01 0. -1.
        -13    1    6    6    0    0 -0.74589889242E+01  0.89149415942E+01  0.13152897241E+02  0.17553416483E+02  0.10500000000E+00 0. -1.
         13    1    6    6    0    0 -0.11214081517E+02  0.13405030741E+02  0.20014727895E+02  0.26571617022E+02  0.10500000000E+00 0.  1.
</event>
<event>
11    0  0.3462209E-009  0.9118800E+02  0.7816531E-02  0.1126479E+00
         25   -1    0    0    0    0  0.00000000000E+00  0.00000000000E+00  0.99999998245E-14  0.12500000000E+03  0.12500000000E+03 0.  0.
    3000001    1    3    3    0    0  0.59787817895E+01 -0.98159543312E+01  0.85284509175E+01  0.14346890470E+02  0.10000000000E+01 0. -1.
    1000022    2    1    0    0    0  0.39676166816E+02 -0.39431177503E+02  0.26023715493E+02  0.62500000270E+02  0.10000014661E+02 0.  0.
    3000022    2    3    3    0    0  0.33697385027E+02 -0.29615223172E+02  0.17495264575E+02  0.48153109799E+02  0.24999934807E+00 0.  0.
    1000022    2    1    0    0    0 -0.39676166816E+02  0.39431177503E+02 -0.26023715493E+02  0.62499999730E+02  0.10000011289E+02 0.  0.
    3000022    2    5    5    0    0 -0.19056529147E+02  0.22572292741E+02 -0.18298225725E+02  0.34749780899E+02  0.25001032230E+00 0.  0.
        -13    1    4    4    0    0  0.21622451265E+02 -0.18976040596E+02  0.11277277732E+02  0.30899976269E+02  0.10500000000E+00 0. -1.
         13    1    4    4    0    0  0.12074933762E+02 -0.10639182576E+02  0.62179868428E+01  0.17253133530E+02  0.10500000000E+00 0.  1.
    3000001    1    5    5    0    0 -0.20619637669E+02  0.16858884762E+02 -0.77254897673E+01  0.27750218831E+02  0.10000000000E+01 0. -1.
        -13    1    6    6    0    0 -0.92554256233E+01  0.10882157882E+02 -0.88997255691E+01  0.16831530050E+02  0.10500000000E+00 0. -1.
         13    1    6    6    0    0 -0.98011035238E+01  0.11690134859E+02 -0.93985001561E+01  0.17918250849E+02  0.10500000000E+00 0.  1.
</event>
<event>
11    0  0.3462209E-009  0.9118800E+02  0.7816531E-02  0.1126479E+00
         25   -1    0    0    0    0  0.00000000000E+00  0.00000000000E+00  0.99999998245E-14  0.12500000000E+03  0.12500000000E+03 0.  0.
    3000001    1    3    3    0    0  0.98124576141E+01 -0.15145731723E+02 -0.54440545564E+02  0.57362448650E+02  0.10000000000E+01 0.  1.
    1000022    2    1    0    0    0  0.10192849620E+02 -0.13579531325E+02 -0.59312327407E+02  0.62499999493E+02  0.99999949929E+01 0.  0.
    3000022    2    3    3    0    0  0.38039200566E+00  0.15662003987E+01 -0.48717818432E+01  0.51375508431E+01  0.24997714059E+00 0.  0.
    1000022    2    1    0    0    0 -0.10192849620E+02  0.13579531325E+02  0.59312327407E+02  0.62500000507E+02  0.10000001327E+02 0.  0.
    3000022    2    5    5    0    0 -0.99857776865E+01  0.57089153700E+01  0.39963971501E+02  0.41587125272E+02  0.24999920362E+00 0.  0.
        -13    1    4    4    0    0  0.25204941747E+00  0.76513868628E+00 -0.23601496806E+01  0.24960564163E+01  0.10500000000E+00 0. -1.
         13    1    4    4    0    0  0.12834258820E+00  0.80106171240E+00 -0.25116321625E+01  0.26414944268E+01  0.10500000000E+00 0.  1.
    3000001    1    5    5    0    0 -0.20707193331E+00  0.78706159545E+01  0.19348355906E+02  0.20912875234E+02  0.10000000000E+01 0.  1.
        -13    1    6    6    0    0 -0.40276254958E+01  0.23759092113E+01  0.16239225238E+02  0.16899413394E+02  0.10500000000E+00 0. -1.
         13    1    6    6    0    0 -0.59581521907E+01  0.33330061587E+01  0.23724746262E+02  0.24687711879E+02  0.10500000000E+00 0.  1.
</event>
<event>
11    0  0.3462209E-009  0.9118800E+02  0.7816531E-02  0.1126479E+00
         25   -1    0    0    0    0  0.00000000000E+00  0.00000000000E+00  0.99999998245E-14  0.12500000000E+03  0.12500000000E+03 0.  0.
    3000001    1    3    3    0    0  0.15879658159E+02 -0.27991278732E+01 -0.40206379672E+01  0.16648248850E+02  0.10000000000E+01 0.  1.
    1000022    2    1    0    0    0  0.61640987089E+02 -0.22796056678E+01 -0.12008066505E+01  0.62499999900E+02  0.10000007976E+02 0.  0.
    3000022    2    3    3    0    0  0.45761328930E+02  0.51952220544E+00  0.28198313167E+01  0.45851751050E+02  0.24999383700E+00 0.  0.
    1000022    2    1    0    0    0 -0.61640987089E+02  0.22796056678E+01  0.12008066505E+01  0.62500000100E+02  0.10000009228E+02 0.  0.
    3000022    2    5    5    0    0 -0.38427556382E+02  0.39265495834E+01  0.48172823227E+01  0.38927671286E+02  0.25000320876E+00 0.  0.
        -13    1    4    4    0    0  0.24562673783E+02  0.21195642848E+00  0.15071910939E+01  0.24610008510E+02  0.10500000000E+00 0. -1.
         13    1    4    4    0    0  0.21198655148E+02  0.30756577696E+00  0.13126402228E+01  0.21241742540E+02  0.10500000000E+00 0.  1.
    3000001    1    5    5    0    0 -0.23213430707E+02 -0.16469439156E+01 -0.36164756722E+01  0.23572328815E+02  0.10000000000E+01 0.  1.
        -13    1    6    6    0    0 -0.15708811169E+02  0.15885655245E+01  0.20312554741E+01  0.15919400509E+02  0.10500000000E+00 0. -1.
         13    1    6    6    0    0 -0.22718745213E+02  0.23379840589E+01  0.27860268485E+01  0.23008270777E+02  0.10500000000E+00 0.  1.
</event>
<event>
11    0  0.3462209E-009  0.9118800E+02  0.7816531E-02  0.1126479E+00
         25   -1    0    0    0    0  0.00000000000E+00  0.00000000000E+00  0.99999998245E-14  0.12500000000E+03  0.12500000000E+03 0.  0.
    3000001    1    3    3    0    0  0.62915811589E+01 -0.20658087448E+02 -0.30619123674E+02  0.37481612893E+02  0.10000000000E+01 0. -1.
    1000022    2    1    0    0    0  0.10003479401E+02 -0.27135192127E+02 -0.54496437558E+02  0.62499999933E+02  0.10000001662E+02 0.  0.
    3000022    2    3    3    0    0  0.37118982421E+01 -0.64771046793E+01 -0.23877313884E+02  0.25018387040E+02  0.24999641227E+00 0.  0.
    1000022    2    1    0    0    0 -0.10003479401E+02  0.27135192127E+02  0.54496437558E+02  0.62500000067E+02  0.10000002495E+02 0.  0.
    3000022    2    5    5    0    0 -0.86961161539E+01  0.18623697292E+02  0.45893950242E+02  0.50286993434E+02  0.25000560089E+00 0.  0.
        -13    1    4    4    0    0  0.15278132034E+01 -0.27733504828E+01 -0.10252724111E+02  0.10731032698E+02  0.10500000000E+00 0.  1.
         13    1    4    4    0    0  0.21840850386E+01 -0.37037541966E+01 -0.13624589773E+02  0.14287354342E+02  0.10500000000E+00 0. -1.
    3000001    1    5    5    0    0 -0.13073632471E+01  0.85114948354E+01  0.86024873161E+01  0.12213006633E+02  0.10000000000E+01 0.  1.
        -13    1    6    6    0    0 -0.27616629591E+01  0.60043033213E+01  0.14841281460E+02  0.16246633529E+02  0.10500000000E+00 0.  1.
         13    1    6    6    0    0 -0.59344531948E+01  0.12619393970E+02  0.31052668782E+02  0.34040359904E+02  0.10500000000E+00 0. -1.
</event>
<event>
11    0  0.3462209E-009  0.9118800E+02  0.7816531E-02  0.1126479E+00
         25   -1    0    0    0    0  0.00000000000E+00  0.00000000000E+00  0.99999998245E-14  0.12500000000E+03  0.12500000000E+03 0.  0.
    3000001    1    3    3    0    0  0.81840127961E+01  0.10973913205E+02  0.62212881692E+01  0.15070144756E+02  0.10000000000E+01 0. -1.
    1000022    2    1    0    0    0  0.23919844359E+02  0.41122297256E+02  0.39281645455E+02  0.62500000095E+02  0.10000002824E+02 0.  0.
    3000022    2    3    3    0    0  0.15735831563E+02  0.30148384052E+02  0.33060357286E+02  0.47429855340E+02  0.24999558196E+00 0.  0.
    1000022    2    1    0    0    0 -0.23919844359E+02 -0.41122297256E+02 -0.39281645455E+02  0.62499999905E+02  0.10000001633E+02 0.  0.
    3000022    2    5    5    0    0 -0.65773073843E+01 -0.78927719929E+01 -0.13624486314E+02  0.17065929505E+02  0.25000074735E+00 0.  0.
        -13    1    4    4    0    0  0.79566926839E+01  0.15388616185E+02  0.16857187775E+02  0.24172179696E+02  0.10500000000E+00 0. -1.
         13    1    4    4    0    0  0.77791388788E+01  0.14759767866E+02  0.16203169511E+02  0.23257675644E+02  0.10500000000E+00 0.  1.
    3000001    1    5    5    0    0 -0.17342536975E+02 -0.33229525263E+02 -0.25657159141E+02  0.45434070400E+02  0.10000000000E+01 0. -1.
        -13    1    6    6    0    0 -0.23702825167E+01 -0.29295462461E+01 -0.50354730675E+01  0.62902698218E+01  0.10500000000E+00 0. -1.
         13    1    6    6    0    0 -0.42070248676E+01 -0.49632257468E+01 -0.85890132467E+01  0.10775659683E+02  0.10500000000E+00 0.  1.
</event>
<event>
11    0  0.3462209E-009  0.9118800E+02  0.7816531E-02  0.1126479E+00
         25   -1    0    0    0    0  0.00000000000E+00  0.00000000000E+00  0.99999998245E-14  0.12500000000E+03  0.12500000000E+03 0.  0.
    3000001    1    3    3    0    0  0.33466808860E+02  0.26495780013E+02  0.42663471252E+02  0.60359137113E+02  0.10000000000E+01 0.  1.
    1000022    2    1    0    0    0  0.35261323483E+02  0.27612364966E+02  0.42431666595E+02  0.62499998962E+02  0.99999953713E+01 0.  0.
    3000022    2    3    3    0    0  0.17945146229E+01  0.11165849537E+01 -0.23180465753E+00  0.21408618487E+01  0.25002273003E+00 0.  0.
    1000022    2    1    0    0    0 -0.35261323483E+02 -0.27612364966E+02 -0.42431666595E+02  0.62500001038E+02  0.10000008349E+02 0.  0.
    3000022    2    5    5    0    0 -0.11249483515E+02 -0.56242813749E+01 -0.17136948071E+02  0.21258431429E+02  0.24999456403E+00 0.  0.
        -13    1    4    4    0    0  0.69881678635E+00  0.43189623196E+00 -0.28179731431E-01  0.82867264546E+00  0.10500000000E+00 0.  1.
         13    1    4    4    0    0  0.10956978365E+01  0.68468872174E+00 -0.20362492609E+00  0.13121892032E+01  0.10500000000E+00 0. -1.
    3000001    1    5    5    0    0 -0.24011839968E+02 -0.21988083592E+02 -0.25294718524E+02  0.41241569610E+02  0.10000000000E+01 0.  1.
        -13    1    6    6    0    0 -0.73990541782E+01 -0.36817752714E+01 -0.11349327490E+02  0.14039933452E+02  0.10500000000E+00 0. -1.
         13    1    6    6    0    0 -0.38504293368E+01 -0.19425061035E+01 -0.57876205814E+01  0.72184979763E+01  0.10500000000E+00 0.  1.
</event>
<event>
11    0  0.3462209E-009  0.9118800E+02  0.7816531E-02  0.1126479E+00
         25   -1    0    0    0    0  0.00000000000E+00  0.00000000000E+00  0.99999998245E-14  0.12500000000E+03  0.12500000000E+03 0.  0.
    3000001    1    3    3    0    0  0.30892088131E+02  0.10922365326E+02  0.26648828693E+01  0.32889523775E+02  0.10000000000E+01 0. -1.
    1000022    2    1    0    0    0  0.58330781868E+02  0.15473118928E+02  0.12820004316E+02  0.62499999308E+02  0.99999940084E+01 0.  0.
    3000022    2    3    3    0    0  0.27438693736E+02  0.45507536012E+01  0.10155121446E+02  0.29610475532E+02  0.24999477587E+00 0.  0.
    1000022    2    1    0    0    0 -0.58330781868E+02 -0.15473118928E+02 -0.12820004316E+02  0.62500000692E+02  0.10000002663E+02 0.  0.
    3000022    2    5    5    0    0 -0.23296599389E+02 -0.10566609354E+02 -0.78695185410E+01  0.26765212494E+02  0.25000295851E+00 0.  0.
        -13    1    4    4    0    0  0.74694817684E+01  0.12303904422E+01  0.27259716104E+01  0.80466741421E+01  0.10500000000E+00 0.  1.
         13    1    4    4    0    0  0.19969211968E+02  0.33203631591E+01  0.74291498360E+01  0.21563801390E+02  0.10500000000E+00 0. -1.
    3000001    1    5    5    0    0 -0.35034182479E+02 -0.49065095735E+01 -0.49504857747E+01  0.35734788198E+02  0.10000000000E+01 0. -1.
        -13    1    6    6    0    0 -0.12968375734E+02 -0.59548024646E+01 -0.43886113264E+01  0.14930149897E+02  0.10500000000E+00 0. -1.
         13    1    6    6    0    0 -0.10328223654E+02 -0.46118068896E+01 -0.34809072146E+01  0.11835062597E+02  0.10500000000E+00 0.  1.
</event>
<event>
11    0  0.3462209E-009  0.9118800E+02  0.7816531E-02  0.1126479E+00
         25   -1    0    0    0    0  0.00000000000E+00  0.00000000000E+00  0.99999998245E-14  0.12500000000E+03  0.12500000000E+03 0.  0.
    3000001    1    3    3    0    0  0.15950388644E+01  0.59205185452E+00  0.88261812977E+00  0.21618716752E+01  0.10000000000E+01 0. -1.
    1000022    2    1    0    0    0  0.37577509943E+02  0.48706569882E+02 -0.46745192247E+01  0.62499996836E+02  0.99999635704E+01 0.  0.
    3000022    2    3    3    0    0  0.35982471078E+02  0.48114518027E+02 -0.55571373544E+01  0.60338125161E+02  0.25000494263E+00 0.  0.
    1000022    2    1    0    0    0 -0.37577509943E+02 -0.48706569882E+02  0.46745192247E+01  0.62500003164E+02  0.10000003115E+02 0.  0.
    3000022    2    5    5    0    0 -0.23887771291E+01 -0.76460622588E+00 -0.10833946395E+01  0.27435610983E+01  0.25000940385E+00 0.  0.
        -13    1    4    4    0    0  0.25570447259E+02  0.34133991740E+02 -0.39702833759E+01  0.42833997481E+02  0.10500000000E+00 0. -1.
         13    1    4    4    0    0  0.10412023820E+02  0.13980526288E+02 -0.15868539786E+01  0.17504127681E+02  0.10500000000E+00 0.  1.
    3000001    1    5    5    0    0 -0.35188732814E+02 -0.47941963656E+02  0.57579138642E+01  0.59756442065E+02  0.10000000000E+01 0. -1.
        -13    1    6    6    0    0 -0.90182718227E+00 -0.23899887559E+00 -0.44371659418E+00  0.10384229125E+01  0.10500000000E+00 0. -1.
         13    1    6    6    0    0 -0.14869499469E+01 -0.52560735029E+00 -0.63967804532E+00  0.17051381858E+01  0.10500000000E+00 0.  1.
</event>
<event>
11    0  0.3462209E-009  0.9118800E+02  0.7816531E-02  0.1126479E+00
         25   -1    0    0    0    0  0.00000000000E+00  0.00000000000E+00  0.99999998245E-14  0.12500000000E+03  0.12500000000E+03 0.  0.
    3000001    1    3    3    0    0  0.39487439715E+02  0.15354115961E+02  0.29588021264E+02  0.51686146833E+02  0.10000000000E+01 0. -1.
    1000022    2    1    0    0    0  0.44396982077E+02  0.18141483786E+02  0.38807782533E+02  0.62500004678E+02  0.10000057407E+02 0.  0.
    3000022    2    3    3    0    0  0.49095423621E+01  0.27873678255E+01  0.92197612690E+01  0.10813857845E+02  0.24999606041E+00 0.  0.
    1000022    2    1    0    0    0 -0.44396982077E+02 -0.18141483786E+02 -0.38807782533E+02  0.62499995322E+02  0.99999989359E+01 0.  0.
    3000022    2    5    5    0    0 -0.42189843861E+02 -0.14734240750E+02 -0.36644989055E+02  0.57792720119E+02  0.25000091005E+00 0.  0.
        -13    1    4    4    0    0  0.16027580955E+01  0.95688031561E+00  0.29860383837E+01  0.35230531759E+01  0.10500000000E+00 0.  1.
         13    1    4    4    0    0  0.33067842666E+01  0.18304875099E+01  0.62337228852E+01  0.72908046689E+01  0.10500000000E+00 0. -1.
    3000001    1    5    5    0    0 -0.22071382157E+01 -0.34072430363E+01 -0.21627934779E+01  0.47072752033E+01  0.10000000000E+01 0.  1.
        -13    1    6    6    0    0 -0.10683652388E+02 -0.37176515612E+01 -0.93086231468E+01  0.14650011992E+02  0.10500000000E+00 0.  1.
         13    1    6    6    0    0 -0.31506191473E+02 -0.11016589189E+02 -0.27336365908E+02  0.43142708127E+02  0.10500000000E+00 0. -1.
</event>
<event>
11    0  0.3462209E-009  0.9118800E+02  0.7816531E-02  0.1126479E+00
         25   -1    0    0    0    0  0.00000000000E+00  0.00000000000E+00  0.99999998245E-14  0.12500000000E+03  0.12500000000E+03 0.  0.
    3000001    1    3    3    0    0 -0.39998600645E+02  0.28469837658E+02  0.14663628689E+02  0.51248821608E+02  0.10000000000E+01 0.  1.
    1000022    2    1    0    0    0 -0.47044545327E+02  0.37233385080E+02  0.14378311034E+02  0.62499999479E+02  0.99999948562E+01 0.  0.
    3000022    2    3    3    0    0 -0.70459446814E+01  0.87635474224E+01 -0.28531765497E+00  0.11251177871E+02  0.24999489017E+00 0.  0.
    1000022    2    1    0    0    0  0.47044545327E+02 -0.37233385080E+02 -0.14378311034E+02  0.62500000521E+02  0.10000001373E+02 0.  0.
    3000022    2    5    5    0    0 -0.32806808813E+00 -0.12487204746E+01 -0.14688752779E+00  0.13232565451E+01  0.25000088819E+00 0.  0.
        -13    1    4    4    0    0 -0.39443478763E+01  0.49196852848E+01 -0.94438544774E-01  0.63072281637E+01  0.10500000000E+00 0. -1.
         13    1    4    4    0    0 -0.31015968051E+01  0.38438621376E+01 -0.19087911020E+00  0.49439497074E+01  0.10500000000E+00 0.  1.
    3000001    1    5    5    0    0  0.47372613415E+02 -0.35984664606E+02 -0.14231423506E+02  0.61176743976E+02  0.10000000000E+01 0.  1.
        -13    1    6    6    0    0 -0.14711176190E+00 -0.39032157980E+00 -0.19343938920E-01  0.43057170613E+00  0.10500000000E+00 0.  1.
         13    1    6    6    0    0 -0.18095632623E+00 -0.85839889481E+00 -0.12754358887E+00  0.89268483894E+00  0.10500000000E+00 0. -1.
</event>
<event>
11    0  0.3462209E-009  0.9118800E+02  0.7816531E-02  0.1126479E+00
         25   -1    0    0    0    0  0.00000000000E+00  0.00000000000E+00  0.99999998245E-14  0.12500000000E+03  0.12500000000E+03 0.  0.
    3000001    1    3    3    0    0  0.72636254985E+00 -0.49164513948E+01  0.20027762002E+01  0.54507072366E+01  0.10000000000E+01 0. -1.
    1000022    2    1    0    0    0  0.10257075134E+02 -0.38234823063E+02  0.47319560228E+02  0.62499999793E+02  0.99999954513E+01 0.  0.
    3000022    2    3    3    0    0  0.95307125842E+01 -0.33318371668E+02  0.45316784028E+02  0.57049292557E+02  0.24998722706E+00 0.  0.
    1000022    2    1    0    0    0 -0.10257075134E+02  0.38234823063E+02 -0.47319560228E+02  0.62500000207E+02  0.99999980357E+01 0.  0.
    3000022    2    5    5    0    0 -0.33318415224E+01  0.30069203520E+01 -0.84913196829E+01  0.96076921288E+01  0.25000029990E+00 0.  0.
        -13    1    4    4    0    0  0.47522115034E+01 -0.16602617386E+02  0.22471024271E+02  0.28340578241E+02  0.10500000000E+00 0. -1.
         13    1    4    4    0    0  0.47785010808E+01 -0.16715754282E+02  0.22845759757E+02  0.28708714316E+02  0.10500000000E+00 0.  1.
    3000001    1    5    5    0    0 -0.69252336117E+01  0.35227902711E+02 -0.38828240545E+02  0.52892308078E+02  0.10000000000E+01 0.  1.
        -13    1    6    6    0    0 -0.21370462739E+01  0.19298078234E+01 -0.53203806959E+01  0.60505041742E+01  0.10500000000E+00 0.  1.
         13    1    6    6    0    0 -0.11947952485E+01  0.10771125286E+01 -0.31709389870E+01  0.35571879546E+01  0.10500000000E+00 0. -1.
</event>
<event>
11    0  0.3462209E-009  0.9118800E+02  0.7816531E-02  0.1126479E+00
         25   -1    0    0    0    0  0.00000000000E+00  0.00000000000E+00  0.99999998245E-14  0.12500000000E+03  0.12500000000E+03 0.  0.
    3000001    1    3    3    0    0 -0.14918281985E+02  0.32529986068E+01 -0.39821797928E+00  0.15306721232E+02  0.10000000000E+01 0. -1.
    1000022    2    1    0    0    0 -0.60620198239E+02  0.19523543607E+01  0.11297346132E+02  0.62499999834E+02  0.99999913764E+01 0.  0.
    3000022    2    3    3    0    0 -0.45701916254E+02 -0.13006442461E+01  0.11695564112E+02  0.47193278601E+02  0.25000111433E+00 0.  0.
    1000022    2    1    0    0    0  0.60620198239E+02 -0.19523543607E+01 -0.11297346132E+02  0.62500000166E+02  0.99999934532E+01 0.  0.
    3000022    2    5    5    0    0  0.14252969969E+02  0.14878925842E+01  0.10872362973E+01  0.14373780302E+02  0.25000023855E+00 0.  0.
        -13    1    4    4    0    0 -0.15003938784E+02 -0.38500760573E+00  0.38719673910E+01  0.15500631160E+02  0.10500000000E+00 0. -1.
         13    1    4    4    0    0 -0.30697977470E+02 -0.91563664040E+00  0.78235967207E+01  0.31692647441E+02  0.10500000000E+00 0.  1.
    3000001    1    5    5    0    0  0.46367228270E+02 -0.34402469449E+01 -0.12384582430E+02  0.48126219864E+02  0.10000000000E+01 0. -1.
        -13    1    6    6    0    0  0.77488044279E+01  0.74435402238E+00  0.57151904455E+00  0.78061316918E+01  0.10500000000E+00 0.  1.
         13    1    6    6    0    0  0.65041655411E+01  0.74353856181E+00  0.51571725278E+00  0.65676486100E+01  0.10500000000E+00 0. -1.
</event>
<event>
11    0  0.3462209E-009  0.9118800E+02  0.7816531E-02  0.1126479E+00
         25   -1    0    0    0    0  0.00000000000E+00  0.00000000000E+00  0.99999998245E-14  0.12500000000E+03  0.12500000000E+03 0.  0.
    3000001    1    3    3    0    0  0.37902458986E+01 -0.19452597376E+02  0.46090322832E+02  0.50180547699E+02  0.10000000000E+01 0.  1.
    1000022    2    1    0    0    0 -0.33397022238E-01 -0.24984635271E+02  0.56409368174E+02  0.62499999375E+02  0.99999994540E+01 0.  0.
    3000022    2    3    3    0    0 -0.38236429208E+01 -0.55320378956E+01  0.10319045342E+02  0.12319451676E+02  0.25000871517E+00 0.  0.
    1000022    2    1    0    0    0  0.33397022238E-01  0.24984635271E+02 -0.56409368174E+02  0.62500000625E+02  0.10000007264E+02 0.  0.
    3000022    2    5    5    0    0  0.27910111208E+01  0.19631746601E+02 -0.49245368144E+02  0.53088265977E+02  0.24996640459E+00 0.  0.
        -13    1    4    4    0    0 -0.21440541249E+01 -0.30221906603E+01  0.55954834834E+01  0.67120090056E+01  0.10500000000E+00 0.  1.
         13    1    4    4    0    0 -0.16795887959E+01 -0.25098472353E+01  0.47235618590E+01  0.56074426705E+01  0.10500000000E+00 0. -1.
    3000001    1    5    5    0    0 -0.27576140986E+01  0.53528886706E+01 -0.71640000306E+01  0.94117346475E+01  0.10000000000E+01 0.  1.
        -13    1    6    6    0    0  0.10096590765E+01  0.74596621824E+01 -0.18786341204E+02  0.20238666264E+02  0.10500000000E+00 0.  1.
         13    1    6    6    0    0  0.17813520443E+01  0.12172084418E+02 -0.30459026940E+02  0.32849599713E+02  0.10500000000E+00 0. -1.
</event>
<event>
11    0  0.3462209E-009  0.9118800E+02  0.7816531E-02  0.1126479E+00
         25   -1    0    0    0    0  0.00000000000E+00  0.00000000000E+00  0.99999998245E-14  0.12500000000E+03  0.12500000000E+03 0.  0.
    3000001    1    3    3    0    0  0.25312990698E+02  0.76712316047E+00 -0.28474326595E+01  0.25503800673E+02  0.10000000000E+01 0.  1.
    1000022    2    1    0    0    0  0.60575405742E+02 -0.98965407951E+01 -0.62393430242E+01  0.62500005839E+02  0.10000001397E+02 0.  0.
    3000022    2    3    3    0    0  0.35262415044E+02 -0.10663663956E+02 -0.33919103647E+01  0.36996205166E+02  0.24999408912E+00 0.  0.
    1000022    2    1    0    0    0 -0.60575405742E+02  0.98965407951E+01  0.62393430242E+01  0.62499994161E+02  0.99999284078E+01 0.  0.
    3000022    2    5    5    0    0 -0.13465885884E+02  0.48053735484E+00 -0.23686342019E+01  0.13683344808E+02  0.24999674276E+00 0.  0.
        -13    1    4    4    0    0  0.86615993342E+01 -0.26329285192E+01 -0.81373303242E+00  0.90900386172E+01  0.10500000000E+00 0. -1.
         13    1    4    4    0    0  0.26600815710E+02 -0.80307354364E+01 -0.25781773323E+01  0.27906166549E+02  0.10500000000E+00 0.  1.
    3000001    1    5    5    0    0 -0.47109519859E+02  0.94160034403E+01  0.86079772261E+01  0.48816649353E+02  0.10000000000E+01 0.  1.
        -13    1    6    6    0    0 -0.10096978344E+02  0.33616804491E+00 -0.17645676755E+01  0.10256056977E+02  0.10500000000E+00 0. -1.
         13    1    6    6    0    0 -0.33689075397E+01  0.14436930992E+00 -0.60406652646E+00  0.34272878310E+01  0.10500000000E+00 0.  1.
</event>
<event>
11    0  0.3462209E-009  0.9118800E+02  0.7816531E-02  0.1126479E+00
         25   -1    0    0    0    0  0.00000000000E+00  0.00000000000E+00  0.99999998245E-14  0.12500000000E+03  0.12500000000E+03 0.  0.
    3000001    1    3    3    0    0  0.70462750912E+01  0.49066675773E+02  0.22588507575E+02  0.54483294123E+02  0.10000000000E+01 0.  1.
    1000022    2    1    0    0    0  0.60064344136E+01  0.57008708375E+02  0.22807454864E+02  0.62500001005E+02  0.10000002164E+02 0.  0.
    3000022    2    3    3    0    0 -0.10398406776E+01  0.79420326024E+01  0.21894728852E+00  0.80167068816E+01  0.25000163500E+00 0.  0.
    1000022    2    1    0    0    0 -0.60064344136E+01 -0.57008708375E+02 -0.22807454864E+02  0.62499998995E+02  0.99999896052E+01 0.  0.
    3000022    2    5    5    0    0 -0.16162091358E+01 -0.11792563649E+02 -0.92630901228E+01  0.15084562289E+02  0.24998284936E+00 0.  0.
        -13    1    4    4    0    0 -0.50049640228E+00  0.37859458904E+01  0.17182651405E+00  0.38241904091E+01  0.10500000000E+00 0.  1.
         13    1    4    4    0    0 -0.53934427532E+00  0.41560867120E+01  0.47120774473E-01  0.41925164725E+01  0.10500000000E+00 0. -1.
    3000001    1    5    5    0    0 -0.43902252778E+01 -0.45216144726E+02 -0.13544364741E+02  0.47415436707E+02  0.10000000000E+01 0.  1.
        -13    1    6    6    0    0 -0.72244244961E+00 -0.54332103168E+01 -0.41853159107E+01  0.68970712416E+01  0.10500000000E+00 0. -1.
         13    1    6    6    0    0 -0.89376668622E+00 -0.63593533325E+01 -0.50777742121E+01  0.81874910471E+01  0.10500000000E+00 0.  1.
</event>
<event>
11    0  0.3462209E-009  0.9118800E+02  0.7816531E-02  0.1126479E+00
         25   -1    0    0    0    0  0.00000000000E+00  0.00000000000E+00  0.99999998245E-14  0.12500000000E+03  0.12500000000E+03 0.  0.
    3000001    1    3    3    0    0  0.33976939583E+01 -0.10501763683E+01 -0.11638616506E+02  0.12210838988E+02  0.10000000000E+01 0. -1.
    1000022    2    1    0    0    0 -0.39598917664E+00  0.29834971518E+01 -0.61621359823E+02  0.62499999684E+02  0.99999955662E+01 0.  0.
    3000022    2    3    3    0    0 -0.37936831350E+01  0.40336735200E+01 -0.49982743318E+02  0.50289160695E+02  0.25000016294E+00 0.  0.
    1000022    2    1    0    0    0  0.39598917664E+00 -0.29834971518E+01  0.61621359823E+02  0.62500000316E+02  0.99999995192E+01 0.  0.
    3000022    2    5    5    0    0  0.16099449157E+01  0.11108737888E+01  0.23549853679E+01  0.30715500335E+01  0.25000063742E+00 0.  0.
        -13    1    4    4    0    0 -0.21166092596E+01  0.22117894836E+01 -0.28180436553E+02  0.28346429701E+02  0.10500000000E+00 0.  1.
         13    1    4    4    0    0 -0.16770738754E+01  0.18218840364E+01 -0.21802306764E+02  0.21942730994E+02  0.10500000000E+00 0. -1.
    3000001    1    5    5    0    0 -0.12139557391E+01 -0.40943709406E+01  0.59266374455E+02  0.59428450283E+02  0.10000000000E+01 0.  1.
        -13    1    6    6    0    0  0.58633305069E+00  0.35488940017E+00  0.89050871362E+00  0.11286114042E+01  0.10500000000E+00 0.  1.
         13    1    6    6    0    0  0.10236118650E+01  0.75598438864E+00  0.14644766543E+01  0.19429386293E+01  0.10500000000E+00 0. -1.
</event>
<event>
11    0  0.3462209E-009  0.9118800E+02  0.7816531E-02  0.1126479E+00
         25   -1    0    0    0    0  0.00000000000E+00  0.00000000000E+00  0.99999998245E-14  0.12500000000E+03  0.12500000000E+03 0.  0.
    3000001    1    3    3    0    0 -0.86214592836E+01 -0.66830098469E+01 -0.64720331952E+01  0.12723183347E+02  0.10000000000E+01 0. -1.
    1000022    2    1    0    0    0 -0.53557964734E+02 -0.19385377306E+02 -0.23706571423E+02  0.62500000243E+02  0.10000003104E+02 0.  0.
    3000022    2    3    3    0    0 -0.44936505450E+02 -0.12702367459E+02 -0.17234538228E+02  0.49776816897E+02  0.25006263625E+00 0.  0.
    1000022    2    1    0    0    0  0.53557964734E+02  0.19385377306E+02  0.23706571423E+02  0.62499999757E+02  0.10000000061E+02 0.  0.
    3000022    2    5    5    0    0  0.28826588468E+02  0.14663761059E+02  0.10215644330E+02  0.33917841934E+02  0.25004252205E+00 0.  0.
        -13    1    4    4    0    0 -0.27907202590E+02 -0.78436536576E+01 -0.10653195047E+02  0.30884242727E+02  0.10500000000E+00 0.  1.
         13    1    4    4    0    0 -0.17029302860E+02 -0.48587138016E+01 -0.65813431802E+01  0.18892574170E+02  0.10500000000E+00 0. -1.
    3000001    1    5    5    0    0  0.24731376265E+02  0.47216162466E+01  0.13490927093E+02  0.28582157822E+02  0.10000000000E+01 0. -1.
        -13    1    6    6    0    0  0.15197379451E+02  0.77148953650E+01  0.53141538681E+01  0.17853044810E+02  0.10500000000E+00 0. -1.
         13    1    6    6    0    0  0.13629209018E+02  0.69488656945E+01  0.49014904621E+01  0.16064797124E+02  0.10500000000E+00 0.  1.
</event>
<event>
11    0  0.3462209E-009  0.9118800E+02  0.7816531E-02  0.1126479E+00
         25   -1    0    0    0    0  0.00000000000E+00  0.00000000000E+00  0.99999998245E-14  0.12500000000E+03  0.12500000000E+03 0.  0.
    3000001    1    3    3    0    0  0.21485958661E+02  0.40688361968E+02 -0.38029998194E+02  0.59703182343E+02  0.10000000000E+01 0.  1.
    1000022    2    1    0    0    0  0.22841267941E+02  0.43107667169E+02 -0.37765798192E+02  0.62500001442E+02  0.10000008861E+02 0.  0.
    3000022    2    3    3    0    0  0.13553092804E+01  0.24193052007E+01  0.26420000189E+00  0.27968190988E+01  0.24998906172E+00 0.  0.
    1000022    2    1    0    0    0 -0.22841267941E+02 -0.43107667169E+02  0.37765798192E+02  0.62499998558E+02  0.99999908407E+01 0.  0.
    3000022    2    5    5    0    0 -0.44592826443E+01 -0.52989503890E+01  0.17870446153E+01  0.71568223130E+01  0.25000047122E+00 0.  0.
        -13    1    4    4    0    0  0.46051534710E+00  0.72608857733E+00  0.94577063987E-01  0.87134885555E+00  0.10500000000E+00 0.  1.
         13    1    4    4    0    0  0.89479393329E+00  0.16932166233E+01  0.16962293790E+00  0.19254702433E+01  0.10500000000E+00 0. -1.
    3000001    1    5    5    0    0 -0.18381985297E+02 -0.37808716780E+02  0.35978753577E+02  0.55343176245E+02  0.10000000000E+01 0.  1.
        -13    1    6    6    0    0 -0.14918536267E+01 -0.17138870531E+01  0.62411301744E+00  0.23587238357E+01  0.10500000000E+00 0. -1.
         13    1    6    6    0    0 -0.29674290176E+01 -0.35850633359E+01  0.11629315979E+01  0.47980984773E+01  0.10500000000E+00 0.  1.
</event>
<event>
11    0  0.3462209E-009  0.9118800E+02  0.7816531E-02  0.1126479E+00
         25   -1    0    0    0    0  0.00000000000E+00  0.00000000000E+00  0.99999998245E-14  0.12500000000E+03  0.12500000000E+03 0.  0.
    3000001    1    3    3    0    0 -0.27150802222E+01 -0.18622133860E+02  0.52730759881E+01  0.19569385797E+02  0.10000000000E+01 0. -1.
    1000022    2    1    0    0    0 -0.68042502068E+01 -0.53485777375E+02  0.29987050132E+02  0.62500003854E+02  0.10000055194E+02 0.  0.
    3000022    2    3    3    0    0 -0.40891699846E+01 -0.34863643515E+02  0.24713974144E+02  0.42930618057E+02  0.24999692526E+00 0.  0.
    1000022    2    1    0    0    0  0.68042502068E+01  0.53485777375E+02 -0.29987050132E+02  0.62499996146E+02  0.10000007014E+02 0.  0.
    3000022    2    5    5    0    0  0.51676382291E+01  0.97181109482E+01 -0.66553800767E+01  0.12864787364E+02  0.25000936929E+00 0.  0.
        -13    1    4    4    0    0 -0.19025980156E+01 -0.16798509003E+02  0.11911722657E+02  0.20681149523E+02  0.10500000000E+00 0.  1.
         13    1    4    4    0    0 -0.21865719690E+01 -0.18065134512E+02  0.12802251487E+02  0.22249468534E+02  0.10500000000E+00 0. -1.
    3000001    1    5    5    0    0  0.16366119777E+01  0.43767666427E+02 -0.23331670055E+02  0.49635208782E+02  0.10000000000E+01 0.  1.
        -13    1    6    6    0    0  0.20004721992E+01  0.37364345291E+01 -0.24927126303E+01  0.49180761754E+01  0.10500000000E+00 0.  1.
         13    1    6    6    0    0  0.31671660299E+01  0.59816764191E+01 -0.41626674464E+01  0.79467111885E+01  0.10500000000E+00 0. -1.
</event>
<event>
11    0  0.3462209E-009  0.9118800E+02  0.7816531E-02  0.1126479E+00
         25   -1    0    0    0    0  0.00000000000E+00  0.00000000000E+00  0.99999998245E-14  0.12500000000E+03  0.12500000000E+03 0.  0.
    3000001    1    3    3    0    0  0.21940110609E+02  0.10569682199E+01  0.89386272635E+01  0.23735726083E+02  0.10000000000E+01 0.  1.
    1000022    2    1    0    0    0  0.58964888896E+02  0.11229174961E+02  0.14258244383E+02  0.62499998565E+02  0.99999897436E+01 0.  0.
    3000022    2    3    3    0    0  0.37024778287E+02  0.10172206741E+02  0.53196171199E+01  0.38764272482E+02  0.24999502520E+00 0.  0.
    1000022    2    1    0    0    0 -0.58964888896E+02 -0.11229174961E+02 -0.14258244383E+02  0.62500001435E+02  0.10000007684E+02 0.  0.
    3000022    2    5    5    0    0 -0.32367498498E+02 -0.44523367594E+01 -0.29789229765E+01  0.32808760245E+02  0.25001019985E+00 0.  0.
        -13    1    4    4    0    0  0.27864319499E+02  0.76415719618E+01  0.40239808897E+01  0.29172202015E+02  0.10500000000E+00 0. -1.
         13    1    4    4    0    0  0.91604587882E+01  0.25306347795E+01  0.12956362302E+01  0.95920704667E+01  0.10500000000E+00 0.  1.
    3000001    1    5    5    0    0 -0.26597390398E+02 -0.67768382019E+01 -0.11279321407E+02  0.29691241190E+02  0.10000000000E+01 0. -1.
        -13    1    6    6    0    0 -0.15224922574E+02 -0.20299117121E+01 -0.14224119235E+01  0.15425728172E+02  0.10500000000E+00 0. -1.
         13    1    6    6    0    0 -0.17142575924E+02 -0.24224250473E+01 -0.15565110530E+01  0.17383032074E+02  0.10500000000E+00 0.  1.
</event>
<event>
11    0  0.3462209E-009  0.9118800E+02  0.7816531E-02  0.1126479E+00
         25   -1    0    0    0    0  0.00000000000E+00  0.00000000000E+00  0.99999998245E-14  0.12500000000E+03  0.12500000000E+03 0.  0.
    3000001    1    3    3    0    0  0.25387121234E+02 -0.28526246176E+02 -0.21476545502E+02  0.43823448657E+02  0.10000000000E+01 0.  1.
    1000022    2    1    0    0    0  0.40347146043E+02 -0.35744406894E+02 -0.30011583594E+02  0.62499999829E+02  0.10000000538E+02 0.  0.
    3000022    2    3    3    0    0  0.14960024809E+02 -0.72181607176E+01 -0.85350380924E+01  0.18676551173E+02  0.25000404322E+00 0.  0.
    1000022    2    1    0    0    0 -0.40347146043E+02  0.35744406894E+02  0.30011583594E+02  0.62500000171E+02  0.10000002672E+02 0.  0.
    3000022    2    5    5    0    0 -0.38143001281E+02  0.31294342549E+02  0.24757655689E+02  0.55201706861E+02  0.25000557652E+00 0.  0.
        -13    1    4    4    0    0  0.57336405361E+01 -0.27159950131E+01 -0.33059893654E+01  0.71548482438E+01  0.10500000000E+00 0. -1.
         13    1    4    4    0    0  0.92263842733E+01 -0.45021657045E+01 -0.52290487271E+01  0.11521702929E+02  0.10500000000E+00 0.  1.
    3000001    1    5    5    0    0 -0.22041447623E+01  0.44500643445E+01  0.52539279053E+01  0.72982933099E+01  0.10000000000E+01 0. -1.
        -13    1    6    6    0    0 -0.14660124734E+02  0.12104065809E+02  0.95201879026E+01  0.21262000588E+02  0.10500000000E+00 0.  1.
         13    1    6    6    0    0 -0.23482876548E+02  0.19190276740E+02  0.15237467787E+02  0.33939706273E+02  0.10500000000E+00 0. -1.
</event>
<event>
11    0  0.3462209E-009  0.9118800E+02  0.7816531E-02  0.1126479E+00
         25   -1    0    0    0    0  0.00000000000E+00  0.00000000000E+00  0.99999998245E-14  0.12500000000E+03  0.12500000000E+03 0.  0.
    3000001    1    3    3    0    0  0.26415156805E+01 -0.20267755034E+01  0.42738097583E+01  0.55091627205E+01  0.10000000000E+01 0.  1.
    1000022    2    1    0    0    0  0.66805676880E+01 -0.80758002086E+01  0.60798038194E+02  0.62500000020E+02  0.10000001027E+02 0.  0.
    3000022    2    3    3    0    0  0.40390520075E+01 -0.60490247052E+01  0.56524228436E+02  0.56990837299E+02  0.24998954317E+00 0.  0.
    1000022    2    1    0    0    0 -0.66805676880E+01  0.80758002086E+01 -0.60798038194E+02  0.62499999980E+02  0.10000000781E+02 0.  0.
    3000022    2    5    5    0    0 -0.65612605058E+01  0.56017202776E+00 -0.21909801201E+02  0.22879375584E+02  0.25001258721E+00 0.  0.
        -13    1    4    4    0    0  0.19779876354E+01 -0.28525586749E+01  0.27201671964E+02  0.27422463579E+02  0.10500000000E+00 0.  1.
         13    1    4    4    0    0  0.20610643721E+01 -0.31964660303E+01  0.29322556471E+02  0.29568373720E+02  0.10500000000E+00 0. -1.
    3000001    1    5    5    0    0 -0.11930718212E+00  0.75156281808E+01 -0.38888236993E+02  0.39620624396E+02  0.10000000000E+01 0.  1.
        -13    1    6    6    0    0 -0.36916547275E+01  0.24895529184E+00 -0.12295955558E+02  0.12841021823E+02  0.10500000000E+00 0.  1.
         13    1    6    6    0    0 -0.28696057783E+01  0.31121673592E+00 -0.96138456432E+01  0.10038353761E+02  0.10500000000E+00 0. -1.
</event>
<event>
11    0  0.3462209E-009  0.9118800E+02  0.7816531E-02  0.1126479E+00
         25   -1    0    0    0    0  0.00000000000E+00  0.00000000000E+00  0.99999998245E-14  0.12500000000E+03  0.12500000000E+03 0.  0.
    3000001    1    3    3    0    0 -0.19308993491E+02 -0.51338297381E+02  0.28377508325E+02  0.61763589487E+02  0.10000000000E+01 0.  1.
    1000022    2    1    0    0    0 -0.19936956688E+02 -0.51146388063E+02  0.28156970902E+02  0.62500000715E+02  0.99999912545E+01 0.  0.
    3000022    2    3    3    0    0 -0.62796319717E+00  0.19190931759E+00 -0.22053742332E+00  0.73641122767E+00  0.24999555593E+00 0.  0.
    1000022    2    1    0    0    0  0.19936956688E+02  0.51146388063E+02 -0.28156970902E+02  0.62499999285E+02  0.99999823216E+01 0.  0.
    3000022    2    5    5    0    0  0.19324592576E+02  0.50884846018E+02 -0.26748069151E+02  0.60648405866E+02  0.24999654239E+00 0.  0.
        -13    1    4    4    0    0 -0.25613522017E+00  0.11119519846E+00 -0.15538106459E+00  0.33635977525E+00  0.10500000000E+00 0. -1.
         13    1    4    4    0    0 -0.37182797700E+00  0.80714119130E-01 -0.65156358730E-01  0.40005145243E+00  0.10500000000E+00 0.  1.
    3000001    1    5    5    0    0  0.61236411161E+00  0.26154204495E+00 -0.14089017510E+01  0.18515934193E+01  0.10000000000E+01 0.  1.
        -13    1    6    6    0    0  0.55081730385E+01  0.14400102193E+02 -0.75570950100E+01  0.17170428748E+02  0.10500000000E+00 0.  1.
         13    1    6    6    0    0  0.13816419538E+02  0.36484743825E+02 -0.19190974141E+02  0.43477977118E+02  0.10500000000E+00 0. -1.
</event>
<event>
11    0  0.3462209E-009  0.9118800E+02  0.7816531E-02  0.1126479E+00
         25   -1    0    0    0    0  0.00000000000E+00  0.00000000000E+00  0.99999998245E-14  0.12500000000E+03  0.12500000000E+03 0.  0.
    3000001    1    3    3    0    0 -0.51221980188E+00  0.46705414395E+00 -0.62032723145E+00  0.13657651968E+01  0.10000000000E+01 0.  1.
    1000022    2    1    0    0    0 -0.55907822766E+02 -0.14977814113E+02 -0.21359551813E+02  0.62500000466E+02  0.10000002127E+02 0.  0.
    3000022    2    3    3    0    0 -0.55395602964E+02 -0.15444868257E+02 -0.20739224581E+02  0.61134235269E+02  0.25000491252E+00 0.  0.
    1000022    2    1    0    0    0  0.55907822766E+02  0.14977814113E+02  0.21359551813E+02  0.62499999534E+02  0.99999963068E+01 0.  0.
    3000022    2    5    5    0    0  0.26484676484E+01 -0.88678133050E+00 -0.35767787812E+00  0.28268702252E+01  0.24999958511E+00 0.  0.
        -13    1    4    4    0    0 -0.42149533611E+02 -0.11760630129E+02 -0.15763340123E+02  0.46512251305E+02  0.10500000000E+00 0.  1.
         13    1    4    4    0    0 -0.13246069353E+02 -0.36842381282E+01 -0.49758844586E+01  0.14621983964E+02  0.10500000000E+00 0. -1.
    3000001    1    5    5    0    0  0.53259355117E+02  0.15864595443E+02  0.21717229691E+02  0.59673129309E+02  0.10000000000E+01 0. -1.
        -13    1    6    6    0    0  0.74713898957E+00 -0.22750842178E+00 -0.13441398922E+00  0.79941783331E+00  0.10500000000E+00 0.  1.
         13    1    6    6    0    0  0.19013286589E+01 -0.65927290872E+00 -0.22326388890E+00  0.20274523919E+01  0.10500000000E+00 0. -1.
</event>
<event>
11    0  0.3462209E-009  0.9118800E+02  0.7816531E-02  0.1126479E+00
         25   -1    0    0    0    0  0.00000000000E+00  0.00000000000E+00  0.99999998245E-14  0.12500000000E+03  0.12500000000E+03 0.  0.
    3000001    1    3    3    0    0 -0.18114833720E+02  0.11088337678E+02  0.16635048420E+02  0.26996727007E+02  0.10000000000E+01 0. -1.
    1000022    2    1    0    0    0 -0.35111757947E+02  0.20930338213E+02  0.46209689491E+02  0.62499998694E+02  0.99999915036E+01 0.  0.
    3000022    2    3    3    0    0 -0.16996924227E+02  0.98420005349E+01  0.29574641071E+02  0.35503271687E+02  0.24999658332E+00 0.  0.
    1000022    2    1    0    0    0  0.35111757947E+02 -0.20930338213E+02 -0.46209689491E+02  0.62500001306E+02  0.10000007828E+02 0.  0.
    3000022    2    5    5    0    0  0.16750121356E+02 -0.78979605713E+01 -0.14134717595E+02  0.23298006619E+02  0.25004862926E+00 0.  0.
        -13    1    4    4    0    0 -0.88102306526E+01  0.51551671408E+01  0.15459104179E+02  0.18525410641E+02  0.10500000000E+00 0.  1.
         13    1    4    4    0    0 -0.81866935747E+01  0.46868333941E+01  0.14115536892E+02  0.16977861046E+02  0.10500000000E+00 0. -1.
    3000001    1    5    5    0    0  0.18361636591E+02 -0.13032377642E+02 -0.32074971896E+02  0.39201994687E+02  0.10000000000E+01 0. -1.
        -13    1    6    6    0    0  0.98543852083E+01 -0.45763625755E+01 -0.82793925222E+01  0.13660577140E+02  0.10500000000E+00 0. -1.
         13    1    6    6    0    0  0.68957361474E+01 -0.33215979958E+01 -0.58553250726E+01  0.96374294792E+01  0.10500000000E+00 0.  1.
</event>
<event>
11    0  0.3462209E-009  0.9118800E+02  0.7816531E-02  0.1126479E+00
         25   -1    0    0    0    0  0.00000000000E+00  0.00000000000E+00  0.99999998245E-14  0.12500000000E+03  0.12500000000E+03 0.  0.
    3000001    1    3    3    0    0  0.12625477845E+01  0.45847511592E+02 -0.36825317951E+02  0.58827649862E+02  0.10000000000E+01 0.  1.
    1000022    2    1    0    0    0  0.36217994909E+01  0.48232296727E+02 -0.38298539165E+02  0.62499999225E+02  0.99999960907E+01 0.  0.
    3000022    2    3    3    0    0  0.23592517065E+01  0.23847851351E+01 -0.14732212142E+01  0.36723493631E+01  0.25000068683E+00 0.  0.
    1000022    2    1    0    0    0 -0.36217994909E+01 -0.48232296727E+02  0.38298539165E+02  0.62500000775E+02  0.10000005777E+02 0.  0.
    3000022    2    5    5    0    0  0.10850091698E+01 -0.79521807108E+01  0.10938227812E+02  0.13569147202E+02  0.25001031460E+00 0.  0.
        -13    1    4    4    0    0  0.54176835961E+00  0.56531374498E+00 -0.35168362944E+00  0.86475369959E+00  0.10500000000E+00 0.  1.
         13    1    4    4    0    0  0.18174833469E+01  0.18194713901E+01 -0.11215375848E+01  0.28075956635E+01  0.10500000000E+00 0. -1.
    3000001    1    5    5    0    0 -0.47068086607E+01 -0.40280116016E+02  0.27360311353E+02  0.48930853573E+02  0.10000000000E+01 0.  1.
        -13    1    6    6    0    0  0.64754950803E+00 -0.51575787879E+01  0.71026267678E+01  0.88021742383E+01  0.10500000000E+00 0.  1.
         13    1    6    6    0    0  0.43745966175E+00 -0.27946019228E+01  0.38356010443E+01  0.47669729634E+01  0.10500000000E+00 0. -1.
</event>
<event>
11    0  0.3462209E-009  0.9118800E+02  0.7816531E-02  0.1126479E+00
         25   -1    0    0    0    0  0.00000000000E+00  0.00000000000E+00  0.99999998245E-14  0.12500000000E+03  0.12500000000E+03 0.  0.
    3000001    1    3    3    0    0 -0.78539427958E+00  0.25520395853E+02 -0.93611969273E+01  0.27212854620E+02  0.10000000000E+01 0.  1.
    1000022    2    1    0    0    0 -0.82535685697E+01  0.53672669874E+02 -0.29280936251E+02  0.62500000680E+02  0.99999985866E+01 0.  0.
    3000022    2    3    3    0    0 -0.74681742901E+01  0.28152274021E+02 -0.19919739323E+02  0.35287146060E+02  0.25000509970E+00 0.  0.
    1000022    2    1    0    0    0  0.82535685697E+01 -0.53672669874E+02  0.29280936251E+02  0.62499999320E+02  0.99999900880E+01 0.  0.
    3000022    2    5    5    0    0  0.41463475971E+00 -0.18303388589E+01 -0.78703015106E+00  0.20503610094E+01  0.25000297583E+00 0.  0.
        -13    1    4    4    0    0 -0.31239109173E+01  0.11705670559E+02 -0.83610061905E+01  0.14720699446E+02  0.10500000000E+00 0. -1.
         13    1    4    4    0    0 -0.43442633728E+01  0.16446603463E+02 -0.11558733133E+02  0.20566446614E+02  0.10500000000E+00 0.  1.
    3000001    1    5    5    0    0  0.78389338100E+01 -0.51842331015E+02  0.30067966402E+02  0.60449638311E+02  0.10000000000E+01 0. -1.
        -13    1    6    6    0    0  0.19050354056E+00 -0.10986518249E+01 -0.43464853136E+00  0.12013624670E+01  0.10500000000E+00 0.  1.
         13    1    6    6    0    0  0.22413121915E+00 -0.73168703403E+00 -0.35238161970E+00  0.84899854244E+00  0.10500000000E+00 0. -1.
</event>
<event>
11    0  0.3462209E-009  0.9118800E+02  0.7816531E-02  0.1126479E+00
         25   -1    0    0    0    0  0.00000000000E+00  0.00000000000E+00  0.99999998245E-14  0.12500000000E+03  0.12500000000E+03 0.  0.
    3000001    1    3    3    0    0 -0.18931667077E+02  0.85858233913E+01  0.35003210410E+02  0.40722832915E+02  0.10000000000E+01 0.  1.
    1000022    2    1    0    0    0 -0.34720159405E+02  0.10879775546E+02  0.49823597295E+02  0.62500001518E+02  0.10000017867E+02 0.  0.
    3000022    2    3    3    0    0 -0.15788492328E+02  0.22939521548E+01  0.14820386885E+02  0.21777168603E+02  0.24999694219E+00 0.  0.
    1000022    2    1    0    0    0  0.34720159405E+02 -0.10879775546E+02 -0.49823597295E+02  0.62499998482E+02  0.99999988926E+01 0.  0.
    3000022    2    5    5    0    0  0.78850905193E+01  0.14979551094E+01 -0.85742810113E+01  0.11747311537E+02  0.25002297204E+00 0.  0.
        -13    1    4    4    0    0 -0.72422809209E+01  0.98454498593E+00  0.67904218241E+01  0.99770143488E+01  0.10500000000E+00 0.  1.
         13    1    4    4    0    0 -0.85462114074E+01  0.13094071688E+01  0.80299650608E+01  0.11800154255E+02  0.10500000000E+00 0. -1.
    3000001    1    5    5    0    0  0.26835068886E+02 -0.12377730655E+02 -0.41249316283E+02  0.50752686945E+02  0.10000000000E+01 0. -1.
        -13    1    6    6    0    0  0.41475576135E+01  0.83160604039E+00 -0.44423204397E+01  0.61350663120E+01  0.10500000000E+00 0. -1.
         13    1    6    6    0    0  0.37375329058E+01  0.66634906902E+00 -0.41319605716E+01  0.56122452253E+01  0.10500000000E+00 0.  1.
</event>
<event>
11    0  0.3462209E-009  0.9118800E+02  0.7816531E-02  0.1126479E+00
         25   -1    0    0    0    0  0.00000000000E+00  0.00000000000E+00  0.99999998245E-14  0.12500000000E+03  0.12500000000E+03 0.  0.
    3000001    1    3    3    0    0  0.15604916831E+02  0.12462743188E+02 -0.15669804205E+02  0.25404254779E+02  0.10000000000E+01 0. -1.
    1000022    2    1    0    0    0  0.28032407792E+02  0.32897076399E+02 -0.44025180002E+02  0.62500000223E+02  0.10000001575E+02 0.  0.
    3000022    2    3    3    0    0  0.12427490961E+02  0.20434333211E+02 -0.28355375797E+02  0.37095745444E+02  0.24997618916E+00 0.  0.
    1000022    2    1    0    0    0 -0.28032407792E+02 -0.32897076399E+02  0.44025180002E+02  0.62499999777E+02  0.99999987846E+01 0.  0.
    3000022    2    5    5    0    0 -0.11518353712E+02 -0.14741731577E+02  0.12355092497E+02  0.22421015629E+02  0.25001820701E+00 0.  0.
        -13    1    4    4    0    0  0.71161972120E+01  0.11681737627E+02 -0.16116800448E+02  0.21139194366E+02  0.10500000000E+00 0.  1.
         13    1    4    4    0    0  0.53112937492E+01  0.87525955838E+01 -0.12238575349E+02  0.15956551078E+02  0.10500000000E+00 0. -1.
    3000001    1    5    5    0    0 -0.16514054079E+02 -0.18155344823E+02  0.31670087505E+02  0.40078984148E+02  0.10000000000E+01 0.  1.
        -13    1    6    6    0    0 -0.27418738755E+01 -0.34968367900E+01  0.29537296519E+01  0.53367858999E+01  0.10500000000E+00 0. -1.
         13    1    6    6    0    0 -0.87764798369E+01 -0.11244894787E+02  0.94013628452E+01  0.17084229729E+02  0.10500000000E+00 0.  1.
</event>
<event>
11    0  0.3462209E-009  0.9118800E+02  0.7816531E-02  0.1126479E+00
         25   -1    0    0    0    0  0.00000000000E+00  0.00000000000E+00  0.99999998245E-14  0.12500000000E+03  0.12500000000E+03 0.  0.
    3000001    1    3    3    0    0  0.16490882675E+01  0.24802943375E+01 -0.13827441962E+02  0.14179897860E+02  0.10000000000E+01 0. -1.
    1000022    2    1    0    0    0  0.24458434722E+02  0.86313783035E+01 -0.55977978465E+02  0.62500000773E+02  0.10000015157E+02 0.  0.
    3000022    2    3    3    0    0  0.22809346454E+02  0.61510839661E+01 -0.42150536503E+02  0.48320102913E+02  0.24999676710E+00 0.  0.
    1000022    2    1    0    0    0 -0.24458434722E+02 -0.86313783035E+01  0.55977978465E+02  0.62499999227E+02  0.10000005498E+02 0.  0.
    3000022    2    5    5    0    0 -0.92398701126E+01 -0.80652426678E+01  0.20694304988E+02  0.24057017653E+02  0.25000084778E+00 0.  0.
        -13    1    4    4    0    0  0.14636874171E+02  0.38896387973E+01 -0.27054374542E+02  0.31005121872E+02  0.10500000000E+00 0. -1.
         13    1    4    4    0    0  0.81724722834E+01  0.22614451687E+01 -0.15096161961E+02  0.17314981040E+02  0.10500000000E+00 0.  1.
    3000001    1    5    5    0    0 -0.15218564609E+02 -0.56613563570E+00  0.35283673477E+02  0.38442981574E+02  0.10000000000E+01 0.  1.
        -13    1    6    6    0    0 -0.46479292333E+01 -0.40544149304E+01  0.10539837506E+02  0.12212318627E+02  0.10500000000E+00 0. -1.
         13    1    6    6    0    0 -0.45919408793E+01 -0.40108277374E+01  0.10154467482E+02  0.11844699027E+02  0.10500000000E+00 0.  1.
</event>
<event>
11    0  0.3462209E-009  0.9118800E+02  0.7816531E-02  0.1126479E+00
         25   -1    0    0    0    0  0.00000000000E+00  0.00000000000E+00  0.99999998245E-14  0.12500000000E+03  0.12500000000E+03 0.  0.
    3000001    1    3    3    0    0 -0.19255597898E+02  0.30781708647E+02 -0.20228069269E+02  0.41574829211E+02  0.10000000000E+01 0. -1.
    1000022    2    1    0    0    0 -0.23224993223E+02  0.45610564745E+02 -0.34445988410E+02  0.62500000553E+02  0.10000001254E+02 0.  0.
    3000022    2    3    3    0    0 -0.39693953253E+01  0.14828856098E+02 -0.14217919141E+02  0.20925171342E+02  0.24999711440E+00 0.  0.
    1000022    2    1    0    0    0  0.23224993223E+02 -0.45610564745E+02  0.34445988410E+02  0.62499999447E+02  0.99999943355E+01 0.  0.
    3000022    2    5    5    0    0  0.15564105581E+02 -0.36473799058E+02  0.30037711680E+02  0.49748427370E+02  0.25000518325E+00 0.  0.
        -13    1    4    4    0    0 -0.20628729474E+01  0.76619007858E+01 -0.74399394100E+01  0.10877678607E+02  0.10500000000E+00 0.  1.
         13    1    4    4    0    0 -0.19065223779E+01  0.71669553125E+01 -0.67779797311E+01  0.10047492735E+02  0.10500000000E+00 0. -1.
    3000001    1    5    5    0    0  0.76608876427E+01 -0.91367656866E+01  0.44082767300E+01  0.12751572076E+02  0.10000000000E+01 0.  1.
        -13    1    6    6    0    0  0.76978306911E+01 -0.17867106185E+02  0.14731252855E+02  0.24403092354E+02  0.10500000000E+00 0. -1.
         13    1    6    6    0    0  0.78662748897E+01 -0.18606692874E+02  0.15306458824E+02  0.25345335016E+02  0.10500000000E+00 0.  1.
</event>
<event>
11    0  0.3462209E-009  0.9118800E+02  0.7816531E-02  0.1126479E+00
         25   -1    0    0    0    0  0.00000000000E+00  0.00000000000E+00  0.99999998245E-14  0.12500000000E+03  0.12500000000E+03 0.  0.
    3000001    1    3    3    0    0  0.10943262186E+02 -0.28884119413E+02  0.92582689330E+01  0.32260856857E+02  0.10000000000E+01 0. -1.
    1000022    2    1    0    0    0  0.13631592300E+02 -0.55275546176E+02  0.23770640346E+02  0.62500002794E+02  0.10000034657E+02 0.  0.
    3000022    2    3    3    0    0  0.26883301143E+01 -0.26391426763E+02  0.14512371413E+02  0.30239145937E+02  0.24999516270E+00 0.  0.
    1000022    2    1    0    0    0 -0.13631592300E+02  0.55275546176E+02 -0.23770640346E+02  0.62499997206E+02  0.99999997355E+01 0.  0.
    3000022    2    5    5    0    0 -0.99516794743E+01  0.20341195610E+02 -0.86255372195E+01  0.24233500678E+02  0.24999917600E+00 0.  0.
        -13    1    4    4    0    0  0.17321664175E+01 -0.17292733564E+02  0.95612605750E+01  0.19836021864E+02  0.10500000000E+00 0. -1.
         13    1    4    4    0    0  0.95616369681E+00 -0.90986931992E+01  0.49511108377E+01  0.10403124073E+02  0.10500000000E+00 0.  1.
    3000001    1    5    5    0    0 -0.36799128256E+01  0.34934350565E+02 -0.15145103126E+02  0.38266496528E+02  0.10000000000E+01 0. -1.
        -13    1    6    6    0    0 -0.28461510626E+01  0.58950208784E+01 -0.24661328978E+01  0.69960477054E+01  0.10500000000E+00 0. -1.
         13    1    6    6    0    0 -0.71055284117E+01  0.14446174732E+02 -0.61594043217E+01  0.17237452973E+02  0.10500000000E+00 0.  1.
</event>
<event>
11    0  0.3462209E-009  0.9118800E+02  0.7816531E-02  0.1126479E+00
         25   -1    0    0    0    0  0.00000000000E+00  0.00000000000E+00  0.99999998245E-14  0.12500000000E+03  0.12500000000E+03 0.  0.
    3000001    1    3    3    0    0 -0.47462751540E+02 -0.44531631331E+01 -0.95347947381E+01  0.48625669726E+02  0.10000000000E+01 0.  1.
    1000022    2    1    0    0    0 -0.60965264676E+02 -0.63681580695E+01 -0.69952173159E+01  0.62499999334E+02  0.99999958634E+01 0.  0.
    3000022    2    3    3    0    0 -0.13502513136E+02 -0.19149949364E+01  0.25395774222E+01  0.13874329608E+02  0.25000398010E+00 0.  0.
    1000022    2    1    0    0    0  0.60965264676E+02  0.63681580695E+01  0.69952173159E+01  0.62500000666E+02  0.10000004184E+02 0.  0.
    3000022    2    5    5    0    0  0.47742639181E+01  0.21871496004E+00  0.33607633279E+01  0.58479621098E+01  0.24999699623E+00 0.  0.
        -13    1    4    4    0    0 -0.75353445361E+01 -0.11355639047E+01  0.14174314440E+01  0.77518423331E+01  0.10500000000E+00 0.  1.
         13    1    4    4    0    0 -0.59671686003E+01 -0.77943103172E+00  0.11221459782E+01  0.61224872751E+01  0.10500000000E+00 0. -1.
    3000001    1    5    5    0    0  0.56191000758E+02  0.61494431095E+01  0.36344539880E+01  0.56652038556E+02  0.10000000000E+01 0.  1.
        -13    1    6    6    0    0  0.31886188963E+01  0.13615314193E+00  0.23067590712E+01  0.39392880773E+01  0.10500000000E+00 0. -1.
         13    1    6    6    0    0  0.15856450218E+01  0.82561818116E-01  0.10540042567E+01  0.19086740325E+01  0.10500000000E+00 0.  1.
</event>
<event>
11    0  0.3462209E-009  0.9118800E+02  0.7816531E-02  0.1126479E+00
         25   -1    0    0    0    0  0.00000000000E+00  0.00000000000E+00  0.99999998245E-14  0.12500000000E+03  0.12500000000E+03 0.  0.
    3000001    1    3    3    0    0 -0.16305398008E+02 -0.23257130606E-01  0.58676569077E+02  0.60908179285E+02  0.10000000000E+01 0.  1.
    1000022    2    1    0    0    0 -0.17826905806E+02  0.60470008996E-01  0.59063084249E+02  0.62499999131E+02  0.99999871544E+01 0.  0.
    3000022    2    3    3    0    0 -0.15215077980E+01  0.83727139602E-01  0.38651517144E+00  0.15918198457E+01  0.25000046054E+00 0.  0.
    1000022    2    1    0    0    0  0.17826905806E+02 -0.60470008996E-01 -0.59063084249E+02  0.62500000869E+02  0.99999980221E+01 0.  0.
    3000022    2    5    5    0    0  0.90596378032E+00 -0.30812955759E+01 -0.90612404497E+01  0.96168461842E+01  0.24999848926E+00 0.  0.
        -13    1    4    4    0    0 -0.77477400940E+00 -0.13950703958E-01  0.15732309639E+00  0.79764963765E+00  0.10500000000E+00 0.  1.
         13    1    4    4    0    0 -0.74673378855E+00  0.97677843559E-01  0.22919207505E+00  0.79417020805E+00  0.10500000000E+00 0. -1.
    3000001    1    5    5    0    0  0.16920942026E+02  0.30208255669E+01 -0.50001843799E+02  0.52883154685E+02  0.10000000000E+01 0.  1.
        -13    1    6    6    0    0  0.29460255079E+00 -0.10180784522E+01 -0.28418955319E+01  0.30349085014E+01  0.10500000000E+00 0. -1.
         13    1    6    6    0    0  0.61136122953E+00 -0.20632171237E+01 -0.62193449179E+01  0.65819376828E+01  0.10500000000E+00 0.  1.
</event>
<event>
11    0  0.3462209E-009  0.9118800E+02  0.7816531E-02  0.1126479E+00
         25   -1    0    0    0    0  0.00000000000E+00  0.00000000000E+00  0.99999998245E-14  0.12500000000E+03  0.12500000000E+03 0.  0.
    3000001    1    3    3    0    0 -0.94452418011E+01 -0.21877399691E+02 -0.19320903558E+02  0.30694144787E+02  0.10000000000E+01 0.  1.
    1000022    2    1    0    0    0 -0.27341057583E+02 -0.44089216410E+02 -0.33389483351E+02  0.62500000570E+02  0.10000001969E+02 0.  0.
    3000022    2    3    3    0    0 -0.17895815782E+02 -0.22211816720E+02 -0.14068579793E+02  0.31805855783E+02  0.25000041556E+00 0.  0.
    1000022    2    1    0    0    0  0.27341057583E+02  0.44089216410E+02  0.33389483351E+02  0.62499999430E+02  0.99999948403E+01 0.  0.
    3000022    2    5    5    0    0  0.13451019372E+02  0.24956049945E+02  0.12697449656E+02  0.31064804521E+02  0.25000234655E+00 0.  0.
        -13    1    4    4    0    0 -0.10355418610E+02 -0.12950060744E+02 -0.81538775366E+01  0.18477973691E+02  0.10500000000E+00 0.  1.
         13    1    4    4    0    0 -0.75403971717E+01 -0.92617559762E+01 -0.59147022561E+01  0.13327882092E+02  0.10500000000E+00 0. -1.
    3000001    1    5    5    0    0  0.13890038211E+02  0.19133166466E+02  0.20692033695E+02  0.31435194909E+02  0.10000000000E+01 0.  1.
        -13    1    6    6    0    0  0.32064573667E+01  0.59359260863E+01  0.30399439671E+01  0.74005994129E+01  0.10500000000E+00 0.  1.
         13    1    6    6    0    0  0.10244562005E+02  0.19020123858E+02  0.96575056893E+01  0.23664205108E+02  0.10500000000E+00 0. -1.
</event>
<event>
11    0  0.3462209E-009  0.9118800E+02  0.7816531E-02  0.1126479E+00
         25   -1    0    0    0    0  0.00000000000E+00  0.00000000000E+00  0.99999998245E-14  0.12500000000E+03  0.12500000000E+03 0.  0.
    3000001    1    3    3    0    0 -0.72661680133E+01 -0.15058178572E+02  0.54019778550E+02  0.56556895372E+02  0.10000000000E+01 0. -1.
    1000022    2    1    0    0    0 -0.91429492034E+01 -0.13635072977E+02  0.59470507927E+02  0.62500000453E+02  0.10000000418E+02 0.  0.
    3000022    2    3    3    0    0 -0.18767811901E+01  0.14231055959E+01  0.54507293765E+01  0.59431050810E+01  0.25002019011E+00 0.  0.
    1000022    2    1    0    0    0  0.91429492034E+01  0.13635072977E+02 -0.59470507927E+02  0.62499999547E+02  0.99999947515E+01 0.  0.
    3000022    2    5    5    0    0  0.74619123196E+01  0.12470405288E+02 -0.34644928640E+02  0.37570263833E+02  0.25000095676E+00 0.  0.
        -13    1    4    4    0    0 -0.13970821665E+01  0.10749003597E+01  0.41274358112E+01  0.44893207436E+01  0.10500000000E+00 0.  1.
         13    1    4    4    0    0 -0.47969902363E+00  0.34820523617E+00  0.13232935653E+01  0.14537843374E+01  0.10500000000E+00 0. -1.
    3000001    1    5    5    0    0  0.16810368837E+01  0.11646676882E+01 -0.24825579286E+02  0.24929735713E+02  0.10000000000E+01 0.  1.
        -13    1    6    6    0    0  0.31420013249E+01  0.53756189204E+01 -0.14878629057E+02  0.16129292567E+02  0.10500000000E+00 0. -1.
         13    1    6    6    0    0  0.43199109947E+01  0.70947863680E+01 -0.19766299583E+02  0.21440971266E+02  0.10500000000E+00 0.  1.
</event>
<event>
11    0  0.3462209E-009  0.9118800E+02  0.7816531E-02  0.1126479E+00
         25   -1    0    0    0    0  0.00000000000E+00  0.00000000000E+00  0.99999998245E-14  0.12500000000E+03  0.12500000000E+03 0.  0.
    3000001    1    3    3    0    0 -0.68425898490E+01 -0.28094681535E+02  0.37142141545E+02  0.47081534012E+02  0.10000000000E+01 0. -1.
    1000022    2    1    0    0    0 -0.12803380530E+02 -0.33156088288E+02  0.50428141138E+02  0.62500000460E+02  0.99999947639E+01 0.  0.
    3000022    2    3    3    0    0 -0.59607906813E+01 -0.50614067536E+01  0.13285999592E+02  0.15418466447E+02  0.24991708742E+00 0.  0.
    1000022    2    1    0    0    0  0.12803380530E+02  0.33156088288E+02 -0.50428141138E+02  0.62499999540E+02  0.99999890168E+01 0.  0.
    3000022    2    5    5    0    0  0.12937590037E+02  0.25557248182E+02 -0.43961075038E+02  0.52470875596E+02  0.24999344674E+00 0.  0.
        -13    1    4    4    0    0 -0.38377389577E+01 -0.33299602383E+01  0.85998012581E+01  0.99892182965E+01  0.10500000000E+00 0.  1.
         13    1    4    4    0    0 -0.21230517236E+01 -0.17314465152E+01  0.46861983343E+01  0.54292481510E+01  0.10500000000E+00 0. -1.
    3000001    1    5    5    0    0 -0.13420950633E+00  0.75988401059E+01 -0.64670660998E+01  0.10029123944E+02  0.10000000000E+01 0.  1.
        -13    1    6    6    0    0  0.70363142473E+01  0.13754373193E+02 -0.23684321053E+02  0.28278093798E+02  0.10500000000E+00 0.  1.
         13    1    6    6    0    0  0.59012757893E+01  0.11802874989E+02 -0.20276753985E+02  0.24192781798E+02  0.10500000000E+00 0. -1.
</event>
<event>
11    0  0.3462209E-009  0.9118800E+02  0.7816531E-02  0.1126479E+00
         25   -1    0    0    0    0  0.00000000000E+00  0.00000000000E+00  0.99999998245E-14  0.12500000000E+03  0.12500000000E+03 0.  0.
    3000001    1    3    3    0    0 -0.22825549648E+02  0.45855054023E+02 -0.16511405616E+02  0.53826742532E+02  0.10000000000E+01 0. -1.
    1000022    2    1    0    0    0 -0.26655308137E+02  0.50927968213E+02 -0.22407290308E+02  0.62500001157E+02  0.10000004372E+02 0.  0.
    3000022    2    3    3    0    0 -0.38297584895E+01  0.50729141901E+01 -0.58958846920E+01  0.86732586250E+01  0.24990079299E+00 0.  0.
    1000022    2    1    0    0    0  0.26655308137E+02 -0.50927968213E+02  0.22407290308E+02  0.62499998843E+02  0.99999899139E+01 0.  0.
    3000022    2    5    5    0    0  0.12555895314E+02 -0.29649979932E+02  0.80263121525E+01  0.33185177337E+02  0.24998202353E+00 0.  0.
        -13    1    4    4    0    0 -0.17330848159E+01  0.22892662969E+01 -0.25730582696E+01  0.38569388141E+01  0.10500000000E+00 0. -1.
         13    1    4    4    0    0 -0.20966736736E+01  0.27836478932E+01 -0.33228264224E+01  0.48163198109E+01  0.10500000000E+00 0.  1.
    3000001    1    5    5    0    0  0.14099412823E+02 -0.21277988281E+02  0.14380978155E+02  0.29314821506E+02  0.10000000000E+01 0. -1.
        -13    1    6    6    0    0  0.48586680585E+01 -0.11448370871E+02  0.31628195765E+01  0.12833016153E+02  0.10500000000E+00 0.  1.
         13    1    6    6    0    0  0.76972272556E+01 -0.18201609061E+02  0.48634925761E+01  0.20352161184E+02  0.10500000000E+00 0. -1.
</event>
<event>
11    0  0.3462209E-009  0.9118800E+02  0.7816531E-02  0.1126479E+00
         25   -1    0    0    0    0  0.00000000000E+00  0.00000000000E+00  0.99999998245E-14  0.12500000000E+03  0.12500000000E+03 0.  0.
    3000001    1    3    3    0    0 -0.32886227906E+02  0.97716864301E+01 -0.13827782682E+02  0.37002667681E+02  0.10000000000E+01 0. -1.
    1000022    2    1    0    0    0 -0.56555726217E+02  0.19079115118E+02 -0.15610491078E+02  0.62499999563E+02  0.99999856045E+01 0.  0.
    3000022    2    3    3    0    0 -0.23669498311E+02  0.93074286883E+01 -0.17827083959E+01  0.25497331883E+02  0.25000967330E+00 0.  0.
    1000022    2    1    0    0    0  0.56555726217E+02 -0.19079115118E+02  0.15610491078E+02  0.62500000437E+02  0.99999910618E+01 0.  0.
    3000022    2    5    5    0    0  0.21797781329E+01 -0.12586410631E+01 -0.12722947164E+01  0.28314033206E+01  0.25000176885E+00 0.  0.
        -13    1    4    4    0    0 -0.80225498411E+01  0.31576147299E+01 -0.65899703569E+00  0.86473775694E+01  0.10500000000E+00 0. -1.
         13    1    4    4    0    0 -0.15646948470E+02  0.61498139583E+01 -0.11237113602E+01  0.16849954313E+02  0.10500000000E+00 0.  1.
    3000001    1    5    5    0    0  0.54375948084E+02 -0.17820474055E+02  0.16882785794E+02  0.59668597116E+02  0.10000000000E+01 0. -1.
        -13    1    6    6    0    0  0.13737422566E+01 -0.80923380025E+00 -0.86858304161E+00  0.18186502224E+01  0.10500000000E+00 0. -1.
         13    1    6    6    0    0  0.80603587624E+00 -0.44940726281E+00 -0.40371167476E+00  0.10127530982E+01  0.10500000000E+00 0.  1.
</event>
<event>
11    0  0.3462209E-009  0.9118800E+02  0.7816531E-02  0.1126479E+00
         25   -1    0    0    0    0  0.00000000000E+00  0.00000000000E+00  0.99999998245E-14  0.12500000000E+03  0.12500000000E+03 0.  0.
    3000001    1    3    3    0    0  0.19817800137E+02 -0.33556232314E+02 -0.85149329147E+01  0.39903258162E+02  0.10000000000E+01 0. -1.
    1000022    2    1    0    0    0  0.29377873242E+02 -0.50327051023E+02 -0.20257797136E+02  0.62499999480E+02  0.10000004464E+02 0.  0.
    3000022    2    3    3    0    0  0.95600731054E+01 -0.16770818709E+02 -0.11742864222E+02  0.22596741318E+02  0.25000026267E+00 0.  0.
    1000022    2    1    0    0    0 -0.29377873242E+02  0.50327051023E+02  0.20257797136E+02  0.62500000520E+02  0.10000010967E+02 0.  0.
    3000022    2    5    5    0    0 -0.98825592540E+01  0.25841828319E+02  0.73355226663E+01  0.28624071370E+02  0.25000139583E+00 0.  0.
        -13    1    4    4    0    0  0.70109663222E+01 -0.12339471923E+02 -0.86645420821E+01  0.16628335172E+02  0.10500000000E+00 0.  1.
         13    1    4    4    0    0  0.25491067832E+01 -0.44313467857E+01 -0.30783221395E+01  0.59684061459E+01  0.10500000000E+00 0. -1.
    3000001    1    5    5    0    0 -0.19495313988E+02  0.24485222703E+02  0.12922274470E+02  0.33875929150E+02  0.10000000000E+01 0.  1.
        -13    1    6    6    0    0 -0.66426563625E+01  0.17456487869E+02  0.49949805287E+01  0.19334288395E+02  0.10500000000E+00 0.  1.
         13    1    6    6    0    0 -0.32399028915E+01  0.83853404503E+01  0.23405421377E+01  0.92897829744E+01  0.10500000000E+00 0. -1.
</event>
<event>
11    0  0.3462209E-009  0.9118800E+02  0.7816531E-02  0.1126479E+00
         25   -1    0    0    0    0  0.00000000000E+00  0.00000000000E+00  0.99999998245E-14  0.12500000000E+03  0.12500000000E+03 0.  0.
    3000001    1    3    3    0    0 -0.43361163477E+02 -0.68389128423E+01  0.14763385596E+02  0.46324062658E+02  0.10000000000E+01 0. -1.
    1000022    2    1    0    0    0 -0.55649014187E+02 -0.13222279537E+02  0.23121602078E+02  0.62499999770E+02  0.10000001627E+02 0.  0.
    3000022    2    3    3    0    0 -0.12287850710E+02 -0.63833666950E+01  0.83582164820E+01  0.16175937112E+02  0.25002651812E+00 0.  0.
    1000022    2    1    0    0    0  0.55649014187E+02  0.13222279537E+02 -0.23121602078E+02  0.62500000230E+02  0.10000004497E+02 0.  0.
    3000022    2    5    5    0    0  0.29006302677E+02  0.10829824926E+02 -0.90521608547E+01  0.32259181921E+02  0.24999828439E+00 0.  0.
        -13    1    4    4    0    0 -0.53985076125E+01 -0.28659967056E+01  0.36455706155E+01  0.71175158357E+01  0.10500000000E+00 0. -1.
         13    1    4    4    0    0 -0.68893430977E+01 -0.35173699894E+01  0.47126458665E+01  0.90584212765E+01  0.10500000000E+00 0.  1.
    3000001    1    5    5    0    0  0.26642711509E+02  0.23924546111E+01 -0.14069441223E+02  0.30240818308E+02  0.10000000000E+01 0.  1.
        -13    1    6    6    0    0  0.17167317813E+02  0.64767643761E+01 -0.53536039645E+01  0.19113800723E+02  0.10500000000E+00 0. -1.
         13    1    6    6    0    0  0.11838984864E+02  0.43530605501E+01 -0.36985568901E+01  0.13145381198E+02  0.10500000000E+00 0.  1.
</event>
<event>
11    0  0.3462209E-009  0.9118800E+02  0.7816531E-02  0.1126479E+00
         25   -1    0    0    0    0  0.00000000000E+00  0.00000000000E+00  0.99999998245E-14  0.12500000000E+03  0.12500000000E+03 0.  0.
    3000001    1    3    3    0    0 -0.85529043403E+00  0.56826710125E+01  0.80614738520E+01  0.99504588954E+01  0.10000000000E+01 0. -1.
    1000022    2    1    0    0    0 -0.22094107725E+02  0.43235201601E+02  0.38063337314E+02  0.62499999638E+02  0.10000002681E+02 0.  0.
    3000022    2    3    3    0    0 -0.21238817291E+02  0.37552530589E+02  0.30001863462E+02  0.52549540743E+02  0.25001507653E+00 0.  0.
    1000022    2    1    0    0    0  0.22094107725E+02 -0.43235201601E+02 -0.38063337314E+02  0.62500000362E+02  0.10000007202E+02 0.  0.
    3000022    2    5    5    0    0  0.43127635289E+01 -0.13216877676E+02 -0.16043873161E+02  0.21230971123E+02  0.24996811083E+00 0.  0.
        -13    1    4    4    0    0 -0.12389396006E+02  0.21825890004E+02  0.17390211038E+02  0.30533540128E+02  0.10500000000E+00 0.  1.
         13    1    4    4    0    0 -0.88494212845E+01  0.15726640585E+02  0.12611652425E+02  0.22016000614E+02  0.10500000000E+00 0. -1.
    3000001    1    5    5    0    0  0.17781344196E+02 -0.30018323925E+02 -0.22019464153E+02  0.41269029238E+02  0.10000000000E+01 0. -1.
        -13    1    6    6    0    0  0.25836769529E+01 -0.80265039527E+01 -0.98101936621E+01  0.12936424428E+02  0.10500000000E+00 0.  1.
         13    1    6    6    0    0  0.17290865760E+01 -0.51903737234E+01 -0.62336794991E+01  0.82945466949E+01  0.10500000000E+00 0. -1.
</event>
<event>
11    0  0.3462209E-009  0.9118800E+02  0.7816531E-02  0.1126479E+00
         25   -1    0    0    0    0  0.00000000000E+00  0.00000000000E+00  0.99999998245E-14  0.12500000000E+03  0.12500000000E+03 0.  0.
    3000001    1    3    3    0    0 -0.13608780638E+01  0.45645154286E+00  0.14697700980E+00  0.17555453161E+01  0.10000000000E+01 0.  1.
    1000022    2    1    0    0    0 -0.46362561296E+02  0.46072190553E+01 -0.40441765593E+02  0.62500000541E+02  0.10000005300E+02 0.  0.
    3000022    2    3    3    0    0 -0.45001683232E+02  0.41507675125E+01 -0.40588742603E+02  0.60744455225E+02  0.24989960874E+00 0.  0.
    1000022    2    1    0    0    0  0.46362561296E+02 -0.46072190553E+01  0.40441765593E+02  0.62499999459E+02  0.99999985335E+01 0.  0.
    3000022    2    5    5    0    0  0.40102089292E+02 -0.51665389813E+00  0.33900717697E+02  0.52514432844E+02  0.24999960802E+00 0.  0.
        -13    1    4    4    0    0 -0.16805475657E+02  0.15509975190E+01 -0.15077242927E+02  0.22631038081E+02  0.10500000000E+00 0.  1.
         13    1    4    4    0    0 -0.28196207575E+02  0.25997699934E+01 -0.25511499677E+02  0.38113417144E+02  0.10500000000E+00 0. -1.
    3000001    1    5    5    0    0  0.62604720044E+01 -0.40905651572E+01  0.65410478968E+01  0.99855666144E+01  0.10000000000E+01 0. -1.
        -13    1    6    6    0    0  0.22668258649E+02 -0.31527246791E+00  0.19243670155E+02  0.29736832598E+02  0.10500000000E+00 0. -1.
         13    1    6    6    0    0  0.17433830643E+02 -0.20138143023E+00  0.14657047541E+02  0.22777600247E+02  0.10500000000E+00 0.  1.
</event>
<event>
11    0  0.3462209E-009  0.9118800E+02  0.7816531E-02  0.1126479E+00
         25   -1    0    0    0    0  0.00000000000E+00  0.00000000000E+00  0.99999998245E-14  0.12500000000E+03  0.12500000000E+03 0.  0.
    3000001    1    3    3    0    0 -0.21743409292E+02  0.48982399570E+01 -0.25346182693E+02  0.33766811804E+02  0.10000000000E+01 0.  1.
    1000022    2    1    0    0    0 -0.41323660061E+02  0.17008238325E+02 -0.42536160443E+02  0.62500000121E+02  0.10000000911E+02 0.  0.
    3000022    2    3    3    0    0 -0.19580250769E+02  0.12109998368E+02 -0.17189977749E+02  0.28733188317E+02  0.24999037588E+00 0.  0.
    1000022    2    1    0    0    0  0.41323660061E+02 -0.17008238325E+02  0.42536160443E+02  0.62499999879E+02  0.99999993947E+01 0.  0.
    3000022    2    5    5    0    0  0.24799156325E+01  0.30915207382E+00  0.56937127275E+01  0.62230557090E+01  0.25000236953E+00 0.  0.
        -13    1    4    4    0    0 -0.64939319929E+01  0.39630035851E+01 -0.57145666122E+01  0.95154530480E+01  0.10500000000E+00 0.  1.
         13    1    4    4    0    0 -0.13086318776E+02  0.81469947829E+01 -0.11475411137E+02  0.19217735269E+02  0.10500000000E+00 0. -1.
    3000001    1    5    5    0    0  0.38843744428E+02 -0.17317390399E+02  0.36842447715E+02  0.56276944170E+02  0.10000000000E+01 0.  1.
        -13    1    6    6    0    0  0.68794667344E+00  0.12261277413E+00  0.15633788508E+01  0.17156581679E+01  0.10500000000E+00 0. -1.
         13    1    6    6    0    0  0.17919689591E+01  0.18653929969E+00  0.41303338768E+01  0.45073975412E+01  0.10500000000E+00 0.  1.
</event>
<event>
11    0  0.3462209E-009  0.9118800E+02  0.7816531E-02  0.1126479E+00
         25   -1    0    0    0    0  0.00000000000E+00  0.00000000000E+00  0.99999998245E-14  0.12500000000E+03  0.12500000000E+03 0.  0.
    3000001    1    3    3    0    0  0.52736075760E+02 -0.14330849320E+02 -0.24174546004E+02  0.59765170487E+02  0.10000000000E+01 0. -1.
    1000022    2    1    0    0    0  0.55306646699E+02 -0.14341895561E+02 -0.23275194802E+02  0.62499999384E+02  0.10000004627E+02 0.  0.
    3000022    2    3    3    0    0  0.25705709394E+01 -0.11046240124E-01  0.89935120184E+00  0.27348288973E+01  0.24999907970E+00 0.  0.
    1000022    2    1    0    0    0 -0.55306646699E+02  0.14341895561E+02  0.23275194802E+02  0.62500000616E+02  0.10000012324E+02 0.  0.
    3000022    2    5    5    0    0 -0.47334161435E+02  0.94879526720E+01  0.16884500902E+02  0.51143845836E+02  0.25002302134E+00 0.  0.
        -13    1    4    4    0    0  0.15413962158E+01 -0.67181894190E-01  0.51968265861E+00  0.16314137325E+01  0.10500000000E+00 0. -1.
         13    1    4    4    0    0  0.10291747236E+01  0.56135654066E-01  0.37966854323E+00  0.11034151649E+01  0.10500000000E+00 0.  1.
    3000001    1    5    5    0    0 -0.79724852643E+01  0.48539428885E+01  0.63906939005E+01  0.11356154780E+02  0.10000000000E+01 0.  1.
        -13    1    6    6    0    0 -0.22381770559E+02  0.44804815904E+01  0.79121254116E+01  0.24158458605E+02  0.10500000000E+00 0. -1.
         13    1    6    6    0    0 -0.24952390876E+02  0.50074710816E+01  0.89723754901E+01  0.26985387231E+02  0.10500000000E+00 0.  1.
</event>
<event>
11    0  0.3462209E-009  0.9118800E+02  0.7816531E-02  0.1126479E+00
         25   -1    0    0    0    0  0.00000000000E+00  0.00000000000E+00  0.99999998245E-14  0.12500000000E+03  0.12500000000E+03 0.  0.
    3000001    1    3    3    0    0  0.31762252597E+01  0.11872097258E+02 -0.71641764391E+00  0.12351046694E+02  0.10000000000E+01 0.  1.
    1000022    2    1    0    0    0 -0.79826679104E-01  0.59900332789E+02 -0.14771378757E+02  0.62500001572E+02  0.10000016279E+02 0.  0.
    3000022    2    3    3    0    0 -0.32560519388E+01  0.48028235531E+02 -0.14054961113E+02  0.50148954877E+02  0.24992196369E+00 0.  0.
    1000022    2    1    0    0    0  0.79826679104E-01 -0.59900332789E+02  0.14771378757E+02  0.62499998428E+02  0.99999966329E+01 0.  0.
    3000022    2    5    5    0    0  0.15802781340E+01 -0.14692498711E+02  0.78346130176E+01  0.16727535796E+02  0.24999059033E+00 0.  0.
        -13    1    4    4    0    0 -0.24463105081E+01  0.36285562843E+02 -0.10599362800E+02  0.37881182964E+02  0.10500000000E+00 0.  1.
         13    1    4    4    0    0 -0.80974143074E+00  0.11742672687E+02 -0.34555983126E+01  0.12267771914E+02  0.10500000000E+00 0. -1.
    3000001    1    5    5    0    0 -0.15004514549E+01 -0.45207834077E+02  0.69367657393E+01  0.45772462633E+02  0.10000000000E+01 0.  1.
        -13    1    6    6    0    0  0.58362548957E+00 -0.60197139958E+01  0.32149933294E+01  0.68501665974E+01  0.10500000000E+00 0. -1.
         13    1    6    6    0    0  0.99665264441E+00 -0.86727847156E+01  0.46196196882E+01  0.98773691983E+01  0.10500000000E+00 0.  1.
</event>
<event>
11    0  0.3462209E-009  0.9118800E+02  0.7816531E-02  0.1126479E+00
         25   -1    0    0    0    0  0.00000000000E+00  0.00000000000E+00  0.99999998245E-14  0.12500000000E+03  0.12500000000E+03 0.  0.
    3000001    1    3    3    0    0  0.16896830438E+02 -0.97682244290E+01  0.85421918280E+01  0.21328153426E+02  0.10000000000E+01 0. -1.
    1000022    2    1    0    0    0  0.55850282709E+02 -0.18166311414E+02  0.18893952341E+02  0.62499997603E+02  0.99999658108E+01 0.  0.
    3000022    2    3    3    0    0  0.38953452272E+02 -0.83980869854E+01  0.10351760513E+02  0.41171844177E+02  0.24999667854E+00 0.  0.
    1000022    2    1    0    0    0 -0.55850282709E+02  0.18166311414E+02 -0.18893952341E+02  0.62500002397E+02  0.99999957697E+01 0.  0.
    3000022    2    5    5    0    0 -0.50895813725E+02  0.18430042136E+02 -0.15168962984E+02  0.56215747268E+02  0.24999011853E+00 0.  0.
        -13    1    4    4    0    0  0.18600809291E+02 -0.40447452460E+01  0.48845136096E+01  0.19652469783E+02  0.10500000000E+00 0. -1.
         13    1    4    4    0    0  0.20352642981E+02 -0.43533417394E+01  0.54672469034E+01  0.21519374394E+02  0.10500000000E+00 0.  1.
    3000001    1    5    5    0    0 -0.49544689843E+01 -0.26373072135E+00 -0.37249893567E+01  0.62842551283E+01  0.10000000000E+01 0. -1.
        -13    1    6    6    0    0 -0.36922210122E+02  0.13329832907E+02 -0.10998902590E+02  0.40766664431E+02  0.10500000000E+00 0.  1.
         13    1    6    6    0    0 -0.13973603603E+02  0.51002092285E+01 -0.41700603941E+01  0.15449082837E+02  0.10500000000E+00 0. -1.
</event>
<event>
11    0  0.3462209E-009  0.9118800E+02  0.7816531E-02  0.1126479E+00
         25   -1    0    0    0    0  0.00000000000E+00  0.00000000000E+00  0.99999998245E-14  0.12500000000E+03  0.12500000000E+03 0.  0.
    3000001    1    3    3    0    0  0.31062960464E+01  0.19884199174E+01 -0.56569708909E+01  0.68267275144E+01  0.10000000000E+01 0.  1.
    1000022    2    1    0    0    0  0.24680962747E+02 -0.84261471662E+01 -0.55911537599E+02  0.62500001456E+02  0.10000013360E+02 0.  0.
    3000022    2    3    3    0    0  0.21574666700E+02 -0.10414567084E+02 -0.50254566708E+02  0.55673273942E+02  0.25001125846E+00 0.  0.
    1000022    2    1    0    0    0 -0.24680962747E+02  0.84261471662E+01  0.55911537599E+02  0.62499998544E+02  0.99999951543E+01 0.  0.
    3000022    2    5    5    0    0 -0.50412964284E+01  0.50763155593E+01  0.88336759635E+01  0.11370135244E+02  0.24999019060E+00 0.  0.
        -13    1    4    4    0    0  0.64916910463E+01 -0.31827105967E+01 -0.15199662092E+02  0.16831887954E+02  0.10500000000E+00 0.  1.
         13    1    4    4    0    0  0.15082975654E+02 -0.72318564869E+01 -0.35054904616E+02  0.38841385988E+02  0.10500000000E+00 0. -1.
    3000001    1    5    5    0    0 -0.19639666318E+02  0.33498316069E+01  0.47077861636E+02  0.51129863300E+02  0.10000000000E+01 0.  1.
        -13    1    6    6    0    0 -0.29476259626E+01  0.29055170332E+01  0.50336746930E+01  0.65176248711E+01  0.10500000000E+00 0. -1.
         13    1    6    6    0    0 -0.20936704658E+01  0.21707985261E+01  0.38000012706E+01  0.48525103726E+01  0.10500000000E+00 0.  1.
</event>
<event>
11    0  0.3462209E-009  0.9118800E+02  0.7816531E-02  0.1126479E+00
         25   -1    0    0    0    0  0.00000000000E+00  0.00000000000E+00  0.99999998245E-14  0.12500000000E+03  0.12500000000E+03 0.  0.
    3000001    1    3    3    0    0 -0.28643921605E+02 -0.30278295228E+02  0.54330744751E+01  0.42044829707E+02  0.10000000000E+01 0.  1.
    1000022    2    1    0    0    0 -0.37083407820E+02 -0.48881615161E+02  0.64543497597E+01  0.62499998869E+02  0.99999895756E+01 0.  0.
    3000022    2    3    3    0    0 -0.84394862153E+01 -0.18603319933E+02  0.10212752846E+01  0.20455169162E+02  0.25000428493E+00 0.  0.
    1000022    2    1    0    0    0  0.37083407820E+02  0.48881615161E+02 -0.64543497597E+01  0.62500001131E+02  0.10000003711E+02 0.  0.
    3000022    2    5    5    0    0  0.10860623875E+02  0.17190037719E+02 -0.65176461647E+01  0.21353986925E+02  0.24999664311E+00 0.  0.
        -13    1    4    4    0    0 -0.49707819975E+01 -0.11053657280E+02  0.65564383855E+00  0.12138076732E+02  0.10500000000E+00 0. -1.
         13    1    4    4    0    0 -0.34687042178E+01 -0.75496626537E+01  0.36563144605E+00  0.83170924300E+01  0.10500000000E+00 0.  1.
    3000001    1    5    5    0    0  0.26222783945E+02  0.31691577442E+02  0.63296404968E-01  0.41146014206E+02  0.10000000000E+01 0.  1.
        -13    1    6    6    0    0  0.33021115420E+01  0.51790660051E+01 -0.19281972131E+01  0.64386050364E+01  0.10500000000E+00 0.  1.
         13    1    6    6    0    0  0.75585123328E+01  0.12010971714E+02 -0.45894489516E+01  0.14915381889E+02  0.10500000000E+00 0. -1.
</event>
<event>
11    0  0.3462209E-009  0.9118800E+02  0.7816531E-02  0.1126479E+00
         25   -1    0    0    0    0  0.00000000000E+00  0.00000000000E+00  0.99999998245E-14  0.12500000000E+03  0.12500000000E+03 0.  0.
    3000001    1    3    3    0    0 -0.76242221350E+00 -0.97124149900E+00 -0.18188403118E+00  0.15992746737E+01  0.10000000000E+01 0. -1.
    1000022    2    1    0    0    0 -0.34188985582E+02 -0.14909947639E+02 -0.49143226241E+02  0.62499998780E+02  0.99999944192E+01 0.  0.
    3000022    2    3    3    0    0 -0.33426563369E+02 -0.13938706140E+02 -0.48961342210E+02  0.60900724107E+02  0.24999636949E+00 0.  0.
    1000022    2    1    0    0    0  0.34188985582E+02  0.14909947639E+02  0.49143226241E+02  0.62500001220E+02  0.10000009665E+02 0.  0.
    3000022    2    5    5    0    0  0.11837793155E+02  0.30489134216E+01  0.96080084266E+01  0.15550098309E+02  0.25002334348E+00 0.  0.
        -13    1    4    4    0    0 -0.19774804834E+02 -0.82192725842E+01 -0.29049960421E+02  0.36090311352E+02  0.10500000000E+00 0.  1.
         13    1    4    4    0    0 -0.13651758535E+02 -0.57194335557E+01 -0.19911381789E+02  0.24810412755E+02  0.10500000000E+00 0. -1.
    3000001    1    5    5    0    0  0.22351192428E+02  0.11861034217E+02  0.39535217815E+02  0.46949902911E+02  0.10000000000E+01 0.  1.
        -13    1    6    6    0    0  0.68336264742E+01  0.17070875889E+01  0.55867673013E+01  0.89908616219E+01  0.10500000000E+00 0.  1.
         13    1    6    6    0    0  0.50041666804E+01  0.13418258327E+01  0.40212411253E+01  0.65592366872E+01  0.10500000000E+00 0. -1.
</event>
<event>
11    0  0.3462209E-009  0.9118800E+02  0.7816531E-02  0.1126479E+00
         25   -1    0    0    0    0  0.00000000000E+00  0.00000000000E+00  0.99999998245E-14  0.12500000000E+03  0.12500000000E+03 0.  0.
    3000001    1    3    3    0    0 -0.36845053777E+02  0.31045828973E+02 -0.34434091429E+02  0.59229284455E+02  0.10000000000E+01 0. -1.
    1000022    2    1    0    0    0 -0.36794948391E+02  0.32533416084E+02 -0.37335755270E+02  0.62499999972E+02  0.99999992862E+01 0.  0.
    3000022    2    3    3    0    0  0.50105386628E-01  0.14875871110E+01 -0.29016638411E+01  0.32707155172E+01  0.25000196958E+00 0.  0.
    1000022    2    1    0    0    0  0.36794948391E+02 -0.32533416084E+02  0.37335755270E+02  0.62500000028E+02  0.99999996373E+01 0.  0.
    3000022    2    5    5    0    0  0.34724931068E+02 -0.31072232732E+02  0.32057018417E+02  0.56559874502E+02  0.24997848021E+00 0.  0.
        -13    1    4    4    0    0  0.86116603929E-01  0.87631863066E+00 -0.17710059910E+01  0.19806154680E+01  0.10500000000E+00 0.  1.
         13    1    4    4    0    0 -0.36011217301E-01  0.61126848037E+00 -0.11306578501E+01  0.12901000492E+01  0.10500000000E+00 0. -1.
    3000001    1    5    5    0    0  0.20700173228E+01 -0.14611833520E+01  0.52787368529E+01  0.59401255262E+01  0.10000000000E+01 0.  1.
        -13    1    6    6    0    0  0.19003657635E+02 -0.16921319190E+02  0.17475440831E+02  0.30868626531E+02  0.10500000000E+00 0. -1.
         13    1    6    6    0    0  0.15721273433E+02 -0.14150913541E+02  0.14581577586E+02  0.25691247971E+02  0.10500000000E+00 0.  1.
</event>
<event>
11    0  0.3462209E-009  0.9118800E+02  0.7816531E-02  0.1126479E+00
         25   -1    0    0    0    0  0.00000000000E+00  0.00000000000E+00  0.99999998245E-14  0.12500000000E+03  0.12500000000E+03 0.  0.
    3000001    1    3    3    0    0  0.25281771679E+02  0.21017461045E+02  0.29395077595E+01  0.33023360730E+02  0.10000000000E+01 0. -1.
    1000022    2    1    0    0    0  0.41310087275E+02  0.45751217323E+02  0.25598412994E+01  0.62499999737E+02  0.99999991255E+01 0.  0.
    3000022    2    3    3    0    0  0.16028315596E+02  0.24733756278E+02 -0.37966646010E+00  0.29476639008E+02  0.25000023962E+00 0.  0.
    1000022    2    1    0    0    0 -0.41310087275E+02 -0.45751217323E+02 -0.25598412994E+01  0.62500000263E+02  0.10000002407E+02 0.  0.
    3000022    2    5    5    0    0 -0.20450547219E+01  0.70434840692E-01  0.28433504609E+00  0.20809972297E+01  0.24998633804E+00 0.  0.
        -13    1    4    4    0    0  0.83759173412E+01  0.12860559451E+02 -0.13990215774E+00  0.15348634412E+02  0.10500000000E+00 0.  1.
         13    1    4    4    0    0  0.76523982548E+01  0.11873196827E+02 -0.23976430237E+00  0.14128004596E+02  0.10500000000E+00 0. -1.
    3000001    1    5    5    0    0 -0.39265032553E+02 -0.45821652164E+02 -0.28441763455E+01  0.60419003033E+02  0.10000000000E+01 0. -1.
        -13    1    6    6    0    0 -0.14196453107E+01  0.43377975856E-02  0.17854568894E+00  0.14346829572E+01  0.10500000000E+00 0.  1.
         13    1    6    6    0    0 -0.62540941119E+00  0.66097043107E-01  0.10578935714E+00  0.64631427247E+00  0.10500000000E+00 0. -1.
</event>
<event>
11    0  0.3462209E-009  0.9118800E+02  0.7816531E-02  0.1126479E+00
         25   -1    0    0    0    0  0.00000000000E+00  0.00000000000E+00  0.99999998245E-14  0.12500000000E+03  0.12500000000E+03 0.  0.
    3000001    1    3    3    0    0 -0.14467415849E+01  0.13093823009E+01  0.20874020472E+01  0.30273405044E+01  0.10000000000E+01 0. -1.
    1000022    2    1    0    0    0  0.63615077820E+01  0.21155332071E+02  0.57604105501E+02  0.62500000960E+02  0.10000014659E+02 0.  0.
    3000022    2    3    3    0    0  0.78082493669E+01  0.19845949770E+02  0.55516703454E+02  0.59472660456E+02  0.24999773489E+00 0.  0.
    1000022    2    1    0    0    0 -0.63615077820E+01 -0.21155332071E+02 -0.57604105501E+02  0.62499999040E+02  0.10000002654E+02 0.  0.
    3000022    2    5    5    0    0 -0.64572394817E+01 -0.18860656200E+02 -0.39735191212E+02  0.44456363049E+02  0.25000164713E+00 0.  0.
        -13    1    4    4    0    0  0.50496041460E+01  0.12736703652E+02  0.35791301933E+02  0.38324280046E+02  0.10500000000E+00 0.  1.
         13    1    4    4    0    0  0.27586452209E+01  0.71092461180E+01  0.19725401521E+02  0.21148380410E+02  0.10500000000E+00 0. -1.
    3000001    1    5    5    0    0  0.95731699703E-01 -0.22946758710E+01 -0.17868914289E+02  0.18043635991E+02  0.10000000000E+01 0.  1.
        -13    1    6    6    0    0 -0.38089240875E+01 -0.11045962736E+02 -0.23156905818E+02  0.25937897131E+02  0.10500000000E+00 0. -1.
         13    1    6    6    0    0 -0.26483153942E+01 -0.78146934640E+01 -0.16578285394E+02  0.18518465918E+02  0.10500000000E+00 0.  1.
</event>
<event>
11    0  0.3462209E-009  0.9118800E+02  0.7816531E-02  0.1126479E+00
         25   -1    0    0    0    0  0.00000000000E+00  0.00000000000E+00  0.99999998245E-14  0.12500000000E+03  0.12500000000E+03 0.  0.
    3000001    1    3    3    0    0  0.21128124294E+02  0.14859686428E+02 -0.43155779543E+02  0.50305359803E+02  0.10000000000E+01 0.  1.
    1000022    2    1    0    0    0  0.25903490403E+02  0.22687544066E+02 -0.51191156202E+02  0.62500000183E+02  0.10000003939E+02 0.  0.
    3000022    2    3    3    0    0  0.47753661086E+01  0.78278576380E+01 -0.80353766594E+01  0.12194640380E+02  0.24999855953E+00 0.  0.
    1000022    2    1    0    0    0 -0.25903490403E+02 -0.22687544066E+02  0.51191156202E+02  0.62499999817E+02  0.10000001651E+02 0.  0.
    3000022    2    5    5    0    0 -0.22042404140E+02 -0.18515613350E+02  0.47817460224E+02  0.55814581537E+02  0.24998374687E+00 0.  0.
        -13    1    4    4    0    0  0.25796416821E+01  0.43380563652E+01 -0.43763977001E+01  0.66811051530E+01  0.10500000000E+00 0. -1.
         13    1    4    4    0    0  0.21957244264E+01  0.34898012729E+01 -0.36589789592E+01  0.55135352275E+01  0.10500000000E+00 0.  1.
    3000001    1    5    5    0    0 -0.38610862625E+01 -0.41719307160E+01  0.33736959783E+01  0.66854182801E+01  0.10000000000E+01 0.  1.
        -13    1    6    6    0    0 -0.16800826941E+02 -0.14131874996E+02  0.36482704522E+02  0.42579060946E+02  0.10500000000E+00 0.  1.
         13    1    6    6    0    0 -0.52415771995E+01 -0.43837383538E+01  0.11334755701E+02  0.13235520591E+02  0.10500000000E+00 0. -1.
</event>
<event>
11    0  0.3462209E-009  0.9118800E+02  0.7816531E-02  0.1126479E+00
         25   -1    0    0    0    0  0.00000000000E+00  0.00000000000E+00  0.99999998245E-14  0.12500000000E+03  0.12500000000E+03 0.  0.
    3000001    1    3    3    0    0 -0.15082955690E+02  0.12640589302E+02 -0.26450994066E+01  0.19881564353E+02  0.10000000000E+01 0. -1.
    1000022    2    1    0    0    0 -0.42849016310E+02  0.44146728564E+02  0.46128297112E+01  0.62499998988E+02  0.99999916972E+01 0.  0.
    3000022    2    3    3    0    0 -0.27766060620E+02  0.31506139263E+02  0.72579291178E+01  0.42618434636E+02  0.25000425897E+00 0.  0.
    1000022    2    1    0    0    0  0.42849016310E+02 -0.44146728564E+02 -0.46128297112E+01  0.62500001012E+02  0.10000004343E+02 0.  0.
    3000022    2    5    5    0    0  0.54673778165E+01 -0.19116332701E+01 -0.15744741148E+01  0.60073309058E+01  0.24998785204E+00 0.  0.
        -13    1    4    4    0    0 -0.19284250048E+02  0.21874570476E+02  0.50875968469E+01  0.29601922236E+02  0.10500000000E+00 0. -1.
         13    1    4    4    0    0 -0.84818105719E+01  0.96315687868E+01  0.21703322709E+01  0.13016512399E+02  0.10500000000E+00 0.  1.
    3000001    1    5    5    0    0  0.37381638493E+02 -0.42235095294E+02 -0.30383555965E+01  0.56492670106E+02  0.10000000000E+01 0.  1.
        -13    1    6    6    0    0  0.20687605489E+01 -0.77356805814E+00 -0.56088275381E+00  0.22811821963E+01  0.10500000000E+00 0. -1.
         13    1    6    6    0    0  0.33986172676E+01 -0.11380652120E+01 -0.10135913610E+01  0.37261487095E+01  0.10500000000E+00 0.  1.
</event>
<event>
11    0  0.3462209E-009  0.9118800E+02  0.7816531E-02  0.1126479E+00
         25   -1    0    0    0    0  0.00000000000E+00  0.00000000000E+00  0.99999998245E-14  0.12500000000E+03  0.12500000000E+03 0.  0.
    3000001    1    3    3    0    0  0.31962499811E+01 -0.97423651778E+01  0.27143157695E+02  0.29032407803E+02  0.10000000000E+01 0.  1.
    1000022    2    1    0    0    0 -0.27638608113E+01 -0.24900232793E+02  0.56378982860E+02  0.62500001757E+02  0.99999995827E+01 0.  0.
    3000022    2    3    3    0    0 -0.59601107924E+01 -0.15157867615E+02  0.29235825164E+02  0.33467593954E+02  0.25000144568E+00 0.  0.
    1000022    2    1    0    0    0  0.27638608113E+01  0.24900232793E+02 -0.56378982860E+02  0.62499998243E+02  0.99999776167E+01 0.  0.
    3000022    2    5    5    0    0  0.54183048271E+01  0.85569003700E+01 -0.25679294360E+02  0.27605565138E+02  0.24999325459E+00 0.  0.
        -13    1    4    4    0    0 -0.36892288116E+01 -0.94216157366E+01  0.18039909228E+02  0.20683969693E+02  0.10500000000E+00 0. -1.
         13    1    4    4    0    0 -0.22708819807E+01 -0.57362518784E+01  0.11195915936E+02  0.12783624261E+02  0.10500000000E+00 0.  1.
    3000001    1    5    5    0    0 -0.26544440159E+01  0.16343332423E+02 -0.30699688500E+02  0.34894433105E+02  0.10000000000E+01 0. -1.
        -13    1    6    6    0    0  0.35342004578E+01  0.54751442986E+01 -0.16495203645E+02  0.17736136734E+02  0.10500000000E+00 0. -1.
         13    1    6    6    0    0  0.18841043694E+01  0.30817560715E+01 -0.91840907155E+01  0.98694284043E+01  0.10500000000E+00 0.  1.
</event>
<event>
11    0  0.3462209E-009  0.9118800E+02  0.7816531E-02  0.1126479E+00
         25   -1    0    0    0    0  0.00000000000E+00  0.00000000000E+00  0.99999998245E-14  0.12500000000E+03  0.12500000000E+03 0.  0.
    3000001    1    3    3    0    0 -0.13790280459E+01 -0.21513106962E+01 -0.51011985953E+00  0.27910711804E+01  0.10000000000E+01 0. -1.
    1000022    2    1    0    0    0  0.96652016736E+00 -0.60765476278E+02  0.10624150133E+02  0.62500002434E+02  0.10000023482E+02 0.  0.
    3000022    2    3    3    0    0  0.23455482132E+01 -0.58614165582E+02  0.11134269992E+02  0.59708931253E+02  0.24999976280E+00 0.  0.
    1000022    2    1    0    0    0 -0.96652016736E+00  0.60765476278E+02 -0.10624150133E+02  0.62499997566E+02  0.99999930610E+01 0.  0.
    3000022    2    5    5    0    0  0.29858071011E+01  0.19129417009E+02 -0.10638471155E+00  0.19362940275E+02  0.24999848349E+00 0.  0.
        -13    1    4    4    0    0  0.17959936482E+01 -0.44419791593E+02  0.84484233808E+01  0.45251854779E+02  0.10500000000E+00 0. -1.
         13    1    4    4    0    0  0.54955456500E+00 -0.14194373989E+02  0.26858466114E+01  0.14457076474E+02  0.10500000000E+00 0.  1.
    3000001    1    5    5    0    0 -0.39523272685E+01  0.41636059269E+02 -0.10517765421E+02  0.43137057291E+02  0.10000000000E+01 0. -1.
        -13    1    6    6    0    0  0.21658630261E+01  0.13603955702E+02 -0.69218664466E-01  0.13775862572E+02  0.10500000000E+00 0. -1.
         13    1    6    6    0    0  0.81994407500E+00  0.55254613076E+01 -0.37166047086E-01  0.55870777033E+01  0.10500000000E+00 0.  1.
</event>
<event>
11    0  0.3462209E-009  0.9118800E+02  0.7816531E-02  0.1126479E+00
         25   -1    0    0    0    0  0.00000000000E+00  0.00000000000E+00  0.99999998245E-14  0.12500000000E+03  0.12500000000E+03 0.  0.
    3000001    1    3    3    0    0  0.21924594943E+02 -0.28089496584E+01  0.68912760946E+01  0.23174722173E+02  0.10000000000E+01 0. -1.
    1000022    2    1    0    0    0  0.54426412702E+02 -0.19047377991E+02  0.21936558001E+02  0.62500003410E+02  0.10000042068E+02 0.  0.
    3000022    2    3    3    0    0  0.32501817759E+02 -0.16238428333E+02  0.15045281906E+02  0.39325281237E+02  0.25004867172E+00 0.  0.
    1000022    2    1    0    0    0 -0.54426412702E+02  0.19047377991E+02 -0.21936558001E+02  0.62499996590E+02  0.99999994468E+01 0.  0.
    3000022    2    5    5    0    0 -0.21158673373E+02  0.29208467734E+01 -0.56946415467E+01  0.22106837030E+02  0.24999268298E+00 0.  0.
        -13    1    4    4    0    0  0.15718965486E+02 -0.78993094850E+01  0.72265418673E+01  0.19018908976E+02  0.10500000000E+00 0.  1.
         13    1    4    4    0    0  0.16782852274E+02 -0.83391188476E+01  0.78187400389E+01  0.20306372261E+02  0.10500000000E+00 0. -1.
    3000001    1    5    5    0    0 -0.33267739329E+02  0.16126531218E+02 -0.16241916454E+02  0.40393159560E+02  0.10000000000E+01 0. -1.
        -13    1    6    6    0    0 -0.78008024836E+01  0.11355858330E+01 -0.21141490761E+01  0.81622745536E+01  0.10500000000E+00 0. -1.
         13    1    6    6    0    0 -0.13357870890E+02  0.17852609403E+01 -0.35804924706E+01  0.13944562477E+02  0.10500000000E+00 0.  1.
</event>
<event>
11    0  0.3462209E-009  0.9118800E+02  0.7816531E-02  0.1126479E+00
         25   -1    0    0    0    0  0.00000000000E+00  0.00000000000E+00  0.99999998245E-14  0.12500000000E+03  0.12500000000E+03 0.  0.
    3000001    1    3    3    0    0  0.11446845753E+01  0.41135734876E+02  0.19930333993E+02  0.45734857599E+02  0.10000000000E+01 0.  1.
    1000022    2    1    0    0    0 -0.93079163157E+00  0.52963645730E+02  0.31626506265E+02  0.62500000753E+02  0.10000002674E+02 0.  0.
    3000022    2    3    3    0    0 -0.20754762069E+01  0.11827910854E+02  0.11696172272E+02  0.16765143153E+02  0.25000494692E+00 0.  0.
    1000022    2    1    0    0    0  0.93079163157E+00 -0.52963645730E+02 -0.31626506265E+02  0.62499999247E+02  0.99999932646E+01 0.  0.
    3000022    2    5    5    0    0  0.45311180430E+00 -0.27894815100E+02 -0.22346495035E+02  0.35745690144E+02  0.25000748702E+00 0.  0.
        -13    1    4    4    0    0 -0.10609715572E+01  0.63673900884E+01  0.62339390414E+01  0.89745383255E+01  0.10500000000E+00 0. -1.
         13    1    4    4    0    0 -0.10145046497E+01  0.54605207656E+01  0.54622332309E+01  0.77906048279E+01  0.10500000000E+00 0.  1.
    3000001    1    5    5    0    0  0.47767982727E+00 -0.25068830630E+02 -0.92800112306E+01  0.26754309104E+02  0.10000000000E+01 0. -1.
        -13    1    6    6    0    0  0.18361376177E+00 -0.15117962905E+02 -0.12142849670E+02  0.19391914282E+02  0.10500000000E+00 0. -1.
         13    1    6    6    0    0  0.26949804253E+00 -0.12776852195E+02 -0.10203645364E+02  0.16353775862E+02  0.10500000000E+00 0.  1.
</event>
<event>
11    0  0.3462209E-009  0.9118800E+02  0.7816531E-02  0.1126479E+00
         25   -1    0    0    0    0  0.00000000000E+00  0.00000000000E+00  0.99999998245E-14  0.12500000000E+03  0.12500000000E+03 0.  0.
    3000001    1    3    3    0    0  0.25635844377E+02 -0.17302068634E+02  0.26061023864E+02  0.40456582416E+02  0.10000000000E+01 0.  1.
    1000022    2    1    0    0    0  0.34453318133E+02 -0.24477006651E+02  0.44945466200E+02  0.62499999568E+02  0.10000001451E+02 0.  0.
    3000022    2    3    3    0    0  0.88174737565E+01 -0.71749380171E+01  0.18884442336E+02  0.22043417152E+02  0.24999678120E+00 0.  0.
    1000022    2    1    0    0    0 -0.34453318133E+02  0.24477006651E+02 -0.44945466200E+02  0.62500000432E+02  0.10000006852E+02 0.  0.
    3000022    2    5    5    0    0 -0.85102030882E+00 -0.42911325864E+00 -0.33946560582E+01  0.35347644746E+01  0.24999276565E+00 0.  0.
        -13    1    4    4    0    0  0.59110175188E+01 -0.48712573857E+01  0.12681367849E+02  0.14815444379E+02  0.10500000000E+00 0. -1.
         13    1    4    4    0    0  0.29064562377E+01 -0.23036806313E+01  0.62030744871E+01  0.72279727729E+01  0.10500000000E+00 0.  1.
    3000001    1    5    5    0    0 -0.33602297824E+02  0.24906119910E+02 -0.41550810142E+02  0.58965235957E+02  0.10000000000E+01 0. -1.
        -13    1    6    6    0    0 -0.45790594909E+00 -0.24818972214E+00 -0.20776589870E+01  0.21445204272E+01  0.10500000000E+00 0.  1.
         13    1    6    6    0    0 -0.39311435973E+00 -0.18092353649E+00 -0.13169970712E+01  0.13902440474E+01  0.10500000000E+00 0. -1.
</event>
<event>
11    0  0.3462209E-009  0.9118800E+02  0.7816531E-02  0.1126479E+00
         25   -1    0    0    0    0  0.00000000000E+00  0.00000000000E+00  0.99999998245E-14  0.12500000000E+03  0.12500000000E+03 0.  0.
    3000001    1    3    3    0    0  0.18852037743E+01 -0.79727171878E+01 -0.95099351491E+01  0.12591945011E+02  0.10000000000E+01 0. -1.
    1000022    2    1    0    0    0 -0.47780302917E+01 -0.28480128806E+02 -0.54518816824E+02  0.62500005915E+02  0.10000102059E+02 0.  0.
    3000022    2    3    3    0    0 -0.66632340660E+01 -0.20507411618E+02 -0.45008881675E+02  0.49908060904E+02  0.24998805600E+00 0.  0.
    1000022    2    1    0    0    0  0.47780302917E+01  0.28480128806E+02  0.54518816824E+02  0.62499994085E+02  0.10000028118E+02 0.  0.
    3000022    2    5    5    0    0  0.27817354461E+01  0.18305568858E+02  0.43799686487E+02  0.47553201169E+02  0.25000365799E+00 0.  0.
        -13    1    4    4    0    0 -0.30296583345E+01 -0.91149115922E+01 -0.20083858608E+02  0.22262813042E+02  0.10500000000E+00 0. -1.
         13    1    4    4    0    0 -0.36335757315E+01 -0.11392500026E+02 -0.24925023068E+02  0.27645247862E+02  0.10500000000E+00 0.  1.
    3000001    1    5    5    0    0  0.19962948456E+01  0.10174559948E+02  0.10719130338E+02  0.14946792915E+02  0.10000000000E+01 0. -1.
        -13    1    6    6    0    0  0.16026067519E+01  0.10126787250E+02  0.24198054045E+02  0.26280734635E+02  0.10500000000E+00 0. -1.
         13    1    6    6    0    0  0.11791286942E+01  0.81787816084E+01  0.19601632442E+02  0.21272466535E+02  0.10500000000E+00 0.  1.
</event>
<event>
11    0  0.3462209E-009  0.9118800E+02  0.7816531E-02  0.1126479E+00
         25   -1    0    0    0    0  0.00000000000E+00  0.00000000000E+00  0.99999998245E-14  0.12500000000E+03  0.12500000000E+03 0.  0.
    3000001    1    3    3    0    0 -0.23329301581E+02  0.22248230582E+01  0.45954218735E+02  0.51594538174E+02  0.10000000000E+01 0.  1.
    1000022    2    1    0    0    0 -0.24824892394E+02  0.56484239188E+01  0.56196703013E+02  0.62499987225E+02  0.99999499219E+01 0.  0.
    3000022    2    3    3    0    0 -0.14955908131E+01  0.34236008606E+01  0.10242484278E+02  0.10905449051E+02  0.25000014410E+00 0.  0.
    1000022    2    1    0    0    0  0.24824892394E+02 -0.56484239188E+01 -0.56196703013E+02  0.62500012775E+02  0.10000109608E+02 0.  0.
    3000022    2    5    5    0    0  0.50159700975E+01 -0.55338063492E+01 -0.17027565537E+02  0.18595253689E+02  0.25000584795E+00 0.  0.
        -13    1    4    4    0    0 -0.36529459591E+00  0.92024886379E+00  0.27389636127E+01  0.29143172073E+01  0.10500000000E+00 0.  1.
         13    1    4    4    0    0 -0.11302962172E+01  0.25033519968E+01  0.75035206658E+01  0.79911318435E+01  0.10500000000E+00 0. -1.
    3000001    1    5    5    0    0  0.19808922297E+02 -0.11461756954E+00 -0.39169137476E+02  0.43904759086E+02  0.10000000000E+01 0.  1.
        -13    1    6    6    0    0  0.16231507588E+01 -0.18148250107E+01 -0.56772149846E+01  0.61781876943E+01  0.10500000000E+00 0.  1.
         13    1    6    6    0    0  0.33928193386E+01 -0.37189813385E+01 -0.11350350552E+02  0.12417065995E+02  0.10500000000E+00 0. -1.
</event>
<event>
11    0  0.3462209E-009  0.9118800E+02  0.7816531E-02  0.1126479E+00
         25   -1    0    0    0    0  0.00000000000E+00  0.00000000000E+00  0.99999998245E-14  0.12500000000E+03  0.12500000000E+03 0.  0.
    3000001    1    3    3    0    0 -0.31081910526E+01  0.47345070954E+01  0.57938983131E+02  0.58223725193E+02  0.10000000000E+01 0.  1.
    1000022    2    1    0    0    0 -0.44885012861E+01  0.72457690022E+01  0.61103209775E+02  0.62499999409E+02  0.99999934541E+01 0.  0.
    3000022    2    3    3    0    0 -0.13803102335E+01  0.25112619068E+01  0.31642266440E+01  0.42762742162E+01  0.24999642623E+00 0.  0.
    1000022    2    1    0    0    0  0.44885012861E+01 -0.72457690022E+01 -0.61103209775E+02  0.62500000591E+02  0.10000000838E+02 0.  0.
    3000022    2    5    5    0    0 -0.22895369385E+01  0.88909184384E+00 -0.98255071174E+01  0.10130920467E+02  0.24999137875E+00 0.  0.
        -13    1    4    4    0    0 -0.80533050174E+00  0.15172735525E+01  0.19803191110E+01  0.26236167844E+01  0.10500000000E+00 0. -1.
         13    1    4    4    0    0 -0.57497973174E+00  0.99398835429E+00  0.11839075330E+01  0.16526574318E+01  0.10500000000E+00 0.  1.
    3000001    1    5    5    0    0  0.67780382246E+01 -0.81348608460E+01 -0.51277702658E+02  0.52369080124E+02  0.10000000000E+01 0.  1.
        -13    1    6    6    0    0 -0.14672688295E+01  0.62241882388E+00 -0.62401321160E+01  0.64413163899E+01  0.10500000000E+00 0.  1.
         13    1    6    6    0    0 -0.82226810903E+00  0.26667301996E+00 -0.35853750014E+01  0.36896040768E+01  0.10500000000E+00 0. -1.
</event>
<event>
11    0  0.3462209E-009  0.9118800E+02  0.7816531E-02  0.1126479E+00
         25   -1    0    0    0    0  0.00000000000E+00  0.00000000000E+00  0.99999998245E-14  0.12500000000E+03  0.12500000000E+03 0.  0.
    3000001    1    3    3    0    0  0.98875484390E+01 -0.22045203399E+02 -0.94572430448E+01  0.25965247024E+02  0.10000000000E+01 0. -1.
    1000022    2    1    0    0    0  0.33778860723E+02 -0.47608351823E+02 -0.19967059044E+02  0.62499998849E+02  0.99999907093E+01 0.  0.
    3000022    2    3    3    0    0  0.23891312284E+02 -0.25563148424E+02 -0.10509815999E+02  0.36534751824E+02  0.24999705559E+00 0.  0.
    1000022    2    1    0    0    0 -0.33778860723E+02  0.47608351823E+02  0.19967059044E+02  0.62500001151E+02  0.10000005102E+02 0.  0.
    3000022    2    5    5    0    0 -0.20303099790E+02  0.21930813319E+02  0.13381157969E+02  0.32745905479E+02  0.25000623611E+00 0.  0.
        -13    1    4    4    0    0  0.55051669479E+01 -0.58962229239E+01 -0.24302608733E+01  0.84255267375E+01  0.10500000000E+00 0. -1.
         13    1    4    4    0    0  0.18386145336E+02 -0.19666925500E+02 -0.80795551255E+01  0.28109225087E+02  0.10500000000E+00 0.  1.
    3000001    1    5    5    0    0 -0.13475760933E+02  0.25677538504E+02  0.65859010749E+01  0.29754095673E+02  0.10000000000E+01 0. -1.
        -13    1    6    6    0    0 -0.14268747989E+02  0.15433897421E+02  0.94574896685E+01  0.23049023723E+02  0.10500000000E+00 0. -1.
         13    1    6    6    0    0 -0.60343518009E+01  0.64969158983E+01  0.39236683001E+01  0.96968817553E+01  0.10500000000E+00 0.  1.
</event>
<event>
11    0  0.3462209E-009  0.9118800E+02  0.7816531E-02  0.1126479E+00
         25   -1    0    0    0    0  0.00000000000E+00  0.00000000000E+00  0.99999998245E-14  0.12500000000E+03  0.12500000000E+03 0.  0.
    3000001    1    3    3    0    0  0.40229181077E+02 -0.42268871801E+02  0.36644008975E+01  0.58476254731E+02  0.10000000000E+01 0.  1.
    1000022    2    1    0    0    0  0.40775689117E+02 -0.46033365669E+02  0.49520095894E+01  0.62499999830E+02  0.10000000097E+02 0.  0.
    3000022    2    3    3    0    0  0.54650804011E+00 -0.37644938681E+01  0.12876086919E+01  0.40237450985E+01  0.25000670629E+00 0.  0.
    1000022    2    1    0    0    0 -0.40775689117E+02  0.46033365669E+02 -0.49520095894E+01  0.62500000170E+02  0.10000002227E+02 0.  0.
    3000022    2    5    5    0    0 -0.14704069530E+02  0.12143430142E+02  0.19713377526E+01  0.19173451539E+02  0.25003003566E+00 0.  0.
        -13    1    4    4    0    0  0.32464828538E+00 -0.23329161413E+01  0.85926674608E+00  0.25094339148E+01  0.10500000000E+00 0.  1.
         13    1    4    4    0    0  0.22185975474E+00 -0.14315777268E+01  0.42834194584E+00  0.15143111837E+01  0.10500000000E+00 0. -1.
    3000001    1    5    5    0    0 -0.26071619587E+02  0.33889935527E+02 -0.69233473420E+01  0.43326548632E+02  0.10000000000E+01 0.  1.
        -13    1    6    6    0    0 -0.65773632436E+01  0.53818952806E+01  0.93294854015E+00  0.85503170719E+01  0.10500000000E+00 0.  1.
         13    1    6    6    0    0 -0.81267062862E+01  0.67615348616E+01  0.10383892124E+01  0.10623134467E+02  0.10500000000E+00 0. -1.
</event>
<event>
11    0  0.3462209E-009  0.9118800E+02  0.7816531E-02  0.1126479E+00
         25   -1    0    0    0    0  0.00000000000E+00  0.00000000000E+00  0.99999998245E-14  0.12500000000E+03  0.12500000000E+03 0.  0.
    3000001    1    3    3    0    0  0.15795528238E+02  0.38386395763E+02  0.16834878497E+02  0.44804321510E+02  0.10000000000E+01 0.  1.
    1000022    2    1    0    0    0  0.24151291998E+02  0.49526331596E+02  0.27750811801E+02  0.62500000519E+02  0.10000004136E+02 0.  0.
    3000022    2    3    3    0    0  0.83557637601E+01  0.11139935834E+02  0.10915933304E+02  0.17695679009E+02  0.24999461442E+00 0.  0.
    1000022    2    1    0    0    0 -0.24151291998E+02 -0.49526331596E+02 -0.27750811801E+02  0.62499999481E+02  0.99999976434E+01 0.  0.
    3000022    2    5    5    0    0 -0.10124801181E+02 -0.17861875349E+02 -0.52694583940E+01  0.21198770866E+02  0.25000901592E+00 0.  0.
        -13    1    4    4    0    0  0.26474908267E+01  0.35310651321E+01  0.33966188268E+01  0.55700693981E+01  0.10500000000E+00 0.  1.
         13    1    4    4    0    0  0.57082729333E+01  0.76088707016E+01  0.75193144774E+01  0.12125609611E+02  0.10500000000E+00 0. -1.
    3000001    1    5    5    0    0 -0.14026490817E+02 -0.31664456247E+02 -0.22481353407E+02  0.41301228615E+02  0.10000000000E+01 0.  1.
        -13    1    6    6    0    0 -0.28629854751E+01 -0.49712577921E+01 -0.14676704447E+01  0.59224295184E+01  0.10500000000E+00 0.  1.
         13    1    6    6    0    0 -0.72618157058E+01 -0.12890617557E+02 -0.38017879493E+01  0.15276341347E+02  0.10500000000E+00 0. -1.
</event>
<event>
11    0  0.3462209E-009  0.9118800E+02  0.7816531E-02  0.1126479E+00
         25   -1    0    0    0    0  0.00000000000E+00  0.00000000000E+00  0.99999998245E-14  0.12500000000E+03  0.12500000000E+03 0.  0.
    3000001    1    3    3    0    0 -0.16180270592E+02  0.33751472208E+02  0.26797559380E+02  0.46044242000E+02  0.10000000000E+01 0. -1.
    1000022    2    1    0    0    0 -0.25324512637E+02  0.41287503225E+02  0.38213362580E+02  0.62500000451E+02  0.10000005694E+02 0.  0.
    3000022    2    3    3    0    0 -0.91442420450E+01  0.75360310169E+01  0.11415803200E+02  0.16455758451E+02  0.24999486564E+00 0.  0.
    1000022    2    1    0    0    0  0.25324512637E+02 -0.41287503225E+02 -0.38213362580E+02  0.62499999549E+02  0.10000000053E+02 0.  0.
    3000022    2    5    5    0    0  0.60944536473E+01 -0.84036766561E+01 -0.35158098781E+01  0.10963009124E+02  0.25000669628E+00 0.  0.
        -13    1    4    4    0    0 -0.37723002755E+01  0.30937195416E+01  0.47881133970E+01  0.68365491934E+01  0.10500000000E+00 0. -1.
         13    1    4    4    0    0 -0.53719417695E+01  0.44423114753E+01  0.66276898029E+01  0.96192092577E+01  0.10500000000E+00 0.  1.
    3000001    1    5    5    0    0  0.19230058989E+02 -0.32883826569E+02 -0.34697552702E+02  0.51536990425E+02  0.10000000000E+01 0.  1.
        -13    1    6    6    0    0  0.44749474233E+01 -0.62018314296E+01 -0.26188026151E+01  0.80843688473E+01  0.10500000000E+00 0.  1.
         13    1    6    6    0    0  0.16195062240E+01 -0.22018452264E+01 -0.89700726299E+00  0.28786402763E+01  0.10500000000E+00 0. -1.
</event>
<event>
11    0  0.3462209E-009  0.9118800E+02  0.7816531E-02  0.1126479E+00
         25   -1    0    0    0    0  0.00000000000E+00  0.00000000000E+00  0.99999998245E-14  0.12500000000E+03  0.12500000000E+03 0.  0.
    3000001    1    3    3    0    0  0.12811677860E+01  0.23298063804E+01  0.16559183174E+02  0.16801069491E+02  0.10000000000E+01 0. -1.
    1000022    2    1    0    0    0 -0.76921289261E+01  0.18463011256E+02  0.58362644616E+02  0.62499999928E+02  0.10000003615E+02 0.  0.
    3000022    2    3    3    0    0 -0.89732967122E+01  0.16133204876E+02  0.41803461443E+02  0.45698930437E+02  0.25000203422E+00 0.  0.
    1000022    2    1    0    0    0  0.76921289261E+01 -0.18463011256E+02 -0.58362644616E+02  0.62500000072E+02  0.10000004518E+02 0.  0.
    3000022    2    5    5    0    0  0.43822995090E+01 -0.10405341236E+02 -0.18420557261E+02  0.21606829992E+02  0.24999453094E+00 0.  0.
        -13    1    4    4    0    0 -0.58644465436E+01  0.10648551911E+02  0.27578246781E+02  0.30138913576E+02  0.10500000000E+00 0. -1.
         13    1    4    4    0    0 -0.31088501686E+01  0.54846529646E+01  0.14225214662E+02  0.15560016860E+02  0.10500000000E+00 0.  1.
    3000001    1    5    5    0    0  0.33098294171E+01 -0.80576700199E+01 -0.39942087355E+02  0.40893170080E+02  0.10000000000E+01 0.  1.
        -13    1    6    6    0    0  0.32069237686E+01 -0.76135857253E+01 -0.13543992419E+02  0.15865112773E+02  0.10500000000E+00 0. -1.
         13    1    6    6    0    0  0.11753757404E+01 -0.27917555108E+01 -0.48765648416E+01  0.57417172186E+01  0.10500000000E+00 0.  1.
</event>
<event>
11    0  0.3462209E-009  0.9118800E+02  0.7816531E-02  0.1126479E+00
         25   -1    0    0    0    0  0.00000000000E+00  0.00000000000E+00  0.99999998245E-14  0.12500000000E+03  0.12500000000E+03 0.  0.
    3000001    1    3    3    0    0 -0.39516923759E+01  0.19302350029E+02  0.19990769674E+02  0.28086072375E+02  0.10000000000E+01 0.  1.
    1000022    2    1    0    0    0 -0.14517147040E+02  0.47632930248E+02  0.36422607751E+02  0.62499999934E+02  0.10000001713E+02 0.  0.
    3000022    2    3    3    0    0 -0.10565454664E+02  0.28330580219E+02  0.16431838077E+02  0.34413927560E+02  0.24999940816E+00 0.  0.
    1000022    2    1    0    0    0  0.14517147040E+02 -0.47632930248E+02 -0.36422607751E+02  0.62500000066E+02  0.10000002532E+02 0.  0.
    3000022    2    5    5    0    0  0.95333403886E+01 -0.22352264127E+02 -0.22861335466E+02  0.33364823488E+02  0.24999297335E+00 0.  0.
        -13    1    4    4    0    0 -0.38849907134E+01  0.10462947276E+02  0.60003276936E+01  0.12672070706E+02  0.10500000000E+00 0. -1.
         13    1    4    4    0    0 -0.66804639505E+01  0.17867632943E+02  0.10431510383E+02  0.21741856854E+02  0.10500000000E+00 0.  1.
    3000001    1    5    5    0    0  0.49838066513E+01 -0.25280666121E+02 -0.13561272285E+02  0.29135176578E+02  0.10000000000E+01 0.  1.
        -13    1    6    6    0    0  0.38522981417E+01 -0.89607468487E+01 -0.92540402113E+01  0.13445574376E+02  0.10500000000E+00 0. -1.
         13    1    6    6    0    0  0.56810422469E+01 -0.13391517278E+02 -0.13607295255E+02  0.19919249112E+02  0.10500000000E+00 0.  1.
</event>
<event>
11    0  0.3462209E-009  0.9118800E+02  0.7816531E-02  0.1126479E+00
         25   -1    0    0    0    0  0.00000000000E+00  0.00000000000E+00  0.99999998245E-14  0.12500000000E+03  0.12500000000E+03 0.  0.
    3000001    1    3    3    0    0 -0.65682075699E+01  0.26042992694E+02 -0.11483628113E+02  0.29227598837E+02  0.10000000000E+01 0. -1.
    1000022    2    1    0    0    0 -0.57456407004E+01  0.53263617426E+02 -0.30597788669E+02  0.62499999702E+02  0.99999981460E+01 0.  0.
    3000022    2    3    3    0    0  0.82256686956E+00  0.27220624731E+02 -0.19114160556E+02  0.33272400864E+02  0.24999695545E+00 0.  0.
    1000022    2    1    0    0    0  0.57456407004E+01 -0.53263617426E+02  0.30597788669E+02  0.62500000298E+02  0.10000001877E+02 0.  0.
    3000022    2    5    5    0    0 -0.13470008620E+01 -0.76099789352E+01  0.14604938091E+01  0.78690363355E+01  0.24999993366E+00 0.  0.
        -13    1    4    4    0    0  0.48327470560E+00  0.15086262593E+02 -0.10667950195E+02  0.18483643035E+02  0.10500000000E+00 0.  1.
         13    1    4    4    0    0  0.33929216396E+00  0.12134362138E+02 -0.84462103613E+01  0.14788757830E+02  0.10500000000E+00 0. -1.
    3000001    1    5    5    0    0  0.70926415624E+01 -0.45653638490E+02  0.29137294860E+02  0.54630963963E+02  0.10000000000E+01 0. -1.
        -13    1    6    6    0    0 -0.72063539953E+00 -0.42280453984E+01  0.87204920737E+00  0.43780335871E+01  0.10500000000E+00 0.  1.
         13    1    6    6    0    0 -0.62636546250E+00 -0.33819335368E+01  0.58844460172E+00  0.34910027484E+01  0.10500000000E+00 0. -1.
</event>
<event>
11    0  0.3462209E-009  0.9118800E+02  0.7816531E-02  0.1126479E+00
         25   -1    0    0    0    0  0.00000000000E+00  0.00000000000E+00  0.99999998245E-14  0.12500000000E+03  0.12500000000E+03 0.  0.
    3000001    1    3    3    0    0  0.38293596889E+01  0.60667618869E+00 -0.41623575462E+01  0.57755754663E+01  0.10000000000E+01 0.  1.
    1000022    2    1    0    0    0  0.16087110762E+02  0.15247101561E+02 -0.57575867020E+02  0.62499997104E+02  0.99999968112E+01 0.  0.
    3000022    2    3    3    0    0  0.12257751073E+02  0.14640425372E+02 -0.53413509474E+02  0.56724421638E+02  0.24999874279E+00 0.  0.
    1000022    2    1    0    0    0 -0.16087110762E+02 -0.15247101561E+02  0.57575867020E+02  0.62500002896E+02  0.10000033010E+02 0.  0.
    3000022    2    5    5    0    0 -0.14834040406E+01 -0.61463377568E+01  0.23164219196E+02  0.24012944580E+02  0.25000218331E+00 0.  0.
        -13    1    4    4    0    0  0.46499467894E+01  0.55991910321E+01 -0.20201606290E+02  0.21472979930E+02  0.10500000000E+00 0. -1.
         13    1    4    4    0    0  0.76078042834E+01  0.90412343400E+01 -0.33211903184E+02  0.35251441708E+02  0.10500000000E+00 0.  1.
    3000001    1    5    5    0    0 -0.14603706721E+02 -0.91007638039E+01  0.34411647824E+02  0.38487058316E+02  0.10000000000E+01 0. -1.
        -13    1    6    6    0    0 -0.79590979296E+00 -0.30090430273E+01  0.11411208399E+02  0.11828546592E+02  0.10500000000E+00 0. -1.
         13    1    6    6    0    0 -0.68749424760E+00 -0.31372947295E+01  0.11753010797E+02  0.12184397989E+02  0.10500000000E+00 0.  1.
</event>
<event>
11    0  0.3462209E-009  0.9118800E+02  0.7816531E-02  0.1126479E+00
         25   -1    0    0    0    0  0.00000000000E+00  0.00000000000E+00  0.99999998245E-14  0.12500000000E+03  0.12500000000E+03 0.  0.
    3000001    1    3    3    0    0 -0.41092823937E+02  0.28666988932E+02 -0.18906434132E+02  0.53561830487E+02  0.10000000000E+01 0.  1.
    1000022    2    1    0    0    0 -0.48431266954E+02  0.33690303268E+02 -0.18045097227E+02  0.62499997900E+02  0.10000002525E+02 0.  0.
    3000022    2    3    3    0    0 -0.73384430176E+01  0.50233143360E+01  0.86133690458E+00  0.89381674134E+01  0.25000521291E+00 0.  0.
    1000022    2    1    0    0    0  0.48431266954E+02 -0.33690303268E+02  0.18045097227E+02  0.62500002100E+02  0.10000028770E+02 0.  0.
    3000022    2    5    5    0    0  0.22106392479E+02 -0.98645427436E+01  0.91767619094E+01  0.25889713217E+02  0.24999874951E+00 0.  0.
        -13    1    4    4    0    0 -0.30413486956E+01  0.21510059741E+01  0.39151577337E+00  0.37471239891E+01  0.10500000000E+00 0. -1.
         13    1    4    4    0    0 -0.42970943220E+01  0.28723083619E+01  0.46982113120E+00  0.51910434243E+01  0.10500000000E+00 0.  1.
    3000001    1    5    5    0    0  0.26324874476E+02 -0.23825760525E+02  0.88683353176E+01  0.36610288882E+02  0.10000000000E+01 0.  1.
        -13    1    6    6    0    0  0.13750672004E+02 -0.60841353068E+01  0.57406398474E+01  0.16095454447E+02  0.10500000000E+00 0. -1.
         13    1    6    6    0    0  0.83557204744E+01 -0.37804074369E+01  0.34361220620E+01  0.97942587703E+01  0.10500000000E+00 0.  1.
</event>
<event>
11    0  0.3462209E-009  0.9118800E+02  0.7816531E-02  0.1126479E+00
         25   -1    0    0    0    0  0.00000000000E+00  0.00000000000E+00  0.99999998245E-14  0.12500000000E+03  0.12500000000E+03 0.  0.
    3000001    1    3    3    0    0 -0.34826485579E+01 -0.12334900096E+02 -0.57510340870E+01  0.14083784805E+02  0.10000000000E+01 0.  1.
    1000022    2    1    0    0    0 -0.31130518351E+02 -0.45807916799E+02 -0.27180443497E+02  0.62499997489E+02  0.99999381563E+01 0.  0.
    3000022    2    3    3    0    0 -0.27647869793E+02 -0.33473016703E+02 -0.21429409410E+02  0.48416212684E+02  0.25002340930E+00 0.  0.
    1000022    2    1    0    0    0  0.31130518351E+02  0.45807916799E+02  0.27180443497E+02  0.62500002511E+02  0.99999695453E+01 0.  0.
    3000022    2    5    5    0    0  0.25730490713E+01  0.23259156641E+01  0.46350858780E+01  0.57945651656E+01  0.24999832440E+00 0.  0.
        -13    1    4    4    0    0 -0.10967005202E+02 -0.13260623496E+02 -0.84250685266E+01  0.19160170753E+02  0.10500000000E+00 0. -1.
         13    1    4    4    0    0 -0.16680864591E+02 -0.20212393207E+02 -0.13004340884E+02  0.29256041931E+02  0.10500000000E+00 0.  1.
    3000001    1    5    5    0    0  0.28557469280E+02  0.43482001135E+02  0.22545357619E+02  0.56705437346E+02  0.10000000000E+01 0.  1.
        -13    1    6    6    0    0  0.10980402701E+01  0.10323826712E+01  0.19172257863E+01  0.24409600837E+01  0.10500000000E+00 0. -1.
         13    1    6    6    0    0  0.14750088011E+01  0.12935329929E+01  0.27178600917E+01  0.33536050818E+01  0.10500000000E+00 0. -1.
</event>
<event>
11    0  0.3462209E-009  0.9118800E+02  0.7816531E-02  0.1126479E+00
         25   -1    0    0    0    0  0.00000000000E+00  0.00000000000E+00  0.99999998245E-14  0.12500000000E+03  0.12500000000E+03 0.  0.
    3000001    1    3    3    0    0 -0.88221848763E+01 -0.17523330477E+02  0.43671024206E+00  0.19649141783E+02  0.10000000000E+01 0. -1.
    1000022    2    1    0    0    0 -0.36161410728E+02 -0.49214428150E+02 -0.87488540187E+01  0.62499999786E+02  0.99999981332E+01 0.  0.
    3000022    2    3    3    0    0 -0.27339225852E+02 -0.31691097673E+02 -0.91855642607E+01  0.42850858003E+02  0.24999775399E+00 0.  0.
    1000022    2    1    0    0    0  0.36161410728E+02  0.49214428150E+02  0.87488540187E+01  0.62500000214E+02  0.10000000806E+02 0.  0.
    3000022    2    5    5    0    0  0.27759428566E+02  0.43248967578E+02  0.88412744474E+01  0.52146809130E+02  0.24999532358E+00 0.  0.
        -13    1    4    4    0    0 -0.18699743478E+02 -0.21740990435E+02 -0.63201215184E+01  0.29365047800E+02  0.10500000000E+00 0.  1.
         13    1    4    4    0    0 -0.86394823736E+01 -0.99501072375E+01 -0.28654427423E+01  0.13485810203E+02  0.10500000000E+00 0. -1.
    3000001    1    5    5    0    0  0.84019821626E+01  0.59654605713E+01 -0.92420428702E-01  0.10353191084E+02  0.10000000000E+01 0. -1.
        -13    1    6    6    0    0  0.12474610328E+02  0.19558705499E+02  0.39944370099E+01  0.23539868641E+02  0.10500000000E+00 0.  1.
         13    1    6    6    0    0  0.15284818238E+02  0.23690262080E+02  0.48468374375E+01  0.28606940489E+02  0.10500000000E+00 0. -1.
</event>
<event>
11    0  0.3462209E-009  0.9118800E+02  0.7816531E-02  0.1126479E+00
         25   -1    0    0    0    0  0.00000000000E+00  0.00000000000E+00  0.99999998245E-14  0.12500000000E+03  0.12500000000E+03 0.  0.
    3000001    1    3    3    0    0  0.91973997600E+01 -0.15458372195E+02  0.66001490212E+00  0.18027452758E+02  0.10000000000E+01 0.  1.
    1000022    2    1    0    0    0  0.37817869686E+02 -0.47574726959E+02 -0.10616221667E+02  0.62500001064E+02  0.10000002882E+02 0.  0.
    3000022    2    3    3    0    0  0.28620469926E+02 -0.32116354764E+02 -0.11276236569E+02  0.44472548306E+02  0.24999906103E+00 0.  0.
    1000022    2    1    0    0    0 -0.37817869686E+02  0.47574726959E+02  0.10616221667E+02  0.62499998936E+02  0.99999895846E+01 0.  0.
    3000022    2    5    5    0    0 -0.37053455298E+02  0.47325566751E+02  0.96100004999E+01  0.60869388252E+02  0.24999756088E+00 0.  0.
        -13    1    4    4    0    0  0.19223189164E+02 -0.21648123593E+02 -0.75778005950E+01  0.29926682803E+02  0.10500000000E+00 0.  1.
         13    1    4    4    0    0  0.93972807623E+01 -0.10468231171E+02 -0.36984359737E+01  0.14545865503E+02  0.10500000000E+00 0. -1.
    3000001    1    5    5    0    0 -0.76441438892E+00  0.24916020826E+00  0.10062211666E+01  0.16306106842E+01  0.10000000000E+01 0.  1.
        -13    1    6    6    0    0 -0.10706844727E+02  0.13668549659E+02  0.28190316319E+01  0.17590444512E+02  0.10500000000E+00 0.  1.
         13    1    6    6    0    0 -0.26346610570E+02  0.33657017091E+02  0.67909688680E+01  0.43278943740E+02  0.10500000000E+00 0. -1.
</event>
<event>
11    0  0.3462209E-009  0.9118800E+02  0.7816531E-02  0.1126479E+00
         25   -1    0    0    0    0  0.00000000000E+00  0.00000000000E+00  0.99999998245E-14  0.12500000000E+03  0.12500000000E+03 0.  0.
    3000001    1    3    3    0    0 -0.18949218927E+02 -0.12485944050E+02 -0.16151746367E+01  0.22772362326E+02  0.10000000000E+01 0. -1.
    1000022    2    1    0    0    0 -0.57319725598E+02 -0.22775792820E+02 -0.14008493171E+01  0.62500000169E+02  0.99999980532E+01 0.  0.
    3000022    2    3    3    0    0 -0.38370506671E+02 -0.10289848770E+02  0.21432531965E+00  0.39727637843E+02  0.25000675175E+00 0.  0.
    1000022    2    1    0    0    0  0.57319725598E+02  0.22775792820E+02  0.14008493171E+01  0.62499999831E+02  0.99999959399E+01 0.  0.
    3000022    2    5    5    0    0  0.16475399678E+02  0.56495159713E+01  0.48021717252E+01  0.18068734795E+02  0.24999708998E+00 0.  0.
        -13    1    4    4    0    0 -0.23683996192E+02 -0.63095061952E+01  0.17818664533E+00  0.24510902055E+02  0.10500000000E+00 0.  1.
         13    1    4    4    0    0 -0.14686510479E+02 -0.39803425745E+01  0.36138674319E-01  0.15216735788E+02  0.10500000000E+00 0. -1.
    3000001    1    5    5    0    0  0.40844325920E+02  0.17126276849E+02 -0.34013224081E+01  0.44431265036E+02  0.10000000000E+01 0. -1.
        -13    1    6    6    0    0  0.39260184709E+01  0.13279504758E+01  0.11460816457E+01  0.43013488162E+01  0.10500000000E+00 0.  1.
         13    1    6    6    0    0  0.12549381207E+02  0.43215654955E+01  0.36560900795E+01  0.13767385979E+02  0.10500000000E+00 0. -1.
</event>
<event>
11    0  0.3462209E-009  0.9118800E+02  0.7816531E-02  0.1126479E+00
         25   -1    0    0    0    0  0.00000000000E+00  0.00000000000E+00  0.99999998245E-14  0.12500000000E+03  0.12500000000E+03 0.  0.
    3000001    1    3    3    0    0  0.13182324470E+02  0.19624067615E+02  0.66520722102E+01  0.24579010819E+02  0.10000000000E+01 0.  1.
    1000022    2    1    0    0    0  0.22344105227E+02  0.53959189862E+02  0.19884599739E+02  0.62499996180E+02  0.99999503367E+01 0.  0.
    3000022    2    3    3    0    0  0.91617807579E+01  0.34335122248E+02  0.13232527529E+02  0.37920985361E+02  0.24999905175E+00 0.  0.
    1000022    2    1    0    0    0 -0.22344105227E+02 -0.53959189862E+02 -0.19884599739E+02  0.62500003820E+02  0.99999980844E+01 0.  0.
    3000022    2    5    5    0    0 -0.13020617740E+02 -0.18841494816E+02 -0.75987843453E+01  0.24131772376E+02  0.25000243938E+00 0.  0.
        -13    1    4    4    0    0  0.67106292354E+01  0.25270149320E+02  0.97225353665E+01  0.27895370769E+02  0.10500000000E+00 0.  1.
         13    1    4    4    0    0  0.24511515224E+01  0.90649729276E+01  0.35099921622E+01  0.10025614592E+02  0.10500000000E+00 0. -1.
    3000001    1    5    5    0    0 -0.93234874876E+01 -0.35117695046E+02 -0.12285815394E+02  0.38368231444E+02  0.10000000000E+01 0.  1.
        -13    1    6    6    0    0 -0.48355096850E+01 -0.68966789157E+01 -0.27783457595E+01  0.88699810676E+01  0.10500000000E+00 0. -1.
         13    1    6    6    0    0 -0.81851080547E+01 -0.11944815901E+02 -0.48204385858E+01  0.15261791308E+02  0.10500000000E+00 0.  1.
</event>
<event>
11    0  0.3462209E-009  0.9118800E+02  0.7816531E-02  0.1126479E+00
         25   -1    0    0    0    0  0.00000000000E+00  0.00000000000E+00  0.99999998245E-14  0.12500000000E+03  0.12500000000E+03 0.  0.
    3000001    1    3    3    0    0  0.76558836500E+01 -0.50258166349E+01 -0.46112609566E+01  0.10302189812E+02  0.10000000000E+01 0. -1.
    1000022    2    1    0    0    0  0.29777093802E+02 -0.34752848144E+02 -0.41374077829E+02  0.62500001246E+02  0.10000003508E+02 0.  0.
    3000022    2    3    3    0    0  0.22121210152E+02 -0.29727031509E+02 -0.36762816872E+02  0.52197811434E+02  0.24994641624E+00 0.  0.
    1000022    2    1    0    0    0 -0.29777093802E+02  0.34752848144E+02  0.41374077829E+02  0.62499998754E+02  0.99999879282E+01 0.  0.
    3000022    2    5    5    0    0 -0.59934781959E+01  0.74684958034E+01  0.14621598200E+02  0.17480098484E+02  0.24999729881E+00 0.  0.
        -13    1    4    4    0    0  0.13076213592E+02 -0.17479387855E+02 -0.21611901885E+02  0.30718100361E+02  0.10500000000E+00 0.  1.
         13    1    4    4    0    0  0.90449965604E+01 -0.12247643655E+02 -0.15150914987E+02  0.21479711074E+02  0.10500000000E+00 0. -1.
    3000001    1    5    5    0    0 -0.23783615606E+02  0.27284352341E+02  0.26752479629E+02  0.45019900270E+02  0.10000000000E+01 0.  1.
        -13    1    6    6    0    0 -0.20603674231E+01  0.26576252295E+01  0.51450746401E+01  0.61474306691E+01  0.10500000000E+00 0.  1.
         13    1    6    6    0    0 -0.39331107729E+01  0.48108705738E+01  0.94765235595E+01  0.11332667815E+02  0.10500000000E+00 0. -1.
</event>
<event>
11    0  0.3462209E-009  0.9118800E+02  0.7816531E-02  0.1126479E+00
         25   -1    0    0    0    0  0.00000000000E+00  0.00000000000E+00  0.99999998245E-14  0.12500000000E+03  0.12500000000E+03 0.  0.
    3000001    1    3    3    0    0 -0.48052984522E+01 -0.42447551334E+02 -0.11396180201E+02  0.44223957655E+02  0.10000000000E+01 0.  1.
    1000022    2    1    0    0    0 -0.20303682079E+01 -0.58325363123E+02 -0.20006997626E+02  0.62500002880E+02  0.10000001376E+02 0.  0.
    3000022    2    3    3    0    0  0.27749302442E+01 -0.15877811789E+02 -0.86108174248E+01  0.18276045225E+02  0.25001457681E+00 0.  0.
    1000022    2    1    0    0    0  0.20303682079E+01  0.58325363123E+02  0.20006997626E+02  0.62499997120E+02  0.99999653736E+01 0.  0.
    3000022    2    5    5    0    0 -0.69382496156E+00  0.18585293545E+02  0.17855153239E+01  0.18685424478E+02  0.24998744200E+00 0.  0.
        -13    1    4    4    0    0  0.73805070923E+00 -0.43829562594E+01 -0.23448303930E+01  0.50263584227E+01  0.10500000000E+00 0.  1.
         13    1    4    4    0    0  0.20368795350E+01 -0.11494855529E+02 -0.62659870318E+01  0.13249686803E+02  0.10500000000E+00 0. -1.
    3000001    1    5    5    0    0  0.27241931695E+01  0.39740069578E+02  0.18221482302E+02  0.43814572641E+02  0.10000000000E+01 0. -1.
        -13    1    6    6    0    0 -0.43029965422E+00  0.10173235394E+02  0.10214217913E+01  0.10233973014E+02  0.10500000000E+00 0. -1.
         13    1    6    6    0    0 -0.26352530733E+00  0.84120581517E+01  0.76409353263E+00  0.84514514648E+01  0.10500000000E+00 0.  1.
</event>
<event>
11    0  0.3462209E-009  0.9118800E+02  0.7816531E-02  0.1126479E+00
         25   -1    0    0    0    0  0.00000000000E+00  0.00000000000E+00  0.99999998245E-14  0.12500000000E+03  0.12500000000E+03 0.  0.
    3000001    1    3    3    0    0 -0.12751367038E+02 -0.15028185083E+02 -0.47234718455E+02  0.51191428343E+02  0.10000000000E+01 0. -1.
    1000022    2    1    0    0    0 -0.12589199346E+02 -0.21690928795E+02 -0.56367235900E+02  0.62500000896E+02  0.10000024845E+02 0.  0.
    3000022    2    3    3    0    0  0.16216769201E+00 -0.66627437117E+01 -0.91325174449E+01  0.11308572554E+02  0.24997238646E+00 0.  0.
    1000022    2    1    0    0    0  0.12589199346E+02  0.21690928795E+02  0.56367235900E+02  0.62499999104E+02  0.10000013638E+02 0.  0.
    3000022    2    5    5    0    0  0.19938563246E+00  0.94128602869E+01  0.17124322121E+02  0.19543454410E+02  0.25001751382E+00 0.  0.
        -13    1    4    4    0    0  0.10598184477E+00 -0.24327547533E+01 -0.33984475487E+01  0.41821045637E+01  0.10500000000E+00 0. -1.
         13    1    4    4    0    0  0.56185847237E-01 -0.42299889584E+01 -0.57340698962E+01  0.71264679900E+01  0.10500000000E+00 0.  1.
    3000001    1    5    5    0    0  0.12389813714E+02  0.12278068508E+02  0.39242913779E+02  0.42956544693E+02  0.10000000000E+01 0.  1.
        -13    1    6    6    0    0  0.14379116125E+00  0.38846746826E+01  0.70319818719E+01  0.80356186653E+01  0.10500000000E+00 0.  1.
         13    1    6    6    0    0  0.55594471212E-01  0.55281856043E+01  0.10092340249E+02  0.11507835745E+02  0.10500000000E+00 0. -1.
</event>
<event>
11    0  0.3462209E-009  0.9118800E+02  0.7816531E-02  0.1126479E+00
         25   -1    0    0    0    0  0.00000000000E+00  0.00000000000E+00  0.99999998245E-14  0.12500000000E+03  0.12500000000E+03 0.  0.
    3000001    1    3    3    0    0  0.69783871676E+01 -0.11482559169E+02 -0.86949340546E+01  0.16035863891E+02  0.10000000000E+01 0. -1.
    1000022    2    1    0    0    0  0.36466972551E+02 -0.31642815323E+02 -0.38407575753E+02  0.62500002463E+02  0.10000029198E+02 0.  0.
    3000022    2    3    3    0    0  0.29488585384E+02 -0.20160256155E+02 -0.29712641698E+02  0.46464138572E+02  0.25000068246E+00 0.  0.
    1000022    2    1    0    0    0 -0.36466972551E+02  0.31642815323E+02  0.38407575753E+02  0.62499997537E+02  0.99999984151E+01 0.  0.
    3000022    2    5    5    0    0 -0.26008001354E+02  0.18070763024E+02  0.20677394909E+02  0.37823085354E+02  0.25002962356E+00 0.  0.
        -13    1    4    4    0    0  0.10466101911E+02 -0.71045245099E+01 -0.10572616776E+02  0.16486503820E+02  0.10500000000E+00 0.  1.
         13    1    4    4    0    0  0.19022483472E+02 -0.13055731645E+02 -0.19140024923E+02  0.29977634751E+02  0.10500000000E+00 0. -1.
    3000001    1    5    5    0    0 -0.10458971198E+02  0.13572052299E+02  0.17730180844E+02  0.24676912183E+02  0.10000000000E+01 0. -1.
        -13    1    6    6    0    0 -0.15171531792E+02  0.10491372353E+02  0.12102813284E+02  0.22062034928E+02  0.10500000000E+00 0. -1.
         13    1    6    6    0    0 -0.10836469562E+02  0.75793906711E+01  0.85745816252E+01  0.15761050427E+02  0.10500000000E+00 0.  1.
</event>
<event>
11    0  0.3462209E-009  0.9118800E+02  0.7816531E-02  0.1126479E+00
         25   -1    0    0    0    0  0.00000000000E+00  0.00000000000E+00  0.99999998245E-14  0.12500000000E+03  0.12500000000E+03 0.  0.
    3000001    1    3    3    0    0 -0.13463741728E+02 -0.63762209280E+01  0.49293183803E+02  0.51504820202E+02  0.10000000000E+01 0. -1.
    1000022    2    1    0    0    0 -0.18068727043E+02 -0.35972867470E+01  0.58879796932E+02  0.62500001721E+02  0.10000017973E+02 0.  0.
    3000022    2    3    3    0    0 -0.46049853154E+01  0.27789341811E+01  0.95866131289E+01  0.10995181518E+02  0.25000080581E+00 0.  0.
    1000022    2    1    0    0    0  0.18068727043E+02  0.35972867470E+01 -0.58879796932E+02  0.62499998279E+02  0.99999964641E+01 0.  0.
    3000022    2    5    5    0    0  0.12812520036E+01  0.23272604555E+01 -0.19204045512E+02  0.19388543471E+02  0.25001193136E+00 0.  0.
        -13    1    4    4    0    0 -0.22495995762E+01  0.12923559436E+01  0.45453639399E+01  0.52347149382E+01  0.10500000000E+00 0. -1.
         13    1    4    4    0    0 -0.23553857392E+01  0.14865782374E+01  0.50412491890E+01  0.57604665802E+01  0.10500000000E+00 0.  1.
    3000001    1    5    5    0    0  0.16787475039E+02  0.12700262915E+01 -0.39675751420E+02  0.43111454809E+02  0.10000000000E+01 0.  1.
        -13    1    6    6    0    0  0.59620502621E+00  0.12188282344E+01 -0.96690632392E+01  0.97643643737E+01  0.10500000000E+00 0. -1.
         13    1    6    6    0    0  0.68504697736E+00  0.11084322211E+01 -0.95349822726E+01  0.96241790969E+01  0.10500000000E+00 0.  1.
</event>
<event>
11    0  0.3462209E-009  0.9118800E+02  0.7816531E-02  0.1126479E+00
         25   -1    0    0    0    0  0.00000000000E+00  0.00000000000E+00  0.99999998245E-14  0.12500000000E+03  0.12500000000E+03 0.  0.
    3000001    1    3    3    0    0  0.34403321372E+02 -0.19731266574E+01 -0.47961218902E+02  0.59065728378E+02  0.10000000000E+01 0. -1.
    1000022    2    1    0    0    0  0.34115514101E+02 -0.18332071035E+01 -0.51371401420E+02  0.62500001597E+02  0.10000018255E+02 0.  0.
    3000022    2    3    3    0    0 -0.28780727086E+00  0.13991955388E+00 -0.34101825179E+01  0.34342732192E+01  0.24995445979E+00 0.  0.
    1000022    2    1    0    0    0 -0.34115514101E+02  0.18332071035E+01  0.51371401420E+02  0.62499998403E+02  0.99999982921E+01 0.  0.
    3000022    2    5    5    0    0 -0.18357026777E+02  0.40033856536E+01  0.20850842983E+02  0.28068267616E+02  0.24993015547E+00 0.  0.
        -13    1    4    4    0    0 -0.66224642083E-01  0.54596808297E-01 -0.82321505838E+00  0.83431082160E+00  0.10500000000E+00 0. -1.
         13    1    4    4    0    0 -0.22158262878E+00  0.85322745578E-01 -0.25869674595E+01  0.25999623976E+01  0.10500000000E+00 0.  1.
    3000001    1    5    5    0    0 -0.15758487325E+02 -0.21701785501E+01  0.30520558436E+02  0.34431730787E+02  0.10000000000E+01 0.  1.
        -13    1    6    6    0    0 -0.94099651676E+01  0.19912191199E+01  0.10625775332E+02  0.14332847743E+02  0.10500000000E+00 0. -1.
         13    1    6    6    0    0 -0.89470616090E+01  0.20121665337E+01  0.10225067652E+02  0.13735419873E+02  0.10500000000E+00 0.  1.
</event>
<event>
11    0  0.3462209E-009  0.9118800E+02  0.7816531E-02  0.1126479E+00
         25   -1    0    0    0    0  0.00000000000E+00  0.00000000000E+00  0.99999998245E-14  0.12500000000E+03  0.12500000000E+03 0.  0.
    3000001    1    3    3    0    0 -0.42637392939E+02  0.39760754450E+02  0.12388745219E+02  0.59609947820E+02  0.10000000000E+01 0. -1.
    1000022    2    1    0    0    0 -0.43642404404E+02  0.41029793149E+02  0.14769792214E+02  0.62500000871E+02  0.99999979449E+01 0.  0.
    3000022    2    3    3    0    0 -0.10050114648E+01  0.12690386985E+01  0.23810469947E+01  0.28900530506E+01  0.25002916113E+00 0.  0.
    1000022    2    1    0    0    0  0.43642404404E+02 -0.41029793149E+02 -0.14769792214E+02  0.62499999129E+02  0.99999870577E+01 0.  0.
    3000022    2    5    5    0    0  0.11419964473E+02 -0.62869764940E+01 -0.57663529667E+01  0.14256752322E+02  0.24999649052E+00 0.  0.
        -13    1    4    4    0    0 -0.53529852338E+00  0.61290324938E+00  0.12932256842E+01  0.15315523408E+01  0.10500000000E+00 0. -1.
         13    1    4    4    0    0 -0.46971294147E+00  0.65613544910E+00  0.10878213105E+01  0.13585007098E+01  0.10500000000E+00 0.  1.
    3000001    1    5    5    0    0  0.32222439931E+02 -0.34742816655E+02 -0.90034392470E+01  0.48243246807E+02  0.10000000000E+01 0. -1.
        -13    1    6    6    0    0  0.86009572888E+01 -0.47338640345E+01 -0.43688431091E+01  0.10746336589E+02  0.10500000000E+00 0. -1.
         13    1    6    6    0    0  0.28190071841E+01 -0.15531124594E+01 -0.13975098576E+01  0.35104157329E+01  0.10500000000E+00 0.  1.
</event>
<event>
11    0  0.3462209E-009  0.9118800E+02  0.7816531E-02  0.1126479E+00
         25   -1    0    0    0    0  0.00000000000E+00  0.00000000000E+00  0.99999998245E-14  0.12500000000E+03  0.12500000000E+03 0.  0.
    3000001    1    3    3    0    0  0.22411030817E+02  0.50469524357E+02 -0.18001590874E+02  0.58090313005E+02  0.10000000000E+01 0. -1.
    1000022    2    1    0    0    0  0.24266065966E+02  0.54224868942E+02 -0.16645468206E+02  0.62499999946E+02  0.10000000615E+02 0.  0.
    3000022    2    3    3    0    0  0.18550351486E+01  0.37553445853E+01  0.13561226679E+01  0.44096869412E+01  0.25000374450E+00 0.  0.
    1000022    2    1    0    0    0 -0.24266065966E+02 -0.54224868942E+02  0.16645468206E+02  0.62500000054E+02  0.10000001284E+02 0.  0.
    3000022    2    5    5    0    0 -0.21317553504E+02 -0.37076850766E+02  0.12919246742E+02  0.44677739268E+02  0.24999929629E+00 0.  0.
        -13    1    4    4    0    0  0.96189540483E+00  0.17965247278E+01  0.67155828438E+00  0.21481991054E+01  0.10500000000E+00 0. -1.
         13    1    4    4    0    0  0.89313974378E+00  0.19588198575E+01  0.68456438350E+00  0.22614878357E+01  0.10500000000E+00 0.  1.
    3000001    1    5    5    0    0 -0.29485124621E+01 -0.17148018176E+02  0.37262214641E+01  0.17822260785E+02  0.10000000000E+01 0.  1.
        -13    1    6    6    0    0 -0.87371337756E+01 -0.15279027325E+02  0.52655333388E+01  0.18371800373E+02  0.10500000000E+00 0. -1.
         13    1    6    6    0    0 -0.12580419728E+02 -0.21797823441E+02  0.76537134028E+01  0.26305938895E+02  0.10500000000E+00 0.  1.
</event>
<event>
11    0  0.3462209E-009  0.9118800E+02  0.7816531E-02  0.1126479E+00
         25   -1    0    0    0    0  0.00000000000E+00  0.00000000000E+00  0.99999998245E-14  0.12500000000E+03  0.12500000000E+03 0.  0.
    3000001    1    3    3    0    0 -0.13662761760E+01  0.36465587825E+00  0.22644017381E+01  0.28508243948E+01  0.10000000000E+01 0. -1.
    1000022    2    1    0    0    0 -0.47606650131E+02 -0.23465058152E+02  0.31452311688E+02  0.62499999080E+02  0.99999941803E+01 0.  0.
    3000022    2    3    3    0    0 -0.46240373955E+02 -0.23829714030E+02  0.29187909950E+02  0.59649174685E+02  0.24999803828E+00 0.  0.
    1000022    2    1    0    0    0  0.47606650131E+02  0.23465058152E+02 -0.31452311688E+02  0.62500000920E+02  0.10000005686E+02 0.  0.
    3000022    2    5    5    0    0  0.38749671288E+02  0.22081455808E+02 -0.28828084808E+02  0.53106013674E+02  0.24999809211E+00 0.  0.
        -13    1    4    4    0    0 -0.30307945929E+02 -0.15661261151E+02  0.19094870392E+02  0.39095674794E+02  0.10500000000E+00 0. -1.
         13    1    4    4    0    0 -0.15932428026E+02 -0.81684528787E+01  0.10093039558E+02  0.20553499891E+02  0.10500000000E+00 0.  1.
    3000001    1    5    5    0    0  0.88569788432E+01  0.13836023433E+01 -0.26242268803E+01  0.93939872468E+01  0.10000000000E+01 0. -1.
        -13    1    6    6    0    0  0.26052175112E+02  0.14838810844E+02 -0.19441272778E+02  0.35733461175E+02  0.10500000000E+00 0.  1.
         13    1    6    6    0    0  0.12697496176E+02  0.72426449643E+01 -0.93868120304E+01  0.17372552499E+02  0.10500000000E+00 0. -1.
</event>
<event>
11    0  0.3462209E-009  0.9118800E+02  0.7816531E-02  0.1126479E+00
         25   -1    0    0    0    0  0.00000000000E+00  0.00000000000E+00  0.99999998245E-14  0.12500000000E+03  0.12500000000E+03 0.  0.
    3000001    1    3    3    0    0  0.65475216764E+00 -0.22324581048E+02  0.18978284538E+02  0.29325601501E+02  0.10000000000E+01 0.  1.
    1000022    2    1    0    0    0  0.11394861760E+02 -0.44428212853E+02  0.41261860363E+02  0.62500000425E+02  0.99999980359E+01 0.  0.
    3000022    2    3    3    0    0  0.10740109592E+02 -0.22103631805E+02  0.22283575825E+02  0.33174398925E+02  0.24999888017E+00 0.  0.
    1000022    2    1    0    0    0 -0.11394861760E+02  0.44428212853E+02 -0.41261860363E+02  0.62499999575E+02  0.99999927218E+01 0.  0.
    3000022    2    5    5    0    0 -0.62001910696E+01  0.11279372889E+02 -0.15723485509E+02  0.20321346387E+02  0.25000075514E+00 0.  0.
        -13    1    4    4    0    0  0.74179764879E+01 -0.15333483626E+02  0.15394238416E+02  0.22959435897E+02  0.10500000000E+00 0. -1.
         13    1    4    4    0    0  0.33221331044E+01 -0.67701481785E+01  0.68893374095E+01  0.10214963028E+02  0.10500000000E+00 0.  1.
    3000001    1    5    5    0    0 -0.51946706905E+01  0.33148839964E+02 -0.25538374854E+02  0.42178653188E+02  0.10000000000E+01 0. -1.
        -13    1    6    6    0    0 -0.45703443354E+01  0.82989542413E+01 -0.11520890419E+02  0.14916522044E+02  0.10500000000E+00 0. -1.
         13    1    6    6    0    0 -0.16298467342E+01  0.29804186473E+01 -0.42025950901E+01  0.54048243433E+01  0.10500000000E+00 0.  1.
</event>
<event>
11    0  0.3462209E-009  0.9118800E+02  0.7816531E-02  0.1126479E+00
         25   -1    0    0    0    0  0.00000000000E+00  0.00000000000E+00  0.99999998245E-14  0.12500000000E+03  0.12500000000E+03 0.  0.
    3000001    1    3    3    0    0  0.23437033687E+02  0.14094709678E+02  0.42014922330E+02  0.50141889547E+02  0.10000000000E+01 0. -1.
    1000022    2    1    0    0    0  0.32278633501E+02  0.14120138519E+02  0.50645436035E+02  0.62499995672E+02  0.10000038765E+02 0.  0.
    3000022    2    3    3    0    0  0.88415998141E+01  0.25428840461E-01  0.86305137049E+01  0.12358106124E+02  0.24997254783E+00 0.  0.
    1000022    2    1    0    0    0 -0.32278633501E+02 -0.14120138519E+02 -0.50645436035E+02  0.62500004328E+02  0.10000092871E+02 0.  0.
    3000022    2    5    5    0    0 -0.52029839066E+01 -0.66671416567E+01 -0.10227460188E+02  0.13273479621E+02  0.24999991841E+00 0.  0.
        -13    1    4    4    0    0  0.49226693005E+01 -0.45069958471E-01  0.47629612221E+01  0.68506590155E+01  0.10500000000E+00 0.  1.
         13    1    4    4    0    0  0.39189305136E+01  0.70498798932E-01  0.38675524828E+01  0.55074471089E+01  0.10500000000E+00 0. -1.
    3000001    1    5    5    0    0 -0.27075649594E+02 -0.74529968622E+01 -0.40417975847E+02  0.49226524707E+02  0.10000000000E+01 0. -1.
        -13    1    6    6    0    0 -0.23567563785E+01 -0.30498916819E+01 -0.47625100162E+01  0.61276966760E+01  0.10500000000E+00 0. -1.
         13    1    6    6    0    0 -0.28462275281E+01 -0.36172499749E+01 -0.54649501718E+01  0.71457829454E+01  0.10500000000E+00 0.  1.
</event>
<event>
11    0  0.3462209E-009  0.9118800E+02  0.7816531E-02  0.1126479E+00
         25   -1    0    0    0    0  0.00000000000E+00  0.00000000000E+00  0.99999998245E-14  0.12500000000E+03  0.12500000000E+03 0.  0.
    3000001    1    3    3    0    0 -0.27207783657E+02  0.21034343589E+01  0.22936745536E+02  0.35662055794E+02  0.10000000000E+01 0.  1.
    1000022    2    1    0    0    0 -0.50854528352E+02 -0.22501657334E+01  0.34856907757E+02  0.62499996923E+02  0.99999648591E+01 0.  0.
    3000022    2    3    3    0    0 -0.23646744695E+02 -0.43536000923E+01  0.11920162221E+02  0.26837941129E+02  0.24989644234E+00 0.  0.
    1000022    2    1    0    0    0  0.50854528352E+02  0.22501657334E+01 -0.34856907757E+02  0.62500003077E+02  0.10000003327E+02 0.  0.
    3000022    2    5    5    0    0  0.47664714150E+02  0.44527706350E+01 -0.32061477935E+02  0.57617297794E+02  0.24999269906E+00 0.  0.
        -13    1    4    4    0    0 -0.13272919531E+02 -0.23993990040E+01  0.66313901678E+01  0.15030431432E+02  0.10500000000E+00 0.  1.
         13    1    4    4    0    0 -0.10373825164E+02 -0.19542010882E+01  0.52887720531E+01  0.11807509697E+02  0.10500000000E+00 0. -1.
    3000001    1    5    5    0    0  0.31898142021E+01 -0.22026049016E+01 -0.27954298221E+01  0.48827052836E+01  0.10000000000E+01 0. -1.
        -13    1    6    6    0    0  0.18909271155E+02  0.17875683619E+01 -0.12791770068E+02  0.22899701805E+02  0.10500000000E+00 0. -1.
         13    1    6    6    0    0  0.28755442995E+02  0.26652022730E+01 -0.19269707867E+02  0.34717595989E+02  0.10500000000E+00 0.  1.
</event>
<event>
11    0  0.3462209E-009  0.9118800E+02  0.7816531E-02  0.1126479E+00
         25   -1    0    0    0    0  0.00000000000E+00  0.00000000000E+00  0.99999998245E-14  0.12500000000E+03  0.12500000000E+03 0.  0.
    3000001    1    3    3    0    0 -0.46657000569E+01 -0.27164049039E+02  0.28958756182E+01  0.27731577900E+02  0.10000000000E+01 0.  1.
    1000022    2    1    0    0    0 -0.15904848384E+02 -0.57566701146E+02  0.15471284775E+02  0.62499999468E+02  0.99999998937E+01 0.  0.
    3000022    2    3    3    0    0 -0.11239148327E+02 -0.30402652107E+02  0.12575409157E+02  0.34768421567E+02  0.25002515005E+00 0.  0.
    1000022    2    1    0    0    0  0.15904848384E+02  0.57566701146E+02 -0.15471284775E+02  0.62500000532E+02  0.10000006548E+02 0.  0.
    3000022    2    5    5    0    0  0.53344300321E+01  0.66538381253E+01 -0.26640772605E+01  0.89380930844E+01  0.24998954188E+00 0.  0.
        -13    1    4    4    0    0 -0.77682966247E+01 -0.20887852208E+02  0.86698857978E+01  0.23912899177E+02  0.10500000000E+00 0. -1.
         13    1    4    4    0    0 -0.34708517024E+01 -0.95147998991E+01  0.39055233593E+01  0.10855522391E+02  0.10500000000E+00 0.  1.
    3000001    1    5    5    0    0  0.10570418352E+02  0.50912863021E+02 -0.12807207515E+02  0.53561907448E+02  0.10000000000E+01 0. -1.
        -13    1    6    6    0    0  0.24479824690E+01  0.31600440244E+01 -0.12586887369E+01  0.41921138750E+01  0.10500000000E+00 0. -1.
         13    1    6    6    0    0  0.28864475630E+01  0.34937941008E+01 -0.14053885236E+01  0.47459792094E+01  0.10500000000E+00 0.  1.
</event>
<event>
11    0  0.3462209E-009  0.9118800E+02  0.7816531E-02  0.1126479E+00
         25   -1    0    0    0    0  0.00000000000E+00  0.00000000000E+00  0.99999998245E-14  0.12500000000E+03  0.12500000000E+03 0.  0.
    3000001    1    3    3    0    0  0.20405826880E+02 -0.44363069490E+01 -0.11867236917E+02  0.24039756697E+02  0.10000000000E+01 0.  1.
    1000022    2    1    0    0    0  0.48391017001E+02 -0.25775123994E+01 -0.38182666425E+02  0.62499999822E+02  0.99999932915E+01 0.  0.
    3000022    2    3    3    0    0  0.27985190122E+02  0.18587945496E+01 -0.26315429508E+02  0.38460243126E+02  0.24997549680E+00 0.  0.
    1000022    2    1    0    0    0 -0.48391017001E+02  0.25775123994E+01  0.38182666425E+02  0.62500000178E+02  0.99999955128E+01 0.  0.
    3000022    2    5    5    0    0 -0.27047151271E+02  0.50909785400E+01  0.17248456113E+02  0.32481351344E+02  0.24998503351E+00 0.  0.
        -13    1    4    4    0    0  0.11861744858E+02  0.73677707960E+00 -0.11206432829E+02  0.16335207170E+02  0.10500000000E+00 0. -1.
         13    1    4    4    0    0  0.16123445263E+02  0.11220174700E+01 -0.15108996680E+02  0.22125035955E+02  0.10500000000E+00 0.  1.
    3000001    1    5    5    0    0 -0.21343865731E+02 -0.25134661406E+01  0.20934210313E+02  0.30018648834E+02  0.10000000000E+01 0.  1.
        -13    1    6    6    0    0 -0.10749367485E+02  0.20789548263E+01  0.68981359649E+01  0.12940875523E+02  0.10500000000E+00 0. -1.
         13    1    6    6    0    0 -0.16297783785E+02  0.30120237138E+01  0.10350320148E+02  0.19540475821E+02  0.10500000000E+00 0.  1.
</event>
<event>
11    0  0.3462209E-009  0.9118800E+02  0.7816531E-02  0.1126479E+00
         25   -1    0    0    0    0  0.00000000000E+00  0.00000000000E+00  0.99999998245E-14  0.12500000000E+03  0.12500000000E+03 0.  0.
    3000001    1    3    3    0    0 -0.15846782221E+02 -0.47125744761E+01 -0.61056505911E+01  0.17652417231E+02  0.10000000000E+01 0.  1.
    1000022    2    1    0    0    0 -0.47030502355E+02 -0.26060357208E+02 -0.30252928461E+02  0.62500000851E+02  0.10000002817E+02 0.  0.
    3000022    2    3    3    0    0 -0.31183720134E+02 -0.21347782732E+02 -0.24147277870E+02  0.44847583620E+02  0.24999813223E+00 0.  0.
    1000022    2    1    0    0    0  0.47030502355E+02  0.26060357208E+02  0.30252928461E+02  0.62499999149E+02  0.99999921782E+01 0.  0.
    3000022    2    5    5    0    0  0.32357701439E+02  0.13664655403E+02  0.22778170106E+02  0.41864676946E+02  0.24998539453E+00 0.  0.
        -13    1    4    4    0    0 -0.19895095246E+02 -0.13582301917E+02 -0.15333311556E+02  0.28555475981E+02  0.10500000000E+00 0.  1.
         13    1    4    4    0    0 -0.11288624888E+02 -0.77654808152E+01 -0.88139663145E+01  0.16292107639E+02  0.10500000000E+00 0. -1.
    3000001    1    5    5    0    0  0.14672800916E+02  0.12395701805E+02  0.74747583554E+01  0.20635322203E+02  0.10000000000E+01 0.  1.
        -13    1    6    6    0    0  0.24140453561E+02  0.10214467070E+02  0.17024244257E+02  0.31255923490E+02  0.10500000000E+00 0.  1.
         13    1    6    6    0    0  0.82172478773E+01  0.34501883327E+01  0.57539258490E+01  0.10608753456E+02  0.10500000000E+00 0. -1.
</event>
<event>
11    0  0.3462209E-009  0.9118800E+02  0.7816531E-02  0.1126479E+00
         25   -1    0    0    0    0  0.00000000000E+00  0.00000000000E+00  0.99999998245E-14  0.12500000000E+03  0.12500000000E+03 0.  0.
    3000001    1    3    3    0    0 -0.40976675591E+02  0.11343402875E+02  0.17207042038E+02  0.45878568275E+02  0.10000000000E+01 0. -1.
    1000022    2    1    0    0    0 -0.54362220049E+02  0.10925077868E+02  0.27048875457E+02  0.62499999681E+02  0.10000000078E+02 0.  0.
    3000022    2    3    3    0    0 -0.13385544458E+02 -0.41832500647E+00  0.98418334186E+01  0.16621431406E+02  0.25000138430E+00 0.  0.
    1000022    2    1    0    0    0  0.54362220049E+02 -0.10925077868E+02 -0.27048875457E+02  0.62500000319E+02  0.10000004063E+02 0.  0.
    3000022    2    5    5    0    0  0.40922670367E+02 -0.11464371506E+02 -0.17432131329E+02  0.45935154986E+02  0.24999380951E+00 0.  0.
        -13    1    4    4    0    0 -0.36505835174E+01 -0.14294901054E+00  0.26566555827E+01  0.45184110396E+01  0.10500000000E+00 0.  1.
         13    1    4    4    0    0 -0.97349609410E+01 -0.27537599593E+00  0.71851778359E+01  0.12103020367E+02  0.10500000000E+00 0. -1.
    3000001    1    5    5    0    0  0.13439549682E+02  0.53929363734E+00 -0.96167441279E+01  0.16564845333E+02  0.10000000000E+01 0. -1.
        -13    1    6    6    0    0  0.13226350673E+02 -0.37570414476E+01 -0.56257333291E+01  0.14856366078E+02  0.10500000000E+00 0.  1.
         13    1    6    6    0    0  0.27696319695E+02 -0.77073300580E+01 -0.11806398000E+02  0.31078788908E+02  0.10500000000E+00 0. -1.
</event>
<event>
11    0  0.3462209E-009  0.9118800E+02  0.7816531E-02  0.1126479E+00
         25   -1    0    0    0    0  0.00000000000E+00  0.00000000000E+00  0.99999998245E-14  0.12500000000E+03  0.12500000000E+03 0.  0.
    3000001    1    3    3    0    0 -0.19740088839E+02  0.44546045249E+01 -0.13933126829E+02  0.24589563479E+02  0.10000000000E+01 0.  1.
    1000022    2    1    0    0    0 -0.45908207528E+02  0.22758782509E+02 -0.34361668537E+02  0.62499999797E+02  0.10000000512E+02 0.  0.
    3000022    2    3    3    0    0 -0.26168118688E+02  0.18304177984E+02 -0.20428541708E+02  0.37910436318E+02  0.24999622433E+00 0.  0.
    1000022    2    1    0    0    0  0.45908207528E+02 -0.22758782509E+02  0.34361668537E+02  0.62500000203E+02  0.10000003054E+02 0.  0.
    3000022    2    5    5    0    0  0.21073830984E+02 -0.15966068047E+02  0.17286832531E+02  0.31589852150E+02  0.24999732111E+00 0.  0.
        -13    1    4    4    0    0 -0.63582167621E+01  0.44252459660E+01 -0.49424564462E+01  0.91895931889E+01  0.10500000000E+00 0. -1.
         13    1    4    4    0    0 -0.19809901926E+02  0.13878932018E+02 -0.15486085262E+02  0.28720843129E+02  0.10500000000E+00 0.  1.
    3000001    1    5    5    0    0  0.24834376543E+02 -0.67927144624E+01  0.17074836006E+02  0.30910148053E+02  0.10000000000E+01 0. -1.
        -13    1    6    6    0    0  0.75581882344E+01 -0.56946812092E+01  0.62498456633E+01  0.11341393181E+02  0.10500000000E+00 0.  1.
         13    1    6    6    0    0  0.13515642750E+02 -0.10271386838E+02  0.11036986868E+02  0.20248458969E+02  0.10500000000E+00 0. -1.
</event>
<event>
11    0  0.3462209E-009  0.9118800E+02  0.7816531E-02  0.1126479E+00
         25   -1    0    0    0    0  0.00000000000E+00  0.00000000000E+00  0.99999998245E-14  0.12500000000E+03  0.12500000000E+03 0.  0.
    3000001    1    3    3    0    0  0.13532771805E+00 -0.44742124630E+02 -0.23650779222E+01  0.44815952780E+02  0.10000000000E+01 0.  1.
    1000022    2    1    0    0    0  0.59890586647E+01 -0.61180998357E+02 -0.52217174121E+01  0.62500002712E+02  0.10000031134E+02 0.  0.
    3000022    2    3    3    0    0  0.58537309466E+01 -0.16438873727E+02 -0.28566394899E+01  0.17684049933E+02  0.24999486227E+00 0.  0.
    1000022    2    1    0    0    0 -0.59890586647E+01  0.61180998357E+02  0.52217174121E+01  0.62499997288E+02  0.99999972300E+01 0.  0.
    3000022    2    5    5    0    0 -0.76601191173E+01  0.28540344107E+02  0.14898408589E+01  0.29589031706E+02  0.25000978185E+00 0.  0.
        -13    1    4    4    0    0  0.25389967723E+01 -0.72979005313E+01 -0.12293981505E+01  0.78248515377E+01  0.10500000000E+00 0. -1.
         13    1    4    4    0    0  0.33147341743E+01 -0.91409731958E+01 -0.16272413394E+01  0.98591983949E+01  0.10500000000E+00 0.  1.
    3000001    1    5    5    0    0  0.16710604526E+01  0.32640654250E+02  0.37318765532E+01  0.32910965582E+02  0.10000000000E+01 0.  1.
        -13    1    6    6    0    0 -0.55491696111E+01  0.20802294066E+02  0.11013299699E+01  0.21558123167E+02  0.10500000000E+00 0. -1.
         13    1    6    6    0    0 -0.21109495062E+01  0.77380500405E+01  0.38851088893E+00  0.80309085388E+01  0.10500000000E+00 0.  1.
</event>
<event>
11    0  0.3462209E-009  0.9118800E+02  0.7816531E-02  0.1126479E+00
         25   -1    0    0    0    0  0.00000000000E+00  0.00000000000E+00  0.99999998245E-14  0.12500000000E+03  0.12500000000E+03 0.  0.
    3000001    1    3    3    0    0 -0.22867533308E+02  0.14946044704E+02  0.39854977958E+02  0.48329365813E+02  0.10000000000E+01 0. -1.
    1000022    2    1    0    0    0 -0.25102123278E+02  0.17232192308E+02  0.53658039204E+02  0.62499999542E+02  0.99999863379E+01 0.  0.
    3000022    2    3    3    0    0 -0.22345899700E+01  0.22861476036E+01  0.13803061246E+02  0.14170633729E+02  0.24999462811E+00 0.  0.
    1000022    2    1    0    0    0  0.25102123278E+02 -0.17232192308E+02 -0.53658039204E+02  0.62500000458E+02  0.99999920637E+01 0.  0.
    3000022    2    5    5    0    0 -0.54766309686E+00 -0.22162387476E+01 -0.34121619894E+01  0.41130277721E+01  0.24999791622E+00 0.  0.
        -13    1    4    4    0    0 -0.15173463013E+01  0.16001230839E+01  0.96603916352E+01  0.99094361710E+01  0.10500000000E+00 0. -1.
         13    1    4    4    0    0 -0.71724366875E+00  0.68602451968E+00  0.41426696111E+01  0.42611975581E+01  0.10500000000E+00 0.  1.
    3000001    1    5    5    0    0  0.25649786375E+02 -0.15015953560E+02 -0.50245877214E+02  0.58386972686E+02  0.10000000000E+01 0. -1.
        -13    1    6    6    0    0 -0.22273199026E+00 -0.70891280888E+00 -0.11585201263E+01  0.13803480696E+01  0.10500000000E+00 0. -1.
         13    1    6    6    0    0 -0.32493110661E+00 -0.15073259387E+01 -0.22536418630E+01  0.27326797025E+01  0.10500000000E+00 0.  1.
</event>
<event>
11    0  0.3462209E-009  0.9118800E+02  0.7816531E-02  0.1126479E+00
         25   -1    0    0    0    0  0.00000000000E+00  0.00000000000E+00  0.99999998245E-14  0.12500000000E+03  0.12500000000E+03 0.  0.
    3000001    1    3    3    0    0  0.17017261821E+02  0.44085379350E+02  0.38336933931E+01  0.47421567639E+02  0.10000000000E+01 0. -1.
    1000022    2    1    0    0    0  0.20137466954E+02  0.58315779419E+02 -0.46597488693E-01  0.62500000107E+02  0.10000006871E+02 0.  0.
    3000022    2    3    3    0    0  0.31202051336E+01  0.14230400069E+02 -0.38802908818E+01  0.15078432468E+02  0.25000430511E+00 0.  0.
    1000022    2    1    0    0    0 -0.20137466954E+02 -0.58315779419E+02  0.46597488693E-01  0.62499999893E+02  0.10000005534E+02 0.  0.
    3000022    2    5    5    0    0 -0.15718906102E+02 -0.32614486028E+02  0.24723417167E+01  0.36289994227E+02  0.24999891016E+00 0.  0.
        -13    1    4    4    0    0  0.74184298666E+00  0.34170630880E+01 -0.95028238231E+00  0.36250121063E+01  0.10500000000E+00 0. -1.
         13    1    4    4    0    0  0.23783621469E+01  0.10813336981E+02 -0.29300084995E+01  0.11453420361E+02  0.10500000000E+00 0.  1.
    3000001    1    5    5    0    0 -0.44185608520E+01 -0.25701293391E+02 -0.24257442280E+01  0.26210005666E+02  0.10000000000E+01 0.  1.
        -13    1    6    6    0    0 -0.90446225618E+01 -0.18911564343E+02  0.14467751940E+01  0.21013249312E+02  0.10500000000E+00 0.  1.
         13    1    6    6    0    0 -0.66742835405E+01 -0.13702921685E+02  0.10255665227E+01  0.15276744914E+02  0.10500000000E+00 0. -1.
</event>
<event>
11    0  0.3462209E-009  0.9118800E+02  0.7816531E-02  0.1126479E+00
         25   -1    0    0    0    0  0.00000000000E+00  0.00000000000E+00  0.99999998245E-14  0.12500000000E+03  0.12500000000E+03 0.  0.
    3000001    1    3    3    0    0  0.17581945646E+02  0.38431962525E+02 -0.26232704017E+02  0.49752339807E+02  0.10000000000E+01 0. -1.
    1000022    2    1    0    0    0  0.24632948579E+02  0.48769531222E+02 -0.28653109484E+02  0.62499999601E+02  0.99999967851E+01 0.  0.
    3000022    2    3    3    0    0  0.70510029321E+01  0.10337568697E+02 -0.24204054675E+01  0.12747659794E+02  0.24999735883E+00 0.  0.
    1000022    2    1    0    0    0 -0.24632948579E+02 -0.48769531222E+02  0.28653109484E+02  0.62500000399E+02  0.10000001778E+02 0.  0.
    3000022    2    5    5    0    0 -0.21748810415E+02 -0.46499185242E+02  0.28448001805E+02  0.58690171929E+02  0.24998339332E+00 0.  0.
        -13    1    4    4    0    0  0.47495043299E+01  0.69416531727E+01 -0.15748153754E+01  0.85577689041E+01  0.10500000000E+00 0.  1.
         13    1    4    4    0    0  0.23014986022E+01  0.33959155239E+01 -0.84559009202E+00  0.41898908894E+01  0.10500000000E+00 0. -1.
    3000001    1    5    5    0    0 -0.28841381639E+01 -0.22703459798E+01  0.20510767903E+00  0.38098284707E+01  0.10000000000E+01 0.  1.
        -13    1    6    6    0    0 -0.10937715183E+02 -0.23224922380E+02  0.14225237076E+02  0.29349600131E+02  0.10500000000E+00 0. -1.
         13    1    6    6    0    0 -0.10811095231E+02 -0.23274262861E+02  0.14222764730E+02  0.29340571797E+02  0.10500000000E+00 0.  1.
</event>
<event>
11    0  0.3462209E-009  0.9118800E+02  0.7816531E-02  0.1126479E+00
         25   -1    0    0    0    0  0.00000000000E+00  0.00000000000E+00  0.99999998245E-14  0.12500000000E+03  0.12500000000E+03 0.  0.
    3000001    1    3    3    0    0  0.27898389420E+02 -0.26852615983E+02  0.32971557009E+02  0.50867540623E+02  0.10000000000E+01 0. -1.
    1000022    2    1    0    0    0  0.30928817410E+02 -0.31172009633E+02  0.43335483075E+02  0.62500000365E+02  0.10000001069E+02 0.  0.
    3000022    2    3    3    0    0  0.30304279895E+01 -0.43193936502E+01  0.10363926065E+02  0.11632459742E+02  0.25000173109E+00 0.  0.
    1000022    2    1    0    0    0 -0.30928817410E+02  0.31172009633E+02 -0.43335483075E+02  0.62499999635E+02  0.99999965040E+01 0.  0.
    3000022    2    5    5    0    0  0.89623984821E-01 -0.56287941839E+00 -0.37058359416E+00  0.72436141833E+00  0.25000313158E+00 0.  0.
        -13    1    4    4    0    0  0.13595752591E+01 -0.20530988046E+01  0.48627034198E+01  0.54516574669E+01  0.10500000000E+00 0.  1.
         13    1    4    4    0    0  0.16708527304E+01 -0.22662948455E+01  0.55012226453E+01  0.61808022754E+01  0.10500000000E+00 0. -1.
    3000001    1    5    5    0    0 -0.31018441395E+02  0.31734889052E+02 -0.42964899480E+02  0.61775638217E+02  0.10000000000E+01 0. -1.
        -13    1    6    6    0    0  0.54439084995E-01 -0.28654505244E+00 -0.11064026133E+00  0.32914730514E+00  0.10500000000E+00 0.  1.
         13    1    6    6    0    0  0.35184899826E-01 -0.27633436596E+00 -0.25994333283E+00  0.39521411319E+00  0.10500000000E+00 0. -1.
</event>
<event>
11    0  0.3462209E-009  0.9118800E+02  0.7816531E-02  0.1126479E+00
         25   -1    0    0    0    0  0.00000000000E+00  0.00000000000E+00  0.99999998245E-14  0.12500000000E+03  0.12500000000E+03 0.  0.
    3000001    1    3    3    0    0 -0.60574738560E+02 -0.12449817407E+02 -0.99829308442E+00  0.61857040781E+02  0.10000000000E+01 0. -1.
    1000022    2    1    0    0    0 -0.60536475316E+02 -0.11862360886E+02 -0.93247211855E+00  0.62499999874E+02  0.10000001527E+02 0.  0.
    3000022    2    3    3    0    0  0.38263244679E-01  0.58745652112E+00  0.65820965867E-01  0.64295909255E+00  0.24998950989E+00 0.  0.
    1000022    2    1    0    0    0  0.60536475316E+02  0.11862360886E+02  0.93247211855E+00  0.62500000126E+02  0.10000003107E+02 0.  0.
    3000022    2    5    5    0    0  0.44651609487E+02  0.74323097145E+01  0.48347007577E+01  0.45524084713E+02  0.25000012783E+00 0.  0.
        -13    1    4    4    0    0  0.64460463998E-01  0.24823154791E+00  0.73858279931E-01  0.28679975298E+00  0.10500000000E+00 0. -1.
         13    1    4    4    0    0 -0.26197219320E-01  0.33922497321E+00 -0.80373140633E-02  0.35615933957E+00  0.10500000000E+00 0.  1.
    3000001    1    5    5    0    0  0.15884865828E+02  0.44300511712E+01 -0.39022286392E+01  0.16975915413E+02  0.10000000000E+01 0.  1.
        -13    1    6    6    0    0  0.24297448496E+02  0.40095521640E+01  0.25724303994E+01  0.24760269286E+02  0.10500000000E+00 0.  1.
         13    1    6    6    0    0  0.20354160991E+02  0.34227575505E+01  0.22622703583E+01  0.20763815427E+02  0.10500000000E+00 0. -1.
</event>
<event>
11    0  0.3462209E-009  0.9118800E+02  0.7816531E-02  0.1126479E+00
         25   -1    0    0    0    0  0.00000000000E+00  0.00000000000E+00  0.99999998245E-14  0.12500000000E+03  0.12500000000E+03 0.  0.
    3000001    1    3    3    0    0  0.60769809473E+01  0.84688388908E+01  0.35276689539E+02  0.36798040089E+02  0.10000000000E+01 0. -1.
    1000022    2    1    0    0    0  0.31289009756E+01  0.18336991984E+02  0.58823590452E+02  0.62499998427E+02  0.99999856682E+01 0.  0.
    3000022    2    3    3    0    0 -0.29480799716E+01  0.98681530932E+01  0.23546900913E+02  0.25701958338E+02  0.24999757324E+00 0.  0.
    1000022    2    1    0    0    0 -0.31289009756E+01 -0.18336991984E+02 -0.58823590452E+02  0.62500001573E+02  0.10000005333E+02 0.  0.
    3000022    2    5    5    0    0  0.24634497478E+00 -0.98939095913E+01 -0.16867247159E+02  0.19558032964E+02  0.24998770508E+00 0.  0.
        -13    1    4    4    0    0 -0.15043195632E+01  0.51400033034E+01  0.12395417002E+02  0.13503332884E+02  0.10500000000E+00 0.  1.
         13    1    4    4    0    0 -0.14437604084E+01  0.47281497898E+01  0.11151483911E+02  0.12198625454E+02  0.10500000000E+00 0. -1.
    3000001    1    5    5    0    0 -0.33752459504E+01 -0.84430823926E+01 -0.41956343293E+02  0.42941968609E+02  0.10000000000E+01 0.  1.
        -13    1    6    6    0    0  0.13144780882E+00 -0.39014000997E+01 -0.65505999725E+01  0.76262432602E+01  0.10500000000E+00 0.  1.
         13    1    6    6    0    0  0.11489716596E+00 -0.59925094916E+01 -0.10316647186E+02  0.11931789703E+02  0.10500000000E+00 0. -1.
</event>
<event>
11    0  0.3462209E-009  0.9118800E+02  0.7816531E-02  0.1126479E+00
         25   -1    0    0    0    0  0.00000000000E+00  0.00000000000E+00  0.99999998245E-14  0.12500000000E+03  0.12500000000E+03 0.  0.
    3000001    1    3    3    0    0 -0.13994314357E+02 -0.26322351434E+02 -0.11983341052E+02  0.32145100437E+02  0.10000000000E+01 0. -1.
    1000022    2    1    0    0    0 -0.18054776695E+02 -0.53249415125E+02 -0.25392416646E+02  0.62499999863E+02  0.99999993579E+01 0.  0.
    3000022    2    3    3    0    0 -0.40604623381E+01 -0.26927063691E+02 -0.13409075593E+02  0.30354899426E+02  0.24999497889E+00 0.  0.
    1000022    2    1    0    0    0  0.18054776695E+02  0.53249415125E+02  0.25392416646E+02  0.62500000137E+02  0.10000001066E+02 0.  0.
    3000022    2    5    5    0    0  0.41333359671E+00  0.14249545168E+02  0.73065188456E+01  0.16020864275E+02  0.24998461315E+00 0.  0.
        -13    1    4    4    0    0 -0.20904005501E+01 -0.13922128737E+02 -0.70070231269E+01  0.15725928943E+02  0.10500000000E+00 0. -1.
         13    1    4    4    0    0 -0.19700617880E+01 -0.13004934955E+02 -0.64020524664E+01  0.14628970483E+02  0.10500000000E+00 0.  1.
    3000001    1    5    5    0    0  0.17641443099E+02  0.38999869956E+02  0.18085897800E+02  0.46479135862E+02  0.10000000000E+01 0.  1.
        -13    1    6    6    0    0  0.26380020706E+00  0.73723925109E+01  0.37296098691E+01  0.82669690129E+01  0.10500000000E+00 0.  1.
         13    1    6    6    0    0  0.14953338965E+00  0.68771526575E+01  0.35769089765E+01  0.77538952621E+01  0.10500000000E+00 0. -1.
</event>
<event>
11    0  0.3462209E-009  0.9118800E+02  0.7816531E-02  0.1126479E+00
         25   -1    0    0    0    0  0.00000000000E+00  0.00000000000E+00  0.99999998245E-14  0.12500000000E+03  0.12500000000E+03 0.  0.
    3000001    1    3    3    0    0 -0.97555847705E+01 -0.54053633444E+01 -0.18910388573E+02  0.21977083134E+02  0.10000000000E+01 0.  1.
    1000022    2    1    0    0    0 -0.29041886604E+02 -0.20716347657E+01 -0.54392337087E+02  0.62499994502E+02  0.10000006544E+02 0.  0.
    3000022    2    3    3    0    0 -0.19286301833E+02  0.33337285788E+01 -0.35481948513E+02  0.40522911368E+02  0.24998152215E+00 0.  0.
    1000022    2    1    0    0    0  0.29041886604E+02  0.20716347657E+01  0.54392337087E+02  0.62500005498E+02  0.10000075272E+02 0.  0.
    3000022    2    5    5    0    0  0.71896409911E+01  0.48237558101E+01  0.13423128816E+02  0.15975056977E+02  0.25000104284E+00 0.  0.
        -13    1    4    4    0    0 -0.11421881561E+02  0.19099100686E+01 -0.20979299350E+02  0.23963496428E+02  0.10500000000E+00 0.  1.
         13    1    4    4    0    0 -0.78644202722E+01  0.14238185101E+01 -0.14502649164E+02  0.16559414939E+02  0.10500000000E+00 0. -1.
    3000001    1    5    5    0    0  0.21852245613E+02 -0.27521210444E+01  0.40969208271E+02  0.46524948521E+02  0.10000000000E+01 0.  1.
        -13    1    6    6    0    0  0.24103340801E+01  0.16532990029E+01  0.44495848618E+01  0.53247477323E+01  0.10500000000E+00 0. -1.
         13    1    6    6    0    0  0.47793069110E+01  0.31704568072E+01  0.89735439543E+01  0.10650309245E+02  0.10500000000E+00 0.  1.
</event>
<event>
11    0  0.3462209E-009  0.9118800E+02  0.7816531E-02  0.1126479E+00
         25   -1    0    0    0    0  0.00000000000E+00  0.00000000000E+00  0.99999998245E-14  0.12500000000E+03  0.12500000000E+03 0.  0.
    3000001    1    3    3    0    0  0.51978199508E+01 -0.13528078575E+02 -0.47657765671E+01  0.15288520807E+02  0.10000000000E+01 0. -1.
    1000022    2    1    0    0    0  0.30243249015E+02 -0.44810336411E+02 -0.29725904211E+02  0.62499998693E+02  0.10000004761E+02 0.  0.
    3000022    2    3    3    0    0  0.25045429064E+02 -0.31282257836E+02 -0.24960127644E+02  0.47211477886E+02  0.24999974319E+00 0.  0.
    1000022    2    1    0    0    0 -0.30243249015E+02  0.44810336411E+02  0.29725904211E+02  0.62500001307E+02  0.10000021098E+02 0.  0.
    3000022    2    5    5    0    0 -0.23947550273E+02  0.39706929431E+02  0.22262871882E+02  0.51437567714E+02  0.24999797828E+00 0.  0.
        -13    1    4    4    0    0  0.10775680304E+02 -0.13509743047E+02 -0.10831378823E+02  0.20395054190E+02  0.10500000000E+00 0. -1.
         13    1    4    4    0    0  0.14269748760E+02 -0.17772514789E+02 -0.14128748821E+02  0.26816423697E+02  0.10500000000E+00 0.  1.
    3000001    1    5    5    0    0 -0.62956987416E+01  0.51034069800E+01  0.74630323293E+01  0.11062433593E+02  0.10000000000E+01 0. -1.
        -13    1    6    6    0    0 -0.76401103686E+01  0.12571165630E+02  0.70585080799E+01  0.16316833426E+02  0.10500000000E+00 0.  1.
         13    1    6    6    0    0 -0.16307439905E+02  0.27135763801E+02  0.15204363802E+02  0.35120734288E+02  0.10500000000E+00 0. -1.
</event>
<event>
11    0  0.3462209E-009  0.9118800E+02  0.7816531E-02  0.1126479E+00
         25   -1    0    0    0    0  0.00000000000E+00  0.00000000000E+00  0.99999998245E-14  0.12500000000E+03  0.12500000000E+03 0.  0.
    3000001    1    3    3    0    0  0.39389657140E+02 -0.31788413519E+02 -0.27948722925E+02  0.57828880647E+02  0.10000000000E+01 0.  1.
    1000022    2    1    0    0    0  0.41718273336E+02 -0.35829963078E+02 -0.27965146444E+02  0.62499999416E+02  0.99999963548E+01 0.  0.
    3000022    2    3    3    0    0  0.23286161955E+01 -0.40415495593E+01 -0.16423518228E-01  0.46711187696E+01  0.25000920137E+00 0.  0.
    1000022    2    1    0    0    0 -0.41718273336E+02  0.35829963078E+02  0.27965146444E+02  0.62500000584E+02  0.10000003653E+02 0.  0.
    3000022    2    5    5    0    0 -0.39185305947E+02  0.35125305796E+02  0.28151000173E+02  0.59680956901E+02  0.24999288832E+00 0.  0.
        -13    1    4    4    0    0  0.12105450675E+01 -0.22350338128E+01 -0.82805694477E-02  0.25439907768E+01  0.10500000000E+00 0.  1.
         13    1    4    4    0    0  0.11180711281E+01 -0.18065157466E+01 -0.81429487801E-02  0.21271279928E+01  0.10500000000E+00 0. -1.
    3000001    1    5    5    0    0 -0.25329673886E+01  0.70465728230E+00 -0.18585372942E+00  0.28190436828E+01  0.10000000000E+01 0. -1.
        -13    1    6    6    0    0 -0.30073844153E+02  0.26948157763E+02  0.21611737495E+02  0.45800846406E+02  0.10500000000E+00 0. -1.
         13    1    6    6    0    0 -0.91114617939E+01  0.81771480332E+01  0.65392626777E+01  0.13880110495E+02  0.10500000000E+00 0.  1.
</event>
<event>
11    0  0.3462209E-009  0.9118800E+02  0.7816531E-02  0.1126479E+00
         25   -1    0    0    0    0  0.00000000000E+00  0.00000000000E+00  0.99999998245E-14  0.12500000000E+03  0.12500000000E+03 0.  0.
    3000001    1    3    3    0    0  0.20474019836E+01 -0.17286688623E+02 -0.28363485726E+01  0.17665399278E+02  0.10000000000E+01 0.  1.
    1000022    2    1    0    0    0  0.20931927088E+02 -0.57947868928E+02 -0.31857259997E+01  0.62500000207E+02  0.10000004539E+02 0.  0.
    3000022    2    3    3    0    0  0.18884525104E+02 -0.40661180305E+02 -0.34937742706E+00  0.44834600929E+02  0.25000725489E+00 0.  0.
    1000022    2    1    0    0    0 -0.20931927088E+02  0.57947868928E+02  0.31857259997E+01  0.62499999793E+02  0.10000001956E+02 0.  0.
    3000022    2    5    5    0    0 -0.16783151407E+02  0.38861403004E+02  0.59513556334E+01  0.42747677692E+02  0.24999922350E+00 0.  0.
        -13    1    4    4    0    0  0.13875795203E+02 -0.29803145064E+02 -0.27171567817E+00  0.32876283285E+02  0.10500000000E+00 0.  1.
         13    1    4    4    0    0  0.50087299007E+01 -0.10858035241E+02 -0.77661748892E-01  0.11958317644E+02  0.10500000000E+00 0. -1.
    3000001    1    5    5    0    0 -0.41487756809E+01  0.19086465924E+02 -0.27656296337E+01  0.19752322101E+02  0.10000000000E+01 0. -1.
        -13    1    6    6    0    0 -0.11323984080E+02  0.26313572333E+02  0.39911749823E+01  0.28923644430E+02  0.10500000000E+00 0. -1.
         13    1    6    6    0    0 -0.54591673269E+01  0.12547830671E+02  0.19601806511E+01  0.13824033263E+02  0.10500000000E+00 0.  1.
</event>
<event>
11    0  0.3462209E-009  0.9118800E+02  0.7816531E-02  0.1126479E+00
         25   -1    0    0    0    0  0.00000000000E+00  0.00000000000E+00  0.99999998245E-14  0.12500000000E+03  0.12500000000E+03 0.  0.
    3000001    1    3    3    0    0 -0.67013816740E+01  0.19389257876E+02 -0.30963274539E+01  0.20771111694E+02  0.10000000000E+01 0.  1.
    1000022    2    1    0    0    0 -0.31698276139E+02  0.51340684152E+02 -0.12868701400E+02  0.62500000546E+02  0.10000001655E+02 0.  0.
    3000022    2    3    3    0    0 -0.24996894465E+02  0.31951426276E+02 -0.97723739463E+01  0.41728888851E+02  0.24999648258E+00 0.  0.
    1000022    2    1    0    0    0  0.31698276139E+02 -0.51340684152E+02  0.12868701400E+02  0.62499999454E+02  0.99999948352E+01 0.  0.
    3000022    2    5    5    0    0  0.11788832841E+02 -0.10958661135E+02  0.42378704915E+01  0.16646046980E+02  0.25000024433E+00 0.  0.
        -13    1    4    4    0    0 -0.10718871749E+02  0.13611366168E+02 -0.42093364825E+01  0.17829555214E+02  0.10500000000E+00 0.  1.
         13    1    4    4    0    0 -0.14278022717E+02  0.18340060108E+02 -0.55630374638E+01  0.23899333637E+02  0.10500000000E+00 0. -1.
    3000001    1    5    5    0    0  0.19909443298E+02 -0.40382023017E+02  0.86308309087E+01  0.45853952475E+02  0.10000000000E+01 0. -1.
        -13    1    6    6    0    0  0.64869237809E+01 -0.59953907786E+01  0.22618741795E+01  0.91187713279E+01  0.10500000000E+00 0.  1.
         13    1    6    6    0    0  0.53019090605E+01 -0.49632703563E+01  0.19759963120E+01  0.75272756520E+01  0.10500000000E+00 0. -1.
</event>
<event>
11    0  0.3462209E-009  0.9118800E+02  0.7816531E-02  0.1126479E+00
         25   -1    0    0    0    0  0.00000000000E+00  0.00000000000E+00  0.99999998245E-14  0.12500000000E+03  0.12500000000E+03 0.  0.
    3000001    1    3    3    0    0 -0.31445341146E+02  0.33673739681E+02  0.81931337088E+01  0.46806598508E+02  0.10000000000E+01 0.  1.
    1000022    2    1    0    0    0 -0.38648626003E+02  0.45493762867E+02  0.15583679718E+02  0.62500002505E+02  0.10000024391E+02 0.  0.
    3000022    2    3    3    0    0 -0.72032848575E+01  0.11820023186E+02  0.73905460095E+01  0.15693403997E+02  0.24999570405E+00 0.  0.
    1000022    2    1    0    0    0  0.38648626003E+02 -0.45493762867E+02 -0.15583679718E+02  0.62499997495E+02  0.99999930817E+01 0.  0.
    3000022    2    5    5    0    0  0.19088089261E+02 -0.29117618132E+02 -0.11352792170E+02  0.36621567800E+02  0.25000158368E+00 0.  0.
        -13    1    4    4    0    0 -0.51480021525E+01  0.85033150870E+01  0.52750641794E+01  0.11253693648E+02  0.10500000000E+00 0. -1.
         13    1    4    4    0    0 -0.20552827050E+01  0.33167080985E+01  0.21154818300E+01  0.44397103488E+01  0.10500000000E+00 0.  1.
    3000001    1    5    5    0    0  0.19560536743E+02 -0.16376144735E+02 -0.42308875483E+01  0.25878429695E+02  0.10000000000E+01 0. -1.
        -13    1    6    6    0    0  0.12228282901E+02 -0.18645440820E+02 -0.73314695900E+01  0.23472214157E+02  0.10500000000E+00 0.  1.
         13    1    6    6    0    0  0.68598063599E+01 -0.10472177312E+02 -0.40213225800E+01  0.13149353643E+02  0.10500000000E+00 0. -1.
</event>
<event>
11    0  0.3462209E-009  0.9118800E+02  0.7816531E-02  0.1126479E+00
         25   -1    0    0    0    0  0.00000000000E+00  0.00000000000E+00  0.99999998245E-14  0.12500000000E+03  0.12500000000E+03 0.  0.
    3000001    1    3    3    0    0 -0.34039398677E+02 -0.23480330490E+02 -0.20218719657E+02  0.46041320646E+02  0.10000000000E+01 0. -1.
    1000022    2    1    0    0    0 -0.49251066727E+02 -0.28971808614E+02 -0.23264080226E+02  0.62499993144E+02  0.99999223055E+01 0.  0.
    3000022    2    3    3    0    0 -0.15211668050E+02 -0.54914781237E+01 -0.30453605692E+01  0.16458672498E+02  0.25000513634E+00 0.  0.
    1000022    2    1    0    0    0  0.49251066727E+02  0.28971808614E+02  0.23264080226E+02  0.62500006856E+02  0.10000008005E+02 0.  0.
    3000022    2    5    5    0    0  0.50090838283E+00  0.21930269626E+01  0.17255128832E+01  0.28460801745E+01  0.25000236641E+00 0.  0.
        -13    1    4    4    0    0 -0.94075673277E+01 -0.34402592981E+01 -0.19315188081E+01  0.10201935942E+02  0.10500000000E+00 0. -1.
         13    1    4    4    0    0 -0.58041007220E+01 -0.20512188256E+01 -0.11138417611E+01  0.62567365559E+01  0.10500000000E+00 0.  1.
    3000001    1    5    5    0    0  0.48750158344E+02  0.26778781651E+02  0.21538567343E+02  0.59653926681E+02  0.10000000000E+01 0. -1.
        -13    1    6    6    0    0  0.20928627729E+00  0.93921280571E+00  0.82161091062E+00  0.12696420475E+01  0.10500000000E+00 0.  1.
         13    1    6    6    0    0  0.29162210554E+00  0.12538141569E+01  0.90390197254E+00  0.15764381270E+01  0.10500000000E+00 0. -1.
</event>
<event>
11    0  0.3462209E-009  0.9118800E+02  0.7816531E-02  0.1126479E+00
         25   -1    0    0    0    0  0.00000000000E+00  0.00000000000E+00  0.99999998245E-14  0.12500000000E+03  0.12500000000E+03 0.  0.
    3000001    1    3    3    0    0 -0.31278488950E+01 -0.29902425668E+02  0.14799798000E+02  0.33525699401E+02  0.10000000000E+01 0. -1.
    1000022    2    1    0    0    0 -0.25722149999E+01 -0.50930070209E+02  0.34724082203E+02  0.62500001233E+02  0.99999963908E+01 0.  0.
    3000022    2    3    3    0    0  0.55563389504E+00 -0.21027644541E+02  0.19924284204E+02  0.28974301832E+02  0.25000328020E+00 0.  0.
    1000022    2    1    0    0    0  0.25722149999E+01  0.50930070209E+02 -0.34724082203E+02  0.62499998767E+02  0.99999809758E+01 0.  0.
    3000022    2    5    5    0    0  0.26315487823E+00  0.18697485702E+02 -0.18583605883E+02  0.26364334410E+02  0.24999844930E+00 0.  0.
        -13    1    4    4    0    0  0.24156212510E+00 -0.10432765117E+02  0.98037529436E+01  0.14318712827E+02  0.10500000000E+00 0. -1.
         13    1    4    4    0    0  0.31407176995E+00 -0.10594879424E+02  0.10120531260E+02  0.14655589004E+02  0.10500000000E+00 0.  1.
    3000001    1    5    5    0    0  0.23090601217E+01  0.32232584507E+02 -0.16140476320E+02  0.36135664356E+02  0.10000000000E+01 0.  1.
        -13    1    6    6    0    0  0.61412208243E-01  0.70732565605E+01 -0.70964644543E+01  0.10020257610E+02  0.10500000000E+00 0.  1.
         13    1    6    6    0    0  0.20174266998E+00  0.11624229141E+02 -0.11487141429E+02  0.16344076800E+02  0.10500000000E+00 0. -1.
</event>
<event>
11    0  0.3462209E-009  0.9118800E+02  0.7816531E-02  0.1126479E+00
         25   -1    0    0    0    0  0.00000000000E+00  0.00000000000E+00  0.99999998245E-14  0.12500000000E+03  0.12500000000E+03 0.  0.
    3000001    1    3    3    0    0  0.14212751703E+02  0.18465094403E+02  0.17373439612E+02  0.29082613814E+02  0.10000000000E+01 0. -1.
    1000022    2    1    0    0    0  0.35896184288E+02  0.41398625893E+02  0.28352567801E+02  0.62500002565E+02  0.99999973685E+01 0.  0.
    3000022    2    3    3    0    0  0.21683432585E+02  0.22933531490E+02  0.10979128190E+02  0.33417388751E+02  0.24999973004E+00 0.  0.
    1000022    2    1    0    0    0 -0.35896184288E+02 -0.41398625893E+02 -0.28352567801E+02  0.62499997435E+02  0.99999653109E+01 0.  0.
    3000022    2    5    5    0    0 -0.25935753313E+02 -0.35854539587E+02 -0.22806392432E+02  0.49783585229E+02  0.25002716652E+00 0.  0.
        -13    1    4    4    0    0  0.75483210741E+01  0.80398411266E+01  0.38797947893E+01  0.11691023436E+02  0.10500000000E+00 0. -1.
         13    1    4    4    0    0  0.14135111511E+02  0.14893690364E+02  0.70993334003E+01  0.21726365315E+02  0.10500000000E+00 0.  1.
    3000001    1    5    5    0    0 -0.99604309749E+01 -0.55440863063E+01 -0.55461753696E+01  0.12716412207E+02  0.10000000000E+01 0. -1.
        -13    1    6    6    0    0 -0.85253776864E+01 -0.11854322630E+02 -0.75641542166E+01  0.16444892329E+02  0.10500000000E+00 0. -1.
         13    1    6    6    0    0 -0.17410375627E+02 -0.24000216957E+02 -0.15242238215E+02  0.33338692900E+02  0.10500000000E+00 0.  1.
</event>
<event>
11    0  0.3462209E-009  0.9118800E+02  0.7816531E-02  0.1126479E+00
         25   -1    0    0    0    0  0.00000000000E+00  0.00000000000E+00  0.99999998245E-14  0.12500000000E+03  0.12500000000E+03 0.  0.
    3000001    1    3    3    0    0 -0.70074845153E+01  0.44130671282E+02 -0.66154475273E+01  0.45181690241E+02  0.10000000000E+01 0.  1.
    1000022    2    1    0    0    0 -0.82482884999E+01  0.61058066395E+02 -0.31825133774E+01  0.62499999322E+02  0.99999894362E+01 0.  0.
    3000022    2    3    3    0    0 -0.12408039846E+01  0.16927395113E+02  0.34329341499E+01  0.17318309081E+02  0.24998539525E+00 0.  0.
    1000022    2    1    0    0    0  0.82482884999E+01 -0.61058066395E+02  0.31825133774E+01  0.62500000678E+02  0.99999979151E+01 0.  0.
    3000022    2    5    5    0    0  0.68099678900E+01 -0.54126551978E+02  0.58555378750E+01  0.54867195280E+02  0.25000467009E+00 0.  0.
        -13    1    4    4    0    0 -0.35763853614E+00  0.47482382122E+01  0.10027495020E+01  0.48672582638E+01  0.10500000000E+00 0.  1.
         13    1    4    4    0    0 -0.88316544849E+00  0.12179156901E+02  0.24301846479E+01  0.12451050817E+02  0.10500000000E+00 0. -1.
    3000001    1    5    5    0    0  0.14383206099E+01 -0.69315144168E+01 -0.26730244976E+01  0.76328053985E+01  0.10000000000E+01 0.  1.
        -13    1    6    6    0    0  0.39949447600E+01 -0.32257135826E+02  0.34812373336E+01  0.32689638017E+02  0.10500000000E+00 0.  1.
         13    1    6    6    0    0  0.28150231300E+01 -0.21869416153E+02  0.23743005414E+01  0.22177557263E+02  0.10500000000E+00 0. -1.
</event>
<event>
11    0  0.3462209E-009  0.9118800E+02  0.7816531E-02  0.1126479E+00
         25   -1    0    0    0    0  0.00000000000E+00  0.00000000000E+00  0.99999998245E-14  0.12500000000E+03  0.12500000000E+03 0.  0.
    3000001    1    3    3    0    0  0.23481936184E+02  0.17715712412E+02 -0.36987636258E+02  0.47268732046E+02  0.10000000000E+01 0. -1.
    1000022    2    1    0    0    0  0.32447406837E+02  0.27137955259E+02 -0.44910435004E+02  0.62500001342E+02  0.10000008469E+02 0.  0.
    3000022    2    3    3    0    0  0.89654706532E+01  0.94222428470E+01 -0.79227987458E+01  0.15231269296E+02  0.25000021832E+00 0.  0.
    1000022    2    1    0    0    0 -0.32447406837E+02 -0.27137955259E+02  0.44910435004E+02  0.62499998658E+02  0.99999916945E+01 0.  0.
    3000022    2    5    5    0    0 -0.30990875900E+02 -0.22022795686E+02  0.40112892855E+02  0.55267934603E+02  0.25000629674E+00 0.  0.
        -13    1    4    4    0    0  0.22689572952E+01  0.23750372905E+01 -0.19699402767E+01  0.38315348142E+01  0.10500000000E+00 0. -1.
         13    1    4    4    0    0  0.66965133581E+01  0.70472055565E+01 -0.59528584691E+01  0.11399734482E+02  0.10500000000E+00 0.  1.
    3000001    1    5    5    0    0 -0.14565309368E+01 -0.51151595730E+01  0.47975421488E+01  0.72320640551E+01  0.10000000000E+01 0.  1.
        -13    1    6    6    0    0 -0.85933758261E+01 -0.61127683350E+01  0.11071033366E+02  0.15290220718E+02  0.10500000000E+00 0.  1.
         13    1    6    6    0    0 -0.22397500074E+02 -0.15910027351E+02  0.29041859490E+02  0.39977713885E+02  0.10500000000E+00 0. -1.
</event>
<event>
11    0  0.3462209E-009  0.9118800E+02  0.7816531E-02  0.1126479E+00
         25   -1    0    0    0    0  0.00000000000E+00  0.00000000000E+00  0.99999998245E-14  0.12500000000E+03  0.12500000000E+03 0.  0.
    3000001    1    3    3    0    0 -0.83274470265E+00 -0.32354747594E+02 -0.23658026246E+02  0.40102685215E+02  0.10000000000E+01 0. -1.
    1000022    2    1    0    0    0  0.47756500914E+00 -0.53657010876E+02 -0.30445820205E+02  0.62500006537E+02  0.99999982335E+01 0.  0.
    3000022    2    3    3    0    0  0.13103097118E+01 -0.21302263282E+02 -0.67877939591E+01  0.22397321321E+02  0.25004617115E+00 0.  0.
    1000022    2    1    0    0    0 -0.47756500914E+00  0.53657010876E+02  0.30445820205E+02  0.62499993463E+02  0.99999165251E+01 0.  0.
    3000022    2    5    5    0    0 -0.26829390923E+01  0.20792890462E+02  0.71831606023E+01  0.22163094510E+02  0.25001213180E+00 0.  0.
        -13    1    4    4    0    0  0.67484009714E+00 -0.12003357682E+02 -0.38428076037E+01  0.12621972908E+02  0.10500000000E+00 0. -1.
         13    1    4    4    0    0  0.63546961465E+00 -0.92989055994E+01 -0.29449863554E+01  0.97753484138E+01  0.10500000000E+00 0.  1.
    3000001    1    5    5    0    0  0.22053740831E+01  0.32864120414E+02  0.23262659602E+02  0.40336898954E+02  0.10000000000E+01 0.  1.
        -13    1    6    6    0    0 -0.11587578171E+01  0.86659822122E+01  0.29422339571E+01  0.92254936475E+01  0.10500000000E+00 0.  1.
         13    1    6    6    0    0 -0.15241812752E+01  0.12126908250E+02  0.42409266452E+01  0.12937600862E+02  0.10500000000E+00 0. -1.
</event>
<event>
11    0  0.3462209E-009  0.9118800E+02  0.7816531E-02  0.1126479E+00
         25   -1    0    0    0    0  0.00000000000E+00  0.00000000000E+00  0.99999998245E-14  0.12500000000E+03  0.12500000000E+03 0.  0.
    3000001    1    3    3    0    0  0.10449841097E+02  0.13078140443E+02  0.34797066226E+02  0.38627357590E+02  0.10000000000E+01 0. -1.
    1000022    2    1    0    0    0  0.20250026392E+02  0.26609069374E+02  0.51847312246E+02  0.62500000083E+02  0.10000004071E+02 0.  0.
    3000022    2    3    3    0    0  0.98001852947E+01  0.13530928931E+02  0.17050246019E+02  0.23872642493E+02  0.25000146672E+00 0.  0.
    1000022    2    1    0    0    0 -0.20250026392E+02 -0.26609069374E+02 -0.51847312246E+02  0.62499999917E+02  0.10000003035E+02 0.  0.
    3000022    2    5    5    0    0 -0.20206206813E+02 -0.26075220765E+02 -0.46375555918E+02  0.56911884690E+02  0.25000090289E+00 0.  0.
        -13    1    4    4    0    0  0.26836938260E+01  0.36715300773E+01  0.46863713222E+01  0.65311137511E+01  0.10500000000E+00 0.  1.
         13    1    4    4    0    0  0.71164914687E+01  0.98593988537E+01  0.12363874697E+02  0.17341528742E+02  0.10500000000E+00 0. -1.
    3000001    1    5    5    0    0 -0.43819579357E-01 -0.53384860877E+00 -0.54717563273E+01  0.55881152277E+01  0.10000000000E+01 0.  1.
        -13    1    6    6    0    0 -0.11238192328E+02 -0.14529491900E+02 -0.25933670936E+02  0.31780015968E+02  0.10500000000E+00 0.  1.
         13    1    6    6    0    0 -0.89680144849E+01 -0.11545728865E+02 -0.20441884982E+02  0.25131868722E+02  0.10500000000E+00 0. -1.
</event>
<event>
11    0  0.3462209E-009  0.9118800E+02  0.7816531E-02  0.1126479E+00
         25   -1    0    0    0    0  0.00000000000E+00  0.00000000000E+00  0.99999998245E-14  0.12500000000E+03  0.12500000000E+03 0.  0.
    3000001    1    3    3    0    0 -0.22843443954E+01 -0.29517339664E+01  0.28097075539E+01  0.47775955526E+01  0.10000000000E+01 0.  1.
    1000022    2    1    0    0    0  0.13990496002E+01 -0.45290844791E+02  0.41869225382E+02  0.62500001324E+02  0.10000008489E+02 0.  0.
    3000022    2    3    3    0    0  0.36833939956E+01 -0.42339110825E+02  0.39059517828E+02  0.57722405772E+02  0.24999674422E+00 0.  0.
    1000022    2    1    0    0    0 -0.13990496002E+01  0.45290844791E+02 -0.41869225382E+02  0.62499998676E+02  0.99999919332E+01 0.  0.
    3000022    2    5    5    0    0 -0.32506444231E+01  0.59439576807E+01 -0.84491230535E+01  0.10832705653E+02  0.25001861162E+00 0.  0.
        -13    1    4    4    0    0  0.15816214654E+01 -0.17604248344E+02  0.16300172329E+02  0.24044078880E+02  0.10500000000E+00 0.  1.
         13    1    4    4    0    0  0.21017725303E+01 -0.24734862481E+02  0.22759345499E+02  0.33678326892E+02  0.10500000000E+00 0. -1.
    3000001    1    5    5    0    0  0.18515948228E+01  0.39346887110E+02 -0.33420102329E+02  0.51667293023E+02  0.10000000000E+01 0. -1.
        -13    1    6    6    0    0 -0.14789362937E+01  0.25930904125E+01 -0.37856519507E+01  0.48221941210E+01  0.10500000000E+00 0.  1.
         13    1    6    6    0    0 -0.17717081293E+01  0.33508672682E+01 -0.46634711028E+01  0.60105115316E+01  0.10500000000E+00 0. -1.
</event>
<event>
11    0  0.3462209E-009  0.9118800E+02  0.7816531E-02  0.1126479E+00
         25   -1    0    0    0    0  0.00000000000E+00  0.00000000000E+00  0.99999998245E-14  0.12500000000E+03  0.12500000000E+03 0.  0.
    3000001    1    3    3    0    0 -0.11418463267E+02  0.32804337273E+02 -0.31794779252E+02  0.47100040711E+02  0.10000000000E+01 0. -1.
    1000022    2    1    0    0    0 -0.13450807614E+02  0.39323992774E+02 -0.45595498051E+02  0.62499998121E+02  0.99999844713E+01 0.  0.
    3000022    2    3    3    0    0 -0.20323443468E+01  0.65196555010E+01 -0.13800718799E+02  0.15399957410E+02  0.25003491032E+00 0.  0.
    1000022    2    1    0    0    0  0.13450807614E+02 -0.39323992774E+02  0.45595498051E+02  0.62500001879E+02  0.10000007961E+02 0.  0.
    3000022    2    5    5    0    0  0.48326514351E+01 -0.40418451747E+01  0.84088628275E+01  0.10510114455E+02  0.24999898641E+00 0.  0.
        -13    1    4    4    0    0 -0.13116376151E+01  0.40150836269E+01 -0.84855316197E+01  0.94792701002E+01  0.10500000000E+00 0.  1.
         13    1    4    4    0    0 -0.72070673178E+00  0.25045718741E+01 -0.53151871795E+01  0.59206873097E+01  0.10500000000E+00 0. -1.
    3000001    1    5    5    0    0  0.86181561788E+01 -0.35282147599E+02  0.37186635224E+02  0.51989887424E+02  0.10000000000E+01 0. -1.
        -13    1    6    6    0    0  0.24372440101E+01 -0.20334032475E+01  0.43493475352E+01  0.53854188430E+01  0.10500000000E+00 0. -1.
         13    1    6    6    0    0  0.23954074249E+01 -0.20084419271E+01  0.40595152922E+01  0.51246956118E+01  0.10500000000E+00 0.  1.
</event>
<event>
11    0  0.3462209E-009  0.9118800E+02  0.7816531E-02  0.1126479E+00
         25   -1    0    0    0    0  0.00000000000E+00  0.00000000000E+00  0.99999998245E-14  0.12500000000E+03  0.12500000000E+03 0.  0.
    3000001    1    3    3    0    0 -0.31114009802E+02  0.28453889589E+02  0.28744127790E+02  0.51038518014E+02  0.10000000000E+01 0.  1.
    1000022    2    1    0    0    0 -0.41146755890E+02  0.32061515947E+02  0.32943189460E+02  0.62500000526E+02  0.10000000441E+02 0.  0.
    3000022    2    3    3    0    0 -0.10032746089E+02  0.36076263585E+01  0.41990616705E+01  0.11461482512E+02  0.25000088885E+00 0.  0.
    1000022    2    1    0    0    0  0.41146755890E+02 -0.32061515947E+02 -0.32943189460E+02  0.62499999474E+02  0.99999938649E+01 0.  0.
    3000022    2    5    5    0    0  0.92613527351E+01 -0.50141256717E+01 -0.26644694587E+01  0.10866278515E+02  0.25000108546E+00 0.  0.
        -13    1    4    4    0    0 -0.67715979761E+01  0.24772858372E+01  0.28745892981E+01  0.77631033035E+01  0.10500000000E+00 0.  1.
         13    1    4    4    0    0 -0.32611481125E+01  0.11303405214E+01  0.13244723724E+01  0.36983792087E+01  0.10500000000E+00 0. -1.
    3000001    1    5    5    0    0  0.31885403155E+02 -0.27047390275E+02 -0.30278720002E+02  0.51633720958E+02  0.10000000000E+01 0. -1.
        -13    1    6    6    0    0  0.32218493516E+01 -0.16812649250E+01 -0.92475006478E+00  0.37514200878E+01  0.10500000000E+00 0. -1.
         13    1    6    6    0    0  0.60395033835E+01 -0.33328607467E+01 -0.17397193939E+01  0.71148584276E+01  0.10500000000E+00 0.  1.
</event>
<event>
11    0  0.3462209E-009  0.9118800E+02  0.7816531E-02  0.1126479E+00
         25   -1    0    0    0    0  0.00000000000E+00  0.00000000000E+00  0.99999998245E-14  0.12500000000E+03  0.12500000000E+03 0.  0.
    3000001    1    3    3    0    0  0.38591567562E+02  0.25455235212E+02  0.15538781873E+02  0.48782495105E+02  0.10000000000E+01 0. -1.
    1000022    2    1    0    0    0  0.47572349822E+02  0.30741786153E+02  0.24455357444E+02  0.62499998098E+02  0.99999685551E+01 0.  0.
    3000022    2    3    3    0    0  0.89807822596E+01  0.52865509414E+01  0.89165755717E+01  0.13717502993E+02  0.24999518424E+00 0.  0.
    1000022    2    1    0    0    0 -0.47572349822E+02 -0.30741786153E+02 -0.24455357444E+02  0.62500001902E+02  0.99999923275E+01 0.  0.
    3000022    2    5    5    0    0 -0.38178872702E+02 -0.28819506493E+02 -0.19460054831E+02  0.51642487468E+02  0.25000502517E+00 0.  0.
        -13    1    4    4    0    0  0.50365673038E+01  0.28889693360E+01  0.49525313906E+01  0.76322831581E+01  0.10500000000E+00 0.  1.
         13    1    4    4    0    0  0.39442149558E+01  0.23975816055E+01  0.39640441811E+01  0.60852198352E+01  0.10500000000E+00 0. -1.
    3000001    1    5    5    0    0 -0.93934771193E+01 -0.19222796598E+01 -0.49953026134E+01  0.10857514434E+02  0.10000000000E+01 0.  1.
        -13    1    6    6    0    0 -0.19413264109E+02 -0.14614703750E+02 -0.99502039245E+01  0.26257988731E+02  0.10500000000E+00 0.  1.
         13    1    6    6    0    0 -0.18765608593E+02 -0.14204802744E+02 -0.95098509064E+01  0.25384498737E+02  0.10500000000E+00 0. -1.
</event>
<event>
11    0  0.3462209E-009  0.9118800E+02  0.7816531E-02  0.1126479E+00
         25   -1    0    0    0    0  0.00000000000E+00  0.00000000000E+00  0.99999998245E-14  0.12500000000E+03  0.12500000000E+03 0.  0.
    3000001    1    3    3    0    0 -0.63303250478E+01  0.13821589463E+02 -0.33181180673E+02  0.36511643367E+02  0.10000000000E+01 0. -1.
    1000022    2    1    0    0    0 -0.33033295690E+01  0.20305816726E+02 -0.58163660819E+02  0.62500000690E+02  0.10000023364E+02 0.  0.
    3000022    2    3    3    0    0  0.30269954788E+01  0.64842272637E+01 -0.24982480145E+02  0.25988357323E+02  0.24999462288E+00 0.  0.
    1000022    2    1    0    0    0  0.33033295690E+01 -0.20305816726E+02  0.58163660819E+02  0.62499999310E+02  0.10000014737E+02 0.  0.
    3000022    2    5    5    0    0  0.43829818324E+01 -0.59039823095E+01  0.11587868183E+02  0.13726205699E+02  0.24999400763E+00 0.  0.
        -13    1    4    4    0    0  0.20792448461E+01  0.45503101034E+01 -0.17380672368E+02  0.18086662990E+02  0.10500000000E+00 0. -1.
         13    1    4    4    0    0  0.94775063266E+00  0.19339171603E+01 -0.76018077772E+01  0.79016943326E+01  0.10500000000E+00 0.  1.
    3000001    1    5    5    0    0 -0.10796522634E+01 -0.14401834417E+02  0.46575792635E+02  0.48773793611E+02  0.10000000000E+01 0. -1.
        -13    1    6    6    0    0  0.22014685260E+01 -0.28521386121E+01  0.56664641412E+01  0.67157277488E+01  0.10500000000E+00 0.  1.
         13    1    6    6    0    0  0.21815133064E+01 -0.30518436974E+01  0.59214040422E+01  0.70104779502E+01  0.10500000000E+00 0. -1.
</event>
<event>
11    0  0.3462209E-009  0.9118800E+02  0.7816531E-02  0.1126479E+00
         25   -1    0    0    0    0  0.00000000000E+00  0.00000000000E+00  0.99999998245E-14  0.12500000000E+03  0.12500000000E+03 0.  0.
    3000001    1    3    3    0    0 -0.18130119267E+02 -0.23208136976E+02  0.94833882251E+01  0.30955669897E+02  0.10000000000E+01 0. -1.
    1000022    2    1    0    0    0 -0.33086162872E+02 -0.50951680511E+02  0.10746259686E+02  0.62500000530E+02  0.10000002427E+02 0.  0.
    3000022    2    3    3    0    0 -0.14956043604E+02 -0.27743543535E+02  0.12628714605E+01  0.31544330633E+02  0.25000515952E+00 0.  0.
    1000022    2    1    0    0    0  0.33086162872E+02  0.50951680511E+02 -0.10746259686E+02  0.62499999470E+02  0.99999958017E+01 0.  0.
    3000022    2    5    5    0    0  0.30445350838E+02  0.40058030220E+02 -0.88495235047E+01  0.51087588989E+02  0.25001922153E+00 0.  0.
        -13    1    4    4    0    0 -0.66573934817E+01 -0.12247384816E+02  0.60379653356E+00  0.13953312082E+02  0.10500000000E+00 0.  1.
         13    1    4    4    0    0 -0.82986501227E+01 -0.15496158719E+02  0.65907492691E+00  0.17591018551E+02  0.10500000000E+00 0. -1.
    3000001    1    5    5    0    0  0.26408120333E+01  0.10893650291E+02 -0.18967361809E+01  0.11412410481E+02  0.10000000000E+01 0. -1.
        -13    1    6    6    0    0  0.13419425872E+02  0.17713208279E+02 -0.38510628363E+01  0.22553945292E+02  0.10500000000E+00 0. -1.
         13    1    6    6    0    0  0.17025924967E+02  0.22344821942E+02 -0.49984606685E+01  0.28533643697E+02  0.10500000000E+00 0.  1.
</event>
<event>
11    0  0.3462209E-009  0.9118800E+02  0.7816531E-02  0.1126479E+00
         25   -1    0    0    0    0  0.00000000000E+00  0.00000000000E+00  0.99999998245E-14  0.12500000000E+03  0.12500000000E+03 0.  0.
    3000001    1    3    3    0    0 -0.50092546194E+01 -0.38494415204E+01  0.37578441610E+01  0.74183707510E+01  0.10000000000E+01 0.  1.
    1000022    2    1    0    0    0 -0.44251245027E+02 -0.86413208061E+01  0.42111816813E+02  0.62499997966E+02  0.99999759382E+01 0.  0.
    3000022    2    3    3    0    0 -0.39241990408E+02 -0.47918792857E+01  0.38353972652E+02  0.55081627215E+02  0.25004047708E+00 0.  0.
    1000022    2    1    0    0    0  0.44251245027E+02  0.86413208061E+01 -0.42111816813E+02  0.62500002034E+02  0.10000001362E+02 0.  0.
    3000022    2    5    5    0    0  0.50692239211E+01 -0.28302296850E+00 -0.13677718241E+01  0.52640702096E+01  0.25000449080E+00 0.  0.
        -13    1    4    4    0    0 -0.18974612881E+02 -0.23799621246E+01  0.18516229731E+02  0.26618826837E+02  0.10500000000E+00 0.  1.
         13    1    4    4    0    0 -0.20267377526E+02 -0.24119171611E+01  0.19837742921E+02  0.28462800378E+02  0.10500000000E+00 0. -1.
    3000001    1    5    5    0    0  0.39182021106E+02  0.89243437746E+01 -0.40744044989E+02  0.57235931824E+02  0.10000000000E+01 0.  1.
        -13    1    6    6    0    0  0.32450986942E+01 -0.22440295159E+00 -0.91594572480E+00  0.33809767510E+01  0.10500000000E+00 0.  1.
         13    1    6    6    0    0  0.18241252269E+01 -0.58620016912E-01 -0.45182609930E+00  0.18830934586E+01  0.10500000000E+00 0. -1.
</event>
<event>
11    0  0.3462209E-009  0.9118800E+02  0.7816531E-02  0.1126479E+00
         25   -1    0    0    0    0  0.00000000000E+00  0.00000000000E+00  0.99999998245E-14  0.12500000000E+03  0.12500000000E+03 0.  0.
    3000001    1    3    3    0    0 -0.49181494519E+02  0.30178426822E+02 -0.10768187599E+02  0.58706990322E+02  0.10000000000E+01 0. -1.
    1000022    2    1    0    0    0 -0.52929415803E+02  0.29718356496E+02 -0.11024807258E+02  0.62500000928E+02  0.99999985452E+01 0.  0.
    3000022    2    3    3    0    0 -0.37479212847E+01 -0.46007032631E+00 -0.25661965923E+00  0.37930106063E+01  0.24999429651E+00 0.  0.
    1000022    2    1    0    0    0  0.52929415803E+02 -0.29718356496E+02  0.11024807258E+02  0.62499999072E+02  0.99999869401E+01 0.  0.
    3000022    2    5    5    0    0  0.32715195834E+02 -0.23530752782E+02  0.85020078235E+01  0.41186490546E+02  0.25000305923E+00 0.  0.
        -13    1    4    4    0    0 -0.14940695478E+01 -0.24427661658E+00 -0.12122763920E+00  0.15223784088E+01  0.10500000000E+00 0.  1.
         13    1    4    4    0    0 -0.22538517369E+01 -0.21579370973E+00 -0.13539202003E+00  0.22706321975E+01  0.10500000000E+00 0. -1.
    3000001    1    5    5    0    0  0.20214219969E+02 -0.61876037136E+01  0.25227994346E+01  0.21313508525E+02  0.10000000000E+01 0. -1.
        -13    1    6    6    0    0  0.24743723843E+02 -0.17791263014E+02  0.64073388559E+01  0.31142349389E+02  0.10500000000E+00 0.  1.
         13    1    6    6    0    0  0.79714719915E+01 -0.57394897676E+01  0.20946689676E+01  0.10044141157E+02  0.10500000000E+00 0. -1.
</event>
<event>
11    0  0.3462209E-009  0.9118800E+02  0.7816531E-02  0.1126479E+00
         25   -1    0    0    0    0  0.00000000000E+00  0.00000000000E+00  0.99999998245E-14  0.12500000000E+03  0.12500000000E+03 0.  0.
    3000001    1    3    3    0    0  0.81499563407E+01  0.54613557729E+01  0.82084668426E+01  0.12830710157E+02  0.10000000000E+01 0.  1.
    1000022    2    1    0    0    0  0.51954145735E+02  0.18644874691E+02  0.27556934339E+02  0.62499995305E+02  0.10000008584E+02 0.  0.
    3000022    2    3    3    0    0  0.43804189394E+02  0.13183518918E+02  0.19348467497E+02  0.49669285148E+02  0.25002618756E+00 0.  0.
    1000022    2    1    0    0    0 -0.51954145735E+02 -0.18644874691E+02 -0.27556934339E+02  0.62500004695E+02  0.10000067274E+02 0.  0.
    3000022    2    5    5    0    0 -0.47205647359E+02 -0.14399492589E+02 -0.22197145692E+02  0.54115564323E+02  0.24999147779E+00 0.  0.
        -13    1    4    4    0    0  0.29549664651E+02  0.88993484022E+01  0.12996767098E+02  0.33485938287E+02  0.10500000000E+00 0. -1.
         13    1    4    4    0    0  0.14254524743E+02  0.42841705157E+01  0.63517003984E+01  0.16183346861E+02  0.10500000000E+00 0.  1.
    3000001    1    5    5    0    0 -0.47484983759E+01 -0.42453821014E+01 -0.53597886475E+01  0.83844403724E+01  0.10000000000E+01 0. -1.
        -13    1    6    6    0    0 -0.23924614648E+02 -0.72276573320E+01 -0.11250579342E+02  0.27408261111E+02  0.10500000000E+00 0. -1.
         13    1    6    6    0    0 -0.23281032711E+02 -0.71718352574E+01 -0.10946566349E+02  0.26707303212E+02  0.10500000000E+00 0.  1.
</event>
<event>
11    0  0.3462209E-009  0.9118800E+02  0.7816531E-02  0.1126479E+00
         25   -1    0    0    0    0  0.00000000000E+00  0.00000000000E+00  0.99999998245E-14  0.12500000000E+03  0.12500000000E+03 0.  0.
    3000001    1    3    3    0    0  0.17145943641E+02  0.25235508290E+02 -0.14917528613E+02  0.33975681331E+02  0.10000000000E+01 0.  1.
    1000022    2    1    0    0    0  0.37295548560E+02  0.39607148204E+02 -0.29095813922E+02  0.62500002308E+02  0.99999884761E+01 0.  0.
    3000022    2    3    3    0    0  0.20149604919E+02  0.14371639914E+02 -0.14178285309E+02  0.28524320977E+02  0.25000142129E+00 0.  0.
    1000022    2    1    0    0    0 -0.37295548560E+02 -0.39607148204E+02  0.29095813922E+02  0.62499997692E+02  0.99999596214E+01 0.  0.
    3000022    2    5    5    0    0 -0.19377012226E+02 -0.23085463328E+02  0.10836587900E+02  0.32029694929E+02  0.25000017427E+00 0.  0.
        -13    1    4    4    0    0  0.12308267519E+02  0.87152475438E+01 -0.86788857921E+01  0.17400662995E+02  0.10500000000E+00 0.  1.
         13    1    4    4    0    0  0.78413373999E+01  0.56563923706E+01 -0.54993995167E+01  0.11123657983E+02  0.10500000000E+00 0. -1.
    3000001    1    5    5    0    0 -0.17918536335E+02 -0.16521684876E+02  0.18259226022E+02  0.30470302762E+02  0.10000000000E+01 0.  1.
        -13    1    6    6    0    0 -0.14675485339E+02 -0.17483991006E+02  0.82298341732E+01  0.24265222170E+02  0.10500000000E+00 0.  1.
         13    1    6    6    0    0 -0.47015268868E+01 -0.56014723223E+01  0.26067537267E+01  0.77644727597E+01  0.10500000000E+00 0. -1.
</event>
<event>
11    0  0.3462209E-009  0.9118800E+02  0.7816531E-02  0.1126479E+00
         25   -1    0    0    0    0  0.00000000000E+00  0.00000000000E+00  0.99999998245E-14  0.12500000000E+03  0.12500000000E+03 0.  0.
    3000001    1    3    3    0    0 -0.31112267183E+02  0.41255491494E+01  0.20055474335E+02  0.37258762404E+02  0.10000000000E+01 0. -1.
    1000022    2    1    0    0    0 -0.47273445046E+02  0.11919194793E+02  0.37807461984E+02  0.62500001395E+02  0.10000009081E+02 0.  0.
    3000022    2    3    3    0    0 -0.16161177863E+02  0.77936456435E+01  0.17751987649E+02  0.25241238991E+02  0.24999595475E+00 0.  0.
    1000022    2    1    0    0    0  0.47273445046E+02 -0.11919194793E+02 -0.37807461984E+02  0.62499998605E+02  0.99999916477E+01 0.  0.
    3000022    2    5    5    0    0  0.65780823097E+01 -0.76925174129E+00 -0.14310333326E+01  0.67803580848E+01  0.24996848812E+00 0.  0.
        -13    1    4    4    0    0 -0.87029923414E+01  0.41271160589E+01  0.94963607103E+01  0.13526531499E+02  0.10500000000E+00 0.  1.
         13    1    4    4    0    0 -0.74581855220E+01  0.36665295846E+01  0.82556269384E+01  0.11714707492E+02  0.10500000000E+00 0. -1.
    3000001    1    5    5    0    0  0.40695362737E+02 -0.11149943052E+02 -0.36376428651E+02  0.55719640520E+02  0.10000000000E+01 0. -1.
        -13    1    6    6    0    0  0.28968838872E+01 -0.27227691014E+00 -0.63079102996E+00  0.29790926966E+01  0.10500000000E+00 0. -1.
         13    1    6    6    0    0  0.36811984225E+01 -0.49697483115E+00 -0.80024230263E+00  0.38012653882E+01  0.10500000000E+00 0.  1.
</event>
<event>
11    0  0.3462209E-009  0.9118800E+02  0.7816531E-02  0.1126479E+00
         25   -1    0    0    0    0  0.00000000000E+00  0.00000000000E+00  0.99999998245E-14  0.12500000000E+03  0.12500000000E+03 0.  0.
    3000001    1    3    3    0    0  0.40438089213E+02 -0.12862928527E+02 -0.12307921606E+02  0.44194783898E+02  0.10000000000E+01 0. -1.
    1000022    2    1    0    0    0  0.58657636490E+02 -0.12959553684E+02 -0.14056350432E+02  0.62499994502E+02  0.99999987466E+01 0.  0.
    3000022    2    3    3    0    0  0.18219547277E+02 -0.96625157230E-01 -0.17484288257E+01  0.18305210604E+02  0.24998498663E+00 0.  0.
    1000022    2    1    0    0    0 -0.58657636490E+02  0.12959553684E+02  0.14056350432E+02  0.62500005498E+02  0.10000067474E+02 0.  0.
    3000022    2    5    5    0    0 -0.18119684920E+02 -0.60194311934E+00  0.46919954966E+01  0.18728658062E+02  0.24998785302E+00 0.  0.
        -13    1    4    4    0    0  0.12350600100E+02 -0.45616214665E-01 -0.12325472202E+01  0.12412477646E+02  0.10500000000E+00 0. -1.
         13    1    4    4    0    0  0.58689471771E+01 -0.51008942565E-01 -0.51588160547E+00  0.58927329577E+01  0.10500000000E+00 0.  1.
    3000001    1    5    5    0    0 -0.40537951570E+02  0.13561496804E+02  0.93643549355E+01  0.43771347436E+02  0.10000000000E+01 0.  1.
        -13    1    6    6    0    0 -0.10453384426E+02 -0.31441845488E+00  0.26485074840E+01  0.10788777586E+02  0.10500000000E+00 0. -1.
         13    1    6    6    0    0 -0.76663004947E+01 -0.28752466447E+00  0.20434880126E+01  0.79398804756E+01  0.10500000000E+00 0.  1.
</event>
<event>
11    0  0.3462209E-009  0.9118800E+02  0.7816531E-02  0.1126479E+00
         25   -1    0    0    0    0  0.00000000000E+00  0.00000000000E+00  0.99999998245E-14  0.12500000000E+03  0.12500000000E+03 0.  0.
    3000001    1    3    3    0    0 -0.26640410730E+02  0.82309082613E+01  0.10779240913E+02  0.29910723317E+02  0.10000000000E+01 0. -1.
    1000022    2    1    0    0    0 -0.49751977029E+02  0.24150188811E+02  0.27345183642E+02  0.62499999925E+02  0.10000004219E+02 0.  0.
    3000022    2    3    3    0    0 -0.23111566299E+02  0.15919280550E+02  0.16565942729E+02  0.32589276609E+02  0.25000274882E+00 0.  0.
    1000022    2    1    0    0    0  0.49751977029E+02 -0.24150188811E+02 -0.27345183642E+02  0.62500000075E+02  0.10000005151E+02 0.  0.
    3000022    2    5    5    0    0  0.26431029034E+02 -0.16551357692E+02 -0.11287829432E+02  0.33166615101E+02  0.25005349784E+00 0.  0.
        -13    1    4    4    0    0 -0.11878619356E+02  0.82487750126E+01  0.84908093693E+01  0.16770472735E+02  0.10500000000E+00 0. -1.
         13    1    4    4    0    0 -0.11232946943E+02  0.76705055371E+01  0.80751333592E+01  0.15818803874E+02  0.10500000000E+00 0.  1.
    3000001    1    5    5    0    0  0.23320947995E+02 -0.75988311191E+01 -0.16057354210E+02  0.29333384973E+02  0.10000000000E+01 0. -1.
        -13    1    6    6    0    0  0.10263340313E+02 -0.63666879562E+01 -0.44084641796E+01  0.12857544530E+02  0.10500000000E+00 0. -1.
         13    1    6    6    0    0  0.16167688721E+02 -0.10184669736E+02 -0.68793652520E+01  0.20309070572E+02  0.10500000000E+00 0.  1.
</event>
<event>
11    0  0.3462209E-009  0.9118800E+02  0.7816531E-02  0.1126479E+00
         25   -1    0    0    0    0  0.00000000000E+00  0.00000000000E+00  0.99999998245E-14  0.12500000000E+03  0.12500000000E+03 0.  0.
    3000001    1    3    3    0    0 -0.12899284465E+02 -0.27025205507E+02 -0.23067322006E+02  0.37813418477E+02  0.10000000000E+01 0. -1.
    1000022    2    1    0    0    0 -0.19218618097E+02 -0.39204257945E+02 -0.43588080179E+02  0.62500000064E+02  0.10000007586E+02 0.  0.
    3000022    2    3    3    0    0 -0.63193336323E+01 -0.12179052439E+02 -0.20520758173E+02  0.24686581587E+02  0.24999722649E+00 0.  0.
    1000022    2    1    0    0    0  0.19218618097E+02  0.39204257945E+02  0.43588080179E+02  0.62499999936E+02  0.10000006781E+02 0.  0.
    3000022    2    5    5    0    0  0.29975499569E+01  0.14337686524E+02  0.10443535778E+02  0.17991233951E+02  0.24999789046E+00 0.  0.
        -13    1    4    4    0    0 -0.18601854959E+01 -0.36037358356E+01 -0.61454551491E+01  0.73637521714E+01  0.10500000000E+00 0.  1.
         13    1    4    4    0    0 -0.44591481363E+01 -0.85753166032E+01 -0.14375303024E+02  0.17322829416E+02  0.10500000000E+00 0. -1.
    3000001    1    5    5    0    0  0.16221068140E+02  0.24866571422E+02  0.33144544402E+02  0.44508765984E+02  0.10000000000E+01 0. -1.
        -13    1    6    6    0    0  0.19168227684E+01  0.88710772694E+01  0.64681053496E+01  0.11145296463E+02  0.10500000000E+00 0.  1.
         13    1    6    6    0    0  0.10807271885E+01  0.54666092543E+01  0.39754304282E+01  0.68459374877E+01  0.10500000000E+00 0. -1.
</event>
<event>
11    0  0.3462209E-009  0.9118800E+02  0.7816531E-02  0.1126479E+00
         25   -1    0    0    0    0  0.00000000000E+00  0.00000000000E+00  0.99999998245E-14  0.12500000000E+03  0.12500000000E+03 0.  0.
    3000001    1    3    3    0    0 -0.11519965469E+02  0.20532081231E+02 -0.13760065987E+02  0.27287641526E+02  0.10000000000E+01 0. -1.
    1000022    2    1    0    0    0 -0.15905428261E+02  0.47941271881E+02 -0.35424593340E+02  0.62500001118E+02  0.10000006434E+02 0.  0.
    3000022    2    3    3    0    0 -0.43854627921E+01  0.27409190651E+02 -0.21664527354E+02  0.35212359593E+02  0.25001318806E+00 0.  0.
    1000022    2    1    0    0    0  0.15905428261E+02 -0.47941271881E+02  0.35424593340E+02  0.62499998882E+02  0.99999924562E+01 0.  0.
    3000022    2    5    5    0    0  0.27355966485E+01 -0.11602342975E+02  0.13655391953E+02  0.18128157047E+02  0.24999399482E+00 0.  0.
        -13    1    4    4    0    0 -0.15707629802E+01  0.10022261696E+02 -0.78554749086E+01  0.12830921124E+02  0.10500000000E+00 0.  1.
         13    1    4    4    0    0 -0.28146998119E+01  0.17386928955E+02 -0.13809052445E+02  0.22381438469E+02  0.10500000000E+00 0. -1.
    3000001    1    5    5    0    0  0.13169831613E+02 -0.36338928907E+02  0.21769201387E+02  0.44371841835E+02  0.10000000000E+01 0.  1.
        -13    1    6    6    0    0  0.17068899548E+01 -0.74042939445E+01  0.87712103619E+01  0.11605265975E+02  0.10500000000E+00 0. -1.
         13    1    6    6    0    0  0.10287066937E+01 -0.41980490303E+01  0.48841815910E+01  0.65228910719E+01  0.10500000000E+00 0.  1.
</event>
<event>
11    0  0.3462209E-009  0.9118800E+02  0.7816531E-02  0.1126479E+00
         25   -1    0    0    0    0  0.00000000000E+00  0.00000000000E+00  0.99999998245E-14  0.12500000000E+03  0.12500000000E+03 0.  0.
    3000001    1    3    3    0    0 -0.14192957808E+02  0.86822490032E+01 -0.11307344057E+02  0.20141438099E+02  0.10000000000E+01 0. -1.
    1000022    2    1    0    0    0 -0.42004895645E+02  0.14998932977E+02 -0.42624764837E+02  0.62499999555E+02  0.10000005920E+02 0.  0.
    3000022    2    3    3    0    0 -0.27811937838E+02  0.63166839734E+01 -0.31317420780E+02  0.42358561456E+02  0.25000323299E+00 0.  0.
    1000022    2    1    0    0    0  0.42004895645E+02 -0.14998932977E+02  0.42624764837E+02  0.62500000445E+02  0.10000011481E+02 0.  0.
    3000022    2    5    5    0    0  0.23335637034E+02 -0.30869187795E+01  0.22167951040E+02  0.32335144568E+02  0.24999524277E+00 0.  0.
        -13    1    4    4    0    0 -0.70941282395E+01  0.16137507733E+01 -0.80326860378E+01  0.10838169450E+02  0.10500000000E+00 0.  1.
         13    1    4    4    0    0 -0.20717809598E+02  0.47029332001E+01 -0.23284734742E+02  0.31520392007E+02  0.10500000000E+00 0. -1.
    3000001    1    5    5    0    0  0.18669258611E+02 -0.11912014197E+02  0.20456813797E+02  0.30164855876E+02  0.10000000000E+01 0.  1.
        -13    1    6    6    0    0  0.10441369922E+02 -0.13645482380E+01  0.98284488041E+01  0.14404639136E+02  0.10500000000E+00 0. -1.
         13    1    6    6    0    0  0.12894267111E+02 -0.17223705415E+01  0.12339502236E+02  0.17930505432E+02  0.10500000000E+00 0.  1.
</event>
<event>
11    0  0.3462209E-009  0.9118800E+02  0.7816531E-02  0.1126479E+00
         25   -1    0    0    0    0  0.00000000000E+00  0.00000000000E+00  0.99999998245E-14  0.12500000000E+03  0.12500000000E+03 0.  0.
    3000001    1    3    3    0    0  0.10315997288E+02 -0.15710446106E+02  0.14790104605E+02  0.23937107410E+02  0.10000000000E+01 0. -1.
    1000022    2    1    0    0    0  0.15100496945E+02 -0.42017402729E+02  0.42576554280E+02  0.62500000091E+02  0.99999948474E+01 0.  0.
    3000022    2    3    3    0    0  0.47844996563E+01 -0.26306956623E+02  0.27786449674E+02  0.38562892681E+02  0.25000541714E+00 0.  0.
    1000022    2    1    0    0    0 -0.15100496945E+02  0.42017402729E+02 -0.42576554280E+02  0.62499999909E+02  0.99999937091E+01 0.  0.
    3000022    2    5    5    0    0 -0.11594446774E+02  0.34000969883E+02 -0.38917608649E+02  0.52963571515E+02  0.24999144793E+00 0.  0.
        -13    1    4    4    0    0  0.20016757656E+01 -0.10693092768E+02  0.11349121679E+02  0.15721403458E+02  0.10500000000E+00 0. -1.
         13    1    4    4    0    0  0.27828238908E+01 -0.15613863855E+02  0.16437327995E+02  0.22841489223E+02  0.10500000000E+00 0.  1.
    3000001    1    5    5    0    0 -0.35060501706E+01  0.80164328461E+01 -0.36589456309E+01  0.95364283936E+01  0.10000000000E+01 0.  1.
        -13    1    6    6    0    0 -0.88305258145E+01  0.25926995787E+02 -0.29692359258E+02  0.40395971581E+02  0.10500000000E+00 0. -1.
         13    1    6    6    0    0 -0.27639209596E+01  0.80739740965E+01 -0.92252493906E+01  0.12567599934E+02  0.10500000000E+00 0.  1.
</event>
<event>
11    0  0.3462209E-009  0.9118800E+02  0.7816531E-02  0.1126479E+00
         25   -1    0    0    0    0  0.00000000000E+00  0.00000000000E+00  0.99999998245E-14  0.12500000000E+03  0.12500000000E+03 0.  0.
    3000001    1    3    3    0    0 -0.62403627055E+01  0.26693268757E+02  0.64824185660E+01  0.28186778356E+02  0.10000000000E+01 0. -1.
    1000022    2    1    0    0    0 -0.49138023817E+01  0.60928823772E+02  0.83536432911E+01  0.62499997738E+02  0.99999670437E+01 0.  0.
    3000022    2    3    3    0    0  0.13265603238E+01  0.34235555016E+02  0.18712247251E+01  0.34313219382E+02  0.25010571983E+00 0.  0.
    1000022    2    1    0    0    0  0.49138023817E+01 -0.60928823772E+02 -0.83536432911E+01  0.62500002262E+02  0.99999953183E+01 0.  0.
    3000022    2    5    5    0    0  0.12373571055E+01 -0.39317253146E+02 -0.96936634969E+01  0.40514282147E+02  0.24999671967E+00 0.  0.
        -13    1    4    4    0    0  0.54735688261E+00  0.15835189869E+02  0.85327918636E+00  0.15867953495E+02  0.10500000000E+00 0. -1.
         13    1    4    4    0    0  0.77920344119E+00  0.18400365147E+02  0.10179455387E+01  0.18445265887E+02  0.10500000000E+00 0.  1.
    3000001    1    5    5    0    0  0.36764452761E+01 -0.21611570627E+02  0.13400202058E+01  0.21985720115E+02  0.10000000000E+01 0.  1.
        -13    1    6    6    0    0  0.28017937824E+00 -0.94400769989E+01 -0.23175411070E+01  0.97249974813E+01  0.10500000000E+00 0.  1.
         13    1    6    6    0    0  0.95717772729E+00 -0.29877176147E+02 -0.73761223898E+01  0.30789284665E+02  0.10500000000E+00 0. -1.
</event>
<event>
11    0  0.3462209E-009  0.9118800E+02  0.7816531E-02  0.1126479E+00
         25   -1    0    0    0    0  0.00000000000E+00  0.00000000000E+00  0.99999998245E-14  0.12500000000E+03  0.12500000000E+03 0.  0.
    3000001    1    3    3    0    0  0.25547261989E+02 -0.27450776086E+02 -0.16044893497E+01  0.37547064984E+02  0.10000000000E+01 0.  1.
    1000022    2    1    0    0    0  0.41882765910E+02 -0.44053364902E+02 -0.10553896760E+02  0.62500001430E+02  0.10000020127E+02 0.  0.
    3000022    2    3    3    0    0  0.16335503921E+02 -0.16602588816E+02 -0.89494074107E+01  0.24952936446E+02  0.25000109289E+00 0.  0.
    1000022    2    1    0    0    0 -0.41882765910E+02  0.44053364902E+02  0.10553896760E+02  0.62499998570E+02  0.10000002249E+02 0.  0.
    3000022    2    5    5    0    0 -0.35823975761E+02  0.41823773107E+02  0.94316139652E+01  0.55871308178E+02  0.24999859047E+00 0.  0.
        -13    1    4    4    0    0  0.12475132005E+02 -0.12698735091E+02 -0.68323725554E+01  0.19067751079E+02  0.10500000000E+00 0.  1.
         13    1    4    4    0    0  0.38603719158E+01 -0.39038537248E+01 -0.21170348552E+01  0.58851853676E+01  0.10500000000E+00 0. -1.
    3000001    1    5    5    0    0 -0.60587901487E+01  0.22295917944E+01  0.11222827951E+01  0.66286903916E+01  0.10000000000E+01 0. -1.
        -13    1    6    6    0    0 -0.19700369844E+02  0.22978607532E+02  0.51176931378E+01  0.30697276494E+02  0.10500000000E+00 0. -1.
         13    1    6    6    0    0 -0.16123605917E+02  0.18845165576E+02  0.43139208275E+01  0.25174031684E+02  0.10500000000E+00 0.  1.
</event>
<event>
11    0  0.3462209E-009  0.9118800E+02  0.7816531E-02  0.1126479E+00
         25   -1    0    0    0    0  0.00000000000E+00  0.00000000000E+00  0.99999998245E-14  0.12500000000E+03  0.12500000000E+03 0.  0.
    3000001    1    3    3    0    0  0.13325343338E+02  0.33132574769E+02 -0.58115617470E+01  0.36195393848E+02  0.10000000000E+01 0. -1.
    1000022    2    1    0    0    0  0.29971937964E+02  0.52675998565E+02 -0.11540023194E+02  0.62500000475E+02  0.10000001696E+02 0.  0.
    3000022    2    3    3    0    0  0.16646594627E+02  0.19543423796E+02 -0.57284614472E+01  0.26304606627E+02  0.25006581908E+00 0.  0.
    1000022    2    1    0    0    0 -0.29971937964E+02 -0.52675998565E+02  0.11540023194E+02  0.62499999525E+02  0.99999957577E+01 0.  0.
    3000022    2    5    5    0    0 -0.18980616861E+02 -0.33826165968E+02  0.25276816307E+01  0.38870618894E+02  0.25003658311E+00 0.  0.
        -13    1    4    4    0    0  0.10050151108E+02  0.11779914762E+02 -0.35182326889E+01  0.15879575414E+02  0.10500000000E+00 0.  1.
         13    1    4    4    0    0  0.65964435185E+01  0.77635090343E+01 -0.22102287584E+01  0.10425031213E+02  0.10500000000E+00 0. -1.
    3000001    1    5    5    0    0 -0.10991321103E+02 -0.18849832597E+02  0.90123415635E+01  0.23629380631E+02  0.10000000000E+01 0. -1.
        -13    1    6    6    0    0 -0.75240424680E+01 -0.13293731878E+02  0.96851557869E+00  0.15306324501E+02  0.10500000000E+00 0.  1.
         13    1    6    6    0    0 -0.11456574393E+02 -0.20532434090E+02  0.15591660521E+01  0.23564294394E+02  0.10500000000E+00 0. -1.
</event>
<event>
11    0  0.3462209E-009  0.9118800E+02  0.7816531E-02  0.1126479E+00
         25   -1    0    0    0    0  0.00000000000E+00  0.00000000000E+00  0.99999998245E-14  0.12500000000E+03  0.12500000000E+03 0.  0.
    3000001    1    3    3    0    0  0.43933080313E+02  0.93015347607E+01  0.75319933739E+01  0.45545197539E+02  0.10000000000E+01 0.  1.
    1000022    2    1    0    0    0  0.57695103972E+02  0.16489136752E+02  0.14339925804E+02  0.62500001097E+02  0.10000000594E+02 0.  0.
    3000022    2    3    3    0    0  0.13762023660E+02  0.71876019912E+01  0.68079324303E+01  0.16954803558E+02  0.25000426678E+00 0.  0.
    1000022    2    1    0    0    0 -0.57695103972E+02 -0.16489136752E+02 -0.14339925804E+02  0.62499998903E+02  0.99999868821E+01 0.  0.
    3000022    2    5    5    0    0 -0.20983883072E+02 -0.82489372598E+01 -0.10090534965E+01  0.22570977075E+02  0.25000495188E+00 0.  0.
        -13    1    4    4    0    0  0.10469670247E+02  0.54472440781E+01  0.51806066678E+01  0.12889382203E+02  0.10500000000E+00 0. -1.
         13    1    4    4    0    0  0.32923534125E+01  0.17403579132E+01  0.16273257625E+01  0.40654213553E+01  0.10500000000E+00 0.  1.
    3000001    1    5    5    0    0 -0.36711220900E+02 -0.82401994922E+01 -0.13330872308E+02  0.39929021828E+02  0.10000000000E+01 0.  1.
        -13    1    6    6    0    0 -0.13262151995E+02 -0.52743270179E+01 -0.65565553839E+00  0.14287900833E+02  0.10500000000E+00 0.  1.
         13    1    6    6    0    0 -0.77217310772E+01 -0.29746102418E+01 -0.35339795808E+00  0.82830762423E+01  0.10500000000E+00 0. -1.
</event>
<event>
11    0  0.3462209E-009  0.9118800E+02  0.7816531E-02  0.1126479E+00
         25   -1    0    0    0    0  0.00000000000E+00  0.00000000000E+00  0.99999998245E-14  0.12500000000E+03  0.12500000000E+03 0.  0.
    3000001    1    3    3    0    0 -0.25893932672E+01 -0.47850121094E+01 -0.40418923710E+01  0.68511453289E+01  0.10000000000E+01 0. -1.
    1000022    2    1    0    0    0 -0.18816167557E+02 -0.57116318696E+02 -0.13781429192E+02  0.62499999104E+02  0.10000003725E+02 0.  0.
    3000022    2    3    3    0    0 -0.16226774290E+02 -0.52331306587E+02 -0.97395368213E+01  0.55648853775E+02  0.24999214864E+00 0.  0.
    1000022    2    1    0    0    0  0.18816167557E+02  0.57116318696E+02  0.13781429192E+02  0.62500000896E+02  0.10000014925E+02 0.  0.
    3000022    2    5    5    0    0  0.19804834300E+02  0.51752890532E+02  0.12718135272E+02  0.56854257583E+02  0.25000079421E+00 0.  0.
        -13    1    4    4    0    0 -0.90488032564E+01 -0.29268300180E+02 -0.55078500666E+01  0.31126542904E+02  0.10500000000E+00 0.  1.
         13    1    4    4    0    0 -0.71779710337E+01 -0.23063006407E+02 -0.42316867547E+01  0.24522310871E+02  0.10500000000E+00 0. -1.
    3000001    1    5    5    0    0 -0.98866674314E+00  0.53634281640E+01  0.10632939204E+01  0.56457433134E+01  0.10000000000E+01 0.  1.
        -13    1    6    6    0    0  0.13333919797E+02  0.34782449806E+02  0.85006754794E+01  0.38208438076E+02  0.10500000000E+00 0.  1.
         13    1    6    6    0    0  0.64709145036E+01  0.16970440726E+02  0.42174597925E+01  0.18645819506E+02  0.10500000000E+00 0. -1.
</event>
<event>
11    0  0.3462209E-009  0.9118800E+02  0.7816531E-02  0.1126479E+00
         25   -1    0    0    0    0  0.00000000000E+00  0.00000000000E+00  0.99999998245E-14  0.12500000000E+03  0.12500000000E+03 0.  0.
    3000001    1    3    3    0    0 -0.36294928869E+02  0.40835939798E+02  0.30447479638E+00  0.54644199562E+02  0.10000000000E+01 0.  1.
    1000022    2    1    0    0    0 -0.40720590991E+02  0.46175722870E+02  0.39856817921E+01  0.62499997063E+02  0.10000003014E+02 0.  0.
    3000022    2    3    3    0    0 -0.44256621214E+01  0.53397830720E+01  0.36812069957E+01  0.78557975011E+01  0.25000193078E+00 0.  0.
    1000022    2    1    0    0    0  0.40720590991E+02 -0.46175722870E+02 -0.39856817921E+01  0.62500002937E+02  0.10000039731E+02 0.  0.
    3000022    2    5    5    0    0  0.37644429168E+02 -0.38309727839E+02 -0.49619688245E+01  0.53939057560E+02  0.25000264030E+00 0.  0.
        -13    1    4    4    0    0 -0.26076608804E+01  0.32156398252E+01  0.21455924293E+01  0.46642069664E+01  0.10500000000E+00 0. -1.
         13    1    4    4    0    0 -0.18180012409E+01  0.21241432468E+01  0.15356145665E+01  0.31915905348E+01  0.10500000000E+00 0.  1.
    3000001    1    5    5    0    0  0.30761618222E+01 -0.78659950309E+01  0.97628703242E+00  0.85609453772E+01  0.10000000000E+01 0. -1.
        -13    1    6    6    0    0  0.20168679961E+02 -0.20449633721E+02 -0.26117734687E+01  0.28840866081E+02  0.10500000000E+00 0.  1.
         13    1    6    6    0    0  0.17475749208E+02 -0.17860094119E+02 -0.23501953558E+01  0.25098191479E+02  0.10500000000E+00 0. -1.
</event>
<event>
11    0  0.3462209E-009  0.9118800E+02  0.7816531E-02  0.1126479E+00
         25   -1    0    0    0    0  0.00000000000E+00  0.00000000000E+00  0.99999998245E-14  0.12500000000E+03  0.12500000000E+03 0.  0.
    3000001    1    3    3    0    0 -0.42577181158E+00 -0.11904473615E+01  0.94521931656E+01  0.95886600834E+01  0.10000000000E+01 0.  1.
    1000022    2    1    0    0    0  0.18193025720E+02  0.52827554450E+00  0.58949000078E+02  0.62500001313E+02  0.10000014703E+02 0.  0.
    3000022    2    3    3    0    0  0.18618797531E+02  0.17187229060E+01  0.49496806912E+02  0.52911341229E+02  0.25001252306E+00 0.  0.
    1000022    2    1    0    0    0 -0.18193025720E+02 -0.52827554450E+00 -0.58949000078E+02  0.62499998687E+02  0.99999982928E+01 0.  0.
    3000022    2    5    5    0    0 -0.15003504011E+02 -0.14945076429E+01 -0.32558988337E+02  0.35881595789E+02  0.25001821505E+00 0.  0.
        -13    1    4    4    0    0  0.51678567241E+01  0.44913248045E+00  0.13656980208E+02  0.14609332514E+02  0.10500000000E+00 0.  1.
         13    1    4    4    0    0  0.13450940807E+02  0.12695904256E+01  0.35839826704E+02  0.38302008715E+02  0.10500000000E+00 0. -1.
    3000001    1    5    5    0    0 -0.31895217086E+01  0.96623209837E+00 -0.26390011740E+02  0.26618402898E+02  0.10000000000E+01 0. -1.
        -13    1    6    6    0    0 -0.68031766207E+01 -0.61060586846E+00 -0.14741683485E+02  0.16247593934E+02  0.10500000000E+00 0.  1.
         13    1    6    6    0    0 -0.82003273904E+01 -0.88390177441E+00 -0.17817304852E+02  0.19634001855E+02  0.10500000000E+00 0. -1.
</event>
<event>
11    0  0.3462209E-009  0.9118800E+02  0.7816531E-02  0.1126479E+00
         25   -1    0    0    0    0  0.00000000000E+00  0.00000000000E+00  0.99999998245E-14  0.12500000000E+03  0.12500000000E+03 0.  0.
    3000001    1    3    3    0    0 -0.13957999510E+02  0.15653851692E+01  0.80162699935E+01  0.16202986319E+02  0.10000000000E+01 0. -1.
    1000022    2    1    0    0    0 -0.47761447583E+02 -0.74755770170E+01  0.38330273815E+02  0.62499999548E+02  0.99999962886E+01 0.  0.
    3000022    2    3    3    0    0 -0.33803448073E+02 -0.90409621862E+01  0.30314003822E+02  0.46297013229E+02  0.25001463393E+00 0.  0.
    1000022    2    1    0    0    0  0.47761447583E+02  0.74755770170E+01 -0.38330273815E+02  0.62500000452E+02  0.10000001937E+02 0.  0.
    3000022    2    5    5    0    0  0.16143829216E+02  0.60765191814E+01 -0.95914160336E+01  0.19738416049E+02  0.24999894877E+00 0.  0.
        -13    1    4    4    0    0 -0.13749778963E+02 -0.36948485292E+01  0.12415781056E+02  0.18891028861E+02  0.10500000000E+00 0.  1.
         13    1    4    4    0    0 -0.20053669110E+02 -0.53461136571E+01  0.17898222766E+02  0.27405984368E+02  0.10500000000E+00 0. -1.
    3000001    1    5    5    0    0  0.31617618367E+02  0.13990578356E+01 -0.28738857782E+02  0.42761584403E+02  0.10000000000E+01 0.  1.
        -13    1    6    6    0    0  0.66026678471E+01  0.25410954329E+01 -0.39761464864E+01  0.81162278541E+01  0.10500000000E+00 0. -1.
         13    1    6    6    0    0  0.95411613693E+01  0.35354237485E+01 -0.56152695471E+01  0.11622188195E+02  0.10500000000E+00 0.  1.
</event>
<event>
11    0  0.3462209E-009  0.9118800E+02  0.7816531E-02  0.1126479E+00
         25   -1    0    0    0    0  0.00000000000E+00  0.00000000000E+00  0.99999998245E-14  0.12500000000E+03  0.12500000000E+03 0.  0.
    3000001    1    3    3    0    0 -0.15594920969E+02 -0.19895851195E+02 -0.17905538308E+02  0.30994431062E+02  0.10000000000E+01 0. -1.
    1000022    2    1    0    0    0 -0.37318816446E+02 -0.32127863415E+02 -0.37166601342E+02  0.62499999996E+02  0.10000003781E+02 0.  0.
    3000022    2    3    3    0    0 -0.21723895477E+02 -0.12232012220E+02 -0.19261063034E+02  0.31505568933E+02  0.25013388566E+00 0.  0.
    1000022    2    1    0    0    0  0.37318816446E+02  0.32127863415E+02  0.37166601342E+02  0.62500000004E+02  0.10000003835E+02 0.  0.
    3000022    2    5    5    0    0  0.23215717869E+02  0.22180687441E+02  0.29446769952E+02  0.43567501595E+02  0.24996619650E+00 0.  0.
        -13    1    4    4    0    0 -0.12114059656E+02 -0.67930301294E+01 -0.10808045196E+02  0.17598879670E+02  0.10500000000E+00 0.  1.
         13    1    4    4    0    0 -0.96098358205E+01 -0.54389820905E+01 -0.84530178385E+01  0.13906689263E+02  0.10500000000E+00 0. -1.
    3000001    1    5    5    0    0  0.14103098577E+02  0.99471759734E+01  0.77198313895E+01  0.18932498409E+02  0.10000000000E+01 0. -1.
        -13    1    6    6    0    0  0.10242225076E+02  0.97129311171E+01  0.12999694129E+02  0.19189770135E+02  0.10500000000E+00 0.  1.
         13    1    6    6    0    0  0.12973492793E+02  0.12467756324E+02  0.16447075824E+02  0.24377731460E+02  0.10500000000E+00 0. -1.
</event>
<event>
11    0  0.3462209E-009  0.9118800E+02  0.7816531E-02  0.1126479E+00
         25   -1    0    0    0    0  0.00000000000E+00  0.00000000000E+00  0.99999998245E-14  0.12500000000E+03  0.12500000000E+03 0.  0.
    3000001    1    3    3    0    0  0.83932223603E+01 -0.11499157582E+02  0.12316197065E+02  0.18851140996E+02  0.10000000000E+01 0.  1.
    1000022    2    1    0    0    0  0.34810206053E+02 -0.42349900583E+02  0.28301674398E+02  0.62500005096E+02  0.10000066920E+02 0.  0.
    3000022    2    3    3    0    0  0.26416983693E+02 -0.30850743001E+02  0.15985477333E+02  0.43648864101E+02  0.24996108739E+00 0.  0.
    1000022    2    1    0    0    0 -0.34810206053E+02  0.42349900583E+02 -0.28301674398E+02  0.62499994904E+02  0.10000003217E+02 0.  0.
    3000022    2    5    5    0    0 -0.25018877713E+02  0.24490470581E+02 -0.21077576694E+02  0.40866295768E+02  0.24999835938E+00 0.  0.
        -13    1    4    4    0    0  0.95064766519E+01 -0.11026341053E+02  0.57626351963E+01  0.15657978310E+02  0.10500000000E+00 0. -1.
         13    1    4    4    0    0  0.16910507041E+02 -0.19824401948E+02  0.10222842137E+02  0.27990885790E+02  0.10500000000E+00 0.  1.
    3000001    1    5    5    0    0 -0.97913283402E+01  0.17859430002E+02 -0.72240977039E+01  0.21633699136E+02  0.10000000000E+01 0.  1.
        -13    1    6    6    0    0 -0.90570823106E+01  0.89471495686E+01 -0.76735624977E+01  0.14865288823E+02  0.10500000000E+00 0.  1.
         13    1    6    6    0    0 -0.15961795403E+02  0.15543321012E+02 -0.13404014196E+02  0.26001006945E+02  0.10500000000E+00 0. -1.
</event>
<event>
11    0  0.3462209E-009  0.9118800E+02  0.7816531E-02  0.1126479E+00
         25   -1    0    0    0    0  0.00000000000E+00  0.00000000000E+00  0.99999998245E-14  0.12500000000E+03  0.12500000000E+03 0.  0.
    3000001    1    3    3    0    0 -0.44269906931E+02 -0.96863243089E+00 -0.21882182492E+02  0.49402356412E+02  0.10000000000E+01 0.  1.
    1000022    2    1    0    0    0 -0.53109448336E+02 -0.35448276894E+01 -0.31194082599E+02  0.62499999440E+02  0.99999917420E+01 0.  0.
    3000022    2    3    3    0    0 -0.88395414056E+01 -0.25761952586E+01 -0.93119001072E+01  0.13097643028E+02  0.24999001607E+00 0.  0.
    1000022    2    1    0    0    0  0.53109448336E+02  0.35448276894E+01  0.31194082599E+02  0.62500000560E+02  0.99999987441E+01 0.  0.
    3000022    2    5    5    0    0  0.52587314065E+01 -0.25587130552E+01  0.25122164539E+01  0.63698503208E+01  0.24998618726E+00 0.  0.
        -13    1    4    4    0    0 -0.22368390433E+01 -0.67685044264E+00 -0.23871499702E+01  0.33423173708E+01  0.10500000000E+00 0. -1.
         13    1    4    4    0    0 -0.66027023623E+01 -0.18993448159E+01 -0.69247501370E+01  0.97553256570E+01  0.10500000000E+00 0.  1.
    3000001    1    5    5    0    0  0.47850716930E+02  0.61035407446E+01  0.28681866145E+02  0.56130150239E+02  0.10000000000E+01 0.  1.
        -13    1    6    6    0    0  0.31860582196E+01 -0.15111960774E+01  0.15708506445E+01  0.38617712659E+01  0.10500000000E+00 0.  1.
         13    1    6    6    0    0  0.20726731870E+01 -0.10475169778E+01  0.94136580943E+00  0.25080790550E+01  0.10500000000E+00 0. -1.
</event>
<event>
11    0  0.3462209E-009  0.9118800E+02  0.7816531E-02  0.1126479E+00
         25   -1    0    0    0    0  0.00000000000E+00  0.00000000000E+00  0.99999998245E-14  0.12500000000E+03  0.12500000000E+03 0.  0.
    3000001    1    3    3    0    0  0.26618721319E+01 -0.17054373756E+02  0.21063961928E+02  0.27251196663E+02  0.10000000000E+01 0. -1.
    1000022    2    1    0    0    0  0.34404450616E+01 -0.29759025510E+02  0.53933419857E+02  0.62499999724E+02  0.99999963251E+01 0.  0.
    3000022    2    3    3    0    0  0.77857292966E+00 -0.12704651754E+02  0.32869457929E+02  0.35248803061E+02  0.25000139935E+00 0.  0.
    1000022    2    1    0    0    0 -0.34404450616E+01  0.29759025510E+02 -0.53933419857E+02  0.62500000276E+02  0.99999997725E+01 0.  0.
    3000022    2    5    5    0    0 -0.58868698607E+01  0.11948760825E+02 -0.19086117278E+02  0.23275964029E+02  0.25001343106E+00 0.  0.
        -13    1    4    4    0    0  0.20969150256E+00 -0.33070902301E+01  0.86461461715E+01  0.92600045861E+01  0.10500000000E+00 0.  1.
         13    1    4    4    0    0  0.56888142710E+00 -0.93975615238E+01  0.24223311757E+02  0.25988798475E+02  0.10500000000E+00 0. -1.
    3000001    1    5    5    0    0  0.24464247991E+01  0.17810264684E+02 -0.34847302579E+02  0.39224036246E+02  0.10000000000E+01 0.  1.
        -13    1    6    6    0    0 -0.28401153329E+01  0.56621267770E+01 -0.91639821618E+01  0.11140714914E+02  0.10500000000E+00 0.  1.
         13    1    6    6    0    0 -0.30467545278E+01  0.62866340485E+01 -0.99221351165E+01  0.12135249115E+02  0.10500000000E+00 0. -1.
</event>
<event>
11    0  0.3462209E-009  0.9118800E+02  0.7816531E-02  0.1126479E+00
         25   -1    0    0    0    0  0.00000000000E+00  0.00000000000E+00  0.99999998245E-14  0.12500000000E+03  0.12500000000E+03 0.  0.
    3000001    1    3    3    0    0  0.14593602198E+02  0.17771675139E+02  0.42407320573E+02  0.48251284963E+02  0.10000000000E+01 0. -1.
    1000022    2    1    0    0    0  0.23506431826E+02  0.20922240004E+02  0.53065595280E+02  0.62500001101E+02  0.10000013564E+02 0.  0.
    3000022    2    3    3    0    0  0.89128296283E+01  0.31505648646E+01  0.10658274707E+02  0.14248716138E+02  0.25000184865E+00 0.  0.
    1000022    2    1    0    0    0 -0.23506431826E+02 -0.20922240004E+02 -0.53065595280E+02  0.62499998899E+02  0.99999997981E+01 0.  0.
    3000022    2    5    5    0    0 -0.19918169931E+02 -0.11984535519E+02 -0.39500765393E+02  0.45833781729E+02  0.24999188764E+00 0.  0.
        -13    1    4    4    0    0  0.41068582604E+01  0.15229951713E+01  0.49378089673E+01  0.66014226846E+01  0.10500000000E+00 0.  1.
         13    1    4    4    0    0  0.48059713678E+01  0.16275696933E+01  0.57204657393E+01  0.76472934539E+01  0.10500000000E+00 0. -1.
    3000001    1    5    5    0    0 -0.35882618950E+01 -0.89377044852E+01 -0.13564829887E+02  0.16666217170E+02  0.10000000000E+01 0. -1.
        -13    1    6    6    0    0 -0.67150401825E+01 -0.40776486555E+01 -0.13437136551E+02  0.15565559640E+02  0.10500000000E+00 0. -1.
         13    1    6    6    0    0 -0.13203129748E+02 -0.79068868634E+01 -0.26063628842E+02  0.30268222089E+02  0.10500000000E+00 0.  1.
</event>
<event>
11    0  0.3462209E-009  0.9118800E+02  0.7816531E-02  0.1126479E+00
         25   -1    0    0    0    0  0.00000000000E+00  0.00000000000E+00  0.99999998245E-14  0.12500000000E+03  0.12500000000E+03 0.  0.
    3000001    1    3    3    0    0  0.83269179140E+01  0.42529836001E+01 -0.19586669354E+02  0.21727011940E+02  0.10000000000E+01 0.  1.
    1000022    2    1    0    0    0  0.20147856521E+02  0.24693263432E+02 -0.52825718921E+02  0.62499999873E+02  0.10000001168E+02 0.  0.
    3000022    2    3    3    0    0  0.11820938607E+02  0.20440279832E+02 -0.33239049567E+02  0.40772987933E+02  0.24999952743E+00 0.  0.
    1000022    2    1    0    0    0 -0.20147856521E+02 -0.24693263432E+02  0.52825718921E+02  0.62500000127E+02  0.10000002752E+02 0.  0.
    3000022    2    5    5    0    0 -0.47323077407E+01 -0.96789072133E+01  0.10704263129E+02  0.15189461397E+02  0.25001401322E+00 0.  0.
        -13    1    4    4    0    0  0.63832148533E+01  0.11024392968E+02 -0.17817300089E+02  0.21903193367E+02  0.10500000000E+00 0. -1.
         13    1    4    4    0    0  0.54377237534E+01  0.94158868638E+01 -0.15421749477E+02  0.18869794567E+02  0.10500000000E+00 0.  1.
    3000001    1    5    5    0    0 -0.15415548780E+02 -0.15014356219E+02  0.42121455792E+02  0.47310538729E+02  0.10000000000E+01 0. -1.
        -13    1    6    6    0    0 -0.33566613223E+01 -0.68560484262E+01  0.76440601799E+01  0.10803483526E+02  0.10500000000E+00 0.  1.
         13    1    6    6    0    0 -0.13756464184E+01 -0.28228587871E+01  0.30602029493E+01  0.43859778718E+01  0.10500000000E+00 0. -1.
</event>
<event>
11    0  0.3462209E-009  0.9118800E+02  0.7816531E-02  0.1126479E+00
         25   -1    0    0    0    0  0.00000000000E+00  0.00000000000E+00  0.99999998245E-14  0.12500000000E+03  0.12500000000E+03 0.  0.
    3000001    1    3    3    0    0  0.24802709307E+02  0.64322529664E+01 -0.35235242625E+02  0.43578327068E+02  0.10000000000E+01 0.  1.
    1000022    2    1    0    0    0  0.39772666517E+02  0.58987573228E+01 -0.46793053338E+02  0.62500000541E+02  0.99999943563E+01 0.  0.
    3000022    2    3    3    0    0  0.14969957210E+02 -0.53349564355E+00 -0.11557810713E+02  0.18921673473E+02  0.25000416909E+00 0.  0.
    1000022    2    1    0    0    0 -0.39772666517E+02 -0.58987573228E+01  0.46793053338E+02  0.62499999459E+02  0.99999875928E+01 0.  0.
    3000022    2    5    5    0    0 -0.35272903719E+02 -0.64050341802E+01  0.44983945875E+02  0.57522344257E+02  0.25000549540E+00 0.  0.
        -13    1    4    4    0    0  0.56739876062E+01 -0.20002688582E+00 -0.43043982161E+01  0.71255185856E+01  0.10500000000E+00 0.  1.
         13    1    4    4    0    0  0.92959696036E+01 -0.33346875773E+00 -0.72534124971E+01  0.11796154888E+02  0.10500000000E+00 0. -1.
    3000001    1    5    5    0    0 -0.44997627981E+01  0.50627685739E+00  0.18091074631E+01  0.49776552018E+01  0.10000000000E+01 0.  1.
        -13    1    6    6    0    0 -0.11352479595E+02 -0.20655144809E+01  0.14561088986E+02  0.18579060269E+02  0.10500000000E+00 0. -1.
         13    1    6    6    0    0 -0.23920424124E+02 -0.43395196993E+01  0.30422856889E+02  0.38943283988E+02  0.10500000000E+00 0.  1.
</event>
<event>
11    0  0.3462209E-009  0.9118800E+02  0.7816531E-02  0.1126479E+00
         25   -1    0    0    0    0  0.00000000000E+00  0.00000000000E+00  0.99999998245E-14  0.12500000000E+03  0.12500000000E+03 0.  0.
    3000001    1    3    3    0    0  0.98724162934E+01  0.11874734243E+02 -0.16435907353E+02  0.22574608907E+02  0.10000000000E+01 0. -1.
    1000022    2    1    0    0    0  0.21076987368E+02  0.23963424811E+02 -0.52799288917E+02  0.62500000360E+02  0.10000000487E+02 0.  0.
    3000022    2    3    3    0    0  0.11204571075E+02  0.12088690568E+02 -0.36363381564E+02  0.39925391453E+02  0.25002256466E+00 0.  0.
    1000022    2    1    0    0    0 -0.21076987368E+02 -0.23963424811E+02  0.52799288917E+02  0.62499999640E+02  0.99999959809E+01 0.  0.
    3000022    2    5    5    0    0 -0.11363047144E+02 -0.16063186724E+02  0.39938626840E+02  0.44523041455E+02  0.24999681909E+00 0.  0.
        -13    1    4    4    0    0  0.35036718917E+01  0.38526337041E+01 -0.11471477014E+02  0.12598583772E+02  0.10500000000E+00 0.  1.
         13    1    4    4    0    0  0.77008991829E+01  0.82360568639E+01 -0.24891904551E+02  0.27326807681E+02  0.10500000000E+00 0. -1.
    3000001    1    5    5    0    0 -0.97139402240E+01 -0.79002380874E+01  0.12860662076E+02  0.17976958184E+02  0.10000000000E+01 0. -1.
        -13    1    6    6    0    0 -0.82886329777E+01 -0.11772405587E+02  0.29189073250E+02  0.32546950582E+02  0.10500000000E+00 0. -1.
         13    1    6    6    0    0 -0.30744141663E+01 -0.42907811367E+01  0.10749553590E+02  0.11976090874E+02  0.10500000000E+00 0.  1.
</event>
<event>
11    0  0.3462209E-009  0.9118800E+02  0.7816531E-02  0.1126479E+00
         25   -1    0    0    0    0  0.00000000000E+00  0.00000000000E+00  0.99999998245E-14  0.12500000000E+03  0.12500000000E+03 0.  0.
    3000001    1    3    3    0    0  0.11027964886E+00  0.14230859505E+00  0.10334382994E+01  0.14492784604E+01  0.10000000000E+01 0. -1.
    1000022    2    1    0    0    0 -0.43823907741E+02  0.49158382194E+00  0.43422037837E+02  0.62500000688E+02  0.10000008585E+02 0.  0.
    3000022    2    3    3    0    0 -0.43934187390E+02  0.34927522689E+00  0.42388599538E+02  0.61050722228E+02  0.24999785701E+00 0.  0.
    1000022    2    1    0    0    0  0.43823907741E+02 -0.49158382194E+00 -0.43422037837E+02  0.62499999312E+02  0.99999999826E+01 0.  0.
    3000022    2    5    5    0    0  0.33187181052E+02  0.25238914187E+01 -0.27982024812E+02  0.43483505213E+02  0.24999787159E+00 0.  0.
        -13    1    4    4    0    0 -0.29555172420E+02  0.27466301873E+00  0.28468190001E+02  0.41036965330E+02  0.10500000000E+00 0.  1.
         13    1    4    4    0    0 -0.14379014970E+02  0.74612208153E-01  0.13920409537E+02  0.20013756898E+02  0.10500000000E+00 0. -1.
    3000001    1    5    5    0    0  0.10636726689E+02 -0.30154752407E+01 -0.15440013026E+02  0.19016494099E+02  0.10000000000E+01 0.  1.
        -13    1    6    6    0    0  0.14980588229E+02  0.10825269309E+01 -0.12581279198E+02  0.19593098262E+02  0.10500000000E+00 0. -1.
         13    1    6    6    0    0  0.18206592823E+02  0.14413644878E+01 -0.15400745614E+02  0.23890406951E+02  0.10500000000E+00 0.  1.
</event>
<event>
11    0  0.3462209E-009  0.9118800E+02  0.7816531E-02  0.1126479E+00
         25   -1    0    0    0    0  0.00000000000E+00  0.00000000000E+00  0.99999998245E-14  0.12500000000E+03  0.12500000000E+03 0.  0.
    3000001    1    3    3    0    0 -0.96121779929E+01 -0.37605028123E+02 -0.46937888541E+02  0.60915494635E+02  0.10000000000E+01 0.  1.
    1000022    2    1    0    0    0 -0.10854771192E+02 -0.37384232838E+02 -0.47862752788E+02  0.62500000729E+02  0.10000003208E+02 0.  0.
    3000022    2    3    3    0    0 -0.12425931993E+01  0.22079528483E+00 -0.92486424681E+00  0.15845060942E+01  0.24999454165E+00 0.  0.
    1000022    2    1    0    0    0  0.10854771192E+02  0.37384232838E+02  0.47862752788E+02  0.62499999271E+02  0.99999940963E+01 0.  0.
    3000022    2    5    5    0    0  0.16464970026E+01  0.50256177687E+01  0.21073912909E+01  0.56983673537E+01  0.25001221622E+00 0.  0.
        -13    1    4    4    0    0 -0.49920938529E+00  0.58634670051E-01 -0.43976570717E+00  0.67606723933E+00  0.10500000000E+00 0. -1.
         13    1    4    4    0    0 -0.74338381403E+00  0.16216061478E+00 -0.48509853965E+00  0.90843885491E+00  0.10500000000E+00 0.  1.
    3000001    1    5    5    0    0  0.92082741896E+01  0.32358615069E+02  0.45755361497E+02  0.56801631917E+02  0.10000000000E+01 0.  1.
        -13    1    6    6    0    0  0.71499818565E+00  0.23880055386E+01  0.97025775356E+00  0.26769792614E+01  0.10500000000E+00 0.  1.
         13    1    6    6    0    0  0.93149881696E+00  0.26376122301E+01  0.11371335373E+01  0.30213880923E+01  0.10500000000E+00 0. -1.
</event>
<event>
11    0  0.3462209E-009  0.9118800E+02  0.7816531E-02  0.1126479E+00
         25   -1    0    0    0    0  0.00000000000E+00  0.00000000000E+00  0.99999998245E-14  0.12500000000E+03  0.12500000000E+03 0.  0.
    3000001    1    3    3    0    0 -0.50206566346E+01  0.15892074311E+01 -0.33407720267E+01  0.63161167687E+01  0.10000000000E+01 0.  1.
    1000022    2    1    0    0    0 -0.30216980388E+02  0.10131751507E+02 -0.52825485579E+02  0.62500003736E+02  0.10000012400E+02 0.  0.
    3000022    2    3    3    0    0 -0.25196323754E+02  0.85425440754E+01 -0.49484713552E+02  0.56183886968E+02  0.24997889780E+00 0.  0.
    1000022    2    1    0    0    0  0.30216980388E+02 -0.10131751507E+02  0.52825485579E+02  0.62499996264E+02  0.99999656960E+01 0.  0.
    3000022    2    5    5    0    0  0.25145586469E+02 -0.92969255548E+01  0.36051537604E+02  0.44927822200E+02  0.25000076541E+00 0.  0.
        -13    1    4    4    0    0 -0.17444716168E+02  0.58680835314E+01 -0.34191613044E+02  0.38830786163E+02  0.10500000000E+00 0. -1.
         13    1    4    4    0    0 -0.77516075861E+01  0.26744605440E+01 -0.15293100508E+02  0.17353100804E+02  0.10500000000E+00 0.  1.
    3000001    1    5    5    0    0  0.50713939196E+01 -0.83482595172E+00  0.16773947975E+02  0.17572174064E+02  0.10000000000E+01 0.  1.
        -13    1    6    6    0    0  0.18945497170E+02 -0.70061014566E+01  0.27121814495E+02  0.33817468373E+02  0.10500000000E+00 0. -1.
         13    1    6    6    0    0  0.62000892985E+01 -0.22908240982E+01  0.89297231081E+01  0.11110353826E+02  0.10500000000E+00 0.  1.
</event>
<event>
11    0  0.3462209E-009  0.9118800E+02  0.7816531E-02  0.1126479E+00
         25   -1    0    0    0    0  0.00000000000E+00  0.00000000000E+00  0.99999998245E-14  0.12500000000E+03  0.12500000000E+03 0.  0.
    3000001    1    3    3    0    0 -0.11526725379E+00 -0.98455375041E+00  0.50214417637E+01  0.52151232022E+01  0.10000000000E+01 0.  1.
    1000022    2    1    0    0    0 -0.23543460323E+02  0.96277367676E+01  0.56207318402E+02  0.62500002602E+02  0.99999922002E+01 0.  0.
    3000022    2    3    3    0    0 -0.23428193070E+02  0.10612290518E+02  0.51185876639E+02  0.57284879400E+02  0.25000009136E+00 0.  0.
    1000022    2    1    0    0    0  0.23543460323E+02 -0.96277367676E+01 -0.56207318402E+02  0.62499997398E+02  0.99999596739E+01 0.  0.
    3000022    2    5    5    0    0  0.19077202779E+02 -0.34436405846E+01 -0.43832258801E+02  0.47928360489E+02  0.25000251885E+00 0.  0.
        -13    1    4    4    0    0 -0.12573810588E+02  0.56220636648E+01  0.27397013774E+02  0.30664567522E+02  0.10500000000E+00 0.  1.
         13    1    4    4    0    0 -0.10854382481E+02  0.49902268532E+01  0.23788862864E+02  0.26620311878E+02  0.10500000000E+00 0. -1.
    3000001    1    5    5    0    0  0.44662575443E+01 -0.61840961830E+01 -0.12375059602E+02  0.14571636909E+02  0.10000000000E+01 0.  1.
        -13    1    6    6    0    0  0.80949477696E+01 -0.15127789404E+01 -0.18721527334E+02  0.20452953093E+02  0.10500000000E+00 0.  1.
         13    1    6    6    0    0  0.10982255010E+02 -0.19308616442E+01 -0.25110731467E+02  0.27475407396E+02  0.10500000000E+00 0. -1.
</event>
<event>
11    0  0.3462209E-009  0.9118800E+02  0.7816531E-02  0.1126479E+00
         25   -1    0    0    0    0  0.00000000000E+00  0.00000000000E+00  0.99999998245E-14  0.12500000000E+03  0.12500000000E+03 0.  0.
    3000001    1    3    3    0    0 -0.23592755830E+02  0.35815848464E+00 -0.24388370142E+01  0.23742247811E+02  0.10000000000E+01 0.  1.
    1000022    2    1    0    0    0 -0.58814363382E+02  0.38980508910E+01 -0.18218836450E+02  0.62500000029E+02  0.99999930615E+01 0.  0.
    3000022    2    3    3    0    0 -0.35221607553E+02  0.35398924063E+01 -0.15779999436E+02  0.38757752218E+02  0.24999592573E+00 0.  0.
    1000022    2    1    0    0    0  0.58814363382E+02 -0.38980508910E+01  0.18218836450E+02  0.62499999971E+02  0.99999926975E+01 0.  0.
    3000022    2    5    5    0    0  0.76004982869E+01  0.28326521717E+01  0.21549607359E+01  0.83962991299E+01  0.24998153998E+00 0.  0.
        -13    1    4    4    0    0 -0.20498684700E+02  0.19963111906E+01 -0.91939524387E+01  0.22554846913E+02  0.10500000000E+00 0.  1.
         13    1    4    4    0    0 -0.14722922853E+02  0.15435812157E+01 -0.65860469971E+01  0.16202905306E+02  0.10500000000E+00 0. -1.
    3000001    1    5    5    0    0  0.51213865095E+02 -0.67307030627E+01  0.16063875714E+02  0.54103700841E+02  0.10000000000E+01 0.  1.
        -13    1    6    6    0    0  0.26282569924E+01  0.94389236255E+00  0.69629628431E+00  0.28800210287E+01  0.10500000000E+00 0.  1.
         13    1    6    6    0    0  0.49722412944E+01  0.18887598092E+01  0.14586644516E+01  0.55162781012E+01  0.10500000000E+00 0. -1.
</event>
<event>
11    0  0.3462209E-009  0.9118800E+02  0.7816531E-02  0.1126479E+00
         25   -1    0    0    0    0  0.00000000000E+00  0.00000000000E+00  0.99999998245E-14  0.12500000000E+03  0.12500000000E+03 0.  0.
    3000001    1    3    3    0    0 -0.14124630954E+02 -0.17599467249E+02 -0.77350156553E+01  0.23876283509E+02  0.10000000000E+01 0.  1.
    1000022    2    1    0    0    0 -0.25864908563E+02 -0.51800653283E+02 -0.21306079723E+02  0.62500000730E+02  0.99999941311E+01 0.  0.
    3000022    2    3    3    0    0 -0.11740277608E+02 -0.34201186034E+02 -0.13571064068E+02  0.38623717221E+02  0.25001510632E+00 0.  0.
    1000022    2    1    0    0    0  0.25864908563E+02  0.51800653283E+02  0.21306079723E+02  0.62499999270E+02  0.99999850050E+01 0.  0.
    3000022    2    5    5    0    0  0.22341282979E+02  0.38917529419E+02  0.12921435922E+02  0.46698319947E+02  0.25011679308E+00 0.  0.
        -13    1    4    4    0    0 -0.62171754398E+01 -0.17959039064E+02 -0.71815758678E+01  0.20316653551E+02  0.10500000000E+00 0.  1.
         13    1    4    4    0    0 -0.55231021686E+01 -0.16242146970E+02 -0.63894881999E+01  0.18307063670E+02  0.10500000000E+00 0. -1.
    3000001    1    5    5    0    0  0.35236255842E+01  0.12883123864E+02  0.83846438008E+01  0.15801679323E+02  0.10000000000E+01 0.  1.
        -13    1    6    6    0    0  0.13621556473E+02  0.23604640850E+02  0.78362941581E+01  0.28357439968E+02  0.10500000000E+00 0.  1.
         13    1    6    6    0    0  0.87197265051E+01  0.15312888569E+02  0.50851417641E+01  0.18340879979E+02  0.10500000000E+00 0. -1.
</event>
<event>
11    0  0.3462209E-009  0.9118800E+02  0.7816531E-02  0.1126479E+00
         25   -1    0    0    0    0  0.00000000000E+00  0.00000000000E+00  0.99999998245E-14  0.12500000000E+03  0.12500000000E+03 0.  0.
    3000001    1    3    3    0    0 -0.44216070014E+02  0.34735681347E+02  0.19070973452E+02  0.59382913658E+02  0.10000000000E+01 0. -1.
    1000022    2    1    0    0    0 -0.46226575676E+02  0.34780794808E+02  0.21439433529E+02  0.62500005460E+02  0.10000069314E+02 0.  0.
    3000022    2    3    3    0    0 -0.20105056618E+01  0.45113461478E-01  0.23684600771E+01  0.31170918023E+01  0.24997985195E+00 0.  0.
    1000022    2    1    0    0    0  0.46226575676E+02 -0.34780794808E+02 -0.21439433529E+02  0.62499994540E+02  0.10000001060E+02 0.  0.
    3000022    2    5    5    0    0  0.36955484274E+02 -0.31916176174E+02 -0.19344724911E+02  0.52522671257E+02  0.24998901600E+00 0.  0.
        -13    1    4    4    0    0 -0.63540818817E+00  0.40103799375E-01  0.82206808349E+00  0.10450707221E+01  0.10500000000E+00 0. -1.
         13    1    4    4    0    0 -0.13750974736E+01  0.50096621038E-02  0.15463919936E+01  0.20720210802E+01  0.10500000000E+00 0.  1.
    3000001    1    5    5    0    0  0.92710914021E+01 -0.28646186337E+01 -0.20947086178E+01  0.99773232831E+01  0.10000000000E+01 0.  1.
        -13    1    6    6    0    0  0.20890198906E+02 -0.17992512841E+02 -0.10980956595E+02  0.29676983698E+02  0.10500000000E+00 0.  1.
         13    1    6    6    0    0  0.16065285368E+02 -0.13923663334E+02 -0.83637683160E+01  0.22845687559E+02  0.10500000000E+00 0. -1.
</event>
<event>
11    0  0.3462209E-009  0.9118800E+02  0.7816531E-02  0.1126479E+00
         25   -1    0    0    0    0  0.00000000000E+00  0.00000000000E+00  0.99999998245E-14  0.12500000000E+03  0.12500000000E+03 0.  0.
    3000001    1    3    3    0    0  0.22713586918E+01 -0.61099808977E+00  0.63621616329E+01  0.68563466668E+01  0.10000000000E+01 0. -1.
    1000022    2    1    0    0    0  0.42871215806E+02  0.20834529938E+01  0.44316676887E+02  0.62500000337E+02  0.10000013536E+02 0.  0.
    3000022    2    3    3    0    0  0.40599857114E+02  0.26944510836E+01  0.37954515254E+02  0.55643653670E+02  0.25000246765E+00 0.  0.
    1000022    2    1    0    0    0 -0.42871215806E+02 -0.20834529938E+01 -0.44316676887E+02  0.62499999663E+02  0.10000009328E+02 0.  0.
    3000022    2    5    5    0    0 -0.11560114443E+02 -0.48224023245E+01 -0.10799439995E+02  0.16540320804E+02  0.24999595462E+00 0.  0.
        -13    1    4    4    0    0  0.23617071047E+02  0.16128444238E+01  0.22143976557E+02  0.32415027915E+02  0.10500000000E+00 0. -1.
         13    1    4    4    0    0  0.16982786067E+02  0.10816066598E+01  0.15810538697E+02  0.23228625755E+02  0.10500000000E+00 0.  1.
    3000001    1    5    5    0    0 -0.31311101363E+02  0.27389493307E+01 -0.33517236891E+02  0.45959678859E+02  0.10000000000E+01 0. -1.
        -13    1    6    6    0    0 -0.56731400440E+01 -0.23212737746E+01 -0.53552276909E+01  0.81401669834E+01  0.10500000000E+00 0. -1.
         13    1    6    6    0    0 -0.58869743987E+01 -0.25011285499E+01 -0.54442123045E+01  0.84001538206E+01  0.10500000000E+00 0.  1.
</event>
<event>
11    0  0.3462209E-009  0.9118800E+02  0.7816531E-02  0.1126479E+00
         25   -1    0    0    0    0  0.00000000000E+00  0.00000000000E+00  0.99999998245E-14  0.12500000000E+03  0.12500000000E+03 0.  0.
    3000001    1    3    3    0    0 -0.23461511297E+01 -0.11862163732E+01 -0.80667551558E+01  0.85430716462E+01  0.10000000000E+01 0.  1.
    1000022    2    1    0    0    0 -0.13494294265E-02  0.82283863849E+01 -0.61143631467E+02  0.62500000190E+02  0.10000000527E+02 0.  0.
    3000022    2    3    3    0    0  0.23448017003E+01  0.94146027581E+01 -0.53076876311E+02  0.53956928544E+02  0.24999780928E+00 0.  0.
    1000022    2    1    0    0    0  0.13494294265E-02 -0.82283863849E+01  0.61143631467E+02  0.62499999810E+02  0.99999981474E+01 0.  0.
    3000022    2    5    5    0    0 -0.39523066188E+01 -0.64529428089E+01  0.48706505817E+02  0.49291453695E+02  0.24999989239E+00 0.  0.
        -13    1    4    4    0    0  0.16190012647E+01  0.66339680639E+01 -0.37176702073E+02  0.37798794946E+02  0.10500000000E+00 0. -1.
         13    1    4    4    0    0  0.72580043560E+00  0.27806346942E+01 -0.15900174238E+02  0.16158133598E+02  0.10500000000E+00 0.  1.
    3000001    1    5    5    0    0  0.39536560482E+01 -0.17754435761E+01  0.12437125649E+02  0.13208546115E+02  0.10000000000E+01 0.  1.
        -13    1    6    6    0    0 -0.28537210793E+01 -0.47280997573E+01  0.35555325045E+02  0.35981812286E+02  0.10500000000E+00 0. -1.
         13    1    6    6    0    0 -0.10985855395E+01 -0.17248430515E+01  0.13151180772E+02  0.13309641409E+02  0.10500000000E+00 0.  1.
</event>
<event>
11    0  0.3462209E-009  0.9118800E+02  0.7816531E-02  0.1126479E+00
         25   -1    0    0    0    0  0.00000000000E+00  0.00000000000E+00  0.99999998245E-14  0.12500000000E+03  0.12500000000E+03 0.  0.
    3000001    1    3    3    0    0  0.11293786920E+02 -0.10206510802E+02 -0.43983988602E+01  0.15876662064E+02  0.10000000000E+01 0. -1.
    1000022    2    1    0    0    0  0.31266966255E+02 -0.46753835675E+02 -0.25351641195E+02  0.62500000779E+02  0.10000002853E+02 0.  0.
    3000022    2    3    3    0    0  0.19973179335E+02 -0.36547324872E+02 -0.20953242335E+02  0.46623338716E+02  0.25000117886E+00 0.  0.
    1000022    2    1    0    0    0 -0.31266966255E+02  0.46753835675E+02  0.25351641195E+02  0.62499999221E+02  0.99999931106E+01 0.  0.
    3000022    2    5    5    0    0 -0.18857923154E+02  0.19407703158E+02  0.12819728164E+02  0.29944751432E+02  0.25000125513E+00 0.  0.
        -13    1    4    4    0    0  0.72169644250E+01 -0.13249087170E+02 -0.76514613076E+01  0.16916819190E+02  0.10500000000E+00 0.  1.
         13    1    4    4    0    0  0.12756214910E+02 -0.23298237702E+02 -0.13301781027E+02  0.29706519526E+02  0.10500000000E+00 0. -1.
    3000001    1    5    5    0    0 -0.12409043101E+02  0.27346132517E+02  0.12531913031E+02  0.32555247788E+02  0.10000000000E+01 0. -1.
        -13    1    6    6    0    0 -0.88600876470E+01  0.91689022156E+01  0.61039875129E+01  0.14136463826E+02  0.10500000000E+00 0. -1.
         13    1    6    6    0    0 -0.99978355066E+01  0.10238800942E+02  0.67157406511E+01  0.15808287606E+02  0.10500000000E+00 0.  1.
</event>
<event>
11    0  0.3462209E-009  0.9118800E+02  0.7816531E-02  0.1126479E+00
         25   -1    0    0    0    0  0.00000000000E+00  0.00000000000E+00  0.99999998245E-14  0.12500000000E+03  0.12500000000E+03 0.  0.
    3000001    1    3    3    0    0 -0.19431329670E+02  0.63283283270E+01 -0.15543145951E+02  0.25694623917E+02  0.10000000000E+01 0. -1.
    1000022    2    1    0    0    0 -0.44790778814E+02  0.26094654848E+02 -0.33453024298E+02  0.62499997878E+02  0.10000001080E+02 0.  0.
    3000022    2    3    3    0    0 -0.25359449144E+02  0.19766326521E+02 -0.17909878347E+02  0.36805373961E+02  0.24996993621E+00 0.  0.
    1000022    2    1    0    0    0  0.44790778814E+02 -0.26094654848E+02  0.33453024298E+02  0.62500002122E+02  0.10000027608E+02 0.  0.
    3000022    2    5    5    0    0  0.36666769502E+02 -0.19017420695E+02  0.22220741239E+02  0.46903497601E+02  0.24994077329E+00 0.  0.
        -13    1    4    4    0    0 -0.14008083991E+02  0.10845941975E+02 -0.98292703328E+01  0.20260465313E+02  0.10500000000E+00 0. -1.
         13    1    4    4    0    0 -0.11351365153E+02  0.89203845467E+01 -0.80806080141E+01  0.16544908648E+02  0.10500000000E+00 0.  1.
    3000001    1    5    5    0    0  0.81240093122E+01 -0.70772341530E+01  0.11232283059E+02  0.15596504521E+02  0.10000000000E+01 0. -1.
        -13    1    6    6    0    0  0.18801146820E+02 -0.97872716251E+01  0.11470518772E+02  0.24100988227E+02  0.10500000000E+00 0. -1.
         13    1    6    6    0    0  0.17865622682E+02 -0.92301490704E+01  0.10750222468E+02  0.22802509374E+02  0.10500000000E+00 0.  1.
</event>
<event>
11    0  0.3462209E-009  0.9118800E+02  0.7816531E-02  0.1126479E+00
         25   -1    0    0    0    0  0.00000000000E+00  0.00000000000E+00  0.99999998245E-14  0.12500000000E+03  0.12500000000E+03 0.  0.
    3000001    1    3    3    0    0 -0.56620050591E+01 -0.23967258605E+02  0.12531029348E+02  0.27649855024E+02  0.10000000000E+01 0. -1.
    1000022    2    1    0    0    0 -0.27822808299E+01 -0.56658473079E+02  0.24255438269E+02  0.62499999626E+02  0.10000000468E+02 0.  0.
    3000022    2    3    3    0    0  0.28797242292E+01 -0.32691214475E+02  0.11724408920E+02  0.34850144602E+02  0.24999760937E+00 0.  0.
    1000022    2    1    0    0    0  0.27822808299E+01  0.56658473079E+02 -0.24255438269E+02  0.62500000374E+02  0.10000005138E+02 0.  0.
    3000022    2    5    5    0    0  0.38443218359E+01  0.12385233898E+02 -0.27519177732E+01  0.13259275030E+02  0.24998757015E+00 0.  0.
        -13    1    4    4    0    0  0.90011731550E+00 -0.10821036732E+02  0.38752357886E+01  0.11529680158E+02  0.10500000000E+00 0.  1.
         13    1    4    4    0    0  0.19796069137E+01 -0.21870177743E+02  0.78491731319E+01  0.23320464444E+02  0.10500000000E+00 0. -1.
    3000001    1    5    5    0    0 -0.10620410060E+01  0.44273239181E+02 -0.21503520496E+02  0.49240725344E+02  0.10000000000E+01 0. -1.
        -13    1    6    6    0    0  0.16872828296E+01  0.52855859921E+01 -0.12263211191E+01  0.56832412507E+01  0.10500000000E+00 0. -1.
         13    1    6    6    0    0  0.21570390063E+01  0.70996479062E+01 -0.15255966542E+01  0.75760337788E+01  0.10500000000E+00 0. -1.
</event>
<event>
11    0  0.3462209E-009  0.9118800E+02  0.7816531E-02  0.1126479E+00
         25   -1    0    0    0    0  0.00000000000E+00  0.00000000000E+00  0.99999998245E-14  0.12500000000E+03  0.12500000000E+03 0.  0.
    3000001    1    3    3    0    0 -0.13420596687E+02  0.20371224374E+02 -0.43301858857E+02  0.49710664635E+02  0.10000000000E+01 0. -1.
    1000022    2    1    0    0    0 -0.16293322467E+02  0.20788720244E+02 -0.55754880077E+02  0.62499999465E+02  0.10000001714E+02 0.  0.
    3000022    2    3    3    0    0 -0.28727257793E+01  0.41749587022E+00 -0.12453021220E+02  0.12789334830E+02  0.24998337246E+00 0.  0.
    1000022    2    1    0    0    0  0.16293322467E+02 -0.20788720244E+02  0.55754880077E+02  0.62500000535E+02  0.10000008405E+02 0.  0.
    3000022    2    5    5    0    0  0.13826985961E+02 -0.14266199380E+02  0.31499418629E+02  0.37242259063E+02  0.25000136065E+00 0.  0.
        -13    1    4    4    0    0 -0.15032694574E+01  0.15659522552E+00 -0.63505857318E+01  0.65288058068E+01  0.10500000000E+00 0. -1.
         13    1    4    4    0    0 -0.13694563220E+01  0.26090064470E+00 -0.61024354880E+01  0.62605290231E+01  0.10500000000E+00 0.  1.
    3000001    1    5    5    0    0  0.24663365061E+01 -0.65225208635E+01  0.24255461449E+02  0.25257741472E+02  0.10000000000E+01 0. -1.
        -13    1    6    6    0    0  0.44625742865E+01 -0.46748405264E+01  0.10215778936E+02  0.12088915066E+02  0.10500000000E+00 0.  1.
         13    1    6    6    0    0  0.93644116741E+01 -0.95913588540E+01  0.21283639692E+02  0.25153343997E+02  0.10500000000E+00 0. -1.
</event>
<event>
11    0  0.3462209E-009  0.9118800E+02  0.7816531E-02  0.1126479E+00
         25   -1    0    0    0    0  0.00000000000E+00  0.00000000000E+00  0.99999998245E-14  0.12500000000E+03  0.12500000000E+03 0.  0.
    3000001    1    3    3    0    0  0.28774757498E+02 -0.27070227249E+02  0.30074391291E+02  0.49661382219E+02  0.10000000000E+01 0.  1.
    1000022    2    1    0    0    0  0.33943338092E+02 -0.37670150344E+02  0.35143413570E+02  0.62499999376E+02  0.99999988465E+01 0.  0.
    3000022    2    3    3    0    0  0.51685805940E+01 -0.10599923095E+02  0.50690222787E+01  0.12838617157E+02  0.25001733470E+00 0.  0.
    1000022    2    1    0    0    0 -0.33943338092E+02  0.37670150344E+02 -0.35143413570E+02  0.62500000624E+02  0.10000006643E+02 0.  0.
    3000022    2    5    5    0    0 -0.25156377861E+02  0.30249024954E+02 -0.31481075397E+02  0.50388167854E+02  0.24998752988E+00 0.  0.
        -13    1    4    4    0    0  0.36790085028E+01 -0.74491454194E+01  0.35543850526E+01  0.90371206225E+01  0.10500000000E+00 0. -1.
         13    1    4    4    0    0  0.14895720912E+01 -0.31507776759E+01  0.15146372261E+01  0.38014965348E+01  0.10500000000E+00 0.  1.
    3000001    1    5    5    0    0 -0.87869602313E+01  0.74211253897E+01 -0.36623381734E+01  0.12111832770E+02  0.10000000000E+01 0.  1.
        -13    1    6    6    0    0 -0.11916818365E+02  0.14225627173E+02 -0.14833081087E+02  0.23757321985E+02  0.10500000000E+00 0. -1.
         13    1    6    6    0    0 -0.13239559496E+02  0.16023397781E+02 -0.16647994310E+02  0.26630845868E+02  0.10500000000E+00 0.  1.
</event>
<event>
11    0  0.3462209E-009  0.9118800E+02  0.7816531E-02  0.1126479E+00
         25   -1    0    0    0    0  0.00000000000E+00  0.00000000000E+00  0.99999998245E-14  0.12500000000E+03  0.12500000000E+03 0.  0.
    3000001    1    3    3    0    0  0.79068124551E+01  0.20907395700E+02  0.33319071221E+02  0.40134740377E+02  0.10000000000E+01 0.  1.
    1000022    2    1    0    0    0  0.18551857741E+02  0.28606388720E+02  0.51417437824E+02  0.62500000692E+02  0.10000013644E+02 0.  0.
    3000022    2    3    3    0    0  0.10645045286E+02  0.76989930200E+01  0.18098366603E+02  0.22365260314E+02  0.25002514368E+00 0.  0.
    1000022    2    1    0    0    0 -0.18551857741E+02 -0.28606388720E+02 -0.51417437824E+02  0.62499999308E+02  0.10000004999E+02 0.  0.
    3000022    2    5    5    0    0 -0.17756096977E+02 -0.19748933554E+02 -0.39434872790E+02  0.47544411323E+02  0.24999935364E+00 0.  0.
        -13    1    4    4    0    0  0.57427127904E+01  0.42024585792E+01  0.97110253136E+01  0.12039702901E+02  0.10500000000E+00 0. -1.
         13    1    4    4    0    0  0.49023324951E+01  0.34965344408E+01  0.83873412895E+01  0.10325557413E+02  0.10500000000E+00 0.  1.
    3000001    1    5    5    0    0 -0.79576076336E+00 -0.88574551664E+01 -0.11982565033E+02  0.14955587986E+02  0.10000000000E+01 0.  1.
        -13    1    6    6    0    0 -0.73521488276E+01 -0.81707199559E+01 -0.16206695982E+02  0.19582716273E+02  0.10500000000E+00 0.  1.
         13    1    6    6    0    0 -0.10403948150E+02 -0.11578213598E+02 -0.23228176808E+02  0.27961695049E+02  0.10500000000E+00 0. -1.
</event>
<event>
11    0  0.3462209E-009  0.9118800E+02  0.7816531E-02  0.1126479E+00
         25   -1    0    0    0    0  0.00000000000E+00  0.00000000000E+00  0.99999998245E-14  0.12500000000E+03  0.12500000000E+03 0.  0.
    3000001    1    3    3    0    0  0.29137150808E+02  0.15744450455E+02 -0.51932419574E+01  0.33538500851E+02  0.10000000000E+01 0. -1.
    1000022    2    1    0    0    0  0.57520033119E+02  0.21371179626E+02 -0.64006595315E+01  0.62500000305E+02  0.10000003348E+02 0.  0.
    3000022    2    3    3    0    0  0.28382882311E+02  0.56267291714E+01 -0.12074175741E+01  0.28961499453E+02  0.25000782013E+00 0.  0.
    1000022    2    1    0    0    0 -0.57520033119E+02 -0.21371179626E+02  0.64006595315E+01  0.62499999695E+02  0.99999995413E+01 0.  0.
    3000022    2    5    5    0    0 -0.13691194843E+02 -0.96282247300E+01  0.65932884176E+00  0.16752574277E+02  0.25000538980E+00 0.  0.
        -13    1    4    4    0    0  0.65051560855E+01  0.12919113244E+01 -0.28037184331E+00  0.66389550335E+01  0.10500000000E+00 0. -1.
         13    1    4    4    0    0  0.21877726226E+02  0.43348178470E+01 -0.92704573083E+00  0.22322544420E+02  0.10500000000E+00 0.  1.
    3000001    1    5    5    0    0 -0.43828838277E+02 -0.11742954896E+02  0.57413306898E+01  0.45747425419E+02  0.10000000000E+01 0. -1.
        -13    1    6    6    0    0 -0.36301722015E+01 -0.25765133022E+01  0.14700409267E+00  0.44552447983E+01  0.10500000000E+00 0. -1.
         13    1    6    6    0    0 -0.10061022641E+02 -0.70517114278E+01  0.51232474909E+00  0.12297329478E+02  0.10500000000E+00 0.  1.
</event>
<event>
11    0  0.3462209E-009  0.9118800E+02  0.7816531E-02  0.1126479E+00
         25   -1    0    0    0    0  0.00000000000E+00  0.00000000000E+00  0.99999998245E-14  0.12500000000E+03  0.12500000000E+03 0.  0.
    3000001    1    3    3    0    0 -0.79075448552E+01 -0.17895693990E+02  0.32812111810E+02  0.38215439425E+02  0.10000000000E+01 0. -1.
    1000022    2    1    0    0    0 -0.19840190046E+02 -0.25615191858E+02  0.52502177946E+02  0.62500000228E+02  0.10000007219E+02 0.  0.
    3000022    2    3    3    0    0 -0.11932645191E+02 -0.77194978680E+01  0.19690066136E+02  0.24284560803E+02  0.25004067796E+00 0.  0.
    1000022    2    1    0    0    0  0.19840190046E+02  0.25615191858E+02 -0.52502177946E+02  0.62499999772E+02  0.10000004374E+02 0.  0.
    3000022    2    5    5    0    0  0.45905430420E+01  0.29157424729E+01 -0.38082170740E+01  0.66437685931E+01  0.25000849600E+00 0.  0.
        -13    1    4    4    0    0 -0.36969447812E+01 -0.23608267937E+01  0.60089715299E+01  0.74404077652E+01  0.10500000000E+00 0.  1.
         13    1    4    4    0    0 -0.82357004100E+01 -0.53586710743E+01  0.13681094606E+02  0.16844153037E+02  0.10500000000E+00 0. -1.
    3000001    1    5    5    0    0  0.15249647004E+02  0.22699449385E+02 -0.48693960872E+02  0.55856231179E+02  0.10000000000E+01 0. -1.
        -13    1    6    6    0    0  0.34754194435E+01  0.21925237147E+01 -0.28988522764E+01  0.50299175012E+01  0.10500000000E+00 0. -1.
         13    1    6    6    0    0  0.11151235985E+01  0.72321875815E+00 -0.90936479751E+00  0.16138510920E+01  0.10500000000E+00 0.  1.
</event>
<event>
11    0  0.3462209E-009  0.9118800E+02  0.7816531E-02  0.1126479E+00
         25   -1    0    0    0    0  0.00000000000E+00  0.00000000000E+00  0.99999998245E-14  0.12500000000E+03  0.12500000000E+03 0.  0.
    3000001    1    3    3    0    0 -0.20914388734E+02 -0.25885105801E+02  0.25460932266E+02  0.41913117640E+02  0.10000000000E+01 0.  1.
    1000022    2    1    0    0    0 -0.26159807772E+02 -0.42886888620E+02  0.35813813273E+02  0.62499999010E+02  0.99999948444E+01 0.  0.
    3000022    2    3    3    0    0 -0.52454190378E+01 -0.17001782819E+02  0.10352881007E+02  0.20586881370E+02  0.24999894608E+00 0.  0.
    1000022    2    1    0    0    0  0.26159807772E+02  0.42886888620E+02 -0.35813813273E+02  0.62500000990E+02  0.10000007225E+02 0.  0.
    3000022    2    5    5    0    0  0.22105428227E+02  0.40534477510E+02 -0.34144359092E+02  0.57424677475E+02  0.25000239852E+00 0.  0.
        -13    1    4    4    0    0 -0.17738581151E+01 -0.56607704145E+01  0.35060734546E+01  0.68916232026E+01  0.10500000000E+00 0. -1.
         13    1    4    4    0    0 -0.34715609226E+01 -0.11341012405E+02  0.68468075519E+01  0.13695258167E+02  0.10500000000E+00 0.  1.
    3000001    1    5    5    0    0  0.40543795445E+01  0.23524111099E+01 -0.16694541805E+01  0.50753235150E+01  0.10000000000E+01 0. -1.
        -13    1    6    6    0    0  0.10103429085E+02  0.18591993708E+02 -0.15722117885E+02  0.26361667722E+02  0.10500000000E+00 0.  1.
         13    1    6    6    0    0  0.12001999142E+02  0.21942483803E+02 -0.18422241208E+02  0.31063009754E+02  0.10500000000E+00 0. -1.
</event>
<event>
11    0  0.3462209E-009  0.9118800E+02  0.7816531E-02  0.1126479E+00
         25   -1    0    0    0    0  0.00000000000E+00  0.00000000000E+00  0.99999998245E-14  0.12500000000E+03  0.12500000000E+03 0.  0.
    3000001    1    3    3    0    0 -0.11332309086E+02 -0.15647459298E+02  0.21285807829E+02  0.28763689378E+02  0.10000000000E+01 0.  1.
    1000022    2    1    0    0    0 -0.25904117278E+02 -0.40938528082E+02  0.38200310237E+02  0.62499999872E+02  0.99999954140E+01 0.  0.
    3000022    2    3    3    0    0 -0.14571808192E+02 -0.25291068785E+02  0.16914502408E+02  0.33736310494E+02  0.24999956445E+00 0.  0.
    1000022    2    1    0    0    0  0.25904117278E+02  0.40938528082E+02 -0.38200310237E+02  0.62500000128E+02  0.99999970109E+01 0.  0.
    3000022    2    5    5    0    0  0.24831450792E+02  0.34975233427E+02 -0.30410479842E+02  0.52580677866E+02  0.24999786401E+00 0.  0.
        -13    1    4    4    0    0 -0.73132880324E+01 -0.12565428249E+02  0.84518022819E+01  0.16817198213E+02  0.10500000000E+00 0.  1.
         13    1    4    4    0    0 -0.72585201599E+01 -0.12725640535E+02  0.84627001264E+01  0.16919112281E+02  0.10500000000E+00 0. -1.
    3000001    1    5    5    0    0  0.10726664860E+01  0.59632946551E+01 -0.77898303957E+01  0.99193222615E+01  0.10000000000E+01 0. -1.
        -13    1    6    6    0    0  0.12389635616E+02  0.17567403406E+02 -0.15249187886E+02  0.26356507532E+02  0.10500000000E+00 0.  1.
         13    1    6    6    0    0  0.12441815176E+02  0.17407830022E+02 -0.15161291955E+02  0.26224170334E+02  0.10500000000E+00 0. -1.
</event>
<event>
11    0  0.3462209E-009  0.9118800E+02  0.7816531E-02  0.1126479E+00
         25   -1    0    0    0    0  0.00000000000E+00  0.00000000000E+00  0.99999998245E-14  0.12500000000E+03  0.12500000000E+03 0.  0.
    3000001    1    3    3    0    0 -0.88946567879E+01  0.20338792807E+01  0.24896551198E+00  0.91822419990E+01  0.10000000000E+01 0.  1.
    1000022    2    1    0    0    0 -0.55775157756E+02  0.15998738275E+02 -0.20962400401E+02  0.62499998890E+02  0.99999890794E+01 0.  0.
    3000022    2    3    3    0    0 -0.46880500968E+02  0.13964858994E+02 -0.21211365913E+02  0.53317756891E+02  0.24999648806E+00 0.  0.
    1000022    2    1    0    0    0  0.55775157756E+02 -0.15998738275E+02  0.20962400401E+02  0.62500001110E+02  0.10000002959E+02 0.  0.
    3000022    2    5    5    0    0  0.29802322989E+02 -0.66987292952E+01  0.15888080708E+02  0.34431744428E+02  0.24997215108E+00 0.  0.
        -13    1    4    4    0    0 -0.16932726097E+02  0.50994669814E+01 -0.76942975853E+01  0.19285616840E+02  0.10500000000E+00 0. -1.
         13    1    4    4    0    0 -0.29947774871E+02  0.88653920126E+01 -0.13517068328E+02  0.34032140051E+02  0.10500000000E+00 0.  1.
    3000001    1    5    5    0    0  0.25972834767E+02 -0.93000089794E+01  0.50743196933E+01  0.28068256682E+02  0.10000000000E+01 0. -1.
        -13    1    6    6    0    0  0.11160306378E+02 -0.24868707927E+01  0.58840004347E+01  0.12859605395E+02  0.10500000000E+00 0.  1.
         13    1    6    6    0    0  0.18642016610E+02 -0.42118585025E+01  0.10004080273E+02  0.21572139033E+02  0.10500000000E+00 0. -1.
</event>
<event>
11    0  0.3462209E-009  0.9118800E+02  0.7816531E-02  0.1126479E+00
         25   -1    0    0    0    0  0.00000000000E+00  0.00000000000E+00  0.99999998245E-14  0.12500000000E+03  0.12500000000E+03 0.  0.
    3000001    1    3    3    0    0 -0.27421168674E+02  0.95745575259E+01 -0.20063673777E+02  0.35314921049E+02  0.10000000000E+01 0.  1.
    1000022    2    1    0    0    0 -0.52691984341E+02  0.15711786205E+02 -0.27981147276E+02  0.62500001246E+02  0.10000005669E+02 0.  0.
    3000022    2    3    3    0    0 -0.25270815667E+02  0.61372286790E+01 -0.79174734988E+01  0.27185080197E+02  0.24999680068E+00 0.  0.
    1000022    2    1    0    0    0  0.52691984341E+02 -0.15711786205E+02  0.27981147276E+02  0.62499998754E+02  0.99999900917E+01 0.  0.
    3000022    2    5    5    0    0  0.38831935132E+02 -0.83030836461E+01  0.23432133766E+02  0.46108435022E+02  0.25000637815E+00 0.  0.
        -13    1    4    4    0    0 -0.13577363917E+02  0.32299057998E+01 -0.42643759363E+01  0.14593595498E+02  0.10500000000E+00 0.  1.
         13    1    4    4    0    0 -0.11693451749E+02  0.29073228793E+01 -0.36530975624E+01  0.12591484699E+02  0.10500000000E+00 0. -1.
    3000001    1    5    5    0    0  0.13860049208E+02 -0.74087025589E+01  0.45490135103E+01  0.16391563732E+02  0.10000000000E+01 0.  1.
        -13    1    6    6    0    0  0.98441505454E+01 -0.20789641846E+01  0.59227033226E+01  0.11675565583E+02  0.10500000000E+00 0.  1.
         13    1    6    6    0    0  0.28987784587E+02 -0.62241194615E+01  0.17509430443E+02  0.34432869438E+02  0.10500000000E+00 0. -1.
</event>
<event>
11    0  0.3462209E-009  0.9118800E+02  0.7816531E-02  0.1126479E+00
         25   -1    0    0    0    0  0.00000000000E+00  0.00000000000E+00  0.99999998245E-14  0.12500000000E+03  0.12500000000E+03 0.  0.
    3000001    1    3    3    0    0  0.15170643396E+00  0.33167672060E+01  0.37965898361E+00  0.34882804481E+01  0.10000000000E+01 0. -1.
    1000022    2    1    0    0    0 -0.14308625137E+02  0.46881655487E+02  0.37464965951E+02  0.62500001098E+02  0.10000004453E+02 0.  0.
    3000022    2    3    3    0    0 -0.14460331571E+02  0.43564888281E+02  0.37085306967E+02  0.59011720650E+02  0.25000229522E+00 0.  0.
    1000022    2    1    0    0    0  0.14308625137E+02 -0.46881655487E+02 -0.37464965951E+02  0.62499998902E+02  0.99999907249E+01 0.  0.
    3000022    2    5    5    0    0  0.20756198317E+01 -0.11377709246E+02 -0.41507697916E+01  0.12290315740E+02  0.25001149369E+00 0.  0.
        -13    1    4    4    0    0 -0.99097026425E+01  0.29704580445E+02  0.25277643427E+02  0.40243441554E+02  0.10500000000E+00 0. -1.
         13    1    4    4    0    0 -0.45506289285E+01  0.13860307836E+02  0.11807663541E+02  0.18768279096E+02  0.10500000000E+00 0.  1.
    3000001    1    5    5    0    0  0.12233005305E+02 -0.35503946241E+02 -0.33314196159E+02  0.50209683162E+02  0.10000000000E+01 0.  1.
        -13    1    6    6    0    0  0.13373153570E+01 -0.74721057133E+01 -0.26716076641E+01  0.80479369198E+01  0.10500000000E+00 0. -1.
         13    1    6    6    0    0  0.73830447473E+00 -0.39056035328E+01 -0.14791621275E+01  0.42423788200E+01  0.10500000000E+00 0.  1.
</event>
<event>
11    0  0.3462209E-009  0.9118800E+02  0.7816531E-02  0.1126479E+00
         25   -1    0    0    0    0  0.00000000000E+00  0.00000000000E+00  0.99999998245E-14  0.12500000000E+03  0.12500000000E+03 0.  0.
    3000001    1    3    3    0    0  0.90193745636E+01  0.39583810929E+02 -0.24371549675E+02  0.47362428556E+02  0.10000000000E+01 0.  1.
    1000022    2    1    0    0    0  0.14348861699E+02  0.53451747179E+02 -0.27262989900E+02  0.62499998170E+02  0.10000002218E+02 0.  0.
    3000022    2    3    3    0    0  0.53294871352E+01  0.13867936250E+02 -0.28914402251E+01  0.15137569614E+02  0.24999652680E+00 0.  0.
    1000022    2    1    0    0    0 -0.14348861699E+02 -0.53451747179E+02  0.27262989900E+02  0.62500001830E+02  0.10000025096E+02 0.  0.
    3000022    2    5    5    0    0  0.20421928026E+00 -0.46416052321E+01 -0.13840655095E+00  0.46548754118E+01  0.25000816218E+00 0.  0.
        -13    1    4    4    0    0  0.24331115811E+01  0.65112246409E+01 -0.13722688769E+01  0.70859173831E+01  0.10500000000E+00 0.  1.
         13    1    4    4    0    0  0.28963755541E+01  0.73567116095E+01 -0.15191713483E+01  0.80516522305E+01  0.10500000000E+00 0. -1.
    3000001    1    5    5    0    0 -0.14553080979E+02 -0.48810141947E+02  0.27401396451E+02  0.57845126418E+02  0.10000000000E+01 0.  1.
        -13    1    6    6    0    0  0.52458636297E-01 -0.22363782648E+01 -0.11638759057E+00  0.22424787007E+01  0.10500000000E+00 0. -1.
         13    1    6    6    0    0  0.15176064397E+00 -0.24052269673E+01 -0.22018960371E-01  0.24123967111E+01  0.10500000000E+00 0.  1.
</event>
<event>
11    0  0.3462209E-009  0.9118800E+02  0.7816531E-02  0.1126479E+00
         25   -1    0    0    0    0  0.00000000000E+00  0.00000000000E+00  0.99999998245E-14  0.12500000000E+03  0.12500000000E+03 0.  0.
    3000001    1    3    3    0    0 -0.99591457018E+01  0.12283558759E+02  0.14771927626E+02  0.21662877110E+02  0.10000000000E+01 0. -1.
    1000022    2    1    0    0    0 -0.20817446122E+02  0.44817271680E+02  0.36936378899E+02  0.62499999454E+02  0.99999970885E+01 0.  0.
    3000022    2    3    3    0    0 -0.10858300420E+02  0.32533712921E+02  0.22164451272E+02  0.40837122344E+02  0.24999339732E+00 0.  0.
    1000022    2    1    0    0    0  0.20817446122E+02 -0.44817271680E+02 -0.36936378899E+02  0.62500000546E+02  0.10000003911E+02 0.  0.
    3000022    2    5    5    0    0  0.97948323702E+01 -0.31043839879E+02 -0.26523246245E+02  0.41990520563E+02  0.24998042644E+00 0.  0.
        -13    1    4    4    0    0 -0.27667266238E+01  0.82910626755E+01  0.56141318260E+01  0.10388743796E+02  0.10500000000E+00 0.  1.
         13    1    4    4    0    0 -0.80915737963E+01  0.24242650246E+02  0.16550319446E+02  0.30448378548E+02  0.10500000000E+00 0. -1.
    3000001    1    5    5    0    0  0.11022613752E+02 -0.13773431801E+02 -0.10413132654E+02  0.20509479983E+02  0.10000000000E+01 0. -1.
        -13    1    6    6    0    0  0.45951215407E+01 -0.14630752715E+02 -0.12578089157E+02  0.19834147797E+02  0.10500000000E+00 0. -1.
         13    1    6    6    0    0  0.51997108295E+01 -0.16413087163E+02 -0.13945157087E+02  0.22156372766E+02  0.10500000000E+00 0.  1.
</event>
<event>
11    0  0.3462209E-009  0.9118800E+02  0.7816531E-02  0.1126479E+00
         25   -1    0    0    0    0  0.00000000000E+00  0.00000000000E+00  0.99999998245E-14  0.12500000000E+03  0.12500000000E+03 0.  0.
    3000001    1    3    3    0    0 -0.31790629118E+02  0.13498862306E+02 -0.43045853640E+02  0.55197906654E+02  0.10000000000E+01 0. -1.
    1000022    2    1    0    0    0 -0.33482755152E+02  0.17869363600E+02 -0.48639911044E+02  0.62499999279E+02  0.99999957685E+01 0.  0.
    3000022    2    3    3    0    0 -0.16921260335E+01  0.43705012935E+01 -0.55940574040E+01  0.73020926248E+01  0.25001278481E+00 0.  0.
    1000022    2    1    0    0    0  0.33482755152E+02 -0.17869363600E+02  0.48639911044E+02  0.62500000721E+02  0.10000004787E+02 0.  0.
    3000022    2    5    5    0    0  0.25239095723E+02 -0.90017608607E+01  0.36915565120E+02  0.45616500300E+02  0.24999999893E+00 0.  0.
        -13    1    4    4    0    0 -0.11644624866E+01  0.28595766242E+01 -0.36617793228E+01  0.47909084902E+01  0.10500000000E+00 0. -1.
         13    1    4    4    0    0 -0.52766354689E+00  0.15109246692E+01 -0.19322780813E+01  0.25111841347E+01  0.10500000000E+00 0.  1.
    3000001    1    5    5    0    0  0.82436594292E+01 -0.88676027393E+01  0.11724345925E+02  0.16883500422E+02  0.10000000000E+01 0. -1.
        -13    1    6    6    0    0  0.60511063826E+01 -0.21679929534E+01  0.88271464410E+01  0.10919964340E+02  0.10500000000E+00 0.  1.
         13    1    6    6    0    0  0.19187989340E+02 -0.68337679073E+01  0.28088418679E+02  0.34696535960E+02  0.10500000000E+00 0. -1.
</event>
<event>
11    0  0.3462209E-009  0.9118800E+02  0.7816531E-02  0.1126479E+00
         25   -1    0    0    0    0  0.00000000000E+00  0.00000000000E+00  0.99999998245E-14  0.12500000000E+03  0.12500000000E+03 0.  0.
    3000001    1    3    3    0    0 -0.14590448941E+02  0.12824161222E+02  0.18746027392E+02  0.27013956658E+02  0.10000000000E+01 0. -1.
    1000022    2    1    0    0    0 -0.25842869778E+02  0.37561974780E+02  0.41563134466E+02  0.62500000204E+02  0.10000000558E+02 0.  0.
    3000022    2    3    3    0    0 -0.11252420837E+02  0.24737813557E+02  0.22817107073E+02  0.35486043545E+02  0.25003401699E+00 0.  0.
    1000022    2    1    0    0    0  0.25842869778E+02 -0.37561974780E+02 -0.41563134466E+02  0.62499999796E+02  0.99999980093E+01 0.  0.
    3000022    2    5    5    0    0  0.15209497406E+02 -0.13528389060E+02 -0.19050239836E+02  0.27880463763E+02  0.24999983362E+00 0.  0.
        -13    1    4    4    0    0 -0.61118677247E+01  0.13278600295E+02  0.12252505222E+02  0.19073831867E+02  0.10500000000E+00 0. -1.
         13    1    4    4    0    0 -0.51405531125E+01  0.11459213263E+02  0.10564601852E+02  0.16412211679E+02  0.10500000000E+00 0.  1.
    3000001    1    5    5    0    0  0.10633372372E+02 -0.24033585720E+02 -0.22512894630E+02  0.34619536033E+02  0.10000000000E+01 0. -1.
        -13    1    6    6    0    0  0.80913792143E+01 -0.72812352852E+01 -0.10154304431E+02  0.14886494831E+02  0.10500000000E+00 0.  1.
         13    1    6    6    0    0  0.71181181918E+01 -0.62471537744E+01 -0.88959354053E+01  0.12993968932E+02  0.10500000000E+00 0. -1.
</event>
<event>
11    0  0.3462209E-009  0.9118800E+02  0.7816531E-02  0.1126479E+00
         25   -1    0    0    0    0  0.00000000000E+00  0.00000000000E+00  0.99999998245E-14  0.12500000000E+03  0.12500000000E+03 0.  0.
    3000001    1    3    3    0    0  0.12017939588E+01  0.28781765319E+01  0.10391238992E+02  0.10895230914E+02  0.10000000000E+01 0.  1.
    1000022    2    1    0    0    0 -0.14069051570E+02  0.14254509768E+02  0.58353411651E+02  0.62499999947E+02  0.10000004063E+02 0.  0.
    3000022    2    3    3    0    0 -0.15270845528E+02  0.11376333236E+02  0.47962172659E+02  0.51604769033E+02  0.24999954593E+00 0.  0.
    1000022    2    1    0    0    0  0.14069051570E+02 -0.14254509768E+02 -0.58353411651E+02  0.62500000053E+02  0.10000004727E+02 0.  0.
    3000022    2    5    5    0    0  0.14362340557E+02 -0.93601363385E+01 -0.48642016040E+02  0.51575160722E+02  0.25000103627E+00 0.  0.
        -13    1    4    4    0    0 -0.11541060167E+02  0.85689614974E+01  0.36194613854E+02  0.38944630797E+02  0.10500000000E+00 0. -1.
         13    1    4    4    0    0 -0.37297853610E+01  0.28073717382E+01  0.11767558805E+02  0.12660138236E+02  0.10500000000E+00 0.  1.
    3000001    1    5    5    0    0 -0.29328898774E+00 -0.48943734290E+01 -0.97113956114E+01  0.10924839331E+02  0.10000000000E+01 0. -1.
        -13    1    6    6    0    0  0.62078801733E+01 -0.40744608110E+01 -0.20885812093E+02  0.22166803535E+02  0.10500000000E+00 0.  1.
         13    1    6    6    0    0  0.81544603841E+01 -0.52856755276E+01 -0.27756203946E+02  0.29408357187E+02  0.10500000000E+00 0. -1.
</event>
<event>
11    0  0.3462209E-009  0.9118800E+02  0.7816531E-02  0.1126479E+00
         25   -1    0    0    0    0  0.00000000000E+00  0.00000000000E+00  0.99999998245E-14  0.12500000000E+03  0.12500000000E+03 0.  0.
    3000001    1    3    3    0    0 -0.22174600251E+02 -0.67695550325E+00  0.51000369698E+02  0.55625613474E+02  0.10000000000E+01 0.  1.
    1000022    2    1    0    0    0 -0.24952402793E+02  0.25958163724E+01  0.56363900493E+02  0.62500000555E+02  0.10000006143E+02 0.  0.
    3000022    2    3    3    0    0 -0.27778025425E+01  0.32727718756E+01  0.53635307949E+01  0.68743870814E+01  0.25002488385E+00 0.  0.
    1000022    2    1    0    0    0  0.24952402793E+02 -0.25958163724E+01 -0.56363900493E+02  0.62499999445E+02  0.99999992051E+01 0.  0.
    3000022    2    5    5    0    0  0.21684798683E+02  0.10538116048E+01 -0.41811456206E+02  0.47112645686E+02  0.25000127303E+00 0.  0.
        -13    1    4    4    0    0 -0.82598344650E+00  0.10426897621E+01  0.16358124326E+01  0.21110087420E+01  0.10500000000E+00 0. -1.
         13    1    4    4    0    0 -0.19518190960E+01  0.22300821135E+01  0.37277183623E+01  0.47633783395E+01  0.10500000000E+00 0.  1.
    3000001    1    5    5    0    0  0.32676041098E+01 -0.36496279772E+01 -0.14552444287E+02  0.15387353759E+02  0.10000000000E+01 0.  1.
        -13    1    6    6    0    0  0.66357196253E+01  0.27542534779E+00 -0.12804586175E+02  0.14424877337E+02  0.10500000000E+00 0.  1.
         13    1    6    6    0    0  0.15049079058E+02  0.77838625697E+00 -0.29006870031E+02  0.32687768349E+02  0.10500000000E+00 0. -1.
</event>
<event>
11    0  0.3462209E-009  0.9118800E+02  0.7816531E-02  0.1126479E+00
         25   -1    0    0    0    0  0.00000000000E+00  0.00000000000E+00  0.99999998245E-14  0.12500000000E+03  0.12500000000E+03 0.  0.
    3000001    1    3    3    0    0 -0.25901596265E+02 -0.36473539057E+02 -0.58005158260E+01  0.45120480099E+02  0.10000000000E+01 0. -1.
    1000022    2    1    0    0    0 -0.39789549268E+02 -0.46115569535E+02 -0.98181370221E+01  0.62500001339E+02  0.10000018416E+02 0.  0.
    3000022    2    3    3    0    0 -0.13887953003E+02 -0.96420304774E+01 -0.40176211961E+01  0.17379521241E+02  0.24997629074E+00 0.  0.
    1000022    2    1    0    0    0  0.39789549268E+02  0.46115569535E+02  0.98181370221E+01  0.62499998661E+02  0.10000001676E+02 0.  0.
    3000022    2    5    5    0    0  0.32761863922E+02  0.42415517434E+02  0.71953048651E+01  0.54076341771E+02  0.24996078562E+00 0.  0.
        -13    1    4    4    0    0 -0.88904427309E+01 -0.62343248876E+01 -0.25521139462E+01  0.11154868415E+02  0.10500000000E+00 0. -1.
         13    1    4    4    0    0 -0.49975102719E+01 -0.34077055898E+01 -0.14655072498E+01  0.62246528260E+01  0.10500000000E+00 0.  1.
    3000001    1    5    5    0    0  0.70276853460E+01  0.37000521011E+01  0.26228321570E+01  0.84236568898E+01  0.10000000000E+01 0. -1.
        -13    1    6    6    0    0  0.17865776265E+02  0.23023774966E+02  0.38965379924E+01  0.29401942259E+02  0.10500000000E+00 0. -1.
         13    1    6    6    0    0  0.14896087657E+02  0.19391742467E+02  0.32987668726E+01  0.24674399512E+02  0.10500000000E+00 0.  1.
</event>
<event>
11    0  0.3462209E-009  0.9118800E+02  0.7816531E-02  0.1126479E+00
         25   -1    0    0    0    0  0.00000000000E+00  0.00000000000E+00  0.99999998245E-14  0.12500000000E+03  0.12500000000E+03 0.  0.
    3000001    1    3    3    0    0  0.52524675511E+01 -0.39028992307E+01  0.28157214091E+01  0.71937003575E+01  0.10000000000E+01 0.  1.
    1000022    2    1    0    0    0  0.57835036376E+02 -0.11219079392E+02  0.18316416281E+02  0.62500002692E+02  0.10000002809E+02 0.  0.
    3000022    2    3    3    0    0  0.52582568825E+02 -0.73161801609E+01  0.15500694872E+02  0.55306302335E+02  0.25000016121E+00 0.  0.
    1000022    2    1    0    0    0 -0.57835036376E+02  0.11219079392E+02 -0.18316416281E+02  0.62499997308E+02  0.99999691577E+01 0.  0.
    3000022    2    5    5    0    0 -0.45908521002E+02  0.12828234759E+02 -0.15114448275E+02  0.50006649115E+02  0.25000287487E+00 0.  0.
        -13    1    4    4    0    0  0.24355071905E+02 -0.34359231949E+01  0.71312319315E+01  0.25609384795E+02  0.10500000000E+00 0. -1.
         13    1    4    4    0    0  0.28227496920E+02 -0.38802569659E+01  0.83694629401E+01  0.29696917540E+02  0.10500000000E+00 0.  1.
    3000001    1    5    5    0    0 -0.11926515374E+02 -0.16091553678E+01 -0.32019680056E+01  0.12493348193E+02  0.10000000000E+01 0.  1.
        -13    1    6    6    0    0 -0.28453502501E+02  0.79626905489E+01 -0.94313932025E+01  0.31015616197E+02  0.10500000000E+00 0. -1.
         13    1    6    6    0    0 -0.17455018501E+02  0.48655442104E+01 -0.56830550726E+01  0.18991032918E+02  0.10500000000E+00 0.  1.
</event>
<event>
11    0  0.3462209E-009  0.9118800E+02  0.7816531E-02  0.1126479E+00
         25   -1    0    0    0    0  0.00000000000E+00  0.00000000000E+00  0.99999998245E-14  0.12500000000E+03  0.12500000000E+03 0.  0.
    3000001    1    3    3    0    0 -0.69982719496E+01 -0.39292692881E+00 -0.88128240795E+01  0.11304692393E+02  0.10000000000E+01 0. -1.
    1000022    2    1    0    0    0 -0.51205247072E+02  0.52149895563E+01 -0.34015822221E+02  0.62499994715E+02  0.99999867078E+01 0.  0.
    3000022    2    3    3    0    0 -0.44206975122E+02  0.56079164851E+01 -0.25202998142E+02  0.51195302321E+02  0.24997530469E+00 0.  0.
    1000022    2    1    0    0    0  0.51205247072E+02 -0.52149895563E+01  0.34015822221E+02  0.62500005285E+02  0.10000052776E+02 0.  0.
    3000022    2    5    5    0    0  0.27534717668E+02  0.44475151088E+00  0.13585407834E+02  0.30708049334E+02  0.25001378618E+00 0.  0.
        -13    1    4    4    0    0 -0.11580381693E+02  0.14370140277E+01 -0.66076739296E+01  0.13410541720E+02  0.10500000000E+00 0.  1.
         13    1    4    4    0    0 -0.32626593429E+02  0.41709024575E+01 -0.18595324212E+02  0.37784760601E+02  0.10500000000E+00 0. -1.
    3000001    1    5    5    0    0  0.23670529403E+02 -0.56597410672E+01  0.20430414387E+02  0.31791955951E+02  0.10000000000E+01 0.  1.
        -13    1    6    6    0    0  0.18982468780E+02  0.30853073896E+00  0.94197225939E+01  0.21193666765E+02  0.10500000000E+00 0.  1.
         13    1    6    6    0    0  0.85522488886E+01  0.13622077192E+00  0.41656852405E+01  0.95143825692E+01  0.10500000000E+00 0. -1.
</event>
<event>
11    0  0.3462209E-009  0.9118800E+02  0.7816531E-02  0.1126479E+00
         25   -1    0    0    0    0  0.00000000000E+00  0.00000000000E+00  0.99999998245E-14  0.12500000000E+03  0.12500000000E+03 0.  0.
    3000001    1    3    3    0    0  0.21130093500E+02  0.64507230371E+01 -0.14751703981E+02  0.26583932165E+02  0.10000000000E+01 0. -1.
    1000022    2    1    0    0    0  0.48330051869E+02  0.42919554510E+01 -0.38105588892E+02  0.62500007297E+02  0.10000010602E+02 0.  0.
    3000022    2    3    3    0    0  0.27199958369E+02 -0.21587675861E+01 -0.23353884912E+02  0.35916075132E+02  0.24999931198E+00 0.  0.
    1000022    2    1    0    0    0 -0.48330051869E+02 -0.42919554510E+01  0.38105588892E+02  0.62499992703E+02  0.99999193881E+01 0.  0.
    3000022    2    5    5    0    0 -0.27876060844E+02 -0.73378458225E+01  0.22782183631E+02  0.36742470582E+02  0.25000795024E+00 0.  0.
        -13    1    4    4    0    0  0.69784024403E+01 -0.57348753598E+00 -0.60233301051E+01  0.92368024299E+01  0.10500000000E+00 0.  1.
         13    1    4    4    0    0  0.20221555929E+02 -0.15852800501E+01 -0.17330554807E+02  0.26679272702E+02  0.10500000000E+00 0. -1.
    3000001    1    5    5    0    0 -0.20453991025E+02  0.30458903715E+01  0.15323405261E+02  0.25757522121E+02  0.10000000000E+01 0. -1.
        -13    1    6    6    0    0 -0.16990096097E+02 -0.44127714731E+01  0.13902965854E+02  0.22392842651E+02  0.10500000000E+00 0. -1.
         13    1    6    6    0    0 -0.10885964748E+02 -0.29250743493E+01  0.88792177766E+01  0.14349627931E+02  0.10500000000E+00 0.  1.
</event>
<event>
11    0  0.3462209E-009  0.9118800E+02  0.7816531E-02  0.1126479E+00
         25   -1    0    0    0    0  0.00000000000E+00  0.00000000000E+00  0.99999998245E-14  0.12500000000E+03  0.12500000000E+03 0.  0.
    3000001    1    3    3    0    0  0.54541610372E+02 -0.41115835430E+01 -0.75366759344E+01  0.55222222568E+02  0.10000000000E+01 0. -1.
    1000022    2    1    0    0    0  0.60324323868E+02 -0.69921825787E+01 -0.10878217559E+02  0.62499998156E+02  0.99999742431E+01 0.  0.
    3000022    2    3    3    0    0  0.57827134958E+01 -0.28805990357E+01 -0.33415416243E+01  0.72777755875E+01  0.24998179355E+00 0.  0.
    1000022    2    1    0    0    0 -0.60324323868E+02  0.69921825787E+01  0.10878217559E+02  0.62500001844E+02  0.99999972970E+01 0.  0.
    3000022    2    5    5    0    0 -0.49742122467E+02  0.59827142153E+01  0.12657980692E+02  0.51675512495E+02  0.24999900442E+00 0.  0.
        -13    1    4    4    0    0  0.24345444154E+01 -0.12329369674E+01 -0.14821015444E+01  0.31072158058E+01  0.10500000000E+00 0.  1.
         13    1    4    4    0    0  0.33481690804E+01 -0.16476620683E+01 -0.18594400799E+01  0.41705597817E+01  0.10500000000E+00 0. -1.
    3000001    1    5    5    0    0 -0.10582201401E+02  0.10094683634E+01 -0.17797631331E+01  0.10824489350E+02  0.10000000000E+01 0. -1.
        -13    1    6    6    0    0 -0.25175298214E+02  0.29597197001E+01  0.64074082603E+01  0.26146156247E+02  0.10500000000E+00 0.  1.
         13    1    6    6    0    0 -0.24566824252E+02  0.30229945152E+01  0.62505724315E+01  0.25529356247E+02  0.10500000000E+00 0. -1.
</event>
<event>
11    0  0.3462209E-009  0.9118800E+02  0.7816531E-02  0.1126479E+00
         25   -1    0    0    0    0  0.00000000000E+00  0.00000000000E+00  0.99999998245E-14  0.12500000000E+03  0.12500000000E+03 0.  0.
    3000001    1    3    3    0    0 -0.45806025288E+02  0.17989219758E+02  0.87955859706E+01  0.50001663100E+02  0.10000000000E+01 0. -1.
    1000022    2    1    0    0    0 -0.56539510486E+02  0.19623569907E+02  0.14981630108E+02  0.62500000783E+02  0.10000005762E+02 0.  0.
    3000022    2    3    3    0    0 -0.10733485198E+02  0.16343501485E+01  0.61860441374E+01  0.12498337683E+02  0.24999570944E+00 0.  0.
    1000022    2    1    0    0    0  0.56539510486E+02 -0.19623569907E+02 -0.14981630108E+02  0.62499999217E+02  0.99999959752E+01 0.  0.
    3000022    2    5    5    0    0  0.50853039119E+02 -0.20076753313E+02 -0.15054347468E+02  0.56708054844E+02  0.24999049602E+00 0.  0.
        -13    1    4    4    0    0 -0.74218986117E+01  0.11578052864E+01  0.43245344420E+01  0.86682013835E+01  0.10500000000E+00 0. -1.
         13    1    4    4    0    0 -0.33115865863E+01  0.47654486214E+00  0.18615096954E+01  0.38301362992E+01  0.10500000000E+00 0.  1.
    3000001    1    5    5    0    0  0.56864713669E+01  0.45318340574E+00  0.72717359655E-01  0.57919443730E+01  0.10000000000E+01 0.  1.
        -13    1    6    6    0    0  0.37998845820E+02 -0.15021227888E+02 -0.11272981200E+02  0.42386798665E+02  0.10500000000E+00 0. -1.
         13    1    6    6    0    0  0.12854193300E+02 -0.50555254245E+01 -0.37813662673E+01  0.14321256179E+02  0.10500000000E+00 0.  1.
</event>
<event>
11    0  0.3462209E-009  0.9118800E+02  0.7816531E-02  0.1126479E+00
         25   -1    0    0    0    0  0.00000000000E+00  0.00000000000E+00  0.99999998245E-14  0.12500000000E+03  0.12500000000E+03 0.  0.
    3000001    1    3    3    0    0  0.26041673827E+01  0.61445142345E+01 -0.26016967268E+01  0.72322588998E+01  0.10000000000E+01 0. -1.
    1000022    2    1    0    0    0  0.29314348181E+02  0.35558679435E+02 -0.41018280476E+02  0.62500000766E+02  0.10000003503E+02 0.  0.
    3000022    2    3    3    0    0  0.26710180799E+02  0.29414165201E+02 -0.38416583749E+02  0.55267741866E+02  0.25002253984E+00 0.  0.
    1000022    2    1    0    0    0 -0.29314348181E+02 -0.35558679435E+02  0.41018280476E+02  0.62499999234E+02  0.99999939292E+01 0.  0.
    3000022    2    5    5    0    0 -0.10234529158E+02 -0.11340512309E+02  0.77503573367E+01  0.17131355625E+02  0.25000039073E+00 0.  0.
        -13    1    4    4    0    0  0.12528686390E+02  0.13744738723E+02 -0.17902368193E+02  0.25814562502E+02  0.10500000000E+00 0. -1.
         13    1    4    4    0    0  0.14181494409E+02  0.15669426478E+02 -0.20514215555E+02  0.29453179365E+02  0.10500000000E+00 0.  1.
    3000001    1    5    5    0    0 -0.19079819024E+02 -0.24218167127E+02  0.33267923139E+02  0.45368643609E+02  0.10000000000E+01 0. -1.
        -13    1    6    6    0    0 -0.29568483496E+01 -0.33390102848E+01  0.22761826099E+01  0.50083903720E+01  0.10500000000E+00 0.  1.
         13    1    6    6    0    0 -0.72776808080E+01 -0.80015020242E+01  0.54741747267E+01  0.12122965253E+02  0.10500000000E+00 0. -1.
</event>
<event>
11    0  0.3462209E-009  0.9118800E+02  0.7816531E-02  0.1126479E+00
         25   -1    0    0    0    0  0.00000000000E+00  0.00000000000E+00  0.99999998245E-14  0.12500000000E+03  0.12500000000E+03 0.  0.
    3000001    1    3    3    0    0 -0.69687573064E+01 -0.36157583124E+01 -0.12615504256E+01  0.80142869955E+01  0.10000000000E+01 0. -1.
    1000022    2    1    0    0    0 -0.38553419148E+02 -0.47514691752E+02 -0.78890585963E+01  0.62500006103E+02  0.10000072850E+02 0.  0.
    3000022    2    3    3    0    0 -0.31584661842E+02 -0.43898933440E+02 -0.66275081706E+01  0.54485719108E+02  0.25000259331E+00 0.  0.
    1000022    2    1    0    0    0  0.38553419148E+02  0.47514691752E+02  0.78890585963E+01  0.62499993897E+02  0.99999965616E+01 0.  0.
    3000022    2    5    5    0    0  0.83595196262E+00  0.14105639190E+00 -0.94755487624E+00  0.12957914609E+01  0.25000535414E+00 0.  0.
        -13    1    4    4    0    0 -0.10475936875E+02 -0.14516152756E+02 -0.21471093117E+01  0.18030115020E+02  0.10500000000E+00 0. -1.
         13    1    4    4    0    0 -0.21108724967E+02 -0.29382780684E+02 -0.44803988590E+01  0.36455604087E+02  0.10500000000E+00 0.  1.
    3000001    1    5    5    0    0  0.37717467185E+02  0.47373635361E+02  0.88366134725E+01  0.61204202436E+02  0.10000000000E+01 0.  1.
        -13    1    6    6    0    0  0.37082379366E+00  0.15383690548E-01 -0.34796244208E+00  0.51947069694E+00  0.10500000000E+00 0. -1.
         13    1    6    6    0    0  0.46512816897E+00  0.12567270135E+00 -0.59959243416E+00  0.77632076394E+00  0.10500000000E+00 0.  1.
</event>
<event>
11    0  0.3462209E-009  0.9118800E+02  0.7816531E-02  0.1126479E+00
         25   -1    0    0    0    0  0.00000000000E+00  0.00000000000E+00  0.99999998245E-14  0.12500000000E+03  0.12500000000E+03 0.  0.
    3000001    1    3    3    0    0 -0.23040060130E+02  0.14628500950E+02 -0.22472685303E+02  0.35367485005E+02  0.10000000000E+01 0.  1.
    1000022    2    1    0    0    0 -0.38147653162E+02  0.33000288320E+02 -0.35524464370E+02  0.62500000106E+02  0.99999986802E+01 0.  0.
    3000022    2    3    3    0    0 -0.15107593031E+02  0.18371787369E+02 -0.13051779067E+02  0.27132515101E+02  0.25000112598E+00 0.  0.
    1000022    2    1    0    0    0  0.38147653162E+02 -0.33000288320E+02  0.35524464370E+02  0.62499999894E+02  0.99999973518E+01 0.  0.
    3000022    2    5    5    0    0  0.10428587579E+02 -0.48365961703E+01  0.11395886224E+02  0.16188787044E+02  0.25000344600E+00 0.  0.
        -13    1    4    4    0    0 -0.54042427013E+01  0.66625651492E+01 -0.47170585143E+01  0.97906730907E+01  0.10500000000E+00 0.  1.
         13    1    4    4    0    0 -0.97033503301E+01  0.11709222220E+02 -0.83347205525E+01  0.17341842010E+02  0.10500000000E+00 0. -1.
    3000001    1    5    5    0    0  0.27719065583E+02 -0.28163692149E+02  0.24128578145E+02  0.46311212849E+02  0.10000000000E+01 0.  1.
        -13    1    6    6    0    0  0.32347548521E+01 -0.15105137971E+01  0.34730071929E+01  0.49817762742E+01  0.10500000000E+00 0.  1.
         13    1    6    6    0    0  0.71938327270E+01 -0.33260823731E+01  0.79228790312E+01  0.11207010770E+02  0.10500000000E+00 0. -1.
</event>
<event>
11    0  0.3462209E-009  0.9118800E+02  0.7816531E-02  0.1126479E+00
         25   -1    0    0    0    0  0.00000000000E+00  0.00000000000E+00  0.99999998245E-14  0.12500000000E+03  0.12500000000E+03 0.  0.
    3000001    1    3    3    0    0  0.36655989878E+02  0.44749477472E+02 -0.24800534456E+01  0.57907926859E+02  0.10000000000E+01 0. -1.
    1000022    2    1    0    0    0  0.41058432295E+02  0.45996593927E+02 -0.21836775667E+01  0.62500000104E+02  0.10000002497E+02 0.  0.
    3000022    2    3    3    0    0  0.44024424169E+01  0.12471164546E+01  0.29637587891E+00  0.45920732457E+01  0.24999869267E+00 0.  0.
    1000022    2    1    0    0    0 -0.41058432295E+02 -0.45996593927E+02  0.21836775667E+01  0.62499999896E+02  0.10000001191E+02 0.  0.
    3000022    2    5    5    0    0 -0.37500591907E+02 -0.37339350508E+02  0.32867292567E+01  0.53022509992E+02  0.24997379684E+00 0.  0.
        -13    1    4    4    0    0  0.27697924234E+01  0.77063541503E+00  0.12773545054E+00  0.28797517874E+01  0.10500000000E+00 0. -1.
         13    1    4    4    0    0  0.16326499935E+01  0.47648103958E+00  0.16864042837E+00  0.17123214583E+01  0.10500000000E+00 0.  1.
    3000001    1    5    5    0    0 -0.35578403879E+01 -0.86572434194E+01 -0.11030516900E+01  0.94774899039E+01  0.10000000000E+01 0.  1.
        -13    1    6    6    0    0 -0.20123507606E+02 -0.20124617333E+02  0.17419925476E+01  0.28513178430E+02  0.10500000000E+00 0.  1.
         13    1    6    6    0    0 -0.17377084301E+02 -0.17214733175E+02  0.15447367090E+01  0.24509331561E+02  0.10500000000E+00 0. -1.
</event>
<event>
11    0  0.3462209E-009  0.9118800E+02  0.7816531E-02  0.1126479E+00
         25   -1    0    0    0    0  0.00000000000E+00  0.00000000000E+00  0.99999998245E-14  0.12500000000E+03  0.12500000000E+03 0.  0.
    3000001    1    3    3    0    0  0.47819090780E+02 -0.28394415422E+02  0.14196182996E+02  0.57405922010E+02  0.10000000000E+01 0. -1.
    1000022    2    1    0    0    0  0.50680064456E+02 -0.32527206461E+02  0.13407525523E+02  0.62499998865E+02  0.10000001203E+02 0.  0.
    3000022    2    3    3    0    0  0.28609736763E+01 -0.41327910382E+01 -0.78865747327E+00  0.50940768546E+01  0.25001249587E+00 0.  0.
    1000022    2    1    0    0    0 -0.50680064456E+02  0.32527206461E+02 -0.13407525523E+02  0.62500001135E+02  0.10000015390E+02 0.  0.
    3000022    2    5    5    0    0 -0.31804838890E+02  0.14823508797E+02 -0.63818356040E+01  0.35666153666E+02  0.25000356012E+00 0.  0.
        -13    1    4    4    0    0  0.86116205380E+00 -0.12998595063E+01 -0.20787826109E+00  0.15765383568E+01  0.10500000000E+00 0.  1.
         13    1    4    4    0    0  0.19998116225E+01 -0.28329315320E+01 -0.58077921219E+00  0.35175384978E+01  0.10500000000E+00 0. -1.
    3000001    1    5    5    0    0 -0.18875225566E+02  0.17703697664E+02 -0.70256899188E+01  0.26833847469E+02  0.10000000000E+01 0. -1.
        -13    1    6    6    0    0 -0.12675122636E+02  0.59287534378E+01 -0.26059167227E+01  0.14234137772E+02  0.10500000000E+00 0.  1.
         13    1    6    6    0    0 -0.19129716254E+02  0.88947553589E+01 -0.37759188813E+01  0.21432015894E+02  0.10500000000E+00 0. -1.
</event>
<event>
11    0  0.3462209E-009  0.9118800E+02  0.7816531E-02  0.1126479E+00
         25   -1    0    0    0    0  0.00000000000E+00  0.00000000000E+00  0.99999998245E-14  0.12500000000E+03  0.12500000000E+03 0.  0.
    3000001    1    3    3    0    0  0.26591261539E+02 -0.32420785436E+02  0.30025271326E+02  0.51582162001E+02  0.10000000000E+01 0. -1.
    1000022    2    1    0    0    0  0.27907006867E+02 -0.40226633263E+02  0.37540213134E+02  0.62500004875E+02  0.99999975669E+01 0.  0.
    3000022    2    3    3    0    0  0.13157453273E+01 -0.78058478270E+01  0.75149418080E+01  0.10917842874E+02  0.24999315399E+00 0.  0.
    1000022    2    1    0    0    0 -0.27907006867E+02  0.40226633263E+02 -0.37540213134E+02  0.62499995125E+02  0.99999366279E+01 0.  0.
    3000022    2    5    5    0    0 -0.78190306244E+01  0.19136838166E+02 -0.18005781076E+02  0.27415806627E+02  0.24997190296E+00 0.  0.
        -13    1    4    4    0    0  0.75701465975E+00 -0.47055858244E+01  0.45950846365E+01  0.66212866546E+01  0.10500000000E+00 0.  1.
         13    1    4    4    0    0  0.55873066759E+00 -0.31002620026E+01  0.29198571715E+01  0.42965562193E+01  0.10500000000E+00 0. -1.
    3000001    1    5    5    0    0 -0.20087976242E+02  0.21089795096E+02 -0.19534432058E+02  0.35084188498E+02  0.10000000000E+01 0. -1.
        -13    1    6    6    0    0 -0.28886593554E+01  0.72279639953E+01 -0.67908984446E+01  0.10330302177E+02  0.10500000000E+00 0. -1.
         13    1    6    6    0    0 -0.49303712690E+01  0.11908874171E+02 -0.11214882631E+02  0.17085504450E+02  0.10500000000E+00 0.  1.
</event>
<event>
11    0  0.3462209E-009  0.9118800E+02  0.7816531E-02  0.1126479E+00
         25   -1    0    0    0    0  0.00000000000E+00  0.00000000000E+00  0.99999998245E-14  0.12500000000E+03  0.12500000000E+03 0.  0.
    3000001    1    3    3    0    0 -0.25540213725E+02  0.40515020113E+02 -0.17401529517E+02  0.50966485079E+02  0.10000000000E+01 0.  1.
    1000022    2    1    0    0    0 -0.33598419826E+02  0.46127014699E+02 -0.23445565997E+02  0.62500003292E+02  0.10000027332E+02 0.  0.
    3000022    2    3    3    0    0 -0.80582061020E+01  0.56119945865E+01 -0.60440364808E+01  0.11533518212E+02  0.24999311343E+00 0.  0.
    1000022    2    1    0    0    0  0.33598419826E+02 -0.46127014699E+02  0.23445565997E+02  0.62499996708E+02  0.99999861839E+01 0.  0.
    3000022    2    5    5    0    0  0.30501902730E+02 -0.38228480676E+02  0.16921696819E+02  0.51751223434E+02  0.24999742255E+00 0.  0.
        -13    1    4    4    0    0 -0.56005667407E+01  0.38432763842E+01 -0.41677706739E+01  0.79698468349E+01  0.10500000000E+00 0.  1.
         13    1    4    4    0    0 -0.24576393612E+01  0.17687182023E+01 -0.18762658069E+01  0.35636713776E+01  0.10500000000E+00 0. -1.
    3000001    1    5    5    0    0  0.30965170964E+01 -0.78985340233E+01  0.65238691787E+01  0.10748773274E+02  0.10000000000E+01 0.  1.
        -13    1    6    6    0    0  0.11964900531E+02 -0.15090866819E+02  0.66430196137E+01  0.20372379357E+02  0.10500000000E+00 0. -1.
         13    1    6    6    0    0  0.18537002199E+02 -0.23137613857E+02  0.10278677205E+02  0.31378844077E+02  0.10500000000E+00 0.  1.
</event>
<event>
11    0  0.3462209E-009  0.9118800E+02  0.7816531E-02  0.1126479E+00
         25   -1    0    0    0    0  0.00000000000E+00  0.00000000000E+00  0.99999998245E-14  0.12500000000E+03  0.12500000000E+03 0.  0.
    3000001    1    3    3    0    0 -0.30542024345E+01 -0.38041718942E+01 -0.51965390152E+01  0.71974922055E+01  0.10000000000E+01 0. -1.
    1000022    2    1    0    0    0 -0.44018571156E+02 -0.13585525406E+02 -0.41037167437E+02  0.62500001417E+02  0.99999979325E+01 0.  0.
    3000022    2    3    3    0    0 -0.40964368722E+02 -0.97813535119E+01 -0.35840628422E+02  0.55302509212E+02  0.24999620268E+00 0.  0.
    1000022    2    1    0    0    0  0.44018571156E+02  0.13585525406E+02  0.41037167437E+02  0.62499998583E+02  0.99999802188E+01 0.  0.
    3000022    2    5    5    0    0  0.13219295265E+02  0.89673380125E+01  0.14332831166E+02  0.21462885796E+02  0.24999821191E+00 0.  0.
        -13    1    4    4    0    0 -0.15496994825E+02 -0.36984745111E+01 -0.13638002599E+02  0.20972403349E+02  0.10500000000E+00 0. -1.
         13    1    4    4    0    0 -0.25467373896E+02 -0.60828790008E+01 -0.22202625823E+02  0.34330105863E+02  0.10500000000E+00 0.  1.
    3000001    1    5    5    0    0  0.30799275891E+02  0.46181873936E+01  0.26704336272E+02  0.41037112787E+02  0.10000000000E+01 0. -1.
        -13    1    6    6    0    0  0.86684165529E+01  0.58610359459E+01  0.94600448562E+01  0.14106617652E+02  0.10500000000E+00 0.  1.
         13    1    6    6    0    0  0.45508787125E+01  0.31063020666E+01  0.48727863097E+01  0.73562681439E+01  0.10500000000E+00 0. -1.
</event>
<event>
11    0  0.3462209E-009  0.9118800E+02  0.7816531E-02  0.1126479E+00
         25   -1    0    0    0    0  0.00000000000E+00  0.00000000000E+00  0.99999998245E-14  0.12500000000E+03  0.12500000000E+03 0.  0.
    3000001    1    3    3    0    0  0.89480729059E+01  0.11191793358E+02 -0.18252732177E+02  0.23226848242E+02  0.10000000000E+01 0.  1.
    1000022    2    1    0    0    0  0.32384844593E+02  0.33892047620E+02 -0.40109862351E+02  0.62499999978E+02  0.99999944166E+01 0.  0.
    3000022    2    3    3    0    0  0.23436771687E+02  0.22700254262E+02 -0.21857130173E+02  0.39273151737E+02  0.24999453486E+00 0.  0.
    1000022    2    1    0    0    0 -0.32384844593E+02 -0.33892047620E+02  0.40109862351E+02  0.62500000022E+02  0.99999946864E+01 0.  0.
    3000022    2    5    5    0    0 -0.25535625461E+02 -0.27339967396E+02  0.26341422262E+02  0.45754508077E+02  0.24999544589E+00 0.  0.
        -13    1    4    4    0    0  0.90977612675E+01  0.87391405634E+01 -0.84114932395E+01  0.15162654167E+02  0.10500000000E+00 0. -1.
         13    1    4    4    0    0  0.14339010419E+02  0.13961113699E+02 -0.13445636934E+02  0.24110497570E+02  0.10500000000E+00 0.  1.
    3000001    1    5    5    0    0 -0.68492191314E+01 -0.65520802245E+01  0.13768440089E+02  0.16745491944E+02  0.10000000000E+01 0. -1.
        -13    1    6    6    0    0 -0.16687399806E+02 -0.17853253171E+02  0.17139430957E+02  0.29849272682E+02  0.10500000000E+00 0. -1.
         13    1    6    6    0    0 -0.88482256553E+01 -0.94867142244E+01  0.92019913047E+01  0.15905235396E+02  0.10500000000E+00 0.  1.
</event>
<event>
11    0  0.3462209E-009  0.9118800E+02  0.7816531E-02  0.1126479E+00
         25   -1    0    0    0    0  0.00000000000E+00  0.00000000000E+00  0.99999998245E-14  0.12500000000E+03  0.12500000000E+03 0.  0.
    3000001    1    3    3    0    0 -0.16737007984E+02  0.31184426621E+02 -0.17641641680E+02  0.39557849045E+02  0.10000000000E+01 0.  1.
    1000022    2    1    0    0    0 -0.21896742038E+02  0.52874600188E+02 -0.23044721764E+02  0.62499999321E+02  0.10000002849E+02 0.  0.
    3000022    2    3    3    0    0 -0.51597340545E+01  0.21690173567E+02 -0.54030800835E+01  0.22942150276E+02  0.24999996163E+00 0.  0.
    1000022    2    1    0    0    0  0.21896742038E+02 -0.52874600188E+02  0.23044721764E+02  0.62500000679E+02  0.10000011339E+02 0.  0.
    3000022    2    5    5    0    0  0.18941976824E+02 -0.40815231837E+02  0.21745623355E+02  0.49976157053E+02  0.25000551456E+00 0.  0.
        -13    1    4    4    0    0 -0.17384581042E+01  0.72347908078E+01 -0.18556117827E+01  0.76693386090E+01  0.10500000000E+00 0. -1.
         13    1    4    4    0    0 -0.34212759502E+01  0.14455382760E+02 -0.35474683008E+01  0.15272811667E+02  0.10500000000E+00 0.  1.
    3000001    1    5    5    0    0  0.29547652144E+01 -0.12059368351E+02  0.12990984086E+01  0.12523843626E+02  0.10000000000E+01 0.  1.
        -13    1    6    6    0    0  0.12641801347E+02 -0.27355582949E+02  0.14586553787E+02  0.33480167804E+02  0.10500000000E+00 0. -1.
         13    1    6    6    0    0  0.63001754772E+01 -0.13459648888E+02  0.71590695681E+01  0.16495989249E+02  0.10500000000E+00 0.  1.
</event>
<event>
11    0  0.3462209E-009  0.9118800E+02  0.7816531E-02  0.1126479E+00
         25   -1    0    0    0    0  0.00000000000E+00  0.00000000000E+00  0.99999998245E-14  0.12500000000E+03  0.12500000000E+03 0.  0.
    3000001    1    3    3    0    0 -0.66878055225E+01  0.18020591681E+02 -0.15877987019E+02  0.24951531797E+02  0.10000000000E+01 0.  1.
    1000022    2    1    0    0    0 -0.21936895874E+02  0.49422521018E+02 -0.29705834110E+02  0.62500004191E+02  0.10000047966E+02 0.  0.
    3000022    2    3    3    0    0 -0.15249090352E+02  0.31401929338E+02 -0.13827847091E+02  0.37548472395E+02  0.25000261574E+00 0.  0.
    1000022    2    1    0    0    0  0.21936895874E+02 -0.49422521018E+02  0.29705834110E+02  0.62499995809E+02  0.99999955738E+01 0.  0.
    3000022    2    5    5    0    0  0.18700783350E+02 -0.34575159606E+02  0.24894925451E+02  0.46529353764E+02  0.24997763496E+00 0.  0.
        -13    1    4    4    0    0 -0.71247792383E+01  0.14611993138E+02 -0.65061313121E+01  0.17510385270E+02  0.10500000000E+00 0. -1.
         13    1    4    4    0    0 -0.81243111135E+01  0.16789936199E+02 -0.73217157793E+01  0.20038087124E+02  0.10500000000E+00 0.  1.
    3000001    1    5    5    0    0  0.32361125246E+01 -0.14847361413E+02  0.48109086589E+01  0.15970642045E+02  0.10000000000E+01 0.  1.
        -13    1    6    6    0    0  0.43008680179E+01 -0.79554455556E+01  0.57201862044E+01  0.10701314635E+02  0.10500000000E+00 0. -1.
         13    1    6    6    0    0  0.14399915332E+02 -0.26619714050E+02  0.19174739247E+02  0.35828039129E+02  0.10500000000E+00 0.  1.
</event>
<event>
11    0  0.3462209E-009  0.9118800E+02  0.7816531E-02  0.1126479E+00
         25   -1    0    0    0    0  0.00000000000E+00  0.00000000000E+00  0.99999998245E-14  0.12500000000E+03  0.12500000000E+03 0.  0.
    3000001    1    3    3    0    0 -0.92066726719E+00 -0.26416106756E+01  0.35696176571E+02  0.35819586220E+02  0.10000000000E+01 0. -1.
    1000022    2    1    0    0    0 -0.92633734795E+01 -0.10366779973E+01  0.60986599231E+02  0.62500001165E+02  0.10000003516E+02 0.  0.
    3000022    2    3    3    0    0 -0.83427062123E+01  0.16049326782E+01  0.25290422660E+02  0.26680414945E+02  0.25001490064E+00 0.  0.
    1000022    2    1    0    0    0  0.92633734795E+01  0.10366779973E+01 -0.60986599231E+02  0.62499998835E+02  0.99999889570E+01 0.  0.
    3000022    2    5    5    0    0  0.10279366416E+02  0.24448362974E+00 -0.35464646776E+02  0.36925991119E+02  0.25000601009E+00 0.  0.
        -13    1    4    4    0    0 -0.28582773019E+01  0.58050450772E+00  0.88313444468E+01  0.93010969437E+01  0.10500000000E+00 0. -1.
         13    1    4    4    0    0 -0.54844289104E+01  0.10244281705E+01  0.16459078213E+02  0.17379318001E+02  0.10500000000E+00 0.  1.
    3000001    1    5    5    0    0 -0.10159929361E+01  0.79219436761E+00 -0.25521952455E+02  0.25574007717E+02  0.10000000000E+01 0.  1.
        -13    1    6    6    0    0  0.38856857001E+01  0.95136028524E-01 -0.13626021028E+02  0.14169935719E+02  0.10500000000E+00 0. -1.
         13    1    6    6    0    0  0.63936807155E+01  0.14934760121E+00 -0.21838625748E+02  0.22756055399E+02  0.10500000000E+00 0.  1.
</event>
<event>
11    0  0.3462209E-009  0.9118800E+02  0.7816531E-02  0.1126479E+00
         25   -1    0    0    0    0  0.00000000000E+00  0.00000000000E+00  0.99999998245E-14  0.12500000000E+03  0.12500000000E+03 0.  0.
    3000001    1    3    3    0    0  0.92154681733E+01  0.16883726811E+02  0.18542839736E+00  0.19261865651E+02  0.10000000000E+01 0.  1.
    1000022    2    1    0    0    0  0.22300218354E+02  0.56273274637E+02 -0.11927650182E+02  0.62500000866E+02  0.10000004619E+02 0.  0.
    3000022    2    3    3    0    0  0.13084750180E+02  0.39389547826E+02 -0.12113078580E+02  0.43238135215E+02  0.24999787261E+00 0.  0.
    1000022    2    1    0    0    0 -0.22300218354E+02 -0.56273274637E+02  0.11927650182E+02  0.62499999134E+02  0.99999937956E+01 0.  0.
    3000022    2    5    5    0    0 -0.80570131949E+01 -0.20172252017E+02  0.91723481041E+01  0.23580281548E+02  0.24999020863E+00 0.  0.
        -13    1    4    4    0    0  0.96652822364E+01  0.29171875756E+02 -0.89473552710E+01  0.32007533600E+02  0.10500000000E+00 0. -1.
         13    1    4    4    0    0  0.34194679441E+01  0.10217672070E+02 -0.31657233087E+01  0.11230601614E+02  0.10500000000E+00 0.  1.
    3000001    1    5    5    0    0 -0.14243205159E+02 -0.36101022620E+02  0.27553020782E+01  0.38919717586E+02  0.10000000000E+01 0. -1.
        -13    1    6    6    0    0 -0.32046603178E+01 -0.79593993967E+01  0.35605027102E+01  0.92903224410E+01  0.10500000000E+00 0. -1.
         13    1    6    6    0    0 -0.48523528771E+01 -0.12212852620E+02  0.56118453939E+01  0.14289959107E+02  0.10500000000E+00 0.  1.
</event>
<event>
11    0  0.3462209E-009  0.9118800E+02  0.7816531E-02  0.1126479E+00
         25   -1    0    0    0    0  0.00000000000E+00  0.00000000000E+00  0.99999998245E-14  0.12500000000E+03  0.12500000000E+03 0.  0.
    3000001    1    3    3    0    0 -0.54548437709E+01 -0.19340057933E+02 -0.16563714327E+01  0.20187538922E+02  0.10000000000E+01 0. -1.
    1000022    2    1    0    0    0 -0.26939397136E+02 -0.55365119477E+02  0.39015881412E+01  0.62500001723E+02  0.10000012632E+02 0.  0.
    3000022    2    3    3    0    0 -0.21484553365E+02 -0.36025061544E+02  0.55579595738E+01  0.42312462801E+02  0.25000221810E+00 0.  0.
    1000022    2    1    0    0    0  0.26939397136E+02  0.55365119477E+02 -0.39015881412E+01  0.62499998277E+02  0.99999910885E+01 0.  0.
    3000022    2    5    5    0    0  0.24468201687E+02  0.45495124370E+02 -0.61771475039E+01  0.52026136488E+02  0.24998258487E+00 0.  0.
        -13    1    4    4    0    0 -0.14237946943E+02 -0.23768955004E+02  0.36616037953E+01  0.27948179233E+02  0.10500000000E+00 0. -1.
         13    1    4    4    0    0 -0.72466064224E+01 -0.12256106540E+02  0.18963557785E+01  0.14364283568E+02  0.10500000000E+00 0.  1.
    3000001    1    5    5    0    0  0.24711954491E+01  0.98699951071E+01  0.22755593628E+01  0.10473861789E+02  0.10000000000E+01 0.  1.
        -13    1    6    6    0    0  0.11024321048E+02  0.20468565057E+02 -0.27144268292E+01  0.23406771415E+02  0.10500000000E+00 0. -1.
         13    1    6    6    0    0  0.13443880639E+02  0.25026559313E+02 -0.34627206747E+01  0.28619365073E+02  0.10500000000E+00 0.  1.
</event>
<event>
11    0  0.3462209E-009  0.9118800E+02  0.7816531E-02  0.1126479E+00
         25   -1    0    0    0    0  0.00000000000E+00  0.00000000000E+00  0.99999998245E-14  0.12500000000E+03  0.12500000000E+03 0.  0.
    3000001    1    3    3    0    0 -0.12951367924E+01 -0.84855694565E+01  0.24214344338E+01  0.89747207772E+01  0.10000000000E+01 0. -1.
    1000022    2    1    0    0    0  0.10833590537E+02 -0.53724813265E+02  0.28328918093E+02  0.62499999075E+02  0.10000001985E+02 0.  0.
    3000022    2    3    3    0    0  0.12128727329E+02 -0.45239243809E+02  0.25907483660E+02  0.53525278298E+02  0.25000047050E+00 0.  0.
    1000022    2    1    0    0    0 -0.10833590537E+02  0.53724813265E+02 -0.28328918093E+02  0.62500000925E+02  0.10000013551E+02 0.  0.
    3000022    2    5    5    0    0 -0.54010694562E+01  0.13157456463E+02 -0.36143266936E+01  0.14677059242E+02  0.24999738000E+00 0.  0.
        -13    1    4    4    0    0  0.88738798562E+01 -0.33014513823E+02  0.18877023647E+02  0.39051977075E+02  0.10500000000E+00 0.  1.
         13    1    4    4    0    0  0.32548474729E+01 -0.12224729985E+02  0.70304600124E+01  0.14473301222E+02  0.10500000000E+00 0. -1.
    3000001    1    5    5    0    0 -0.54325210805E+01  0.40567356802E+02 -0.24714591400E+02  0.47822941684E+02  0.10000000000E+01 0.  1.
        -13    1    6    6    0    0 -0.20074319016E+01  0.50429403034E+01 -0.13597193480E+01  0.55965070757E+01  0.10500000000E+00 0.  1.
         13    1    6    6    0    0 -0.33936375546E+01  0.81145161595E+01 -0.22546073456E+01  0.90805521659E+01  0.10500000000E+00 0. -1.
</event>
<event>
11    0  0.3462209E-009  0.9118800E+02  0.7816531E-02  0.1126479E+00
         25   -1    0    0    0    0  0.00000000000E+00  0.00000000000E+00  0.99999998245E-14  0.12500000000E+03  0.12500000000E+03 0.  0.
    3000001    1    3    3    0    0 -0.15968047203E+02 -0.23674776238E+02  0.57521865125E+01  0.29147233335E+02  0.10000000000E+01 0. -1.
    1000022    2    1    0    0    0 -0.24859160211E+02 -0.55414228922E+02  0.10841375743E+02  0.62500000582E+02  0.10000001564E+02 0.  0.
    3000022    2    3    3    0    0 -0.88911130078E+01 -0.31739452684E+02  0.50891892302E+01  0.33352767247E+02  0.24997759121E+00 0.  0.
    1000022    2    1    0    0    0  0.24859160211E+02  0.55414228922E+02 -0.10841375743E+02  0.62499999418E+02  0.99999942915E+01 0.  0.
    3000022    2    5    5    0    0  0.62966101622E+01  0.19152777776E+02  0.61243167545E+00  0.20172103086E+02  0.24994855236E+00 0.  0.
        -13    1    4    4    0    0 -0.28448950323E+01 -0.10242400082E+02  0.15951695277E+01  0.10749687344E+02  0.10500000000E+00 0. -1.
         13    1    4    4    0    0 -0.60462179755E+01 -0.21497052603E+02  0.34940197026E+01  0.22603079903E+02  0.10500000000E+00 0.  1.
    3000001    1    5    5    0    0  0.18562550048E+02  0.36261451147E+02 -0.11453807418E+02  0.42327896333E+02  0.10000000000E+01 0.  1.
        -13    1    6    6    0    0  0.23591779937E+01  0.70641520470E+01  0.17819426014E+00  0.74505532106E+01  0.10500000000E+00 0. -1.
         13    1    6    6    0    0  0.39374321685E+01  0.12088625729E+02  0.43423741531E+00  0.12721549875E+02  0.10500000000E+00 0.  1.
</event>
<event>
11    0  0.3462209E-009  0.9118800E+02  0.7816531E-02  0.1126479E+00
         25   -1    0    0    0    0  0.00000000000E+00  0.00000000000E+00  0.99999998245E-14  0.12500000000E+03  0.12500000000E+03 0.  0.
    3000001    1    3    3    0    0  0.30689122215E+02  0.14407088836E+02 -0.11200555788E+02  0.35718886895E+02  0.10000000000E+01 0. -1.
    1000022    2    1    0    0    0  0.48549352049E+02  0.27889164941E+02 -0.25911481779E+02  0.62500000146E+02  0.10000001237E+02 0.  0.
    3000022    2    3    3    0    0  0.17860229834E+02  0.13482076106E+02 -0.14710925990E+02  0.26781113250E+02  0.24999522729E+00 0.  0.
    1000022    2    1    0    0    0 -0.48549352049E+02 -0.27889164941E+02  0.25911481779E+02  0.62499999854E+02  0.99999994168E+01 0.  0.
    3000022    2    5    5    0    0 -0.10825805342E+02 -0.88305736991E+01  0.25674675826E+01  0.14206740749E+02  0.24999949564E+00 0.  0.
        -13    1    4    4    0    0  0.10858214693E+02  0.82191878684E+01 -0.88812191753E+01  0.16258627082E+02  0.10500000000E+00 0.  1.
         13    1    4    4    0    0  0.70020151402E+01  0.52628882373E+01 -0.58297068149E+01  0.10522486169E+02  0.10500000000E+00 0. -1.
    3000001    1    5    5    0    0 -0.37723546706E+02 -0.19058591242E+02  0.23344014196E+02  0.48293259106E+02  0.10000000000E+01 0. -1.
        -13    1    6    6    0    0 -0.29798169449E+01 -0.23865354163E+01  0.68667098507E+00  0.38803868828E+01  0.10500000000E+00 0.  1.
         13    1    6    6    0    0 -0.78459883976E+01 -0.64440382828E+01  0.18807965975E+01  0.10326353866E+02  0.10500000000E+00 0. -1.
</event>
<event>
11    0  0.3462209E-009  0.9118800E+02  0.7816531E-02  0.1126479E+00
         25   -1    0    0    0    0  0.00000000000E+00  0.00000000000E+00  0.99999998245E-14  0.12500000000E+03  0.12500000000E+03 0.  0.
    3000001    1    3    3    0    0 -0.18274222963E+02  0.12091320753E+02 -0.54662971720E+01  0.22605921065E+02  0.10000000000E+01 0.  1.
    1000022    2    1    0    0    0 -0.49832664771E+02  0.36296046194E+02 -0.23565563405E+01  0.62499992982E+02  0.99999158706E+01 0.  0.
    3000022    2    3    3    0    0 -0.31558441808E+02  0.24204725442E+02  0.31097408315E+01  0.39894071916E+02  0.25000594384E+00 0.  0.
    1000022    2    1    0    0    0  0.49832664771E+02 -0.36296046194E+02  0.23565563405E+01  0.62500007018E+02  0.10000003598E+02 0.  0.
    3000022    2    5    5    0    0  0.31459712181E+02 -0.17389065391E+02 -0.60570174008E+00  0.35951668409E+02  0.25000218688E+00 0.  0.
        -13    1    4    4    0    0 -0.72611479891E+01  0.55639759241E+01  0.72057585672E+00  0.91767288708E+01  0.10500000000E+00 0. -1.
         13    1    4    4    0    0 -0.24297293819E+02  0.18640749518E+02  0.23891649748E+01  0.30717343046E+02  0.10500000000E+00 0.  1.
    3000001    1    5    5    0    0  0.18372952590E+02 -0.18906980804E+02  0.29622580806E+01  0.26548338610E+02  0.10000000000E+01 0. -1.
        -13    1    6    6    0    0  0.13713796812E+02 -0.75126212590E+01 -0.23448606989E+00  0.15638852576E+02  0.10500000000E+00 0. -1.
         13    1    6    6    0    0  0.17745915369E+02 -0.98764441316E+01 -0.37121567019E+00  0.20312815832E+02  0.10500000000E+00 0.  1.
</event>
<event>
11    0  0.3462209E-009  0.9118800E+02  0.7816531E-02  0.1126479E+00
         25   -1    0    0    0    0  0.00000000000E+00  0.00000000000E+00  0.99999998245E-14  0.12500000000E+03  0.12500000000E+03 0.  0.
    3000001    1    3    3    0    0 -0.40619976446E+01 -0.48596671133E+02 -0.18488304288E+02  0.52162761292E+02  0.10000000000E+01 0. -1.
    1000022    2    1    0    0    0 -0.80553779198E+00 -0.58212814909E+02 -0.20417375487E+02  0.62500000077E+02  0.10000003851E+02 0.  0.
    3000022    2    3    3    0    0  0.32564598526E+01 -0.96161437756E+01 -0.19290711993E+01  0.10337238785E+02  0.24987621254E+00 0.  0.
    1000022    2    1    0    0    0  0.80553779198E+00  0.58212814909E+02  0.20417375487E+02  0.62499999923E+02  0.10000002894E+02 0.  0.
    3000022    2    5    5    0    0  0.42564002967E+01  0.31746862320E+02  0.78364964462E+01  0.32976558120E+02  0.24999649079E+00 0.  0.
        -13    1    4    4    0    0  0.13555794409E+01 -0.41343110617E+01 -0.77594928986E+00  0.44207743526E+01  0.10500000000E+00 0. -1.
         13    1    4    4    0    0  0.19008804117E+01 -0.54818327138E+01 -0.11531219095E+01  0.59164644324E+01  0.10500000000E+00 0.  1.
    3000001    1    5    5    0    0 -0.34508625048E+01  0.26465952589E+02  0.12580879041E+02  0.29523441804E+02  0.10000000000E+01 0. -1.
        -13    1    6    6    0    0  0.31586509876E+01  0.23675144193E+02  0.58684289069E+01  0.24595507952E+02  0.10500000000E+00 0.  1.
         13    1    6    6    0    0  0.10977493092E+01  0.80717181271E+01  0.19680675393E+01  0.83810501674E+01  0.10500000000E+00 0. -1.
</event>
<event>
11    0  0.3462209E-009  0.9118800E+02  0.7816531E-02  0.1126479E+00
         25   -1    0    0    0    0  0.00000000000E+00  0.00000000000E+00  0.99999998245E-14  0.12500000000E+03  0.12500000000E+03 0.  0.
    3000001    1    3    3    0    0 -0.72802055275E+01 -0.48290705058E+02  0.23715278839E+02  0.54299245280E+02  0.10000000000E+01 0. -1.
    1000022    2    1    0    0    0 -0.91038050472E+01 -0.53065439232E+02  0.30123575811E+02  0.62499999089E+02  0.99999979624E+01 0.  0.
    3000022    2    3    3    0    0 -0.18235995197E+01 -0.47747341738E+01  0.64082969720E+01  0.82007538092E+01  0.24998263460E+00 0.  0.
    1000022    2    1    0    0    0  0.91038050472E+01  0.53065439232E+02 -0.30123575811E+02  0.62500000911E+02  0.10000009352E+02 0.  0.
    3000022    2    5    5    0    0 -0.18223725112E+01  0.11538269379E+02 -0.82163111638E+01  0.14283660980E+02  0.25000003789E+00 0.  0.
        -13    1    4    4    0    0 -0.10784691316E+01 -0.28424973261E+01  0.39116010894E+01  0.49552532528E+01  0.10500000000E+00 0. -1.
         13    1    4    4    0    0 -0.74513038806E+00 -0.19322368477E+01  0.24966958826E+01  0.32455005563E+01  0.10500000000E+00 0.  1.
    3000001    1    5    5    0    0  0.10926177558E+02  0.41527169853E+02 -0.21907264647E+02  0.48216339931E+02  0.10000000000E+01 0. -1.
        -13    1    6    6    0    0 -0.10357697202E+01  0.61920241194E+01 -0.44587824227E+01  0.77010224841E+01  0.10500000000E+00 0.  1.
         13    1    6    6    0    0 -0.78660279099E+00  0.53462452599E+01 -0.37575287411E+01  0.65826384961E+01  0.10500000000E+00 0. -1.
</event>
<event>
11    0  0.3462209E-009  0.9118800E+02  0.7816531E-02  0.1126479E+00
         25   -1    0    0    0    0  0.00000000000E+00  0.00000000000E+00  0.99999998245E-14  0.12500000000E+03  0.12500000000E+03 0.  0.
    3000001    1    3    3    0    0 -0.90065912278E+01  0.17321230986E+02 -0.19237027114E+01  0.19642921385E+02  0.10000000000E+01 0.  1.
    1000022    2    1    0    0    0 -0.16578752831E+02  0.59421364689E+02  0.70458705644E+00  0.62500001316E+02  0.10000004736E+02 0.  0.
    3000022    2    3    3    0    0 -0.75721616030E+01  0.42100133703E+02  0.26282897678E+01  0.42857079932E+02  0.25000800752E+00 0.  0.
    1000022    2    1    0    0    0  0.16578752831E+02 -0.59421364689E+02 -0.70458705644E+00  0.62499998684E+02  0.99999882798E+01 0.  0.
    3000022    2    5    5    0    0  0.10781690701E+02 -0.31150979111E+02 -0.48782207254E+01  0.33323983739E+02  0.25000164248E+00 0.  0.
        -13    1    4    4    0    0 -0.34420656765E+01  0.18952483073E+02  0.12417666985E+01  0.19302783227E+02  0.10500000000E+00 0. -1.
         13    1    4    4    0    0 -0.41300959265E+01  0.23147650630E+02  0.13865230693E+01  0.23554296705E+02  0.10500000000E+00 0.  1.
    3000001    1    5    5    0    0  0.57970621300E+01 -0.28270385578E+02  0.41736336689E+01  0.29176014945E+02  0.10000000000E+01 0. -1.
        -13    1    6    6    0    0  0.70474752081E+01 -0.20284909037E+02 -0.32287224682E+01  0.21715895450E+02  0.10500000000E+00 0. -1.
         13    1    6    6    0    0  0.37342154927E+01 -0.10866070075E+02 -0.16494982572E+01  0.11608088288E+02  0.10500000000E+00 0.  1.
</event>
<event>
11    0  0.3462209E-009  0.9118800E+02  0.7816531E-02  0.1126479E+00
         25   -1    0    0    0    0  0.00000000000E+00  0.00000000000E+00  0.99999998245E-14  0.12500000000E+03  0.12500000000E+03 0.  0.
    3000001    1    3    3    0    0 -0.30834037992E+02 -0.12694450988E+02  0.66844784179E+01  0.34023069181E+02  0.10000000000E+01 0.  1.
    1000022    2    1    0    0    0 -0.55527445880E+02 -0.18276830627E+02  0.19720796461E+02  0.62499997391E+02  0.10000003852E+02 0.  0.
    3000022    2    3    3    0    0 -0.24693407888E+02 -0.55823796392E+01  0.13036318043E+02  0.28476928210E+02  0.24999314754E+00 0.  0.
    1000022    2    1    0    0    0  0.55527445880E+02  0.18276830627E+02 -0.19720796461E+02  0.62500002609E+02  0.10000036470E+02 0.  0.
    3000022    2    5    5    0    0  0.36151378393E+02  0.13189520430E+02 -0.17643871625E+02  0.42335024725E+02  0.25000735698E+00 0.  0.
        -13    1    4    4    0    0 -0.89938334551E+01 -0.20009149172E+01  0.46889226334E+01  0.10338748531E+02  0.10500000000E+00 0.  1.
         13    1    4    4    0    0 -0.15699574433E+02 -0.35814647220E+01  0.83473954097E+01  0.18138179679E+02  0.10500000000E+00 0. -1.
    3000001    1    5    5    0    0  0.19376067487E+02  0.50873101973E+01 -0.20769248363E+01  0.20164977884E+02  0.10000000000E+01 0. -1.
        -13    1    6    6    0    0  0.19147129278E+02  0.69300588738E+01 -0.92891798299E+01  0.22381647895E+02  0.10500000000E+00 0.  1.
         13    1    6    6    0    0  0.17004249115E+02  0.62594615561E+01 -0.83546917948E+01  0.19953376830E+02  0.10500000000E+00 0. -1.
</event>
<event>
11    0  0.3462209E-009  0.9118800E+02  0.7816531E-02  0.1126479E+00
         25   -1    0    0    0    0  0.00000000000E+00  0.00000000000E+00  0.99999998245E-14  0.12500000000E+03  0.12500000000E+03 0.  0.
    3000001    1    3    3    0    0 -0.10755490262E+02 -0.14754463273E+02  0.96999543202E+01  0.20699368857E+02  0.10000000000E+01 0.  1.
    1000022    2    1    0    0    0 -0.41185502175E+02 -0.33763800898E+02  0.31144990238E+02  0.62499998122E+02  0.99999753925E+01 0.  0.
    3000022    2    3    3    0    0 -0.30430011913E+02 -0.19009337625E+02  0.21445035918E+02  0.41800629265E+02  0.24999900520E+00 0.  0.
    1000022    2    1    0    0    0  0.41185502175E+02  0.33763800898E+02 -0.31144990238E+02  0.62500001878E+02  0.99999988633E+01 0.  0.
    3000022    2    5    5    0    0  0.41240363828E+02  0.32184547753E+02 -0.29932866229E+02  0.60271483332E+02  0.24999916970E+00 0.  0.
        -13    1    4    4    0    0 -0.22338393730E+02 -0.13993569555E+02  0.15745322786E+02  0.30704234854E+02  0.10500000000E+00 0.  1.
         13    1    4    4    0    0 -0.80916181828E+01 -0.50157680698E+01  0.56997131323E+01  0.11096394412E+02  0.10500000000E+00 0. -1.
    3000001    1    5    5    0    0 -0.54861652610E-01  0.15792531449E+01 -0.12121240086E+01  0.22285185458E+01  0.10000000000E+01 0. -1.
        -13    1    6    6    0    0  0.18314447915E+02  0.14360348328E+02 -0.13362469106E+02  0.26836639361E+02  0.10500000000E+00 0. -1.
         13    1    6    6    0    0  0.22925915912E+02  0.17824199425E+02 -0.16570397123E+02  0.33434843971E+02  0.10500000000E+00 0.  1.
</event>
<event>
11    0  0.3462209E-009  0.9118800E+02  0.7816531E-02  0.1126479E+00
         25   -1    0    0    0    0  0.00000000000E+00  0.00000000000E+00  0.99999998245E-14  0.12500000000E+03  0.12500000000E+03 0.  0.
    3000001    1    3    3    0    0  0.98814530691E+01 -0.13115973148E+02  0.20072692847E+02  0.25953513529E+02  0.10000000000E+01 0. -1.
    1000022    2    1    0    0    0  0.13285061448E+02 -0.28987799045E+02  0.52815383520E+02  0.62500000385E+02  0.99999980312E+01 0.  0.
    3000022    2    3    3    0    0  0.34036083791E+01 -0.15871825897E+02  0.32742690673E+02  0.36546486856E+02  0.25000341186E+00 0.  0.
    1000022    2    1    0    0    0 -0.13285061448E+02  0.28987799045E+02 -0.52815383520E+02  0.62499999615E+02  0.99999932204E+01 0.  0.
    3000022    2    5    5    0    0 -0.13405934496E+01  0.14682286771E+01 -0.10074455357E+02  0.10271807906E+02  0.25000134439E+00 0.  0.
        -13    1    4    4    0    0  0.17010750281E+01 -0.82318622933E+01  0.17011576429E+02  0.18975298962E+02  0.10500000000E+00 0.  1.
         13    1    4    4    0    0  0.17025333509E+01 -0.76399636034E+01  0.15731114243E+02  0.17571187894E+02  0.10500000000E+00 0. -1.
    3000001    1    5    5    0    0 -0.11944467999E+02  0.27519570368E+02 -0.42740928163E+02  0.52228191709E+02  0.10000000000E+01 0.  1.
        -13    1    6    6    0    0 -0.31153567290E+00  0.37607867671E+00 -0.24729750944E+01  0.25229190364E+01  0.10500000000E+00 0. -1.
         13    1    6    6    0    0 -0.10290577767E+01  0.10921500003E+01 -0.76014802624E+01  0.77488888695E+01  0.10500000000E+00 0.  1.
</event>
<event>
11    0  0.3462209E-009  0.9118800E+02  0.7816531E-02  0.1126479E+00
         25   -1    0    0    0    0  0.00000000000E+00  0.00000000000E+00  0.99999998245E-14  0.12500000000E+03  0.12500000000E+03 0.  0.
    3000001    1    3    3    0    0  0.51656314429E+02  0.33472807216E+02  0.38224740172E+01  0.61679939616E+02  0.10000000000E+01 0. -1.
    1000022    2    1    0    0    0  0.52018495782E+02  0.33005381646E+02  0.33122388789E+01  0.62499999070E+02  0.99999918149E+01 0.  0.
    3000022    2    3    3    0    0  0.36218135316E+00 -0.46742557042E+00 -0.51023513834E+00  0.82005945449E+00  0.24999123196E+00 0.  0.
    1000022    2    1    0    0    0 -0.52018495782E+02 -0.33005381646E+02 -0.33122388789E+01  0.62500000930E+02  0.10000003440E+02 0.  0.
    3000022    2    5    5    0    0 -0.29637174922E+01 -0.23299978024E+01 -0.26789422485E+01  0.46316027175E+01  0.25000205893E+00 0.  0.
        -13    1    4    4    0    0  0.87339222934E-01 -0.10449166058E+00 -0.17240898683E+00  0.24350873851E+00  0.10500000000E+00 0. -1.
         13    1    4    4    0    0  0.27484213022E+00 -0.36293390984E+00 -0.33782615151E+00  0.57655071598E+00  0.10500000000E+00 0.  1.
    3000001    1    5    5    0    0 -0.49054778290E+02 -0.30675383844E+02 -0.63329663033E+00  0.57868398212E+02  0.10000000000E+01 0. -1.
        -13    1    6    6    0    0 -0.10998937739E+01 -0.85002178576E+00 -0.10607185824E+01  0.17516998206E+01  0.10500000000E+00 0. -1.
         13    1    6    6    0    0 -0.18638237182E+01 -0.14799760166E+01 -0.16182236661E+01  0.28799028970E+01  0.10500000000E+00 0.  1.
</event>
<event>
11    0  0.3462209E-009  0.9118800E+02  0.7816531E-02  0.1126479E+00
         25   -1    0    0    0    0  0.00000000000E+00  0.00000000000E+00  0.99999998245E-14  0.12500000000E+03  0.12500000000E+03 0.  0.
    3000001    1    3    3    0    0  0.32494575764E+01  0.13005732706E+02  0.12339596911E+02  0.18247567227E+02  0.10000000000E+01 0. -1.
    1000022    2    1    0    0    0  0.71982499431E+01  0.33070052180E+02  0.51583009305E+02  0.62499999841E+02  0.99999988898E+01 0.  0.
    3000022    2    3    3    0    0  0.39487923667E+01  0.20064319474E+02  0.39243412394E+02  0.44252432615E+02  0.24999781081E+00 0.  0.
    1000022    2    1    0    0    0 -0.71982499431E+01 -0.33070052180E+02 -0.51583009305E+02  0.62500000159E+02  0.10000000873E+02 0.  0.
    3000022    2    5    5    0    0 -0.79528091981E+01 -0.31105738826E+02 -0.43360333312E+02  0.53953639114E+02  0.25001335485E+00 0.  0.
        -13    1    4    4    0    0  0.20765551117E+01  0.10833366475E+02  0.21083193368E+02  0.23794662803E+02  0.10500000000E+00 0. -1.
         13    1    4    4    0    0  0.18722372550E+01  0.92309529994E+01  0.18160219025E+02  0.20457769812E+02  0.10500000000E+00 0.  1.
    3000001    1    5    5    0    0  0.75455925499E+00 -0.19643133543E+01 -0.82226759929E+01  0.85463610447E+01  0.10000000000E+01 0. -1.
        -13    1    6    6    0    0 -0.34930059518E+01 -0.13629385947E+02 -0.18891704499E+02  0.23555652735E+02  0.10500000000E+00 0.  1.
         13    1    6    6    0    0 -0.44598032463E+01 -0.17476352879E+02 -0.24468628812E+02  0.30397986379E+02  0.10500000000E+00 0. -1.
</event>
<event>
11    0  0.3462209E-009  0.9118800E+02  0.7816531E-02  0.1126479E+00
         25   -1    0    0    0    0  0.00000000000E+00  0.00000000000E+00  0.99999998245E-14  0.12500000000E+03  0.12500000000E+03 0.  0.
    3000001    1    3    3    0    0 -0.31957151850E+01 -0.21690303595E+01 -0.12356237454E+01  0.41766079878E+01  0.10000000000E+01 0.  1.
    1000022    2    1    0    0    0 -0.43238353589E+02 -0.41582701126E+02  0.14407428066E+02  0.62499998670E+02  0.99999798146E+01 0.  0.
    3000022    2    3    3    0    0 -0.40042638404E+02 -0.39413670766E+02  0.15643051812E+02  0.58323390682E+02  0.24999416733E+00 0.  0.
    1000022    2    1    0    0    0  0.43238353589E+02  0.41582701126E+02 -0.14407428066E+02  0.62500001330E+02  0.99999964357E+01 0.  0.
    3000022    2    5    5    0    0  0.23437405575E+02  0.29176859089E+02 -0.91993295415E+01  0.38539476521E+02  0.25000010125E+00 0.  0.
        -13    1    4    4    0    0 -0.26663129888E+02 -0.26187521106E+02  0.10441857470E+02  0.38804022595E+02  0.10500000000E+00 0. -1.
         13    1    4    4    0    0 -0.13379508516E+02 -0.13226149660E+02  0.52011943412E+01  0.19519368087E+02  0.10500000000E+00 0.  1.
    3000001    1    5    5    0    0  0.19800948014E+02  0.12405842036E+02 -0.52080985246E+01  0.23960524809E+02  0.10000000000E+01 0. -1.
        -13    1    6    6    0    0  0.15698285041E+02  0.19457532467E+02 -0.61462488472E+01  0.25745273795E+02  0.10500000000E+00 0. -1.
         13    1    6    6    0    0  0.77391205345E+01  0.97193266229E+01 -0.30530806944E+01  0.12794202725E+02  0.10500000000E+00 0.  1.
</event>
<event>
11    0  0.3462209E-009  0.9118800E+02  0.7816531E-02  0.1126479E+00
         25   -1    0    0    0    0  0.00000000000E+00  0.00000000000E+00  0.99999998245E-14  0.12500000000E+03  0.12500000000E+03 0.  0.
    3000001    1    3    3    0    0 -0.44252374987E+02 -0.24585775199E+02  0.13295027080E+02  0.52349697030E+02  0.10000000000E+01 0.  1.
    1000022    2    1    0    0    0 -0.50414985713E+02 -0.29744108441E+02  0.19490184414E+02  0.62499999776E+02  0.99999956087E+01 0.  0.
    3000022    2    3    3    0    0 -0.61626107258E+01 -0.51583332419E+01  0.61951573343E+01  0.10150302746E+02  0.24999728592E+00 0.  0.
    1000022    2    1    0    0    0  0.50414985713E+02  0.29744108441E+02 -0.19490184414E+02  0.62500000224E+02  0.99999984054E+01 0.  0.
    3000022    2    5    5    0    0  0.74096011380E+01  0.50062485686E+01 -0.69198140901E+01  0.11309776317E+02  0.24999911096E+00 0.  0.
        -13    1    4    4    0    0 -0.31827490710E+01 -0.25774590895E+01  0.31736778633E+01  0.51823202513E+01  0.10500000000E+00 0. -1.
         13    1    4    4    0    0 -0.29798616548E+01 -0.25808741524E+01  0.30214794710E+01  0.49679824945E+01  0.10500000000E+00 0.  1.
    3000001    1    5    5    0    0  0.43005384575E+02  0.24737859872E+02 -0.12570370324E+02  0.51190223906E+02  0.10000000000E+01 0. -1.
        -13    1    6    6    0    0  0.49027738712E+01  0.33411896462E+01 -0.45287184567E+01  0.74646537591E+01  0.10500000000E+00 0.  1.
         13    1    6    6    0    0  0.25068272668E+01  0.16650589224E+01 -0.23910956334E+01  0.38451225583E+01  0.10500000000E+00 0. -1.
</event>
<event>
11    0  0.3462209E-009  0.9118800E+02  0.7816531E-02  0.1126479E+00
         25   -1    0    0    0    0  0.00000000000E+00  0.00000000000E+00  0.99999998245E-14  0.12500000000E+03  0.12500000000E+03 0.  0.
    3000001    1    3    3    0    0  0.40521339730E+02  0.16725789007E+01 -0.15293671524E+02  0.43355194410E+02  0.10000000000E+01 0.  1.
    1000022    2    1    0    0    0  0.59050935312E+02  0.62592833303E+01 -0.16734947809E+02  0.62499999094E+02  0.99999909801E+01 0.  0.
    3000022    2    3    3    0    0  0.18529595582E+02  0.45867044296E+01 -0.14412762855E+01  0.19144804684E+02  0.24999820151E+00 0.  0.
    1000022    2    1    0    0    0 -0.59050935312E+02 -0.62592833303E+01  0.16734947809E+02  0.62500000906E+02  0.10000002301E+02 0.  0.
    3000022    2    5    5    0    0 -0.56941662927E+02 -0.42429352954E+01  0.16327659378E+02  0.59388638944E+02  0.24999605541E+00 0.  0.
        -13    1    4    4    0    0  0.11451071471E+02  0.28598463443E+01 -0.94714854302E+00  0.11841193956E+02  0.10500000000E+00 0. -1.
         13    1    4    4    0    0  0.70785241112E+01  0.17268580853E+01 -0.49412774247E+00  0.73036107280E+01  0.10500000000E+00 0.  1.
    3000001    1    5    5    0    0 -0.21092723847E+01 -0.20163480349E+01  0.40728843136E+00  0.31113619617E+01  0.10000000000E+01 0. -1.
        -13    1    6    6    0    0 -0.26945054113E+02 -0.20192134576E+01  0.77957578257E+01  0.28122909331E+02  0.10500000000E+00 0.  1.
         13    1    6    6    0    0 -0.29996608814E+02 -0.22237218379E+01  0.85319015523E+01  0.31265729613E+02  0.10500000000E+00 0. -1.
</event>
<event>
11    0  0.3462209E-009  0.9118800E+02  0.7816531E-02  0.1126479E+00
         25   -1    0    0    0    0  0.00000000000E+00  0.00000000000E+00  0.99999998245E-14  0.12500000000E+03  0.12500000000E+03 0.  0.
    3000001    1    3    3    0    0 -0.46692342050E+01  0.87099762887E+01  0.21721539664E+02  0.23884947569E+02  0.10000000000E+01 0.  1.
    1000022    2    1    0    0    0 -0.67430020501E+01  0.32871905973E+02  0.51770839235E+02  0.62499999842E+02  0.99999953106E+01 0.  0.
    3000022    2    3    3    0    0 -0.20737678451E+01  0.24161929684E+02  0.30049299571E+02  0.38615052273E+02  0.24999636326E+00 0.  0.
    1000022    2    1    0    0    0  0.67430020501E+01 -0.32871905973E+02 -0.51770839235E+02  0.62500000158E+02  0.99999972882E+01 0.  0.
    3000022    2    5    5    0    0 -0.22937139893E+01 -0.78368779031E+01 -0.15222825985E+02  0.17276420692E+02  0.25000365153E+00 0.  0.
        -13    1    4    4    0    0 -0.51541739029E+00  0.57851676756E+01  0.71941887383E+01  0.92466857156E+01  0.10500000000E+00 0.  1.
         13    1    4    4    0    0 -0.15583504548E+01  0.18376762008E+02  0.22855110833E+02  0.29368366557E+02  0.10500000000E+00 0. -1.
    3000001    1    5    5    0    0  0.90367160393E+01 -0.25035028069E+02 -0.36548013250E+02  0.45223579466E+02  0.10000000000E+01 0.  1.
        -13    1    6    6    0    0 -0.12867083695E+01 -0.42162215542E+01 -0.81236359751E+01  0.92431936623E+01  0.10500000000E+00 0.  1.
         13    1    6    6    0    0 -0.10070056197E+01 -0.36206563490E+01 -0.70991900095E+01  0.80332270295E+01  0.10500000000E+00 0. -1.
</event>
<event>
11    0  0.3462209E-009  0.9118800E+02  0.7816531E-02  0.1126479E+00
         25   -1    0    0    0    0  0.00000000000E+00  0.00000000000E+00  0.99999998245E-14  0.12500000000E+03  0.12500000000E+03 0.  0.
    3000001    1    3    3    0    0  0.10695753159E+02 -0.15729185702E+02  0.11349728594E+02  0.22172567683E+02  0.10000000000E+01 0.  1.
    1000022    2    1    0    0    0  0.39595490949E+02 -0.34992804322E+02  0.31842592972E+02  0.62500000449E+02  0.10000003562E+02 0.  0.
    3000022    2    3    3    0    0  0.28899737790E+02 -0.19263618620E+02  0.20492864377E+02  0.40327432766E+02  0.24999300150E+00 0.  0.
    1000022    2    1    0    0    0 -0.39595490949E+02  0.34992804322E+02 -0.31842592972E+02  0.62499999551E+02  0.99999979462E+01 0.  0.
    3000022    2    5    5    0    0 -0.32702411016E+02  0.28442380916E+02 -0.30132386991E+02  0.52786740455E+02  0.25000742016E+00 0.  0.
        -13    1    4    4    0    0  0.21509666106E+02 -0.14328606864E+02  0.15216131801E+02  0.29991938961E+02  0.10500000000E+00 0. -1.
         13    1    4    4    0    0  0.73900716839E+01 -0.49350117561E+01  0.52767325760E+01  0.10335493806E+02  0.10500000000E+00 0.  1.
    3000001    1    5    5    0    0 -0.68930799328E+01  0.65504234060E+01 -0.17102059803E+01  0.97132590953E+01  0.10000000000E+01 0. -1.
        -13    1    6    6    0    0 -0.10289126424E+02  0.88911692951E+01 -0.94260565552E+01  0.16546316242E+02  0.10500000000E+00 0.  1.
         13    1    6    6    0    0 -0.22413284592E+02  0.19551211621E+02 -0.20706330436E+02  0.36240424213E+02  0.10500000000E+00 0. -1.
</event>
<event>
11    0  0.3462209E-009  0.9118800E+02  0.7816531E-02  0.1126479E+00
         25   -1    0    0    0    0  0.00000000000E+00  0.00000000000E+00  0.99999998245E-14  0.12500000000E+03  0.12500000000E+03 0.  0.
    3000001    1    3    3    0    0  0.26920384883E+02  0.40049184669E+01  0.82956502926E+01  0.28470411096E+02  0.10000000000E+01 0.  1.
    1000022    2    1    0    0    0  0.59797397295E+02  0.12782301557E+02  0.81935814566E+01  0.62500005820E+02  0.99999997036E+01 0.  0.
    3000022    2    3    3    0    0  0.32877012412E+02  0.87773830899E+01 -0.10206883595E+00  0.34029594724E+02  0.25000003397E+00 0.  0.
    1000022    2    1    0    0    0 -0.59797397295E+02 -0.12782301557E+02 -0.81935814566E+01  0.62499994180E+02  0.99999269536E+01 0.  0.
    3000022    2    5    5    0    0 -0.20297941876E+02 -0.57580477505E+01  0.16941457519E+01  0.21168235576E+02  0.25001857096E+00 0.  0.
        -13    1    4    4    0    0  0.11409634225E+02  0.30992098492E+01 -0.58106268229E-01  0.11823673548E+02  0.10500000000E+00 0.  1.
         13    1    4    4    0    0  0.21467378186E+02  0.56781732407E+01 -0.43962567721E-01  0.22205921176E+02  0.10500000000E+00 0. -1.
    3000001    1    5    5    0    0 -0.39499455419E+02 -0.70242538063E+01 -0.98877272085E+01  0.41331758604E+02  0.10000000000E+01 0. -1.
        -13    1    6    6    0    0 -0.14290542477E+02 -0.40655468934E+01  0.11495607723E+01  0.14902375341E+02  0.10500000000E+00 0. -1.
         13    1    6    6    0    0 -0.60073993986E+01 -0.16925008571E+01  0.54458497959E+00  0.62658602351E+01  0.10500000000E+00 0.  1.
</event>
<event>
11    0  0.3462209E-009  0.9118800E+02  0.7816531E-02  0.1126479E+00
         25   -1    0    0    0    0  0.00000000000E+00  0.00000000000E+00  0.99999998245E-14  0.12500000000E+03  0.12500000000E+03 0.  0.
    3000001    1    3    3    0    0 -0.74568304062E+01  0.23068199838E+02  0.15422958859E+02  0.28750892568E+02  0.10000000000E+01 0.  1.
    1000022    2    1    0    0    0 -0.25036348095E+02  0.44249851744E+02  0.34948274723E+02  0.62500000333E+02  0.10000001512E+02 0.  0.
    3000022    2    3    3    0    0 -0.17579517689E+02  0.21181651906E+02  0.19525315864E+02  0.33749107766E+02  0.24999148202E+00 0.  0.
    1000022    2    1    0    0    0  0.25036348095E+02 -0.44249851744E+02 -0.34948274723E+02  0.62499999667E+02  0.99999973470E+01 0.  0.
    3000022    2    5    5    0    0  0.13470622664E+02 -0.19594265172E+02 -0.21726043385E+02  0.32209879900E+02  0.24999879432E+00 0.  0.
        -13    1    4    4    0    0 -0.13420415871E+02  0.16146078692E+02  0.14900463950E+02  0.25745645655E+02  0.10500000000E+00 0.  1.
         13    1    4    4    0    0 -0.41591018181E+01  0.50355732144E+01  0.46248519133E+01  0.80034621103E+01  0.10500000000E+00 0. -1.
    3000001    1    5    5    0    0  0.11565725431E+02 -0.24655586572E+02 -0.13222231338E+02  0.30290119767E+02  0.10000000000E+01 0. -1.
        -13    1    6    6    0    0  0.98069024123E+01 -0.14211423186E+02 -0.15746415003E+02  0.23368793172E+02  0.10500000000E+00 0.  1.
         13    1    6    6    0    0  0.36637202515E+01 -0.53828419868E+01 -0.59796283827E+01  0.88410867280E+01  0.10500000000E+00 0. -1.
</event>
<event>
11    0  0.3462209E-009  0.9118800E+02  0.7816531E-02  0.1126479E+00
         25   -1    0    0    0    0  0.00000000000E+00  0.00000000000E+00  0.99999998245E-14  0.12500000000E+03  0.12500000000E+03 0.  0.
    3000001    1    3    3    0    0 -0.49589089239E+01 -0.38110570045E+01  0.52099957149E+01  0.82011577571E+01  0.10000000000E+01 0.  1.
    1000022    2    1    0    0    0 -0.31035469036E+02 -0.90306394721E+01  0.52549947425E+02  0.62500002548E+02  0.10000027830E+02 0.  0.
    3000022    2    3    3    0    0 -0.26076560112E+02 -0.52195824676E+01  0.47339951710E+02  0.54298844791E+02  0.24997864598E+00 0.  0.
    1000022    2    1    0    0    0  0.31035469036E+02  0.90306394721E+01 -0.52549947425E+02  0.62499997452E+02  0.99999959771E+01 0.  0.
    3000022    2    5    5    0    0  0.25251729221E+02  0.57727629072E+01 -0.33802790865E+02  0.42587155238E+02  0.25000146630E+00 0.  0.
        -13    1    4    4    0    0 -0.11468305265E+02 -0.23629707145E+01  0.20840254554E+02  0.23904662539E+02  0.10500000000E+00 0.  1.
         13    1    4    4    0    0 -0.14608254847E+02 -0.28566117530E+01  0.26499697157E+02  0.30394182252E+02  0.10500000000E+00 0. -1.
    3000001    1    5    5    0    0  0.57837398147E+01  0.32578765648E+01 -0.18747156560E+02  0.19912842214E+02  0.10000000000E+01 0. -1.
        -13    1    6    6    0    0  0.19146713720E+02  0.43751643323E+01 -0.25663119247E+02  0.32316333698E+02  0.10500000000E+00 0.  1.
         13    1    6    6    0    0  0.61050155016E+01  0.13975985749E+01 -0.81396716178E+01  0.10270821540E+02  0.10500000000E+00 0. -1.
</event>
<event>
11    0  0.3462209E-009  0.9118800E+02  0.7816531E-02  0.1126479E+00
         25   -1    0    0    0    0  0.00000000000E+00  0.00000000000E+00  0.99999998245E-14  0.12500000000E+03  0.12500000000E+03 0.  0.
    3000001    1    3    3    0    0 -0.13264858676E+01  0.20857575658E+02 -0.28829239190E+02  0.35621946316E+02  0.10000000000E+01 0. -1.
    1000022    2    1    0    0    0 -0.10760307830E+02  0.35391520324E+02 -0.49375157409E+02  0.62500000534E+02  0.99999981112E+01 0.  0.
    3000022    2    3    3    0    0 -0.94338219627E+01  0.14533944666E+02 -0.20545918219E+02  0.26878054218E+02  0.24999745205E+00 0.  0.
    1000022    2    1    0    0    0  0.10760307830E+02 -0.35391520324E+02  0.49375157409E+02  0.62499999466E+02  0.99999914305E+01 0.  0.
    3000022    2    5    5    0    0  0.11508035115E+02 -0.31002695033E+02  0.46657406057E+02  0.57188967933E+02  0.25008363679E+00 0.  0.
        -13    1    4    4    0    0 -0.47239484604E+01  0.71755044168E+01 -0.10246532803E+02  0.13371836530E+02  0.10500000000E+00 0. -1.
         13    1    4    4    0    0 -0.47098735023E+01  0.73584402493E+01 -0.10299385416E+02  0.13506217689E+02  0.10500000000E+00 0.  1.
    3000001    1    5    5    0    0 -0.74772728442E+00 -0.43888252907E+01  0.27177513523E+01  0.53110315323E+01  0.10000000000E+01 0.  1.
        -13    1    6    6    0    0  0.34202981896E+01 -0.91584366030E+01  0.13863297661E+02  0.16964004473E+02  0.10500000000E+00 0. -1.
         13    1    6    6    0    0  0.80877369252E+01 -0.21844258430E+02  0.32794108395E+02  0.40224963460E+02  0.10500000000E+00 0.  1.
</event>
<event>
11    0  0.3462209E-009  0.9118800E+02  0.7816531E-02  0.1126479E+00
         25   -1    0    0    0    0  0.00000000000E+00  0.00000000000E+00  0.99999998245E-14  0.12500000000E+03  0.12500000000E+03 0.  0.
    3000001    1    3    3    0    0  0.12363254651E+02 -0.45222977314E+02  0.24715119467E+01  0.46958237978E+02  0.10000000000E+01 0.  1.
    1000022    2    1    0    0    0  0.16064808082E+02 -0.59519576420E+02 -0.23647671933E+01  0.62499999224E+02  0.99999871586E+01 0.  0.
    3000022    2    3    3    0    0  0.37015534309E+01 -0.14296599106E+02 -0.48362791401E+01  0.15541761246E+02  0.25000579546E+00 0.  0.
    1000022    2    1    0    0    0 -0.16064808082E+02  0.59519576420E+02  0.23647671933E+01  0.62500000776E+02  0.99999968625E+01 0.  0.
    3000022    2    5    5    0    0 -0.67306494836E+01  0.10303303881E+02 -0.44747321685E+00  0.12317566644E+02  0.25000480822E+00 0.  0.
        -13    1    4    4    0    0  0.95157440526E+00 -0.37081006088E+01 -0.12222652374E+01  0.40200076224E+01  0.10500000000E+00 0. -1.
         13    1    4    4    0    0  0.27499790256E+01 -0.10588498497E+02 -0.36140139026E+01  0.11521753623E+02  0.10500000000E+00 0.  1.
    3000001    1    5    5    0    0 -0.93341585987E+01  0.49216272539E+02  0.28122404102E+01  0.50182434133E+02  0.10000000000E+01 0.  1.
        -13    1    6    6    0    0 -0.39576005408E+01  0.59620204641E+01 -0.22255201628E+00  0.71602265645E+01  0.10500000000E+00 0.  1.
         13    1    6    6    0    0 -0.27730489428E+01  0.43412834168E+01 -0.22492120058E+00  0.51573400790E+01  0.10500000000E+00 0. -1.
</event>
<event>
11    0  0.3462209E-009  0.9118800E+02  0.7816531E-02  0.1126479E+00
         25   -1    0    0    0    0  0.00000000000E+00  0.00000000000E+00  0.99999998245E-14  0.12500000000E+03  0.12500000000E+03 0.  0.
    3000001    1    3    3    0    0  0.40304923884E+02  0.16307959409E+02 -0.18811674964E+02  0.47384760676E+02  0.10000000000E+01 0. -1.
    1000022    2    1    0    0    0  0.49910467457E+02  0.21274729020E+02 -0.29369736323E+02  0.62499998505E+02  0.99999772347E+01 0.  0.
    3000022    2    3    3    0    0  0.96055435732E+01  0.49667696108E+01 -0.10558061359E+02  0.15115237828E+02  0.24997447052E+00 0.  0.
    1000022    2    1    0    0    0 -0.49910467457E+02 -0.21274729020E+02  0.29369736323E+02  0.62500001495E+02  0.99999959269E+01 0.  0.
    3000022    2    5    5    0    0 -0.37068840551E+02 -0.11878661030E+02  0.17812418289E+02  0.42808250039E+02  0.24999688279E+00 0.  0.
        -13    1    4    4    0    0  0.62025106108E+01  0.32050674777E+01 -0.68957111422E+01  0.98135341529E+01  0.10500000000E+00 0.  1.
         13    1    4    4    0    0  0.34030329623E+01  0.17617021330E+01 -0.36623502172E+01  0.53017036753E+01  0.10500000000E+00 0. -1.
    3000001    1    5    5    0    0 -0.12841626906E+02 -0.93960679898E+01  0.11557318034E+02  0.19691751456E+02  0.10000000000E+01 0. -1.
        -13    1    6    6    0    0 -0.16055854966E+02 -0.51105514996E+01  0.77729977012E+01  0.18556366389E+02  0.10500000000E+00 0. -1.
         13    1    6    6    0    0 -0.21012985585E+02 -0.67681095306E+01  0.10039420588E+02  0.24251883650E+02  0.10500000000E+00 0.  1.
</event>
<event>
11    0  0.3462209E-009  0.9118800E+02  0.7816531E-02  0.1126479E+00
         25   -1    0    0    0    0  0.00000000000E+00  0.00000000000E+00  0.99999998245E-14  0.12500000000E+03  0.12500000000E+03 0.  0.
    3000001    1    3    3    0    0  0.47998446212E+01  0.36851465961E+00  0.44937497651E+01  0.66609382517E+01  0.10000000000E+01 0. -1.
    1000022    2    1    0    0    0  0.57842350055E+02 -0.71924991584E+01  0.20218319001E+02  0.62500000510E+02  0.10000006821E+02 0.  0.
    3000022    2    3    3    0    0  0.53042505434E+02 -0.75610138180E+01  0.15724569236E+02  0.55839062258E+02  0.24996701865E+00 0.  0.
    1000022    2    1    0    0    0 -0.57842350055E+02  0.71924991584E+01 -0.20218319001E+02  0.62499999490E+02  0.10000000451E+02 0.  0.
    3000022    2    5    5    0    0 -0.69439965652E+01 -0.20199478803E+01 -0.40757828766E+01  0.83050454729E+01  0.24999302612E+00 0.  0.
        -13    1    4    4    0    0  0.13643887461E+02 -0.19369034190E+01  0.40141267550E+01  0.14353797355E+02  0.10500000000E+00 0. -1.
         13    1    4    4    0    0  0.39398617973E+02 -0.56241103990E+01  0.11710442481E+02  0.41485264903E+02  0.10500000000E+00 0.  1.
    3000001    1    5    5    0    0 -0.50898353490E+02  0.92124470387E+01 -0.16142536124E+02  0.54194954017E+02  0.10000000000E+01 0.  1.
        -13    1    6    6    0    0 -0.23703006223E+01 -0.64072918578E+00 -0.13519442679E+01  0.28049308785E+01  0.10500000000E+00 0. -1.
         13    1    6    6    0    0 -0.45736959429E+01 -0.13792186945E+01 -0.27238386088E+01  0.55001145944E+01  0.10500000000E+00 0.  1.
</event>
<event>
11    0  0.3462209E-009  0.9118800E+02  0.7816531E-02  0.1126479E+00
         25   -1    0    0    0    0  0.00000000000E+00  0.00000000000E+00  0.99999998245E-14  0.12500000000E+03  0.12500000000E+03 0.  0.
    3000001    1    3    3    0    0  0.12329208942E+02  0.19482063431E+02 -0.20346925659E+02  0.30766175785E+02  0.10000000000E+01 0.  1.
    1000022    2    1    0    0    0  0.33161426631E+02  0.33982526576E+02 -0.39392360454E+02  0.62500002876E+02  0.99999984321E+01 0.  0.
    3000022    2    3    3    0    0  0.20832217689E+02  0.14500463145E+02 -0.19045434794E+02  0.31733827090E+02  0.24994004837E+00 0.  0.
    1000022    2    1    0    0    0 -0.33161426631E+02 -0.33982526576E+02  0.39392360454E+02  0.62499997124E+02  0.99999624883E+01 0.  0.
    3000022    2    5    5    0    0 -0.33073778180E+01 -0.87267850369E+01  0.62953447429E+01  0.11260079480E+02  0.24999872625E+00 0.  0.
        -13    1    4    4    0    0  0.92829886615E+01  0.64084672527E+01 -0.85267090101E+01  0.14140654955E+02  0.10500000000E+00 0. -1.
         13    1    4    4    0    0  0.11549229027E+02  0.80919958924E+01 -0.10518725784E+02  0.17593172135E+02  0.10500000000E+00 0.  1.
    3000001    1    5    5    0    0 -0.29854048813E+02 -0.25255741539E+02  0.33097015711E+02  0.51239917644E+02  0.10000000000E+01 0.  1.
        -13    1    6    6    0    0 -0.10292207608E+01 -0.28380843427E+01  0.20035482058E+01  0.36248101363E+01  0.10500000000E+00 0.  1.
         13    1    6    6    0    0 -0.22781570572E+01 -0.58887006942E+01  0.42917965371E+01  0.76352693442E+01  0.10500000000E+00 0. -1.
</event>
<event>
11    0  0.3462209E-009  0.9118800E+02  0.7816531E-02  0.1126479E+00
         25   -1    0    0    0    0  0.00000000000E+00  0.00000000000E+00  0.99999998245E-14  0.12500000000E+03  0.12500000000E+03 0.  0.
    3000001    1    3    3    0    0 -0.25957809688E+02  0.32975153730E+02  0.56992124880E+01  0.42363305705E+02  0.10000000000E+01 0.  1.
    1000022    2    1    0    0    0 -0.39977787158E+02  0.46946890681E+02  0.20039769961E+01  0.62500000570E+02  0.10000006842E+02 0.  0.
    3000022    2    3    3    0    0 -0.14019977470E+02  0.13971736951E+02 -0.36952354919E+01  0.20136694865E+02  0.25002611723E+00 0.  0.
    1000022    2    1    0    0    0  0.39977787158E+02 -0.46946890681E+02 -0.20039769961E+01  0.62499999430E+02  0.99999997158E+01 0.  0.
    3000022    2    5    5    0    0  0.22487625088E+02 -0.24479945449E+02 -0.58468755364E+01  0.33752177487E+02  0.25004057335E+00 0.  0.
        -13    1    4    4    0    0 -0.34186176893E+01  0.34229596050E+01 -0.88322221316E+00  0.49188114256E+01  0.10500000000E+00 0.  1.
         13    1    4    4    0    0 -0.10601359780E+02  0.10548777346E+02 -0.28120132787E+01  0.15217883439E+02  0.10500000000E+00 0. -1.
    3000001    1    5    5    0    0  0.17490162070E+02 -0.22466945232E+02  0.38428985403E+01  0.28747821943E+02  0.10000000000E+01 0.  1.
        -13    1    6    6    0    0  0.13469705627E+02 -0.14737387708E+02 -0.34731833649E+01  0.20265675262E+02  0.10500000000E+00 0.  1.
         13    1    6    6    0    0  0.90179194612E+01 -0.97425577413E+01 -0.23736921714E+01  0.13486502225E+02  0.10500000000E+00 0. -1.
</event>
<event>
11    0  0.3462209E-009  0.9118800E+02  0.7816531E-02  0.1126479E+00
         25   -1    0    0    0    0  0.00000000000E+00  0.00000000000E+00  0.99999998245E-14  0.12500000000E+03  0.12500000000E+03 0.  0.
    3000001    1    3    3    0    0 -0.15240249783E+01  0.19658998012E+00 -0.35322719292E+00  0.18671018195E+01  0.10000000000E+01 0.  1.
    1000022    2    1    0    0    0 -0.31071129745E+02  0.23043988886E+00 -0.53298985101E+02  0.62499999859E+02  0.99999981738E+01 0.  0.
    3000022    2    3    3    0    0 -0.29547104766E+02  0.33849908738E-01 -0.52945757908E+02  0.60632898039E+02  0.24999672040E+00 0.  0.
    1000022    2    1    0    0    0  0.31071129745E+02 -0.23043988886E+00  0.53298985101E+02  0.62500000141E+02  0.99999999365E+01 0.  0.
    3000022    2    5    5    0    0  0.17375009011E+02 -0.19592656787E+01  0.20785178010E+02  0.27162764634E+02  0.24999503667E+00 0.  0.
        -13    1    4    4    0    0 -0.20362831469E+02  0.46501173073E-01 -0.36400002067E+02  0.41708731019E+02  0.10500000000E+00 0. -1.
         13    1    4    4    0    0 -0.91842732970E+01 -0.12651264335E-01 -0.16545755841E+02  0.18924167020E+02  0.10500000000E+00 0.  1.
    3000001    1    5    5    0    0  0.13696120733E+02  0.17288257898E+01  0.32513807090E+02  0.35337235507E+02  0.10000000000E+01 0.  1.
        -13    1    6    6    0    0  0.89074972826E+01 -0.10725808316E+01  0.10667801663E+02  0.13939402957E+02  0.10500000000E+00 0. -1.
         13    1    6    6    0    0  0.84675117286E+01 -0.88668484707E+00  0.10117376347E+02  0.13223361677E+02  0.10500000000E+00 0.  1.
</event>
<event>
11    0  0.3462209E-009  0.9118800E+02  0.7816531E-02  0.1126479E+00
         25   -1    0    0    0    0  0.00000000000E+00  0.00000000000E+00  0.99999998245E-14  0.12500000000E+03  0.12500000000E+03 0.  0.
    3000001    1    3    3    0    0 -0.13213581073E+02 -0.72970815250E+01 -0.82073287008E+01  0.17210646936E+02  0.10000000000E+01 0.  1.
    1000022    2    1    0    0    0 -0.49889395661E+02 -0.32888445508E+02 -0.15350841243E+02  0.62500000605E+02  0.10000005065E+02 0.  0.
    3000022    2    3    3    0    0 -0.36675814588E+02 -0.25591363983E+02 -0.71435125424E+01  0.45289353669E+02  0.24999605120E+00 0.  0.
    1000022    2    1    0    0    0  0.49889395661E+02  0.32888445508E+02  0.15350841243E+02  0.62499999395E+02  0.99999975077E+01 0.  0.
    3000022    2    5    5    0    0  0.44732302748E+01  0.65746872124E+01  0.34392267928E+01  0.86675880349E+01  0.25000075736E+00 0.  0.
        -13    1    4    4    0    0 -0.20200036939E+02 -0.14139963439E+02 -0.39947171431E+01  0.24978968122E+02  0.10500000000E+00 0.  1.
         13    1    4    4    0    0 -0.16475777649E+02 -0.11451400544E+02 -0.31487953993E+01  0.20310385546E+02  0.10500000000E+00 0. -1.
    3000001    1    5    5    0    0  0.45416165387E+02  0.26313758296E+02  0.11911614450E+02  0.53832411361E+02  0.10000000000E+01 0. -1.
        -13    1    6    6    0    0  0.13705304120E+01  0.20923954856E+01  0.11072330643E+01  0.27374189554E+01  0.10500000000E+00 0. -1.
         13    1    6    6    0    0  0.31026998628E+01  0.44822917268E+01  0.23319937284E+01  0.59301690795E+01  0.10500000000E+00 0.  1.
</event>
<event>
11    0  0.3462209E-009  0.9118800E+02  0.7816531E-02  0.1126479E+00
         25   -1    0    0    0    0  0.00000000000E+00  0.00000000000E+00  0.99999998245E-14  0.12500000000E+03  0.12500000000E+03 0.  0.
    3000001    1    3    3    0    0 -0.17773602520E+02 -0.23562008556E+02 -0.39609484850E+02  0.49406279801E+02  0.10000000000E+01 0.  1.
    1000022    2    1    0    0    0 -0.26796027558E+02 -0.28242335595E+02 -0.47860144354E+02  0.62499999608E+02  0.99999960379E+01 0.  0.
    3000022    2    3    3    0    0 -0.90224250374E+01 -0.46803270387E+01 -0.82506595040E+01  0.13093719807E+02  0.25000277609E+00 0.  0.
    1000022    2    1    0    0    0  0.26796027558E+02  0.28242335595E+02  0.47860144354E+02  0.62500000392E+02  0.10000000934E+02 0.  0.
    3000022    2    5    5    0    0  0.14611501545E+02  0.83812784018E+01  0.18956434526E+02  0.25360416270E+02  0.24999672626E+00 0.  0.
        -13    1    4    4    0    0 -0.51589431836E+01 -0.26090777385E+01 -0.46567720883E+01  0.74241856590E+01  0.10500000000E+00 0.  1.
         13    1    4    4    0    0 -0.38634818539E+01 -0.20712493002E+01 -0.35938874157E+01  0.56695341480E+01  0.10500000000E+00 0. -1.
    3000001    1    5    5    0    0  0.12184526013E+02  0.19861057193E+02  0.28903709827E+02  0.37139584122E+02  0.10000000000E+01 0.  1.
        -13    1    6    6    0    0  0.64861161536E+01  0.37159791421E+01  0.83128567540E+01  0.11180018612E+02  0.10500000000E+00 0. -1.
         13    1    6    6    0    0  0.81253853916E+01  0.46652992597E+01  0.10643577773E+02  0.14180397658E+02  0.10500000000E+00 0.  1.
</event>
<event>
11    0  0.3462209E-009  0.9118800E+02  0.7816531E-02  0.1126479E+00
         25   -1    0    0    0    0  0.00000000000E+00  0.00000000000E+00  0.99999998245E-14  0.12500000000E+03  0.12500000000E+03 0.  0.
    3000001    1    3    3    0    0 -0.22519128317E+01 -0.62149543785E+00 -0.10291756765E+01  0.27416364737E+01  0.10000000000E+01 0. -1.
    1000022    2    1    0    0    0 -0.55959502886E+02 -0.19727560176E+02  0.16899923046E+02  0.62500000075E+02  0.10000000835E+02 0.  0.
    3000022    2    3    3    0    0 -0.53707590054E+02 -0.19106064738E+02  0.17929098722E+02  0.59758363601E+02  0.25000023331E+00 0.  0.
    1000022    2    1    0    0    0  0.55959502886E+02  0.19727560176E+02 -0.16899923046E+02  0.62499999925E+02  0.99999999003E+01 0.  0.
    3000022    2    5    5    0    0  0.39107345554E+02  0.17603494622E+02 -0.14734104778E+02  0.45347809687E+02  0.25000120324E+00 0.  0.
        -13    1    4    4    0    0 -0.18440775340E+02 -0.66164559255E+01  0.61789454375E+01  0.20543370606E+02  0.10500000000E+00 0.  1.
         13    1    4    4    0    0 -0.35266814714E+02 -0.12489608812E+02  0.11750153285E+02  0.39214992995E+02  0.10500000000E+00 0. -1.
    3000001    1    5    5    0    0  0.16852157331E+02  0.21240655538E+01 -0.21658182679E+01  0.17152190238E+02  0.10000000000E+01 0.  1.
        -13    1    6    6    0    0  0.26198224701E+02  0.11757140264E+02 -0.99096326261E+01  0.30377445062E+02  0.10500000000E+00 0.  1.
         13    1    6    6    0    0  0.12909120853E+02  0.58463543580E+01 -0.48244721519E+01  0.14970364626E+02  0.10500000000E+00 0. -1.
</event>
<event>
11    0  0.3462209E-009  0.9118800E+02  0.7816531E-02  0.1126479E+00
         25   -1    0    0    0    0  0.00000000000E+00  0.00000000000E+00  0.99999998245E-14  0.12500000000E+03  0.12500000000E+03 0.  0.
    3000001    1    3    3    0    0  0.75995451246E+00  0.88383310723E+01 -0.65775350211E+01  0.11088624530E+02  0.10000000000E+01 0. -1.
    1000022    2    1    0    0    0  0.24024679554E+02  0.42930690882E+02 -0.37229298340E+02  0.62499999476E+02  0.99999916172E+01 0.  0.
    3000022    2    3    3    0    0  0.23264725041E+02  0.34092359810E+02 -0.30651763319E+02  0.51411374947E+02  0.24990134106E+00 0.  0.
    1000022    2    1    0    0    0 -0.24024679554E+02 -0.42930690882E+02  0.37229298340E+02  0.62500000524E+02  0.99999981650E+01 0.  0.
    3000022    2    5    5    0    0 -0.11498075957E+02 -0.11319794693E+02  0.10718937199E+02  0.19372702864E+02  0.24999800861E+00 0.  0.
        -13    1    4    4    0    0  0.12090301039E+02  0.17646466668E+02 -0.15817846163E+02  0.26604293776E+02  0.10500000000E+00 0. -1.
         13    1    4    4    0    0  0.11174424002E+02  0.16445893142E+02 -0.14833917155E+02  0.24807081170E+02  0.10500000000E+00 0.  1.
    3000001    1    5    5    0    0 -0.12526603597E+02 -0.31610896190E+02  0.26510361140E+02  0.43127297659E+02  0.10000000000E+01 0.  1.
        -13    1    6    6    0    0 -0.57705197525E+01 -0.57734042514E+01  0.54421011298E+01  0.98111459357E+01  0.10500000000E+00 0. -1.
         13    1    6    6    0    0 -0.57275562041E+01 -0.55463904412E+01  0.52768360695E+01  0.95615569287E+01  0.10500000000E+00 0.  1.
</event>
<event>
11    0  0.3462209E-009  0.9118800E+02  0.7816531E-02  0.1126479E+00
         25   -1    0    0    0    0  0.00000000000E+00  0.00000000000E+00  0.99999998245E-14  0.12500000000E+03  0.12500000000E+03 0.  0.
    3000001    1    3    3    0    0  0.63237914687E+01 -0.13929700623E+02 -0.82598581143E+01  0.17414136616E+02  0.10000000000E+01 0. -1.
    1000022    2    1    0    0    0  0.24413211796E+02 -0.54725209524E+02 -0.14676395921E+02  0.62500000665E+02  0.10000000918E+02 0.  0.
    3000022    2    3    3    0    0  0.18089420327E+02 -0.40795508900E+02 -0.64165378063E+01  0.45085864050E+02  0.25001099286E+00 0.  0.
    1000022    2    1    0    0    0 -0.24413211796E+02  0.54725209524E+02  0.14676395921E+02  0.62499999335E+02  0.99999926021E+01 0.  0.
    3000022    2    5    5    0    0 -0.82522989997E+01  0.27460862463E+02  0.35467537090E+01  0.28893621089E+02  0.24994353601E+00 0.  0.
        -13    1    4    4    0    0  0.10038080741E+02 -0.22796429775E+02 -0.35979366689E+01  0.25167368729E+02  0.10500000000E+00 0. -1.
         13    1    4    4    0    0  0.80513395863E+01 -0.17999079125E+02 -0.28186011374E+01  0.19918495321E+02  0.10500000000E+00 0.  1.
    3000001    1    5    5    0    0 -0.16160912796E+02  0.27264347061E+02  0.11129642212E+02  0.33606378246E+02  0.10000000000E+01 0.  1.
        -13    1    6    6    0    0 -0.51120552448E+01  0.16875091865E+02  0.22285775193E+01  0.17772996850E+02  0.10500000000E+00 0.  1.
         13    1    6    6    0    0 -0.31402437549E+01  0.10585770598E+02  0.13181761898E+01  0.11120624239E+02  0.10500000000E+00 0. -1.
</event>
<event>
11    0  0.3462209E-009  0.9118800E+02  0.7816531E-02  0.1126479E+00
         25   -1    0    0    0    0  0.00000000000E+00  0.00000000000E+00  0.99999998245E-14  0.12500000000E+03  0.12500000000E+03 0.  0.
    3000001    1    3    3    0    0 -0.13928206915E+02  0.47013130606E+02 -0.28781173724E+02  0.56864623081E+02  0.10000000000E+01 0. -1.
    1000022    2    1    0    0    0 -0.14374391365E+02  0.52625156490E+02 -0.28813534787E+02  0.62499998973E+02  0.99999930984E+01 0.  0.
    3000022    2    3    3    0    0 -0.44618445041E+00  0.56120258845E+01 -0.32361062213E-01  0.56353758916E+01  0.24999822023E+00 0.  0.
    1000022    2    1    0    0    0  0.14374391365E+02 -0.52625156490E+02  0.28813534787E+02  0.62500001027E+02  0.10000005938E+02 0.  0.
    3000022    2    5    5    0    0  0.72828770044E+01 -0.29983893968E+02  0.21656414122E+02  0.37697970450E+02  0.25001699799E+00 0.  0.
        -13    1    4    4    0    0 -0.10498332280E+00  0.13389827510E+01  0.10553095295E-01  0.13472314847E+01  0.10500000000E+00 0. -1.
         13    1    4    4    0    0 -0.34120112762E+00  0.42730431335E+01 -0.42914157508E-01  0.42881444069E+01  0.10500000000E+00 0.  1.
    3000001    1    5    5    0    0  0.70915143606E+01 -0.22641262523E+02  0.71571206646E+01  0.24802030577E+02  0.10000000000E+01 0. -1.
        -13    1    6    6    0    0  0.25631396612E+01 -0.10733874730E+02  0.76982654056E+01  0.13455856230E+02  0.10500000000E+00 0. -1.
         13    1    6    6    0    0  0.47197373432E+01 -0.19250019238E+02  0.13958148716E+02  0.24242114220E+02  0.10500000000E+00 0.  1.
</event>
<event>
11    0  0.3462209E-009  0.9118800E+02  0.7816531E-02  0.1126479E+00
         25   -1    0    0    0    0  0.00000000000E+00  0.00000000000E+00  0.99999998245E-14  0.12500000000E+03  0.12500000000E+03 0.  0.
    3000001    1    3    3    0    0 -0.12148004526E+02 -0.12257607296E+02  0.58532479575E+01  0.18250574299E+02  0.10000000000E+01 0.  1.
    1000022    2    1    0    0    0 -0.50977591268E+02 -0.32307469610E+02  0.12796976362E+02  0.62499999687E+02  0.99999976423E+01 0.  0.
    3000022    2    3    3    0    0 -0.38829586742E+02 -0.20049862313E+02  0.69437284041E+01  0.44249425388E+02  0.24999540181E+00 0.  0.
    1000022    2    1    0    0    0  0.50977591268E+02  0.32307469610E+02 -0.12796976362E+02  0.62500000313E+02  0.10000001554E+02 0.  0.
    3000022    2    5    5    0    0  0.34087306616E+02  0.16493560497E+02 -0.58273073727E+01  0.38314514524E+02  0.25000358037E+00 0.  0.
        -13    1    4    4    0    0 -0.17826775290E+02 -0.92798753736E+01  0.32016279980E+01  0.20351202693E+02  0.10500000000E+00 0. -1.
         13    1    4    4    0    0 -0.21002811451E+02 -0.10769986940E+02  0.37421004061E+01  0.23898222695E+02  0.10500000000E+00 0.  1.
    3000001    1    5    5    0    0  0.16890284652E+02  0.15813909112E+02 -0.69696689888E+01  0.24185485789E+02  0.10000000000E+01 0. -1.
        -13    1    6    6    0    0  0.17130728231E+02  0.83641869666E+01 -0.29365168289E+01  0.19288743593E+02  0.10500000000E+00 0.  1.
         13    1    6    6    0    0  0.16956578385E+02  0.81293735305E+01 -0.28907905438E+01  0.19025770931E+02  0.10500000000E+00 0. -1.
</event>
<event>
11    0  0.3462209E-009  0.9118800E+02  0.7816531E-02  0.1126479E+00
         25   -1    0    0    0    0  0.00000000000E+00  0.00000000000E+00  0.99999998245E-14  0.12500000000E+03  0.12500000000E+03 0.  0.
    3000001    1    3    3    0    0  0.58543961755E+01 -0.68244578521E+01 -0.53413010605E+02  0.54173765620E+02  0.10000000000E+01 0.  1.
    1000022    2    1    0    0    0  0.32094491529E+01 -0.93017833137E+01 -0.60905057304E+02  0.62499998219E+02  0.10000001773E+02 0.  0.
    3000022    2    3    3    0    0 -0.26449470225E+01 -0.24773254616E+01 -0.74920466985E+01  0.83262325983E+01  0.24999870740E+00 0.  0.
    1000022    2    1    0    0    0 -0.32094491529E+01  0.93017833137E+01  0.60905057304E+02  0.62500001781E+02  0.10000024041E+02 0.  0.
    3000022    2    5    5    0    0  0.60082184290E+00  0.98455440603E+01  0.38469457331E+02  0.39714699788E+02  0.25001429991E+00 0.  0.
        -13    1    4    4    0    0 -0.75992847197E+00 -0.67936877485E+00 -0.21892641847E+01  0.24172165573E+01  0.10500000000E+00 0. -1.
         13    1    4    4    0    0 -0.18850185506E+01 -0.17979566868E+01 -0.53027825138E+01  0.59090160410E+01  0.10500000000E+00 0.  1.
    3000001    1    5    5    0    0 -0.38102709958E+01 -0.54376074660E+00  0.22435599972E+02  0.22785301994E+02  0.10000000000E+01 0.  1.
        -13    1    6    6    0    0  0.30075214349E+00  0.46845303103E+01  0.18573288607E+02  0.19157592509E+02  0.10500000000E+00 0. -1.
         13    1    6    6    0    0  0.30006969941E+00  0.51610137501E+01  0.19896168725E+02  0.20557107279E+02  0.10500000000E+00 0.  1.
</event>
<event>
11    0  0.3462209E-009  0.9118800E+02  0.7816531E-02  0.1126479E+00
         25   -1    0    0    0    0  0.00000000000E+00  0.00000000000E+00  0.99999998245E-14  0.12500000000E+03  0.12500000000E+03 0.  0.
    3000001    1    3    3    0    0  0.64049505122E+00 -0.10013533500E+02 -0.40180132057E+01  0.10854746297E+02  0.10000000000E+01 0.  1.
    1000022    2    1    0    0    0  0.22922064866E+02 -0.50114138254E+02 -0.27738101117E+02  0.62499997088E+02  0.99999735842E+01 0.  0.
    3000022    2    3    3    0    0  0.22281569815E+02 -0.40100604755E+02 -0.23720087912E+02  0.51645250791E+02  0.25000713639E+00 0.  0.
    1000022    2    1    0    0    0 -0.22922064866E+02  0.50114138254E+02  0.27738101117E+02  0.62500002912E+02  0.10000009985E+02 0.  0.
    3000022    2    5    5    0    0 -0.17474733566E+02  0.26461558928E+02  0.16045274912E+02  0.35540030513E+02  0.25001551809E+00 0.  0.
        -13    1    4    4    0    0  0.84387875950E+01 -0.15063621069E+02 -0.89217920307E+01  0.19435411337E+02  0.10500000000E+00 0.  1.
         13    1    4    4    0    0  0.13842782220E+02 -0.25036983686E+02 -0.14798295881E+02  0.32209839454E+02  0.10500000000E+00 0. -1.
    3000001    1    5    5    0    0 -0.54473313001E+01  0.23652579327E+02  0.11692826206E+02  0.26959972399E+02  0.10000000000E+01 0. -1.
        -13    1    6    6    0    0 -0.42706607236E+01  0.64277900234E+01  0.39001042947E+01  0.86473618006E+01  0.10500000000E+00 0.  1.
         13    1    6    6    0    0 -0.13204072842E+02  0.20033768904E+02  0.12145170617E+02  0.26892668712E+02  0.10500000000E+00 0. -1.
</event>
<event>
11    0  0.3462209E-009  0.9118800E+02  0.7816531E-02  0.1126479E+00
         25   -1    0    0    0    0  0.00000000000E+00  0.00000000000E+00  0.99999998245E-14  0.12500000000E+03  0.12500000000E+03 0.  0.
    3000001    1    3    3    0    0 -0.16163843335E+02 -0.17133988587E+02  0.47021696363E+01  0.24040669615E+02  0.10000000000E+01 0. -1.
    1000022    2    1    0    0    0 -0.38279613984E+02 -0.42085339622E+02  0.23869338552E+02  0.62499999997E+02  0.10000000938E+02 0.  0.
    3000022    2    3    3    0    0 -0.22115770650E+02 -0.24951351036E+02  0.19167168915E+02  0.38459330382E+02  0.24999851263E+00 0.  0.
    1000022    2    1    0    0    0  0.38279613984E+02  0.42085339622E+02 -0.23869338552E+02  0.62500000003E+02  0.10000000980E+02 0.  0.
    3000022    2    5    5    0    0  0.33682656781E+02  0.34700437959E+02 -0.23419295300E+02  0.53732370504E+02  0.24997056026E+00 0.  0.
        -13    1    4    4    0    0 -0.73717254921E+01 -0.82474596677E+01  0.63284631353E+01  0.12744543866E+02  0.10500000000E+00 0.  1.
         13    1    4    4    0    0 -0.14744045158E+02 -0.16703891368E+02  0.12838705780E+02  0.25714786516E+02  0.10500000000E+00 0. -1.
    3000001    1    5    5    0    0  0.45969572036E+01  0.73849016634E+01 -0.45004325197E+00  0.87676294994E+01  0.10000000000E+01 0.  1.
        -13    1    6    6    0    0  0.22626222390E+02  0.23325238946E+02 -0.15680029880E+02  0.36081672267E+02  0.10500000000E+00 0. -1.
         13    1    6    6    0    0  0.11056434391E+02  0.11375199013E+02 -0.77392654199E+01  0.17650698237E+02  0.10500000000E+00 0.  1.
</event>
<event>
11    0  0.3462209E-009  0.9118800E+02  0.7816531E-02  0.1126479E+00
         25   -1    0    0    0    0  0.00000000000E+00  0.00000000000E+00  0.99999998245E-14  0.12500000000E+03  0.12500000000E+03 0.  0.
    3000001    1    3    3    0    0  0.16556160781E+02  0.30199791862E+02  0.23604953338E+02  0.41765149472E+02  0.10000000000E+01 0.  1.
    1000022    2    1    0    0    0  0.28225012318E+02  0.39681638322E+02  0.37880948712E+02  0.62500000715E+02  0.10000003694E+02 0.  0.
    3000022    2    3    3    0    0  0.11668851537E+02  0.94818464596E+01  0.14275995373E+02  0.20734851243E+02  0.25000740608E+00 0.  0.
    1000022    2    1    0    0    0 -0.28225012318E+02 -0.39681638322E+02 -0.37880948712E+02  0.62499999285E+02  0.99999947516E+01 0.  0.
    3000022    2    5    5    0    0 -0.59667792717E+01 -0.51957641580E+01 -0.25003326371E+01  0.83013604733E+01  0.25000469770E+00 0.  0.
        -13    1    4    4    0    0  0.35083840399E+01  0.28536483369E+01  0.42312949506E+01  0.61941060179E+01  0.10500000000E+00 0. -1.
         13    1    4    4    0    0  0.81604674972E+01  0.66281981227E+01  0.10044700423E+02  0.14540745225E+02  0.10500000000E+00 0.  1.
    3000001    1    5    5    0    0 -0.22258233046E+02 -0.34485874164E+02 -0.35380616075E+02  0.54198638811E+02  0.10000000000E+01 0.  1.
        -13    1    6    6    0    0 -0.33688444807E+01 -0.28604054375E+01 -0.14348348887E+01  0.46476670018E+01  0.10500000000E+00 0.  1.
         13    1    6    6    0    0 -0.25979347910E+01 -0.23353587205E+01 -0.10654977484E+01  0.36536934715E+01  0.10500000000E+00 0. -1.
</event>
<event>
11    0  0.3462209E-009  0.9118800E+02  0.7816531E-02  0.1126479E+00
         25   -1    0    0    0    0  0.00000000000E+00  0.00000000000E+00  0.99999998245E-14  0.12500000000E+03  0.12500000000E+03 0.  0.
    3000001    1    3    3    0    0 -0.16620404545E+02 -0.15197948035E+02 -0.18253568519E+02  0.29007037687E+02  0.10000000000E+01 0. -1.
    1000022    2    1    0    0    0 -0.37002403548E+02 -0.38718346465E+02 -0.30626159143E+02  0.62500000004E+02  0.10000007769E+02 0.  0.
    3000022    2    3    3    0    0 -0.20381999003E+02 -0.23520398431E+02 -0.12372590624E+02  0.33492962317E+02  0.25000070501E+00 0.  0.
    1000022    2    1    0    0    0  0.37002403548E+02  0.38718346465E+02  0.30626159143E+02  0.62499999996E+02  0.10000007713E+02 0.  0.
    3000022    2    5    5    0    0  0.12762036636E+02  0.10551085416E+02  0.14369402099E+02  0.21925720796E+02  0.25006628281E+00 0.  0.
        -13    1    4    4    0    0 -0.10322993067E+02 -0.11913185878E+02 -0.61936517378E+01  0.16936957533E+02  0.10500000000E+00 0. -1.
         13    1    4    4    0    0 -0.10059005936E+02 -0.11607212552E+02 -0.61789388859E+01  0.16556004784E+02  0.10500000000E+00 0.  1.
    3000001    1    5    5    0    0  0.24240366912E+02  0.28167261049E+02  0.16256757043E+02  0.40574279200E+02  0.10000000000E+01 0. -1.
        -13    1    6    6    0    0  0.35933958115E+01  0.30215700173E+01  0.40909978573E+01  0.62281351379E+01  0.10500000000E+00 0. -1.
         13    1    6    6    0    0  0.91686408247E+01  0.75295153990E+01  0.10278404242E+02  0.15697585658E+02  0.10500000000E+00 0.  1.
</event>
<event>
11    0  0.3462209E-009  0.9118800E+02  0.7816531E-02  0.1126479E+00
         25   -1    0    0    0    0  0.00000000000E+00  0.00000000000E+00  0.99999998245E-14  0.12500000000E+03  0.12500000000E+03 0.  0.
    3000001    1    3    3    0    0 -0.10923359089E+02 -0.96939567743E+01 -0.30803863019E+01  0.14959323230E+02  0.10000000000E+01 0. -1.
    1000022    2    1    0    0    0 -0.31671187595E+02 -0.50398495046E+02 -0.16222747559E+02  0.62500000344E+02  0.10000003902E+02 0.  0.
    3000022    2    3    3    0    0 -0.20747828506E+02 -0.40704538271E+02 -0.13142361257E+02  0.47540677114E+02  0.24999482850E+00 0.  0.
    1000022    2    1    0    0    0  0.31671187595E+02  0.50398495046E+02  0.16222747559E+02  0.62499999656E+02  0.99999996080E+01 0.  0.
    3000022    2    5    5    0    0  0.19526399485E+02  0.22111165162E+02  0.92997190233E+01  0.30931071352E+02  0.24999880208E+00 0.  0.
        -13    1    4    4    0    0 -0.47653660550E+01 -0.93440317840E+01 -0.30224844380E+01  0.10916321761E+02  0.10500000000E+00 0.  1.
         13    1    4    4    0    0 -0.15982462451E+02 -0.31360506487E+02 -0.10119876819E+02  0.36624355352E+02  0.10500000000E+00 0. -1.
    3000001    1    5    5    0    0  0.12144788110E+02  0.28287329884E+02  0.69230285357E+01  0.31568928305E+02  0.10000000000E+01 0. -1.
        -13    1    6    6    0    0  0.95900917762E+01  0.10933087471E+02  0.45353028588E+01  0.15234246255E+02  0.10500000000E+00 0.  1.
         13    1    6    6    0    0  0.99363077089E+01  0.11178077690E+02  0.47644161644E+01  0.15696825097E+02  0.10500000000E+00 0. -1.
</event>
<event>
11    0  0.3462209E-009  0.9118800E+02  0.7816531E-02  0.1126479E+00
         25   -1    0    0    0    0  0.00000000000E+00  0.00000000000E+00  0.99999998245E-14  0.12500000000E+03  0.12500000000E+03 0.  0.
    3000001    1    3    3    0    0  0.69920313873E+01  0.48276105075E+02 -0.21001993467E+02  0.53118307143E+02  0.10000000000E+01 0. -1.
    1000022    2    1    0    0    0  0.49357252219E+01  0.55343616684E+02 -0.26813666917E+02  0.62500000077E+02  0.99999992447E+01 0.  0.
    3000022    2    3    3    0    0 -0.20563061654E+01  0.70675116099E+01 -0.58116734499E+01  0.93816929344E+01  0.24999725153E+00 0.  0.
    1000022    2    1    0    0    0 -0.49357252219E+01 -0.55343616684E+02  0.26813666917E+02  0.62499999923E+02  0.99999982825E+01 0.  0.
    3000022    2    5    5    0    0 -0.37838992098E+01 -0.25345807458E+02  0.71760857897E+01  0.26613653577E+02  0.25000102411E+00 0.  0.
        -13    1    4    4    0    0 -0.13553853634E+01  0.48379593017E+01 -0.39682116471E+01  0.64031748659E+01  0.10500000000E+00 0. -1.
         13    1    4    4    0    0 -0.70092080201E+00  0.22295523083E+01 -0.18434618028E+01  0.29785180685E+01  0.10500000000E+00 0.  1.
    3000001    1    5    5    0    0 -0.11518260121E+01 -0.29997809226E+02  0.19637581127E+02  0.35886346346E+02  0.10000000000E+01 0. -1.
        -13    1    6    6    0    0 -0.10591937844E+01 -0.71351757024E+01  0.20613455646E+01  0.75028524118E+01  0.10500000000E+00 0. -1.
         13    1    6    6    0    0 -0.27247054254E+01 -0.18210631756E+02  0.51147402252E+01  0.19110801165E+02  0.10500000000E+00 0.  1.
</event>
<event>
11    0  0.3462209E-009  0.9118800E+02  0.7816531E-02  0.1126479E+00
         25   -1    0    0    0    0  0.00000000000E+00  0.00000000000E+00  0.99999998245E-14  0.12500000000E+03  0.12500000000E+03 0.  0.
    3000001    1    3    3    0    0 -0.22946391120E+01  0.49388375559E+01 -0.20452072503E+01  0.59025721304E+01  0.10000000000E+01 0. -1.
    1000022    2    1    0    0    0 -0.39296899937E+02  0.47465264477E+02  0.30087046242E+01  0.62499999924E+02  0.10000000527E+02 0.  0.
    3000022    2    3    3    0    0 -0.37002260825E+02  0.42526426921E+02  0.50539118745E+01  0.56597427794E+02  0.25002969920E+00 0.  0.
    1000022    2    1    0    0    0  0.39296899937E+02 -0.47465264477E+02 -0.30087046242E+01  0.62500000076E+02  0.10000001471E+02 0.  0.
    3000022    2    5    5    0    0  0.22410062979E+02 -0.19415254874E+02 -0.22117474006E+01  0.29734111686E+02  0.25005323990E+00 0.  0.
        -13    1    4    4    0    0 -0.26741627679E+02  0.30680314931E+02  0.36657272593E+01  0.40863736448E+02  0.10500000000E+00 0.  1.
         13    1    4    4    0    0 -0.10260633146E+02  0.11846111990E+02  0.13881846152E+01  0.15733691346E+02  0.10500000000E+00 0. -1.
    3000001    1    5    5    0    0  0.16886836958E+02 -0.28050009603E+02 -0.79695722356E+00  0.32765888390E+02  0.10000000000E+01 0.  1.
        -13    1    6    6    0    0  0.59053464498E+01 -0.50948795610E+01 -0.61083404581E+00  0.78240052189E+01  0.10500000000E+00 0.  1.
         13    1    6    6    0    0  0.16504716529E+02 -0.14320375313E+02 -0.16009133548E+01  0.21910106467E+02  0.10500000000E+00 0. -1.
</event>
<event>
11    0  0.3462209E-009  0.9118800E+02  0.7816531E-02  0.1126479E+00
         25   -1    0    0    0    0  0.00000000000E+00  0.00000000000E+00  0.99999998245E-14  0.12500000000E+03  0.12500000000E+03 0.  0.
    3000001    1    3    3    0    0 -0.38379162924E+02  0.58679936681E+01 -0.22093960547E+02  0.44682620661E+02  0.10000000000E+01 0. -1.
    1000022    2    1    0    0    0 -0.54805309564E+02  0.11677911767E+02 -0.25811903537E+02  0.62500001027E+02  0.10000009228E+02 0.  0.
    3000022    2    3    3    0    0 -0.16426146640E+02  0.58099180993E+01 -0.37179429896E+01  0.17817380367E+02  0.25000259686E+00 0.  0.
    1000022    2    1    0    0    0  0.54805309564E+02 -0.11677911767E+02  0.25811903537E+02  0.62499998973E+02  0.99999963876E+01 0.  0.
    3000022    2    5    5    0    0  0.43386330476E+02 -0.11259841083E+02  0.16639012899E+02  0.47812937008E+02  0.25000333371E+00 0.  0.
        -13    1    4    4    0    0 -0.79410459094E+01  0.27886152328E+01 -0.17295389238E+01  0.85929572873E+01  0.10500000000E+00 0. -1.
         13    1    4    4    0    0 -0.84851007304E+01  0.30213028665E+01 -0.19884040659E+01  0.92244230793E+01  0.10500000000E+00 0.  1.
    3000001    1    5    5    0    0  0.11418979088E+02 -0.41807068477E+00  0.91728906384E+01  0.14687061965E+02  0.10000000000E+01 0.  1.
        -13    1    6    6    0    0  0.21938921672E+02 -0.57042204022E+01  0.83432216794E+01  0.24155222779E+02  0.10500000000E+00 0. -1.
         13    1    6    6    0    0  0.21447408804E+02 -0.55556206804E+01  0.82957912193E+01  0.23657714228E+02  0.10500000000E+00 0.  1.
</event>
<event>
11    0  0.3462209E-009  0.9118800E+02  0.7816531E-02  0.1126479E+00
         25   -1    0    0    0    0  0.00000000000E+00  0.00000000000E+00  0.99999998245E-14  0.12500000000E+03  0.12500000000E+03 0.  0.
    3000001    1    3    3    0    0  0.79875110824E+01 -0.24860470266E+02  0.13954120482E+02  0.29623652603E+02  0.10000000000E+01 0. -1.
    1000022    2    1    0    0    0  0.15502263696E+02 -0.46286965402E+02  0.37728592667E+02  0.62500000141E+02  0.99999983545E+01 0.  0.
    3000022    2    3    3    0    0  0.75147526136E+01 -0.21426495136E+02  0.23774472185E+02  0.32876347537E+02  0.24999810780E+00 0.  0.
    1000022    2    1    0    0    0 -0.15502263696E+02  0.46286965402E+02 -0.37728592667E+02  0.62499999859E+02  0.99999965952E+01 0.  0.
    3000022    2    5    5    0    0 -0.72655244409E+01  0.88899918427E+01 -0.76974366384E+01  0.13825079855E+02  0.25000367170E+00 0.  0.
        -13    1    4    4    0    0  0.23385493189E+01 -0.65799185346E+01  0.73671231428E+01  0.10151338298E+02  0.10500000000E+00 0. -1.
         13    1    4    4    0    0  0.51762032947E+01 -0.14846576602E+02  0.16407349042E+02  0.22725009239E+02  0.10500000000E+00 0.  1.
    3000001    1    5    5    0    0 -0.82367392551E+01  0.37396973560E+02 -0.30031156029E+02  0.48674920004E+02  0.10000000000E+01 0. -1.
        -13    1    6    6    0    0 -0.39139653730E+01  0.46827162796E+01 -0.40948388583E+01  0.73502167976E+01  0.10500000000E+00 0. -1.
         13    1    6    6    0    0 -0.33515590679E+01  0.42072755631E+01 -0.36025977801E+01  0.64748630576E+01  0.10500000000E+00 0.  1.
</event>
<event>
11    0  0.3462209E-009  0.9118800E+02  0.7816531E-02  0.1126479E+00
         25   -1    0    0    0    0  0.00000000000E+00  0.00000000000E+00  0.99999998245E-14  0.12500000000E+03  0.12500000000E+03 0.  0.
    3000001    1    3    3    0    0  0.14420873687E+02 -0.38028796914E+02 -0.15947867564E+02  0.43697659805E+02  0.10000000000E+01 0. -1.
    1000022    2    1    0    0    0  0.16862070073E+02 -0.52457557236E+02 -0.27751128968E+02  0.62500001186E+02  0.10000013547E+02 0.  0.
    3000022    2    3    3    0    0  0.24411963860E+01 -0.14428760323E+02 -0.11803261404E+02  0.18802341381E+02  0.24999481346E+00 0.  0.
    1000022    2    1    0    0    0 -0.16862070073E+02  0.52457557236E+02  0.27751128968E+02  0.62499998814E+02  0.99999987181E+01 0.  0.
    3000022    2    5    5    0    0 -0.11399610062E+02  0.30083594425E+02  0.10987631824E+02  0.33996533801E+02  0.24998852335E+00 0.  0.
        -13    1    4    4    0    0  0.17281888975E+01 -0.99225444352E+01 -0.81183961803E+01  0.12936881636E+02  0.10500000000E+00 0.  1.
         13    1    4    4    0    0  0.71300748854E+00 -0.45062158873E+01 -0.36848652236E+01  0.58654597448E+01  0.10500000000E+00 0. -1.
    3000001    1    5    5    0    0 -0.54624600112E+01  0.22373962811E+02  0.16763497144E+02  0.28503465013E+02  0.10000000000E+01 0. -1.
        -13    1    6    6    0    0 -0.69424948452E+01  0.18165962304E+02  0.66734187440E+01  0.20560787043E+02  0.10500000000E+00 0. -1.
         13    1    6    6    0    0 -0.44571152167E+01  0.11917632121E+02  0.43142130802E+01  0.13435746758E+02  0.10500000000E+00 0.  1.
</event>
<event>
11    0  0.3462209E-009  0.9118800E+02  0.7816531E-02  0.1126479E+00
         25   -1    0    0    0    0  0.00000000000E+00  0.00000000000E+00  0.99999998245E-14  0.12500000000E+03  0.12500000000E+03 0.  0.
    3000001    1    3    3    0    0 -0.54766108966E+01 -0.48926312655E+01  0.73189606952E+01  0.10416251402E+02  0.10000000000E+01 0. -1.
    1000022    2    1    0    0    0 -0.21292488058E+02 -0.15419282250E+02  0.55813302796E+02  0.62499992296E+02  0.99999977604E+01 0.  0.
    3000022    2    3    3    0    0 -0.15815877161E+02 -0.10526650985E+02  0.48494342100E+02  0.52083740894E+02  0.24999679337E+00 0.  0.
    1000022    2    1    0    0    0  0.21292488058E+02  0.15419282250E+02 -0.55813302796E+02  0.62500007704E+02  0.10000094062E+02 0.  0.
    3000022    2    5    5    0    0  0.15433862906E+02  0.11837364104E+02 -0.29876951018E+02  0.35651395640E+02  0.24999153536E+00 0.  0.
        -13    1    4    4    0    0 -0.99150297288E+01 -0.65271509485E+01  0.30283481397E+02  0.32527093084E+02  0.10500000000E+00 0. -1.
         13    1    4    4    0    0 -0.59008474327E+01 -0.39995000362E+01  0.18210860704E+02  0.19556647809E+02  0.10500000000E+00 0.  1.
    3000001    1    5    5    0    0  0.58586251520E+01  0.35819181462E+01 -0.25936351777E+02  0.26848612064E+02  0.10000000000E+01 0. -1.
        -13    1    6    6    0    0  0.37155216187E+01  0.28713121979E+01 -0.72346406416E+01  0.86255773633E+01  0.10500000000E+00 0. -1.
         13    1    6    6    0    0  0.11718341287E+02  0.89660519061E+01 -0.22642310377E+02  0.27025818276E+02  0.10500000000E+00 0.  1.
</event>
<event>
11    0  0.3462209E-009  0.9118800E+02  0.7816531E-02  0.1126479E+00
         25   -1    0    0    0    0  0.00000000000E+00  0.00000000000E+00  0.99999998245E-14  0.12500000000E+03  0.12500000000E+03 0.  0.
    3000001    1    3    3    0    0 -0.73557604047E+01 -0.74042969402E+01 -0.36526109092E+02  0.38001150899E+02  0.10000000000E+01 0.  1.
    1000022    2    1    0    0    0 -0.81499317828E+01 -0.18822468365E+02 -0.58185422266E+02  0.62500001803E+02  0.10000007885E+02 0.  0.
    3000022    2    3    3    0    0 -0.79417137811E+00 -0.11418171425E+02 -0.21659313174E+02  0.24498850904E+02  0.25000308528E+00 0.  0.
    1000022    2    1    0    0    0  0.81499317828E+01  0.18822468365E+02  0.58185422266E+02  0.62499998197E+02  0.99999853451E+01 0.  0.
    3000022    2    5    5    0    0  0.73987802160E+01  0.62163798885E+01  0.31695271583E+02  0.33136657472E+02  0.25000007489E+00 0.  0.
        -13    1    4    4    0    0 -0.29138363628E+00 -0.50973676431E+01 -0.97068953840E+01  0.10968268063E+02  0.10500000000E+00 0. -1.
         13    1    4    4    0    0 -0.50278774183E+00 -0.63208037822E+01 -0.11952417790E+02  0.13530582840E+02  0.10500000000E+00 0.  1.
    3000001    1    5    5    0    0  0.75115156678E+00  0.12606088477E+02  0.26490150683E+02  0.29363340725E+02  0.10000000000E+01 0.  1.
        -13    1    6    6    0    0  0.44039289995E+01  0.36384205907E+01  0.18881021167E+02  0.19726547603E+02  0.10500000000E+00 0. -1.
         13    1    6    6    0    0  0.29948512165E+01  0.25779592978E+01  0.12814250417E+02  0.13410109869E+02  0.10500000000E+00 0.  1.
</event>
<event>
11    0  0.3462209E-009  0.9118800E+02  0.7816531E-02  0.1126479E+00
         25   -1    0    0    0    0  0.00000000000E+00  0.00000000000E+00  0.99999998245E-14  0.12500000000E+03  0.12500000000E+03 0.  0.
    3000001    1    3    3    0    0 -0.37499359258E+02  0.35147584883E+02  0.17608117880E+02  0.54337836571E+02  0.10000000000E+01 0.  1.
    1000022    2    1    0    0    0 -0.42165735642E+02  0.41789537646E+02  0.16790922330E+02  0.62500000161E+02  0.10000011425E+02 0.  0.
    3000022    2    3    3    0    0 -0.46663763839E+01  0.66419527634E+01 -0.81719554998E+00  0.81621635907E+01  0.25000169185E+00 0.  0.
    1000022    2    1    0    0    0  0.42165735642E+02 -0.41789537646E+02 -0.16790922330E+02  0.62499999839E+02  0.10000009411E+02 0.  0.
    3000022    2    5    5    0    0  0.40430388533E+02 -0.36990915853E+02 -0.16741450618E+02  0.57299937517E+02  0.24999610364E+00 0.  0.
        -13    1    4    4    0    0 -0.11926553763E+01  0.16730904024E+01 -0.18249916726E+00  0.20654271440E+01  0.10500000000E+00 0. -1.
         13    1    4    4    0    0 -0.34737210077E+01  0.49688623610E+01 -0.63469638272E+00  0.60967364467E+01  0.10500000000E+00 0.  1.
    3000001    1    5    5    0    0  0.17353471094E+01 -0.47986217932E+01 -0.49471712275E-01  0.52000623222E+01  0.10000000000E+01 0.  1.
        -13    1    6    6    0    0  0.17827674654E+02 -0.16317732324E+02 -0.73144721010E+01  0.25250879171E+02  0.10500000000E+00 0.  1.
         13    1    6    6    0    0  0.22602713879E+02 -0.20673183529E+02 -0.94269785172E+01  0.32049058346E+02  0.10500000000E+00 0. -1.
</event>
<event>
11    0  0.3462209E-009  0.9118800E+02  0.7816531E-02  0.1126479E+00
         25   -1    0    0    0    0  0.00000000000E+00  0.00000000000E+00  0.99999998245E-14  0.12500000000E+03  0.12500000000E+03 0.  0.
    3000001    1    3    3    0    0 -0.89271734620E+01  0.10211824303E+00  0.30910195243E+02  0.32189206640E+02  0.10000000000E+01 0. -1.
    1000022    2    1    0    0    0 -0.21829042008E+02 -0.77971104735E+01  0.57174721132E+02  0.62499994245E+02  0.99999268673E+01 0.  0.
    3000022    2    3    3    0    0 -0.12901868546E+02 -0.78992287165E+01  0.26264525889E+02  0.30310787605E+02  0.24999750350E+00 0.  0.
    1000022    2    1    0    0    0  0.21829042008E+02  0.77971104735E+01 -0.57174721132E+02  0.62500005755E+02  0.99999988059E+01 0.  0.
    3000022    2    5    5    0    0  0.91035368097E+01  0.79101732261E+01 -0.22150981450E+02  0.25222484284E+02  0.25002264139E+00 0.  0.
        -13    1    4    4    0    0 -0.78951878163E+01 -0.47611227095E+01  0.16008921334E+02  0.18474275828E+02  0.10500000000E+00 0. -1.
         13    1    4    4    0    0 -0.50066807296E+01 -0.31381060070E+01  0.10255604556E+02  0.11836511777E+02  0.10500000000E+00 0.  1.
    3000001    1    5    5    0    0  0.12725505198E+02 -0.11306275260E+00 -0.35023739682E+02  0.37277521471E+02  0.10000000000E+01 0.  1.
        -13    1    6    6    0    0  0.45267477757E+01  0.38566047832E+01 -0.10848471293E+02  0.12371952161E+02  0.10500000000E+00 0. -1.
         13    1    6    6    0    0  0.45767890340E+01  0.40535684429E+01 -0.11302510157E+02  0.12850532123E+02  0.10500000000E+00 0.  1.
</event>
<event>
11    0  0.3462209E-009  0.9118800E+02  0.7816531E-02  0.1126479E+00
         25   -1    0    0    0    0  0.00000000000E+00  0.00000000000E+00  0.99999998245E-14  0.12500000000E+03  0.12500000000E+03 0.  0.
    3000001    1    3    3    0    0  0.10096663301E+01  0.32806337586E+02  0.16935666100E+02  0.36947151421E+02  0.10000000000E+01 0.  1.
    1000022    2    1    0    0    0  0.65216048123E+01  0.57198515561E+02  0.22182163908E+02  0.62499999529E+02  0.10000001689E+02 0.  0.
    3000022    2    3    3    0    0  0.55119384822E+01  0.24392177975E+02  0.52464978084E+01  0.25552848108E+02  0.24998993082E+00 0.  0.
    1000022    2    1    0    0    0 -0.65216048123E+01 -0.57198515561E+02 -0.22182163908E+02  0.62500000471E+02  0.10000007573E+02 0.  0.
    3000022    2    5    5    0    0 -0.46523447297E+01 -0.54944389113E+02 -0.22097434886E+02  0.59404455558E+02  0.25001024396E+00 0.  0.
        -13    1    4    4    0    0  0.32426409257E+01  0.14402459209E+02  0.31614658071E+01  0.15098060885E+02  0.10500000000E+00 0.  1.
         13    1    4    4    0    0  0.22692975565E+01  0.99897187668E+01  0.20850320013E+01  0.10454787223E+02  0.10500000000E+00 0. -1.
    3000001    1    5    5    0    0 -0.18692600826E+01 -0.22541264485E+01 -0.84729022857E-01  0.30955449131E+01  0.10000000000E+01 0.  1.
        -13    1    6    6    0    0 -0.15516126724E+01 -0.17729804604E+02 -0.71205556687E+01  0.19169423862E+02  0.10500000000E+00 0. -1.
         13    1    6    6    0    0 -0.31007320573E+01 -0.37214584509E+02 -0.14976879217E+02  0.40235031695E+02  0.10500000000E+00 0.  1.
</event>
<event>
11    0  0.3462209E-009  0.9118800E+02  0.7816531E-02  0.1126479E+00
         25   -1    0    0    0    0  0.00000000000E+00  0.00000000000E+00  0.99999998245E-14  0.12500000000E+03  0.12500000000E+03 0.  0.
    3000001    1    3    3    0    0  0.45596091639E+02 -0.19224279912E+02 -0.35341777421E+01  0.49619219293E+02  0.10000000000E+01 0. -1.
    1000022    2    1    0    0    0  0.54789692161E+02 -0.28216903193E+02 -0.28541297899E+01  0.62500000844E+02  0.10000002784E+02 0.  0.
    3000022    2    3    3    0    0  0.91936005221E+01 -0.89926232805E+01  0.68004795220E+00  0.12880781551E+02  0.25000823648E+00 0.  0.
    1000022    2    1    0    0    0 -0.54789692161E+02  0.28216903193E+02  0.28541297899E+01  0.62499999156E+02  0.99999922393E+01 0.  0.
    3000022    2    5    5    0    0 -0.27897984526E+02  0.15970011357E+02 -0.32499707706E+01  0.32310425744E+02  0.24999678230E+00 0.  0.
        -13    1    4    4    0    0  0.35761129661E+01 -0.35233808958E+01  0.20608784372E+00  0.50255640561E+01  0.10500000000E+00 0.  1.
         13    1    4    4    0    0  0.56174875560E+01 -0.54692423847E+01  0.47396010849E+00  0.78552174947E+01  0.10500000000E+00 0. -1.
    3000001    1    5    5    0    0 -0.26891707635E+02  0.12246891836E+02  0.61041005605E+01  0.30189573412E+02  0.10000000000E+01 0. -1.
        -13    1    6    6    0    0 -0.98642549329E+01  0.56522167333E+01 -0.10922396572E+01  0.11421693913E+02  0.10500000000E+00 0. -1.
         13    1    6    6    0    0 -0.18033729593E+02  0.10317794624E+02 -0.21577311134E+01  0.20888731831E+02  0.10500000000E+00 0.  1.
</event>
<event>
11    0  0.3462209E-009  0.9118800E+02  0.7816531E-02  0.1126479E+00
         25   -1    0    0    0    0  0.00000000000E+00  0.00000000000E+00  0.99999998245E-14  0.12500000000E+03  0.12500000000E+03 0.  0.
    3000001    1    3    3    0    0  0.72298097267E+00 -0.10211605397E+02  0.10413263277E+02  0.14636790575E+02  0.10000000000E+01 0. -1.
    1000022    2    1    0    0    0  0.15230551583E+01 -0.53823325158E+02  0.30116108253E+02  0.62500000062E+02  0.10000000164E+02 0.  0.
    3000022    2    3    3    0    0  0.80007418566E+00 -0.43611719761E+02  0.19702844977E+02  0.47863209486E+02  0.25000587772E+00 0.  0.
    1000022    2    1    0    0    0 -0.15230551583E+01  0.53823325158E+02 -0.30116108253E+02  0.62499999938E+02  0.99999993928E+01 0.  0.
    3000022    2    5    5    0    0  0.18488962148E+01  0.35677824885E+02 -0.23966067916E+02  0.43020466258E+02  0.25000002924E+00 0.  0.
        -13    1    4    4    0    0  0.26410002594E+00 -0.12854541184E+02  0.57702639781E+01  0.14093117088E+02  0.10500000000E+00 0.  1.
         13    1    4    4    0    0  0.53597415971E+00 -0.30757178577E+02  0.13932580998E+02  0.33770092399E+02  0.10500000000E+00 0. -1.
    3000001    1    5    5    0    0 -0.33719513732E+01  0.18145500274E+02 -0.61500403376E+01  0.19479533680E+02  0.10000000000E+01 0. -1.
        -13    1    6    6    0    0  0.10432634874E+01  0.20094576215E+02 -0.13577623969E+02  0.24274333968E+02  0.10500000000E+00 0. -1.
         13    1    6    6    0    0  0.80563272748E+00  0.15583248670E+02 -0.10388443947E+02  0.18746132290E+02  0.10500000000E+00 0.  1.
</event>
<event>
11    0  0.3462209E-009  0.9118800E+02  0.7816531E-02  0.1126479E+00
         25   -1    0    0    0    0  0.00000000000E+00  0.00000000000E+00  0.99999998245E-14  0.12500000000E+03  0.12500000000E+03 0.  0.
    3000001    1    3    3    0    0  0.22446782813E+02  0.62141863004E+01 -0.23730276418E+02  0.33265600685E+02  0.10000000000E+01 0.  1.
    1000022    2    1    0    0    0  0.35202537619E+02  0.16913975062E+02 -0.47759278050E+02  0.62500001252E+02  0.10000015472E+02 0.  0.
    3000022    2    3    3    0    0  0.12755754806E+02  0.10699788762E+02 -0.24029001632E+02  0.29234400567E+02  0.24999380757E+00 0.  0.
    1000022    2    1    0    0    0 -0.35202537619E+02 -0.16913975062E+02  0.47759278050E+02  0.62499998748E+02  0.99999998190E+01 0.  0.
    3000022    2    5    5    0    0 -0.12062456894E+02 -0.98803616776E+01  0.23705481048E+02  0.28374931665E+02  0.25000412560E+00 0.  0.
        -13    1    4    4    0    0  0.84805529073E+01  0.71441453005E+01 -0.15918070615E+02  0.19399860484E+02  0.10500000000E+00 0. -1.
         13    1    4    4    0    0  0.42752018987E+01  0.35556434611E+01 -0.81109310162E+01  0.98345400832E+01  0.10500000000E+00 0.  1.
    3000001    1    5    5    0    0 -0.23140080725E+02 -0.70336133843E+01  0.24053797002E+02  0.34125067083E+02  0.10000000000E+01 0. -1.
        -13    1    6    6    0    0 -0.28765034535E+01 -0.23805798954E+01  0.56758255403E+01  0.67946635914E+01  0.10500000000E+00 0. -1.
         13    1    6    6    0    0 -0.91859534407E+01 -0.74997817823E+01  0.18029655508E+02  0.21580268073E+02  0.10500000000E+00 0.  1.
</event>
<event>
11    0  0.3462209E-009  0.9118800E+02  0.7816531E-02  0.1126479E+00
         25   -1    0    0    0    0  0.00000000000E+00  0.00000000000E+00  0.99999998245E-14  0.12500000000E+03  0.12500000000E+03 0.  0.
    3000001    1    3    3    0    0  0.35349908634E+02  0.18269853241E+02 -0.15772446772E+02  0.42815577248E+02  0.10000000000E+01 0.  1.
    1000022    2    1    0    0    0  0.46952262906E+02  0.30852786653E+02 -0.25491973100E+02  0.62500000626E+02  0.99999974705E+01 0.  0.
    3000022    2    3    3    0    0  0.11602354272E+02  0.12582933412E+02 -0.97195263280E+01  0.19684423378E+02  0.24998755239E+00 0.  0.
    1000022    2    1    0    0    0 -0.46952262906E+02 -0.30852786653E+02  0.25491973100E+02  0.62499999374E+02  0.99999896510E+01 0.  0.
    3000022    2    5    5    0    0 -0.17117808952E+02 -0.17102782686E+02  0.10911035997E+02  0.26545013926E+02  0.24999772616E+00 0.  0.
        -13    1    4    4    0    0  0.48272494007E+01  0.51636672478E+01 -0.39657784441E+01  0.81058139561E+01  0.10500000000E+00 0. -1.
         13    1    4    4    0    0  0.67751048716E+01  0.74192661638E+01 -0.57537478839E+01  0.11578609422E+02  0.10500000000E+00 0.  1.
    3000001    1    5    5    0    0 -0.29834453954E+02 -0.13750003967E+02  0.14580937103E+02  0.35954985449E+02  0.10000000000E+01 0. -1.
        -13    1    6    6    0    0 -0.74260286689E+01 -0.73940094813E+01  0.46560356558E+01  0.11467648888E+02  0.10500000000E+00 0.  1.
         13    1    6    6    0    0 -0.96917802835E+01 -0.97087732045E+01  0.62550003410E+01  0.15077365037E+02  0.10500000000E+00 0. -1.
</event>
<event>
11    0  0.3462209E-009  0.9118800E+02  0.7816531E-02  0.1126479E+00
         25   -1    0    0    0    0  0.00000000000E+00  0.00000000000E+00  0.99999998245E-14  0.12500000000E+03  0.12500000000E+03 0.  0.
    3000001    1    3    3    0    0 -0.21517745421E+02  0.42373933826E+02  0.20576028950E+01  0.47579379625E+02  0.10000000000E+01 0. -1.
    1000022    2    1    0    0    0 -0.31894214921E+02  0.52523453318E+02  0.55041111129E+01  0.62499995690E+02  0.10000006413E+02 0.  0.
    3000022    2    3    3    0    0 -0.10376469500E+02  0.10149519492E+02  0.34465082179E+01  0.14920616065E+02  0.24999930260E+00 0.  0.
    1000022    2    1    0    0    0  0.31894214921E+02 -0.52523453318E+02 -0.55041111129E+01  0.62500004310E+02  0.10000060287E+02 0.  0.
    3000022    2    5    5    0    0  0.23899974081E+02 -0.36796622367E+02  0.36846855530E+00  0.43879362798E+02  0.25006353903E+00 0.  0.
        -13    1    4    4    0    0 -0.25734808434E+01  0.25287438123E+01  0.83215625428E+00  0.37041676462E+01  0.10500000000E+00 0.  1.
         13    1    4    4    0    0 -0.78029886564E+01  0.76207756799E+01  0.26143519636E+01  0.11216448419E+02  0.10500000000E+00 0. -1.
    3000001    1    5    5    0    0  0.79942408400E+01 -0.15726830951E+02 -0.58725796682E+01  0.18620641512E+02  0.10000000000E+01 0.  1.
        -13    1    6    6    0    0  0.82067552001E+01 -0.12688587214E+02  0.79484988779E-01  0.15111863528E+02  0.10500000000E+00 0.  1.
         13    1    6    6    0    0  0.15693218881E+02 -0.24108035153E+02  0.28898356652E+00  0.28767499270E+02  0.10500000000E+00 0. -1.
</event>
<event>
11    0  0.3462209E-009  0.9118800E+02  0.7816531E-02  0.1126479E+00
         25   -1    0    0    0    0  0.00000000000E+00  0.00000000000E+00  0.99999998245E-14  0.12500000000E+03  0.12500000000E+03 0.  0.
    3000001    1    3    3    0    0  0.37302368584E+01 -0.18847090857E+01 -0.11837292488E+01  0.44573546294E+01  0.10000000000E+01 0. -1.
    1000022    2    1    0    0    0  0.29722776944E+02 -0.51074569188E+02 -0.17725541016E+02  0.62499998546E+02  0.99999963486E+01 0.  0.
    3000022    2    3    3    0    0  0.25992540085E+02 -0.49189860103E+02 -0.16541811768E+02  0.58042643917E+02  0.24999867434E+00 0.  0.
    1000022    2    1    0    0    0 -0.29722776944E+02  0.51074569188E+02  0.17725541016E+02  0.62500001454E+02  0.10000014518E+02 0.  0.
    3000022    2    5    5    0    0 -0.79903884764E+01  0.91300145502E+01  0.71329541630E+01  0.14076399063E+02  0.25000357510E+00 0.  0.
        -13    1    4    4    0    0  0.76727879125E+01 -0.14484767450E+02 -0.48308624509E+01  0.17088839032E+02  0.10500000000E+00 0.  1.
         13    1    4    4    0    0  0.18319752173E+02 -0.34705092652E+02 -0.11710949317E+02  0.40953804885E+02  0.10500000000E+00 0. -1.
    3000001    1    5    5    0    0 -0.21732388467E+02  0.41944554638E+02  0.10592586853E+02  0.48423602391E+02  0.10000000000E+01 0. -1.
        -13    1    6    6    0    0 -0.46386879515E+01  0.53320532917E+01  0.40838142312E+01  0.81631355429E+01  0.10500000000E+00 0.  1.
         13    1    6    6    0    0 -0.33517005249E+01  0.37979612586E+01  0.30491399318E+01  0.59132635197E+01  0.10500000000E+00 0. -1.
</event>
<event>
11    0  0.3462209E-009  0.9118800E+02  0.7816531E-02  0.1126479E+00
         25   -1    0    0    0    0  0.00000000000E+00  0.00000000000E+00  0.99999998245E-14  0.12500000000E+03  0.12500000000E+03 0.  0.
    3000001    1    3    3    0    0 -0.12282726913E+01  0.13129735395E+02 -0.19489074365E+02  0.23552550286E+02  0.10000000000E+01 0.  1.
    1000022    2    1    0    0    0 -0.14660208250E+02  0.29316342986E+02 -0.52267392353E+02  0.62499999182E+02  0.99999961197E+01 0.  0.
    3000022    2    3    3    0    0 -0.13431935559E+02  0.16186607591E+02 -0.32778317987E+02  0.38947448896E+02  0.24997456187E+00 0.  0.
    1000022    2    1    0    0    0  0.14660208250E+02 -0.29316342986E+02  0.52267392353E+02  0.62500000818E+02  0.10000006347E+02 0.  0.
    3000022    2    5    5    0    0  0.90067222415E+01 -0.26049347699E+02  0.43955174320E+02  0.51882650354E+02  0.24999436095E+00 0.  0.
        -13    1    4    4    0    0 -0.51666056859E+01  0.62695601953E+01 -0.12762514153E+02  0.15129242937E+02  0.10500000000E+00 0.  1.
         13    1    4    4    0    0 -0.82653298730E+01  0.99170473955E+01 -0.20015803835E+02  0.23818205959E+02  0.10500000000E+00 0. -1.
    3000001    1    5    5    0    0  0.56534860089E+01 -0.32669952864E+01  0.83122180331E+01  0.10617350464E+02  0.10000000000E+01 0. -1.
        -13    1    6    6    0    0  0.65403905685E+01 -0.18797786198E+02  0.31747832751E+02  0.37470913842E+02  0.10500000000E+00 0.  1.
         13    1    6    6    0    0  0.24663316729E+01 -0.72515615013E+01  0.12207341568E+02  0.14411736512E+02  0.10500000000E+00 0. -1.
</event>
<event>
11    0  0.3462209E-009  0.9118800E+02  0.7816531E-02  0.1126479E+00
         25   -1    0    0    0    0  0.00000000000E+00  0.00000000000E+00  0.99999998245E-14  0.12500000000E+03  0.12500000000E+03 0.  0.
    3000001    1    3    3    0    0  0.83641134616E+01  0.31068901480E+02 -0.20761338295E+02  0.38304937031E+02  0.10000000000E+01 0. -1.
    1000022    2    1    0    0    0  0.88213158759E+01  0.47048901582E+02 -0.38920882902E+02  0.62499998416E+02  0.99999961122E+01 0.  0.
    3000022    2    3    3    0    0  0.45720241428E+00  0.15980000102E+02 -0.18159544607E+02  0.24195061385E+02  0.24999550901E+00 0.  0.
    1000022    2    1    0    0    0 -0.88213158759E+01 -0.47048901582E+02  0.38920882902E+02  0.62500001584E+02  0.10000015915E+02 0.  0.
    3000022    2    5    5    0    0 -0.43202186422E+01 -0.13120725252E+02  0.62143589807E+01  0.15149207162E+02  0.24999968727E+00 0.  0.
        -13    1    4    4    0    0  0.33452028416E+00  0.95671008659E+01 -0.10899561406E+02  0.14506990958E+02  0.10500000000E+00 0. -1.
         13    1    4    4    0    0  0.12268213012E+00  0.64128992364E+01 -0.72599832012E+01  0.96880704272E+01  0.10500000000E+00 0.  1.
    3000001    1    5    5    0    0 -0.45010972337E+01 -0.33928176330E+02  0.32706523921E+02  0.47350794422E+02  0.10000000000E+01 0. -1.
        -13    1    6    6    0    0 -0.12694794776E+01 -0.38310378484E+01  0.17689765487E+01  0.44078035539E+01  0.10500000000E+00 0. -1.
         13    1    6    6    0    0 -0.30507391646E+01 -0.92896874039E+01  0.44453824320E+01  0.10741403608E+02  0.10500000000E+00 0.  1.
</event>
<event>
11    0  0.3462209E-009  0.9118800E+02  0.7816531E-02  0.1126479E+00
         25   -1    0    0    0    0  0.00000000000E+00  0.00000000000E+00  0.99999998245E-14  0.12500000000E+03  0.12500000000E+03 0.  0.
    3000001    1    3    3    0    0 -0.32230198552E+02  0.13654067304E+02 -0.58459990240E+01  0.35502041592E+02  0.10000000000E+01 0. -1.
    1000022    2    1    0    0    0 -0.53145494069E+02  0.25665625655E+02 -0.17974484710E+02  0.62500000065E+02  0.10000001368E+02 0.  0.
    3000022    2    3    3    0    0 -0.20915295518E+02  0.12011558351E+02 -0.12128485686E+02  0.26997958473E+02  0.24995206859E+00 0.  0.
    1000022    2    1    0    0    0  0.53145494069E+02 -0.25665625655E+02  0.17974484710E+02  0.62499999935E+02  0.10000000560E+02 0.  0.
    3000022    2    5    5    0    0  0.50542657376E+02 -0.21791029107E+02  0.17188788747E+02  0.57662172385E+02  0.25000279423E+00 0.  0.
        -13    1    4    4    0    0 -0.93096816732E+01  0.52945118162E+01 -0.54400423034E+01  0.12012789580E+02  0.10500000000E+00 0.  1.
         13    1    4    4    0    0 -0.11605613845E+02  0.67170465345E+01 -0.66884433828E+01  0.14985168893E+02  0.10500000000E+00 0. -1.
    3000001    1    5    5    0    0  0.26028366931E+01 -0.38745965475E+01  0.78569596315E+00  0.48378275500E+01  0.10000000000E+01 0.  1.
        -13    1    6    6    0    0  0.13715536994E+02 -0.59187949369E+01  0.46272950445E+01  0.15638765072E+02  0.10500000000E+00 0.  1.
         13    1    6    6    0    0  0.36827120382E+02 -0.15872234171E+02  0.12561493703E+02  0.42023407314E+02  0.10500000000E+00 0. -1.
</event>
<event>
11    0  0.3462209E-009  0.9118800E+02  0.7816531E-02  0.1126479E+00
         25   -1    0    0    0    0  0.00000000000E+00  0.00000000000E+00  0.99999998245E-14  0.12500000000E+03  0.12500000000E+03 0.  0.
    3000001    1    3    3    0    0 -0.16135277082E+01 -0.12268940871E+01 -0.32613859491E+01  0.39680447421E+01  0.10000000000E+01 0. -1.
    1000022    2    1    0    0    0 -0.33221228068E+00  0.32091854173E+01 -0.61610394216E+02  0.62500000566E+02  0.10000007965E+02 0.  0.
    3000022    2    3    3    0    0  0.12813154275E+01  0.44360795044E+01 -0.58349008267E+02  0.58531955824E+02  0.25003259390E+00 0.  0.
    1000022    2    1    0    0    0  0.33221228068E+00 -0.32091854173E+01  0.61610394216E+02  0.62499999434E+02  0.10000000886E+02 0.  0.
    3000022    2    5    5    0    0  0.17911561158E+01 -0.53354865142E+01  0.19462849946E+02  0.20261803905E+02  0.25002583177E+00 0.  0.
        -13    1    4    4    0    0  0.72278779975E+00  0.26197376139E+01 -0.35023835088E+02  0.35129268376E+02  0.10500000000E+00 0.  1.
         13    1    4    4    0    0  0.55852762773E+00  0.18163418905E+01 -0.23325173179E+02  0.23402687448E+02  0.10500000000E+00 0. -1.
    3000001    1    5    5    0    0 -0.14589438351E+01  0.21263010969E+01  0.42147544270E+02  0.42238195528E+02  0.10000000000E+01 0. -1.
        -13    1    6    6    0    0  0.54995690472E+00 -0.18048692014E+01  0.65633920345E+01  0.68300179670E+01  0.10500000000E+00 0. -1.
         13    1    6    6    0    0  0.12411992111E+01 -0.35306173128E+01  0.12899457911E+02  0.13431785938E+02  0.10500000000E+00 0.  1.
</event>
<event>
11    0  0.3462209E-009  0.9118800E+02  0.7816531E-02  0.1126479E+00
         25   -1    0    0    0    0  0.00000000000E+00  0.00000000000E+00  0.99999998245E-14  0.12500000000E+03  0.12500000000E+03 0.  0.
    3000001    1    3    3    0    0 -0.35926219208E+02  0.44221507405E+00 -0.14745509057E+02  0.38849952614E+02  0.10000000000E+01 0. -1.
    1000022    2    1    0    0    0 -0.58788052536E+02 -0.45583589392E+01 -0.18150379679E+02  0.62500001420E+02  0.10000006891E+02 0.  0.
    3000022    2    3    3    0    0 -0.22861833328E+02 -0.50005740133E+01 -0.34048706219E+01  0.23650048806E+02  0.25000199516E+00 0.  0.
    1000022    2    1    0    0    0  0.58788052536E+02  0.45583589392E+01  0.18150379679E+02  0.62499998580E+02  0.99999891436E+01 0.  0.
    3000022    2    5    5    0    0  0.12084451947E+02  0.15353354509E+01 -0.28806196157E+00  0.12187563645E+02  0.24998820929E+00 0.  0.
        -13    1    4    4    0    0 -0.16932851162E+02 -0.37343491400E+01 -0.25138193304E+01  0.17521333414E+02  0.10500000000E+00 0. -1.
         13    1    4    4    0    0 -0.59289821663E+01 -0.12662248733E+01 -0.89105129147E+00  0.61287153925E+01  0.10500000000E+00 0.  1.
    3000001    1    5    5    0    0  0.46703600589E+02  0.30230234883E+01  0.18438441641E+02  0.50312434936E+02  0.10000000000E+01 0.  1.
        -13    1    6    6    0    0  0.82328522088E+01  0.10020467410E+01 -0.17047927099E+00  0.82960256355E+01  0.10500000000E+00 0. -1.
         13    1    6    6    0    0  0.38515997377E+01  0.53328870989E+00 -0.11758269058E+00  0.38915380092E+01  0.10500000000E+00 0.  1.
</event>
<event>
11    0  0.3462209E-009  0.9118800E+02  0.7816531E-02  0.1126479E+00
         25   -1    0    0    0    0  0.00000000000E+00  0.00000000000E+00  0.99999998245E-14  0.12500000000E+03  0.12500000000E+03 0.  0.
    3000001    1    3    3    0    0 -0.22512255059E+02 -0.13530843280E+02  0.17138505315E+02  0.31378554972E+02  0.10000000000E+01 0. -1.
    1000022    2    1    0    0    0 -0.43912450371E+02 -0.33802555007E+02  0.27117050832E+02  0.62500002943E+02  0.99999949769E+01 0.  0.
    3000022    2    3    3    0    0 -0.21400195312E+02 -0.20271711726E+02  0.99785455169E+01  0.31121447971E+02  0.24999494330E+00 0.  0.
    1000022    2    1    0    0    0  0.43912450371E+02  0.33802555007E+02 -0.27117050832E+02  0.62499997057E+02  0.99999581864E+01 0.  0.
    3000022    2    5    5    0    0  0.11423210037E+02  0.71054526894E+01 -0.22662542358E+01  0.13644617608E+02  0.24999187906E+00 0.  0.
        -13    1    4    4    0    0 -0.10991407084E+02 -0.10330547946E+02  0.51413679557E+01  0.15936622603E+02  0.10500000000E+00 0. -1.
         13    1    4    4    0    0 -0.10408788229E+02 -0.99411637802E+01  0.48371775612E+01  0.15184825368E+02  0.10500000000E+00 0.  1.
    3000001    1    5    5    0    0  0.32489240333E+02  0.26697102317E+02 -0.24850796596E+02  0.48855379448E+02  0.10000000000E+01 0.  1.
        -13    1    6    6    0    0  0.66997315165E+01  0.42292375154E+01 -0.12974185912E+01  0.80291451822E+01  0.10500000000E+00 0.  1.
         13    1    6    6    0    0  0.47234785207E+01  0.28762151741E+01 -0.96883564460E+00  0.56154724262E+01  0.10500000000E+00 0. -1.
</event>
<event>
11    0  0.3462209E-009  0.9118800E+02  0.7816531E-02  0.1126479E+00
         25   -1    0    0    0    0  0.00000000000E+00  0.00000000000E+00  0.99999998245E-14  0.12500000000E+03  0.12500000000E+03 0.  0.
    3000001    1    3    3    0    0  0.14946838875E+01 -0.42024005816E-01  0.11301145151E+01  0.21243833829E+01  0.10000000000E+01 0.  1.
    1000022    2    1    0    0    0  0.15878252949E+02  0.27578780292E+02  0.52853966885E+02  0.62500001473E+02  0.10000016477E+02 0.  0.
    3000022    2    3    3    0    0  0.14383569062E+02  0.27620804298E+02  0.51723852370E+02  0.60375618090E+02  0.24993354467E+00 0.  0.
    1000022    2    1    0    0    0 -0.15878252949E+02 -0.27578780292E+02 -0.52853966885E+02  0.62499998527E+02  0.99999980602E+01 0.  0.
    3000022    2    5    5    0    0 -0.40734353568E+01 -0.13708982457E+01 -0.10021326293E+02  0.10906957331E+02  0.24999986995E+00 0.  0.
        -13    1    4    4    0    0  0.10540372062E+02  0.20306400399E+02  0.37970113526E+02  0.44330462287E+02  0.10500000000E+00 0.  1.
         13    1    4    4    0    0  0.38431970000E+01  0.73144038984E+01  0.13753738844E+02  0.16045155803E+02  0.10500000000E+00 0. -1.
    3000001    1    5    5    0    0 -0.11804817592E+02 -0.26207882046E+02 -0.42832640592E+02  0.51593041196E+02  0.10000000000E+01 0.  1.
        -13    1    6    6    0    0 -0.10230498115E+01 -0.37045458304E+00 -0.25098992624E+01  0.27376060385E+01  0.10500000000E+00 0. -1.
         13    1    6    6    0    0 -0.30503855453E+01 -0.10004436627E+01 -0.75114270309E+01  0.81693512923E+01  0.10500000000E+00 0.  1.
</event>
<event>
11    0  0.3462209E-009  0.9118800E+02  0.7816531E-02  0.1126479E+00
         25   -1    0    0    0    0  0.00000000000E+00  0.00000000000E+00  0.99999998245E-14  0.12500000000E+03  0.12500000000E+03 0.  0.
    3000001    1    3    3    0    0  0.38558302826E+02  0.23999673596E+02 -0.42028374374E+02  0.61887893017E+02  0.10000000000E+01 0.  1.
    1000022    2    1    0    0    0  0.38796362684E+02  0.23554858114E+02 -0.41788288447E+02  0.62499999884E+02  0.99999917928E+01 0.  0.
    3000022    2    3    3    0    0  0.23805985784E+00 -0.44481548176E+00  0.24008592622E+00  0.61210686746E+00  0.25000051299E+00 0.  0.
    1000022    2    1    0    0    0 -0.38796362684E+02 -0.23554858114E+02  0.41788288447E+02  0.62500000116E+02  0.99999932433E+01 0.  0.
    3000022    2    5    5    0    0 -0.36089160106E+02 -0.22519720762E+02  0.41484816157E+02  0.59419001809E+02  0.25000810129E+00 0.  0.
        -13    1    4    4    0    0  0.19303653366E+00 -0.28134862322E+00  0.10828250812E+00  0.37305529440E+00  0.10500000000E+00 0. -1.
         13    1    4    4    0    0  0.45023324181E-01 -0.16346685854E+00  0.13180341810E+00  0.23905157306E+00  0.10500000000E+00 0.  1.
    3000001    1    5    5    0    0 -0.27072025784E+01 -0.10351373515E+01  0.30347229036E+00  0.30809983070E+01  0.10000000000E+01 0.  1.
        -13    1    6    6    0    0 -0.14722325452E+02 -0.92191965115E+01  0.16859850968E+02  0.24207561850E+02  0.10500000000E+00 0.  1.
         13    1    6    6    0    0 -0.21366834653E+02 -0.13300524251E+02  0.24624965189E+02  0.35211439959E+02  0.10500000000E+00 0. -1.
</event>
<event>
11    0  0.3462209E-009  0.9118800E+02  0.7816531E-02  0.1126479E+00
         25   -1    0    0    0    0  0.00000000000E+00  0.00000000000E+00  0.99999998245E-14  0.12500000000E+03  0.12500000000E+03 0.  0.
    3000001    1    3    3    0    0 -0.28534379673E+01  0.21731983332E+02  0.40328443655E+00  0.21945018708E+02  0.10000000000E+01 0.  1.
    1000022    2    1    0    0    0  0.50830400356E+01  0.61396567155E+02  0.32976045319E+01  0.62499999609E+02  0.10000000051E+02 0.  0.
    3000022    2    3    3    0    0  0.79364780029E+01  0.39664583823E+02  0.28943200953E+01  0.40554980900E+02  0.24998813390E+00 0.  0.
    1000022    2    1    0    0    0 -0.50830400356E+01 -0.61396567155E+02 -0.32976045319E+01  0.62500000391E+02  0.10000004944E+02 0.  0.
    3000022    2    5    5    0    0 -0.41742152414E+01 -0.43422270605E+02 -0.67647395503E+01  0.44144556398E+02  0.25000200985E+00 0.  0.
        -13    1    4    4    0    0  0.31117497924E+01  0.15769265676E+02  0.11039307076E+01  0.16111561524E+02  0.10500000000E+00 0. -1.
         13    1    4    4    0    0  0.48247282104E+01  0.23895318147E+02  0.17903893878E+01  0.24443419376E+02  0.10500000000E+00 0.  1.
    3000001    1    5    5    0    0 -0.90882479417E+00 -0.17974296550E+02  0.34671350184E+01  0.18355443994E+02  0.10000000000E+01 0. -1.
        -13    1    6    6    0    0 -0.24547353089E+01 -0.25720875392E+02 -0.40687521118E+01  0.26156355348E+02  0.10500000000E+00 0. -1.
         13    1    6    6    0    0 -0.17194799325E+01 -0.17701395213E+02 -0.26959874386E+01  0.17988201050E+02  0.10500000000E+00 0.  1.
</event>
<event>
11    0  0.3462209E-009  0.9118800E+02  0.7816531E-02  0.1126479E+00
         25   -1    0    0    0    0  0.00000000000E+00  0.00000000000E+00  0.99999998245E-14  0.12500000000E+03  0.12500000000E+03 0.  0.
    3000001    1    3    3    0    0  0.85095525282E+01 -0.26333833773E+02  0.25611468124E+02  0.37720426627E+02  0.10000000000E+01 0.  1.
    1000022    2    1    0    0    0  0.10487604791E+02 -0.38291174325E+02  0.47223363654E+02  0.62499999135E+02  0.99999965835E+01 0.  0.
    3000022    2    3    3    0    0  0.19780522629E+01 -0.11957340552E+02  0.21611895529E+02  0.24779572508E+02  0.25000298589E+00 0.  0.
    1000022    2    1    0    0    0 -0.10487604791E+02  0.38291174325E+02 -0.47223363654E+02  0.62500000865E+02  0.10000007393E+02 0.  0.
    3000022    2    5    5    0    0 -0.55684627712E+01  0.62858926558E+01 -0.77030981170E+01  0.11398265072E+02  0.25000386889E+00 0.  0.
        -13    1    4    4    0    0  0.13619648829E+01 -0.84878229458E+01  0.15350662660E+02  0.17594088661E+02  0.10500000000E+00 0. -1.
         13    1    4    4    0    0  0.61608738008E+00 -0.34695176060E+01  0.62612328692E+01  0.71854838474E+01  0.10500000000E+00 0.  1.
    3000001    1    5    5    0    0 -0.49191420199E+01  0.32005281669E+02 -0.39520265537E+02  0.51101735793E+02  0.10000000000E+01 0.  1.
        -13    1    6    6    0    0 -0.31927429421E+01  0.36951377807E+01 -0.44470667713E+01  0.66056853226E+01  0.10500000000E+00 0. -1.
         13    1    6    6    0    0 -0.23757198290E+01  0.25907548752E+01 -0.32560313457E+01  0.47925797493E+01  0.10500000000E+00 0.  1.
</event>
<event>
11    0  0.3462209E-009  0.9118800E+02  0.7816531E-02  0.1126479E+00
         25   -1    0    0    0    0  0.00000000000E+00  0.00000000000E+00  0.99999998245E-14  0.12500000000E+03  0.12500000000E+03 0.  0.
    3000001    1    3    3    0    0 -0.87926501258E+01 -0.12398022305E+02 -0.70438861012E+01  0.16782073314E+02  0.10000000000E+01 0.  1.
    1000022    2    1    0    0    0 -0.35534863725E+02 -0.49307186784E+02 -0.10598327444E+02  0.62500001556E+02  0.10000022069E+02 0.  0.
    3000022    2    3    3    0    0 -0.26742213599E+02 -0.36909164479E+02 -0.35544413424E+01  0.45717928242E+02  0.24999750913E+00 0.  0.
    1000022    2    1    0    0    0  0.35534863725E+02  0.49307186784E+02  0.10598327444E+02  0.62499998444E+02  0.10000002622E+02 0.  0.
    3000022    2    5    5    0    0  0.33593554492E+02  0.42970395436E+02  0.73013493974E+01  0.55030482372E+02  0.24999937662E+00 0.  0.
        -13    1    4    4    0    0 -0.12237967381E+02 -0.16796605831E+02 -0.16586638712E+01  0.20848405308E+02  0.10500000000E+00 0.  1.
         13    1    4    4    0    0 -0.14504246218E+02 -0.20112558648E+02 -0.18957774712E+01  0.24869522934E+02  0.10500000000E+00 0. -1.
    3000001    1    5    5    0    0  0.19413092333E+01  0.63367913473E+01  0.32969780463E+01  0.74695160725E+01  0.10000000000E+01 0. -1.
        -13    1    6    6    0    0  0.20391379186E+02  0.26176669439E+02  0.44654100385E+01  0.33480998788E+02  0.10500000000E+00 0. -1.
         13    1    6    6    0    0  0.13202175305E+02  0.16793725997E+02  0.28359393588E+01  0.21549483583E+02  0.10500000000E+00 0.  1.
</event>
<event>
11    0  0.3462209E-009  0.9118800E+02  0.7816531E-02  0.1126479E+00
         25   -1    0    0    0    0  0.00000000000E+00  0.00000000000E+00  0.99999998245E-14  0.12500000000E+03  0.12500000000E+03 0.  0.
    3000001    1    3    3    0    0  0.34581898807E+02  0.17733103879E+00  0.32796325955E+02  0.47671146069E+02  0.10000000000E+01 0.  1.
    1000022    2    1    0    0    0  0.47826695711E+02  0.29377147516E+01  0.38861638880E+02  0.62500000117E+02  0.10000002378E+02 0.  0.
    3000022    2    3    3    0    0  0.13244796904E+02  0.27603837128E+01  0.60653129253E+01  0.14828854048E+02  0.25005644039E+00 0.  0.
    1000022    2    1    0    0    0 -0.47826695711E+02 -0.29377147516E+01 -0.38861638880E+02  0.62499999883E+02  0.10000000916E+02 0.  0.
    3000022    2    5    5    0    0 -0.13087311123E+02  0.22499500295E+01 -0.14946736704E+02  0.19995185408E+02  0.25002767824E+00 0.  0.
        -13    1    4    4    0    0  0.56362365264E+01  0.11268998755E+01  0.26266687220E+01  0.63204018137E+01  0.10500000000E+00 0. -1.
         13    1    4    4    0    0  0.76085603772E+01  0.16334838373E+01  0.34386442032E+01  0.85084522339E+01  0.10500000000E+00 0.  1.
    3000001    1    5    5    0    0 -0.34739384589E+02 -0.51876647811E+01 -0.23914902176E+02  0.42504814475E+02  0.10000000000E+01 0.  1.
        -13    1    6    6    0    0 -0.79947730464E+01  0.13761485995E+01 -0.90372008821E+01  0.12144636916E+02  0.10500000000E+00 0. -1.
         13    1    6    6    0    0 -0.50925380762E+01  0.87380142999E+00 -0.59095358218E+01  0.78505484920E+01  0.10500000000E+00 0.  1.
</event>
<event>
11    0  0.3462209E-009  0.9118800E+02  0.7816531E-02  0.1126479E+00
         25   -1    0    0    0    0  0.00000000000E+00  0.00000000000E+00  0.99999998245E-14  0.12500000000E+03  0.12500000000E+03 0.  0.
    3000001    1    3    3    0    0 -0.82044856011E+00  0.14384392969E+02 -0.13432766081E+02  0.19723668561E+02  0.10000000000E+01 0. -1.
    1000022    2    1    0    0    0  0.63009974458E+01  0.51770696543E+02 -0.32959709946E+02  0.62500002388E+02  0.10000011470E+02 0.  0.
    3000022    2    3    3    0    0  0.71214460059E+01  0.37386303573E+02 -0.19526943865E+02  0.42776333826E+02  0.25002160837E+00 0.  0.
    1000022    2    1    0    0    0 -0.63009974458E+01 -0.51770696543E+02  0.32959709946E+02  0.62499997612E+02  0.99999816248E+01 0.  0.
    3000022    2    5    5    0    0 -0.43141337737E+01 -0.50013746840E+02  0.30444585781E+02  0.58710492490E+02  0.25000365485E+00 0.  0.
        -13    1    4    4    0    0  0.47892721384E+01  0.24855668067E+02 -0.12983403191E+02  0.28448570194E+02  0.10500000000E+00 0.  1.
         13    1    4    4    0    0  0.23321738675E+01  0.12530635506E+02 -0.65435406743E+01  0.14327763632E+02  0.10500000000E+00 0. -1.
    3000001    1    5    5    0    0 -0.19868636721E+01 -0.17569497030E+01  0.25151241651E+01  0.37895051229E+01  0.10000000000E+01 0. -1.
        -13    1    6    6    0    0 -0.31352630038E+01 -0.36353445118E+02  0.22172525979E+02  0.42697011363E+02  0.10500000000E+00 0. -1.
         13    1    6    6    0    0 -0.11788707699E+01 -0.13660301722E+02  0.82720598014E+01  0.16013481126E+02  0.10500000000E+00 0.  1.
</event>
<event>
11    0  0.3462209E-009  0.9118800E+02  0.7816531E-02  0.1126479E+00
         25   -1    0    0    0    0  0.00000000000E+00  0.00000000000E+00  0.99999998245E-14  0.12500000000E+03  0.12500000000E+03 0.  0.
    3000001    1    3    3    0    0  0.48751424697E+01  0.33622396899E+02  0.19364916611E+02  0.39118187365E+02  0.10000000000E+01 0. -1.
    1000022    2    1    0    0    0  0.47640056152E+01  0.56443401875E+02  0.24447834688E+02  0.62500000225E+02  0.10000002126E+02 0.  0.
    3000022    2    3    3    0    0 -0.11113685450E+00  0.22821004976E+02  0.50829180763E+01  0.23381812860E+02  0.24999392385E+00 0.  0.
    1000022    2    1    0    0    0 -0.47640056152E+01 -0.56443401875E+02 -0.24447834688E+02  0.62499999775E+02  0.99999993153E+01 0.  0.
    3000022    2    5    5    0    0  0.48530448905E+00 -0.30115315152E+02 -0.86644323347E+01  0.31341707189E+02  0.24998939458E+00 0.  0.
        -13    1    4    4    0    0 -0.25148604284E-01  0.10621347647E+02  0.23023775818E+01  0.10868561350E+02  0.10500000000E+00 0. -1.
         13    1    4    4    0    0 -0.85988250218E-01  0.12199657328E+02  0.27805404945E+01  0.12513251510E+02  0.10500000000E+00 0.  1.
    3000001    1    5    5    0    0 -0.52493101043E+01 -0.26328086723E+02 -0.15783402353E+02  0.31158292586E+02  0.10000000000E+01 0.  1.
        -13    1    6    6    0    0  0.31715562142E+00 -0.15723352268E+02 -0.45007164509E+01  0.16358235473E+02  0.10500000000E+00 0. -1.
         13    1    6    6    0    0  0.16814886763E+00 -0.14391962884E+02 -0.41637158837E+01  0.14983471716E+02  0.10500000000E+00 0.  1.
</event>
<event>
11    0  0.3462209E-009  0.9118800E+02  0.7816531E-02  0.1126479E+00
         25   -1    0    0    0    0  0.00000000000E+00  0.00000000000E+00  0.99999998245E-14  0.12500000000E+03  0.12500000000E+03 0.  0.
    3000001    1    3    3    0    0  0.24278635138E+01  0.33692769011E+02 -0.92800692023E+01  0.35045925430E+02  0.10000000000E+01 0. -1.
    1000022    2    1    0    0    0 -0.43200997980E+01  0.59635108590E+02 -0.15206622524E+02  0.62500005800E+02  0.99999958845E+01 0.  0.
    3000022    2    3    3    0    0 -0.67479633118E+01  0.25942339579E+02 -0.59265533221E+01  0.27454080370E+02  0.25000603032E+00 0.  0.
    1000022    2    1    0    0    0  0.43200997980E+01 -0.59635108590E+02  0.15206622524E+02  0.62499994200E+02  0.99999233780E+01 0.  0.
    3000022    2    5    5    0    0 -0.43227439533E+00 -0.33244316203E+01 -0.13231152481E+01  0.36127321469E+01  0.24998570843E+00 0.  0.
        -13    1    4    4    0    0 -0.28171843677E+01  0.10603669367E+02 -0.24551431674E+01  0.11243357362E+02  0.10500000000E+00 0. -1.
         13    1    4    4    0    0 -0.39307789442E+01  0.15338670212E+02 -0.34714101547E+01  0.16210723008E+02  0.10500000000E+00 0.  1.
    3000001    1    5    5    0    0  0.47523741934E+01 -0.56310676969E+02  0.16529737772E+02  0.58887262053E+02  0.10000000000E+01 0. -1.
        -13    1    6    6    0    0 -0.28389173218E+00 -0.18757729694E+01 -0.69167834431E+00  0.20220194560E+01  0.10500000000E+00 0. -1.
         13    1    6    6    0    0 -0.14838266315E+00 -0.14486586509E+01 -0.63143690378E+00  0.15907126909E+01  0.10500000000E+00 0.  1.
</event>
<event>
11    0  0.3462209E-009  0.9118800E+02  0.7816531E-02  0.1126479E+00
         25   -1    0    0    0    0  0.00000000000E+00  0.00000000000E+00  0.99999998245E-14  0.12500000000E+03  0.12500000000E+03 0.  0.
    3000001    1    3    3    0    0  0.39650853188E+02 -0.32537179944E+02  0.12136869250E+02  0.52717756329E+02  0.10000000000E+01 0.  1.
    1000022    2    1    0    0    0  0.47291336632E+02 -0.38302592176E+02  0.10133659448E+02  0.62500001263E+02  0.10000000812E+02 0.  0.
    3000022    2    3    3    0    0  0.76404834440E+01 -0.57654122314E+01 -0.20032098018E+01  0.97822449331E+01  0.25000192802E+00 0.  0.
    1000022    2    1    0    0    0 -0.47291336632E+02  0.38302592176E+02 -0.10133659448E+02  0.62499998737E+02  0.99999850302E+01 0.  0.
    3000022    2    5    5    0    0 -0.31483105043E+02  0.28000095170E+02 -0.11127362475E+02  0.43578342462E+02  0.25000677717E+00 0.  0.
        -13    1    4    4    0    0  0.57617039616E+01 -0.43182829174E+01 -0.14977660073E+01  0.73552109356E+01  0.10500000000E+00 0. -1.
         13    1    4    4    0    0  0.18787794825E+01 -0.14471293141E+01 -0.50544379452E+00  0.24270339975E+01  0.10500000000E+00 0.  1.
    3000001    1    5    5    0    0 -0.15808231589E+02  0.10302497005E+02  0.99370302689E+00  0.18921656275E+02  0.10000000000E+01 0.  1.
        -13    1    6    6    0    0 -0.23209503526E+02  0.20612100519E+02 -0.82232835863E+01  0.32111885022E+02  0.10500000000E+00 0.  1.
         13    1    6    6    0    0 -0.82736015170E+01  0.73879946517E+01 -0.29040788888E+01  0.11466457440E+02  0.10500000000E+00 0. -1.
</event>
<event>
11    0  0.3462209E-009  0.9118800E+02  0.7816531E-02  0.1126479E+00
         25   -1    0    0    0    0  0.00000000000E+00  0.00000000000E+00  0.99999998245E-14  0.12500000000E+03  0.12500000000E+03 0.  0.
    3000001    1    3    3    0    0  0.19782267119E+02 -0.76266619213E+01 -0.30278078556E+02  0.36976561569E+02  0.10000000000E+01 0. -1.
    1000022    2    1    0    0    0  0.38769755497E+02 -0.15428142788E+02 -0.45443683326E+02  0.62499999693E+02  0.10000003811E+02 0.  0.
    3000022    2    3    3    0    0  0.18987488377E+02 -0.78014808665E+01 -0.15165604770E+02  0.25523438124E+02  0.25001402742E+00 0.  0.
    1000022    2    1    0    0    0 -0.38769755497E+02  0.15428142788E+02  0.45443683326E+02  0.62500000307E+02  0.10000007649E+02 0.  0.
    3000022    2    5    5    0    0 -0.27396779009E+02  0.10479662579E+02  0.37983581969E+02  0.47991893510E+02  0.25003138202E+00 0.  0.
        -13    1    4    4    0    0  0.94788129727E+01 -0.39563740364E+01 -0.75427504374E+01  0.12743818111E+02  0.10500000000E+00 0.  1.
         13    1    4    4    0    0  0.95086754048E+01 -0.38451068302E+01 -0.76228543327E+01  0.12779620013E+02  0.10500000000E+00 0. -1.
    3000001    1    5    5    0    0 -0.11372976487E+02  0.49484802085E+01  0.74601013577E+01  0.14508106797E+02  0.10000000000E+01 0. -1.
        -13    1    6    6    0    0 -0.21055778871E+02  0.80521589049E+01  0.29206388079E+02  0.36894541826E+02  0.10500000000E+00 0.  1.
         13    1    6    6    0    0 -0.63410001379E+01  0.24275036745E+01  0.87771938891E+01  0.11097351684E+02  0.10500000000E+00 0. -1.
</event>
<event>
11    0  0.3462209E-009  0.9118800E+02  0.7816531E-02  0.1126479E+00
         25   -1    0    0    0    0  0.00000000000E+00  0.00000000000E+00  0.99999998245E-14  0.12500000000E+03  0.12500000000E+03 0.  0.
    3000001    1    3    3    0    0 -0.30944109564E+00  0.57038996223E+01 -0.11832181328E+02  0.13176901748E+02  0.10000000000E+01 0.  1.
    1000022    2    1    0    0    0  0.16140653452E+02  0.20257884810E+02 -0.55994171469E+02  0.62499999527E+02  0.10000005582E+02 0.  0.
    3000022    2    3    3    0    0  0.16450094548E+02  0.14553985188E+02 -0.44161990140E+02  0.49323097779E+02  0.25001186292E+00 0.  0.
    1000022    2    1    0    0    0 -0.16140653452E+02 -0.20257884810E+02  0.55994171469E+02  0.62500000473E+02  0.10000011489E+02 0.  0.
    3000022    2    5    5    0    0 -0.16313760535E+02 -0.20893321105E+02  0.52631956765E+02  0.58930934340E+02  0.24999928270E+00 0.  0.
        -13    1    4    4    0    0  0.72226939155E+01  0.64401621363E+01 -0.19334449266E+02  0.21621169005E+02  0.10500000000E+00 0.  1.
         13    1    4    4    0    0  0.92274006321E+01  0.81138230513E+01 -0.24827540874E+02  0.27701928774E+02  0.10500000000E+00 0. -1.
    3000001    1    5    5    0    0  0.17310708352E+00  0.63543629477E+00  0.33622147033E+01  0.35690661325E+01  0.10000000000E+01 0. -1.
        -13    1    6    6    0    0 -0.12394208104E+02 -0.15872310542E+02  0.40027112722E+02  0.44807671378E+02  0.10500000000E+00 0. -1.
         13    1    6    6    0    0 -0.39195524314E+01 -0.50210105625E+01  0.12604844043E+02  0.14123262962E+02  0.10500000000E+00 0.  1.
</event>
<event>
11    0  0.3462209E-009  0.9118800E+02  0.7816531E-02  0.1126479E+00
         25   -1    0    0    0    0  0.00000000000E+00  0.00000000000E+00  0.99999998245E-14  0.12500000000E+03  0.12500000000E+03 0.  0.
    3000001    1    3    3    0    0 -0.30726639540E+02  0.50881687163E+01  0.91448380457E+01  0.32475281388E+02  0.10000000000E+01 0. -1.
    1000022    2    1    0    0    0 -0.57116961593E+02  0.18465839331E+02  0.14244838036E+02  0.62499999020E+02  0.99999971522E+01 0.  0.
    3000022    2    3    3    0    0 -0.26390322052E+02  0.13377670615E+02  0.50999999906E+01  0.30024717632E+02  0.24999979343E+00 0.  0.
    1000022    2    1    0    0    0  0.57116961593E+02 -0.18465839331E+02 -0.14244838036E+02  0.62500000980E+02  0.10000009404E+02 0.  0.
    3000022    2    5    5    0    0  0.38299763651E+02 -0.10563002300E+02 -0.49026138681E+01  0.40031825177E+02  0.24998190190E+00 0.  0.
        -13    1    4    4    0    0 -0.13209098789E+02  0.67493525606E+01  0.26058074162E+01  0.15061052689E+02  0.10500000000E+00 0.  1.
         13    1    4    4    0    0 -0.13181223263E+02  0.66283180539E+01  0.24941925744E+01  0.14963664943E+02  0.10500000000E+00 0. -1.
    3000001    1    5    5    0    0  0.18817197942E+02 -0.79028370312E+01 -0.93422241682E+01  0.22468175803E+02  0.10000000000E+01 0. -1.
        -13    1    6    6    0    0  0.12262761533E+02 -0.34161237204E+01 -0.15318010047E+01  0.12821960108E+02  0.10500000000E+00 0.  1.
         13    1    6    6    0    0  0.26037002118E+02 -0.71468785791E+01 -0.33708128633E+01  0.27209865069E+02  0.10500000000E+00 0. -1.
</event>
<event>
11    0  0.3462209E-009  0.9118800E+02  0.7816531E-02  0.1126479E+00
         25   -1    0    0    0    0  0.00000000000E+00  0.00000000000E+00  0.99999998245E-14  0.12500000000E+03  0.12500000000E+03 0.  0.
    3000001    1    3    3    0    0  0.66858963664E+00  0.46932838946E+00  0.17497950557E+01  0.21746411143E+01  0.10000000000E+01 0. -1.
    1000022    2    1    0    0    0 -0.24986586400E+02  0.13082617274E+02  0.54870442576E+02  0.62499999001E+02  0.10000001599E+02 0.  0.
    3000022    2    3    3    0    0 -0.25655176036E+02  0.12613288885E+02  0.53120647521E+02  0.60325357887E+02  0.24999443448E+00 0.  0.
    1000022    2    1    0    0    0  0.24986586400E+02 -0.13082617274E+02 -0.54870442576E+02  0.62500000999E+02  0.10000014085E+02 0.  0.
    3000022    2    5    5    0    0  0.15132205817E+02 -0.38076153346E+01 -0.22322910410E+02  0.27237041285E+02  0.25000276423E+00 0.  0.
        -13    1    4    4    0    0 -0.83191071043E+01  0.40340441526E+01  0.17203431361E+02  0.19530748343E+02  0.10500000000E+00 0.  1.
         13    1    4    4    0    0 -0.17336068932E+02  0.85792447321E+01  0.35917216160E+02  0.40794609544E+02  0.10500000000E+00 0. -1.
    3000001    1    5    5    0    0  0.98543805826E+01 -0.92750019396E+01 -0.32547532166E+02  0.35262959714E+02  0.10000000000E+01 0.  1.
        -13    1    6    6    0    0  0.51399137978E+01 -0.13428109997E+01 -0.76469308874E+01  0.93117362627E+01  0.10500000000E+00 0. -1.
         13    1    6    6    0    0  0.99922920191E+01 -0.24648043349E+01 -0.14675979523E+02  0.17925305023E+02  0.10500000000E+00 0.  1.
</event>
<event>
11    0  0.3462209E-009  0.9118800E+02  0.7816531E-02  0.1126479E+00
         25   -1    0    0    0    0  0.00000000000E+00  0.00000000000E+00  0.99999998245E-14  0.12500000000E+03  0.12500000000E+03 0.  0.
    3000001    1    3    3    0    0 -0.11520892949E+02  0.19276042133E+02 -0.17121303619E+02  0.28256606524E+02  0.10000000000E+01 0.  1.
    1000022    2    1    0    0    0 -0.34587942905E+02  0.37917279409E+02 -0.34237464681E+02  0.62499999849E+02  0.10000006061E+02 0.  0.
    3000022    2    3    3    0    0 -0.23067049956E+02  0.18641237277E+02 -0.17116161062E+02  0.34243393325E+02  0.24999214673E+00 0.  0.
    1000022    2    1    0    0    0  0.34587942905E+02 -0.37917279409E+02  0.34237464681E+02  0.62500000151E+02  0.10000007943E+02 0.  0.
    3000022    2    5    5    0    0  0.26956431765E+02 -0.33416836661E+02  0.31226177132E+02  0.53089272235E+02  0.25000434443E+00 0.  0.
        -13    1    4    4    0    0 -0.12843543565E+02  0.10363975848E+02 -0.95998540920E+01  0.19092847621E+02  0.10500000000E+00 0.  1.
         13    1    4    4    0    0 -0.10223506391E+02  0.82772614284E+01 -0.75163069696E+01  0.15150545704E+02  0.10500000000E+00 0. -1.
    3000001    1    5    5    0    0  0.76315111402E+01 -0.45004427476E+01  0.30112875490E+01  0.94107279160E+01  0.10000000000E+01 0.  1.
        -13    1    6    6    0    0  0.19069577310E+02 -0.23586811487E+02  0.22095473369E+02  0.37526089902E+02  0.10500000000E+00 0.  1.
         13    1    6    6    0    0  0.78868544544E+01 -0.98300251744E+01  0.91307037631E+01  0.15563182333E+02  0.10500000000E+00 0. -1.
</event>
<event>
11    0  0.3462209E-009  0.9118800E+02  0.7816531E-02  0.1126479E+00
         25   -1    0    0    0    0  0.00000000000E+00  0.00000000000E+00  0.99999998245E-14  0.12500000000E+03  0.12500000000E+03 0.  0.
    3000001    1    3    3    0    0  0.38537041284E+01  0.88489642923E+01  0.49892800995E+01  0.10910917490E+02  0.10000000000E+01 0.  1.
    1000022    2    1    0    0    0  0.16784933235E+01  0.51493348001E+02  0.33939173359E+02  0.62500003824E+02  0.10000038078E+02 0.  0.
    3000022    2    3    3    0    0 -0.21752108049E+01  0.42644383709E+02  0.28949893259E+02  0.51589086335E+02  0.25001032327E+00 0.  0.
    1000022    2    1    0    0    0 -0.16784933235E+01 -0.51493348001E+02 -0.33939173359E+02  0.62499996176E+02  0.99999902746E+01 0.  0.
    3000022    2    5    5    0    0  0.12979687574E+01 -0.43935631686E+02 -0.25851651376E+02  0.50994066650E+02  0.25000031188E+00 0.  0.
        -13    1    4    4    0    0 -0.73632423057E+00  0.15215498625E+02  0.10277687571E+02  0.18376492010E+02  0.10500000000E+00 0.  1.
         13    1    4    4    0    0 -0.14388865743E+01  0.27428885083E+02  0.18672205688E+02  0.33212594325E+02  0.10500000000E+00 0. -1.
    3000001    1    5    5    0    0 -0.29764620809E+01 -0.75577163155E+01 -0.80875219825E+01  0.11505929525E+02  0.10000000000E+01 0. -1.
        -13    1    6    6    0    0  0.30636426302E+00 -0.11393140744E+02 -0.67128507185E+01  0.13227656816E+02  0.10500000000E+00 0. -1.
         13    1    6    6    0    0  0.99160449443E+00 -0.32542490942E+02 -0.19138800658E+02  0.37766409835E+02  0.10500000000E+00 0.  1.
</event>
<event>
11    0  0.3462209E-009  0.9118800E+02  0.7816531E-02  0.1126479E+00
         25   -1    0    0    0    0  0.00000000000E+00  0.00000000000E+00  0.99999998245E-14  0.12500000000E+03  0.12500000000E+03 0.  0.
    3000001    1    3    3    0    0 -0.39984063392E+01 -0.45734596287E+01 -0.34393750911E+02  0.34940433425E+02  0.10000000000E+01 0.  1.
    1000022    2    1    0    0    0  0.10368885801E+01 -0.49728658000E+01 -0.61485327116E+02  0.62500000157E+02  0.10000001844E+02 0.  0.
    3000022    2    3    3    0    0  0.50352949193E+01 -0.39940617133E+00 -0.27091576205E+02  0.27559566732E+02  0.24999390937E+00 0.  0.
    1000022    2    1    0    0    0 -0.10368885801E+01  0.49728658000E+01  0.61485327116E+02  0.62499999843E+02  0.99999998797E+01 0.  0.
    3000022    2    5    5    0    0  0.33016244396E-01  0.33412643487E+01  0.59333370045E+02  0.59427909534E+02  0.24998638029E+00 0.  0.
        -13    1    4    4    0    0  0.35472653652E+01 -0.31967216094E+00 -0.19212361723E+02  0.19539988481E+02  0.10500000000E+00 0. -1.
         13    1    4    4    0    0  0.14880295540E+01 -0.79734010383E-01 -0.78792144819E+01  0.80195782506E+01  0.10500000000E+00 0.  1.
    3000001    1    5    5    0    0 -0.10699048245E+01  0.16316014513E+01  0.21519570714E+01  0.30720903090E+01  0.10000000000E+01 0.  1.
        -13    1    6    6    0    0  0.50822096276E-01  0.20365777929E+01  0.37090874278E+02  0.37146927352E+02  0.10500000000E+00 0.  1.
         13    1    6    6    0    0 -0.17805851879E-01  0.13046865558E+01  0.22242495767E+02  0.22280982182E+02  0.10500000000E+00 0. -1.
</event>
<event>
11    0  0.3462209E-009  0.9118800E+02  0.7816531E-02  0.1126479E+00
         25   -1    0    0    0    0  0.00000000000E+00  0.00000000000E+00  0.99999998245E-14  0.12500000000E+03  0.12500000000E+03 0.  0.
    3000001    1    3    3    0    0 -0.18298667145E+02 -0.12425774400E+02  0.13644397381E+02  0.26007896274E+02  0.10000000000E+01 0.  1.
    1000022    2    1    0    0    0 -0.34510269382E+02 -0.35259832495E+02  0.37040997604E+02  0.62500000311E+02  0.10000002751E+02 0.  0.
    3000022    2    3    3    0    0 -0.16211602237E+02 -0.22834058096E+02  0.23396600223E+02  0.36492104037E+02  0.24999776374E+00 0.  0.
    1000022    2    1    0    0    0  0.34510269382E+02  0.35259832495E+02 -0.37040997604E+02  0.62499999689E+02  0.99999988586E+01 0.  0.
    3000022    2    5    5    0    0  0.36918031637E+01  0.27619872009E+01 -0.41677786128E+00  0.46361830103E+01  0.25001044393E+00 0.  0.
        -13    1    4    4    0    0 -0.58973595055E+01 -0.84023474339E+01  0.86028600767E+01  0.13393973198E+02  0.10500000000E+00 0.  1.
         13    1    4    4    0    0 -0.10314242732E+02 -0.14431710662E+02  0.14793740146E+02  0.23098130839E+02  0.10500000000E+00 0. -1.
    3000001    1    5    5    0    0  0.30818466218E+02  0.32497845295E+02 -0.36624219742E+02  0.57863816678E+02  0.10000000000E+01 0.  1.
        -13    1    6    6    0    0  0.15824528308E+01  0.11122491564E+01 -0.14466918330E+00  0.19424750501E+01  0.10500000000E+00 0. -1.
         13    1    6    6    0    0  0.21093503329E+01  0.16497380445E+01 -0.27210867797E+00  0.26937079602E+01  0.10500000000E+00 0.  1.
</event>
<event>
11    0  0.3462209E-009  0.9118800E+02  0.7816531E-02  0.1126479E+00
         25   -1    0    0    0    0  0.00000000000E+00  0.00000000000E+00  0.99999998245E-14  0.12500000000E+03  0.12500000000E+03 0.  0.
    3000001    1    3    3    0    0 -0.82861043795E+00  0.34658604572E+00  0.33714321036E+01  0.36295001824E+01  0.10000000000E+01 0.  1.
    1000022    2    1    0    0    0 -0.35226765330E+02  0.30368593500E+02  0.40534843582E+02  0.62499999135E+02  0.99999940453E+01 0.  0.
    3000022    2    3    3    0    0 -0.34398154892E+02  0.30022007454E+02  0.37163411478E+02  0.58870498953E+02  0.25000536526E+00 0.  0.
    1000022    2    1    0    0    0  0.35226765330E+02 -0.30368593500E+02 -0.40534843582E+02  0.62500000865E+02  0.10000004856E+02 0.  0.
    3000022    2    5    5    0    0  0.14168009049E+02 -0.11233361513E+02 -0.96593032862E+01  0.20500866256E+02  0.24997200578E+00 0.  0.
        -13    1    4    4    0    0 -0.17051984855E+02  0.14912844285E+02  0.18356593858E+02  0.29157137638E+02  0.10500000000E+00 0. -1.
         13    1    4    4    0    0 -0.17346170038E+02  0.15109163169E+02  0.18806817620E+02  0.29713361315E+02  0.10500000000E+00 0.  1.
    3000001    1    5    5    0    0  0.21058756282E+02 -0.19135231987E+02 -0.30875540296E+02  0.41999134609E+02  0.10000000000E+01 0. -1.
        -13    1    6    6    0    0  0.33684440067E+01 -0.26498620183E+01 -0.22866779543E+01  0.48588172233E+01  0.10500000000E+00 0. -1.
         13    1    6    6    0    0  0.10799565042E+02 -0.85834994946E+01 -0.73726253319E+01  0.15642049033E+02  0.10500000000E+00 0.  1.
</event>
<event>
11    0  0.3462209E-009  0.9118800E+02  0.7816531E-02  0.1126479E+00
         25   -1    0    0    0    0  0.00000000000E+00  0.00000000000E+00  0.99999998245E-14  0.12500000000E+03  0.12500000000E+03 0.  0.
    3000001    1    3    3    0    0  0.31081321744E+02 -0.20768942154E+02  0.47675915639E+02  0.60591999898E+02  0.10000000000E+01 0. -1.
    1000022    2    1    0    0    0  0.32190148347E+02 -0.19723023646E+02  0.48795968478E+02  0.62499998689E+02  0.99999992043E+01 0.  0.
    3000022    2    3    3    0    0  0.11088266030E+01  0.10459185081E+01  0.11200528391E+01  0.19079987917E+01  0.24999813130E+00 0.  0.
    1000022    2    1    0    0    0 -0.32190148347E+02  0.19723023646E+02 -0.48795968478E+02  0.62500001311E+02  0.10000015588E+02 0.  0.
    3000022    2    5    5    0    0 -0.22633776656E+02  0.14349966914E+02 -0.26791606023E+02  0.37895409349E+02  0.25000059413E+00 0.  0.
        -13    1    4    4    0    0  0.71184797137E+00  0.71325354595E+00  0.79204038121E+00  0.12860058789E+01  0.10500000000E+00 0. -1.
         13    1    4    4    0    0  0.39697863165E+00  0.33266496216E+00  0.32801245785E+00  0.62199291277E+00  0.10500000000E+00 0.  1.
    3000001    1    5    5    0    0 -0.95563716915E+01  0.53730567320E+01 -0.22004362455E+02  0.24604591962E+02  0.10000000000E+01 0. -1.
        -13    1    6    6    0    0 -0.14453553854E+02  0.91089993580E+01 -0.17028348051E+02  0.24121665586E+02  0.10500000000E+00 0.  1.
         13    1    6    6    0    0 -0.81802228019E+01  0.52409675560E+01 -0.97632579719E+01  0.13773743763E+02  0.10500000000E+00 0. -1.
</event>
<event>
11    0  0.3462209E-009  0.9118800E+02  0.7816531E-02  0.1126479E+00
         25   -1    0    0    0    0  0.00000000000E+00  0.00000000000E+00  0.99999998245E-14  0.12500000000E+03  0.12500000000E+03 0.  0.
    3000001    1    3    3    0    0 -0.42692866072E+01 -0.41448877214E+01  0.99898144526E-01  0.60346401713E+01  0.10000000000E+01 0. -1.
    1000022    2    1    0    0    0 -0.54334376731E+02 -0.23279761021E+02 -0.17665733275E+02  0.62499999286E+02  0.10000000532E+02 0.  0.
    3000022    2    3    3    0    0 -0.50065090124E+02 -0.19134873299E+02 -0.17765631419E+02  0.56465359115E+02  0.24998979983E+00 0.  0.
    1000022    2    1    0    0    0  0.54334376731E+02  0.23279761021E+02  0.17665733275E+02  0.62500000714E+02  0.10000009459E+02 0.  0.
    3000022    2    5    5    0    0  0.47380624296E+02  0.19090873627E+02  0.18381784659E+02  0.54289386844E+02  0.25000438331E+00 0.  0.
        -13    1    4    4    0    0 -0.20293789547E+02 -0.77005306375E+01 -0.71563974101E+01  0.22855220742E+02  0.10500000000E+00 0. -1.
         13    1    4    4    0    0 -0.29771300577E+02 -0.11434342662E+02 -0.10609234009E+02  0.33610138373E+02  0.10500000000E+00 0.  1.
    3000001    1    5    5    0    0  0.69537524353E+01  0.41888873943E+01 -0.71605138431E+00  0.82106138698E+01  0.10000000000E+01 0.  1.
        -13    1    6    6    0    0  0.24284737911E+02  0.98548806281E+01  0.94101281792E+01  0.27846520518E+02  0.10500000000E+00 0.  1.
         13    1    6    6    0    0  0.23095886384E+02  0.92359929984E+01  0.89716564796E+01  0.26442866326E+02  0.10500000000E+00 0. -1.
</event>
<event>
11    0  0.3462209E-009  0.9118800E+02  0.7816531E-02  0.1126479E+00
         25   -1    0    0    0    0  0.00000000000E+00  0.00000000000E+00  0.99999998245E-14  0.12500000000E+03  0.12500000000E+03 0.  0.
    3000001    1    3    3    0    0  0.25163321175E+02 -0.42207039726E+02  0.29533822110E+02  0.57339982415E+02  0.10000000000E+01 0. -1.
    1000022    2    1    0    0    0  0.27281464009E+02 -0.46902491048E+02  0.29362016606E+02  0.62499999647E+02  0.99999995866E+01 0.  0.
    3000022    2    3    3    0    0  0.21181428338E+01 -0.46954513217E+01 -0.17180550386E+00  0.51600172313E+01  0.24993702703E+00 0.  0.
    1000022    2    1    0    0    0 -0.27281464009E+02  0.46902491048E+02 -0.29362016606E+02  0.62500000353E+02  0.10000004004E+02 0.  0.
    3000022    2    5    5    0    0 -0.16259214145E+01 -0.44580039742E-02 -0.13798366725E+01  0.21471120302E+01  0.25000101485E+00 0.  0.
        -13    1    4    4    0    0  0.13598417104E+01 -0.28837829737E+01 -0.13499527168E+00  0.31929018839E+01  0.10500000000E+00 0.  1.
         13    1    4    4    0    0  0.75830112337E+00 -0.18116683480E+01 -0.36810232182E-01  0.19671153474E+01  0.10500000000E+00 0. -1.
    3000001    1    5    5    0    0 -0.25655542594E+02  0.46906949052E+02 -0.27982179933E+02  0.60352888323E+02  0.10000000000E+01 0. -1.
        -13    1    6    6    0    0 -0.11986154258E+01  0.26518274221E-01 -0.98780659895E+00  0.15569743205E+01  0.10500000000E+00 0. -1.
         13    1    6    6    0    0 -0.42730598870E+00 -0.30976278195E-01 -0.39203007360E+00  0.59013770969E+00  0.10500000000E+00 0.  1.
</event>
<event>
11    0  0.3462209E-009  0.9118800E+02  0.7816531E-02  0.1126479E+00
         25   -1    0    0    0    0  0.00000000000E+00  0.00000000000E+00  0.99999998245E-14  0.12500000000E+03  0.12500000000E+03 0.  0.
    3000001    1    3    3    0    0  0.20945133314E+02 -0.20328542656E+02 -0.37578925361E+02  0.47593317675E+02  0.10000000000E+01 0. -1.
    1000022    2    1    0    0    0  0.24527530856E+02 -0.30955556316E+02 -0.47396242188E+02  0.62500000366E+02  0.10000001778E+02 0.  0.
    3000022    2    3    3    0    0  0.35823975418E+01 -0.10627013660E+02 -0.98173168271E+01  0.14906682691E+02  0.24997539837E+00 0.  0.
    1000022    2    1    0    0    0 -0.24527530856E+02  0.30955556316E+02  0.47396242188E+02  0.62499999634E+02  0.99999971979E+01 0.  0.
    3000022    2    5    5    0    0 -0.93634955418E+01  0.54025860418E+01  0.15469720767E+02  0.18874261510E+02  0.25000443626E+00 0.  0.
        -13    1    4    4    0    0  0.14584210837E+01 -0.41320915743E+01 -0.38370378395E+01  0.58253804354E+01  0.10500000000E+00 0. -1.
         13    1    4    4    0    0  0.21239764581E+01 -0.64949220856E+01 -0.59802789876E+01  0.90813022558E+01  0.10500000000E+00 0.  1.
    3000001    1    5    5    0    0 -0.15164035314E+02  0.25552970274E+02  0.31926521421E+02  0.43625738124E+02  0.10000000000E+01 0. -1.
        -13    1    6    6    0    0 -0.28867407158E+01  0.17106113156E+01  0.48534560917E+01  0.59014001785E+01  0.10500000000E+00 0. -1.
         13    1    6    6    0    0 -0.64767548260E+01  0.36919747262E+01  0.10616264675E+02  0.12972861331E+02  0.10500000000E+00 0.  1.
</event>
<event>
11    0  0.3462209E-009  0.9118800E+02  0.7816531E-02  0.1126479E+00
         25   -1    0    0    0    0  0.00000000000E+00  0.00000000000E+00  0.99999998245E-14  0.12500000000E+03  0.12500000000E+03 0.  0.
    3000001    1    3    3    0    0 -0.19542119323E+01  0.48842893073E+01  0.12588489935E+02  0.13680106182E+02  0.10000000000E+01 0. -1.
    1000022    2    1    0    0    0 -0.12518419767E+02  0.44289482376E+01  0.60248846774E+02  0.62499999032E+02  0.99999962741E+01 0.  0.
    3000022    2    3    3    0    0 -0.10564207835E+02 -0.45534106973E+00  0.47660356839E+02  0.48819892850E+02  0.25000239975E+00 0.  0.
    1000022    2    1    0    0    0  0.12518419767E+02 -0.44289482376E+01 -0.60248846774E+02  0.62500000968E+02  0.10000008376E+02 0.  0.
    3000022    2    5    5    0    0  0.12845364163E+02 -0.20121633929E+01 -0.56077683277E+02  0.57565799256E+02  0.25000044820E+00 0.  0.
        -13    1    4    4    0    0 -0.51176151324E+01 -0.20691935418E+00  0.23391979112E+02  0.23946367408E+02  0.10500000000E+00 0. -1.
         13    1    4    4    0    0 -0.54465927024E+01 -0.24842171556E+00  0.24268377727E+02  0.24873525442E+02  0.10500000000E+00 0.  1.
    3000001    1    5    5    0    0 -0.32694439612E+00 -0.24167848447E+01 -0.41711634965E+01  0.49342017123E+01  0.10000000000E+01 0.  1.
        -13    1    6    6    0    0  0.48441416206E+01 -0.75570335079E+00 -0.21415353872E+02  0.21969642739E+02  0.10500000000E+00 0. -1.
         13    1    6    6    0    0  0.80012225426E+01 -0.12564600421E+01 -0.34662329405E+02  0.35596156517E+02  0.10500000000E+00 0.  1.
</event>
<event>
11    0  0.3462209E-009  0.9118800E+02  0.7816531E-02  0.1126479E+00
         25   -1    0    0    0    0  0.00000000000E+00  0.00000000000E+00  0.99999998245E-14  0.12500000000E+03  0.12500000000E+03 0.  0.
    3000001    1    3    3    0    0  0.28468694240E+02 -0.35631846848E+01 -0.28015626674E+02  0.40112818085E+02  0.10000000000E+01 0.  1.
    1000022    2    1    0    0    0  0.46024596658E+02 -0.11427881423E+02 -0.39463778162E+02  0.62499998290E+02  0.10000001400E+02 0.  0.
    3000022    2    3    3    0    0  0.17555902418E+02 -0.78646967386E+01 -0.11448151489E+02  0.22387180204E+02  0.25000098645E+00 0.  0.
    1000022    2    1    0    0    0 -0.46024596658E+02  0.11427881423E+02  0.39463778162E+02  0.62500001710E+02  0.10000022780E+02 0.  0.
    3000022    2    5    5    0    0 -0.78048583785E+01  0.44889594953E+01  0.38659030061E+01  0.98017498674E+01  0.25004550054E+00 0.  0.
        -13    1    4    4    0    0  0.79636962116E+01 -0.35149635488E+01 -0.51263923308E+01  0.10102789191E+02  0.10500000000E+00 0. -1.
         13    1    4    4    0    0  0.95922062059E+01 -0.43497331898E+01 -0.63217591580E+01  0.12284391013E+02  0.10500000000E+00 0.  1.
    3000001    1    5    5    0    0 -0.38219738279E+02  0.69389219282E+01  0.35597875156E+02  0.52698251843E+02  0.10000000000E+01 0. -1.
        -13    1    6    6    0    0 -0.45703014310E+01  0.26447410541E+01  0.23352910875E+01  0.57746792013E+01  0.10500000000E+00 0.  1.
         13    1    6    6    0    0 -0.32345569475E+01  0.18442184411E+01  0.15306119186E+01  0.40270706662E+01  0.10500000000E+00 0. -1.
</event>
<event>
11    0  0.3462209E-009  0.9118800E+02  0.7816531E-02  0.1126479E+00
         25   -1    0    0    0    0  0.00000000000E+00  0.00000000000E+00  0.99999998245E-14  0.12500000000E+03  0.12500000000E+03 0.  0.
    3000001    1    3    3    0    0 -0.15204185953E+02  0.58940024638E+01  0.39577416942E+02  0.42816801227E+02  0.10000000000E+01 0.  1.
    1000022    2    1    0    0    0 -0.18412241337E+02  0.31397837184E+01  0.58799500107E+02  0.62500000373E+02  0.99999980433E+01 0.  0.
    3000022    2    3    3    0    0 -0.32080553849E+01 -0.27542187454E+01  0.19222083165E+02  0.19683199145E+02  0.25001429041E+00 0.  0.
    1000022    2    1    0    0    0  0.18412241337E+02 -0.31397837184E+01 -0.58799500107E+02  0.62499999627E+02  0.99999933838E+01 0.  0.
    3000022    2    5    5    0    0  0.12582191781E+02 -0.67169662235E+01 -0.40440389626E+02  0.42882592812E+02  0.24993576476E+00 0.  0.
        -13    1    4    4    0    0 -0.23673128545E+01 -0.20544319330E+01  0.14111011662E+02  0.14455328978E+02  0.10500000000E+00 0.  1.
         13    1    4    4    0    0 -0.84074253043E+00 -0.69978681239E+00  0.51110715028E+01  0.52278701678E+01  0.10500000000E+00 0. -1.
    3000001    1    5    5    0    0  0.58300495561E+01  0.35771825051E+01 -0.18359110481E+02  0.19617406816E+02  0.10000000000E+01 0.  1.
        -13    1    6    6    0    0  0.47653309046E+01 -0.24766046051E+01 -0.15259266583E+02  0.16177088448E+02  0.10500000000E+00 0. -1.
         13    1    6    6    0    0  0.78168608768E+01 -0.42403616184E+01 -0.25181123043E+02  0.26705504364E+02  0.10500000000E+00 0.  1.
</event>
<event>
11    0  0.3462209E-009  0.9118800E+02  0.7816531E-02  0.1126479E+00
         25   -1    0    0    0    0  0.00000000000E+00  0.00000000000E+00  0.99999998245E-14  0.12500000000E+03  0.12500000000E+03 0.  0.
    3000001    1    3    3    0    0  0.14117401391E+02 -0.43454039398E+02 -0.51011176750E+01  0.45984518738E+02  0.10000000000E+01 0. -1.
    1000022    2    1    0    0    0  0.14190572694E+02 -0.59918405459E+02 -0.38291373775E+01  0.62500000468E+02  0.10000004967E+02 0.  0.
    3000022    2    3    3    0    0  0.73171302139E-01 -0.16464366061E+02  0.12719802975E+01  0.16515481730E+02  0.24999812887E+00 0.  0.
    1000022    2    1    0    0    0 -0.14190572694E+02  0.59918405459E+02  0.38291373775E+01  0.62499999532E+02  0.99999991116E+01 0.  0.
    3000022    2    5    5    0    0  0.14172915469E+01  0.26395376707E+01  0.13062670338E+00  0.30092178717E+01  0.24990882338E+00 0.  0.
        -13    1    4    4    0    0  0.83163069300E-01 -0.73248688588E+01  0.52280182989E+00  0.73447237285E+01  0.10500000000E+00 0. -1.
         13    1    4    4    0    0 -0.99917671613E-02 -0.91394972025E+01  0.74917846765E+00  0.91707580018E+01  0.10500000000E+00 0.  1.
    3000001    1    5    5    0    0 -0.15607864240E+02  0.57278867789E+02  0.36985106741E+01  0.59490781660E+02  0.10000000000E+01 0. -1.
        -13    1    6    6    0    0  0.67737599279E+00  0.13464934655E+01  0.11118628396E-01  0.15109703876E+01  0.10500000000E+00 0. -1.
         13    1    6    6    0    0  0.73991555406E+00  0.12930442053E+01  0.11950807498E+00  0.14982474842E+01  0.10500000000E+00 0.  1.
</event>
<event>
11    0  0.3462209E-009  0.9118800E+02  0.7816531E-02  0.1126479E+00
         25   -1    0    0    0    0  0.00000000000E+00  0.00000000000E+00  0.99999998245E-14  0.12500000000E+03  0.12500000000E+03 0.  0.
    3000001    1    3    3    0    0  0.92711852136E+01  0.19409527780E+01 -0.13563614846E+00  0.95257844883E+01  0.10000000000E+01 0.  1.
    1000022    2    1    0    0    0  0.55246714003E+02  0.18274613055E+02  0.20496071968E+02  0.62500000696E+02  0.10000011522E+02 0.  0.
    3000022    2    3    3    0    0  0.45975528790E+02  0.16333660277E+02  0.20631708117E+02  0.52974216208E+02  0.24999503686E+00 0.  0.
    1000022    2    1    0    0    0 -0.55246714003E+02 -0.18274613055E+02 -0.20496071968E+02  0.62499999304E+02  0.10000002821E+02 0.  0.
    3000022    2    5    5    0    0 -0.23898026020E+01  0.11628185437E+01 -0.14675223065E+01  0.30462144602E+01  0.24999475093E+00 0.  0.
        -13    1    4    4    0    0  0.27322268469E+02  0.97024388480E+01  0.12329225854E+02  0.31506578822E+02  0.10500000000E+00 0. -1.
         13    1    4    4    0    0  0.18653260321E+02  0.66312214287E+01  0.83024822625E+01  0.21467637386E+02  0.10500000000E+00 0.  1.
    3000001    1    5    5    0    0 -0.52856911401E+02 -0.19437431598E+02 -0.19028549662E+02  0.59453784844E+02  0.10000000000E+01 0. -1.
        -13    1    6    6    0    0 -0.90367811076E+00  0.37461597170E+00 -0.55140975587E+00  0.11278514853E+01  0.10500000000E+00 0. -1.
         13    1    6    6    0    0 -0.14861244912E+01  0.78820257199E+00 -0.91611255063E+00  0.19183629749E+01  0.10500000000E+00 0.  1.
</event>
<event>
11    0  0.3462209E-009  0.9118800E+02  0.7816531E-02  0.1126479E+00
         25   -1    0    0    0    0  0.00000000000E+00  0.00000000000E+00  0.99999998245E-14  0.12500000000E+03  0.12500000000E+03 0.  0.
    3000001    1    3    3    0    0 -0.20370277631E+02  0.45310300077E+02 -0.10052034458E+02  0.50695314385E+02  0.10000000000E+01 0. -1.
    1000022    2    1    0    0    0 -0.22500365515E+02  0.55076498617E+02 -0.16326757733E+02  0.62499998361E+02  0.99999814421E+01 0.  0.
    3000022    2    3    3    0    0 -0.21300878847E+01  0.97661985399E+01 -0.62747232746E+01  0.11804683976E+02  0.25000658005E+00 0.  0.
    1000022    2    1    0    0    0  0.22500365515E+02 -0.55076498617E+02  0.16326757733E+02  0.62500001639E+02  0.10000001929E+02 0.  0.
    3000022    2    5    5    0    0  0.19961886505E+02 -0.52188985254E+02  0.13124831314E+02  0.57397654934E+02  0.25000041575E+00 0.  0.
        -13    1    4    4    0    0 -0.11704745013E+01  0.56453889523E+01 -0.35874445322E+01  0.67912598429E+01  0.10500000000E+00 0. -1.
         13    1    4    4    0    0 -0.95961338334E+00  0.41208095875E+01 -0.26872787424E+01  0.50134241334E+01  0.10500000000E+00 0.  1.
    3000001    1    5    5    0    0  0.25384790100E+01 -0.28875133631E+01  0.32019264192E+01  0.51023467052E+01  0.10000000000E+01 0. -1.
        -13    1    6    6    0    0  0.14227576585E+02 -0.37293580417E+02  0.93518421756E+01  0.40996378534E+02  0.10500000000E+00 0.  1.
         13    1    6    6    0    0  0.57343099206E+01 -0.14895404837E+02  0.37729891380E+01  0.16401276400E+02  0.10500000000E+00 0. -1.
</event>
<event>
11    0  0.3462209E-009  0.9118800E+02  0.7816531E-02  0.1126479E+00
         25   -1    0    0    0    0  0.00000000000E+00  0.00000000000E+00  0.99999998245E-14  0.12500000000E+03  0.12500000000E+03 0.  0.
    3000001    1    3    3    0    0  0.71552162639E+01  0.38544169177E+02 -0.19228034331E+02  0.43675707224E+02  0.10000000000E+01 0. -1.
    1000022    2    1    0    0    0  0.16301064272E+02  0.52780834459E+02 -0.27471960012E+02  0.62499999772E+02  0.10000010100E+02 0.  0.
    3000022    2    3    3    0    0  0.91458480086E+01  0.14236665283E+02 -0.82439256813E+01  0.18824292548E+02  0.25001026792E+00 0.  0.
    1000022    2    1    0    0    0 -0.16301064272E+02 -0.52780834459E+02  0.27471960012E+02  0.62500000228E+02  0.10000012944E+02 0.  0.
    3000022    2    5    5    0    0 -0.16429812501E+02 -0.44734964889E+02  0.20797781083E+02  0.51997750106E+02  0.24999116982E+00 0.  0.
        -13    1    4    4    0    0  0.67603854724E+01  0.10554225300E+02 -0.60764242073E+01  0.13929409161E+02  0.10500000000E+00 0.  1.
         13    1    4    4    0    0  0.23854625362E+01  0.36824399827E+01 -0.21675014740E+01  0.48948833876E+01  0.10500000000E+00 0. -1.
    3000001    1    5    5    0    0  0.12874822897E+00 -0.80458695702E+01  0.66741789291E+01  0.10502250122E+02  0.10000000000E+01 0.  1.
        -13    1    6    6    0    0 -0.49947736675E+01 -0.13621135290E+02  0.62809059180E+01  0.15809613997E+02  0.10500000000E+00 0. -1.
         13    1    6    6    0    0 -0.11435038834E+02 -0.31113829599E+02  0.14516875165E+02  0.36188136109E+02  0.10500000000E+00 0.  1.
</event>
<event>
11    0  0.3462209E-009  0.9118800E+02  0.7816531E-02  0.1126479E+00
         25   -1    0    0    0    0  0.00000000000E+00  0.00000000000E+00  0.99999998245E-14  0.12500000000E+03  0.12500000000E+03 0.  0.
    3000001    1    3    3    0    0  0.10302120793E+02 -0.62961430873E+01  0.23163460223E+02  0.26140409333E+02  0.10000000000E+01 0. -1.
    1000022    2    1    0    0    0  0.34168201543E+02 -0.10809555466E+02  0.50218896587E+02  0.62500000048E+02  0.99999972795E+01 0.  0.
    3000022    2    3    3    0    0  0.23866080751E+02 -0.45134123791E+01  0.27055436363E+02  0.36359590715E+02  0.24999690494E+00 0.  0.
    1000022    2    1    0    0    0 -0.34168201543E+02  0.10809555466E+02 -0.50218896587E+02  0.62499999952E+02  0.99999966752E+01 0.  0.
    3000022    2    5    5    0    0 -0.19311316156E+02  0.11166831099E+02 -0.30478159630E+02  0.37770434956E+02  0.24998773198E+00 0.  0.
        -13    1    4    4    0    0  0.13734569100E+02 -0.26216564796E+01  0.15484071178E+02  0.20863340008E+02  0.10500000000E+00 0. -1.
         13    1    4    4    0    0  0.10131511651E+02 -0.18917558995E+01  0.11571365186E+02  0.15496250707E+02  0.10500000000E+00 0.  1.
    3000001    1    5    5    0    0 -0.14856885387E+02 -0.35727563255E+00 -0.19740736957E+02  0.24729564995E+02  0.10000000000E+01 0. -1.
        -13    1    6    6    0    0 -0.61873700092E+01  0.35212816740E+01 -0.97482978512E+01  0.12071590958E+02  0.10500000000E+00 0.  1.
         13    1    6    6    0    0 -0.13123946147E+02  0.76455494249E+01 -0.20729861779E+02  0.25698843999E+02  0.10500000000E+00 0. -1.
</event>
<event>
11    0  0.3462209E-009  0.9118800E+02  0.7816531E-02  0.1126479E+00
         25   -1    0    0    0    0  0.00000000000E+00  0.00000000000E+00  0.99999998245E-14  0.12500000000E+03  0.12500000000E+03 0.  0.
    3000001    1    3    3    0    0  0.11563987320E+01 -0.46085891848E+01 -0.12128779469E+01  0.50047402745E+01  0.10000000000E+01 0. -1.
    1000022    2    1    0    0    0  0.20372775273E+02 -0.56007121478E+02  0.15949993405E+02  0.62500000099E+02  0.10000004709E+02 0.  0.
    3000022    2    3    3    0    0  0.19216376541E+02 -0.51398532293E+02  0.17162871352E+02  0.57495259825E+02  0.24999995661E+00 0.  0.
    1000022    2    1    0    0    0 -0.20372775273E+02  0.56007121478E+02 -0.15949993405E+02  0.62499999901E+02  0.10000003469E+02 0.  0.
    3000022    2    5    5    0    0 -0.16676682092E+02  0.45733506825E+02 -0.16814558334E+02  0.51502012113E+02  0.25001538907E+00 0.  0.
        -13    1    4    4    0    0  0.10725430191E+02 -0.28857159373E+02  0.95985683036E+01  0.32247698187E+02  0.10500000000E+00 0. -1.
         13    1    4    4    0    0  0.84909463499E+01 -0.22541372921E+02  0.75643030483E+01  0.25247561638E+02  0.10500000000E+00 0.  1.
    3000001    1    5    5    0    0 -0.36960931813E+01  0.10273614654E+02  0.86456492909E+00  0.10997987787E+02  0.10000000000E+01 0.  1.
        -13    1    6    6    0    0 -0.52450800509E+01  0.14516906741E+02 -0.53096281274E+01  0.16323437809E+02  0.10500000000E+00 0.  1.
         13    1    6    6    0    0 -0.11431602041E+02  0.31216600084E+02 -0.11504930207E+02  0.35178574304E+02  0.10500000000E+00 0. -1.
</event>
<event>
11    0  0.3462209E-009  0.9118800E+02  0.7816531E-02  0.1126479E+00
         25   -1    0    0    0    0  0.00000000000E+00  0.00000000000E+00  0.99999998245E-14  0.12500000000E+03  0.12500000000E+03 0.  0.
    3000001    1    3    3    0    0  0.62737259450E+01 -0.17206015359E+00 -0.64492743737E+01  0.90544122878E+01  0.10000000000E+01 0. -1.
    1000022    2    1    0    0    0  0.39055299782E+02  0.21768748409E+02 -0.42509468931E+02  0.62499999537E+02  0.10000007250E+02 0.  0.
    3000022    2    3    3    0    0  0.32781573837E+02  0.21940808563E+02 -0.36060194557E+02  0.53445587249E+02  0.25000262074E+00 0.  0.
    1000022    2    1    0    0    0 -0.39055299782E+02 -0.21768748409E+02  0.42509468931E+02  0.62500000463E+02  0.10000013037E+02 0.  0.
    3000022    2    5    5    0    0 -0.34538868111E+02 -0.21819479137E+02  0.40251955726E+02  0.57352467606E+02  0.25004103227E+00 0.  0.
        -13    1    4    4    0    0  0.19003785268E+02  0.12645446713E+02 -0.20838110508E+02  0.30907750673E+02  0.10500000000E+00 0.  1.
         13    1    4    4    0    0  0.13777788568E+02  0.92953618497E+01 -0.15222084049E+02  0.22537836577E+02  0.10500000000E+00 0. -1.
    3000001    1    5    5    0    0 -0.45164316708E+01  0.50730728319E-01  0.22575132050E+01  0.51475328570E+01  0.10000000000E+01 0.  1.
        -13    1    6    6    0    0 -0.14456263020E+02 -0.91752956545E+01  0.16794618795E+02  0.23984158028E+02  0.10500000000E+00 0. -1.
         13    1    6    6    0    0 -0.20082605091E+02 -0.12644183483E+02  0.23457336931E+02  0.33368309578E+02  0.10500000000E+00 0.  1.
</event>
<event>
11    0  0.3462209E-009  0.9118800E+02  0.7816531E-02  0.1126479E+00
         25   -1    0    0    0    0  0.00000000000E+00  0.00000000000E+00  0.99999998245E-14  0.12500000000E+03  0.12500000000E+03 0.  0.
    3000001    1    3    3    0    0 -0.11320423322E+01  0.34224034095E+02 -0.24405501177E+02  0.42061794033E+02  0.10000000000E+01 0.  1.
    1000022    2    1    0    0    0  0.30843638227E+01  0.47166278604E+02 -0.39649449814E+02  0.62499999901E+02  0.99999989740E+01 0.  0.
    3000022    2    3    3    0    0  0.42164061549E+01  0.12942244509E+02 -0.15243948637E+02  0.20438205868E+02  0.25003048820E+00 0.  0.
    1000022    2    1    0    0    0 -0.30843638227E+01 -0.47166278604E+02  0.39649449814E+02  0.62500000099E+02  0.10000000217E+02 0.  0.
    3000022    2    5    5    0    0 -0.58607910039E+01 -0.41045126392E+02  0.35078229131E+02  0.54310182591E+02  0.25000465928E+00 0.  0.
        -13    1    4    4    0    0  0.19667944333E+01  0.60894296828E+01 -0.70683642330E+01  0.95353149992E+01  0.10500000000E+00 0. -1.
         13    1    4    4    0    0  0.22496117216E+01  0.68528148266E+01 -0.81755844042E+01  0.10902890869E+02  0.10500000000E+00 0.  1.
    3000001    1    5    5    0    0  0.27764271813E+01 -0.61211522117E+01  0.45712206833E+01  0.81898175088E+01  0.10000000000E+01 0. -1.
        -13    1    6    6    0    0 -0.28048335047E+01 -0.19807828140E+02  0.17008751201E+02  0.26258823070E+02  0.10500000000E+00 0. -1.
         13    1    6    6    0    0 -0.30559574992E+01 -0.21237298252E+02  0.18069477930E+02  0.28051359520E+02  0.10500000000E+00 0.  1.
</event>
<event>
11    0  0.3462209E-009  0.9118800E+02  0.7816531E-02  0.1126479E+00
         25   -1    0    0    0    0  0.00000000000E+00  0.00000000000E+00  0.99999998245E-14  0.12500000000E+03  0.12500000000E+03 0.  0.
    3000001    1    3    3    0    0 -0.11881355286E+02  0.86823298413E+00 -0.32778124388E+02  0.34890197339E+02  0.10000000000E+01 0. -1.
    1000022    2    1    0    0    0 -0.12929115506E+02 -0.73303143503E+00 -0.60320399298E+02  0.62500001006E+02  0.10000009573E+02 0.  0.
    3000022    2    3    3    0    0 -0.10477602198E+01 -0.16012644192E+01 -0.27542274909E+02  0.27609803667E+02  0.25000422355E+00 0.  0.
    1000022    2    1    0    0    0  0.12929115506E+02  0.73303143503E+00  0.60320399298E+02  0.62499998994E+02  0.99999969958E+01 0.  0.
    3000022    2    5    5    0    0  0.52873821606E+01 -0.45467766029E+01  0.28016534093E+02  0.28872448256E+02  0.24999625866E+00 0.  0.
        -13    1    4    4    0    0 -0.40163390544E+00 -0.59497824075E+00 -0.95379739342E+01  0.95655256348E+01  0.10500000000E+00 0. -1.
         13    1    4    4    0    0 -0.64612631438E+00 -0.10062861784E+01 -0.18004300975E+02  0.18044278032E+02  0.10500000000E+00 0.  1.
    3000001    1    5    5    0    0  0.76417333457E+01  0.52798080379E+01  0.32303865205E+02  0.33627550738E+02  0.10000000000E+01 0. -1.
        -13    1    6    6    0    0  0.28089660065E+01 -0.23935530702E+01  0.15095790056E+02  0.15540697821E+02  0.10500000000E+00 0.  1.
         13    1    6    6    0    0  0.24784161541E+01 -0.21532235327E+01  0.12920744037E+02  0.13331750436E+02  0.10500000000E+00 0. -1.
</event>
<event>
11    0  0.3462209E-009  0.9118800E+02  0.7816531E-02  0.1126479E+00
         25   -1    0    0    0    0  0.00000000000E+00  0.00000000000E+00  0.99999998245E-14  0.12500000000E+03  0.12500000000E+03 0.  0.
    3000001    1    3    3    0    0  0.94396198311E+01 -0.16526628178E+01 -0.10357625412E+02  0.14146311220E+02  0.10000000000E+01 0. -1.
    1000022    2    1    0    0    0  0.28876161406E+02  0.19583222829E+01 -0.54484696505E+02  0.62500000508E+02  0.10000009322E+02 0.  0.
    3000022    2    3    3    0    0  0.19436541575E+02  0.36109851007E+01 -0.44127071093E+02  0.48353689288E+02  0.25000537412E+00 0.  0.
    1000022    2    1    0    0    0 -0.28876161406E+02 -0.19583222829E+01  0.54484696505E+02  0.62499999492E+02  0.10000002977E+02 0.  0.
    3000022    2    5    5    0    0 -0.14198397750E+02  0.16653217094E+01  0.17952590546E+02  0.22950507618E+02  0.24999505352E+00 0.  0.
        -13    1    4    4    0    0  0.13056693562E+02  0.24525663271E+01 -0.29541675560E+02  0.32391572180E+02  0.10500000000E+00 0. -1.
         13    1    4    4    0    0  0.63798480133E+01  0.11584187736E+01 -0.14585395533E+02  0.15962117108E+02  0.10500000000E+00 0.  1.
    3000001    1    5    5    0    0 -0.14677763656E+02 -0.36236439923E+01  0.36532105959E+02  0.39549491874E+02  0.10000000000E+01 0.  1.
        -13    1    6    6    0    0 -0.86915380126E+01  0.10125278386E+01  0.10889516014E+02  0.13969990325E+02  0.10500000000E+00 0.  1.
         13    1    6    6    0    0 -0.55068597375E+01  0.65279387074E+00  0.70630745322E+01  0.89805172932E+01  0.10500000000E+00 0. -1.
</event>
<event>
11    0  0.3462209E-009  0.9118800E+02  0.7816531E-02  0.1126479E+00
         25   -1    0    0    0    0  0.00000000000E+00  0.00000000000E+00  0.99999998245E-14  0.12500000000E+03  0.12500000000E+03 0.  0.
    3000001    1    3    3    0    0  0.75281553763E+01 -0.55813183836E+01 -0.29490895008E+02  0.30960250752E+02  0.10000000000E+01 0.  1.
    1000022    2    1    0    0    0  0.23650930108E+02 -0.68600801883E+01 -0.56566975798E+02  0.62499999481E+02  0.99999994529E+01 0.  0.
    3000022    2    3    3    0    0  0.16122774732E+02 -0.12787618047E+01 -0.27076080790E+02  0.31539748729E+02  0.25000427243E+00 0.  0.
    1000022    2    1    0    0    0 -0.23650930108E+02  0.68600801883E+01  0.56566975798E+02  0.62500000519E+02  0.10000005935E+02 0.  0.
    3000022    2    5    5    0    0 -0.19959067362E+02  0.54833188628E+01  0.35929135122E+02  0.41465605113E+02  0.25000216771E+00 0.  0.
        -13    1    4    4    0    0  0.57987893564E+01 -0.40854306108E+00 -0.96793032183E+01  0.11291271019E+02  0.10500000000E+00 0.  1.
         13    1    4    4    0    0  0.10323985376E+02 -0.87021874365E+00 -0.17396777572E+02  0.20248477710E+02  0.10500000000E+00 0. -1.
    3000001    1    5    5    0    0 -0.36918627458E+01  0.13767613255E+01  0.20637840676E+02  0.21034395405E+02  0.10000000000E+01 0. -1.
        -13    1    6    6    0    0 -0.68078112706E+01  0.19105244256E+01  0.12196051329E+02  0.14097910870E+02  0.10500000000E+00 0. -1.
         13    1    6    6    0    0 -0.13151256092E+02  0.35727944372E+01  0.23733083793E+02  0.27367694243E+02  0.10500000000E+00 0.  1.
</event>
<event>
11    0  0.3462209E-009  0.9118800E+02  0.7816531E-02  0.1126479E+00
         25   -1    0    0    0    0  0.00000000000E+00  0.00000000000E+00  0.99999998245E-14  0.12500000000E+03  0.12500000000E+03 0.  0.
    3000001    1    3    3    0    0  0.19453787837E+00  0.32186762163E+00 -0.26520701786E+01  0.28591816983E+01  0.10000000000E+01 0.  1.
    1000022    2    1    0    0    0 -0.34237845499E+02  0.15213058181E+02 -0.49016150953E+02  0.62499998846E+02  0.99999798940E+01 0.  0.
    3000022    2    3    3    0    0 -0.34432383377E+02  0.14891190560E+02 -0.46364080774E+02  0.59640817148E+02  0.25000533919E+00 0.  0.
    1000022    2    1    0    0    0  0.34237845499E+02 -0.15213058181E+02  0.49016150953E+02  0.62500001154E+02  0.99999943208E+01 0.  0.
    3000022    2    5    5    0    0  0.31698718293E+02 -0.16488781250E+02  0.45862370620E+02  0.58138697828E+02  0.24999547163E+00 0.  0.
        -13    1    4    4    0    0 -0.20188382081E+02  0.87229709643E+01 -0.27078488599E+02  0.34884331200E+02  0.10500000000E+00 0. -1.
         13    1    4    4    0    0 -0.14244001297E+02  0.61682195955E+01 -0.19285592175E+02  0.24756485947E+02  0.10500000000E+00 0.  1.
    3000001    1    5    5    0    0  0.25391272062E+01  0.12757230684E+01  0.31537803321E+01  0.43613033258E+01  0.10000000000E+01 0.  1.
        -13    1    6    6    0    0  0.17700655285E+02 -0.91752928198E+01  0.25687879408E+02  0.32517339518E+02  0.10500000000E+00 0. -1.
         13    1    6    6    0    0  0.13998063008E+02 -0.73134884300E+01  0.20174491213E+02  0.25621358310E+02  0.10500000000E+00 0.  1.
</event>
<event>
11    0  0.3462209E-009  0.9118800E+02  0.7816531E-02  0.1126479E+00
         25   -1    0    0    0    0  0.00000000000E+00  0.00000000000E+00  0.99999998245E-14  0.12500000000E+03  0.12500000000E+03 0.  0.
    3000001    1    3    3    0    0 -0.65505904708E+00  0.24653069301E+01 -0.62237497971E+01  0.68001398626E+01  0.10000000000E+01 0.  1.
    1000022    2    1    0    0    0 -0.30545748410E+02  0.11815689869E+02 -0.52283811659E+02  0.62500003159E+02  0.10000008011E+02 0.  0.
    3000022    2    3    3    0    0 -0.29890689362E+02  0.93503829390E+01 -0.46060061862E+02  0.55699863296E+02  0.25000154901E+00 0.  0.
    1000022    2    1    0    0    0  0.30545748410E+02 -0.11815689869E+02  0.52283811659E+02  0.62499996841E+02  0.99999685283E+01 0.  0.
    3000022    2    5    5    0    0  0.42645103483E+01 -0.36483249038E+00  0.22880419099E+01  0.48597105689E+01  0.24999955103E+00 0.  0.
        -13    1    4    4    0    0 -0.92380092037E+01  0.28543404185E+01 -0.14281032515E+02  0.17246651500E+02  0.10500000000E+00 0. -1.
         13    1    4    4    0    0 -0.20652680159E+02  0.64960425205E+01 -0.31779029347E+02  0.38453211796E+02  0.10500000000E+00 0.  1.
    3000001    1    5    5    0    0  0.26281238061E+02 -0.11450857379E+02  0.49995769749E+02  0.57640286272E+02  0.10000000000E+01 0.  1.
        -13    1    6    6    0    0  0.29452306679E+01 -0.29684095825E+00  0.16009098329E+01  0.33669623601E+01  0.10500000000E+00 0.  1.
         13    1    6    6    0    0  0.13192796804E+01 -0.67991532133E-01  0.68713207705E+00  0.14927482088E+01  0.10500000000E+00 0. -1.
</event>
<event>
11    0  0.3462209E-009  0.9118800E+02  0.7816531E-02  0.1126479E+00
         25   -1    0    0    0    0  0.00000000000E+00  0.00000000000E+00  0.99999998245E-14  0.12500000000E+03  0.12500000000E+03 0.  0.
    3000001    1    3    3    0    0  0.78388013472E+00 -0.76594305766E+01 -0.81065280915E+01  0.11224844877E+02  0.10000000000E+01 0. -1.
    1000022    2    1    0    0    0 -0.16067168719E+02 -0.38966465759E+02 -0.45052312360E+02  0.62500002215E+02  0.10000003172E+02 0.  0.
    3000022    2    3    3    0    0 -0.16851048854E+02 -0.31307035183E+02 -0.36945784268E+02  0.51275157337E+02  0.24997068857E+00 0.  0.
    1000022    2    1    0    0    0  0.16067168719E+02  0.38966465759E+02  0.45052312360E+02  0.62499997785E+02  0.99999754873E+01 0.  0.
    3000022    2    5    5    0    0  0.41251822040E+01  0.80136698017E+01  0.16111924573E+02  0.18463278280E+02  0.24999898336E+00 0.  0.
        -13    1    4    4    0    0 -0.10439477302E+02 -0.19409817671E+02 -0.22988774742E+02  0.31846797288E+02  0.10500000000E+00 0.  1.
         13    1    4    4    0    0 -0.64115715520E+01 -0.11897217511E+02 -0.13957009527E+02  0.19428360050E+02  0.10500000000E+00 0. -1.
    3000001    1    5    5    0    0  0.11941986515E+02  0.30952795958E+02  0.28940387787E+02  0.44036719505E+02  0.10000000000E+01 0.  1.
        -13    1    6    6    0    0  0.25810234239E+01  0.49291601780E+01  0.10041399177E+02  0.11480375621E+02  0.10500000000E+00 0.  1.
         13    1    6    6    0    0  0.15441587800E+01  0.30845096237E+01  0.60705253959E+01  0.69829026586E+01  0.10500000000E+00 0. -1.
</event>
<event>
11    0  0.3462209E-009  0.9118800E+02  0.7816531E-02  0.1126479E+00
         25   -1    0    0    0    0  0.00000000000E+00  0.00000000000E+00  0.99999998245E-14  0.12500000000E+03  0.12500000000E+03 0.  0.
    3000001    1    3    3    0    0  0.25730276211E+02  0.32540300917E+02 -0.28962268402E+01  0.41596952142E+02  0.10000000000E+01 0. -1.
    1000022    2    1    0    0    0  0.41494239299E+02  0.44711418137E+02 -0.92394362714E+01  0.62500000571E+02  0.10000004095E+02 0.  0.
    3000022    2    3    3    0    0  0.15763963088E+02  0.12171117220E+02 -0.63432094312E+01  0.20903048428E+02  0.25000213769E+00 0.  0.
    1000022    2    1    0    0    0 -0.41494239299E+02 -0.44711418137E+02  0.92394362714E+01  0.62499999429E+02  0.99999969636E+01 0.  0.
    3000022    2    5    5    0    0 -0.11062298677E+02 -0.73370483028E+01 -0.63475139013E+00  0.13291807912E+02  0.25003680975E+00 0.  0.
        -13    1    4    4    0    0  0.62499145333E+01  0.48234014640E+01 -0.24488179645E+01  0.82664604142E+01  0.10500000000E+00 0.  1.
         13    1    4    4    0    0  0.95140485547E+01  0.73477157563E+01 -0.38943914666E+01  0.12636588014E+02  0.10500000000E+00 0. -1.
    3000001    1    5    5    0    0 -0.30431940621E+02 -0.37374369834E+02  0.98741876615E+01  0.49208191518E+02  0.10000000000E+01 0.  1.
        -13    1    6    6    0    0 -0.64642640295E+01 -0.43621197422E+01 -0.38870997546E+00  0.78087718966E+01  0.10500000000E+00 0. -1.
         13    1    6    6    0    0 -0.45980346479E+01 -0.29749285606E+01 -0.24604141467E+00  0.54830360150E+01  0.10500000000E+00 0.  1.
</event>
<event>
11    0  0.3462209E-009  0.9118800E+02  0.7816531E-02  0.1126479E+00
         25   -1    0    0    0    0  0.00000000000E+00  0.00000000000E+00  0.99999998245E-14  0.12500000000E+03  0.12500000000E+03 0.  0.
    3000001    1    3    3    0    0 -0.55126506760E+02 -0.36201881580E+01 -0.18426450539E+02  0.58245786022E+02  0.10000000000E+01 0. -1.
    1000022    2    1    0    0    0 -0.57553940068E+02 -0.37069162963E+01 -0.21910128556E+02  0.62500007573E+02  0.99999983710E+01 0.  0.
    3000022    2    3    3    0    0 -0.24274333080E+01 -0.86728138242E-01 -0.34836780175E+01  0.42542215504E+01  0.24986843701E+00 0.  0.
    1000022    2    1    0    0    0  0.57553940068E+02  0.37069162963E+01  0.21910128556E+02  0.62499992427E+02  0.99999037100E+01 0.  0.
    3000022    2    5    5    0    0  0.40013010464E+02  0.58412642677E+01  0.18531074656E+02  0.44481733413E+02  0.25000972777E+00 0.  0.
        -13    1    4    4    0    0 -0.11684387984E+01 -0.72347601530E-01 -0.17840289665E+01  0.21364146962E+01  0.10500000000E+00 0.  1.
         13    1    4    4    0    0 -0.12589945096E+01 -0.14380536713E-01 -0.16996490509E+01  0.21178068541E+01  0.10500000000E+00 0. -1.
    3000001    1    5    5    0    0  0.17540929604E+02 -0.21343479714E+01  0.33790539008E+01  0.18018259014E+02  0.10000000000E+01 0.  1.
        -13    1    6    6    0    0  0.21608358437E+02  0.31589921517E+01  0.10081302488E+02  0.24052943076E+02  0.10500000000E+00 0. -1.
         13    1    6    6    0    0  0.18404652027E+02  0.26822721160E+01  0.84497721677E+01  0.20428790337E+02  0.10500000000E+00 0.  1.
</event>
<event>
11    0  0.3462209E-009  0.9118800E+02  0.7816531E-02  0.1126479E+00
         25   -1    0    0    0    0  0.00000000000E+00  0.00000000000E+00  0.99999998245E-14  0.12500000000E+03  0.12500000000E+03 0.  0.
    3000001    1    3    3    0    0  0.58959342740E+00 -0.27958838584E+02  0.17665068891E+01  0.28038630886E+02  0.10000000000E+01 0. -1.
    1000022    2    1    0    0    0  0.10726245616E+02 -0.60073720411E+02  0.90744562447E+01  0.62500000309E+02  0.10000002676E+02 0.  0.
    3000022    2    3    3    0    0  0.10136652188E+02 -0.32114881827E+02  0.73079493557E+01  0.34461369423E+02  0.25001280874E+00 0.  0.
    1000022    2    1    0    0    0 -0.10726245616E+02  0.60073720411E+02 -0.90744562447E+01  0.62499999691E+02  0.99999988092E+01 0.  0.
    3000022    2    5    5    0    0 -0.94641983293E+01  0.49403772605E+02 -0.36832118642E+01  0.50437410188E+02  0.24999846781E+00 0.  0.
        -13    1    4    4    0    0  0.25117812023E+01 -0.79746865047E+01  0.17890664689E+01  0.85508159544E+01  0.10500000000E+00 0.  1.
         13    1    4    4    0    0  0.76248709859E+01 -0.24140195322E+02  0.55188828867E+01  0.25910553469E+02  0.10500000000E+00 0. -1.
    3000001    1    5    5    0    0 -0.12620472863E+01  0.10669947806E+02 -0.53912443806E+01  0.12062589502E+02  0.10000000000E+01 0. -1.
        -13    1    6    6    0    0 -0.71986944610E+01  0.37468634208E+02 -0.27920025279E+01  0.38256059056E+02  0.10500000000E+00 0. -1.
         13    1    6    6    0    0 -0.22655038683E+01  0.11935138397E+02 -0.89120933623E+00  0.12181351133E+02  0.10500000000E+00 0.  1.
</event>
<event>
11    0  0.3462209E-009  0.9118800E+02  0.7816531E-02  0.1126479E+00
         25   -1    0    0    0    0  0.00000000000E+00  0.00000000000E+00  0.99999998245E-14  0.12500000000E+03  0.12500000000E+03 0.  0.
    3000001    1    3    3    0    0 -0.11856370223E+00 -0.24433026024E+02  0.16501845443E+02  0.29500808821E+02  0.10000000000E+01 0.  1.
    1000022    2    1    0    0    0  0.92379178323E+01 -0.48145608856E+02  0.37455457666E+02  0.62500001188E+02  0.10000003076E+02 0.  0.
    3000022    2    3    3    0    0  0.93564815345E+01 -0.23712582832E+02  0.20953612223E+02  0.32999192367E+02  0.25000085480E+00 0.  0.
    1000022    2    1    0    0    0 -0.92379178323E+01  0.48145608856E+02 -0.37455457666E+02  0.62499998812E+02  0.99999882298E+01 0.  0.
    3000022    2    5    5    0    0 -0.76188512171E+01  0.47313534621E+02 -0.35424561292E+02  0.59595129742E+02  0.24998791185E+00 0.  0.
        -13    1    4    4    0    0  0.47518394940E+01 -0.11953784974E+02  0.10496627752E+02  0.16603107328E+02  0.10500000000E+00 0. -1.
         13    1    4    4    0    0  0.46046420406E+01 -0.11758797858E+02  0.10456984471E+02  0.16396085039E+02  0.10500000000E+00 0.  1.
    3000001    1    5    5    0    0 -0.16190666152E+01  0.83207423452E+00 -0.20308963740E+01  0.29048690707E+01  0.10000000000E+01 0.  1.
        -13    1    6    6    0    0 -0.20374982541E+01  0.12871935686E+02 -0.96480753548E+01  0.16215255487E+02  0.10500000000E+00 0.  1.
         13    1    6    6    0    0 -0.55813529630E+01  0.34441598935E+02 -0.25776485938E+02  0.43379874255E+02  0.10500000000E+00 0. -1.
</event>
<event>
11    0  0.3462209E-009  0.9118800E+02  0.7816531E-02  0.1126479E+00
         25   -1    0    0    0    0  0.00000000000E+00  0.00000000000E+00  0.99999998245E-14  0.12500000000E+03  0.12500000000E+03 0.  0.
    3000001    1    3    3    0    0 -0.13409379445E+02  0.23242680789E+02 -0.71187682623E+01  0.27779678345E+02  0.10000000000E+01 0. -1.
    1000022    2    1    0    0    0 -0.19836019955E+02  0.56198448414E+02 -0.15953576463E+02  0.62499998990E+02  0.99999990007E+01 0.  0.
    3000022    2    3    3    0    0 -0.64266405099E+01  0.32955767625E+02 -0.88348082010E+01  0.34720320646E+02  0.25000358347E+00 0.  0.
    1000022    2    1    0    0    0  0.19836019955E+02 -0.56198448414E+02  0.15953576463E+02  0.62500001010E+02  0.10000011620E+02 0.  0.
    3000022    2    5    5    0    0  0.22862343435E+01 -0.15608409691E+02  0.10028640152E+01  0.15808781050E+02  0.25000302575E+00 0.  0.
        -13    1    4    4    0    0 -0.42022297245E+01  0.21819462917E+02 -0.58640961621E+01  0.22981434799E+02  0.10500000000E+00 0. -1.
         13    1    4    4    0    0 -0.22244107854E+01  0.11136304709E+02 -0.29707120389E+01  0.11738885847E+02  0.10500000000E+00 0.  1.
    3000001    1    5    5    0    0  0.17549785611E+02 -0.40590038724E+02  0.14950712448E+02  0.46691219959E+02  0.10000000000E+01 0.  1.
        -13    1    6    6    0    0  0.13400519498E+01 -0.95732721105E+01  0.61892895236E+00  0.96869694011E+01  0.10500000000E+00 0.  1.
         13    1    6    6    0    0  0.94618239372E+00 -0.60351375803E+01  0.38393506281E+00  0.61218116492E+01  0.10500000000E+00 0. -1.
</event>
<event>
11    0  0.3462209E-009  0.9118800E+02  0.7816531E-02  0.1126479E+00
         25   -1    0    0    0    0  0.00000000000E+00  0.00000000000E+00  0.99999998245E-14  0.12500000000E+03  0.12500000000E+03 0.  0.
    3000001    1    3    3    0    0  0.29958949564E+01  0.30152873781E+01  0.18939958688E+01  0.47596811776E+01  0.10000000000E+01 0. -1.
    1000022    2    1    0    0    0  0.38885909001E+02  0.47438293451E+02 -0.66139539785E+01  0.62499998873E+02  0.99999933775E+01 0.  0.
    3000022    2    3    3    0    0  0.35890014044E+02  0.44423006073E+02 -0.85079498472E+01  0.57740317696E+02  0.25000061637E+00 0.  0.
    1000022    2    1    0    0    0 -0.38885909001E+02 -0.47438293451E+02  0.66139539785E+01  0.62500001127E+02  0.10000007463E+02 0.  0.
    3000022    2    5    5    0    0 -0.77177641354E+01 -0.99695024731E+01  0.54516437815E+01  0.13738187003E+02  0.24999876880E+00 0.  0.
        -13    1    4    4    0    0  0.24335751896E+02  0.30040054148E+02 -0.57629794951E+01  0.39087806682E+02  0.10500000000E+00 0. -1.
         13    1    4    4    0    0  0.11554262148E+02  0.14382951925E+02 -0.27449703521E+01  0.18652511014E+02  0.10500000000E+00 0.  1.
    3000001    1    5    5    0    0 -0.31168144865E+02 -0.37468790978E+02  0.11623101970E+01  0.48761814124E+02  0.10000000000E+01 0.  1.
        -13    1    6    6    0    0 -0.21577208746E+01 -0.28522815985E+01  0.15572754678E+01  0.39022303331E+01  0.10500000000E+00 0.  1.
         13    1    6    6    0    0 -0.55600432609E+01 -0.71172208746E+01  0.38943683136E+01  0.98359566694E+01  0.10500000000E+00 0. -1.
</event>
<event>
11    0  0.3462209E-009  0.9118800E+02  0.7816531E-02  0.1126479E+00
         25   -1    0    0    0    0  0.00000000000E+00  0.00000000000E+00  0.99999998245E-14  0.12500000000E+03  0.12500000000E+03 0.  0.
    3000001    1    3    3    0    0  0.34902550926E+01  0.17953235490E+00 -0.22934106876E+02  0.23220408496E+02  0.10000000000E+01 0. -1.
    1000022    2    1    0    0    0  0.72015211149E+01 -0.12042835484E+02 -0.60077939879E+02  0.62500003609E+02  0.99999899097E+01 0.  0.
    3000022    2    3    3    0    0  0.37112660222E+01 -0.12222367839E+02 -0.37143833002E+02  0.39279595113E+02  0.24998221033E+00 0.  0.
    1000022    2    1    0    0    0 -0.72015211149E+01  0.12042835484E+02  0.60077939879E+02  0.62499996391E+02  0.99999447986E+01 0.  0.
    3000022    2    5    5    0    0 -0.22294339932E+01  0.63854661020E+01  0.46067278388E+02  0.46561799690E+02  0.24999811813E+00 0.  0.
        -13    1    4    4    0    0  0.28517158151E+01 -0.94016938400E+01 -0.28589955222E+02  0.30231121295E+02  0.10500000000E+00 0. -1.
         13    1    4    4    0    0  0.85955020713E+00 -0.28206739986E+01 -0.85538777803E+01  0.90484738186E+01  0.10500000000E+00 0.  1.
    3000001    1    5    5    0    0 -0.49720871216E+01  0.56573693817E+01  0.14010661491E+02  0.15938196701E+02  0.10000000000E+01 0.  1.
        -13    1    6    6    0    0 -0.68288399167E+00  0.21152572936E+01  0.15129938755E+02  0.15292701387E+02  0.10500000000E+00 0.  1.
         13    1    6    6    0    0 -0.15465500016E+01  0.42702088084E+01  0.30937339633E+02  0.31269098304E+02  0.10500000000E+00 0. -1.
</event>
<event>
11    0  0.3462209E-009  0.9118800E+02  0.7816531E-02  0.1126479E+00
         25   -1    0    0    0    0  0.00000000000E+00  0.00000000000E+00  0.99999998245E-14  0.12500000000E+03  0.12500000000E+03 0.  0.
    3000001    1    3    3    0    0  0.90509922769E+01 -0.21520682957E+01  0.21444726190E+01  0.95995115480E+01  0.10000000000E+01 0.  1.
    1000022    2    1    0    0    0  0.47570915191E+02 -0.25424216002E+02  0.29947745214E+02  0.62500000684E+02  0.99999955324E+01 0.  0.
    3000022    2    3    3    0    0  0.38519922914E+02 -0.23272147706E+02  0.27803272595E+02  0.52900489136E+02  0.24992728371E+00 0.  0.
    1000022    2    1    0    0    0 -0.47570915191E+02  0.25424216002E+02 -0.29947745214E+02  0.62499999316E+02  0.99999869870E+01 0.  0.
    3000022    2    5    5    0    0 -0.91330153806E+01  0.93462023359E+01 -0.88747835078E+01  0.15798346451E+02  0.25000047590E+00 0.  0.
        -13    1    4    4    0    0  0.17523486897E+02 -0.10608601411E+02  0.12730688140E+02  0.24118384325E+02  0.10500000000E+00 0. -1.
         13    1    4    4    0    0  0.20996436016E+02 -0.12663546295E+02  0.15072584455E+02  0.28782104810E+02  0.10500000000E+00 0.  1.
    3000001    1    5    5    0    0 -0.38437899810E+02  0.16078013666E+02 -0.21072961706E+02  0.46701652865E+02  0.10000000000E+01 0. -1.
        -13    1    6    6    0    0 -0.43553028019E+01  0.45144097329E+01 -0.41943262035E+01  0.75466519089E+01  0.10500000000E+00 0.  1.
         13    1    6    6    0    0 -0.47777125787E+01  0.48317926030E+01 -0.46804573043E+01  0.82516945424E+01  0.10500000000E+00 0. -1.
</event>
<event>
11    0  0.3462209E-009  0.9118800E+02  0.7816531E-02  0.1126479E+00
         25   -1    0    0    0    0  0.00000000000E+00  0.00000000000E+00  0.99999998245E-14  0.12500000000E+03  0.12500000000E+03 0.  0.
    3000001    1    3    3    0    0 -0.19499271162E+02 -0.23292318268E+02 -0.34207729423E+02  0.45759397050E+02  0.10000000000E+01 0. -1.
    1000022    2    1    0    0    0 -0.20839381438E+02 -0.32492213288E+02 -0.48127188582E+02  0.62500000583E+02  0.10000002451E+02 0.  0.
    3000022    2    3    3    0    0 -0.13401102767E+01 -0.91998950195E+01 -0.13919459159E+02  0.16740603532E+02  0.24999887244E+00 0.  0.
    1000022    2    1    0    0    0  0.20839381438E+02  0.32492213288E+02  0.48127188582E+02  0.62499999417E+02  0.99999951648E+01 0.  0.
    3000022    2    5    5    0    0  0.16438470287E+02  0.17043679482E+02  0.30803805070E+02  0.38854178814E+02  0.24997769199E+00 0.  0.
        -13    1    4    4    0    0 -0.74739726272E+00 -0.55594441358E+01 -0.83774424898E+01  0.10082588429E+02  0.10500000000E+00 0. -1.
         13    1    4    4    0    0 -0.59271301400E+00 -0.36404508837E+01 -0.55420166689E+01  0.66580151030E+01  0.10500000000E+00 0.  1.
    3000001    1    5    5    0    0  0.44009111514E+01  0.15448533806E+02  0.17323383512E+02  0.23645820603E+02  0.10000000000E+01 0.  1.
        -13    1    6    6    0    0  0.55476030943E+01  0.56971942372E+01  0.10281980643E+02  0.12998618127E+02  0.10500000000E+00 0.  1.
         13    1    6    6    0    0  0.10890867193E+02  0.11346485245E+02  0.20521824426E+02  0.25855560686E+02  0.10500000000E+00 0. -1.
</event>
<event>
11    0  0.3462209E-009  0.9118800E+02  0.7816531E-02  0.1126479E+00
         25   -1    0    0    0    0  0.00000000000E+00  0.00000000000E+00  0.99999998245E-14  0.12500000000E+03  0.12500000000E+03 0.  0.
    3000001    1    3    3    0    0 -0.15568791531E+01  0.24656916609E+01  0.30696630906E+00  0.30980213651E+01  0.10000000000E+01 0.  1.
    1000022    2    1    0    0    0  0.11498699844E+01  0.60365344194E+02 -0.12686731648E+02  0.62499998978E+02  0.99999865840E+01 0.  0.
    3000022    2    3    3    0    0  0.27067491375E+01  0.57899652533E+02 -0.12993697957E+02  0.59401977613E+02  0.25000670521E+00 0.  0.
    1000022    2    1    0    0    0 -0.11498699844E+01 -0.60365344194E+02  0.12686731648E+02  0.62500001022E+02  0.99999993586E+01 0.  0.
    3000022    2    5    5    0    0 -0.33177276923E-01 -0.38028437730E+02  0.12759539311E+02  0.40112734687E+02  0.24992746746E+00 0.  0.
        -13    1    4    4    0    0  0.15255103389E+01  0.32065893948E+02 -0.71339001053E+01  0.32885441949E+02  0.10500000000E+00 0. -1.
         13    1    4    4    0    0  0.11812387987E+01  0.25833758585E+02 -0.58597978519E+01  0.26516535664E+02  0.10500000000E+00 0.  1.
    3000001    1    5    5    0    0 -0.11166927075E+01 -0.22336906464E+02 -0.72807662657E-01  0.22387266335E+02  0.10000000000E+01 0. -1.
        -13    1    6    6    0    0  0.28005364061E-02 -0.21838879477E+02  0.73922236287E+01  0.23056293281E+02  0.10500000000E+00 0.  1.
         13    1    6    6    0    0 -0.35977813329E-01 -0.16189558253E+02  0.53673156821E+01  0.17056441407E+02  0.10500000000E+00 0. -1.
</event>
<event>
11    0  0.3462209E-009  0.9118800E+02  0.7816531E-02  0.1126479E+00
         25   -1    0    0    0    0  0.00000000000E+00  0.00000000000E+00  0.99999998245E-14  0.12500000000E+03  0.12500000000E+03 0.  0.
    3000001    1    3    3    0    0 -0.19214777080E+02  0.29975129295E+02  0.16122617969E+02  0.39098015866E+02  0.10000000000E+01 0.  1.
    1000022    2    1    0    0    0 -0.28111734944E+02  0.44530398198E+02  0.32140691288E+02  0.62500000516E+02  0.10000001141E+02 0.  0.
    3000022    2    3    3    0    0 -0.88969578639E+01  0.14555268903E+02  0.16018073319E+02  0.23401984650E+02  0.25000127706E+00 0.  0.
    1000022    2    1    0    0    0  0.28111734944E+02 -0.44530398198E+02 -0.32140691288E+02  0.62499999484E+02  0.99999946901E+01 0.  0.
    3000022    2    5    5    0    0  0.20309579977E+02 -0.35759430146E+02 -0.28953651837E+02  0.50295052816E+02  0.24999980444E+00 0.  0.
        -13    1    4    4    0    0 -0.51595906675E+01  0.83323188364E+01  0.91577458336E+01  0.13413584413E+02  0.10500000000E+00 0.  1.
         13    1    4    4    0    0 -0.37373671964E+01  0.62229500661E+01  0.68603274856E+01  0.99884002371E+01  0.10500000000E+00 0. -1.
    3000001    1    5    5    0    0  0.78021549672E+01 -0.87709680515E+01 -0.31870394514E+01  0.12204946668E+02  0.10000000000E+01 0. -1.
        -13    1    6    6    0    0  0.13674808609E+02 -0.24166249100E+02 -0.19582885131E+02  0.33978057642E+02  0.10500000000E+00 0.  1.
         13    1    6    6    0    0  0.66347713676E+01 -0.11593181047E+02 -0.93707667052E+01  0.16316995175E+02  0.10500000000E+00 0. -1.
</event>
<event>
11    0  0.3462209E-009  0.9118800E+02  0.7816531E-02  0.1126479E+00
         25   -1    0    0    0    0  0.00000000000E+00  0.00000000000E+00  0.99999998245E-14  0.12500000000E+03  0.12500000000E+03 0.  0.
    3000001    1    3    3    0    0  0.28825305948E+02  0.54519640131E+01 -0.80720500537E+01  0.30443064344E+02  0.10000000000E+01 0.  1.
    1000022    2    1    0    0    0  0.59118246154E+02  0.15925437653E+02 -0.75936515273E+01  0.62500002026E+02  0.10000005853E+02 0.  0.
    3000022    2    3    3    0    0  0.30292940206E+02  0.10473473640E+02  0.47839852643E+00  0.32056937683E+02  0.25002404366E+00 0.  0.
    1000022    2    1    0    0    0 -0.59118246154E+02 -0.15925437653E+02  0.75936515273E+01  0.62499997974E+02  0.99999805220E+01 0.  0.
    3000022    2    5    5    0    0 -0.31544226031E+02 -0.77023712815E+01 -0.89182694463E+00  0.32484189619E+02  0.25000130325E+00 0.  0.
        -13    1    4    4    0    0  0.23027432055E+02  0.79617104402E+01  0.34435771802E+00  0.24367623344E+02  0.10500000000E+00 0.  1.
         13    1    4    4    0    0  0.72655081508E+01  0.25117631998E+01  0.13404080841E+00  0.76893143387E+01  0.10500000000E+00 0. -1.
    3000001    1    5    5    0    0 -0.27574020123E+02 -0.82230663717E+01  0.84854784719E+01  0.30015808355E+02  0.10000000000E+01 0. -1.
        -13    1    6    6    0    0 -0.12071994608E+02 -0.28889231317E+01 -0.36269138318E+00  0.12418594957E+02  0.10500000000E+00 0. -1.
         13    1    6    6    0    0 -0.19472231423E+02 -0.48134481498E+01 -0.52913556145E+00  0.20065594661E+02  0.10500000000E+00 0.  1.
</event>
<event>
11    0  0.3462209E-009  0.9118800E+02  0.7816531E-02  0.1126479E+00
         25   -1    0    0    0    0  0.00000000000E+00  0.00000000000E+00  0.99999998245E-14  0.12500000000E+03  0.12500000000E+03 0.  0.
    3000001    1    3    3    0    0 -0.12255411103E+01 -0.96002872203E+01 -0.37966543323E+01  0.10444235245E+02  0.10000000000E+01 0. -1.
    1000022    2    1    0    0    0 -0.22702004088E+02 -0.46618272881E+02 -0.33430601775E+02  0.62500004031E+02  0.10000050640E+02 0.  0.
    3000022    2    3    3    0    0 -0.21476462977E+02 -0.37017985661E+02 -0.29633947443E+02  0.52055768786E+02  0.24999698174E+00 0.  0.
    1000022    2    1    0    0    0  0.22702004088E+02  0.46618272881E+02  0.33430601775E+02  0.62499995969E+02  0.10000000257E+02 0.  0.
    3000022    2    5    5    0    0 -0.95967845410E+00  0.26151886504E+01  0.12527706075E+01  0.30646574816E+01  0.24999374453E+00 0.  0.
        -13    1    4    4    0    0 -0.16086659331E+02 -0.27688600184E+02 -0.22196268555E+02  0.38963117834E+02  0.10500000000E+00 0.  1.
         13    1    4    4    0    0 -0.53898036466E+01 -0.93293854764E+01 -0.74376788876E+01  0.13092650952E+02  0.10500000000E+00 0. -1.
    3000001    1    5    5    0    0  0.23661682542E+02  0.44003084231E+02  0.32177831167E+02  0.59435338488E+02  0.10000000000E+01 0. -1.
        -13    1    6    6    0    0 -0.55788411490E+00  0.15997815014E+01  0.69950565434E+00  0.18359925649E+01  0.10500000000E+00 0.  1.
         13    1    6    6    0    0 -0.40179433920E+00  0.10154071490E+01  0.55326495316E+00  0.12286649168E+01  0.10500000000E+00 0. -1.
</event>
<event>
11    0  0.3462209E-009  0.9118800E+02  0.7816531E-02  0.1126479E+00
         25   -1    0    0    0    0  0.00000000000E+00  0.00000000000E+00  0.99999998245E-14  0.12500000000E+03  0.12500000000E+03 0.  0.
    3000001    1    3    3    0    0  0.23571529177E+01  0.88749401331E+01  0.14224474652E+02  0.16960436650E+02  0.10000000000E+01 0.  1.
    1000022    2    1    0    0    0  0.15137929854E+02  0.42837855241E+02  0.41737406374E+02  0.62499999360E+02  0.10000003361E+02 0.  0.
    3000022    2    3    3    0    0  0.12780776936E+02  0.33962915108E+02  0.27512931722E+02  0.45539562710E+02  0.24999620079E+00 0.  0.
    1000022    2    1    0    0    0 -0.15137929854E+02 -0.42837855241E+02 -0.41737406374E+02  0.62500000640E+02  0.10000011366E+02 0.  0.
    3000022    2    5    5    0    0 -0.16258536715E+02 -0.40060846724E+02 -0.39978584313E+02  0.58886001320E+02  0.24998301061E+00 0.  0.
        -13    1    4    4    0    0  0.34078440749E+01  0.91510889876E+01  0.74188338340E+01  0.12264010411E+02  0.10500000000E+00 0. -1.
         13    1    4    4    0    0  0.93729328611E+01  0.24811826121E+02  0.20094097888E+02  0.33275552299E+02  0.10500000000E+00 0.  1.
    3000001    1    5    5    0    0  0.11206068611E+01 -0.27770085178E+01 -0.17588220606E+01  0.36139993202E+01  0.10000000000E+01 0.  1.
        -13    1    6    6    0    0 -0.79955072596E+01 -0.19864126276E+02 -0.19761158454E+02  0.29138051711E+02  0.10500000000E+00 0.  1.
         13    1    6    6    0    0 -0.82630294551E+01 -0.20196720448E+02 -0.20217425859E+02  0.29747949610E+02  0.10500000000E+00 0. -1.
</event>
<event>
11    0  0.3462209E-009  0.9118800E+02  0.7816531E-02  0.1126479E+00
         25   -1    0    0    0    0  0.00000000000E+00  0.00000000000E+00  0.99999998245E-14  0.12500000000E+03  0.12500000000E+03 0.  0.
    3000001    1    3    3    0    0 -0.18140534493E+02 -0.13853109561E+02 -0.55614557916E+01  0.23514196281E+02  0.10000000000E+01 0.  1.
    1000022    2    1    0    0    0 -0.53900556239E+02 -0.29365004548E+02 -0.62190463238E+01  0.62500001014E+02  0.10000006732E+02 0.  0.
    3000022    2    3    3    0    0 -0.35760021745E+02 -0.15511894988E+02 -0.65759053214E+00  0.38985804734E+02  0.25000816296E+00 0.  0.
    1000022    2    1    0    0    0  0.53900556239E+02  0.29365004548E+02  0.62190463238E+01  0.62499998986E+02  0.99999940535E+01 0.  0.
    3000022    2    5    5    0    0  0.32702436418E+02  0.18332941652E+02 -0.10366093286E+01  0.37505774960E+02  0.24999837855E+00 0.  0.
        -13    1    4    4    0    0 -0.90484005426E+01 -0.39178000165E+01 -0.13908713481E+00  0.98616976013E+01  0.10500000000E+00 0. -1.
         13    1    4    4    0    0 -0.26711621203E+02 -0.11594094971E+02 -0.51850339734E+00  0.29124107132E+02  0.10500000000E+00 0.  1.
    3000001    1    5    5    0    0  0.21198119821E+02  0.11032062896E+02  0.72556556524E+01  0.24994224025E+02  0.10000000000E+01 0. -1.
        -13    1    6    6    0    0  0.21516062275E+02  0.12014282569E+02 -0.71784945241E+00  0.24653808109E+02  0.10500000000E+00 0. -1.
         13    1    6    6    0    0  0.11186374143E+02  0.63186590833E+01 -0.31875987621E+00  0.12851966851E+02  0.10500000000E+00 0.  1.
</event>
<event>
11    0  0.3462209E-009  0.9118800E+02  0.7816531E-02  0.1126479E+00
         25   -1    0    0    0    0  0.00000000000E+00  0.00000000000E+00  0.99999998245E-14  0.12500000000E+03  0.12500000000E+03 0.  0.
    3000001    1    3    3    0    0 -0.56518770624E+02 -0.16010144171E+01 -0.81447932021E+01  0.57133810798E+02  0.10000000000E+01 0. -1.
    1000022    2    1    0    0    0 -0.60989111428E+02 -0.45587869137E+01 -0.81114617937E+01  0.62499999201E+02  0.99999918392E+01 0.  0.
    3000022    2    3    3    0    0 -0.44703408046E+01 -0.29577724966E+01  0.33331408416E-01  0.53661884034E+01  0.25000389344E+00 0.  0.
    1000022    2    1    0    0    0  0.60989111428E+02  0.45587869137E+01  0.81114617937E+01  0.62500000799E+02  0.10000001824E+02 0.  0.
    3000022    2    5    5    0    0  0.59674934430E+02  0.56183938443E+01  0.83700301491E+01  0.60520938995E+02  0.25000697871E+00 0.  0.
        -13    1    4    4    0    0 -0.21882971309E+01 -0.15029561123E+01 -0.33382435420E-01  0.26570022197E+01  0.10500000000E+00 0. -1.
         13    1    4    4    0    0 -0.22820436738E+01 -0.14548163843E+01  0.66713843836E-01  0.27091861837E+01  0.10500000000E+00 0.  1.
    3000001    1    5    5    0    0  0.13141769985E+01 -0.10596069306E+01 -0.25856835544E+00  0.19790618043E+01  0.10000000000E+01 0. -1.
        -13    1    6    6    0    0  0.28610163742E+02  0.26328770442E+01  0.39815592762E+01  0.29005815798E+02  0.10500000000E+00 0. -1.
         13    1    6    6    0    0  0.31064770688E+02  0.29855168002E+01  0.43884708729E+01  0.31515123196E+02  0.10500000000E+00 0.  1.
</event>
<event>
11    0  0.3462209E-009  0.9118800E+02  0.7816531E-02  0.1126479E+00
         25   -1    0    0    0    0  0.00000000000E+00  0.00000000000E+00  0.99999998245E-14  0.12500000000E+03  0.12500000000E+03 0.  0.
    3000001    1    3    3    0    0  0.66430310755E+01  0.16162795147E+02 -0.31576829288E+02  0.36103489537E+02  0.10000000000E+01 0. -1.
    1000022    2    1    0    0    0  0.79810958042E+01  0.20825653473E+02 -0.57522553683E+02  0.62500000300E+02  0.10000006123E+02 0.  0.
    3000022    2    3    3    0    0  0.13380647286E+01  0.46628583256E+01 -0.25945724395E+02  0.26396510764E+02  0.25000220094E+00 0.  0.
    1000022    2    1    0    0    0 -0.79810958042E+01 -0.20825653473E+02  0.57522553683E+02  0.62499999700E+02  0.10000002370E+02 0.  0.
    3000022    2    5    5    0    0 -0.19112796096E+01 -0.17117308888E+02  0.42052607097E+02  0.45443806233E+02  0.25001591999E+00 0.  0.
        -13    1    4    4    0    0  0.39107360088E+00  0.13477618313E+01 -0.77517895372E+01  0.78784939262E+01  0.10500000000E+00 0. -1.
         13    1    4    4    0    0  0.94699112773E+00  0.33150964943E+01 -0.18193934858E+02  0.18518016837E+02  0.10500000000E+00 0.  1.
    3000001    1    5    5    0    0 -0.60698161945E+01 -0.37083445851E+01  0.15469946587E+02  0.17056193467E+02  0.10000000000E+01 0. -1.
        -13    1    6    6    0    0 -0.14417954951E+01 -0.13054157266E+02  0.32082247165E+02  0.34666574742E+02  0.10500000000E+00 0.  1.
         13    1    6    6    0    0 -0.46948411447E+00 -0.40631516214E+01  0.99703599321E+01  0.10777231491E+02  0.10500000000E+00 0. -1.
</event>
<event>
11    0  0.3462209E-009  0.9118800E+02  0.7816531E-02  0.1126479E+00
         25   -1    0    0    0    0  0.00000000000E+00  0.00000000000E+00  0.99999998245E-14  0.12500000000E+03  0.12500000000E+03 0.  0.
    3000001    1    3    3    0    0 -0.38255908732E+01  0.49962562316E+01 -0.85144899121E+01  0.10634578521E+02  0.10000000000E+01 0.  1.
    1000022    2    1    0    0    0 -0.13836952314E+01  0.30955143827E+02 -0.53348988401E+02  0.62499995196E+02  0.99999647136E+01 0.  0.
    3000022    2    3    3    0    0  0.24418956418E+01  0.25958887595E+02 -0.44834498489E+02  0.51865416675E+02  0.24998520331E+00 0.  0.
    1000022    2    1    0    0    0  0.13836952314E+01 -0.30955143827E+02  0.53348988401E+02  0.62500004804E+02  0.10000024762E+02 0.  0.
    3000022    2    5    5    0    0  0.14326345100E+01 -0.11056743785E+01  0.79552006083E+01  0.81622721352E+01  0.25002444030E+00 0.  0.
        -13    1    4    4    0    0  0.13069836845E+01  0.14229056426E+02 -0.24453058997E+02  0.28322029808E+02  0.10500000000E+00 0.  1.
         13    1    4    4    0    0  0.11349119573E+01  0.11729831169E+02 -0.20381439491E+02  0.23543386867E+02  0.10500000000E+00 0. -1.
    3000001    1    5    5    0    0 -0.48939278595E-01 -0.29849469448E+02  0.45393787793E+02  0.54337732669E+02  0.10000000000E+01 0.  1.
        -13    1    6    6    0    0  0.37921172440E+00 -0.28737929436E+00  0.22775146155E+01  0.23290526431E+01  0.10500000000E+00 0.  1.
         13    1    6    6    0    0  0.10534227856E+01 -0.81829508414E+00  0.56776859928E+01  0.58332194921E+01  0.10500000000E+00 0. -1.
</event>
<event>
11    0  0.3462209E-009  0.9118800E+02  0.7816531E-02  0.1126479E+00
         25   -1    0    0    0    0  0.00000000000E+00  0.00000000000E+00  0.99999998245E-14  0.12500000000E+03  0.12500000000E+03 0.  0.
    3000001    1    3    3    0    0 -0.45728250899E+02  0.22175650914E+02 -0.10183794176E+02  0.51841509310E+02  0.10000000000E+01 0.  1.
    1000022    2    1    0    0    0 -0.56284660440E+02  0.23428828956E+02 -0.94539408220E+01  0.62499999852E+02  0.99999978636E+01 0.  0.
    3000022    2    3    3    0    0 -0.10556409541E+02  0.12531780423E+01  0.72985335437E+00  0.10658490542E+02  0.24999419442E+00 0.  0.
    1000022    2    1    0    0    0  0.56284660440E+02 -0.23428828956E+02  0.94539408220E+01  0.62500000148E+02  0.99999997167E+01 0.  0.
    3000022    2    5    5    0    0  0.33716092863E+02 -0.18226405467E+02  0.30472680115E+01  0.38448993742E+02  0.25000650194E+00 0.  0.
        -13    1    4    4    0    0 -0.36504917753E+01  0.41436635468E+00  0.30490406399E+00  0.36880592682E+01  0.10500000000E+00 0. -1.
         13    1    4    4    0    0 -0.69059177660E+01  0.83881168766E+00  0.42494929038E+00  0.69704312734E+01  0.10500000000E+00 0.  1.
    3000001    1    5    5    0    0  0.22568567577E+02 -0.52024234891E+01  0.64066728105E+01  0.24051006406E+02  0.10000000000E+01 0. -1.
        -13    1    6    6    0    0  0.24090560761E+02 -0.12979989826E+02  0.21932694545E+01  0.27452808773E+02  0.10500000000E+00 0. -1.
         13    1    6    6    0    0  0.96255321028E+01 -0.52464156405E+01  0.85399855703E+00  0.10996184969E+02  0.10500000000E+00 0.  1.
</event>
<event>
11    0  0.3462209E-009  0.9118800E+02  0.7816531E-02  0.1126479E+00
         25   -1    0    0    0    0  0.00000000000E+00  0.00000000000E+00  0.99999998245E-14  0.12500000000E+03  0.12500000000E+03 0.  0.
    3000001    1    3    3    0    0 -0.33397365968E+02  0.29955453045E+02  0.15872786931E+02  0.47598934711E+02  0.10000000000E+01 0.  1.
    1000022    2    1    0    0    0 -0.45559824918E+02  0.38557115209E+02  0.15617338869E+02  0.62499999951E+02  0.99999970406E+01 0.  0.
    3000022    2    3    3    0    0 -0.12162458950E+02  0.86016621646E+01 -0.25544806223E+00  0.14901065240E+02  0.24998375784E+00 0.  0.
    1000022    2    1    0    0    0  0.45559824918E+02 -0.38557115209E+02 -0.15617338869E+02  0.62500000049E+02  0.99999976470E+01 0.  0.
    3000022    2    5    5    0    0  0.25583114837E+02 -0.16021995359E+02 -0.10346919209E+02  0.31911147574E+02  0.25000465845E+00 0.  0.
        -13    1    4    4    0    0 -0.62874019128E+01  0.45178222084E+01 -0.98163627767E-01  0.77435651619E+01  0.10500000000E+00 0.  1.
         13    1    4    4    0    0 -0.58750570372E+01  0.40838399563E+01 -0.15728443447E+00  0.71575000784E+01  0.10500000000E+00 0. -1.
    3000001    1    5    5    0    0  0.19976710080E+02 -0.22535119850E+02 -0.52704196596E+01  0.30588852474E+02  0.10000000000E+01 0. -1.
        -13    1    6    6    0    0  0.17334938808E+02 -0.10860275515E+02 -0.70656594382E+01  0.21642094539E+02  0.10500000000E+00 0. -1.
         13    1    6    6    0    0  0.82481760291E+01 -0.51617198441E+01 -0.32812597708E+01  0.10269053035E+02  0.10500000000E+00 0.  1.
</event>
<event>
11    0  0.3462209E-009  0.9118800E+02  0.7816531E-02  0.1126479E+00
         25   -1    0    0    0    0  0.00000000000E+00  0.00000000000E+00  0.99999998245E-14  0.12500000000E+03  0.12500000000E+03 0.  0.
    3000001    1    3    3    0    0 -0.12251914501E+02  0.34672060349E+02  0.13999798788E+02  0.39360583632E+02  0.10000000000E+01 0. -1.
    1000022    2    1    0    0    0 -0.17110038988E+02  0.51856280882E+02  0.28712761723E+02  0.62499999921E+02  0.10000000165E+02 0.  0.
    3000022    2    3    3    0    0 -0.48581244869E+01  0.17184220533E+02  0.14712962934E+02  0.23139416289E+02  0.24999800211E+00 0.  0.
    1000022    2    1    0    0    0  0.17110038988E+02 -0.51856280882E+02 -0.28712761723E+02  0.62500000079E+02  0.10000001154E+02 0.  0.
    3000022    2    5    5    0    0  0.14575712674E+02 -0.42623942713E+02 -0.19207277587E+02  0.48971766396E+02  0.24999854913E+00 0.  0.
        -13    1    4    4    0    0 -0.23978628453E+01  0.87293820630E+01  0.74682068525E+01  0.11736140593E+02  0.10500000000E+00 0. -1.
         13    1    4    4    0    0 -0.24602616416E+01  0.84548384702E+01  0.72447560820E+01  0.11403275696E+02  0.10500000000E+00 0.  1.
    3000001    1    5    5    0    0  0.25343263138E+01 -0.92323381687E+01 -0.95054841360E+01  0.13528233683E+02  0.10000000000E+01 0. -1.
        -13    1    6    6    0    0  0.70838013527E+01 -0.20892205152E+02 -0.94455612930E+01  0.23997794292E+02  0.10500000000E+00 0. -1.
         13    1    6    6    0    0  0.74919113211E+01 -0.21731737561E+02 -0.97617162935E+01  0.24973972104E+02  0.10500000000E+00 0.  1.
</event>
<event>
11    0  0.3462209E-009  0.9118800E+02  0.7816531E-02  0.1126479E+00
         25   -1    0    0    0    0  0.00000000000E+00  0.00000000000E+00  0.99999998245E-14  0.12500000000E+03  0.12500000000E+03 0.  0.
    3000001    1    3    3    0    0  0.87465082256E+00 -0.51564774206E+01  0.12381223704E+01  0.54669205641E+01  0.10000000000E+01 0.  1.
    1000022    2    1    0    0    0  0.59840272434E+01 -0.45581353368E+02  0.41143427064E+02  0.62500000120E+02  0.10000003377E+02 0.  0.
    3000022    2    3    3    0    0  0.51093764208E+01 -0.40424875947E+02  0.39905304694E+02  0.57033079556E+02  0.24999636819E+00 0.  0.
    1000022    2    1    0    0    0 -0.59840272434E+01  0.45581353368E+02 -0.41143427064E+02  0.62499999880E+02  0.10000001877E+02 0.  0.
    3000022    2    5    5    0    0 -0.14425468270E+00 -0.49940245260E+00 -0.66040371083E+00  0.87683718656E+00  0.24999633458E+00 0.  0.
        -13    1    4    4    0    0  0.16435136857E+01 -0.13158856893E+02  0.12920230788E+02  0.18514859993E+02  0.10500000000E+00 0.  1.
         13    1    4    4    0    0  0.34658627352E+01 -0.27266019055E+02  0.26985073906E+02  0.38518219563E+02  0.10500000000E+00 0. -1.
    3000001    1    5    5    0    0 -0.58397725607E+01  0.46080755820E+02 -0.40483023353E+02  0.61623162693E+02  0.10000000000E+01 0.  1.
        -13    1    6    6    0    0 -0.35370477470E-01 -0.18802280664E+00 -0.34668209723E+00  0.40965488284E+00  0.10500000000E+00 0.  1.
         13    1    6    6    0    0 -0.10888420523E+00 -0.31137964596E+00 -0.31372161360E+00  0.46718230372E+00  0.10500000000E+00 0. -1.
</event>
<event>
11    0  0.3462209E-009  0.9118800E+02  0.7816531E-02  0.1126479E+00
         25   -1    0    0    0    0  0.00000000000E+00  0.00000000000E+00  0.99999998245E-14  0.12500000000E+03  0.12500000000E+03 0.  0.
    3000001    1    3    3    0    0  0.14437322891E+02  0.64291244447E+01  0.53185620700E+00  0.15844645922E+02  0.10000000000E+01 0.  1.
    1000022    2    1    0    0    0  0.50135292372E+02  0.32289140962E+02  0.15814989406E+02  0.62500000426E+02  0.99999999048E+01 0.  0.
    3000022    2    3    3    0    0  0.35697969481E+02  0.25860016517E+02  0.15283133199E+02  0.46655354504E+02  0.24992832925E+00 0.  0.
    1000022    2    1    0    0    0 -0.50135292372E+02 -0.32289140962E+02 -0.15814989406E+02  0.62499999574E+02  0.99999945755E+01 0.  0.
    3000022    2    5    5    0    0 -0.48445472174E+02 -0.31177570958E+02 -0.13310440954E+02  0.59128969594E+02  0.25000369840E+00 0.  0.
        -13    1    4    4    0    0  0.24181288930E+02  0.17487823266E+02  0.10298377520E+02  0.31569388678E+02  0.10500000000E+00 0. -1.
         13    1    4    4    0    0  0.11516680551E+02  0.83721932505E+01  0.49847556782E+01  0.15085965826E+02  0.10500000000E+00 0.  1.
    3000001    1    5    5    0    0 -0.16898201983E+01 -0.11115700032E+01 -0.25045484521E+01  0.33710299796E+01  0.10000000000E+01 0.  1.
        -13    1    6    6    0    0 -0.28301147296E+02 -0.18283617776E+02 -0.78111361474E+01  0.34587143423E+02  0.10500000000E+00 0.  1.
         13    1    6    6    0    0 -0.20144324878E+02 -0.12893953182E+02 -0.54993048061E+01  0.24541826171E+02  0.10500000000E+00 0. -1.
</event>
<event>
11    0  0.3462209E-009  0.9118800E+02  0.7816531E-02  0.1126479E+00
         25   -1    0    0    0    0  0.00000000000E+00  0.00000000000E+00  0.99999998245E-14  0.12500000000E+03  0.12500000000E+03 0.  0.
    3000001    1    3    3    0    0 -0.54820171648E+01  0.53811698103E+00 -0.14694074211E+02  0.15724436365E+02  0.10000000000E+01 0.  1.
    1000022    2    1    0    0    0 -0.36101337660E+02 -0.10603395749E+01 -0.50018188145E+02  0.62500000218E+02  0.99999990531E+01 0.  0.
    3000022    2    3    3    0    0 -0.30619320495E+02 -0.15984565559E+01 -0.35324113934E+02  0.46775563853E+02  0.24999515843E+00 0.  0.
    1000022    2    1    0    0    0  0.36101337660E+02  0.10603395749E+01  0.50018188145E+02  0.62499999782E+02  0.99999963330E+01 0.  0.
    3000022    2    5    5    0    0  0.33460509942E+01  0.14232867767E+00  0.95423232207E+00  0.34913283049E+01  0.24999860011E+00 0.  0.
        -13    1    4    4    0    0 -0.11134799651E+02 -0.52363356380E+00 -0.12825753232E+02  0.16993202357E+02  0.10500000000E+00 0.  1.
         13    1    4    4    0    0 -0.19484520845E+02 -0.10748229921E+01 -0.22498360702E+02  0.29782361496E+02  0.10500000000E+00 0. -1.
    3000001    1    5    5    0    0  0.32755286666E+02  0.91801089722E+00  0.49063955823E+02  0.59008671477E+02  0.10000000000E+01 0. -1.
        -13    1    6    6    0    0  0.19337351898E+01  0.13231548863E+00  0.50860864141E+00  0.20066257556E+01  0.10500000000E+00 0.  1.
         13    1    6    6    0    0  0.14123158044E+01  0.10013189042E-01  0.44562368066E+00  0.14847025493E+01  0.10500000000E+00 0. -1.
</event>
<event>
11    0  0.3462209E-009  0.9118800E+02  0.7816531E-02  0.1126479E+00
         25   -1    0    0    0    0  0.00000000000E+00  0.00000000000E+00  0.99999998245E-14  0.12500000000E+03  0.12500000000E+03 0.  0.
    3000001    1    3    3    0    0  0.26742416651E+02  0.12338866251E+02 -0.28955092839E+01  0.29610613683E+02  0.10000000000E+01 0.  1.
    1000022    2    1    0    0    0  0.54765707845E+02  0.28129915216E+02  0.39591974537E+01  0.62499997680E+02  0.99999789839E+01 0.  0.
    3000022    2    3    3    0    0  0.28023291194E+02  0.15791048965E+02  0.68547067376E+01  0.32889383997E+02  0.24999689134E+00 0.  0.
    1000022    2    1    0    0    0 -0.54765707845E+02 -0.28129915216E+02 -0.39591974537E+01  0.62500002320E+02  0.10000007985E+02 0.  0.
    3000022    2    5    5    0    0 -0.28165582101E+02 -0.15298131381E+02  0.28367408667E+01  0.32178291556E+02  0.25001979012E+00 0.  0.
        -13    1    4    4    0    0  0.12346881000E+02  0.70301298879E+01  0.30079381869E+01  0.14523323098E+02  0.10500000000E+00 0.  1.
         13    1    4    4    0    0  0.15676410194E+02  0.87609190770E+01  0.38467685507E+01  0.18366060898E+02  0.10500000000E+00 0. -1.
    3000001    1    5    5    0    0 -0.26600125744E+02 -0.12831783835E+02 -0.67959383204E+01  0.30321710764E+02  0.10000000000E+01 0.  1.
        -13    1    6    6    0    0 -0.85601978131E+01 -0.47030744257E+01  0.86420219024E+00  0.98058026738E+01  0.10500000000E+00 0.  1.
         13    1    6    6    0    0 -0.19605384288E+02 -0.10595056955E+02  0.19725386765E+01  0.22372488882E+02  0.10500000000E+00 0. -1.
</event>
<event>
11    0  0.3462209E-009  0.9118800E+02  0.7816531E-02  0.1126479E+00
         25   -1    0    0    0    0  0.00000000000E+00  0.00000000000E+00  0.99999998245E-14  0.12500000000E+03  0.12500000000E+03 0.  0.
    3000001    1    3    3    0    0 -0.41122362329E+02  0.45961796372E+01 -0.29338403187E+02  0.50733770334E+02  0.10000000000E+01 0.  1.
    1000022    2    1    0    0    0 -0.50766703392E+02  0.97513151765E+01 -0.33673490856E+02  0.62500002503E+02  0.10000000271E+02 0.  0.
    3000022    2    3    3    0    0 -0.96443410636E+01  0.51551355392E+01 -0.43350876698E+01  0.11766232169E+02  0.24999474579E+00 0.  0.
    1000022    2    1    0    0    0  0.50766703392E+02 -0.97513151765E+01  0.33673490856E+02  0.62499997497E+02  0.99999689849E+01 0.  0.
    3000022    2    5    5    0    0  0.44871710852E+02 -0.85725114388E+01  0.33025938983E+02  0.56371389276E+02  0.24999207191E+00 0.  0.
        -13    1    4    4    0    0 -0.51439458711E+01  0.28095082401E+01 -0.23679622617E+01  0.63223244103E+01  0.10500000000E+00 0. -1.
         13    1    4    4    0    0 -0.45003951925E+01  0.23456272991E+01 -0.19671254081E+01  0.54439077588E+01  0.10500000000E+00 0.  1.
    3000001    1    5    5    0    0  0.58949925401E+01 -0.11788037376E+01  0.64755187356E+00  0.61286082212E+01  0.10000000000E+01 0. -1.
        -13    1    6    6    0    0  0.14057343878E+02 -0.26480391146E+01  0.10301299792E+02  0.17628069391E+02  0.10500000000E+00 0.  1.
         13    1    6    6    0    0  0.30814366975E+02 -0.59244723242E+01  0.22724639191E+02  0.38743319885E+02  0.10500000000E+00 0. -1.
</event>
<event>
11    0  0.3462209E-009  0.9118800E+02  0.7816531E-02  0.1126479E+00
         25   -1    0    0    0    0  0.00000000000E+00  0.00000000000E+00  0.99999998245E-14  0.12500000000E+03  0.12500000000E+03 0.  0.
    3000001    1    3    3    0    0  0.23827013481E+02 -0.14283396681E+00 -0.19038430121E+02  0.30515713894E+02  0.10000000000E+01 0. -1.
    1000022    2    1    0    0    0  0.49093273861E+02 -0.99651603528E+01 -0.36011055955E+02  0.62499999675E+02  0.99999924566E+01 0.  0.
    3000022    2    3    3    0    0  0.25266260380E+02 -0.98223263860E+01 -0.16972625834E+02  0.31984285781E+02  0.25000003568E+00 0.  0.
    1000022    2    1    0    0    0 -0.49093273861E+02  0.99651603528E+01  0.36011055955E+02  0.62500000325E+02  0.99999965181E+01 0.  0.
    3000022    2    5    5    0    0 -0.32861080752E+02  0.11262092735E+02  0.25493399097E+02  0.43088992300E+02  0.24999802950E+00 0.  0.
        -13    1    4    4    0    0  0.17870042535E+02 -0.69600635199E+01 -0.11957331034E+02  0.22600214487E+02  0.10500000000E+00 0. -1.
         13    1    4    4    0    0  0.73962178450E+01 -0.28622628662E+01 -0.50152947999E+01  0.93840712943E+01  0.10500000000E+00 0.  1.
    3000001    1    5    5    0    0 -0.16232193109E+02 -0.12969323819E+01  0.10517656858E+02  0.19411008025E+02  0.10000000000E+01 0.  1.
        -13    1    6    6    0    0 -0.18519048829E+02  0.62909982973E+01  0.14304543143E+02  0.24231442563E+02  0.10500000000E+00 0. -1.
         13    1    6    6    0    0 -0.14342031922E+02  0.49710944374E+01  0.11188855953E+02  0.18857549738E+02  0.10500000000E+00 0.  1.
</event>
<event>
11    0  0.3462209E-009  0.9118800E+02  0.7816531E-02  0.1126479E+00
         25   -1    0    0    0    0  0.00000000000E+00  0.00000000000E+00  0.99999998245E-14  0.12500000000E+03  0.12500000000E+03 0.  0.
    3000001    1    3    3    0    0 -0.29935210004E+02 -0.19099081677E+02 -0.26494944237E+02  0.44315615634E+02  0.10000000000E+01 0. -1.
    1000022    2    1    0    0    0 -0.36896302871E+02 -0.28261658099E+02 -0.40573286148E+02  0.62500000363E+02  0.10000000625E+02 0.  0.
    3000022    2    3    3    0    0 -0.69610928666E+01 -0.91625764211E+01 -0.14078341911E+02  0.18184384728E+02  0.25003286547E+00 0.  0.
    1000022    2    1    0    0    0  0.36896302871E+02  0.28261658099E+02  0.40573286148E+02  0.62499999637E+02  0.99999960900E+01 0.  0.
    3000022    2    5    5    0    0  0.14167867465E+01  0.31973003093E+01  0.80511686682E+00  0.35973224164E+01  0.25000289171E+00 0.  0.
        -13    1    4    4    0    0 -0.31590728283E+01 -0.41079831966E+01 -0.62466144885E+01  0.81170490109E+01  0.10500000000E+00 0. -1.
         13    1    4    4    0    0 -0.38020200384E+01 -0.50545932245E+01 -0.78317274220E+01  0.10067335718E+02  0.10500000000E+00 0.  1.
    3000001    1    5    5    0    0  0.35479516124E+02  0.25064357789E+02  0.39768169281E+02  0.58902677221E+02  0.10000000000E+01 0. -1.
        -13    1    6    6    0    0  0.83136009665E+00  0.17623463538E+01  0.39933982280E+00  0.19918638445E+01  0.10500000000E+00 0. -1.
         13    1    6    6    0    0  0.58542664982E+00  0.14349539555E+01  0.40577704402E+00  0.16054585720E+01  0.10500000000E+00 0.  1.
</event>
<event>
11    0  0.3462209E-009  0.9118800E+02  0.7816531E-02  0.1126479E+00
         25   -1    0    0    0    0  0.00000000000E+00  0.00000000000E+00  0.99999998245E-14  0.12500000000E+03  0.12500000000E+03 0.  0.
    3000001    1    3    3    0    0  0.21446733407E+02  0.39899692679E+02 -0.26042887080E+02  0.52260690937E+02  0.10000000000E+01 0. -1.
    1000022    2    1    0    0    0  0.26790445640E+02  0.48578519193E+02 -0.26993511884E+02  0.62500001302E+02  0.99999987116E+01 0.  0.
    3000022    2    3    3    0    0  0.53437122330E+01  0.86788265145E+01 -0.95062480370E+00  0.10239310365E+02  0.24999826040E+00 0.  0.
    1000022    2    1    0    0    0 -0.26790445640E+02 -0.48578519193E+02  0.26993511884E+02  0.62499998698E+02  0.99999824425E+01 0.  0.
    3000022    2    5    5    0    0 -0.54014107583E+01 -0.91537549851E+01  0.10714410293E+01  0.10685361737E+02  0.25000212459E+00 0.  0.
        -13    1    4    4    0    0  0.37021085942E+01  0.59265030124E+01 -0.67191096288E+00  0.70207930707E+01  0.10500000000E+00 0. -1.
         13    1    4    4    0    0  0.16416036389E+01  0.27523235021E+01 -0.27871384082E+00  0.32185172941E+01  0.10500000000E+00 0.  1.
    3000001    1    5    5    0    0 -0.21389034882E+02 -0.39424764208E+02  0.25922070855E+02  0.51814636962E+02  0.10000000000E+01 0.  1.
        -13    1    6    6    0    0 -0.40379853284E+01 -0.68287148013E+01  0.77199733679E+00  0.79714287451E+01  0.10500000000E+00 0.  1.
         13    1    6    6    0    0 -0.13634254299E+01 -0.23250401838E+01  0.29944369247E+00  0.27139329918E+01  0.10500000000E+00 0. -1.
</event>
<event>
11    0  0.3462209E-009  0.9118800E+02  0.7816531E-02  0.1126479E+00
         25   -1    0    0    0    0  0.00000000000E+00  0.00000000000E+00  0.99999998245E-14  0.12500000000E+03  0.12500000000E+03 0.  0.
    3000001    1    3    3    0    0  0.33517009148E+02  0.17875879016E+02 -0.38846753697E+02  0.54341579161E+02  0.10000000000E+01 0. -1.
    1000022    2    1    0    0    0  0.40923257048E+02  0.19493872375E+02 -0.41851235494E+02  0.62499999723E+02  0.10000001275E+02 0.  0.
    3000022    2    3    3    0    0  0.74062478991E+01  0.16179933584E+01 -0.30044817963E+01  0.81584205624E+01  0.25000951518E+00 0.  0.
    1000022    2    1    0    0    0 -0.40923257048E+02 -0.19493872375E+02  0.41851235494E+02  0.62500000277E+02  0.10000004735E+02 0.  0.
    3000022    2    5    5    0    0 -0.27113196833E+02 -0.14986617548E+02  0.22531723545E+02  0.38307508650E+02  0.25000996155E+00 0.  0.
        -13    1    4    4    0    0  0.24498272321E+01  0.58577216457E+00 -0.97708023145E+00  0.27037923875E+01  0.10500000000E+00 0. -1.
         13    1    4    4    0    0  0.49564206670E+01  0.10322211938E+01 -0.20274015649E+01  0.54546281749E+01  0.10500000000E+00 0.  1.
    3000001    1    5    5    0    0 -0.13810060214E+02 -0.45072548262E+01  0.19319511948E+02  0.24192491627E+02  0.10000000000E+01 0. -1.
        -13    1    6    6    0    0 -0.20176187337E+02 -0.11180755295E+02  0.16795698300E+02  0.28534090677E+02  0.10500000000E+00 0.  1.
         13    1    6    6    0    0 -0.69370094963E+01 -0.38058622539E+01  0.57360252454E+01  0.97734179724E+01  0.10500000000E+00 0. -1.
</event>
<event>
11    0  0.3462209E-009  0.9118800E+02  0.7816531E-02  0.1126479E+00
         25   -1    0    0    0    0  0.00000000000E+00  0.00000000000E+00  0.99999998245E-14  0.12500000000E+03  0.12500000000E+03 0.  0.
    3000001    1    3    3    0    0  0.42349084728E+02  0.25889580359E+02  0.30203013307E+02  0.58111421952E+02  0.10000000000E+01 0.  1.
    1000022    2    1    0    0    0  0.46589892608E+02  0.26987760184E+02  0.30121295458E+02  0.62499998111E+02  0.10000001538E+02 0.  0.
    3000022    2    3    3    0    0  0.42408078804E+01  0.10981798245E+01 -0.81717848880E-01  0.43885761586E+01  0.24994496865E+00 0.  0.
    1000022    2    1    0    0    0 -0.46589892608E+02 -0.26987760184E+02 -0.30121295458E+02  0.62500001889E+02  0.10000025154E+02 0.  0.
    3000022    2    5    5    0    0 -0.16336545981E+02 -0.71968303222E+01 -0.14930809993E+02  0.23273776789E+02  0.24999541920E+00 0.  0.
        -13    1    4    4    0    0  0.32660310236E+01  0.85114821312E+00 -0.59542054253E-01  0.33772743721E+01  0.10500000000E+00 0. -1.
         13    1    4    4    0    0  0.97477685680E+00  0.24703161140E+00 -0.22175794627E-01  0.10113017865E+01  0.10500000000E+00 0. -1.
    3000001    1    5    5    0    0 -0.30253346628E+02 -0.19790929862E+02 -0.15190485465E+02  0.39226225100E+02  0.10000000000E+01 0.  1.
        -13    1    6    6    0    0 -0.73473642206E+01 -0.32371179440E+01 -0.68022764945E+01  0.10523530020E+02  0.10500000000E+00 0.  1.
         13    1    6    6    0    0 -0.89891817602E+01 -0.39597123782E+01 -0.81285334983E+01  0.12750246769E+02  0.10500000000E+00 0. -1.
</event>
<event>
11    0  0.3462209E-009  0.9118800E+02  0.7816531E-02  0.1126479E+00
         25   -1    0    0    0    0  0.00000000000E+00  0.00000000000E+00  0.99999998245E-14  0.12500000000E+03  0.12500000000E+03 0.  0.
    3000001    1    3    3    0    0 -0.16384004978E+02 -0.68170766780E+00 -0.49644396694E+01  0.17162342663E+02  0.10000000000E+01 0. -1.
    1000022    2    1    0    0    0 -0.55292673838E+02  0.11223256260E+02 -0.24960140874E+02  0.62500000759E+02  0.10000010059E+02 0.  0.
    3000022    2    3    3    0    0 -0.38908668860E+02  0.11904963928E+02 -0.19995701204E+02  0.45337658095E+02  0.24999267854E+00 0.  0.
    1000022    2    1    0    0    0  0.55292673838E+02 -0.11223256260E+02  0.24960140874E+02  0.62499999241E+02  0.10000000575E+02 0.  0.
    3000022    2    5    5    0    0  0.19569884141E+02 -0.11977932560E+01  0.12910033408E+02  0.23476510134E+02  0.24998299290E+00 0.  0.
        -13    1    4    4    0    0 -0.23568619223E+02  0.71647368697E+01 -0.12056648548E+02  0.27426028982E+02  0.10500000000E+00 0.  1.
         13    1    4    4    0    0 -0.15340049637E+02  0.47402270585E+01 -0.79390526561E+01  0.17911629113E+02  0.10500000000E+00 0. -1.
    3000001    1    5    5    0    0  0.35722789697E+02 -0.10025463004E+02  0.12050107466E+02  0.39023489107E+02  0.10000000000E+01 0. -1.
        -13    1    6    6    0    0  0.10623234840E+02 -0.62810218605E+00  0.70827436813E+01  0.12783736303E+02  0.10500000000E+00 0. -1.
         13    1    6    6    0    0  0.89466493015E+01 -0.56969106997E+00  0.58272897264E+01  0.10692773831E+02  0.10500000000E+00 0.  1.
</event>
<event>
11    0  0.3462209E-009  0.9118800E+02  0.7816531E-02  0.1126479E+00
         25   -1    0    0    0    0  0.00000000000E+00  0.00000000000E+00  0.99999998245E-14  0.12500000000E+03  0.12500000000E+03 0.  0.
    3000001    1    3    3    0    0  0.14268738516E+02  0.27913289337E+01  0.11810008303E+02  0.18758057260E+02  0.10000000000E+01 0. -1.
    1000022    2    1    0    0    0  0.53649229907E+02  0.14630230946E+02  0.26720150152E+02  0.62499999768E+02  0.10000000987E+02 0.  0.
    3000022    2    3    3    0    0  0.39380491391E+02  0.11838902013E+02  0.14910141849E+02  0.43741942508E+02  0.25000273066E+00 0.  0.
    1000022    2    1    0    0    0 -0.53649229907E+02 -0.14630230946E+02 -0.26720150152E+02  0.62500000232E+02  0.10000003885E+02 0.  0.
    3000022    2    5    5    0    0 -0.12228493946E+02 -0.49083901905E+01 -0.10878995938E+02  0.17089277687E+02  0.25000157895E+00 0.  0.
        -13    1    4    4    0    0  0.17005537559E+02  0.50875179966E+01  0.63709630241E+01  0.18859250831E+02  0.10500000000E+00 0. -1.
         13    1    4    4    0    0  0.22374953832E+02  0.67513840161E+01  0.85391788245E+01  0.24882691677E+02  0.10500000000E+00 0.  1.
    3000001    1    5    5    0    0 -0.41420735961E+02 -0.97218407559E+01 -0.15841154213E+02  0.45410722545E+02  0.10000000000E+01 0. -1.
        -13    1    6    6    0    0 -0.43550760248E+01 -0.17093785327E+01 -0.38051769843E+01  0.60315055361E+01  0.10500000000E+00 0. -1.
         13    1    6    6    0    0 -0.78734179215E+01 -0.31990116578E+01 -0.70738189541E+01  0.11057772151E+02  0.10500000000E+00 0.  1.
</event>
<event>
11    0  0.3462209E-009  0.9118800E+02  0.7816531E-02  0.1126479E+00
         25   -1    0    0    0    0  0.00000000000E+00  0.00000000000E+00  0.99999998245E-14  0.12500000000E+03  0.12500000000E+03 0.  0.
    3000001    1    3    3    0    0 -0.39335016041E+01 -0.62975909770E+01 -0.13426865030E+01  0.76114974892E+01  0.10000000000E+01 0.  1.
    1000022    2    1    0    0    0 -0.24834784497E+02 -0.54867123458E+02  0.13382180715E+02  0.62499996493E+02  0.99999521716E+01 0.  0.
    3000022    2    3    3    0    0 -0.20901282893E+02 -0.48569532481E+02  0.14724867218E+02  0.54888499004E+02  0.24999273108E+00 0.  0.
    1000022    2    1    0    0    0  0.24834784497E+02  0.54867123458E+02 -0.13382180715E+02  0.62500003507E+02  0.99999960079E+01 0.  0.
    3000022    2    5    5    0    0  0.23499754210E+02  0.47173027934E+02 -0.14206702309E+02  0.54584117729E+02  0.25001065799E+00 0.  0.
        -13    1    4    4    0    0 -0.57475642153E+01 -0.13261679203E+02  0.40252458912E+01  0.15004008104E+02  0.10500000000E+00 0. -1.
         13    1    4    4    0    0 -0.15153718677E+02 -0.35307853278E+02  0.10699621327E+02  0.39884490900E+02  0.10500000000E+00 0.  1.
    3000001    1    5    5    0    0  0.13350302866E+01  0.76940955235E+01  0.82452159420E+00  0.79158857780E+01  0.10000000000E+01 0.  1.
        -13    1    6    6    0    0  0.14647974641E+02  0.29460909257E+02 -0.89257257964E+01  0.34090877685E+02  0.10500000000E+00 0. -1.
         13    1    6    6    0    0  0.88517795688E+01  0.17712118677E+02 -0.52809765129E+01  0.20493240044E+02  0.10500000000E+00 0.  1.
</event>
<event>
11    0  0.3462209E-009  0.9118800E+02  0.7816531E-02  0.1126479E+00
         25   -1    0    0    0    0  0.00000000000E+00  0.00000000000E+00  0.99999998245E-14  0.12500000000E+03  0.12500000000E+03 0.  0.
    3000001    1    3    3    0    0  0.88901598514E+01  0.74128736774E+01  0.16595876547E+02  0.20258547744E+02  0.10000000000E+01 0.  1.
    1000022    2    1    0    0    0  0.38833910239E+02  0.21523395167E+02  0.42835975709E+02  0.62500000246E+02  0.10000004592E+02 0.  0.
    3000022    2    3    3    0    0  0.29943750387E+02  0.14110521490E+02  0.26240099162E+02  0.42241452502E+02  0.25000289245E+00 0.  0.
    1000022    2    1    0    0    0 -0.38833910239E+02 -0.21523395167E+02 -0.42835975709E+02  0.62499999754E+02  0.10000001516E+02 0.  0.
    3000022    2    5    5    0    0 -0.11235930243E+01 -0.17557796821E+00  0.44460579831E+00  0.12463789694E+01  0.24999462465E+00 0.  0.
        -13    1    4    4    0    0  0.16563589034E+02  0.77559890816E+01  0.14561115533E+02  0.23378301026E+02  0.10500000000E+00 0. -1.
         13    1    4    4    0    0  0.13380161353E+02  0.63545324083E+01  0.11678983629E+02  0.18863151475E+02  0.10500000000E+00 0.  1.
    3000001    1    5    5    0    0 -0.37710317215E+02 -0.21347817199E+02 -0.43280581507E+02  0.61253620784E+02  0.10000000000E+01 0. -1.
        -13    1    6    6    0    0 -0.73587629377E+00 -0.16898652997E+00  0.27661070265E+00  0.81093085270E+00  0.10500000000E+00 0.  1.
         13    1    6    6    0    0 -0.38771673052E+00 -0.65914382460E-02  0.16799509566E+00  0.43544811671E+00  0.10500000000E+00 0. -1.
</event>
<event>
11    0  0.3462209E-009  0.9118800E+02  0.7816531E-02  0.1126479E+00
         25   -1    0    0    0    0  0.00000000000E+00  0.00000000000E+00  0.99999998245E-14  0.12500000000E+03  0.12500000000E+03 0.  0.
    3000001    1    3    3    0    0  0.45025883376E+02  0.24159659832E+02 -0.28620086738E+02  0.58575837185E+02  0.10000000000E+01 0. -1.
    1000022    2    1    0    0    0  0.46934099088E+02  0.27551344962E+02 -0.29057935670E+02  0.62499998022E+02  0.99999930496E+01 0.  0.
    3000022    2    3    3    0    0  0.19082157112E+01  0.33916851298E+01 -0.43784893161E+00  0.39241608370E+01  0.25002273460E+00 0.  0.
    1000022    2    1    0    0    0 -0.46934099088E+02 -0.27551344962E+02  0.29057935670E+02  0.62500001978E+02  0.10000017773E+02 0.  0.
    3000022    2    5    5    0    0 -0.20687423761E+01 -0.43215807671E+01  0.23048612211E+01  0.53226535796E+01  0.25000106932E+00 0.  0.
        -13    1    4    4    0    0  0.87253925781E+00  0.15140491804E+01 -0.13213766055E+00  0.17556067437E+01  0.10500000000E+00 0. -1.
         13    1    4    4    0    0  0.10356764534E+01  0.18776359494E+01 -0.30571127106E+00  0.21685540933E+01  0.10500000000E+00 0.  1.
    3000001    1    5    5    0    0 -0.44865356712E+02 -0.23229764195E+02  0.26753074449E+02  0.57177348398E+02  0.10000000000E+01 0. -1.
        -13    1    6    6    0    0 -0.12911188215E+01 -0.27865929609E+01  0.15243896753E+01  0.34302881836E+01  0.10500000000E+00 0.  1.
         13    1    6    6    0    0 -0.77762355466E+00 -0.15349878062E+01  0.78047154586E+00  0.18923653960E+01  0.10500000000E+00 0. -1.
</event>
<event>
11    0  0.3462209E-009  0.9118800E+02  0.7816531E-02  0.1126479E+00
         25   -1    0    0    0    0  0.00000000000E+00  0.00000000000E+00  0.99999998245E-14  0.12500000000E+03  0.12500000000E+03 0.  0.
    3000001    1    3    3    0    0 -0.22884268042E+01  0.85371135422E+01  0.16914000826E+01  0.90542829153E+01  0.10000000000E+01 0. -1.
    1000022    2    1    0    0    0 -0.25653857382E+02  0.47618501271E+02  0.29675037640E+02  0.62500000036E+02  0.10000004183E+02 0.  0.
    3000022    2    3    3    0    0 -0.23365430578E+02  0.39081387729E+02  0.27983637558E+02  0.53445717121E+02  0.24998935875E+00 0.  0.
    1000022    2    1    0    0    0  0.25653857382E+02 -0.47618501271E+02 -0.29675037640E+02  0.62499999964E+02  0.10000003730E+02 0.  0.
    3000022    2    5    5    0    0  0.24408840829E+02 -0.44828646046E+02 -0.25027961644E+02  0.56849453645E+02  0.24999731019E+00 0.  0.
        -13    1    4    4    0    0 -0.13329317508E+02  0.22195762538E+02  0.15862876769E+02  0.30363867742E+02  0.10500000000E+00 0. -1.
         13    1    4    4    0    0 -0.10036113070E+02  0.16885625191E+02  0.12120760789E+02  0.23081849379E+02  0.10500000000E+00 0.  1.
    3000001    1    5    5    0    0  0.12450165536E+01 -0.27898552249E+01 -0.46470759957E+01  0.56505463191E+01  0.10000000000E+01 0. -1.
        -13    1    6    6    0    0  0.12505587947E+02 -0.22838073826E+02 -0.12797902364E+02  0.29013181072E+02  0.10500000000E+00 0.  1.
         13    1    6    6    0    0  0.11903252882E+02 -0.21990572220E+02 -0.12230059280E+02  0.27836272573E+02  0.10500000000E+00 0. -1.
</event>
<event>
11    0  0.3462209E-009  0.9118800E+02  0.7816531E-02  0.1126479E+00
         25   -1    0    0    0    0  0.00000000000E+00  0.00000000000E+00  0.99999998245E-14  0.12500000000E+03  0.12500000000E+03 0.  0.
    3000001    1    3    3    0    0  0.16817530089E-01  0.13196832986E+02  0.11021563842E+02  0.17222994897E+02  0.10000000000E+01 0. -1.
    1000022    2    1    0    0    0 -0.12736262179E+02  0.40003741695E+02  0.45207721893E+02  0.62500001220E+02  0.10000015493E+02 0.  0.
    3000022    2    3    3    0    0 -0.12753079709E+02  0.26806908709E+02  0.34186158051E+02  0.45277006324E+02  0.25000542477E+00 0.  0.
    1000022    2    1    0    0    0  0.12736262179E+02 -0.40003741695E+02 -0.45207721893E+02  0.62499998780E+02  0.10000000240E+02 0.  0.
    3000022    2    5    5    0    0  0.52587295061E+01 -0.27701163785E+02 -0.34345799440E+02  0.44437654594E+02  0.24999116869E+00 0.  0.
        -13    1    4    4    0    0 -0.83957819136E+01  0.17751225830E+02  0.22661204520E+02  0.29985603007E+02  0.10500000000E+00 0.  1.
         13    1    4    4    0    0 -0.43572977953E+01  0.90556828789E+01  0.11524953532E+02  0.15291403316E+02  0.10500000000E+00 0. -1.
    3000001    1    5    5    0    0  0.74775326728E+01 -0.12302577910E+02 -0.10861922453E+02  0.18062344186E+02  0.10000000000E+01 0. -1.
        -13    1    6    6    0    0  0.34580886263E+01 -0.18240801527E+02 -0.22528255631E+02  0.29192782397E+02  0.10500000000E+00 0.  1.
         13    1    6    6    0    0  0.18006408798E+01 -0.94603622574E+01 -0.11817543808E+02  0.15244872196E+02  0.10500000000E+00 0. -1.
</event>
<event>
11    0  0.3462209E-009  0.9118800E+02  0.7816531E-02  0.1126479E+00
         25   -1    0    0    0    0  0.00000000000E+00  0.00000000000E+00  0.99999998245E-14  0.12500000000E+03  0.12500000000E+03 0.  0.
    3000001    1    3    3    0    0 -0.23946808916E+02  0.91215904517E+01 -0.19819667715E+02  0.32410990389E+02  0.10000000000E+01 0.  1.
    1000022    2    1    0    0    0 -0.43121445313E+02  0.26202697476E+02 -0.35499429723E+02  0.62499997180E+02  0.99999868005E+01 0.  0.
    3000022    2    3    3    0    0 -0.19174636396E+02  0.17081107024E+02 -0.15679762008E+02  0.30089006791E+02  0.24998994529E+00 0.  0.
    1000022    2    1    0    0    0  0.43121445313E+02 -0.26202697476E+02  0.35499429723E+02  0.62500002820E+02  0.10000022052E+02 0.  0.
    3000022    2    5    5    0    0  0.28441090390E+02 -0.22249015044E+02  0.23224983656E+02  0.42934562584E+02  0.25001078165E+00 0.  0.
        -13    1    4    4    0    0 -0.12334601524E+02  0.10927799254E+02 -0.10104560413E+02  0.19330606752E+02  0.10500000000E+00 0.  1.
         13    1    4    4    0    0 -0.68400348723E+01  0.61533077702E+01 -0.55752015949E+01  0.10758400039E+02  0.10500000000E+00 0. -1.
    3000001    1    5    5    0    0  0.14680354922E+02 -0.39536824318E+01  0.12274446066E+02  0.19565440236E+02  0.10000000000E+01 0. -1.
        -13    1    6    6    0    0  0.11076780310E+02 -0.87421820900E+01  0.90600484103E+01  0.16769505417E+02  0.10500000000E+00 0. -1.
         13    1    6    6    0    0  0.17364310080E+02 -0.13506832954E+02  0.14164935246E+02  0.26165057167E+02  0.10500000000E+00 0.  1.
</event>
<event>
11    0  0.3462209E-009  0.9118800E+02  0.7816531E-02  0.1126479E+00
         25   -1    0    0    0    0  0.00000000000E+00  0.00000000000E+00  0.99999998245E-14  0.12500000000E+03  0.12500000000E+03 0.  0.
    3000001    1    3    3    0    0  0.10634185689E+02 -0.27474293823E+02  0.19513277544E+02  0.35350965006E+02  0.10000000000E+01 0. -1.
    1000022    2    1    0    0    0  0.17905817478E+02 -0.42672847327E+02  0.40800243612E+02  0.62499999632E+02  0.99999938344E+01 0.  0.
    3000022    2    3    3    0    0  0.72716317888E+01 -0.15198553504E+02  0.21286966068E+02  0.27149034626E+02  0.24999855239E+00 0.  0.
    1000022    2    1    0    0    0 -0.17905817478E+02  0.42672847327E+02 -0.40800243612E+02  0.62500000368E+02  0.99999984348E+01 0.  0.
    3000022    2    5    5    0    0 -0.12199244611E+02  0.24576514982E+02 -0.17981075140E+02  0.32805612549E+02  0.24998752725E+00 0.  0.
        -13    1    4    4    0    0  0.32169216094E+01 -0.66340282101E+01  0.92291365669E+01  0.11812997152E+02  0.10500000000E+00 0.  1.
         13    1    4    4    0    0  0.40547101794E+01 -0.85645252935E+01  0.12057829501E+02  0.15336037474E+02  0.10500000000E+00 0. -1.
    3000001    1    5    5    0    0 -0.57065728671E+01  0.18096332345E+02 -0.22819168472E+02  0.29694387820E+02  0.10000000000E+01 0. -1.
        -13    1    6    6    0    0 -0.40961987853E+01  0.82642310075E+01 -0.59806128651E+01  0.10993412294E+02  0.10500000000E+00 0. -1.
         13    1    6    6    0    0 -0.81030458255E+01  0.16312283975E+02 -0.12000462275E+02  0.21812200254E+02  0.10500000000E+00 0.  1.
</event>
<event>
11    0  0.3462209E-009  0.9118800E+02  0.7816531E-02  0.1126479E+00
         25   -1    0    0    0    0  0.00000000000E+00  0.00000000000E+00  0.99999998245E-14  0.12500000000E+03  0.12500000000E+03 0.  0.
    3000001    1    3    3    0    0  0.12268974708E+02 -0.21141176676E+02 -0.37337756866E+02  0.44638382357E+02  0.10000000000E+01 0. -1.
    1000022    2    1    0    0    0  0.22700272287E+02 -0.27207125909E+02 -0.50504653254E+02  0.62499999416E+02  0.99999932307E+01 0.  0.
    3000022    2    3    3    0    0  0.10431297579E+02 -0.60659492325E+01 -0.13166896388E+02  0.17861617060E+02  0.24998843819E+00 0.  0.
    1000022    2    1    0    0    0 -0.22700272287E+02  0.27207125909E+02  0.50504653254E+02  0.62500000584E+02  0.10000000527E+02 0.  0.
    3000022    2    5    5    0    0 -0.14375502777E+02  0.11074253017E+02  0.20160043246E+02  0.27125338300E+02  0.24994847932E+00 0.  0.
        -13    1    4    4    0    0  0.24897643057E+01 -0.14291689524E+01 -0.31237907762E+01  0.42438831282E+01  0.10500000000E+00 0.  1.
         13    1    4    4    0    0  0.79415332733E+01 -0.46367802801E+01 -0.10043105612E+02  0.13617733931E+02  0.10500000000E+00 0. -1.
    3000001    1    5    5    0    0 -0.83247695102E+01  0.16132872892E+02  0.30344610008E+02  0.35374662284E+02  0.10000000000E+01 0. -1.
        -13    1    6    6    0    0 -0.10198168526E+02  0.79098598132E+01  0.14335703603E+02  0.19289684972E+02  0.10500000000E+00 0. -1.
         13    1    6    6    0    0 -0.41773342515E+01  0.31643932035E+01  0.58243396429E+01  0.78356533276E+01  0.10500000000E+00 0.  1.
</event>
<event>
11    0  0.3462209E-009  0.9118800E+02  0.7816531E-02  0.1126479E+00
         25   -1    0    0    0    0  0.00000000000E+00  0.00000000000E+00  0.99999998245E-14  0.12500000000E+03  0.12500000000E+03 0.  0.
    3000001    1    3    3    0    0  0.23996638817E+02 -0.19830864528E+02 -0.32637826466E+00  0.31148168248E+02  0.10000000000E+01 0. -1.
    1000022    2    1    0    0    0  0.40717935279E+02 -0.46349531538E+02 -0.14367450327E+00  0.62499999728E+02  0.99999998283E+01 0.  0.
    3000022    2    3    3    0    0  0.16721296462E+02 -0.26518667010E+02  0.18270376139E+00  0.31351831481E+02  0.25000234062E+00 0.  0.
    1000022    2    1    0    0    0 -0.40717935279E+02  0.46349531538E+02  0.14367450327E+00  0.62500000272E+02  0.10000003223E+02 0.  0.
    3000022    2    5    5    0    0 -0.19132875158E+02  0.28958583006E+02 -0.12023224364E+01  0.34730023336E+02  0.25000029071E+00 0.  0.
        -13    1    4    4    0    0  0.85926579285E+01 -0.13647278757E+02  0.27099517149E-01  0.16127422209E+02  0.10500000000E+00 0. -1.
         13    1    4    4    0    0  0.81286385333E+01 -0.12871388253E+02  0.15560424424E+00  0.15224409271E+02  0.10500000000E+00 0.  1.
    3000001    1    5    5    0    0 -0.21585060121E+02  0.17390948532E+02  0.13459969397E+01  0.27769976936E+02  0.10000000000E+01 0.  1.
        -13    1    6    6    0    0 -0.49115807019E+01  0.73986304867E+01 -0.32993454138E+00  0.88872515364E+01  0.10500000000E+00 0. -1.
         13    1    6    6    0    0 -0.14221294456E+02  0.21559952519E+02 -0.87238789500E+00  0.25842771799E+02  0.10500000000E+00 0.  1.
</event>
<event>
11    0  0.3462209E-009  0.9118800E+02  0.7816531E-02  0.1126479E+00
         25   -1    0    0    0    0  0.00000000000E+00  0.00000000000E+00  0.99999998245E-14  0.12500000000E+03  0.12500000000E+03 0.  0.
    3000001    1    3    3    0    0 -0.51543230018E+02  0.16391816891E+00 -0.10417145591E+02  0.52595136202E+02  0.10000000000E+01 0. -1.
    1000022    2    1    0    0    0 -0.60251461228E+02  0.43800455099E+01 -0.12523044276E+02  0.62500000157E+02  0.10000000149E+02 0.  0.
    3000022    2    3    3    0    0 -0.87082312101E+01  0.42161273410E+01 -0.21058986856E+01  0.99048639557E+01  0.25000028421E+00 0.  0.
    1000022    2    1    0    0    0  0.60251461228E+02 -0.43800455099E+01  0.12523044276E+02  0.62499999843E+02  0.99999981819E+01 0.  0.
    3000022    2    5    5    0    0  0.13856771671E+02  0.41001834721E-01  0.70944754280E+01  0.15569388954E+02  0.24997698730E+00 0.  0.
        -13    1    4    4    0    0 -0.32265309864E+01  0.16285755212E+01 -0.78163017799E+00  0.36992879273E+01  0.10500000000E+00 0. -1.
         13    1    4    4    0    0 -0.54817002238E+01  0.25875518198E+01 -0.13242685076E+01  0.62055760283E+01  0.10500000000E+00 0.  1.
    3000001    1    5    5    0    0  0.46394689557E+02 -0.44210473446E+01  0.54285688482E+01  0.46930610889E+02  0.10000000000E+01 0. -1.
        -13    1    6    6    0    0  0.67002307841E+01 -0.99030234324E-02  0.33621177557E+01  0.74972029073E+01  0.10500000000E+00 0. -1.
         13    1    6    6    0    0  0.71565408871E+01  0.50904858154E-01  0.37323576723E+01  0.80721860464E+01  0.10500000000E+00 0.  1.
</event>
<event>
11    0  0.3462209E-009  0.9118800E+02  0.7816531E-02  0.1126479E+00
         25   -1    0    0    0    0  0.00000000000E+00  0.00000000000E+00  0.99999998245E-14  0.12500000000E+03  0.12500000000E+03 0.  0.
    3000001    1    3    3    0    0 -0.35266552524E+02  0.44777296308E+01  0.27133359665E+01  0.35667099428E+02  0.10000000000E+01 0. -1.
    1000022    2    1    0    0    0 -0.60252424656E+02  0.13134723109E+02 -0.18368910811E+01  0.62499997350E+02  0.99999935947E+01 0.  0.
    3000022    2    3    3    0    0 -0.24985872132E+02  0.86569934777E+01 -0.45502270476E+01  0.26832897922E+02  0.25000486926E+00 0.  0.
    1000022    2    1    0    0    0  0.60252424656E+02 -0.13134723109E+02  0.18368910811E+01  0.62500002650E+02  0.10000026715E+02 0.  0.
    3000022    2    5    5    0    0  0.51171447389E+02 -0.14298723721E+02  0.12413042455E+00  0.53132367163E+02  0.25000806883E+00 0.  0.
        -13    1    4    4    0    0 -0.13837539234E+02  0.47456093754E+01 -0.25658869335E+01  0.14852376953E+02  0.10500000000E+00 0.  1.
         13    1    4    4    0    0 -0.11148332897E+02  0.39113841023E+01 -0.19843401141E+01  0.11980520969E+02  0.10500000000E+00 0. -1.
    3000001    1    5    5    0    0  0.90809772668E+01  0.11640006122E+01  0.17127606566E+01  0.93676354867E+01  0.10000000000E+01 0.  1.
        -13    1    6    6    0    0  0.25209817968E+02 -0.70741206246E+01 -0.26258446962E-03  0.26183756981E+02  0.10500000000E+00 0. -1.
         13    1    6    6    0    0  0.25961629421E+02 -0.72246030961E+01  0.12439300902E+00  0.26948610182E+02  0.10500000000E+00 0.  1.
</event>
<event>
11    0  0.3462209E-009  0.9118800E+02  0.7816531E-02  0.1126479E+00
         25   -1    0    0    0    0  0.00000000000E+00  0.00000000000E+00  0.99999998245E-14  0.12500000000E+03  0.12500000000E+03 0.  0.
    3000001    1    3    3    0    0 -0.11719498426E+02 -0.13189585635E+02  0.95065401965E+01  0.20067040616E+02  0.10000000000E+01 0.  1.
    1000022    2    1    0    0    0 -0.28895923968E+02 -0.36239930970E+02  0.40717845579E+02  0.62500000440E+02  0.10000004383E+02 0.  0.
    3000022    2    3    3    0    0 -0.17176425542E+02 -0.23050345336E+02  0.31211305382E+02  0.42432959824E+02  0.24996245860E+00 0.  0.
    1000022    2    1    0    0    0  0.28895923968E+02  0.36239930970E+02 -0.40717845579E+02  0.62499999560E+02  0.99999988874E+01 0.  0.
    3000022    2    5    5    0    0  0.21065524852E+02  0.27259840927E+02 -0.24169634831E+02  0.42084308377E+02  0.24999820908E+00 0.  0.
        -13    1    4    4    0    0 -0.11132681239E+02 -0.14885437750E+02  0.20250741452E+02  0.27488477639E+02  0.10500000000E+00 0.  1.
         13    1    4    4    0    0 -0.60437443037E+01 -0.81649075856E+01  0.10960563931E+02  0.14944482185E+02  0.10500000000E+00 0. -1.
    3000001    1    5    5    0    0  0.78303991164E+01  0.89800900430E+01 -0.16548210748E+02  0.20415691183E+02  0.10000000000E+01 0.  1.
        -13    1    6    6    0    0  0.96344042638E+01  0.12531140958E+02 -0.11156142768E+02  0.19347397388E+02  0.10500000000E+00 0.  1.
         13    1    6    6    0    0  0.11431120588E+02  0.14728699969E+02 -0.13013492063E+02  0.22736910989E+02  0.10500000000E+00 0. -1.
</event>
<event>
11    0  0.3462209E-009  0.9118800E+02  0.7816531E-02  0.1126479E+00
         25   -1    0    0    0    0  0.00000000000E+00  0.00000000000E+00  0.99999998245E-14  0.12500000000E+03  0.12500000000E+03 0.  0.
    3000001    1    3    3    0    0  0.24351308655E+02  0.26327755758E+02  0.39604040599E+02  0.53437973279E+02  0.10000000000E+01 0.  1.
    1000022    2    1    0    0    0  0.27698030699E+02  0.27143883612E+02  0.47982063683E+02  0.62500002952E+02  0.10000030578E+02 0.  0.
    3000022    2    3    3    0    0  0.33467220447E+01  0.81612785433E+00  0.83780230841E+01  0.90620296728E+01  0.24999574780E+00 0.  0.
    1000022    2    1    0    0    0 -0.27698030699E+02 -0.27143883612E+02 -0.47982063683E+02  0.62499997048E+02  0.99999936778E+01 0.  0.
    3000022    2    5    5    0    0 -0.52517633259E+01 -0.55763739088E+01 -0.16613725523E+02  0.18296320360E+02  0.24999793833E+00 0.  0.
        -13    1    4    4    0    0  0.24009338021E+01  0.54406163623E+00  0.60055685865E+01  0.64914070303E+01  0.10500000000E+00 0.  1.
         13    1    4    4    0    0  0.94578824257E+00  0.27206621811E+00  0.23724544977E+01  0.25706226425E+01  0.10500000000E+00 0. -1.
    3000001    1    5    5    0    0 -0.22446267374E+02 -0.21567509703E+02 -0.31368338160E+02  0.44203676688E+02  0.10000000000E+01 0.  1.
        -13    1    6    6    0    0 -0.33525681548E+01 -0.35310338273E+01 -0.10690013265E+02  0.11747141002E+02  0.10500000000E+00 0.  1.
         13    1    6    6    0    0 -0.18991951711E+01 -0.20453400815E+01 -0.59237122577E+01  0.65491793577E+01  0.10500000000E+00 0. -1.
</event>
<event>
11    0  0.3462209E-009  0.9118800E+02  0.7816531E-02  0.1126479E+00
         25   -1    0    0    0    0  0.00000000000E+00  0.00000000000E+00  0.99999998245E-14  0.12500000000E+03  0.12500000000E+03 0.  0.
    3000001    1    3    3    0    0 -0.29736214088E+01 -0.93854083767E+01 -0.29982602733E+02  0.31573482249E+02  0.10000000000E+01 0.  1.
    1000022    2    1    0    0    0 -0.10268051680E+02 -0.26139260051E+02 -0.54932286556E+02  0.62499999641E+02  0.10000002377E+02 0.  0.
    3000022    2    3    3    0    0 -0.72944302708E+01 -0.16753851674E+02 -0.24949683823E+02  0.30926517392E+02  0.24999244475E+00 0.  0.
    1000022    2    1    0    0    0  0.10268051680E+02  0.26139260051E+02  0.54932286556E+02  0.62500000359E+02  0.10000006866E+02 0.  0.
    3000022    2    5    5    0    0  0.89070236859E+01  0.24717598341E+02  0.43207646717E+02  0.50569338241E+02  0.24999328579E+00 0.  0.
        -13    1    4    4    0    0 -0.18023548345E+01 -0.40913321379E+01 -0.60844868867E+01  0.75511249020E+01  0.10500000000E+00 0.  1.
         13    1    4    4    0    0 -0.54920754362E+01 -0.12662519537E+02 -0.18865196936E+02  0.23375392490E+02  0.10500000000E+00 0. -1.
    3000001    1    5    5    0    0  0.13610279937E+01  0.14216617099E+01  0.11724639839E+02  0.11930662118E+02  0.10000000000E+01 0. -1.
        -13    1    6    6    0    0  0.31506822792E+01  0.85854465877E+01  0.15007298563E+02  0.17574604607E+02  0.10500000000E+00 0.  1.
         13    1    6    6    0    0  0.57563414066E+01  0.16132151754E+02  0.28200348154E+02  0.32994733634E+02  0.10500000000E+00 0. -1.
</event>
<event>
11    0  0.3462209E-009  0.9118800E+02  0.7816531E-02  0.1126479E+00
         25   -1    0    0    0    0  0.00000000000E+00  0.00000000000E+00  0.99999998245E-14  0.12500000000E+03  0.12500000000E+03 0.  0.
    3000001    1    3    3    0    0  0.34439928751E+01  0.10393077403E+02  0.25629185939E+02  0.27887852494E+02  0.10000000000E+01 0. -1.
    1000022    2    1    0    0    0  0.36179028514E+01  0.13430292105E+02  0.60106472791E+02  0.62499999577E+02  0.99999954326E+01 0.  0.
    3000022    2    3    3    0    0  0.17390997624E+00  0.30372147018E+01  0.34477286852E+02  0.34612147083E+02  0.24999835193E+00 0.  0.
    1000022    2    1    0    0    0 -0.36179028514E+01 -0.13430292105E+02 -0.60106472791E+02  0.62500000423E+02  0.10000000725E+02 0.  0.
    3000022    2    5    5    0    0 -0.60754595744E+01 -0.10229629425E+02 -0.33075947256E+02  0.35151634159E+02  0.25013986807E+00 0.  0.
        -13    1    4    4    0    0  0.33512399208E-01  0.14704490905E+01  0.17172862530E+02  0.17236054540E+02  0.10500000000E+00 0. -1.
         13    1    4    4    0    0  0.14039757703E+00  0.15667656113E+01  0.17304424322E+02  0.17376092543E+02  0.10500000000E+00 0.  1.
    3000001    1    5    5    0    0  0.24575567230E+01 -0.32006626799E+01 -0.27030525535E+02  0.27348366264E+02  0.10000000000E+01 0. -1.
        -13    1    6    6    0    0 -0.19133281606E+01 -0.32730238243E+01 -0.10414353183E+02  0.11083469079E+02  0.10500000000E+00 0.  1.
         13    1    6    6    0    0 -0.41621314137E+01 -0.69566056008E+01 -0.22661594073E+02  0.24068165080E+02  0.10500000000E+00 0. -1.
</event>
<event>
11    0  0.3462209E-009  0.9118800E+02  0.7816531E-02  0.1126479E+00
         25   -1    0    0    0    0  0.00000000000E+00  0.00000000000E+00  0.99999998245E-14  0.12500000000E+03  0.12500000000E+03 0.  0.
    3000001    1    3    3    0    0  0.30503762568E+01  0.26407501470E+01 -0.25701879225E+01  0.48871487192E+01  0.10000000000E+01 0. -1.
    1000022    2    1    0    0    0  0.15717417063E+02  0.26264182217E+02 -0.53566830297E+02  0.62499998875E+02  0.10000004237E+02 0.  0.
    3000022    2    3    3    0    0  0.12667040806E+02  0.23623432070E+02 -0.50996642374E+02  0.57612850156E+02  0.25000825726E+00 0.  0.
    1000022    2    1    0    0    0 -0.15717417063E+02 -0.26264182217E+02  0.53566830297E+02  0.62500001125E+02  0.10000018295E+02 0.  0.
    3000022    2    5    5    0    0 -0.12675124548E+01 -0.20285229372E+01  0.60125643329E+00  0.24790136405E+01  0.25001240208E+00 0.  0.
        -13    1    4    4    0    0  0.33375515406E+01  0.61691848011E+01 -0.13386659661E+02  0.15113297895E+02  0.10500000000E+00 0. -1.
         13    1    4    4    0    0  0.93294892652E+01  0.17454247269E+02 -0.37609982713E+02  0.42499552261E+02  0.10500000000E+00 0.  1.
    3000001    1    5    5    0    0 -0.14449904608E+02 -0.24235659280E+02  0.52965573863E+02  0.60020987484E+02  0.10000000000E+01 0.  1.
        -13    1    6    6    0    0 -0.84727686023E+00 -0.13315929055E+01  0.45075784336E+00  0.16447569356E+01  0.10500000000E+00 0.  1.
         13    1    6    6    0    0 -0.42023559456E+00 -0.69693003173E+00  0.15049858993E+00  0.83425670488E+00  0.10500000000E+00 0. -1.
</event>
<event>
11    0  0.3462209E-009  0.9118800E+02  0.7816531E-02  0.1126479E+00
         25   -1    0    0    0    0  0.00000000000E+00  0.00000000000E+00  0.99999998245E-14  0.12500000000E+03  0.12500000000E+03 0.  0.
    3000001    1    3    3    0    0 -0.35723782252E+01  0.28444757410E+02  0.22984039844E+02  0.36757750174E+02  0.10000000000E+01 0.  1.
    1000022    2    1    0    0    0 -0.14034295870E+01  0.51952425757E+02  0.33244936872E+02  0.62499997835E+02  0.99999872547E+01 0.  0.
    3000022    2    3    3    0    0  0.21689486382E+01  0.23507668347E+02  0.10260897028E+02  0.25742247661E+02  0.24999502027E+00 0.  0.
    1000022    2    1    0    0    0  0.14034295870E+01 -0.51952425757E+02 -0.33244936872E+02  0.62500002165E+02  0.10000014315E+02 0.  0.
    3000022    2    5    5    0    0  0.13320372665E+01 -0.20401387950E+02 -0.75443556958E+01  0.21793823809E+02  0.24999952468E+00 0.  0.
        -13    1    4    4    0    0  0.60930538257E+00  0.63956160690E+01  0.28269503869E+01  0.70198170519E+01  0.10500000000E+00 0. -1.
         13    1    4    4    0    0  0.15596432556E+01  0.17112052278E+02  0.74339466408E+01  0.18722430609E+02  0.10500000000E+00 0.  1.
    3000001    1    5    5    0    0  0.71392320434E-01 -0.31551037807E+02 -0.25700581176E+02  0.40706178356E+02  0.10000000000E+01 0.  1.
        -13    1    6    6    0    0  0.62079823625E+00 -0.98407184372E+01 -0.37068982217E+01  0.10534573994E+02  0.10500000000E+00 0.  1.
         13    1    6    6    0    0  0.71123903026E+00 -0.10560669513E+02 -0.38374574741E+01  0.11259249815E+02  0.10500000000E+00 0. -1.
</event>
<event>
11    0  0.3462209E-009  0.9118800E+02  0.7816531E-02  0.1126479E+00
         25   -1    0    0    0    0  0.00000000000E+00  0.00000000000E+00  0.99999998245E-14  0.12500000000E+03  0.12500000000E+03 0.  0.
    3000001    1    3    3    0    0  0.45779902551E+02 -0.36013649853E+01 -0.83836533120E+01  0.46691058568E+02  0.10000000000E+01 0.  1.
    1000022    2    1    0    0    0  0.60980784523E+02 -0.72048358419E+01 -0.59736187393E+01  0.62499998613E+02  0.99999982618E+01 0.  0.
    3000022    2    3    3    0    0  0.15200881972E+02 -0.36034708567E+01  0.24100345727E+01  0.15808940045E+02  0.25000753486E+00 0.  0.
    1000022    2    1    0    0    0 -0.60980784523E+02  0.72048358419E+01  0.59736187393E+01  0.62500001387E+02  0.10000015597E+02 0.  0.
    3000022    2    5    5    0    0 -0.22198790437E+02  0.70541885766E+00  0.65606764069E+01  0.23160070996E+02  0.25000200736E+00 0.  0.
        -13    1    4    4    0    0  0.61028880703E+01 -0.14756163140E+01  0.10259993459E+01  0.63628913210E+01  0.10500000000E+00 0. -1.
         13    1    4    4    0    0  0.90979939021E+01 -0.21278545426E+01  0.13840352267E+01  0.94460487245E+01  0.10500000000E+00 0.  1.
    3000001    1    5    5    0    0 -0.38781994086E+02  0.64994169843E+01 -0.58705766762E+00  0.39339930391E+02  0.10000000000E+01 0.  1.
        -13    1    6    6    0    0 -0.90272211495E+01  0.34955642174E+00  0.26804797833E+01  0.94238478469E+01  0.10500000000E+00 0. -1.
         13    1    6    6    0    0 -0.13171569287E+02  0.35586243591E+00  0.38801966237E+01  0.13736223149E+02  0.10500000000E+00 0.  1.
</event>
<event>
11    0  0.3462209E-009  0.9118800E+02  0.7816531E-02  0.1126479E+00
         25   -1    0    0    0    0  0.00000000000E+00  0.00000000000E+00  0.99999998245E-14  0.12500000000E+03  0.12500000000E+03 0.  0.
    3000001    1    3    3    0    0  0.21352216841E+02  0.30141635645E+02 -0.10799532594E+02  0.38497600803E+02  0.10000000000E+01 0. -1.
    1000022    2    1    0    0    0  0.36589588496E+02  0.43913366402E+02 -0.23217847423E+02  0.62499998734E+02  0.99999833858E+01 0.  0.
    3000022    2    3    3    0    0  0.15237371655E+02  0.13771730758E+02 -0.12418314829E+02  0.24002397931E+02  0.25000044083E+00 0.  0.
    1000022    2    1    0    0    0 -0.36589588496E+02 -0.43913366402E+02  0.23217847423E+02  0.62500001266E+02  0.99999992129E+01 0.  0.
    3000022    2    5    5    0    0 -0.53073658794E+01 -0.10223221158E+02  0.81379724354E+01  0.14105725075E+02  0.25000223903E+00 0.  0.
        -13    1    4    4    0    0  0.95574060598E+01  0.85622032415E+01 -0.77831624085E+01  0.15008130364E+02  0.10500000000E+00 0.  1.
         13    1    4    4    0    0  0.56799655952E+01  0.52095275162E+01 -0.46351524207E+01  0.89942675671E+01  0.10500000000E+00 0. -1.
    3000001    1    5    5    0    0 -0.31282222616E+02 -0.33690145245E+02  0.15079874987E+02  0.48394276191E+02  0.10000000000E+01 0. -1.
        -13    1    6    6    0    0 -0.16397027129E+01 -0.30678519555E+01  0.24334407265E+01  0.42465279202E+01  0.10500000000E+00 0. -1.
         13    1    6    6    0    0 -0.36676631665E+01 -0.71553692022E+01  0.57045317088E+01  0.98591971550E+01  0.10500000000E+00 0.  1.
</event>
<event>
11    0  0.3462209E-009  0.9118800E+02  0.7816531E-02  0.1126479E+00
         25   -1    0    0    0    0  0.00000000000E+00  0.00000000000E+00  0.99999998245E-14  0.12500000000E+03  0.12500000000E+03 0.  0.
    3000001    1    3    3    0    0  0.11664810186E+02 -0.11511597481E+02  0.13164686522E+02  0.21045038476E+02  0.10000000000E+01 0.  1.
    1000022    2    1    0    0    0  0.44080505471E+02 -0.24833707814E+02  0.35305043309E+02  0.62499999871E+02  0.99999947230E+01 0.  0.
    3000022    2    3    3    0    0  0.32415695285E+02 -0.13322110333E+02  0.22140356787E+02  0.41454961395E+02  0.25000210239E+00 0.  0.
    1000022    2    1    0    0    0 -0.44080505471E+02  0.24833707814E+02 -0.35305043309E+02  0.62500000129E+02  0.99999963329E+01 0.  0.
    3000022    2    5    5    0    0 -0.31327072279E+02  0.18578232761E+02 -0.30389242607E+02  0.47435269037E+02  0.24998456317E+00 0.  0.
        -13    1    4    4    0    0  0.13211118075E+02 -0.53955477022E+01  0.89497125104E+01  0.16844997917E+02  0.10500000000E+00 0. -1.
         13    1    4    4    0    0  0.19204577211E+02 -0.79265626308E+01  0.13190644277E+02  0.24609963479E+02  0.10500000000E+00 0.  1.
    3000001    1    5    5    0    0 -0.12753433192E+02  0.62554750537E+01 -0.49158007018E+01  0.15064731092E+02  0.10000000000E+01 0.  1.
        -13    1    6    6    0    0 -0.12874248239E+02  0.76094453417E+01 -0.12399777661E+02  0.19427182944E+02  0.10500000000E+00 0.  1.
         13    1    6    6    0    0 -0.18452824040E+02  0.10968787419E+02 -0.17989464947E+02  0.28008086093E+02  0.10500000000E+00 0. -1.
</event>
<event>
11    0  0.3462209E-009  0.9118800E+02  0.7816531E-02  0.1126479E+00
         25   -1    0    0    0    0  0.00000000000E+00  0.00000000000E+00  0.99999998245E-14  0.12500000000E+03  0.12500000000E+03 0.  0.
    3000001    1    3    3    0    0 -0.14404987655E+02  0.96710869494E+01 -0.44486001681E+02  0.47760212915E+02  0.10000000000E+01 0. -1.
    1000022    2    1    0    0    0 -0.23168203794E+02  0.97925146586E+01 -0.56334624646E+02  0.62499991397E+02  0.99999990152E+01 0.  0.
    3000022    2    3    3    0    0 -0.87632161387E+01  0.12142770924E+00 -0.11848622965E+02  0.14739778483E+02  0.25000352364E+00 0.  0.
    1000022    2    1    0    0    0  0.23168203794E+02 -0.97925146586E+01  0.56334624646E+02  0.62500008603E+02  0.10000106546E+02 0.  0.
    3000022    2    5    5    0    0  0.15351493261E+02 -0.81715929888E+01  0.47331120204E+02  0.50425595869E+02  0.25000341255E+00 0.  0.
        -13    1    4    4    0    0 -0.61268370211E+01  0.54581105878E-01 -0.82231469698E+01  0.10255353825E+02  0.10500000000E+00 0.  1.
         13    1    4    4    0    0 -0.26363791176E+01  0.66846603364E-01 -0.36254759955E+01  0.44844246581E+01  0.10500000000E+00 0. -1.
    3000001    1    5    5    0    0  0.78167105327E+01 -0.16209216698E+01  0.90035044424E+01  0.12074412733E+02  0.10000000000E+01 0. -1.
        -13    1    6    6    0    0  0.10308960713E+02 -0.55022823890E+01  0.31654142558E+02  0.33742340591E+02  0.10500000000E+00 0. -1.
         13    1    6    6    0    0  0.50425325480E+01 -0.26693105998E+01  0.15676977646E+02  0.16683255279E+02  0.10500000000E+00 0.  1.
</event>
<event>
11    0  0.3462209E-009  0.9118800E+02  0.7816531E-02  0.1126479E+00
         25   -1    0    0    0    0  0.00000000000E+00  0.00000000000E+00  0.99999998245E-14  0.12500000000E+03  0.12500000000E+03 0.  0.
    3000001    1    3    3    0    0 -0.27441775845E+02  0.37276686165E+02 -0.26206769933E+02  0.53201477266E+02  0.10000000000E+01 0.  1.
    1000022    2    1    0    0    0 -0.35082203210E+02  0.42161355543E+02 -0.28247302426E+02  0.62499992763E+02  0.99999058859E+01 0.  0.
    3000022    2    3    3    0    0 -0.76404273648E+01  0.48846693776E+01 -0.20405324933E+01  0.92985154965E+01  0.24998467700E+00 0.  0.
    1000022    2    1    0    0    0  0.35082203210E+02 -0.42161355543E+02  0.28247302426E+02  0.62500007237E+02  0.99999963505E+01 0.  0.
    3000022    2    5    5    0    0  0.15849608332E+02 -0.22218498032E+02  0.89580166182E+01  0.28725951833E+02  0.25001585784E+00 0.  0.
        -13    1    4    4    0    0 -0.44744943305E+01  0.28333823229E+01 -0.12533303976E+01  0.54434379749E+01  0.10500000000E+00 0. -1.
         13    1    4    4    0    0 -0.31659330343E+01  0.20512870547E+01 -0.78720209570E+00  0.38550775217E+01  0.10500000000E+00 0.  1.
    3000001    1    5    5    0    0  0.19232594878E+02 -0.19942857511E+02  0.19289285808E+02  0.33774055404E+02  0.10000000000E+01 0.  1.
        -13    1    6    6    0    0  0.69122654342E+01 -0.96784080272E+01  0.38347100863E+01  0.12496680432E+02  0.10500000000E+00 0.  1.
         13    1    6    6    0    0  0.89373428974E+01 -0.12540090004E+02  0.51233065319E+01  0.16229271401E+02  0.10500000000E+00 0. -1.
</event>
<event>
11    0  0.3462209E-009  0.9118800E+02  0.7816531E-02  0.1126479E+00
         25   -1    0    0    0    0  0.00000000000E+00  0.00000000000E+00  0.99999998245E-14  0.12500000000E+03  0.12500000000E+03 0.  0.
    3000001    1    3    3    0    0 -0.13501996117E+02  0.14792795449E+02 -0.61264017886E+01  0.20968154311E+02  0.10000000000E+01 0.  1.
    1000022    2    1    0    0    0 -0.28700253561E+02  0.51719694528E+02 -0.17539061109E+02  0.62500000135E+02  0.99999997876E+01 0.  0.
    3000022    2    3    3    0    0 -0.15198257445E+02  0.36926899079E+02 -0.11412659321E+02  0.41531845824E+02  0.25003971000E+00 0.  0.
    1000022    2    1    0    0    0  0.28700253561E+02 -0.51719694528E+02  0.17539061109E+02  0.62499999865E+02  0.99999980969E+01 0.  0.
    3000022    2    5    5    0    0  0.10876547409E+02 -0.16244338184E+02  0.10415879996E+02  0.22152445813E+02  0.24998571276E+00 0.  0.
        -13    1    4    4    0    0 -0.84780277193E+01  0.20434218871E+02 -0.62996403125E+01  0.23002842171E+02  0.10500000000E+00 0.  1.
         13    1    4    4    0    0 -0.67202297254E+01  0.16492680208E+02 -0.51130190081E+01  0.18529003653E+02  0.10500000000E+00 0. -1.
    3000001    1    5    5    0    0  0.17823706152E+02 -0.35475356344E+02  0.71231811136E+01  0.40347554052E+02  0.10000000000E+01 0. -1.
        -13    1    6    6    0    0  0.50640838046E+01 -0.74518142193E+01  0.47713152302E+01  0.10195634064E+02  0.10500000000E+00 0.  1.
         13    1    6    6    0    0  0.58124636044E+01 -0.87925239643E+01  0.56445647655E+01  0.11956811749E+02  0.10500000000E+00 0. -1.
</event>
<event>
11    0  0.3462209E-009  0.9118800E+02  0.7816531E-02  0.1126479E+00
         25   -1    0    0    0    0  0.00000000000E+00  0.00000000000E+00  0.99999998245E-14  0.12500000000E+03  0.12500000000E+03 0.  0.
    3000001    1    3    3    0    0 -0.11035687742E+02 -0.55061730981E+01  0.88260942937E+01  0.15198825172E+02  0.10000000000E+01 0.  1.
    1000022    2    1    0    0    0 -0.39931924196E+02 -0.37199319703E+02  0.28773283272E+02  0.62499997174E+02  0.99999930011E+01 0.  0.
    3000022    2    3    3    0    0 -0.28896236454E+02 -0.31693146605E+02  0.19947188979E+02  0.47301172002E+02  0.25000323550E+00 0.  0.
    1000022    2    1    0    0    0  0.39931924196E+02  0.37199319703E+02 -0.28773283272E+02  0.62500002826E+02  0.10000028328E+02 0.  0.
    3000022    2    5    5    0    0  0.18580900489E+01  0.15091061606E+01 -0.41277843820E+01  0.47781802200E+01  0.25000455213E+00 0.  0.
        -13    1    4    4    0    0 -0.15665310569E+02 -0.17195782377E+02  0.10891807525E+02  0.25685392404E+02  0.10500000000E+00 0.  1.
         13    1    4    4    0    0 -0.13230925885E+02 -0.14497364229E+02  0.90553814533E+01  0.21615779598E+02  0.10500000000E+00 0. -1.
    3000001    1    5    5    0    0  0.38073834148E+02  0.35690213543E+02 -0.24645498890E+02  0.57721822606E+02  0.10000000000E+01 0.  1.
        -13    1    6    6    0    0  0.55248578468E+00  0.43864723667E+00 -0.11382618131E+01  0.13432486351E+01  0.10500000000E+00 0. -1.
         13    1    6    6    0    0  0.13056042642E+01  0.10704589240E+01 -0.29895225690E+01  0.34349315849E+01  0.10500000000E+00 0.  1.
</event>
<event>
11    0  0.3462209E-009  0.9118800E+02  0.7816531E-02  0.1126479E+00
         25   -1    0    0    0    0  0.00000000000E+00  0.00000000000E+00  0.99999998245E-14  0.12500000000E+03  0.12500000000E+03 0.  0.
    3000001    1    3    3    0    0  0.16523100447E+02 -0.17483147438E+02  0.10645412393E+02  0.26324857031E+02  0.10000000000E+01 0.  1.
    1000022    2    1    0    0    0  0.30152834466E+02 -0.43063256788E+02  0.32289509503E+02  0.62500001585E+02  0.10000013132E+02 0.  0.
    3000022    2    3    3    0    0  0.13629734019E+02 -0.25580109351E+02  0.21644097110E+02  0.36175144554E+02  0.24999990448E+00 0.  0.
    1000022    2    1    0    0    0 -0.30152834466E+02  0.43063256788E+02 -0.32289509503E+02  0.62499998415E+02  0.99999933175E+01 0.  0.
    3000022    2    5    5    0    0 -0.38192130255E+01  0.12534575404E+02 -0.64943216509E+01  0.14626710230E+02  0.24993954315E+00 0.  0.
        -13    1    4    4    0    0  0.80844111604E+01 -0.15303591048E+02  0.12905544598E+02  0.21589851994E+02  0.10500000000E+00 0. -1.
         13    1    4    4    0    0  0.55453228589E+01 -0.10276518303E+02  0.87385525122E+01  0.14585292560E+02  0.10500000000E+00 0.  1.
    3000001    1    5    5    0    0 -0.26333621441E+02  0.30528681385E+02 -0.25795187852E+02  0.47873288185E+02  0.10000000000E+01 0.  1.
        -13    1    6    6    0    0 -0.23319384671E+01  0.77169391948E+01 -0.40604416616E+01  0.90270315740E+01  0.10500000000E+00 0.  1.
         13    1    6    6    0    0 -0.14872745584E+01  0.48176362087E+01 -0.24338799893E+01  0.55996786563E+01  0.10500000000E+00 0. -1.
</event>
<event>
11    0  0.3462209E-009  0.9118800E+02  0.7816531E-02  0.1126479E+00
         25   -1    0    0    0    0  0.00000000000E+00  0.00000000000E+00  0.99999998245E-14  0.12500000000E+03  0.12500000000E+03 0.  0.
    3000001    1    3    3    0    0  0.32319627616E+02  0.38723439127E+02  0.28668686575E+02  0.58025482824E+02  0.10000000000E+01 0.  1.
    1000022    2    1    0    0    0  0.35761685160E+02  0.41547984094E+02  0.28304012430E+02  0.62499998505E+02  0.99999792925E+01 0.  0.
    3000022    2    3    3    0    0  0.34420575438E+01  0.28245449671E+01 -0.36467414531E+00  0.44745156815E+01  0.24997788970E+00 0.  0.
    1000022    2    1    0    0    0 -0.35761685160E+02 -0.41547984094E+02 -0.28304012430E+02  0.62500001495E+02  0.99999979742E+01 0.  0.
    3000022    2    5    5    0    0 -0.23564233961E+02 -0.31077723441E+02 -0.24125883897E+02  0.45860862937E+02  0.24991825362E+00 0.  0.
        -13    1    4    4    0    0  0.13255586660E+01  0.11552895109E+01 -0.10958781934E+00  0.17648892660E+01  0.10500000000E+00 0.  1.
         13    1    4    4    0    0  0.21164988778E+01  0.16692554562E+01 -0.25508632597E+00  0.27096264155E+01  0.10500000000E+00 0. -1.
    3000001    1    5    5    0    0 -0.12197451199E+02 -0.10470260653E+02 -0.41781285332E+01  0.16639138557E+02  0.10000000000E+01 0.  1.
        -13    1    6    6    0    0 -0.74015528989E+01 -0.97868920608E+01 -0.76459080775E+01  0.14458118026E+02  0.10500000000E+00 0. -1.
         13    1    6    6    0    0 -0.16162681062E+02 -0.21290831380E+02 -0.16479975819E+02  0.31402744911E+02  0.10500000000E+00 0.  1.
</event>
<event>
11    0  0.3462209E-009  0.9118800E+02  0.7816531E-02  0.1126479E+00
         25   -1    0    0    0    0  0.00000000000E+00  0.00000000000E+00  0.99999998245E-14  0.12500000000E+03  0.12500000000E+03 0.  0.
    3000001    1    3    3    0    0  0.16393931153E+02 -0.33783618117E+02  0.41408777054E+02  0.55908681337E+02  0.10000000000E+01 0.  1.
    1000022    2    1    0    0    0  0.20693678215E+02 -0.35323851273E+02  0.46154600307E+02  0.62500000018E+02  0.10000004294E+02 0.  0.
    3000022    2    3    3    0    0  0.42997470626E+01 -0.15402331559E+01  0.47458232533E+01  0.65913186811E+01  0.25000125546E+00 0.  0.
    1000022    2    1    0    0    0 -0.20693678215E+02  0.35323851273E+02 -0.46154600307E+02  0.62499999982E+02  0.10000004071E+02 0.  0.
    3000022    2    5    5    0    0 -0.21556196800E+00  0.27666637090E+01 -0.73241374432E+01  0.78362226397E+01  0.25000186055E+00 0.  0.
        -13    1    4    4    0    0  0.27703882948E+01 -0.93307576510E+00  0.30117322319E+01  0.41984804065E+01  0.10500000000E+00 0.  1.
         13    1    4    4    0    0  0.15293587678E+01 -0.60715739082E+00  0.17340910214E+01  0.23928382746E+01  0.10500000000E+00 0. -1.
    3000001    1    5    5    0    0 -0.20478116248E+02  0.32557187564E+02 -0.38830462864E+02  0.54663777342E+02  0.10000000000E+01 0.  1.
        -13    1    6    6    0    0 -0.13795922725E+00  0.10113879905E+01 -0.27124297873E+01  0.29000411664E+01  0.10500000000E+00 0. -1.
         13    1    6    6    0    0 -0.77602740745E-01  0.17552757185E+01 -0.46117076559E+01  0.49361814733E+01  0.10500000000E+00 0.  1.
</event>
<event>
11    0  0.3462209E-009  0.9118800E+02  0.7816531E-02  0.1126479E+00
         25   -1    0    0    0    0  0.00000000000E+00  0.00000000000E+00  0.99999998245E-14  0.12500000000E+03  0.12500000000E+03 0.  0.
    3000001    1    3    3    0    0  0.10549534596E+02 -0.11917878654E+02  0.13899683785E+02  0.21154898277E+02  0.10000000000E+01 0. -1.
    1000022    2    1    0    0    0  0.28976210084E+02 -0.24075912707E+02  0.48856718550E+02  0.62499994012E+02  0.99999990235E+01 0.  0.
    3000022    2    3    3    0    0  0.18426675489E+02 -0.12158034053E+02  0.34957034765E+02  0.41345095734E+02  0.25000027109E+00 0.  0.
    1000022    2    1    0    0    0 -0.28976210084E+02  0.24075912707E+02 -0.48856718550E+02  0.62500005988E+02  0.10000073879E+02 0.  0.
    3000022    2    5    5    0    0 -0.10798911410E+02  0.32535613217E+01 -0.15431616457E+02  0.19115424001E+02  0.24999870376E+00 0.  0.
        -13    1    4    4    0    0  0.46647886570E+01 -0.30958500129E+01  0.88211939082E+01  0.10448398321E+02  0.10500000000E+00 0. -1.
         13    1    4    4    0    0  0.13761886832E+02 -0.90621840397E+01  0.26135840857E+02  0.30896697413E+02  0.10500000000E+00 0.  1.
    3000001    1    5    5    0    0 -0.18177298675E+02  0.20822351385E+02 -0.33425102093E+02  0.43384581987E+02  0.10000000000E+01 0. -1.
        -13    1    6    6    0    0 -0.77537264634E+01  0.23772894986E+01 -0.11106131528E+02  0.13752416586E+02  0.10500000000E+00 0. -1.
         13    1    6    6    0    0 -0.30451849464E+01  0.87627182314E+00 -0.43254849294E+01  0.53630074156E+01  0.10500000000E+00 0.  1.
</event>
<event>
11    0  0.3462209E-009  0.9118800E+02  0.7816531E-02  0.1126479E+00
         25   -1    0    0    0    0  0.00000000000E+00  0.00000000000E+00  0.99999998245E-14  0.12500000000E+03  0.12500000000E+03 0.  0.
    3000001    1    3    3    0    0  0.13312937792E+02 -0.16038942127E+02  0.31906751581E+02  0.38125093753E+02  0.10000000000E+01 0.  1.
    1000022    2    1    0    0    0  0.25728639374E+02 -0.30645957490E+02  0.46958629352E+02  0.62500000283E+02  0.99999785070E+01 0.  0.
    3000022    2    3    3    0    0  0.12415701582E+02 -0.14607015363E+02  0.15051877771E+02  0.24374906530E+02  0.25000058944E+00 0.  0.
    1000022    2    1    0    0    0 -0.25728639374E+02  0.30645957490E+02 -0.46958629352E+02  0.62499999717E+02  0.99999749755E+01 0.  0.
    3000022    2    5    5    0    0 -0.90974279645E+01  0.18435822232E+02 -0.22258775043E+02  0.30301127084E+02  0.24999841021E+00 0.  0.
        -13    1    4    4    0    0  0.31181681573E+01 -0.36842349803E+01  0.37579668658E+01  0.61179980396E+01  0.10500000000E+00 0. -1.
         13    1    4    4    0    0  0.92975334249E+01 -0.10922780383E+02  0.11293910905E+02  0.18256908490E+02  0.10500000000E+00 0.  1.
    3000001    1    5    5    0    0 -0.16631211409E+02  0.12210135258E+02 -0.24699854309E+02  0.32198872633E+02  0.10000000000E+01 0. -1.
        -13    1    6    6    0    0 -0.51742327648E+01  0.10556343929E+02 -0.12643784959E+02  0.17265150012E+02  0.10500000000E+00 0. -1.
         13    1    6    6    0    0 -0.39231951997E+01  0.78794783027E+01 -0.96149900840E+01  0.13035977072E+02  0.10500000000E+00 0.  1.
</event>
<event>
11    0  0.3462209E-009  0.9118800E+02  0.7816531E-02  0.1126479E+00
         25   -1    0    0    0    0  0.00000000000E+00  0.00000000000E+00  0.99999998245E-14  0.12500000000E+03  0.12500000000E+03 0.  0.
    3000001    1    3    3    0    0 -0.23585206953E+02 -0.16257273042E+02  0.74615006294E+01  0.29618151621E+02  0.10000000000E+01 0. -1.
    1000022    2    1    0    0    0 -0.54655186108E+02 -0.25570138225E+02  0.12854126829E+02  0.62500000651E+02  0.10000008375E+02 0.  0.
    3000022    2    3    3    0    0 -0.31069979155E+02 -0.93128651834E+01  0.53926261991E+01  0.32881849031E+02  0.25003145450E+00 0.  0.
    1000022    2    1    0    0    0  0.54655186108E+02  0.25570138225E+02 -0.12854126829E+02  0.62499999349E+02  0.10000000234E+02 0.  0.
    3000022    2    5    5    0    0  0.10310183932E+02  0.83357628840E+00 -0.14518446308E+01  0.10448210198E+02  0.25000274338E+00 0.  0.
        -13    1    4    4    0    0 -0.16591454787E+02 -0.50426926179E+01  0.28736648018E+01  0.17577658979E+02  0.10500000000E+00 0.  1.
         13    1    4    4    0    0 -0.14478524368E+02 -0.42701725655E+01  0.25189613973E+01  0.15304190051E+02  0.10500000000E+00 0. -1.
    3000001    1    5    5    0    0  0.44345002176E+02  0.24736561937E+02 -0.11402282198E+02  0.52051789151E+02  0.10000000000E+01 0.  1.
        -13    1    6    6    0    0  0.43411461789E+01  0.40871814474E+00 -0.64237770707E+00  0.44086590691E+01  0.10500000000E+00 0. -1.
         13    1    6    6    0    0  0.59690377529E+01  0.42485814366E+00 -0.80946692378E+00  0.60395511289E+01  0.10500000000E+00 0.  1.
</event>
<event>
11    0  0.3462209E-009  0.9118800E+02  0.7816531E-02  0.1126479E+00
         25   -1    0    0    0    0  0.00000000000E+00  0.00000000000E+00  0.99999998245E-14  0.12500000000E+03  0.12500000000E+03 0.  0.
    3000001    1    3    3    0    0 -0.33439331911E+02  0.26848676729E+02 -0.11708634227E+02  0.44464957845E+02  0.10000000000E+01 0.  1.
    1000022    2    1    0    0    0 -0.46975141871E+02  0.33793598312E+02 -0.21391111947E+02  0.62500006021E+02  0.99999920786E+01 0.  0.
    3000022    2    3    3    0    0 -0.13535809960E+02  0.69449215838E+01 -0.96824777198E+01  0.18035048176E+02  0.25000162852E+00 0.  0.
    1000022    2    1    0    0    0  0.46975141871E+02 -0.33793598312E+02  0.21391111947E+02  0.62499993979E+02  0.99999168206E+01 0.  0.
    3000022    2    5    5    0    0  0.41934300542E+02 -0.27572236142E+02  0.15559804786E+02  0.52544112715E+02  0.24997632739E+00 0.  0.
        -13    1    4    4    0    0 -0.73783346673E+01  0.38586485751E+01 -0.53174587268E+01  0.98800497772E+01  0.10500000000E+00 0.  1.
         13    1    4    4    0    0 -0.61574752929E+01  0.30862730088E+01 -0.43650189930E+01  0.81549983983E+01  0.10500000000E+00 0. -1.
    3000001    1    5    5    0    0  0.50408413288E+01 -0.62213621701E+01  0.58313071605E+01  0.99558812645E+01  0.10000000000E+01 0.  1.
        -13    1    6    6    0    0  0.24704966939E+02 -0.16294291542E+02  0.92257434447E+01  0.30999430566E+02  0.10500000000E+00 0.  1.
         13    1    6    6    0    0  0.17229333603E+02 -0.11277944600E+02  0.63340613414E+01  0.21544682149E+02  0.10500000000E+00 0. -1.
</event>
<event>
11    0  0.3462209E-009  0.9118800E+02  0.7816531E-02  0.1126479E+00
         25   -1    0    0    0    0  0.00000000000E+00  0.00000000000E+00  0.99999998245E-14  0.12500000000E+03  0.12500000000E+03 0.  0.
    3000001    1    3    3    0    0 -0.20975792340E+02  0.18565427154E+02  0.25565560536E+02  0.37937538602E+02  0.10000000000E+01 0.  1.
    1000022    2    1    0    0    0 -0.39152773469E+02  0.31620677543E+02  0.35685334559E+02  0.62500000314E+02  0.10000000903E+02 0.  0.
    3000022    2    3    3    0    0 -0.18176981129E+02  0.13055250389E+02  0.10119774023E+02  0.24562461711E+02  0.24998672773E+00 0.  0.
    1000022    2    1    0    0    0  0.39152773469E+02 -0.31620677543E+02 -0.35685334559E+02  0.62499999686E+02  0.99999969805E+01 0.  0.
    3000022    2    5    5    0    0  0.38736653555E+01 -0.23072141413E+01 -0.23721396021E+00  0.45218670856E+01  0.24998219223E+00 0.  0.
        -13    1    4    4    0    0 -0.62099106072E+01  0.44818847081E+01  0.35205620708E+01  0.84294520925E+01  0.10500000000E+00 0.  1.
         13    1    4    4    0    0 -0.11967070522E+02  0.85733656809E+01  0.65992119522E+01  0.16133009619E+02  0.10500000000E+00 0. -1.
    3000001    1    5    5    0    0  0.35279108114E+02 -0.29313463402E+02 -0.35448120598E+02  0.57978132601E+02  0.10000000000E+01 0.  1.
        -13    1    6    6    0    0  0.22904930605E+01 -0.13305846554E+01 -0.81906114099E-01  0.26522721574E+01  0.10500000000E+00 0. -1.
         13    1    6    6    0    0  0.15831722950E+01 -0.97662948588E+00 -0.15530784611E+00  0.18695949282E+01  0.10500000000E+00 0.  1.
</event>
<event>
11    0  0.3462209E-009  0.9118800E+02  0.7816531E-02  0.1126479E+00
         25   -1    0    0    0    0  0.00000000000E+00  0.00000000000E+00  0.99999998245E-14  0.12500000000E+03  0.12500000000E+03 0.  0.
    3000001    1    3    3    0    0  0.14737235675E+02  0.46066390126E+01  0.33504315679E+02  0.36904558085E+02  0.10000000000E+01 0. -1.
    1000022    2    1    0    0    0  0.31759729092E+02  0.87374822567E+01  0.52165371431E+02  0.62500000039E+02  0.10000002007E+02 0.  0.
    3000022    2    3    3    0    0  0.17022493417E+02  0.41308432441E+01  0.18661055752E+02  0.25595441954E+02  0.24999799279E+00 0.  0.
    1000022    2    1    0    0    0 -0.31759729092E+02 -0.87374822567E+01 -0.52165371431E+02  0.62499999961E+02  0.10000001516E+02 0.  0.
    3000022    2    5    5    0    0 -0.11626484854E+02  0.21060629829E-01 -0.24879348634E+02  0.27463067487E+02  0.24998749957E+00 0.  0.
        -13    1    4    4    0    0  0.77803267783E+01  0.19477299892E+01  0.84953958337E+01  0.11683745643E+02  0.10500000000E+00 0. -1.
         13    1    4    4    0    0  0.92421666385E+01  0.21831132549E+01  0.10165659918E+02  0.13911696310E+02  0.10500000000E+00 0.  1.
    3000001    1    5    5    0    0 -0.20133244238E+02 -0.87585428865E+01 -0.27286022798E+02  0.35036932474E+02  0.10000000000E+01 0. -1.
        -13    1    6    6    0    0 -0.42842491246E+01  0.39854747040E-01 -0.90516410923E+01  0.10014969317E+02  0.10500000000E+00 0. -1.
         13    1    6    6    0    0 -0.73422357291E+01 -0.18794117211E-01 -0.15827707542E+02  0.17448098170E+02  0.10500000000E+00 0.  1.
</event>
<event>
11    0  0.3462209E-009  0.9118800E+02  0.7816531E-02  0.1126479E+00
         25   -1    0    0    0    0  0.00000000000E+00  0.00000000000E+00  0.99999998245E-14  0.12500000000E+03  0.12500000000E+03 0.  0.
    3000001    1    3    3    0    0 -0.17587449088E+02  0.12475623208E+02 -0.35090824323E+01  0.21869458141E+02  0.10000000000E+01 0.  1.
    1000022    2    1    0    0    0 -0.48477943169E+02  0.30861085659E+02 -0.22443986616E+02  0.62500000238E+02  0.99999956317E+01 0.  0.
    3000022    2    3    3    0    0 -0.30890494081E+02  0.18385462450E+02 -0.18934904184E+02  0.40630542098E+02  0.25000119966E+00 0.  0.
    1000022    2    1    0    0    0  0.48477943169E+02 -0.30861085659E+02  0.22443986616E+02  0.62499999762E+02  0.99999926530E+01 0.  0.
    3000022    2    5    5    0    0  0.13213141381E+02 -0.13729021151E+02  0.60599625254E+01  0.19996469028E+02  0.25000171025E+00 0.  0.
        -13    1    4    4    0    0 -0.14705229996E+02  0.88211227760E+01 -0.89954703134E+01  0.19364542531E+02  0.10500000000E+00 0. -1.
         13    1    4    4    0    0 -0.16185264085E+02  0.95643396742E+01 -0.99394338702E+01  0.21265999567E+02  0.10500000000E+00 0.  1.
    3000001    1    5    5    0    0  0.35264801788E+02 -0.17132064508E+02  0.16384024091E+02  0.42503530734E+02  0.10000000000E+01 0.  1.
        -13    1    6    6    0    0  0.71924482706E+01 -0.75694862752E+01  0.33185626182E+01  0.10956838844E+02  0.10500000000E+00 0. -1.
         13    1    6    6    0    0  0.60206931104E+01 -0.61595348755E+01  0.27413999071E+01  0.90396301840E+01  0.10500000000E+00 0.  1.
</event>
<event>
11    0  0.3462209E-009  0.9118800E+02  0.7816531E-02  0.1126479E+00
         25   -1    0    0    0    0  0.00000000000E+00  0.00000000000E+00  0.99999998245E-14  0.12500000000E+03  0.12500000000E+03 0.  0.
    3000001    1    3    3    0    0 -0.11772248343E+01 -0.36308889210E+02 -0.18155140916E+02  0.40624259201E+02  0.10000000000E+01 0. -1.
    1000022    2    1    0    0    0  0.46905787938E+01 -0.53564434215E+02 -0.30250619146E+02  0.62500000258E+02  0.99999965706E+01 0.  0.
    3000022    2    3    3    0    0  0.58678036281E+01 -0.17255545004E+02 -0.12095478231E+02  0.21875741057E+02  0.25000069891E+00 0.  0.
    1000022    2    1    0    0    0 -0.46905787938E+01  0.53564434215E+02  0.30250619146E+02  0.62499999742E+02  0.99999933405E+01 0.  0.
    3000022    2    5    5    0    0 -0.65865266033E+01  0.39319017899E+02  0.25525874973E+02  0.47339204525E+02  0.24998131586E+00 0.  0.
        -13    1    4    4    0    0  0.27070187852E+01 -0.77701347255E+01 -0.54289063438E+01  0.98583463849E+01  0.10500000000E+00 0. -1.
         13    1    4    4    0    0  0.31607848429E+01 -0.94854102787E+01 -0.66665718869E+01  0.12017394672E+02  0.10500000000E+00 0.  1.
    3000001    1    5    5    0    0  0.18959478095E+01  0.14245416316E+02  0.47247441730E+01  0.15160795217E+02  0.10000000000E+01 0. -1.
        -13    1    6    6    0    0 -0.21767704286E+01  0.13162569360E+02  0.85969622944E+01  0.15871683822E+02  0.10500000000E+00 0. -1.
         13    1    6    6    0    0 -0.44097561747E+01  0.26156448539E+02  0.16928912679E+02  0.31467520703E+02  0.10500000000E+00 0.  1.
</event>
<event>
11    0  0.3462209E-009  0.9118800E+02  0.7816531E-02  0.1126479E+00
         25   -1    0    0    0    0  0.00000000000E+00  0.00000000000E+00  0.99999998245E-14  0.12500000000E+03  0.12500000000E+03 0.  0.
    3000001    1    3    3    0    0  0.28318032943E+02 -0.24439654208E+02  0.40181500525E+01  0.37634468476E+02  0.10000000000E+01 0.  1.
    1000022    2    1    0    0    0  0.40825309056E+02 -0.45574094404E+02  0.79086034272E+01  0.62500000018E+02  0.10000002693E+02 0.  0.
    3000022    2    3    3    0    0  0.12507276112E+02 -0.21134440196E+02  0.38904533748E+01  0.24865531543E+02  0.25002658169E+00 0.  0.
    1000022    2    1    0    0    0 -0.40825309056E+02  0.45574094404E+02 -0.79086034272E+01  0.62499999982E+02  0.10000002464E+02 0.  0.
    3000022    2    5    5    0    0 -0.17345155115E+02  0.25844784777E+02 -0.64014108240E+01  0.31778103604E+02  0.25000410981E+00 0.  0.
        -13    1    4    4    0    0  0.29489231468E+01 -0.49753683665E+01  0.90148046734E+00  0.58544111695E+01  0.10500000000E+00 0. -1.
         13    1    4    4    0    0  0.95583529653E+01 -0.16159071829E+02  0.29889729074E+01  0.19011120373E+02  0.10500000000E+00 0.  1.
    3000001    1    5    5    0    0 -0.23480153941E+02  0.19729309628E+02 -0.15071926033E+01  0.30721896377E+02  0.10000000000E+01 0.  1.
        -13    1    6    6    0    0 -0.10392750026E+02  0.15583211809E+02 -0.38842897247E+01  0.19129675247E+02  0.10500000000E+00 0. -1.
         13    1    6    6    0    0 -0.69524050889E+01  0.10261572968E+02 -0.25171210993E+01  0.12648428358E+02  0.10500000000E+00 0.  1.
</event>
<event>
11    0  0.3462209E-009  0.9118800E+02  0.7816531E-02  0.1126479E+00
         25   -1    0    0    0    0  0.00000000000E+00  0.00000000000E+00  0.99999998245E-14  0.12500000000E+03  0.12500000000E+03 0.  0.
    3000001    1    3    3    0    0  0.51987796710E+01 -0.27636578146E+01 -0.35963409400E+01  0.69712827185E+01  0.10000000000E+01 0. -1.
    1000022    2    1    0    0    0  0.36018299787E+02 -0.46076695995E+02 -0.19643578772E+02  0.62499999896E+02  0.99999983369E+01 0.  0.
    3000022    2    3    3    0    0  0.30819520116E+02 -0.43313038180E+02 -0.16047237832E+02  0.55528717178E+02  0.24998562151E+00 0.  0.
    1000022    2    1    0    0    0 -0.36018299787E+02  0.46076695995E+02  0.19643578772E+02  0.62500000104E+02  0.99999996327E+01 0.  0.
    3000022    2    5    5    0    0 -0.17422309414E+02  0.14562991379E+02  0.82953902677E+01  0.24176302227E+02  0.25001297338E+00 0.  0.
        -13    1    4    4    0    0  0.16723878090E+02 -0.23616060827E+02 -0.87505279963E+01  0.30232254176E+02  0.10500000000E+00 0.  1.
         13    1    4    4    0    0  0.14095642025E+02 -0.19696977353E+02 -0.72967098353E+01  0.25296463001E+02  0.10500000000E+00 0. -1.
    3000001    1    5    5    0    0 -0.18595990373E+02  0.31513704616E+02  0.11348188504E+02  0.38323697876E+02  0.10000000000E+01 0. -1.
        -13    1    6    6    0    0 -0.85031365558E+01  0.70380761792E+01  0.39879275535E+01  0.11736798489E+02  0.10500000000E+00 0.  1.
         13    1    6    6    0    0 -0.89191728582E+01  0.75249151995E+01  0.43074627141E+01  0.12439503739E+02  0.10500000000E+00 0.  1.
</event>
<event>
11    0  0.3462209E-009  0.9118800E+02  0.7816531E-02  0.1126479E+00
         25   -1    0    0    0    0  0.00000000000E+00  0.00000000000E+00  0.99999998245E-14  0.12500000000E+03  0.12500000000E+03 0.  0.
    3000001    1    3    3    0    0  0.16762856921E+02 -0.23078374508E+02  0.10469210088E+02  0.30400807588E+02  0.10000000000E+01 0.  1.
    1000022    2    1    0    0    0  0.41655036040E+02 -0.42473120555E+02  0.16344484280E+02  0.62499999225E+02  0.99999869782E+01 0.  0.
    3000022    2    3    3    0    0  0.24892179119E+02 -0.19394746046E+02  0.58752741920E+01  0.32099191637E+02  0.25000287745E+00 0.  0.
    1000022    2    1    0    0    0 -0.41655036040E+02  0.42473120555E+02 -0.16344484280E+02  0.62500000775E+02  0.99999966672E+01 0.  0.
    3000022    2    5    5    0    0 -0.87977448422E+01  0.65912923541E+01  0.49131112132E+00  0.11006785817E+02  0.24999641140E+00 0.  0.
        -13    1    4    4    0    0  0.15648054796E+02 -0.12117406564E+02  0.36741190992E+01  0.20129663109E+02  0.10500000000E+00 0. -1.
         13    1    4    4    0    0  0.92441243230E+01 -0.72773394827E+01  0.22011550928E+01  0.11969528528E+02  0.10500000000E+00 0.  1.
    3000001    1    5    5    0    0 -0.32857291198E+02  0.35881828201E+02 -0.16835795401E+02  0.51493214958E+02  0.10000000000E+01 0. -1.
        -13    1    6    6    0    0 -0.28644796093E+01  0.20951699420E+01  0.18996426305E+00  0.35555719566E+01  0.10500000000E+00 0.  1.
         13    1    6    6    0    0 -0.59332652329E+01  0.44961224121E+01  0.30134685828E+00  0.74512138607E+01  0.10500000000E+00 0. -1.
</event>
<event>
11    0  0.3462209E-009  0.9118800E+02  0.7816531E-02  0.1126479E+00
         25   -1    0    0    0    0  0.00000000000E+00  0.00000000000E+00  0.99999998245E-14  0.12500000000E+03  0.12500000000E+03 0.  0.
    3000001    1    3    3    0    0 -0.21779592724E+02  0.98409334488E+01  0.16753722876E+02  0.29204141155E+02  0.10000000000E+01 0. -1.
    1000022    2    1    0    0    0 -0.52139295091E+02  0.18675555046E+02  0.27183963089E+02  0.62500003872E+02  0.10000009297E+02 0.  0.
    3000022    2    3    3    0    0 -0.30359702367E+02  0.88346215977E+01  0.10430240214E+02  0.33295862718E+02  0.24999328367E+00 0.  0.
    1000022    2    1    0    0    0  0.52139295091E+02 -0.18675555046E+02 -0.27183963089E+02  0.62499996128E+02  0.99999608932E+01 0.  0.
    3000022    2    5    5    0    0  0.11826957907E+02 -0.46872246993E+00 -0.79192038450E+01  0.14243346530E+02  0.24999347508E+00 0.  0.
        -13    1    4    4    0    0 -0.16100446179E+02  0.46941345015E+01  0.54618143810E+01  0.17638075496E+02  0.10500000000E+00 0.  1.
         13    1    4    4    0    0 -0.14259256188E+02  0.41404870962E+01  0.49684258326E+01  0.15657787221E+02  0.10500000000E+00 0. -1.
    3000001    1    5    5    0    0  0.40312337183E+02 -0.18206832577E+02 -0.19264759245E+02  0.48256649598E+02  0.10000000000E+01 0.  1.
        -13    1    6    6    0    0  0.51585674600E+01 -0.25191860492E+00 -0.35106781039E+01  0.62458119546E+01  0.10500000000E+00 0.  1.
         13    1    6    6    0    0  0.66683904473E+01 -0.21680386502E+00 -0.44085257411E+01  0.79975345753E+01  0.10500000000E+00 0. -1.
</event>
<event>
11    0  0.3462209E-009  0.9118800E+02  0.7816531E-02  0.1126479E+00
         25   -1    0    0    0    0  0.00000000000E+00  0.00000000000E+00  0.99999998245E-14  0.12500000000E+03  0.12500000000E+03 0.  0.
    3000001    1    3    3    0    0  0.45164624472E+02  0.19997450048E+02 -0.19937727234E+02  0.53275268928E+02  0.10000000000E+01 0.  1.
    1000022    2    1    0    0    0  0.51599448275E+02  0.26518314771E+02 -0.20988705070E+02  0.62500001066E+02  0.10000015613E+02 0.  0.
    3000022    2    3    3    0    0  0.64348238031E+01  0.65208647226E+01 -0.10509778359E+01  0.92247321384E+01  0.24998901395E+00 0.  0.
    1000022    2    1    0    0    0 -0.51599448275E+02 -0.26518314771E+02  0.20988705070E+02  0.62499998934E+02  0.10000002282E+02 0.  0.
    3000022    2    5    5    0    0 -0.28740690316E+02 -0.17078616295E+02  0.16728569468E+02  0.37384675362E+02  0.25000225596E+00 0.  0.
        -13    1    4    4    0    0  0.40148514237E+01  0.41519474084E+01 -0.65217631680E+00  0.58132657074E+01  0.10500000000E+00 0.  1.
         13    1    4    4    0    0  0.24199723794E+01  0.23689173142E+01 -0.39880151905E+00  0.34114664310E+01  0.10500000000E+00 0. -1.
    3000001    1    5    5    0    0 -0.22858757959E+02 -0.94396984763E+01  0.42601356019E+01  0.25115323571E+02  0.10000000000E+01 0. -1.
        -13    1    6    6    0    0 -0.20553285675E+02 -0.12210035511E+02  0.12008129969E+02  0.26753106915E+02  0.10500000000E+00 0.  1.
         13    1    6    6    0    0 -0.81874046407E+01 -0.48685807838E+01  0.47204394985E+01  0.10631568448E+02  0.10500000000E+00 0. -1.
</event>
<event>
11    0  0.3462209E-009  0.9118800E+02  0.7816531E-02  0.1126479E+00
         25   -1    0    0    0    0  0.00000000000E+00  0.00000000000E+00  0.99999998245E-14  0.12500000000E+03  0.12500000000E+03 0.  0.
    3000001    1    3    3    0    0  0.28788402120E+02  0.23817910753E+02 -0.16495819881E+02  0.40855563181E+02  0.10000000000E+01 0.  1.
    1000022    2    1    0    0    0  0.47351217063E+02  0.34642172880E+02 -0.19079645790E+02  0.62499994444E+02  0.99999261409E+01 0.  0.
    3000022    2    3    3    0    0  0.18562814943E+02  0.10824262127E+02 -0.25838259092E+01  0.21644431263E+02  0.24999836752E+00 0.  0.
    1000022    2    1    0    0    0 -0.47351217063E+02 -0.34642172880E+02  0.19079645790E+02  0.62500005556E+02  0.99999955889E+01 0.  0.
    3000022    2    5    5    0    0 -0.20197362566E+02 -0.17267879759E+02  0.13364893561E+02  0.29745520847E+02  0.25000910674E+00 0.  0.
        -13    1    4    4    0    0  0.79387665266E+01  0.46496656749E+01 -0.11697124182E+01  0.92748399982E+01  0.10500000000E+00 0.  1.
         13    1    4    4    0    0  0.10624048416E+02  0.61745964521E+01 -0.14141134909E+01  0.12369591265E+02  0.10500000000E+00 0. -1.
    3000001    1    5    5    0    0 -0.27153854498E+02 -0.17374293121E+02  0.57147522294E+01  0.32754484709E+02  0.10000000000E+01 0.  1.
        -13    1    6    6    0    0 -0.12776837812E+02 -0.10993711430E+02  0.84490938990E+01  0.18854906210E+02  0.10500000000E+00 0.  1.
         13    1    6    6    0    0 -0.74205247539E+01 -0.62741683290E+01  0.49157996620E+01  0.10890614637E+02  0.10500000000E+00 0. -1.
</event>
<event>
11    0  0.3462209E-009  0.9118800E+02  0.7816531E-02  0.1126479E+00
         25   -1    0    0    0    0  0.00000000000E+00  0.00000000000E+00  0.99999998245E-14  0.12500000000E+03  0.12500000000E+03 0.  0.
    3000001    1    3    3    0    0 -0.41134126868E+01  0.49630251399E+01  0.20555871951E+01  0.68393874863E+01  0.10000000000E+01 0. -1.
    1000022    2    1    0    0    0 -0.18128173013E+02  0.58730564546E+02  0.53235483011E+01  0.62500000750E+02  0.10000002923E+02 0.  0.
    3000022    2    3    3    0    0 -0.14014760327E+02  0.53767539406E+02  0.32679611060E+01  0.55660613263E+02  0.24999645108E+00 0.  0.
    1000022    2    1    0    0    0  0.18128173013E+02 -0.58730564546E+02 -0.53235483011E+01  0.62499999250E+02  0.99999935529E+01 0.  0.
    3000022    2    5    5    0    0  0.12241195612E+02 -0.24344698710E+02 -0.39372625877E+00  0.27253050197E+02  0.24999870967E+00 0.  0.
        -13    1    4    4    0    0 -0.52945673257E+01  0.20164340786E+02  0.12734455062E+01  0.20886976109E+02  0.10500000000E+00 0.  1.
         13    1    4    4    0    0 -0.87201930010E+01  0.33603198620E+02  0.19945155998E+01  0.34773637155E+02  0.10500000000E+00 0. -1.
    3000001    1    5    5    0    0  0.58869774013E+01 -0.34385865836E+02 -0.49298220424E+01  0.35246949054E+02  0.10000000000E+01 0. -1.
        -13    1    6    6    0    0  0.84748204244E+01 -0.16958313614E+02 -0.26913454143E+00  0.18960233128E+02  0.10500000000E+00 0.  1.
         13    1    6    6    0    0  0.37663751879E+01 -0.73863850961E+01 -0.12459171734E+00  0.82928170690E+01  0.10500000000E+00 0. -1.
</event>
<event>
11    0  0.3462209E-009  0.9118800E+02  0.7816531E-02  0.1126479E+00
         25   -1    0    0    0    0  0.00000000000E+00  0.00000000000E+00  0.99999998245E-14  0.12500000000E+03  0.12500000000E+03 0.  0.
    3000001    1    3    3    0    0 -0.22992228375E+02 -0.40810752909E+02 -0.18035235796E+02  0.50203882807E+02  0.10000000000E+01 0.  1.
    1000022    2    1    0    0    0 -0.25580839682E+02 -0.49684972522E+02 -0.26139513348E+02  0.62500000333E+02  0.10000001508E+02 0.  0.
    3000022    2    3    3    0    0 -0.25886113064E+01 -0.88742196137E+01 -0.81042775515E+01  0.12296117526E+02  0.25001867112E+00 0.  0.
    1000022    2    1    0    0    0  0.25580839682E+02  0.49684972522E+02  0.26139513348E+02  0.62499999667E+02  0.99999973488E+01 0.  0.
    3000022    2    5    5    0    0  0.16079788474E+02  0.28124150709E+02  0.20207073439E+02  0.38182663164E+02  0.24999778177E+00 0.  0.
        -13    1    4    4    0    0 -0.76147561543E+00 -0.27643007767E+01 -0.25441615825E+01  0.38347082099E+01  0.10500000000E+00 0. -1.
         13    1    4    4    0    0 -0.18271356910E+01 -0.61099188370E+01 -0.55601159690E+01  0.84614093162E+01  0.10500000000E+00 0.  1.
    3000001    1    5    5    0    0  0.95010512082E+01  0.21560821814E+02  0.59324399090E+01  0.24317336503E+02  0.10000000000E+01 0.  1.
        -13    1    6    6    0    0  0.73970858560E+01  0.12884308757E+02  0.93393705041E+01  0.17548708149E+02  0.10500000000E+00 0.  1.
         13    1    6    6    0    0  0.86827026178E+01  0.15239841952E+02  0.10867702935E+02  0.20633955015E+02  0.10500000000E+00 0. -1.
</event>
<event>
11    0  0.3462209E-009  0.9118800E+02  0.7816531E-02  0.1126479E+00
         25   -1    0    0    0    0  0.00000000000E+00  0.00000000000E+00  0.99999998245E-14  0.12500000000E+03  0.12500000000E+03 0.  0.
    3000001    1    3    3    0    0 -0.26279533739E+02  0.87254564470E+01 -0.47170748883E+02  0.54706736641E+02  0.10000000000E+01 0. -1.
    1000022    2    1    0    0    0 -0.28696898238E+02  0.64844352679E+01 -0.54228130049E+02  0.62500000237E+02  0.10000003591E+02 0.  0.
    3000022    2    3    3    0    0 -0.24173644994E+01 -0.22410211791E+01 -0.70573811659E+01  0.77932635961E+01  0.25000301771E+00 0.  0.
    1000022    2    1    0    0    0  0.28696898238E+02 -0.64844352679E+01  0.54228130049E+02  0.62499999763E+02  0.10000000623E+02 0.  0.
    3000022    2    5    5    0    0  0.27580153685E+02 -0.66315252523E+01  0.45323731100E+02  0.53469104208E+02  0.24999920299E+00 0.  0.
        -13    1    4    4    0    0 -0.86959258166E+00 -0.88143134155E+00 -0.25962672905E+01  0.28783226559E+01  0.10500000000E+00 0. -1.
         13    1    4    4    0    0 -0.15477719178E+01 -0.13595898376E+01 -0.44611138755E+01  0.49149409402E+01  0.10500000000E+00 0.  1.
    3000001    1    5    5    0    0  0.11167445537E+01  0.14708998446E+00  0.89043989493E+01  0.90308955542E+01  0.10000000000E+01 0.  1.
        -13    1    6    6    0    0  0.10583360107E+02 -0.26049390729E+01  0.17380557303E+02  0.20515555461E+02  0.10500000000E+00 0. -1.
         13    1    6    6    0    0  0.16996793578E+02 -0.40265861794E+01  0.27943173797E+02  0.32953548747E+02  0.10500000000E+00 0.  1.
</event>
<event>
11    0  0.3462209E-009  0.9118800E+02  0.7816531E-02  0.1126479E+00
         25   -1    0    0    0    0  0.00000000000E+00  0.00000000000E+00  0.99999998245E-14  0.12500000000E+03  0.12500000000E+03 0.  0.
    3000001    1    3    3    0    0 -0.40139867791E+02  0.32716967077E+02  0.38396697188E+01  0.51936037436E+02  0.10000000000E+01 0.  1.
    1000022    2    1    0    0    0 -0.48284699567E+02  0.37417735435E+02  0.86458491467E+01  0.62500003120E+02  0.10000027261E+02 0.  0.
    3000022    2    3    3    0    0 -0.81448317756E+01  0.47007683588E+01  0.48061794279E+01  0.10563965685E+02  0.25000495151E+00 0.  0.
    1000022    2    1    0    0    0  0.48284699567E+02 -0.37417735435E+02 -0.86458491467E+01  0.62499996880E+02  0.99999882543E+01 0.  0.
    3000022    2    5    5    0    0  0.41922732988E+02 -0.27760449306E+02 -0.65842150357E+01  0.50710674196E+02  0.25000576532E+00 0.  0.
        -13    1    4    4    0    0 -0.51220042493E+01  0.29195860481E+01  0.29555025331E+01  0.65958267446E+01  0.10500000000E+00 0.  1.
         13    1    4    4    0    0 -0.30228275264E+01  0.17811823107E+01  0.18506768948E+01  0.39681389400E+01  0.10500000000E+00 0. -1.
    3000001    1    5    5    0    0  0.63619665789E+01 -0.96572861294E+01 -0.20616341110E+01  0.11789322684E+02  0.10000000000E+01 0.  1.
        -13    1    6    6    0    0  0.21225947198E+02 -0.13979947349E+02 -0.33027193464E+01  0.25630035942E+02  0.10500000000E+00 0. -1.
         13    1    6    6    0    0  0.20696785790E+02 -0.13780501957E+02 -0.32814956894E+01  0.25080638253E+02  0.10500000000E+00 0.  1.
</event>
<event>
11    0  0.3462209E-009  0.9118800E+02  0.7816531E-02  0.1126479E+00
         25   -1    0    0    0    0  0.00000000000E+00  0.00000000000E+00  0.99999998245E-14  0.12500000000E+03  0.12500000000E+03 0.  0.
    3000001    1    3    3    0    0 -0.48181411122E+01 -0.26874097877E+01  0.48007604601E+01  0.73813248228E+01  0.10000000000E+01 0. -1.
    1000022    2    1    0    0    0 -0.21311626893E+02 -0.14584965079E+02  0.56029843060E+02  0.62499999507E+02  0.99999988928E+01 0.  0.
    3000022    2    3    3    0    0 -0.16493485781E+02 -0.11897555292E+02  0.51229082599E+02  0.55118674684E+02  0.24999960836E+00 0.  0.
    1000022    2    1    0    0    0  0.21311626893E+02  0.14584965079E+02 -0.56029843060E+02  0.62500000493E+02  0.10000005058E+02 0.  0.
    3000022    2    5    5    0    0  0.78098934848E+01  0.41119857217E+01 -0.30582456758E+02  0.31831619850E+02  0.24999628039E+00 0.  0.
        -13    1    4    4    0    0 -0.66468302187E+01 -0.48579821542E+01  0.20637860902E+02  0.22219646040E+02  0.10500000000E+00 0. -1.
         13    1    4    4    0    0 -0.98466555625E+01 -0.70395731375E+01  0.30591221698E+02  0.32899028644E+02  0.10500000000E+00 0.  1.
    3000001    1    5    5    0    0  0.13501733408E+02  0.10472979358E+02 -0.25447386302E+02  0.30668380643E+02  0.10000000000E+01 0.  1.
        -13    1    6    6    0    0  0.50640163834E+01  0.26021709768E+01 -0.19692667953E+02  0.20499457354E+02  0.10500000000E+00 0.  1.
         13    1    6    6    0    0  0.27458771014E+01  0.15098147450E+01 -0.10889788805E+02  0.11332162496E+02  0.10500000000E+00 0. -1.
</event>
<event>
11    0  0.3462209E-009  0.9118800E+02  0.7816531E-02  0.1126479E+00
         25   -1    0    0    0    0  0.00000000000E+00  0.00000000000E+00  0.99999998245E-14  0.12500000000E+03  0.12500000000E+03 0.  0.
    3000001    1    3    3    0    0 -0.32933057510E+01 -0.26293651419E+02  0.11711521020E+02  0.28988992606E+02  0.10000000000E+01 0.  1.
    1000022    2    1    0    0    0  0.34331935436E+01 -0.56801323252E+02  0.23834279570E+02  0.62499999880E+02  0.99999980690E+01 0.  0.
    3000022    2    3    3    0    0  0.67264992946E+01 -0.30507671833E+02  0.12122758550E+02  0.33511007275E+02  0.25000053232E+00 0.  0.
    1000022    2    1    0    0    0 -0.34331935436E+01  0.56801323252E+02 -0.23834279570E+02  0.62500000120E+02  0.99999995649E+01 0.  0.
    3000022    2    5    5    0    0 -0.10770373707E+01  0.36585718678E+02 -0.10251452306E+02  0.38010914047E+02  0.24998325060E+00 0.  0.
        -13    1    4    4    0    0  0.25453699551E+01 -0.11268355341E+02  0.44798354122E+01  0.12390911614E+02  0.10500000000E+00 0.  1.
         13    1    4    4    0    0  0.41811293395E+01 -0.19239316492E+02  0.76429231376E+01  0.21120095661E+02  0.10500000000E+00 0. -1.
    3000001    1    5    5    0    0 -0.23561561730E+01  0.20215604574E+02 -0.13582827264E+02  0.24489086073E+02  0.10000000000E+01 0. -1.
        -13    1    6    6    0    0 -0.67959386828E+00  0.24309910598E+02 -0.68530077251E+01  0.25266743775E+02  0.10500000000E+00 0. -1.
         13    1    6    6    0    0 -0.39744350239E+00  0.12275808079E+02 -0.33984445804E+01  0.12744170271E+02  0.10500000000E+00 0.  1.
</event>
<event>
11    0  0.3462209E-009  0.9118800E+02  0.7816531E-02  0.1126479E+00
         25   -1    0    0    0    0  0.00000000000E+00  0.00000000000E+00  0.99999998245E-14  0.12500000000E+03  0.12500000000E+03 0.  0.
    3000001    1    3    3    0    0  0.10629402907E+02 -0.53068278128E+02 -0.27370941016E+02  0.60658014819E+02  0.10000000000E+01 0.  1.
    1000022    2    1    0    0    0  0.10306428074E+02 -0.53395316122E+02 -0.29137050852E+02  0.62500000037E+02  0.10000001442E+02 0.  0.
    3000022    2    3    3    0    0 -0.32297483300E+00 -0.32703799365E+00 -0.17661098365E+01  0.18419852182E+01  0.24999799480E+00 0.  0.
    1000022    2    1    0    0    0 -0.10306428074E+02  0.53395316122E+02  0.29137050852E+02  0.62499999963E+02  0.10000000983E+02 0.  0.
    3000022    2    5    5    0    0 -0.17000643384E+01  0.22472150776E+02  0.74020826760E+01  0.23722164885E+02  0.24999925535E+00 0.  0.
        -13    1    4    4    0    0 -0.24649896311E+00 -0.26316454636E+00 -0.13575733532E+01  0.14085622907E+01  0.10500000000E+00 0. -1.
         13    1    4    4    0    0 -0.76475869893E-01 -0.63873447296E-01 -0.40853648325E+00  0.43342292751E+00  0.10500000000E+00 0.  1.
    3000001    1    5    5    0    0 -0.86063637357E+01  0.30923165346E+02  0.21734968176E+02  0.38777835078E+02  0.10000000000E+01 0. -1.
        -13    1    6    6    0    0 -0.45235615276E+00  0.65045675563E+01  0.21586070220E+01  0.68691072534E+01  0.10500000000E+00 0. -1.
         13    1    6    6    0    0 -0.12477081857E+01  0.15967583220E+02  0.52434756540E+01  0.16853057631E+02  0.10500000000E+00 0.  1.
</event>
<event>
11    0  0.3462209E-009  0.9118800E+02  0.7816531E-02  0.1126479E+00
         25   -1    0    0    0    0  0.00000000000E+00  0.00000000000E+00  0.99999998245E-14  0.12500000000E+03  0.12500000000E+03 0.  0.
    3000001    1    3    3    0    0  0.46550442338E+02 -0.11885620717E+02 -0.24150853018E+02  0.53781738195E+02  0.10000000000E+01 0.  1.
    1000022    2    1    0    0    0  0.54965385217E+02 -0.10528593784E+02 -0.25965459224E+02  0.62499999705E+02  0.10000001566E+02 0.  0.
    3000022    2    3    3    0    0  0.84149428782E+01  0.13570269329E+01 -0.18146062058E+01  0.87182615103E+01  0.25000468093E+00 0.  0.
    1000022    2    1    0    0    0 -0.54965385217E+02  0.10528593784E+02  0.25965459224E+02  0.62500000295E+02  0.10000005256E+02 0.  0.
    3000022    2    5    5    0    0 -0.48548188643E+02  0.11338086919E+02  0.20250046840E+02  0.53810832917E+02  0.25001355014E+00 0.  0.
        -13    1    4    4    0    0  0.44538538839E+01  0.76264446678E+00 -0.90953189816E+00  0.46105004366E+01  0.10500000000E+00 0.  1.
         13    1    4    4    0    0  0.39610889943E+01  0.59438246614E+00 -0.90507430765E+00  0.41077610738E+01  0.10500000000E+00 0. -1.
    3000001    1    5    5    0    0 -0.64171965740E+01 -0.80949313490E+00  0.57154123835E+01  0.86891673777E+01  0.10000000000E+01 0. -1.
        -13    1    6    6    0    0 -0.28314222541E+02  0.66588652103E+01  0.11764562642E+02  0.31375972386E+02  0.10500000000E+00 0.  1.
         13    1    6    6    0    0 -0.20233966101E+02  0.46792217090E+01  0.84854841984E+01  0.22434860532E+02  0.10500000000E+00 0. -1.
</event>
<event>
11    0  0.3462209E-009  0.9118800E+02  0.7816531E-02  0.1126479E+00
         25   -1    0    0    0    0  0.00000000000E+00  0.00000000000E+00  0.99999998245E-14  0.12500000000E+03  0.12500000000E+03 0.  0.
    3000001    1    3    3    0    0 -0.20402190581E+02  0.39520824323E+02 -0.24836060707E+02  0.50950709976E+02  0.10000000000E+01 0.  1.
    1000022    2    1    0    0    0 -0.21438915110E+02  0.47302075270E+02 -0.33303702028E+02  0.62499999479E+02  0.99999980071E+01 0.  0.
    3000022    2    3    3    0    0 -0.10367245298E+01  0.77812509471E+01 -0.84676413212E+01  0.11549289503E+02  0.24994883838E+00 0.  0.
    1000022    2    1    0    0    0  0.21438915110E+02 -0.47302075270E+02  0.33303702028E+02  0.62500000521E+02  0.10000004521E+02 0.  0.
    3000022    2    5    5    0    0  0.21700220869E+02 -0.40530822649E+02  0.27930229987E+02  0.53794120638E+02  0.24999555272E+00 0.  0.
        -13    1    4    4    0    0 -0.75099323151E+00  0.58372281585E+01 -0.63456225782E+01  0.86553552390E+01  0.10500000000E+00 0.  1.
         13    1    4    4    0    0 -0.28573129829E+00  0.19440227886E+01 -0.21220187430E+01  0.28939342638E+01  0.10500000000E+00 0. -1.
    3000001    1    5    5    0    0 -0.26130575838E+00 -0.67712526208E+01  0.53734720411E+01  0.87058798826E+01  0.10000000000E+01 0.  1.
        -13    1    6    6    0    0  0.91997905386E+01 -0.17065954884E+02  0.11738454549E+02  0.22664626673E+02  0.10500000000E+00 0. -1.
         13    1    6    6    0    0  0.12500430330E+02 -0.23464867765E+02  0.16191775438E+02  0.31129493965E+02  0.10500000000E+00 0.  1.
</event>
<event>
11    0  0.3462209E-009  0.9118800E+02  0.7816531E-02  0.1126479E+00
         25   -1    0    0    0    0  0.00000000000E+00  0.00000000000E+00  0.99999998245E-14  0.12500000000E+03  0.12500000000E+03 0.  0.
    3000001    1    3    3    0    0 -0.13196366318E+02  0.16019588448E+01  0.90657333426E+00  0.13361595389E+02  0.10000000000E+01 0.  1.
    1000022    2    1    0    0    0 -0.57941090788E+02  0.18423116310E+02 -0.10472288342E+02  0.62499999147E+02  0.99999927026E+01 0.  0.
    3000022    2    3    3    0    0 -0.44744724470E+02  0.16821157465E+02 -0.11378861676E+02  0.49138403758E+02  0.25004898133E+00 0.  0.
    1000022    2    1    0    0    0  0.57941090788E+02 -0.18423116310E+02  0.10472288342E+02  0.62500000853E+02  0.10000003360E+02 0.  0.
    3000022    2    5    5    0    0  0.33125923473E+02 -0.15615335410E+02  0.61685971158E+01  0.37138653873E+02  0.25003041580E+00 0.  0.
        -13    1    4    4    0    0 -0.16729275955E+02  0.62503195888E+01 -0.42019897863E+01  0.18346741185E+02  0.10500000000E+00 0. -1.
         13    1    4    4    0    0 -0.28015448515E+02  0.10570837876E+02 -0.71768718895E+01  0.30791662573E+02  0.10500000000E+00 0.  1.
    3000001    1    5    5    0    0  0.24815167315E+02 -0.28077808997E+01  0.43036912258E+01  0.25361346980E+02  0.10000000000E+01 0. -1.
        -13    1    6    6    0    0  0.12722441997E+02 -0.59567812541E+01  0.23164180444E+01  0.14237998133E+02  0.10500000000E+00 0.  1.
         13    1    6    6    0    0  0.20403481476E+02 -0.96585541562E+01  0.38521790714E+01  0.22900655740E+02  0.10500000000E+00 0. -1.
</event>
<event>
11    0  0.3462209E-009  0.9118800E+02  0.7816531E-02  0.1126479E+00
         25   -1    0    0    0    0  0.00000000000E+00  0.00000000000E+00  0.99999998245E-14  0.12500000000E+03  0.12500000000E+03 0.  0.
    3000001    1    3    3    0    0 -0.19257749155E+02  0.19175402602E+02  0.17387107401E+02  0.32277987411E+02  0.10000000000E+01 0. -1.
    1000022    2    1    0    0    0 -0.42841656871E+02  0.36024374188E+02  0.25943917395E+02  0.62499999865E+02  0.10000001709E+02 0.  0.
    3000022    2    3    3    0    0 -0.23583907716E+02  0.16848971586E+02  0.85568099937E+01  0.30222012454E+02  0.24998571965E+00 0.  0.
    1000022    2    1    0    0    0  0.42841656871E+02 -0.36024374188E+02 -0.25943917395E+02  0.62500000135E+02  0.10000003396E+02 0.  0.
    3000022    2    5    5    0    0  0.16199397909E+02 -0.18201065181E+02 -0.15000768120E+02  0.28614415845E+02  0.24996729925E+00 0.  0.
        -13    1    4    4    0    0 -0.16313596357E+02  0.11635598748E+02  0.59629143158E+01  0.20906648619E+02  0.10500000000E+00 0. -1.
         13    1    4    4    0    0 -0.72703113589E+01  0.52133728381E+01  0.25938956780E+01  0.93153638357E+01  0.10500000000E+00 0.  1.
    3000001    1    5    5    0    0  0.26642258962E+02 -0.17823309007E+02 -0.10943149276E+02  0.33885584290E+02  0.10000000000E+01 0. -1.
        -13    1    6    6    0    0  0.97837609899E+01 -0.11084883847E+02 -0.90888840118E+01  0.17355560106E+02  0.10500000000E+00 0. -1.
         13    1    6    6    0    0  0.64156369193E+01 -0.71161813334E+01 -0.59118841078E+01  0.11258855739E+02  0.10500000000E+00 0.  1.
</event>
<event>
11    0  0.3462209E-009  0.9118800E+02  0.7816531E-02  0.1126479E+00
         25   -1    0    0    0    0  0.00000000000E+00  0.00000000000E+00  0.99999998245E-14  0.12500000000E+03  0.12500000000E+03 0.  0.
    3000001    1    3    3    0    0 -0.29106043553E+01 -0.28871618762E+02  0.22909806859E+02  0.36985148884E+02  0.10000000000E+01 0.  1.
    1000022    2    1    0    0    0 -0.10486337998E+02 -0.51011525976E+02  0.33077339646E+02  0.62500016276E+02  0.10000128473E+02 0.  0.
    3000022    2    3    3    0    0 -0.75757336425E+01 -0.22139907214E+02  0.10167532787E+02  0.25514867393E+02  0.25000681556E+00 0.  0.
    1000022    2    1    0    0    0  0.10486337998E+02  0.51011525976E+02 -0.33077339646E+02  0.62499983724E+02  0.99999250179E+01 0.  0.
    3000022    2    5    5    0    0  0.98454057559E+01  0.42273563525E+02 -0.31275177725E+02  0.53499396546E+02  0.25000303412E+00 0.  0.
        -13    1    4    4    0    0 -0.50514308230E+01 -0.14596004833E+02  0.67211250259E+01  0.16844727871E+02  0.10500000000E+00 0.  1.
         13    1    4    4    0    0 -0.25243028195E+01 -0.75439023816E+01  0.34464077610E+01  0.86701395215E+01  0.10500000000E+00 0. -1.
    3000001    1    5    5    0    0  0.64093224200E+00  0.87379624517E+01 -0.18021619206E+01  0.90005871772E+01  0.10000000000E+01 0. -1.
        -13    1    6    6    0    0  0.70317531264E+01  0.30177224419E+02 -0.22377581658E+02  0.38221428695E+02  0.10500000000E+00 0. -1.
         13    1    6    6    0    0  0.28136526294E+01  0.12096339106E+02 -0.88975960672E+01  0.15277967851E+02  0.10500000000E+00 0.  1.
</event>
<event>
11    0  0.3462209E-009  0.9118800E+02  0.7816531E-02  0.1126479E+00
         25   -1    0    0    0    0  0.00000000000E+00  0.00000000000E+00  0.99999998245E-14  0.12500000000E+03  0.12500000000E+03 0.  0.
    3000001    1    3    3    0    0  0.38682203382E+02 -0.88292134534E+01  0.15019185351E+01  0.39718051664E+02  0.10000000000E+01 0. -1.
    1000022    2    1    0    0    0  0.60710541127E+02 -0.82186972929E+01  0.72754907436E+01  0.62499996916E+02  0.10000002995E+02 0.  0.
    3000022    2    3    3    0    0  0.22028337744E+02  0.61051616042E+00  0.57735722085E+01  0.22781945252E+02  0.24999932340E+00 0.  0.
    1000022    2    1    0    0    0 -0.60710541127E+02  0.82186972929E+01 -0.72754907436E+01  0.62500003084E+02  0.10000041542E+02 0.  0.
    3000022    2    5    5    0    0 -0.39537039515E+02  0.58526407657E+00 -0.43268759414E+01  0.39778189722E+02  0.24998910265E+00 0.  0.
        -13    1    4    4    0    0  0.79162358633E+01  0.20836227830E+00  0.20159898511E+01  0.81722362400E+01  0.10500000000E+00 0. -1.
         13    1    4    4    0    0  0.14112101881E+02  0.40215388212E+00  0.37575823574E+01  0.14609709012E+02  0.10500000000E+00 0.  1.
    3000001    1    5    5    0    0 -0.21173501612E+02  0.76334332164E+01 -0.29486148022E+01  0.22721813362E+02  0.10000000000E+01 0. -1.
        -13    1    6    6    0    0 -0.17388065726E+02  0.29857021344E+00 -0.19550515587E+01  0.17500492149E+02  0.10500000000E+00 0.  1.
         13    1    6    6    0    0 -0.22148973788E+02  0.28669386313E+00 -0.23718243826E+01  0.22277697573E+02  0.10500000000E+00 0. -1.
</event>
<event>
11    0  0.3462209E-009  0.9118800E+02  0.7816531E-02  0.1126479E+00
         25   -1    0    0    0    0  0.00000000000E+00  0.00000000000E+00  0.99999998245E-14  0.12500000000E+03  0.12500000000E+03 0.  0.
    3000001    1    3    3    0    0 -0.48259914154E+01  0.48229153505E+01  0.11509408469E+02  0.13417048443E+02  0.10000000000E+01 0. -1.
    1000022    2    1    0    0    0 -0.57968235050E+01  0.16255163752E+02  0.59231886672E+02  0.62500001171E+02  0.10000011816E+02 0.  0.
    3000022    2    3    3    0    0 -0.97083208954E+00  0.11432248402E+02  0.47722478203E+02  0.49082952728E+02  0.25000841672E+00 0.  0.
    1000022    2    1    0    0    0  0.57968235050E+01 -0.16255163752E+02 -0.59231886672E+02  0.62499998829E+02  0.99999971783E+01 0.  0.
    3000022    2    5    5    0    0 -0.24218131873E+01 -0.52485431083E+01 -0.12372172824E+02  0.13658167691E+02  0.25000079603E+00 0.  0.
        -13    1    4    4    0    0 -0.27007618764E+00  0.35688227809E+01  0.14735406361E+02  0.15164190147E+02  0.10500000000E+00 0. -1.
         13    1    4    4    0    0 -0.70075590190E+00  0.78634256209E+01  0.32987071842E+02  0.33918762581E+02  0.10500000000E+00 0.  1.
    3000001    1    5    5    0    0  0.82186366923E+01 -0.11006620644E+02 -0.46859713847E+02  0.48841831138E+02  0.10000000000E+01 0.  1.
        -13    1    6    6    0    0 -0.64291217137E+00 -0.13253720484E+01 -0.31433075704E+01  0.34729460993E+01  0.10500000000E+00 0.  1.
         13    1    6    6    0    0 -0.17789010160E+01 -0.39231710598E+01 -0.92288652541E+01  0.10185221591E+02  0.10500000000E+00 0. -1.
</event>
<event>
11    0  0.3462209E-009  0.9118800E+02  0.7816531E-02  0.1126479E+00
         25   -1    0    0    0    0  0.00000000000E+00  0.00000000000E+00  0.99999998245E-14  0.12500000000E+03  0.12500000000E+03 0.  0.
    3000001    1    3    3    0    0  0.74155603565E+00  0.10016972310E+01  0.14348727544E+01  0.21475945888E+01  0.10000000000E+01 0.  1.
    1000022    2    1    0    0    0  0.53229002045E+02 -0.46659496699E+00  0.31188232552E+02  0.62499999589E+02  0.99999864724E+01 0.  0.
    3000022    2    3    3    0    0  0.52487446009E+02 -0.14682921980E+01  0.29753359797E+02  0.60352405001E+02  0.24999921298E+00 0.  0.
    1000022    2    1    0    0    0 -0.53229002045E+02  0.46659496699E+00 -0.31188232552E+02  0.62500000411E+02  0.99999916046E+01 0.  0.
    3000022    2    5    5    0    0 -0.19117540810E+02 -0.32580993148E+01 -0.75140477226E+01  0.20799494870E+02  0.24999177001E+00 0.  0.
        -13    1    4    4    0    0  0.13997615685E+02 -0.38953697710E+00  0.79746098024E+01  0.16114912672E+02  0.10500000000E+00 0. -1.
         13    1    4    4    0    0  0.38489830324E+02 -0.10787552209E+01  0.21778749995E+02  0.44237492329E+02  0.10500000000E+00 0.  1.
    3000001    1    5    5    0    0 -0.34111461235E+02  0.37246942818E+01 -0.23674184829E+02  0.41700505541E+02  0.10000000000E+01 0.  1.
        -13    1    6    6    0    0 -0.82240579807E+01 -0.14663273086E+01 -0.32528315122E+01  0.89653323024E+01  0.10500000000E+00 0.  1.
         13    1    6    6    0    0 -0.10893482829E+02 -0.17917720062E+01 -0.42612162105E+01  0.11834162567E+02  0.10500000000E+00 0. -1.
</event>
<event>
11    0  0.3462209E-009  0.9118800E+02  0.7816531E-02  0.1126479E+00
         25   -1    0    0    0    0  0.00000000000E+00  0.00000000000E+00  0.99999998245E-14  0.12500000000E+03  0.12500000000E+03 0.  0.
    3000001    1    3    3    0    0 -0.97551753253E+00  0.17607511168E+01  0.38113290331E+00  0.22797239398E+01  0.10000000000E+01 0.  1.
    1000022    2    1    0    0    0 -0.48352050213E+02  0.18166538707E+02  0.33738793217E+02  0.62500000540E+02  0.10000000569E+02 0.  0.
    3000022    2    3    3    0    0 -0.47376532680E+02  0.16405787590E+02  0.33357660314E+02  0.60220276600E+02  0.24999386510E+00 0.  0.
    1000022    2    1    0    0    0  0.48352050213E+02 -0.18166538707E+02 -0.33738793217E+02  0.62499999460E+02  0.99999938222E+01 0.  0.
    3000022    2    5    5    0    0  0.39475941542E+02 -0.10554187043E+02 -0.26763527890E+02  0.48847617640E+02  0.24999838998E+00 0.  0.
        -13    1    4    4    0    0 -0.19001609482E+02  0.65722207225E+01  0.13302035359E+02  0.24108305993E+02  0.10500000000E+00 0. -1.
         13    1    4    4    0    0 -0.28374923198E+02  0.98335668675E+01  0.20055624954E+02  0.36111970607E+02  0.10500000000E+00 0.  1.
    3000001    1    5    5    0    0  0.88761086704E+01 -0.76123516642E+01 -0.69752653271E+01  0.13652381820E+02  0.10000000000E+01 0. -1.
        -13    1    6    6    0    0  0.24140793433E+02 -0.65181696255E+01 -0.16377857481E+02  0.29891632333E+02  0.10500000000E+00 0.  1.
         13    1    6    6    0    0  0.15335148109E+02 -0.40360174172E+01 -0.10385670409E+02  0.18955985307E+02  0.10500000000E+00 0. -1.
</event>
<event>
11    0  0.3462209E-009  0.9118800E+02  0.7816531E-02  0.1126479E+00
         25   -1    0    0    0    0  0.00000000000E+00  0.00000000000E+00  0.99999998245E-14  0.12500000000E+03  0.12500000000E+03 0.  0.
    3000001    1    3    3    0    0  0.50219275369E+01  0.18778212403E+01  0.36111692947E+01  0.65411399979E+01  0.10000000000E+01 0.  1.
    1000022    2    1    0    0    0  0.60114330282E+02  0.66532966271E+01  0.12175834534E+02  0.62499999823E+02  0.99999985045E+01 0.  0.
    3000022    2    3    3    0    0  0.55092402745E+02  0.47754753867E+01  0.85646652393E+01  0.55958859825E+02  0.24999387809E+00 0.  0.
    1000022    2    1    0    0    0 -0.60114330282E+02 -0.66532966271E+01 -0.12175834534E+02  0.62500000177E+02  0.10000000713E+02 0.  0.
    3000022    2    5    5    0    0 -0.20798846927E+02  0.74977671284E+00 -0.78621789957E+01  0.22249281544E+02  0.24994414967E+00 0.  0.
        -13    1    4    4    0    0  0.25251901994E+02  0.21771258574E+01  0.38587397611E+01  0.25637849537E+02  0.10500000000E+00 0. -1.
         13    1    4    4    0    0  0.29840500751E+02  0.25983495293E+01  0.47059254782E+01  0.30321010289E+02  0.10500000000E+00 0.  1.
    3000001    1    5    5    0    0 -0.39315483355E+02 -0.74030733399E+01 -0.43136555382E+01  0.40250718632E+02  0.10000000000E+01 0.  1.
        -13    1    6    6    0    0 -0.14397261151E+02  0.56624594415E+00 -0.54348411741E+01  0.15399684630E+02  0.10500000000E+00 0. -1.
         13    1    6    6    0    0 -0.64015857754E+01  0.18353076869E+00 -0.24273378216E+01  0.68495969139E+01  0.10500000000E+00 0.  1.
</event>
<event>
11    0  0.3462209E-009  0.9118800E+02  0.7816531E-02  0.1126479E+00
         25   -1    0    0    0    0  0.00000000000E+00  0.00000000000E+00  0.99999998245E-14  0.12500000000E+03  0.12500000000E+03 0.  0.
    3000001    1    3    3    0    0 -0.26182662660E+02 -0.82776596158E-02 -0.13512466799E+02  0.29480818365E+02  0.10000000000E+01 0. -1.
    1000022    2    1    0    0    0 -0.51935134625E+02  0.92294108198E+01 -0.31997028265E+02  0.62499997819E+02  0.99999838519E+01 0.  0.
    3000022    2    3    3    0    0 -0.25752471965E+02  0.92376884794E+01 -0.18484561466E+02  0.33019179454E+02  0.24999698281E+00 0.  0.
    1000022    2    1    0    0    0  0.51935134625E+02 -0.92294108198E+01  0.31997028265E+02  0.62500002181E+02  0.10000011110E+02 0.  0.
    3000022    2    5    5    0    0  0.89846781672E+01 -0.51833330023E+00  0.99948313481E+01  0.13451849813E+02  0.24999708543E+00 0.  0.
        -13    1    4    4    0    0 -0.14277501598E+02  0.51584517383E+01 -0.10324706948E+02  0.18359392004E+02  0.10500000000E+00 0. -1.
         13    1    4    4    0    0 -0.11474970367E+02  0.40792367411E+01 -0.81598545178E+01  0.14659787450E+02  0.10500000000E+00 0.  1.
    3000001    1    5    5    0    0  0.42950456458E+02 -0.87110775196E+01  0.22002196917E+02  0.49048152367E+02  0.10000000000E+01 0. -1.
        -13    1    6    6    0    0  0.44253761576E+01 -0.20149426830E+00  0.48577563427E+01  0.65752091801E+01  0.10500000000E+00 0.  1.
         13    1    6    6    0    0  0.45593020095E+01 -0.31683903193E+00  0.51370750053E+01  0.68766406331E+01  0.10500000000E+00 0. -1.
</event>
<event>
11    0  0.3462209E-009  0.9118800E+02  0.7816531E-02  0.1126479E+00
         25   -1    0    0    0    0  0.00000000000E+00  0.00000000000E+00  0.99999998245E-14  0.12500000000E+03  0.12500000000E+03 0.  0.
    3000001    1    3    3    0    0 -0.94351726344E+01  0.48928398526E+00  0.79624012680E+01  0.12396036278E+02  0.10000000000E+01 0.  1.
    1000022    2    1    0    0    0 -0.36551538140E+02 -0.11484592402E+02  0.48356381301E+02  0.62499999315E+02  0.99999749399E+01 0.  0.
    3000022    2    3    3    0    0 -0.27116365506E+02 -0.11973876387E+02  0.40393980033E+02  0.50103963037E+02  0.24999021627E+00 0.  0.
    1000022    2    1    0    0    0  0.36551538140E+02  0.11484592402E+02 -0.48356381301E+02  0.62500000685E+02  0.99999835048E+01 0.  0.
    3000022    2    5    5    0    0  0.11051353885E+02  0.53779187562E+01 -0.22623943122E+02  0.25748004349E+02  0.24998547403E+00 0.  0.
        -13    1    4    4    0    0 -0.12668650014E+02 -0.55925243129E+01  0.18984848858E+02  0.23499075141E+02  0.10500000000E+00 0.  1.
         13    1    4    4    0    0 -0.14447715492E+02 -0.63813520738E+01  0.21409131175E+02  0.26604887895E+02  0.10500000000E+00 0. -1.
    3000001    1    5    5    0    0  0.25500184255E+02  0.61066736453E+01 -0.25732438179E+02  0.36751996336E+02  0.10000000000E+01 0. -1.
        -13    1    6    6    0    0  0.75160896447E+01  0.36487442721E+01 -0.15272831678E+02  0.17409059445E+02  0.10500000000E+00 0.  1.
         13    1    6    6    0    0  0.35352642405E+01  0.17291744840E+01 -0.73511114444E+01  0.83389449042E+01  0.10500000000E+00 0. -1.
</event>
<event>
11    0  0.3462209E-009  0.9118800E+02  0.7816531E-02  0.1126479E+00
         25   -1    0    0    0    0  0.00000000000E+00  0.00000000000E+00  0.99999998245E-14  0.12500000000E+03  0.12500000000E+03 0.  0.
    3000001    1    3    3    0    0 -0.12240268001E+02  0.53241754233E+02 -0.20736029095E+02  0.58442206129E+02  0.10000000000E+01 0.  1.
    1000022    2    1    0    0    0 -0.10630409604E+02  0.56913705005E+02 -0.21309025701E+02  0.62499999311E+02  0.99999955918E+01 0.  0.
    3000022    2    3    3    0    0  0.16098583972E+01  0.36719507713E+01 -0.57299660572E+00  0.40577931819E+01  0.24998774206E+00 0.  0.
    1000022    2    1    0    0    0  0.10630409604E+02 -0.56913705005E+02  0.21309025701E+02  0.62500000689E+02  0.10000004206E+02 0.  0.
    3000022    2    5    5    0    0  0.29091175153E+01 -0.87675378758E+01 -0.87480268831E-01  0.92413654416E+01  0.24999461175E+00 0.  0.
        -13    1    4    4    0    0  0.11250959505E+01  0.26187042585E+01 -0.44447224058E+00  0.28865261932E+01  0.10500000000E+00 0.  1.
         13    1    4    4    0    0  0.48476244671E+00  0.10532465128E+01 -0.12852436513E+00  0.11712669887E+01  0.10500000000E+00 0. -1.
    3000001    1    5    5    0    0  0.77212920888E+01 -0.48146167129E+02  0.21396505970E+02  0.53258635248E+02  0.10000000000E+01 0.  1.
        -13    1    6    6    0    0  0.14154369676E+01 -0.44578223714E+01 -0.13588885912E-01  0.46783385685E+01  0.10500000000E+00 0. -1.
         13    1    6    6    0    0  0.14936805477E+01 -0.43097155044E+01 -0.73891382919E-01  0.45630268730E+01  0.10500000000E+00 0.  1.
</event>
<event>
11    0  0.3462209E-009  0.9118800E+02  0.7816531E-02  0.1126479E+00
         25   -1    0    0    0    0  0.00000000000E+00  0.00000000000E+00  0.99999998245E-14  0.12500000000E+03  0.12500000000E+03 0.  0.
    3000001    1    3    3    0    0  0.38939520127E+01  0.44602264487E+01  0.47206188691E+01  0.76381100252E+01  0.10000000000E+01 0.  1.
    1000022    2    1    0    0    0  0.20514129253E+02  0.53433384328E+02  0.23028119735E+02  0.62500005346E+02  0.10000015501E+02 0.  0.
    3000022    2    3    3    0    0  0.16620177240E+02  0.48973157879E+02  0.18307500866E+02  0.54861895321E+02  0.24997221488E+00 0.  0.
    1000022    2    1    0    0    0 -0.20514129253E+02 -0.53433384328E+02 -0.23028119735E+02  0.62499994654E+02  0.99999486706E+01 0.  0.
    3000022    2    5    5    0    0 -0.12647335989E+02 -0.38907276393E+02 -0.12085435219E+02  0.42659717629E+02  0.24999961442E+00 0.  0.
        -13    1    4    4    0    0  0.94753838704E+01  0.28072644262E+02  0.10534225914E+02  0.31445781847E+02  0.10500000000E+00 0.  1.
         13    1    4    4    0    0  0.71447933697E+01  0.20900513617E+02  0.77732749526E+01  0.23416113474E+02  0.10500000000E+00 0. -1.
    3000001    1    5    5    0    0 -0.78667932635E+01 -0.14526107935E+02 -0.10942684516E+02  0.19840277024E+02  0.10000000000E+01 0. -1.
        -13    1    6    6    0    0 -0.64491676303E+01 -0.19632691180E+02 -0.61278496105E+01  0.21554486585E+02  0.10500000000E+00 0.  1.
         13    1    6    6    0    0 -0.61981683590E+01 -0.19274585214E+02 -0.59575856089E+01  0.21105231045E+02  0.10500000000E+00 0. -1.
</event>
<event>
11    0  0.3462209E-009  0.9118800E+02  0.7816531E-02  0.1126479E+00
         25   -1    0    0    0    0  0.00000000000E+00  0.00000000000E+00  0.99999998245E-14  0.12500000000E+03  0.12500000000E+03 0.  0.
    3000001    1    3    3    0    0  0.11360928756E+01  0.12606806912E+01 -0.33115524730E+01  0.38531029844E+01  0.10000000000E+01 0.  1.
    1000022    2    1    0    0    0 -0.12663220027E+02  0.41714543025E+01 -0.60236963219E+02  0.62500000063E+02  0.10000004873E+02 0.  0.
    3000022    2    3    3    0    0 -0.13799312903E+02  0.29107736114E+01 -0.56925410746E+02  0.58646897078E+02  0.25001725929E+00 0.  0.
    1000022    2    1    0    0    0  0.12663220027E+02 -0.41714543025E+01  0.60236963219E+02  0.62499999937E+02  0.10000004091E+02 0.  0.
    3000022    2    5    5    0    0  0.19813785194E+01  0.10783403305E+01  0.28494110835E+02  0.28584358130E+02  0.24999747270E+00 0.  0.
        -13    1    4    4    0    0 -0.10289432909E+02  0.21967376038E+01 -0.42411915209E+02  0.43697593325E+02  0.10500000000E+00 0. -1.
         13    1    4    4    0    0 -0.35098799944E+01  0.71403600759E+00 -0.14513495538E+02  0.14949303754E+02  0.10500000000E+00 0.  1.
    3000001    1    5    5    0    0  0.10681841508E+02 -0.52497946331E+01  0.31742852385E+02  0.33915641807E+02  0.10000000000E+01 0.  1.
        -13    1    6    6    0    0  0.13243047069E+01  0.77854355337E+00  0.19297365772E+02  0.19358699950E+02  0.10500000000E+00 0. -1.
         13    1    6    6    0    0  0.65707381252E+00  0.29979677715E+00  0.91967450626E+01  0.92256581798E+01  0.10500000000E+00 0.  1.
</event>
<event>
11    0  0.3462209E-009  0.9118800E+02  0.7816531E-02  0.1126479E+00
         25   -1    0    0    0    0  0.00000000000E+00  0.00000000000E+00  0.99999998245E-14  0.12500000000E+03  0.12500000000E+03 0.  0.
    3000001    1    3    3    0    0  0.21592841001E+02  0.32538245663E+02 -0.37385400534E+01  0.39242386460E+02  0.10000000000E+01 0.  1.
    1000022    2    1    0    0    0  0.29582974265E+02  0.54137311577E+02 -0.49935433753E+00  0.62500003345E+02  0.10000009610E+02 0.  0.
    3000022    2    3    3    0    0  0.79901332640E+01  0.21599065914E+02  0.32391857159E+01  0.23257616885E+02  0.25008226275E+00 0.  0.
    1000022    2    1    0    0    0 -0.29582974265E+02 -0.54137311577E+02  0.49935433753E+00  0.62499996655E+02  0.99999677966E+01 0.  0.
    3000022    2    5    5    0    0 -0.23559132801E+02 -0.35117225301E+02 -0.21813143496E+01  0.42344691334E+02  0.25000154948E+00 0.  0.
        -13    1    4    4    0    0  0.31475378484E+01  0.86885090364E+01  0.12897380853E+01  0.93312182008E+01  0.10500000000E+00 0.  1.
         13    1    4    4    0    0  0.48425954156E+01  0.12910556878E+02  0.19494476306E+01  0.13926398685E+02  0.10500000000E+00 0.  1.
    3000001    1    5    5    0    0 -0.60238414647E+01 -0.19020086277E+02  0.26806686871E+01  0.20155305321E+02  0.10000000000E+01 0. -1.
        -13    1    6    6    0    0 -0.88404053923E+01 -0.13274042439E+02 -0.85034605637E+00  0.15971445883E+02  0.10500000000E+00 0. -1.
         13    1    6    6    0    0 -0.14718727408E+02 -0.21843182862E+02 -0.13309682932E+01  0.26373245452E+02  0.10500000000E+00 0.  1.
</event>
<event>
11    0  0.3462209E-009  0.9118800E+02  0.7816531E-02  0.1126479E+00
         25   -1    0    0    0    0  0.00000000000E+00  0.00000000000E+00  0.99999998245E-14  0.12500000000E+03  0.12500000000E+03 0.  0.
    3000001    1    3    3    0    0  0.17072181325E+02 -0.26609682665E+01 -0.11235597938E+01  0.17343659184E+02  0.10000000000E+01 0.  1.
    1000022    2    1    0    0    0  0.60573275940E+02  0.47481047687E+01 -0.10704433262E+02  0.62500001633E+02  0.99999527869E+01 0.  0.
    3000022    2    3    3    0    0  0.43501094615E+02  0.74090730352E+01 -0.95808734682E+01  0.45156342449E+02  0.25006197659E+00 0.  0.
    1000022    2    1    0    0    0 -0.60573275940E+02 -0.47481047687E+01  0.10704433262E+02  0.62499998367E+02  0.99999323707E+01 0.  0.
    3000022    2    5    5    0    0 -0.54531845263E+02 -0.66909317777E+01  0.79643441042E+01  0.55515619368E+02  0.25000187801E+00 0.  0.
        -13    1    4    4    0    0  0.11614574023E+02  0.20133993655E+01 -0.25629153642E+01  0.12063650646E+02  0.10500000000E+00 0. -1.
         13    1    4    4    0    0  0.31886520592E+02  0.53956736697E+01 -0.70179581040E+01  0.33092691803E+02  0.10500000000E+00 0.  1.
    3000001    1    5    5    0    0 -0.60414306767E+01  0.19428270090E+01  0.27400891577E+01  0.69843789989E+01  0.10000000000E+01 0. -1.
        -13    1    6    6    0    0 -0.30764268911E+02 -0.38345087734E+01  0.44652402781E+01  0.31322405637E+02  0.10500000000E+00 0. -1.
         13    1    6    6    0    0 -0.23767576352E+02 -0.28564230043E+01  0.34991038261E+01  0.24193213731E+02  0.10500000000E+00 0.  1.
</event>
<event>
11    0  0.3462209E-009  0.9118800E+02  0.7816531E-02  0.1126479E+00
         25   -1    0    0    0    0  0.00000000000E+00  0.00000000000E+00  0.99999998245E-14  0.12500000000E+03  0.12500000000E+03 0.  0.
    3000001    1    3    3    0    0  0.52395548405E+02 -0.83571923728E+01  0.16001999778E+02  0.55427431421E+02  0.10000000000E+01 0.  1.
    1000022    2    1    0    0    0  0.59284165694E+02 -0.68116283193E+01  0.15660125585E+02  0.62499999027E+02  0.99999881349E+01 0.  0.
    3000022    2    3    3    0    0  0.68886172889E+01  0.15455640535E+01 -0.34187419256E+00  0.70725676066E+01  0.25003637803E+00 0.  0.
    1000022    2    1    0    0    0 -0.59284165694E+02  0.68116283193E+01 -0.15660125585E+02  0.62500000973E+02  0.10000000292E+02 0.  0.
    3000022    2    5    5    0    0 -0.20428422159E+02 -0.23489879033E+01 -0.58118868751E+01  0.21370042294E+02  0.25000502006E+00 0.  0.
        -13    1    4    4    0    0  0.37671382884E+01  0.78321350993E+00 -0.21492771994E+00  0.38551229826E+01  0.10500000000E+00 0. -1.
         13    1    4    4    0    0  0.31214790005E+01  0.76235054355E+00 -0.12694647261E+00  0.32174446240E+01  0.10500000000E+00 0.  1.
    3000001    1    5    5    0    0 -0.38855743535E+02  0.91606162225E+01 -0.98482387102E+01  0.41129958679E+02  0.10000000000E+01 0. -1.
        -13    1    6    6    0    0 -0.64161851296E+01 -0.72866646792E+00 -0.18757262649E+01  0.67251587683E+01  0.10500000000E+00 0.  1.
         13    1    6    6    0    0 -0.14012237030E+02 -0.16203214353E+01 -0.39361606103E+01  0.14644883526E+02  0.10500000000E+00 0. -1.
</event>
<event>
11    0  0.3462209E-009  0.9118800E+02  0.7816531E-02  0.1126479E+00
         25   -1    0    0    0    0  0.00000000000E+00  0.00000000000E+00  0.99999998245E-14  0.12500000000E+03  0.12500000000E+03 0.  0.
    3000001    1    3    3    0    0 -0.12515874696E+02 -0.68475581161E+01 -0.11629427553E+02  0.18433115764E+02  0.10000000000E+01 0. -1.
    1000022    2    1    0    0    0 -0.49551456015E+02 -0.25729215996E+02 -0.26247108395E+02  0.62500001040E+02  0.10000004095E+02 0.  0.
    3000022    2    3    3    0    0 -0.37035581319E+02 -0.18881657880E+02 -0.14617680842E+02  0.44066885276E+02  0.24999355972E+00 0.  0.
    1000022    2    1    0    0    0  0.49551456015E+02  0.25729215996E+02  0.26247108395E+02  0.62499998960E+02  0.99999910945E+01 0.  0.
    3000022    2    5    5    0    0  0.37889312863E+02  0.19501931061E+02  0.15205425771E+02  0.45245914929E+02  0.25000112550E+00 0.  0.
        -13    1    4    4    0    0 -0.24203790422E+02 -0.12402274764E+02 -0.95607415767E+01  0.28828088639E+02  0.10500000000E+00 0.  1.
         13    1    4    4    0    0 -0.12831790897E+02 -0.64793831157E+01 -0.50569392655E+01  0.15238796636E+02  0.10500000000E+00 0. -1.
    3000001    1    5    5    0    0  0.11662143152E+02  0.62272849350E+01  0.11041682624E+02  0.17254084031E+02  0.10000000000E+01 0.  1.
        -13    1    6    6    0    0  0.20645301662E+02  0.10551033847E+02  0.82731487562E+01  0.24617246216E+02  0.10500000000E+00 0.  1.
         13    1    6    6    0    0  0.17244011201E+02  0.89508972143E+01  0.69322770148E+01  0.20628668713E+02  0.10500000000E+00 0. -1.
</event>
<event>
11    0  0.3462209E-009  0.9118800E+02  0.7816531E-02  0.1126479E+00
         25   -1    0    0    0    0  0.00000000000E+00  0.00000000000E+00  0.99999998245E-14  0.12500000000E+03  0.12500000000E+03 0.  0.
    3000001    1    3    3    0    0  0.40731387032E+02  0.12201550779E+02  0.30997400727E+02  0.52628533922E+02  0.10000000000E+01 0.  1.
    1000022    2    1    0    0    0  0.45527144858E+02  0.17571980199E+02  0.37745915868E+02  0.62499995920E+02  0.99999959094E+01 0.  0.
    3000022    2    3    3    0    0  0.47957578265E+01  0.53704294199E+01  0.67485151412E+01  0.98714619978E+01  0.25000015756E+00 0.  0.
    1000022    2    1    0    0    0 -0.45527144858E+02 -0.17571980199E+02 -0.37745915868E+02  0.62500004080E+02  0.10000046912E+02 0.  0.
    3000022    2    5    5    0    0 -0.42489046917E+01 -0.18881248826E+01 -0.42603869828E+00  0.46757041639E+01  0.24998760918E+00 0.  0.
        -13    1    4    4    0    0  0.29803072331E+01  0.33106275142E+01  0.40942155052E+01  0.60511247999E+01  0.10500000000E+00 0. -1.
         13    1    4    4    0    0  0.18154505934E+01  0.20598019057E+01  0.26542996360E+01  0.38203371979E+01  0.10500000000E+00 0.  1.
    3000001    1    5    5    0    0 -0.41278240167E+02 -0.15683855316E+02 -0.37319877170E+02  0.57824299916E+02  0.10000000000E+01 0.  1.
        -13    1    6    6    0    0 -0.20347039457E+01 -0.91451386937E+00 -0.27167048193E+00  0.22497078954E+01  0.10500000000E+00 0.  1.
         13    1    6    6    0    0 -0.22142007460E+01 -0.97361101324E+00 -0.15436821635E+00  0.24259962685E+01  0.10500000000E+00 0. -1.
</event>
<event>
11    0  0.3462209E-009  0.9118800E+02  0.7816531E-02  0.1126479E+00
         25   -1    0    0    0    0  0.00000000000E+00  0.00000000000E+00  0.99999998245E-14  0.12500000000E+03  0.12500000000E+03 0.  0.
    3000001    1    3    3    0    0  0.17270793334E+02  0.59051820190E+01 -0.27545821957E+02  0.33059397822E+02  0.10000000000E+01 0.  1.
    1000022    2    1    0    0    0  0.31168197642E+02  0.19975302548E+02 -0.49353630320E+02  0.62500001467E+02  0.10000005075E+02 0.  0.
    3000022    2    3    3    0    0  0.13897404307E+02  0.14070120529E+02 -0.21807808363E+02  0.29440603645E+02  0.24999839733E+00 0.  0.
    1000022    2    1    0    0    0 -0.31168197642E+02 -0.19975302548E+02  0.49353630320E+02  0.62499998533E+02  0.99999867402E+01 0.  0.
    3000022    2    5    5    0    0 -0.17169350653E+02 -0.15501280234E+02  0.25190689703E+02  0.34201018129E+02  0.25000519585E+00 0.  0.
        -13    1    4    4    0    0  0.58614993727E+01  0.58440841615E+01 -0.91084075288E+01  0.12307908323E+02  0.10500000000E+00 0.  1.
         13    1    4    4    0    0  0.80359049346E+01  0.82260363676E+01 -0.12699400834E+02  0.17132695322E+02  0.10500000000E+00 0. -1.
    3000001    1    5    5    0    0 -0.13998846988E+02 -0.44740223138E+01  0.24162940616E+02  0.28298980404E+02  0.10000000000E+01 0. -1.
        -13    1    6    6    0    0 -0.68355388427E+01 -0.60873149469E+01  0.99610418304E+01  0.13528243562E+02  0.10500000000E+00 0. -1.
         13    1    6    6    0    0 -0.10333811811E+02 -0.94139652875E+01  0.15229647873E+02  0.20672774567E+02  0.10500000000E+00 0.  1.
</event>
<event>
11    0  0.3462209E-009  0.9118800E+02  0.7816531E-02  0.1126479E+00
         25   -1    0    0    0    0  0.00000000000E+00  0.00000000000E+00  0.99999998245E-14  0.12500000000E+03  0.12500000000E+03 0.  0.
    3000001    1    3    3    0    0 -0.26216162277E+01 -0.14101133304E+02  0.84706076761E+01  0.16687301355E+02  0.10000000000E+01 0. -1.
    1000022    2    1    0    0    0  0.15584439771E+01 -0.57883541318E+02  0.21291243907E+02  0.62500000198E+02  0.99999927200E+01 0.  0.
    3000022    2    3    3    0    0  0.41800602048E+01 -0.43782408014E+02  0.12820636231E+02  0.45812698843E+02  0.25001408117E+00 0.  0.
    1000022    2    1    0    0    0 -0.15584439771E+01  0.57883541318E+02 -0.21291243907E+02  0.62499999802E+02  0.99999902499E+01 0.  0.
    3000022    2    5    5    0    0  0.42132601068E+01  0.23901076084E+02 -0.92759597347E+01  0.25983050790E+02  0.25000129560E+00 0.  0.
        -13    1    4    4    0    0  0.24431431022E+01 -0.24905517289E+02  0.72857280817E+01  0.26064278204E+02  0.10500000000E+00 0. -1.
         13    1    4    4    0    0  0.17369171027E+01 -0.18876890726E+02  0.55349081494E+01  0.19748420638E+02  0.10500000000E+00 0.  1.
    3000001    1    5    5    0    0 -0.57717040840E+01  0.33982465235E+02 -0.12015284172E+02  0.36516949013E+02  0.10000000000E+01 0.  1.
        -13    1    6    6    0    0  0.20356946737E+01  0.11186527121E+02 -0.43195653945E+01  0.12163556718E+02  0.10500000000E+00 0. -1.
         13    1    6    6    0    0  0.21775654332E+01  0.12714548962E+02 -0.49563943401E+01  0.13819494071E+02  0.10500000000E+00 0.  1.
</event>
<event>
11    0  0.3462209E-009  0.9118800E+02  0.7816531E-02  0.1126479E+00
         25   -1    0    0    0    0  0.00000000000E+00  0.00000000000E+00  0.99999998245E-14  0.12500000000E+03  0.12500000000E+03 0.  0.
    3000001    1    3    3    0    0 -0.46843185491E+01 -0.38025400817E+00 -0.47038642866E+01  0.67241187234E+01  0.10000000000E+01 0. -1.
    1000022    2    1    0    0    0 -0.48822760656E+02  0.20511817858E+02 -0.31652067628E+02  0.62499999691E+02  0.99999973158E+01 0.  0.
    3000022    2    3    3    0    0 -0.44138442107E+02  0.20892071866E+02 -0.26948203342E+02  0.55775880967E+02  0.24999175299E+00 0.  0.
    1000022    2    1    0    0    0  0.48822760656E+02 -0.20511817858E+02  0.31652067628E+02  0.62500000309E+02  0.10000001182E+02 0.  0.
    3000022    2    5    5    0    0  0.25892151819E+02 -0.16149271846E+02  0.18593297541E+02  0.35734797050E+02  0.24999957827E+00 0.  0.
        -13    1    4    4    0    0 -0.18714380807E+02  0.88994119125E+01 -0.11496587624E+02  0.23698314990E+02  0.10500000000E+00 0. -1.
         13    1    4    4    0    0 -0.25424061299E+02  0.11992659954E+02 -0.15451615717E+02  0.32077565977E+02  0.10500000000E+00 0.  1.
    3000001    1    5    5    0    0  0.22930608836E+02 -0.43625460124E+01  0.13058770088E+02  0.26765203259E+02  0.10000000000E+01 0.  1.
        -13    1    6    6    0    0  0.11765471331E+02 -0.73496683064E+01  0.85300578241E+01  0.16285479770E+02  0.10500000000E+00 0. -1.
         13    1    6    6    0    0  0.14126680488E+02 -0.87996035393E+01  0.10063239716E+02  0.19449317280E+02  0.10500000000E+00 0.  1.
</event>
<event>
11    0  0.3462209E-009  0.9118800E+02  0.7816531E-02  0.1126479E+00
         25   -1    0    0    0    0  0.00000000000E+00  0.00000000000E+00  0.99999998245E-14  0.12500000000E+03  0.12500000000E+03 0.  0.
    3000001    1    3    3    0    0 -0.15992961756E+02  0.62813630664E+01  0.16145646398E+02  0.23598988227E+02  0.10000000000E+01 0.  1.
    1000022    2    1    0    0    0 -0.38846206639E+02  0.54810673389E+01  0.47614914809E+02  0.62499998922E+02  0.99999941814E+01 0.  0.
    3000022    2    3    3    0    0 -0.22853244883E+02 -0.80029572751E+00  0.31469268411E+02  0.38901010696E+02  0.25000784168E+00 0.  0.
    1000022    2    1    0    0    0  0.38846206639E+02 -0.54810673389E+01 -0.47614914809E+02  0.62500001078E+02  0.10000007651E+02 0.  0.
    3000022    2    5    5    0    0  0.78472405320E+01  0.27359756292E+01 -0.82105970158E+01  0.11685082445E+02  0.25000358174E+00 0.  0.
        -13    1    4    4    0    0 -0.58855761531E+01 -0.18396158621E+00  0.80688497107E+01  0.99895550037E+01  0.10500000000E+00 0. -1.
         13    1    4    4    0    0 -0.16967668730E+02 -0.61633414130E+00  0.23400418700E+02  0.28911455692E+02  0.10500000000E+00 0.  1.
    3000001    1    5    5    0    0  0.30998966107E+02 -0.82170429680E+01 -0.39404317793E+02  0.50814918632E+02  0.10000000000E+01 0. -1.
        -13    1    6    6    0    0  0.31119339658E+01  0.10325189180E+01 -0.31862196926E+01  0.45731006170E+01  0.10500000000E+00 0.  1.
         13    1    6    6    0    0  0.47353065662E+01  0.17034567112E+01 -0.50243773232E+01  0.71119818284E+01  0.10500000000E+00 0. -1.
</event>
<event>
11    0  0.3462209E-009  0.9118800E+02  0.7816531E-02  0.1126479E+00
         25   -1    0    0    0    0  0.00000000000E+00  0.00000000000E+00  0.99999998245E-14  0.12500000000E+03  0.12500000000E+03 0.  0.
    3000001    1    3    3    0    0  0.22489141385E+02 -0.45582993370E+02 -0.51452390952E+01  0.51098378156E+02  0.10000000000E+01 0.  1.
    1000022    2    1    0    0    0  0.28548289200E+02 -0.54660756179E+02 -0.18565595295E+01  0.62499998760E+02  0.99999974727E+01 0.  0.
    3000022    2    3    3    0    0  0.60591478148E+01 -0.90777628086E+01  0.32886795657E+01  0.11401620604E+02  0.24997852838E+00 0.  0.
    1000022    2    1    0    0    0 -0.28548289200E+02  0.54660756179E+02  0.18565595295E+01  0.62500001240E+02  0.10000012970E+02 0.  0.
    3000022    2    5    5    0    0 -0.25991530722E+02  0.41155718439E+02  0.88780096260E+00  0.48684736080E+02  0.25001430739E+00 0.  0.
        -13    1    4    4    0    0  0.23797059017E+01 -0.35976804298E+01  0.12373682979E+01  0.44886980248E+01  0.10500000000E+00 0.  1.
         13    1    4    4    0    0  0.36794419131E+01 -0.54800823787E+01  0.20513112678E+01  0.69129225793E+01  0.10500000000E+00 0. -1.
    3000001    1    5    5    0    0 -0.25567584783E+01  0.13505037739E+02  0.96875856694E+00  0.13815265159E+02  0.10000000000E+01 0. -1.
        -13    1    6    6    0    0 -0.90894304830E+01  0.14490136165E+02  0.33437383712E+00  0.17108612552E+02  0.10500000000E+00 0. -1.
         13    1    6    6    0    0 -0.16902100239E+02  0.26665582274E+02  0.55342712548E+00  0.31576123528E+02  0.10500000000E+00 0.  1.
</event>
<event>
11    0  0.3462209E-009  0.9118800E+02  0.7816531E-02  0.1126479E+00
         25   -1    0    0    0    0  0.00000000000E+00  0.00000000000E+00  0.99999998245E-14  0.12500000000E+03  0.12500000000E+03 0.  0.
    3000001    1    3    3    0    0 -0.26187315603E+02 -0.34339582285E+02 -0.33704696008E+02  0.54790409225E+02  0.10000000000E+01 0. -1.
    1000022    2    1    0    0    0 -0.28165284748E+02 -0.41417256133E+02 -0.36021915509E+02  0.62500003076E+02  0.99999808521E+01 0.  0.
    3000022    2    3    3    0    0 -0.19779691448E+01 -0.70776738483E+01 -0.23172195006E+01  0.77095938514E+01  0.25000419668E+00 0.  0.
    1000022    2    1    0    0    0  0.28165284748E+02  0.41417256133E+02  0.36021915509E+02  0.62499996924E+02  0.99999423995E+01 0.  0.
    3000022    2    5    5    0    0  0.59390435263E+01  0.10720705327E+02  0.14190058852E+02  0.18751694152E+02  0.25000532887E+00 0.  0.
        -13    1    4    4    0    0 -0.60293953221E+00 -0.20051524917E+01 -0.66645049233E+00  0.21998531435E+01  0.10500000000E+00 0.  1.
         13    1    4    4    0    0 -0.13750296126E+01 -0.50725213566E+01 -0.16507690083E+01  0.55097407079E+01  0.10500000000E+00 0. -1.
    3000001    1    5    5    0    0  0.22226241222E+02  0.30696550807E+02  0.21831856657E+02  0.43748302771E+02  0.10000000000E+01 0. -1.
        -13    1    6    6    0    0  0.23608240783E+01  0.42885252114E+01  0.57628389976E+01  0.75621608770E+01  0.10500000000E+00 0. -1.
         13    1    6    6    0    0  0.35782194480E+01  0.64321801151E+01  0.84272198540E+01  0.11189533275E+02  0.10500000000E+00 0.  1.
</event>
<event>
11    0  0.3462209E-009  0.9118800E+02  0.7816531E-02  0.1126479E+00
         25   -1    0    0    0    0  0.00000000000E+00  0.00000000000E+00  0.99999998245E-14  0.12500000000E+03  0.12500000000E+03 0.  0.
    3000001    1    3    3    0    0 -0.45559375179E+02 -0.42058053192E+02 -0.16663962896E+01  0.62034775583E+02  0.10000000000E+01 0.  1.
    1000022    2    1    0    0    0 -0.45382185736E+02 -0.41753175953E+02 -0.18384097586E+01  0.62500000793E+02  0.99999932172E+01 0.  0.
    3000022    2    3    3    0    0  0.17718944311E+00  0.30487723936E+00 -0.17201346908E+00  0.46522520995E+00  0.24999926519E+00 0.  0.
    1000022    2    1    0    0    0  0.45382185736E+02  0.41753175953E+02  0.18384097586E+01  0.62499999207E+02  0.99999833033E+01 0.  0.
    3000022    2    5    5    0    0  0.42129091086E+01  0.49298569221E+01 -0.27875989388E+01  0.70629527582E+01  0.25000278137E+00 0.  0.
        -13    1    4    4    0    0  0.12300558048E+00  0.24057315904E+00 -0.75163269996E-01  0.29946675081E+00  0.10500000000E+00 0.  1.
         13    1    4    4    0    0  0.54183862631E-01  0.64304080322E-01 -0.96850199085E-01  0.16575845915E+00  0.10500000000E+00 0. -1.
    3000001    1    5    5    0    0  0.41169276628E+02  0.36823319031E+02  0.46260086975E+01  0.55437046449E+02  0.10000000000E+01 0.  1.
        -13    1    6    6    0    0  0.22370007338E+01  0.26803329457E+01 -0.14423646165E+01  0.37788619543E+01  0.10500000000E+00 0.  1.
         13    1    6    6    0    0  0.19759083748E+01  0.22495239764E+01 -0.13452343224E+01  0.32840908039E+01  0.10500000000E+00 0. -1.
</event>
<event>
11    0  0.3462209E-009  0.9118800E+02  0.7816531E-02  0.1126479E+00
         25   -1    0    0    0    0  0.00000000000E+00  0.00000000000E+00  0.99999998245E-14  0.12500000000E+03  0.12500000000E+03 0.  0.
    3000001    1    3    3    0    0  0.95501297956E+01  0.14855380412E+02 -0.10005812982E+02  0.20322489998E+02  0.10000000000E+01 0. -1.
    1000022    2    1    0    0    0  0.19386233233E+02  0.42487808820E+02 -0.40313893672E+02  0.62499999245E+02  0.99999972658E+01 0.  0.
    3000022    2    3    3    0    0  0.98361034378E+01  0.27632428409E+02 -0.30308080690E+02  0.42177509247E+02  0.25000117086E+00 0.  0.
    1000022    2    1    0    0    0 -0.19386233233E+02 -0.42487808820E+02  0.40313893672E+02  0.62500000755E+02  0.10000006701E+02 0.  0.
    3000022    2    5    5    0    0 -0.13073388629E+02 -0.36757087137E+02  0.30972491339E+02  0.49813197550E+02  0.24997073812E+00 0.  0.
        -13    1    4    4    0    0  0.43231495021E+01  0.11981608291E+02 -0.13214507710E+02  0.18354367269E+02  0.10500000000E+00 0.  1.
         13    1    4    4    0    0  0.55129539357E+01  0.15650820118E+02 -0.17093572980E+02  0.23823141978E+02  0.10500000000E+00 0. -1.
    3000001    1    5    5    0    0 -0.63128446045E+01 -0.57307216836E+01  0.93414023329E+01  0.12686803205E+02  0.10000000000E+01 0.  1.
        -13    1    6    6    0    0 -0.84494690688E+01 -0.23847553482E+02  0.20024710077E+02  0.32266071550E+02  0.10500000000E+00 0. -1.
         13    1    6    6    0    0 -0.46239195601E+01 -0.12909533654E+02  0.10947781263E+02  0.17547125999E+02  0.10500000000E+00 0.  1.
</event>
<event>
11    0  0.3462209E-009  0.9118800E+02  0.7816531E-02  0.1126479E+00
         25   -1    0    0    0    0  0.00000000000E+00  0.00000000000E+00  0.99999998245E-14  0.12500000000E+03  0.12500000000E+03 0.  0.
    3000001    1    3    3    0    0  0.34477047585E+02 -0.30258727276E+02 -0.19152465877E+02  0.49719959128E+02  0.10000000000E+01 0.  1.
    1000022    2    1    0    0    0  0.45928409832E+02 -0.33748088298E+02 -0.23619858699E+02  0.62499999762E+02  0.99999975944E+01 0.  0.
    3000022    2    3    3    0    0  0.11451362247E+02 -0.34893610219E+01 -0.44673928215E+01  0.12780040634E+02  0.25000466400E+00 0.  0.
    1000022    2    1    0    0    0 -0.45928409832E+02  0.33748088298E+02  0.23619858699E+02  0.62500000238E+02  0.10000000564E+02 0.  0.
    3000022    2    5    5    0    0 -0.54842291485E+01  0.51445471984E+01  0.68984403514E+01  0.10207551967E+02  0.25000529017E+00 0.  0.
        -13    1    4    4    0    0  0.82593368670E+01 -0.25251370956E+01 -0.32635533196E+01  0.92333508600E+01  0.10500000000E+00 0. -1.
         13    1    4    4    0    0  0.31920253804E+01 -0.96422392635E+00 -0.12038395019E+01  0.35466897744E+01  0.10500000000E+00 0.  1.
    3000001    1    5    5    0    0 -0.40444180684E+02  0.28603541099E+02  0.16721418347E+02  0.52292448271E+02  0.10000000000E+01 0.  1.
        -13    1    6    6    0    0 -0.36290115423E+01  0.33951555513E+01  0.46314658358E+01  0.67939904901E+01  0.10500000000E+00 0. -1.
         13    1    6    6    0    0 -0.18552176063E+01  0.17493916471E+01  0.22669745156E+01  0.34135614768E+01  0.10500000000E+00 0.  1.
</event>
<event>
11    0  0.3462209E-009  0.9118800E+02  0.7816531E-02  0.1126479E+00
         25   -1    0    0    0    0  0.00000000000E+00  0.00000000000E+00  0.99999998245E-14  0.12500000000E+03  0.12500000000E+03 0.  0.
    3000001    1    3    3    0    0  0.59288583707E+01  0.62851792783E+01  0.70403271993E+01  0.11190221053E+02  0.10000000000E+01 0.  1.
    1000022    2    1    0    0    0  0.17346105275E+02  0.47893297101E+02  0.34807965721E+02  0.62499998415E+02  0.10000002436E+02 0.  0.
    3000022    2    3    3    0    0  0.11417246905E+02  0.41608117823E+02  0.27767638522E+02  0.51309777362E+02  0.25001634484E+00 0.  0.
    1000022    2    1    0    0    0 -0.17346105275E+02 -0.47893297101E+02 -0.34807965721E+02  0.62500001585E+02  0.10000022252E+02 0.  0.
    3000022    2    5    5    0    0 -0.97232773773E+01 -0.32880271286E+02 -0.28160081032E+02  0.44370114102E+02  0.24999786983E+00 0.  0.
        -13    1    4    4    0    0  0.66850258099E+01  0.24166987678E+02  0.16183479231E+02  0.29843741195E+02  0.10500000000E+00 0.  1.
         13    1    4    4    0    0  0.47322210947E+01  0.17441130145E+02  0.11584159291E+02  0.21466036167E+02  0.10500000000E+00 0. -1.
    3000001    1    5    5    0    0 -0.76228278980E+01 -0.15013025816E+02 -0.66478846892E+01  0.18129887483E+02  0.10000000000E+01 0. -1.
        -13    1    6    6    0    0 -0.58528589569E+01 -0.19971733307E+02 -0.17138563562E+02  0.26960479877E+02  0.10500000000E+00 0.  1.
         13    1    6    6    0    0 -0.38704184203E+01 -0.12908537979E+02 -0.11021517470E+02  0.17409634225E+02  0.10500000000E+00 0. -1.
</event>
<event>
11    0  0.3462209E-009  0.9118800E+02  0.7816531E-02  0.1126479E+00
         25   -1    0    0    0    0  0.00000000000E+00  0.00000000000E+00  0.99999998245E-14  0.12500000000E+03  0.12500000000E+03 0.  0.
    3000001    1    3    3    0    0 -0.34863017589E+02 -0.25638452695E+02 -0.10892694530E+02  0.44636431825E+02  0.10000000000E+01 0.  1.
    1000022    2    1    0    0    0 -0.48520768533E+02 -0.37006592435E+02 -0.90827845169E+01  0.62499998998E+02  0.10000001874E+02 0.  0.
    3000022    2    3    3    0    0 -0.13657750944E+02 -0.11368139740E+02  0.18099100131E+01  0.17863567172E+02  0.24999173730E+00 0.  0.
    1000022    2    1    0    0    0  0.48520768533E+02  0.37006592435E+02  0.90827845169E+01  0.62500001002E+02  0.10000014402E+02 0.  0.
    3000022    2    5    5    0    0  0.26808046580E+02  0.25867979220E+02  0.32933435415E+01  0.37399629974E+02  0.25000028548E+00 0.  0.
        -13    1    4    4    0    0 -0.89518570385E+01 -0.74269767756E+01  0.12374755337E+01  0.11697781805E+02  0.10500000000E+00 0.  1.
         13    1    4    4    0    0 -0.47058939056E+01 -0.39411629644E+01  0.57243447942E+00  0.61657853673E+01  0.10500000000E+00 0. -1.
    3000001    1    5    5    0    0  0.21712721953E+02  0.11138613215E+02  0.57894409755E+01  0.25100371028E+02  0.10000000000E+01 0. -1.
        -13    1    6    6    0    0  0.19992565929E+02  0.19267496795E+02  0.24779002989E+01  0.27876336561E+02  0.10500000000E+00 0. -1.
         13    1    6    6    0    0  0.68154806509E+01  0.66004824249E+01  0.81544324259E+00  0.95232934127E+01  0.10500000000E+00 0.  1.
</event>
<event>
11    0  0.3462209E-009  0.9118800E+02  0.7816531E-02  0.1126479E+00
         25   -1    0    0    0    0  0.00000000000E+00  0.00000000000E+00  0.99999998245E-14  0.12500000000E+03  0.12500000000E+03 0.  0.
    3000001    1    3    3    0    0  0.18260254504E+02  0.16759762181E+02  0.30630913251E+00  0.24807667126E+02  0.10000000000E+01 0.  1.
    1000022    2    1    0    0    0  0.48453111443E+02  0.36504478549E+02  0.11223590766E+02  0.62500000239E+02  0.10000003880E+02 0.  0.
    3000022    2    3    3    0    0  0.30192856939E+02  0.19744716367E+02  0.10917281634E+02  0.37692333114E+02  0.25000542908E+00 0.  0.
    1000022    2    1    0    0    0 -0.48453111443E+02 -0.36504478549E+02 -0.11223590766E+02  0.62499999761E+02  0.10000000887E+02 0.  0.
    3000022    2    5    5    0    0 -0.19365232999E+01 -0.85758446186E+00 -0.24264111707E+01  0.32304089118E+01  0.24999393565E+00 0.  0.
        -13    1    4    4    0    0  0.16442099844E+02  0.10679411931E+02  0.59044057226E+01  0.20475974175E+02  0.10500000000E+00 0.  1.
         13    1    4    4    0    0  0.13750757095E+02  0.90653044359E+01  0.50128759113E+01  0.17216358938E+02  0.10500000000E+00 0. -1.
    3000001    1    5    5    0    0 -0.46516588143E+02 -0.35646894087E+02 -0.87971795956E+01  0.59269590849E+02  0.10000000000E+01 0. -1.
        -13    1    6    6    0    0 -0.12019385437E+01 -0.47205609711E+00 -0.14307015665E+01  0.19301360559E+01  0.10500000000E+00 0. -1.
         13    1    6    6    0    0 -0.73458475622E+00 -0.38552836475E+00 -0.99570960417E+00  0.13002728560E+01  0.10500000000E+00 0.  1.
</event>
<event>
11    0  0.3462209E-009  0.9118800E+02  0.7816531E-02  0.1126479E+00
         25   -1    0    0    0    0  0.00000000000E+00  0.00000000000E+00  0.99999998245E-14  0.12500000000E+03  0.12500000000E+03 0.  0.
    3000001    1    3    3    0    0  0.84254474745E+01 -0.32587786736E+02 -0.40922928567E+02  0.52996585663E+02  0.10000000000E+01 0.  1.
    1000022    2    1    0    0    0  0.58778954182E+01 -0.39069534974E+02 -0.47384298937E+02  0.62500000537E+02  0.10000003186E+02 0.  0.
    3000022    2    3    3    0    0 -0.25475520563E+01 -0.64817482381E+01 -0.64613703700E+01  0.95034148734E+01  0.25001099005E+00 0.  0.
    1000022    2    1    0    0    0 -0.58778954182E+01  0.39069534974E+02  0.47384298937E+02  0.62499999463E+02  0.99999964771E+01 0.  0.
    3000022    2    5    5    0    0 -0.17758327152E+00  0.13847476979E+02  0.23536648379E+02  0.27309713798E+02  0.24999264012E+00 0.  0.
        -13    1    4    4    0    0 -0.15864296201E+01 -0.38814909565E+01 -0.38519444407E+01  0.56948425754E+01  0.10500000000E+00 0.  1.
         13    1    4    4    0    0 -0.96112243624E+00 -0.26002572816E+01 -0.26094259293E+01  0.38085722979E+01  0.10500000000E+00 0. -1.
    3000001    1    5    5    0    0 -0.57003121467E+01  0.25222057994E+02  0.23847650558E+02  0.35190285665E+02  0.10000000000E+01 0. -1.
        -13    1    6    6    0    0 -0.12115187135E+00  0.75641269904E+01  0.12734115350E+02  0.14812137376E+02  0.10500000000E+00 0. -1.
         13    1    6    6    0    0 -0.56431400173E-01  0.62833499891E+01  0.10802533029E+02  0.12497576422E+02  0.10500000000E+00 0.  1.
</event>
<event>
11    0  0.3462209E-009  0.9118800E+02  0.7816531E-02  0.1126479E+00
         25   -1    0    0    0    0  0.00000000000E+00  0.00000000000E+00  0.99999998245E-14  0.12500000000E+03  0.12500000000E+03 0.  0.
    3000001    1    3    3    0    0 -0.16606027762E+02 -0.13033381441E+02 -0.49499434911E+02  0.53822144572E+02  0.10000000000E+01 0.  1.
    1000022    2    1    0    0    0 -0.20438689740E+02 -0.11342622305E+02 -0.57095137578E+02  0.62499998842E+02  0.10000000057E+02 0.  0.
    3000022    2    3    3    0    0 -0.38326619782E+01  0.16907591363E+01 -0.75957026676E+01  0.86778542705E+01  0.24998285866E+00 0.  0.
    1000022    2    1    0    0    0  0.20438689740E+02  0.11342622305E+02  0.57095137578E+02  0.62500001158E+02  0.10000014531E+02 0.  0.
    3000022    2    5    5    0    0  0.47898308041E+01  0.50301640839E+01  0.28011093782E+02  0.28860507726E+02  0.25000304965E+00 0.  0.
        -13    1    4    4    0    0 -0.18914003853E+01  0.77804986116E+00 -0.36166292958E+01  0.41561748601E+01  0.10500000000E+00 0.  1.
         13    1    4    4    0    0 -0.19412615929E+01  0.91270927510E+00 -0.39790733718E+01  0.45216794104E+01  0.10500000000E+00 0. -1.
    3000001    1    5    5    0    0  0.15648858936E+02  0.63124582209E+01  0.29084043797E+02  0.33639493432E+02  0.10000000000E+01 0.  1.
        -13    1    6    6    0    0  0.29696095242E+01  0.30791003661E+01  0.17018591261E+02  0.17548302292E+02  0.10500000000E+00 0. -1.
         13    1    6    6    0    0  0.18202212798E+01  0.19510637178E+01  0.10992502520E+02  0.11312205435E+02  0.10500000000E+00 0.  1.
</event>
<event>
11    0  0.3462209E-009  0.9118800E+02  0.7816531E-02  0.1126479E+00
         25   -1    0    0    0    0  0.00000000000E+00  0.00000000000E+00  0.99999998245E-14  0.12500000000E+03  0.12500000000E+03 0.  0.
    3000001    1    3    3    0    0 -0.36303286249E+02 -0.71909688141E+01  0.18241093521E+02  0.41271977391E+02  0.10000000000E+01 0.  1.
    1000022    2    1    0    0    0 -0.55292303606E+02 -0.15712701232E+02  0.22408084705E+02  0.62500001654E+02  0.10000006429E+02 0.  0.
    3000022    2    3    3    0    0 -0.18989017357E+02 -0.85217324178E+01  0.41669911837E+01  0.21228024263E+02  0.24998997046E+00 0.  0.
    1000022    2    1    0    0    0  0.55292303606E+02  0.15712701232E+02 -0.22408084705E+02  0.62499998346E+02  0.99999857534E+01 0.  0.
    3000022    2    5    5    0    0  0.44917060032E+02  0.86207253415E+01 -0.17506059849E+02  0.48973297014E+02  0.25000325180E+00 0.  0.
        -13    1    4    4    0    0 -0.49995034501E+01 -0.22086049779E+01  0.10867724521E+01  0.55736047634E+01  0.10500000000E+00 0. -1.
         13    1    4    4    0    0 -0.13989513907E+02 -0.63131274400E+01  0.30802187316E+01  0.15654419500E+02  0.10500000000E+00 0.  1.
    3000001    1    5    5    0    0  0.10375243574E+02  0.70919758904E+01 -0.49020248553E+01  0.13526701332E+02  0.10000000000E+01 0.  1.
        -13    1    6    6    0    0  0.29234795431E+02  0.56584965649E+01 -0.11431057987E+02  0.31896268731E+02  0.10500000000E+00 0.  1.
         13    1    6    6    0    0  0.15682264601E+02  0.29622287766E+01 -0.60750018625E+01  0.17077028283E+02  0.10500000000E+00 0. -1.
</event>
<event>
11    0  0.3462209E-009  0.9118800E+02  0.7816531E-02  0.1126479E+00
         25   -1    0    0    0    0  0.00000000000E+00  0.00000000000E+00  0.99999998245E-14  0.12500000000E+03  0.12500000000E+03 0.  0.
    3000001    1    3    3    0    0  0.23553366477E+02  0.43723117237E+02  0.26508033647E+02  0.56304066471E+02  0.10000000000E+01 0.  1.
    1000022    2    1    0    0    0  0.24319258921E+02  0.47012112831E+02  0.31696761300E+02  0.62499990619E+02  0.99999521550E+01 0.  0.
    3000022    2    3    3    0    0  0.76589244335E+00  0.32889955949E+01  0.51887276531E+01  0.61959241481E+01  0.24999626734E+00 0.  0.
    1000022    2    1    0    0    0 -0.24319258921E+02 -0.47012112831E+02 -0.31696761300E+02  0.62500009381E+02  0.10000069420E+02 0.  0.
    3000022    2    5    5    0    0 -0.79180146008E+01 -0.73043872201E+01 -0.80489196741E+01  0.13449783061E+02  0.25005718764E+00 0.  0.
        -13    1    4    4    0    0  0.55716357631E+00  0.22124832967E+01  0.35583773820E+01  0.42283079573E+01  0.10500000000E+00 0. -1.
         13    1    4    4    0    0  0.20872886704E+00  0.10765122982E+01  0.16303502711E+01  0.19676161908E+01  0.10500000000E+00 0.  1.
    3000001    1    5    5    0    0 -0.16401244320E+02 -0.39707725611E+02 -0.23647841626E+02  0.49050226320E+02  0.10000000000E+01 0.  1.
        -13    1    6    6    0    0 -0.24972655663E+01 -0.23483626250E+01 -0.26097333404E+01  0.43096259044E+01  0.10500000000E+00 0.  1.
         13    1    6    6    0    0 -0.54207490345E+01 -0.49560245950E+01 -0.54391863336E+01  0.91401571569E+01  0.10500000000E+00 0. -1.
</event>
<event>
11    0  0.3462209E-009  0.9118800E+02  0.7816531E-02  0.1126479E+00
         25   -1    0    0    0    0  0.00000000000E+00  0.00000000000E+00  0.99999998245E-14  0.12500000000E+03  0.12500000000E+03 0.  0.
    3000001    1    3    3    0    0  0.42768640239E+02  0.18576896063E+02  0.24209842552E+02  0.52548778593E+02  0.10000000000E+01 0.  1.
    1000022    2    1    0    0    0  0.49653512677E+02  0.18861749107E+02  0.31384917552E+02  0.62500000155E+02  0.10000003451E+02 0.  0.
    3000022    2    3    3    0    0  0.68848724382E+01  0.28485304447E+00  0.71750750005E+01  0.99512215619E+01  0.24999913053E+00 0.  0.
    1000022    2    1    0    0    0 -0.49653512677E+02 -0.18861749107E+02 -0.31384917552E+02  0.62499999845E+02  0.10000001519E+02 0.  0.
    3000022    2    5    5    0    0 -0.45569304776E+01  0.95655465150E+00 -0.39257213395E+01  0.60954402196E+01  0.24998251304E+00 0.  0.
        -13    1    4    4    0    0  0.45936279223E+01  0.13745082270E+00  0.47690636863E+01  0.66238435716E+01  0.10500000000E+00 0. -1.
         13    1    4    4    0    0  0.22912445159E+01  0.14740222177E+00  0.24060113141E+01  0.33273779903E+01  0.10500000000E+00 0.  1.
    3000001    1    5    5    0    0 -0.45096582199E+02 -0.19818303759E+02 -0.27459196213E+02  0.56404559626E+02  0.10000000000E+01 0.  1.
        -13    1    6    6    0    0 -0.20477413643E+01  0.48679023088E+00 -0.17265128938E+01  0.27243496832E+01  0.10500000000E+00 0.  1.
         13    1    6    6    0    0 -0.25091891133E+01  0.46976442063E+00 -0.21992084457E+01  0.33710905364E+01  0.10500000000E+00 0. -1.
</event>
<event>
11    0  0.3462209E-009  0.9118800E+02  0.7816531E-02  0.1126479E+00
         25   -1    0    0    0    0  0.00000000000E+00  0.00000000000E+00  0.99999998245E-14  0.12500000000E+03  0.12500000000E+03 0.  0.
    3000001    1    3    3    0    0  0.75696695354E+01  0.65102992601E+01  0.22934355447E+02  0.25033348820E+02  0.10000000000E+01 0. -1.
    1000022    2    1    0    0    0  0.29665273710E+02  0.14187074825E+02  0.52201037252E+02  0.62499997585E+02  0.99999925832E+01 0.  0.
    3000022    2    3    3    0    0  0.22095604175E+02  0.76767755644E+01  0.29266681804E+02  0.37466648766E+02  0.24999801949E+00 0.  0.
    1000022    2    1    0    0    0 -0.29665273710E+02 -0.14187074825E+02 -0.52201037252E+02  0.62500002415E+02  0.10000022766E+02 0.  0.
    3000022    2    5    5    0    0 -0.27902609113E+02 -0.14477381416E+02 -0.44184744344E+02  0.54226416954E+02  0.24998988990E+00 0.  0.
        -13    1    4    4    0    0  0.12358731407E+02  0.42632035672E+01  0.16452309207E+02  0.21014343909E+02  0.10500000000E+00 0.  1.
         13    1    4    4    0    0  0.97368727675E+01  0.34135719972E+01  0.12814372597E+02  0.16452304857E+02  0.10500000000E+00 0. -1.
    3000001    1    5    5    0    0 -0.17626645973E+01  0.29030659099E+00 -0.80162929075E+01  0.82735854609E+01  0.10000000000E+01 0.  1.
        -13    1    6    6    0    0 -0.19957641755E+02 -0.10314938062E+02 -0.31540509061E+02  0.38723638110E+02  0.10500000000E+00 0. -1.
         13    1    6    6    0    0 -0.79449673582E+01 -0.41624433530E+01 -0.12644235283E+02  0.15502778844E+02  0.10500000000E+00 0.  1.
</event>
<event>
11    0  0.3462209E-009  0.9118800E+02  0.7816531E-02  0.1126479E+00
         25   -1    0    0    0    0  0.00000000000E+00  0.00000000000E+00  0.99999998245E-14  0.12500000000E+03  0.12500000000E+03 0.  0.
    3000001    1    3    3    0    0  0.97993380870E+01 -0.83453391586E+01  0.38359567008E+02  0.40473795148E+02  0.10000000000E+01 0. -1.
    1000022    2    1    0    0    0  0.14019263430E+02 -0.19680233582E+02  0.56766180313E+02  0.62499995949E+02  0.99999462698E+01 0.  0.
    3000022    2    3    3    0    0  0.42199253428E+01 -0.11334894423E+02  0.18406613305E+02  0.22026200801E+02  0.25001382110E+00 0.  0.
    1000022    2    1    0    0    0 -0.14019263430E+02  0.19680233582E+02 -0.56766180313E+02  0.62500004051E+02  0.99999969040E+01 0.  0.
    3000022    2    5    5    0    0 -0.56941978251E+01  0.79945546835E+01 -0.12140369998E+02  0.15613708026E+02  0.25000236038E+00 0.  0.
        -13    1    4    4    0    0  0.23819890471E+01 -0.62202234358E+01  0.10179900455E+02  0.12165790139E+02  0.10500000000E+00 0. -1.
         13    1    4    4    0    0  0.18379362957E+01 -0.51146709875E+01  0.82267128491E+01  0.98604106628E+01  0.10500000000E+00 0.  1.
    3000001    1    5    5    0    0 -0.83250656048E+01  0.11685678898E+02 -0.44625810315E+02  0.46886296025E+02  0.10000000000E+01 0.  1.
        -13    1    6    6    0    0 -0.25366301549E+01  0.35292482864E+01 -0.52751367742E+01  0.68358012695E+01  0.10500000000E+00 0. -1.
         13    1    6    6    0    0 -0.31575676702E+01  0.44653063971E+01 -0.68652332234E+01  0.87779067564E+01  0.10500000000E+00 0.  1.
</event>
<event>
11    0  0.3462209E-009  0.9118800E+02  0.7816531E-02  0.1126479E+00
         25   -1    0    0    0    0  0.00000000000E+00  0.00000000000E+00  0.99999998245E-14  0.12500000000E+03  0.12500000000E+03 0.  0.
    3000001    1    3    3    0    0 -0.20598806521E+02 -0.19632223447E+01  0.47200041963E+02  0.51546183500E+02  0.10000000000E+01 0. -1.
    1000022    2    1    0    0    0 -0.28165178661E+02 -0.84221937598E-01  0.54890482939E+02  0.62499996183E+02  0.10000001164E+02 0.  0.
    3000022    2    3    3    0    0 -0.75663721399E+01  0.18790004071E+01  0.76904409755E+01  0.10953812683E+02  0.25000001928E+00 0.  0.
    1000022    2    1    0    0    0  0.28165178661E+02  0.84221937598E-01 -0.54890482939E+02  0.62500003817E+02  0.10000048879E+02 0.  0.
    3000022    2    5    5    0    0  0.18092770544E+02 -0.46397591960E+01 -0.35856762689E+02  0.40430751235E+02  0.25000697758E+00 0.  0.
        -13    1    4    4    0    0 -0.50875249331E+01  0.12341070071E+01  0.51005326764E+01  0.73097461401E+01  0.10500000000E+00 0. -1.
         13    1    4    4    0    0 -0.24788472068E+01  0.64489340003E+00  0.25899082991E+01  0.36440665430E+01  0.10500000000E+00 0.  1.
    3000001    1    5    5    0    0  0.10072408117E+02  0.47239811336E+01 -0.19033720249E+02  0.22069252583E+02  0.10000000000E+01 0. -1.
        -13    1    6    6    0    0  0.82503687091E+01 -0.21609818370E+01 -0.16482243553E+02  0.18558389043E+02  0.10500000000E+00 0.  1.
         13    1    6    6    0    0  0.98424018351E+01 -0.24787773590E+01 -0.19374519137E+02  0.21872362192E+02  0.10500000000E+00 0. -1.
</event>
<event>
11    0  0.3462209E-009  0.9118800E+02  0.7816531E-02  0.1126479E+00
         25   -1    0    0    0    0  0.00000000000E+00  0.00000000000E+00  0.99999998245E-14  0.12500000000E+03  0.12500000000E+03 0.  0.
    3000001    1    3    3    0    0 -0.53127484660E+02 -0.86651657157E+01 -0.53916715249E+01  0.54108084840E+02  0.10000000000E+01 0.  1.
    1000022    2    1    0    0    0 -0.60874005150E+02 -0.97482076420E+01 -0.23617959849E+01  0.62499997929E+02  0.99999802780E+01 0.  0.
    3000022    2    3    3    0    0 -0.77465204900E+01 -0.10830419263E+01  0.30298755400E+01  0.83919130889E+01  0.24999997612E+00 0.  0.
    1000022    2    1    0    0    0  0.60874005150E+02  0.97482076420E+01  0.23617959849E+01  0.62500002071E+02  0.10000006168E+02 0.  0.
    3000022    2    5    5    0    0  0.88375580408E+01 -0.18584063618E+01  0.15692949215E+01  0.91695850999E+01  0.24999604537E+00 0.  0.
        -13    1    4    4    0    0 -0.56260964886E+01 -0.75804981536E+00  0.22249677162E+01  0.60982872644E+01  0.10500000000E+00 0.  1.
         13    1    4    4    0    0 -0.21204240014E+01 -0.32499211096E+00  0.80490782378E+00  0.22936258245E+01  0.10500000000E+00 0. -1.
    3000001    1    5    5    0    0  0.52036447109E+02  0.11606614004E+02  0.79250106346E+00  0.53330416971E+02  0.10000000000E+01 0. -1.
        -13    1    6    6    0    0  0.53192434106E+01 -0.10576737270E+01  0.96301842782E+00  0.55092153403E+01  0.10500000000E+00 0.  1.
         13    1    6    6    0    0  0.35183146303E+01 -0.80073263480E+00  0.60627649367E+00  0.36603697596E+01  0.10500000000E+00 0. -1.
</event>
<event>
11    0  0.3462209E-009  0.9118800E+02  0.7816531E-02  0.1126479E+00
         25   -1    0    0    0    0  0.00000000000E+00  0.00000000000E+00  0.99999998245E-14  0.12500000000E+03  0.12500000000E+03 0.  0.
    3000001    1    3    3    0    0 -0.49446886652E+02 -0.36626508766E+02 -0.20391559223E+01  0.61576407014E+02  0.10000000000E+01 0.  1.
    1000022    2    1    0    0    0 -0.49032632236E+02 -0.37396786844E+02 -0.18791848207E+01  0.62500000221E+02  0.10000000090E+02 0.  0.
    3000022    2    3    3    0    0  0.41425441604E+00 -0.77027807821E+00  0.15997110162E+00  0.92359320648E+00  0.24999723742E+00 0.  0.
    1000022    2    1    0    0    0  0.49032632236E+02  0.37396786844E+02  0.18791848207E+01  0.62499999779E+02  0.99999973297E+01 0.  0.
    3000022    2    5    5    0    0  0.12264296600E+02  0.14717588518E+02 -0.10574398658E+01  0.19188565877E+02  0.24999692134E+00 0.  0.
        -13    1    4    4    0    0  0.31008939224E+00 -0.55340730082E+00  0.15324899908E+00  0.66100327344E+00  0.10500000000E+00 0.  1.
         13    1    4    4    0    0  0.10416502380E+00 -0.21687077739E+00  0.67221025352E-02  0.26258993303E+00  0.10500000000E+00 0. -1.
    3000001    1    5    5    0    0  0.36768335636E+02  0.22679198326E+02  0.29366246865E+01  0.43311433902E+02  0.10000000000E+01 0.  1.
        -13    1    6    6    0    0  0.57149242958E+01  0.68006861808E+01 -0.54666867030E+00  0.89005372799E+01  0.10500000000E+00 0. -1.
         13    1    6    6    0    0  0.65493723044E+01  0.79169023375E+01 -0.51077119553E+00  0.10288028597E+02  0.10500000000E+00 0.  1.
</event>
<event>
11    0  0.3462209E-009  0.9118800E+02  0.7816531E-02  0.1126479E+00
         25   -1    0    0    0    0  0.00000000000E+00  0.00000000000E+00  0.99999998245E-14  0.12500000000E+03  0.12500000000E+03 0.  0.
    3000001    1    3    3    0    0  0.12171045219E+02  0.69032180568E+01 -0.20068257852E+02  0.24485173769E+02  0.10000000000E+01 0.  1.
    1000022    2    1    0    0    0  0.39123147533E+02  0.94832790638E+01 -0.46751435586E+02  0.62499999920E+02  0.10000000303E+02 0.  0.
    3000022    2    3    3    0    0  0.26952102313E+02  0.25800610070E+01 -0.26683177734E+02  0.38014826152E+02  0.24999892306E+00 0.  0.
    1000022    2    1    0    0    0 -0.39123147533E+02 -0.94832790638E+01  0.46751435586E+02  0.62500000080E+02  0.10000001298E+02 0.  0.
    3000022    2    5    5    0    0  0.12492209255E+00 -0.13302208438E+01  0.11931766084E+01  0.18086638883E+01  0.25000323916E+00 0.  0.
        -13    1    4    4    0    0  0.10127418116E+02  0.98445662399E+00 -0.10110085934E+02  0.14344288589E+02  0.10500000000E+00 0.  1.
         13    1    4    4    0    0  0.16824684198E+02  0.15956043830E+01 -0.16573091800E+02  0.23670537563E+02  0.10500000000E+00 0. -1.
    3000001    1    5    5    0    0 -0.39248069625E+02 -0.81530582200E+01  0.45558258977E+02  0.60691336191E+02  0.10000000000E+01 0.  1.
        -13    1    6    6    0    0  0.11359256240E+00 -0.99983205315E+00  0.86335530956E+00  0.13300281182E+01  0.10500000000E+00 0.  1.
         13    1    6    6    0    0  0.11329530158E-01 -0.33038879067E+00  0.32982129885E+00  0.47863577011E+00  0.10500000000E+00 0. -1.
</event>
<event>
11    0  0.3462209E-009  0.9118800E+02  0.7816531E-02  0.1126479E+00
         25   -1    0    0    0    0  0.00000000000E+00  0.00000000000E+00  0.99999998245E-14  0.12500000000E+03  0.12500000000E+03 0.  0.
    3000001    1    3    3    0    0 -0.20796087778E+01 -0.14386264682E+01  0.21772139473E+00  0.27279701959E+01  0.10000000000E+01 0.  1.
    1000022    2    1    0    0    0 -0.32771865094E+02 -0.40972135770E+02 -0.32458264132E+02  0.62499999501E+02  0.99999987916E+01 0.  0.
    3000022    2    3    3    0    0 -0.30692256317E+02 -0.39533509302E+02 -0.32675985526E+02  0.59772029305E+02  0.25000317048E+00 0.  0.
    1000022    2    1    0    0    0  0.32771865094E+02  0.40972135770E+02  0.32458264132E+02  0.62500000499E+02  0.10000005030E+02 0.  0.
    3000022    2    5    5    0    0  0.96655109758E+01  0.15032888788E+02  0.61133982608E+01  0.18890367476E+02  0.24999469123E+00 0.  0.
        -13    1    4    4    0    0 -0.84510714250E+01 -0.10908953744E+02 -0.89673505416E+01  0.16457529606E+02  0.10500000000E+00 0.  1.
         13    1    4    4    0    0 -0.22241184892E+02 -0.28624555558E+02 -0.23708634985E+02  0.43314499699E+02  0.10500000000E+00 0. -1.
    3000001    1    5    5    0    0  0.23106354119E+02  0.25939246982E+02  0.26344865871E+02  0.43609633023E+02  0.10000000000E+01 0. -1.
        -13    1    6    6    0    0  0.55469790898E+01  0.86639163738E+01  0.34533182825E+01  0.10852136016E+02  0.10500000000E+00 0. -1.
         13    1    6    6    0    0  0.41185318860E+01  0.63689724142E+01  0.26600799783E+01  0.80382314597E+01  0.10500000000E+00 0.  1.
</event>
<event>
11    0  0.3462209E-009  0.9118800E+02  0.7816531E-02  0.1126479E+00
         25   -1    0    0    0    0  0.00000000000E+00  0.00000000000E+00  0.99999998245E-14  0.12500000000E+03  0.12500000000E+03 0.  0.
    3000001    1    3    3    0    0  0.67809814012E+01  0.11971634571E+02  0.30877472274E+02  0.33818930159E+02  0.10000000000E+01 0. -1.
    1000022    2    1    0    0    0  0.17978869623E+02  0.14813545857E+02  0.57127654329E+02  0.62499999144E+02  0.10000005503E+02 0.  0.
    3000022    2    3    3    0    0  0.11197888222E+02  0.28419112861E+01  0.26250182055E+02  0.28681068985E+02  0.24999961603E+00 0.  0.
    1000022    2    1    0    0    0 -0.17978869623E+02 -0.14813545857E+02 -0.57127654329E+02  0.62500000856E+02  0.10000016204E+02 0.  0.
    3000022    2    5    5    0    0 -0.11385277113E+02 -0.30146891276E+01 -0.27732013311E+02  0.30130382490E+02  0.25000246265E+00 0.  0.
        -13    1    4    4    0    0  0.30352325817E+01  0.74095403417E+00  0.70462480745E+01  0.77085852550E+01  0.10500000000E+00 0. -1.
         13    1    4    4    0    0  0.81626556402E+01  0.21009572519E+01  0.19203933981E+02  0.20972483730E+02  0.10500000000E+00 0.  1.
    3000001    1    5    5    0    0 -0.65935925103E+01 -0.11798856729E+02 -0.29395641018E+02  0.32369618366E+02  0.10000000000E+01 0.  1.
        -13    1    6    6    0    0 -0.38293668945E+01 -0.10324607913E+01 -0.92098583015E+01  0.10028087606E+02  0.10500000000E+00 0. -1.
         13    1    6    6    0    0 -0.75559102184E+01 -0.19822283364E+01 -0.18522155010E+02  0.20102294884E+02  0.10500000000E+00 0.  1.
</event>
<event>
11    0  0.3462209E-009  0.9118800E+02  0.7816531E-02  0.1126479E+00
         25   -1    0    0    0    0  0.00000000000E+00  0.00000000000E+00  0.99999998245E-14  0.12500000000E+03  0.12500000000E+03 0.  0.
    3000001    1    3    3    0    0 -0.13288973956E+02 -0.11805643389E+02 -0.12239227174E+02  0.21604831091E+02  0.10000000000E+01 0.  1.
    1000022    2    1    0    0    0 -0.46769785968E+02 -0.31482128331E+02 -0.25054199083E+02  0.62499999991E+02  0.99999911703E+01 0.  0.
    3000022    2    3    3    0    0 -0.33480812012E+02 -0.19676484943E+02 -0.12814971909E+02  0.40895168901E+02  0.25000337386E+00 0.  0.
    1000022    2    1    0    0    0  0.46769785968E+02  0.31482128331E+02  0.25054199083E+02  0.62500000009E+02  0.99999912802E+01 0.  0.
    3000022    2    5    5    0    0  0.13472581878E+01 -0.32956986093E+00  0.19752247849E+01  0.24264681789E+01  0.25002790767E+00 0.  0.
        -13    1    4    4    0    0 -0.20513818397E+02 -0.11987125167E+02 -0.78217509119E+01  0.25013970643E+02  0.10500000000E+00 0.  1.
         13    1    4    4    0    0 -0.12966993615E+02 -0.76893597759E+01 -0.49932209968E+01  0.15881198258E+02  0.10500000000E+00 0. -1.
    3000001    1    5    5    0    0  0.45422527781E+02  0.31811698192E+02  0.23078974298E+02  0.60073531830E+02  0.10000000000E+01 0.  1.
        -13    1    6    6    0    0  0.66718475013E+00 -0.18507950385E+00  0.10965708907E+01  0.13011082322E+01  0.10500000000E+00 0. -1.
         13    1    6    6    0    0  0.68007343762E+00 -0.14449035708E+00  0.87865389421E+00  0.11253599467E+01  0.10500000000E+00 0.  1.
</event>
<event>
11    0  0.3462209E-009  0.9118800E+02  0.7816531E-02  0.1126479E+00
         25   -1    0    0    0    0  0.00000000000E+00  0.00000000000E+00  0.99999998245E-14  0.12500000000E+03  0.12500000000E+03 0.  0.
    3000001    1    3    3    0    0 -0.11708300366E+01  0.10013176205E+02  0.15896177579E+02  0.18850013323E+02  0.10000000000E+01 0. -1.
    1000022    2    1    0    0    0 -0.16175439068E+02  0.38106859145E+02  0.45743548292E+02  0.62500000185E+02  0.10000013491E+02 0.  0.
    3000022    2    3    3    0    0 -0.15004609032E+02  0.28093682941E+02  0.29847370713E+02  0.43649986862E+02  0.25000232095E+00 0.  0.
    1000022    2    1    0    0    0  0.16175439068E+02 -0.38106859145E+02 -0.45743548292E+02  0.62499999815E+02  0.10000011177E+02 0.  0.
    3000022    2    5    5    0    0  0.40362286259E+01 -0.36524770361E+01 -0.99635683511E+01  0.11356360511E+02  0.24999948903E+00 0.  0.
        -13    1    4    4    0    0 -0.49885991156E+01  0.93808395100E+01  0.98885744008E+01  0.14514861340E+02  0.10500000000E+00 0.  1.
         13    1    4    4    0    0 -0.10016009916E+02  0.18712843431E+02  0.19958796312E+02  0.29135125521E+02  0.10500000000E+00 0. -1.
    3000001    1    5    5    0    0  0.12139210443E+02 -0.34454382109E+02 -0.35779979941E+02  0.51143639304E+02  0.10000000000E+01 0.  1.
        -13    1    6    6    0    0  0.24144755044E+01 -0.22684323666E+01 -0.60721014432E+01  0.69178694914E+01  0.10500000000E+00 0. -1.
         13    1    6    6    0    0  0.16217531215E+01 -0.13840446695E+01 -0.38914669078E+01  0.44384910194E+01  0.10500000000E+00 0.  1.
</event>
<event>
11    0  0.3462209E-009  0.9118800E+02  0.7816531E-02  0.1126479E+00
         25   -1    0    0    0    0  0.00000000000E+00  0.00000000000E+00  0.99999998245E-14  0.12500000000E+03  0.12500000000E+03 0.  0.
    3000001    1    3    3    0    0 -0.15787359463E+02 -0.27086679103E+02  0.45354004288E+02  0.55144488469E+02  0.10000000000E+01 0.  1.
    1000022    2    1    0    0    0 -0.19627886558E+02 -0.32383024740E+02  0.48706631272E+02  0.62499999005E+02  0.99999861883E+01 0.  0.
    3000022    2    3    3    0    0 -0.38405270958E+01 -0.52963456370E+01  0.33526269843E+01  0.73555105360E+01  0.25000413994E+00 0.  0.
    1000022    2    1    0    0    0  0.19627886558E+02  0.32383024740E+02 -0.48706631272E+02  0.62500000995E+02  0.99999986207E+01 0.  0.
    3000022    2    5    5    0    0  0.94899711703E+01  0.83657741961E+01 -0.11784998850E+02  0.17291455422E+02  0.25000399952E+00 0.  0.
        -13    1    4    4    0    0 -0.18893156561E+01 -0.26248358740E+01  0.15822384517E+01  0.36019134542E+01  0.10500000000E+00 0.  1.
         13    1    4    4    0    0 -0.19512114398E+01 -0.26715097630E+01  0.17703885325E+01  0.37535970818E+01  0.10500000000E+00 0. -1.
    3000001    1    5    5    0    0  0.10137915388E+02  0.24017250543E+02 -0.36921632422E+02  0.45208545573E+02  0.10000000000E+01 0.  1.
        -13    1    6    6    0    0  0.32424691903E+01  0.29262599157E+01 -0.40383102449E+01  0.59494183059E+01  0.10500000000E+00 0.  1.
         13    1    6    6    0    0  0.62475019799E+01  0.54395142803E+01 -0.77466886048E+01  0.11342037116E+02  0.10500000000E+00 0. -1.
</event>
<event>
11    0  0.3462209E-009  0.9118800E+02  0.7816531E-02  0.1126479E+00
         25   -1    0    0    0    0  0.00000000000E+00  0.00000000000E+00  0.99999998245E-14  0.12500000000E+03  0.12500000000E+03 0.  0.
    3000001    1    3    3    0    0  0.59683787535E+01 -0.13610198370E+02 -0.54839898638E+02  0.56826697310E+02  0.10000000000E+01 0.  1.
    1000022    2    1    0    0    0  0.91925324097E+01 -0.15908303227E+02 -0.58895442313E+02  0.62500001436E+02  0.10000014529E+02 0.  0.
    3000022    2    3    3    0    0  0.32241536562E+01 -0.22981048569E+01 -0.40555436753E+01  0.56733041255E+01  0.24998493211E+00 0.  0.
    1000022    2    1    0    0    0 -0.91925324097E+01  0.15908303227E+02  0.58895442313E+02  0.62499998564E+02  0.99999965799E+01 0.  0.
    3000022    2    5    5    0    0 -0.10728188490E+02  0.97705974511E+01  0.40950872557E+02  0.43446462002E+02  0.24998898699E+00 0.  0.
        -13    1    4    4    0    0  0.82704253634E+00 -0.56247952098E+00 -0.10531152807E+01  0.14561797152E+01  0.10500000000E+00 0.  1.
         13    1    4    4    0    0  0.23971111198E+01 -0.17356253359E+01 -0.30024283945E+01  0.42171244103E+01  0.10500000000E+00 0. -1.
    3000001    1    5    5    0    0  0.15356560803E+01  0.61377057761E+01  0.17944569756E+02  0.19053536562E+02  0.10000000000E+01 0. -1.
        -13    1    6    6    0    0 -0.40616057811E+01  0.36252428180E+01  0.15440973809E+02  0.16372957099E+02  0.10500000000E+00 0. -1.
         13    1    6    6    0    0 -0.66665827090E+01  0.61453546332E+01  0.25509898748E+02  0.27073504902E+02  0.10500000000E+00 0.  1.
</event>
<event>
11    0  0.3462209E-009  0.9118800E+02  0.7816531E-02  0.1126479E+00
         25   -1    0    0    0    0  0.00000000000E+00  0.00000000000E+00  0.99999998245E-14  0.12500000000E+03  0.12500000000E+03 0.  0.
    3000001    1    3    3    0    0  0.35630067525E+01  0.16946703777E+01 -0.72461009020E+01  0.83110109547E+01  0.10000000000E+01 0.  1.
    1000022    2    1    0    0    0  0.29992583062E+02 -0.11524239624E+02 -0.52667700753E+02  0.62499997995E+02  0.99999954582E+01 0.  0.
    3000022    2    3    3    0    0  0.26429576310E+02 -0.13218910001E+02 -0.45421599851E+02  0.54188987041E+02  0.24999586038E+00 0.  0.
    1000022    2    1    0    0    0 -0.29992583062E+02  0.11524239624E+02  0.52667700753E+02  0.62500002005E+02  0.10000020516E+02 0.  0.
    3000022    2    5    5    0    0 -0.29894662129E+02  0.10291459644E+02  0.47242311170E+02  0.56846314083E+02  0.24998945784E+00 0.  0.
        -13    1    4    4    0    0  0.12331611861E+02 -0.61428986114E+01 -0.21059542028E+02  0.25165833781E+02  0.10500000000E+00 0.  1.
         13    1    4    4    0    0  0.14097964449E+02 -0.70760113900E+01 -0.24362057823E+02  0.29023153260E+02  0.10500000000E+00 0. -1.
    3000001    1    5    5    0    0 -0.97920933285E-01  0.12327799802E+01  0.54253895833E+01  0.56536879220E+01  0.10000000000E+01 0.  1.
        -13    1    6    6    0    0 -0.13938088508E+02  0.47597648205E+01  0.22109307378E+02  0.26566109428E+02  0.10500000000E+00 0. -1.
         13    1    6    6    0    0 -0.15956573621E+02  0.55316948231E+01  0.25133003792E+02  0.30280204655E+02  0.10500000000E+00 0.  1.
</event>
<event>
11    0  0.3462209E-009  0.9118800E+02  0.7816531E-02  0.1126479E+00
         25   -1    0    0    0    0  0.00000000000E+00  0.00000000000E+00  0.99999998245E-14  0.12500000000E+03  0.12500000000E+03 0.  0.
    3000001    1    3    3    0    0  0.33898027291E+01 -0.92703452508E+01 -0.52508595469E+01  0.11225042966E+02  0.10000000000E+01 0.  1.
    1000022    2    1    0    0    0  0.12552909428E+02 -0.40013934126E+02 -0.45249962742E+02  0.62500003083E+02  0.10000039891E+02 0.  0.
    3000022    2    3    3    0    0  0.91631066985E+01 -0.30743588875E+02 -0.39999103195E+02  0.51274960116E+02  0.24999442561E+00 0.  0.
    1000022    2    1    0    0    0 -0.12552909428E+02  0.40013934126E+02  0.45249962742E+02  0.62499996917E+02  0.10000001359E+02 0.  0.
    3000022    2    5    5    0    0 -0.28926411151E+01  0.11563717298E+02  0.69129681281E+01  0.13781819843E+02  0.24999894785E+00 0.  0.
        -13    1    4    4    0    0  0.67281576793E+01 -0.22522070195E+02 -0.29357816958E+02  0.37608565423E+02  0.10500000000E+00 0. -1.
         13    1    4    4    0    0  0.24349490192E+01 -0.82215186804E+01 -0.10641286238E+02  0.13666394694E+02  0.10500000000E+00 0.  1.
    3000001    1    5    5    0    0 -0.96602683125E+01  0.28450216828E+02  0.38336994614E+02  0.48718177075E+02  0.10000000000E+01 0.  1.
        -13    1    6    6    0    0 -0.95215875229E+00  0.36099717127E+01  0.21796306499E+01  0.43243862947E+01  0.10500000000E+00 0.  1.
         13    1    6    6    0    0 -0.19404823628E+01  0.79537455850E+01  0.47333374783E+01  0.94574335480E+01  0.10500000000E+00 0. -1.
</event>
<event>
11    0  0.3462209E-009  0.9118800E+02  0.7816531E-02  0.1126479E+00
         25   -1    0    0    0    0  0.00000000000E+00  0.00000000000E+00  0.99999998245E-14  0.12500000000E+03  0.12500000000E+03 0.  0.
    3000001    1    3    3    0    0  0.11491722691E+02  0.30018040086E+02 -0.51909842044E+02  0.61063689063E+02  0.10000000000E+01 0.  1.
    1000022    2    1    0    0    0  0.10726746565E+02  0.29636258123E+02 -0.53036583150E+02  0.62499999486E+02  0.99999948060E+01 0.  0.
    3000022    2    3    3    0    0 -0.76497612508E+00 -0.38178196236E+00 -0.11267411065E+01  0.14363104234E+01  0.24999234488E+00 0.  0.
    1000022    2    1    0    0    0 -0.10726746565E+02 -0.29636258123E+02  0.53036583150E+02  0.62500000514E+02  0.10000001225E+02 0.  0.
    3000022    2    5    5    0    0 -0.19051404331E+01 -0.51671080702E+01  0.18174809744E+02  0.18992492149E+02  0.24996581854E+00 0.  0.
        -13    1    4    4    0    0 -0.30931849183E+00 -0.15420805780E+00 -0.56688399330E+00  0.67219083327E+00  0.10500000000E+00 0. -1.
         13    1    4    4    0    0 -0.45565763325E+00 -0.22757390456E+00 -0.55985711317E+00  0.76411959008E+00  0.10500000000E+00 0.  1.
    3000001    1    5    5    0    0 -0.88216061323E+01 -0.24469150053E+02  0.34861773406E+02  0.43507508365E+02  0.10000000000E+01 0.  1.
        -13    1    6    6    0    0 -0.12876373530E+01 -0.33683193330E+01  0.11771752108E+02  0.12312138635E+02  0.10500000000E+00 0. -1.
         13    1    6    6    0    0 -0.61750308017E+00 -0.17987887371E+01  0.64030576362E+01  0.66803535137E+01  0.10500000000E+00 0.  1.
</event>
<event>
11    0  0.3462209E-009  0.9118800E+02  0.7816531E-02  0.1126479E+00
         25   -1    0    0    0    0  0.00000000000E+00  0.00000000000E+00  0.99999998245E-14  0.12500000000E+03  0.12500000000E+03 0.  0.
    3000001    1    3    3    0    0 -0.15849270249E+02 -0.16183115187E+02  0.36098756635E+01  0.22959176529E+02  0.10000000000E+01 0. -1.
    1000022    2    1    0    0    0 -0.48321388094E+02 -0.34475658192E+02  0.16814362211E+02  0.62499997620E+02  0.99999685477E+01 0.  0.
    3000022    2    3    3    0    0 -0.32472117845E+02 -0.18292543005E+02  0.13204486547E+02  0.39540821092E+02  0.25000143690E+00 0.  0.
    1000022    2    1    0    0    0  0.48321388094E+02  0.34475658192E+02 -0.16814362211E+02  0.62500002380E+02  0.99999982920E+01 0.  0.
    3000022    2    5    5    0    0  0.37188913433E+02  0.21169415687E+02 -0.12774211850E+02  0.44658732901E+02  0.24998620574E+00 0.  0.
        -13    1    4    4    0    0 -0.14304255987E+02 -0.81010682666E+01  0.58820971476E+01  0.17459929503E+02  0.10500000000E+00 0.  1.
         13    1    4    4    0    0 -0.18167861858E+02 -0.10191474738E+02  0.73223893998E+01  0.22080891588E+02  0.10500000000E+00 0. -1.
    3000001    1    5    5    0    0  0.11132474661E+02  0.13306242504E+02 -0.40401503605E+01  0.17841269478E+02  0.10000000000E+01 0.  1.
        -13    1    6    6    0    0  0.22208993220E+02  0.12698875745E+02 -0.75955468906E+01  0.26687153887E+02  0.10500000000E+00 0. -1.
         13    1    6    6    0    0  0.14979920213E+02  0.84705399426E+01 -0.51786649598E+01  0.17971579014E+02  0.10500000000E+00 0.  1.
</event>
<event>
11    0  0.3462209E-009  0.9118800E+02  0.7816531E-02  0.1126479E+00
         25   -1    0    0    0    0  0.00000000000E+00  0.00000000000E+00  0.99999998245E-14  0.12500000000E+03  0.12500000000E+03 0.  0.
    3000001    1    3    3    0    0  0.10897168345E+02  0.60177123922E-01 -0.34836683245E+00  0.10948664699E+02  0.10000000000E+01 0.  1.
    1000022    2    1    0    0    0  0.57448429321E+02  0.80991543352E+01 -0.20984087562E+02  0.62500003409E+02  0.10000008144E+02 0.  0.
    3000022    2    3    3    0    0  0.46551260976E+02  0.80389772112E+01 -0.20635720729E+02  0.51551338710E+02  0.24999948961E+00 0.  0.
    1000022    2    1    0    0    0 -0.57448429321E+02 -0.80991543352E+01  0.20984087562E+02  0.62499996591E+02  0.99999655333E+01 0.  0.
    3000022    2    5    5    0    0 -0.47892276688E+02 -0.10210362431E+02  0.18557494945E+02  0.52367592903E+02  0.25000093233E+00 0.  0.
        -13    1    4    4    0    0  0.21614481669E+02  0.37628688132E+01 -0.95179882993E+01  0.23915436977E+02  0.10500000000E+00 0.  1.
         13    1    4    4    0    0  0.24936779306E+02  0.42761083981E+01 -0.11117732430E+02  0.27635901733E+02  0.10500000000E+00 0. -1.
    3000001    1    5    5    0    0 -0.95561526329E+01  0.21112080960E+01  0.24265926164E+01  0.10132403688E+02  0.10000000000E+01 0.  1.
        -13    1    6    6    0    0 -0.21534688041E+02 -0.46206057998E+01  0.84109438700E+01  0.23576424427E+02  0.10500000000E+00 0.  1.
         13    1    6    6    0    0 -0.26357588647E+02 -0.55897566313E+01  0.10146551075E+02  0.28791168476E+02  0.10500000000E+00 0. -1.
</event>
<event>
11    0  0.3462209E-009  0.9118800E+02  0.7816531E-02  0.1126479E+00
         25   -1    0    0    0    0  0.00000000000E+00  0.00000000000E+00  0.99999998245E-14  0.12500000000E+03  0.12500000000E+03 0.  0.
    3000001    1    3    3    0    0 -0.20815224769E+02  0.11909198479E+02  0.22397014869E+01  0.24106406894E+02  0.10000000000E+01 0.  1.
    1000022    2    1    0    0    0 -0.46359787219E+02  0.39144315719E+02  0.11168822089E+02  0.62499999748E+02  0.10000002876E+02 0.  0.
    3000022    2    3    3    0    0 -0.25544562451E+02  0.27235117240E+02  0.89291206023E+01  0.38393592854E+02  0.24999130599E+00 0.  0.
    1000022    2    1    0    0    0  0.46359787219E+02 -0.39144315719E+02 -0.11168822089E+02  0.62500000252E+02  0.10000006026E+02 0.  0.
    3000022    2    5    5    0    0  0.17847647400E+02 -0.14232195529E+02 -0.90754973107E+01  0.24566665860E+02  0.25002554077E+00 0.  0.
        -13    1    4    4    0    0 -0.11286355731E+02  0.11975070570E+02  0.38806875804E+01  0.16907244067E+02  0.10500000000E+00 0.  1.
         13    1    4    4    0    0 -0.14258206720E+02  0.15260046670E+02  0.50484330219E+01  0.21486348787E+02  0.10500000000E+00 0. -1.
    3000001    1    5    5    0    0  0.28512139819E+02 -0.24912120190E+02 -0.20933247785E+01  0.37933334392E+02  0.10000000000E+01 0.  1.
        -13    1    6    6    0    0  0.76906628953E+01 -0.62112119440E+01 -0.39556548805E+01  0.10648177314E+02  0.10500000000E+00 0.  1.
         13    1    6    6    0    0  0.10156984505E+02 -0.80209835848E+01 -0.51198424301E+01  0.13918488546E+02  0.10500000000E+00 0. -1.
</event>
<event>
11    0  0.3462209E-009  0.9118800E+02  0.7816531E-02  0.1126479E+00
         25   -1    0    0    0    0  0.00000000000E+00  0.00000000000E+00  0.99999998245E-14  0.12500000000E+03  0.12500000000E+03 0.  0.
    3000001    1    3    3    0    0 -0.32782391521E+00  0.25507626870E+01  0.12772536553E+01  0.30405979189E+01  0.10000000000E+01 0. -1.
    1000022    2    1    0    0    0 -0.10123383342E+02  0.59594395331E+02 -0.12339977886E+02  0.62500000152E+02  0.10000005976E+02 0.  0.
    3000022    2    3    3    0    0 -0.97955594270E+01  0.57043632645E+02 -0.13617231541E+02  0.59459402233E+02  0.25001852603E+00 0.  0.
    1000022    2    1    0    0    0  0.10123383342E+02 -0.59594395331E+02  0.12339977886E+02  0.62499999848E+02  0.10000004080E+02 0.  0.
    3000022    2    5    5    0    0  0.77033960771E+01 -0.37820284859E+02  0.31651665591E+01  0.38727213135E+02  0.24999987290E+00 0.  0.
        -13    1    4    4    0    0 -0.33841896321E+01  0.19437893084E+02 -0.46734692287E+01  0.20276507753E+02  0.10500000000E+00 0. -1.
         13    1    4    4    0    0 -0.64113697948E+01  0.37605739560E+02 -0.89437623123E+01  0.39182894480E+02  0.10500000000E+00 0.  1.
    3000001    1    5    5    0    0  0.24199872651E+01 -0.21774110473E+02  0.91748113265E+01  0.23772786713E+02  0.10000000000E+01 0. -1.
        -13    1    6    6    0    0  0.42895034802E+01 -0.21094828002E+02  0.16991770660E+01  0.21593745304E+02  0.10500000000E+00 0. -1.
         13    1    6    6    0    0  0.34138925969E+01 -0.16725456856E+02  0.14659894931E+01  0.17133467831E+02  0.10500000000E+00 0.  1.
</event>
<event>
11    0  0.3462209E-009  0.9118800E+02  0.7816531E-02  0.1126479E+00
         25   -1    0    0    0    0  0.00000000000E+00  0.00000000000E+00  0.99999998245E-14  0.12500000000E+03  0.12500000000E+03 0.  0.
    3000001    1    3    3    0    0 -0.35972606201E+02  0.18905621569E+02 -0.34242100919E+02  0.53150469416E+02  0.10000000000E+01 0. -1.
    1000022    2    1    0    0    0 -0.44620017710E+02  0.21154419948E+02 -0.36983707656E+02  0.62500000308E+02  0.99999971332E+01 0.  0.
    3000022    2    3    3    0    0 -0.86474115095E+01  0.22487983792E+01 -0.27416067371E+01  0.93495308918E+01  0.25000086131E+00 0.  0.
    1000022    2    1    0    0    0  0.44620017710E+02 -0.21154419948E+02  0.36983707656E+02  0.62499999692E+02  0.99999932845E+01 0.  0.
    3000022    2    5    5    0    0  0.30596576119E+02 -0.10848806976E+02  0.19816736073E+02  0.38034360805E+02  0.24998052689E+00 0.  0.
        -13    1    4    4    0    0 -0.60950108549E+01  0.16298844437E+01 -0.19437275530E+01  0.66026345061E+01  0.10500000000E+00 0.  1.
         13    1    4    4    0    0 -0.25524006546E+01  0.61891393554E+00 -0.79787918415E+00  0.27468963857E+01  0.10500000000E+00 0. -1.
    3000001    1    5    5    0    0  0.14023441591E+02 -0.10305612973E+02  0.17166971584E+02  0.24465638887E+02  0.10000000000E+01 0.  1.
        -13    1    6    6    0    0  0.10537559994E+02 -0.36970009167E+01  0.68654130524E+01  0.13109268011E+02  0.10500000000E+00 0.  1.
         13    1    6    6    0    0  0.20059016125E+02 -0.71518060589E+01  0.12951323020E+02  0.24925092794E+02  0.10500000000E+00 0. -1.
</event>
<event>
11    0  0.3462209E-009  0.9118800E+02  0.7816531E-02  0.1126479E+00
         25   -1    0    0    0    0  0.00000000000E+00  0.00000000000E+00  0.99999998245E-14  0.12500000000E+03  0.12500000000E+03 0.  0.
    3000001    1    3    3    0    0  0.34620489053E+02 -0.28230485845E+02  0.15390841352E+02  0.47259037134E+02  0.10000000000E+01 0. -1.
    1000022    2    1    0    0    0  0.48179747071E+02 -0.32281769958E+02  0.21043986237E+02  0.62499999235E+02  0.99999924103E+01 0.  0.
    3000022    2    3    3    0    0  0.13559258019E+02 -0.40512841122E+01  0.56531448849E+01  0.15240962101E+02  0.24999540991E+00 0.  0.
    1000022    2    1    0    0    0 -0.48179747071E+02  0.32281769958E+02 -0.21043986237E+02  0.62500000765E+02  0.10000001971E+02 0.  0.
    3000022    2    5    5    0    0 -0.41167011086E+02  0.25128213568E+02 -0.20533166466E+02  0.52419684705E+02  0.25000123332E+00 0.  0.
        -13    1    4    4    0    0  0.75768231641E+01 -0.23024780433E+01  0.31042113731E+01  0.85062804826E+01  0.10500000000E+00 0.  1.
         13    1    4    4    0    0  0.59824348546E+01 -0.17488060689E+01  0.25489335119E+01  0.67346816186E+01  0.10500000000E+00 0. -1.
    3000001    1    5    5    0    0 -0.70127359859E+01  0.71535563897E+01 -0.51081977037E+00  0.10080316060E+02  0.10000000000E+01 0.  1.
        -13    1    6    6    0    0 -0.28332000859E+02  0.17263515139E+02 -0.14079375660E+02  0.36041241261E+02  0.10500000000E+00 0.  1.
         13    1    6    6    0    0 -0.12835010226E+02  0.78646984291E+01 -0.64537908060E+01  0.16378443444E+02  0.10500000000E+00 0. -1.
</event>
<event>
11    0  0.3462209E-009  0.9118800E+02  0.7816531E-02  0.1126479E+00
         25   -1    0    0    0    0  0.00000000000E+00  0.00000000000E+00  0.99999998245E-14  0.12500000000E+03  0.12500000000E+03 0.  0.
    3000001    1    3    3    0    0  0.41078000998E-01 -0.82710393311E+01 -0.25643919187E+01  0.87171030125E+01  0.10000000000E+01 0. -1.
    1000022    2    1    0    0    0 -0.12770157383E+02 -0.48833439261E+02 -0.35474908509E+02  0.62500005889E+02  0.99999946339E+01 0.  0.
    3000022    2    3    3    0    0 -0.12811235384E+02 -0.40562399930E+02 -0.32910516591E+02  0.53782902876E+02  0.24999873955E+00 0.  0.
    1000022    2    1    0    0    0  0.12770157383E+02  0.48833439261E+02  0.35474908509E+02  0.62499994111E+02  0.99999210237E+01 0.  0.
    3000022    2    5    5    0    0  0.23027658889E+01  0.26855628960E+02  0.16347990294E+02  0.31525336231E+02  0.25000059206E+00 0.  0.
        -13    1    4    4    0    0 -0.57156963233E+01 -0.18045037906E+02 -0.14563185548E+02  0.23882838520E+02  0.10500000000E+00 0.  1.
         13    1    4    4    0    0 -0.70955390610E+01 -0.22517362024E+02 -0.18347331043E+02  0.29900064356E+02  0.10500000000E+00 0. -1.
    3000001    1    5    5    0    0  0.10467391494E+02  0.21977810302E+02  0.19126918216E+02  0.30974657880E+02  0.10000000000E+01 0. -1.
        -13    1    6    6    0    0  0.11306914538E+01  0.12621447618E+02  0.77407124976E+01  0.14849547404E+02  0.10500000000E+00 0.  1.
         13    1    6    6    0    0  0.11720744351E+01  0.14234181342E+02  0.86072777960E+01  0.16675788827E+02  0.10500000000E+00 0. -1.
</event>
<event>
11    0  0.3462209E-009  0.9118800E+02  0.7816531E-02  0.1126479E+00
         25   -1    0    0    0    0  0.00000000000E+00  0.00000000000E+00  0.99999998245E-14  0.12500000000E+03  0.12500000000E+03 0.  0.
    3000001    1    3    3    0    0  0.21239339912E+02  0.34986546263E+00  0.35355759632E+01  0.21557649759E+02  0.10000000000E+01 0.  1.
    1000022    2    1    0    0    0  0.61560623575E+02  0.24491992637E+01 -0.32468179042E+01  0.62500005409E+02  0.99999948814E+01 0.  0.
    3000022    2    3    3    0    0  0.40321283663E+02  0.20993338011E+01 -0.67823938675E+01  0.40942355650E+02  0.25000189194E+00 0.  0.
    1000022    2    1    0    0    0 -0.61560623575E+02 -0.24491992637E+01  0.32468179042E+01  0.62499994591E+02  0.99999272712E+01 0.  0.
    3000022    2    5    5    0    0 -0.50416951860E+02 -0.28735125203E+01  0.63098811396E+01  0.50892074131E+02  0.25000057657E+00 0.  0.
        -13    1    4    4    0    0  0.27276942107E+02  0.13829716770E+01 -0.45516575574E+01  0.27688856837E+02  0.10500000000E+00 0.  1.
         13    1    4    4    0    0  0.13044341555E+02  0.71636212408E+00 -0.22307363101E+01  0.13253498813E+02  0.10500000000E+00 0. -1.
    3000001    1    5    5    0    0 -0.11143671715E+02  0.42431325657E+00 -0.30630632353E+01  0.11607920460E+02  0.10000000000E+01 0. -1.
        -13    1    6    6    0    0 -0.24054942796E+02 -0.13366320041E+01  0.30689997753E+01  0.24286964460E+02  0.10500000000E+00 0.  1.
         13    1    6    6    0    0 -0.26362009064E+02 -0.15368805161E+01  0.32408813642E+01  0.26605109671E+02  0.10500000000E+00 0. -1.
</event>
<event>
11    0  0.3462209E-009  0.9118800E+02  0.7816531E-02  0.1126479E+00
         25   -1    0    0    0    0  0.00000000000E+00  0.00000000000E+00  0.99999998245E-14  0.12500000000E+03  0.12500000000E+03 0.  0.
    3000001    1    3    3    0    0 -0.29801358856E+01 -0.12686677353E+01 -0.27780135279E+01  0.43827031477E+01  0.10000000000E+01 0.  1.
    1000022    2    1    0    0    0 -0.13302516746E+02 -0.27403447478E+02 -0.53650201887E+02  0.62500000973E+02  0.10000003678E+02 0.  0.
    3000022    2    3    3    0    0 -0.10322380861E+02 -0.26134779743E+02 -0.50872188359E+02  0.58117297825E+02  0.24999832114E+00 0.  0.
    1000022    2    1    0    0    0  0.13302516746E+02  0.27403447478E+02  0.53650201887E+02  0.62499999027E+02  0.99999915200E+01 0.  0.
    3000022    2    5    5    0    0  0.38040379688E+01  0.17986302930E+02  0.27011217530E+02  0.32674855304E+02  0.24999745763E+00 0.  0.
        -13    1    4    4    0    0 -0.43943948422E+01 -0.11251746297E+02 -0.21965202369E+02  0.25067780932E+02  0.10500000000E+00 0.  1.
         13    1    4    4    0    0 -0.59279860185E+01 -0.14883033446E+02 -0.28906985990E+02  0.33049516893E+02  0.10500000000E+00 0. -1.
    3000001    1    5    5    0    0  0.94984787776E+01  0.94171445480E+01  0.26638984357E+02  0.29825143723E+02  0.10000000000E+01 0. -1.
        -13    1    6    6    0    0  0.13487654811E+01  0.66307768440E+01  0.98932456121E+01  0.11986396607E+02  0.10500000000E+00 0.  1.
         13    1    6    6    0    0  0.24552724876E+01  0.11355526086E+02  0.17117971918E+02  0.20688458697E+02  0.10500000000E+00 0. -1.
</event>
<event>
11    0  0.3462209E-009  0.9118800E+02  0.7816531E-02  0.1126479E+00
         25   -1    0    0    0    0  0.00000000000E+00  0.00000000000E+00  0.99999998245E-14  0.12500000000E+03  0.12500000000E+03 0.  0.
    3000001    1    3    3    0    0 -0.37118828602E+01  0.51075231917E+02  0.19103930786E+02  0.54666420783E+02  0.10000000000E+01 0. -1.
    1000022    2    1    0    0    0 -0.14065192822E+01  0.56903422322E+02  0.23796473413E+02  0.62500000605E+02  0.10000008015E+02 0.  0.
    3000022    2    3    3    0    0  0.23053635780E+01  0.58281904053E+01  0.46925426271E+01  0.78335798226E+01  0.25002380278E+00 0.  0.
    1000022    2    1    0    0    0  0.14065192822E+01 -0.56903422322E+02 -0.23796473413E+02  0.62499999395E+02  0.10000000450E+02 0.  0.
    3000022    2    5    5    0    0  0.43431969549E+01 -0.13011010870E+02 -0.43470123503E+01  0.14391274672E+02  0.25001332465E+00 0.  0.
        -13    1    4    4    0    0  0.11913799974E+01  0.30223454060E+01  0.23477563492E+01  0.40096063306E+01  0.10500000000E+00 0.  1.
         13    1    4    4    0    0  0.11139835806E+01  0.28058449993E+01  0.23447862779E+01  0.38239734919E+01  0.10500000000E+00 0. -1.
    3000001    1    5    5    0    0 -0.29366776727E+01 -0.43892411452E+02 -0.19449461062E+02  0.48108724723E+02  0.10000000000E+01 0. -1.
        -13    1    6    6    0    0  0.15071102521E+01 -0.45319283460E+01 -0.15724869577E+01  0.50292639697E+01  0.10500000000E+00 0. -1.
         13    1    6    6    0    0  0.28360867029E+01 -0.84790825239E+01 -0.27745253926E+01  0.93620107022E+01  0.10500000000E+00 0.  1.
</event>
<event>
11    0  0.3462209E-009  0.9118800E+02  0.7816531E-02  0.1126479E+00
         25   -1    0    0    0    0  0.00000000000E+00  0.00000000000E+00  0.99999998245E-14  0.12500000000E+03  0.12500000000E+03 0.  0.
    3000001    1    3    3    0    0 -0.15521585071E+02 -0.42608746853E+02 -0.18529719609E+02  0.48997708317E+02  0.10000000000E+01 0.  1.
    1000022    2    1    0    0    0 -0.21541294990E+02 -0.54690489198E+02 -0.18739602298E+02  0.62500002648E+02  0.10000031908E+02 0.  0.
    3000022    2    3    3    0    0 -0.60197099188E+01 -0.12081742344E+02 -0.20988268825E+00  0.13502294330E+02  0.24999172681E+00 0.  0.
    1000022    2    1    0    0    0  0.21541294990E+02  0.54690489198E+02  0.18739602298E+02  0.62499997352E+02  0.99999988141E+01 0.  0.
    3000022    2    5    5    0    0  0.29800076703E+01  0.28966023813E+01  0.33953318206E+01  0.53722918589E+01  0.24998114915E+00 0.  0.
        -13    1    4    4    0    0 -0.35582350552E+01 -0.70075752876E+01 -0.97484617487E-01  0.78605137472E+01  0.10500000000E+00 0.  1.
         13    1    4    4    0    0 -0.24614748637E+01 -0.50741670566E+01 -0.11239807077E+00  0.56417805832E+01  0.10500000000E+00 0. -1.
    3000001    1    5    5    0    0  0.18561287319E+02  0.51793886816E+02  0.15344270477E+02  0.57127705494E+02  0.10000000000E+01 0.  1.
        -13    1    6    6    0    0  0.17000375034E+01  0.17200892951E+01  0.20296663095E+01  0.31590196302E+01  0.10500000000E+00 0.  1.
         13    1    6    6    0    0  0.12799701669E+01  0.11765130863E+01  0.13656655110E+01  0.22132722287E+01  0.10500000000E+00 0. -1.
</event>
<event>
11    0  0.3462209E-009  0.9118800E+02  0.7816531E-02  0.1126479E+00
         25   -1    0    0    0    0  0.00000000000E+00  0.00000000000E+00  0.99999998245E-14  0.12500000000E+03  0.12500000000E+03 0.  0.
    3000001    1    3    3    0    0  0.13504949918E+02  0.24246612059E+02  0.33930775646E+02  0.43847228014E+02  0.10000000000E+01 0. -1.
    1000022    2    1    0    0    0  0.15012045723E+02  0.30702293997E+02  0.51363969714E+02  0.62500000578E+02  0.10000015700E+02 0.  0.
    3000022    2    3    3    0    0  0.15070958047E+01  0.64556819385E+01  0.17433194068E+02  0.18652772563E+02  0.25000368055E+00 0.  0.
    1000022    2    1    0    0    0 -0.15012045723E+02 -0.30702293997E+02 -0.51363969714E+02  0.62499999422E+02  0.10000008478E+02 0.  0.
    3000022    2    5    5    0    0 -0.13433768177E+02 -0.24968891519E+02 -0.47558305798E+02  0.55369365381E+02  0.25000238394E+00 0.  0.
        -13    1    4    4    0    0  0.10169711881E+01  0.41750035604E+01  0.11406065687E+02  0.12189103519E+02  0.10500000000E+00 0. -1.
         13    1    4    4    0    0  0.49012461659E+00  0.22806783781E+01  0.60271283807E+01  0.64636690448E+01  0.10500000000E+00 0.  1.
    3000001    1    5    5    0    0 -0.15782775463E+01 -0.57334024783E+01 -0.38056639152E+01  0.71306340410E+01  0.10000000000E+01 0.  1.
        -13    1    6    6    0    0 -0.88899647095E+01 -0.16423613606E+02 -0.31269380144E+02  0.36421857668E+02  0.10500000000E+00 0.  1.
         13    1    6    6    0    0 -0.45438034670E+01 -0.85452779132E+01 -0.16288925654E+02  0.18947507713E+02  0.10500000000E+00 0. -1.
</event>
<event>
11    0  0.3462209E-009  0.9118800E+02  0.7816531E-02  0.1126479E+00
         25   -1    0    0    0    0  0.00000000000E+00  0.00000000000E+00  0.99999998245E-14  0.12500000000E+03  0.12500000000E+03 0.  0.
    3000001    1    3    3    0    0 -0.55102240075E+00 -0.26458585496E+02  0.40455114905E+02  0.48352628617E+02  0.10000000000E+01 0.  1.
    1000022    2    1    0    0    0 -0.34187292135E+01 -0.37404084669E+02  0.48943810259E+02  0.62500000850E+02  0.10000014213E+02 0.  0.
    3000022    2    3    3    0    0 -0.28677068128E+01 -0.10945499173E+02  0.84886953531E+01  0.14147372233E+02  0.24999559397E+00 0.  0.
    1000022    2    1    0    0    0  0.34187292135E+01  0.37404084669E+02 -0.48943810259E+02  0.62499999150E+02  0.10000003587E+02 0.  0.
    3000022    2    5    5    0    0  0.25530550497E+01  0.42431811603E+01 -0.29057609818E+01  0.57470530194E+01  0.24999015653E+00 0.  0.
        -13    1    4    4    0    0 -0.19991557786E+01 -0.76781027772E+01  0.58966462719E+01  0.98859166667E+01  0.10500000000E+00 0.  1.
         13    1    4    4    0    0 -0.86855103416E+00 -0.32673963958E+01  0.25920490812E+01  0.42614555665E+01  0.10500000000E+00 0. -1.
    3000001    1    5    5    0    0  0.86567416382E+00  0.33160903509E+02 -0.46038049277E+02  0.56752946131E+02  0.10000000000E+01 0. -1.
        -13    1    6    6    0    0  0.18550669955E+01  0.31035687146E+01 -0.21598403129E+01  0.42129974485E+01  0.10500000000E+00 0.  1.
         13    1    6    6    0    0  0.69798805424E+00  0.11396124457E+01 -0.74592066888E+00  0.15340555709E+01  0.10500000000E+00 0. -1.
</event>
<event>
11    0  0.3462209E-009  0.9118800E+02  0.7816531E-02  0.1126479E+00
         25   -1    0    0    0    0  0.00000000000E+00  0.00000000000E+00  0.99999998245E-14  0.12500000000E+03  0.12500000000E+03 0.  0.
    3000001    1    3    3    0    0 -0.13166959473E+02  0.66584798553E+01 -0.14448819782E+02  0.20675409762E+02  0.10000000000E+01 0. -1.
    1000022    2    1    0    0    0 -0.28076903189E+02  0.26254488214E+02 -0.48255976981E+02  0.62499999675E+02  0.10000000049E+02 0.  0.
    3000022    2    3    3    0    0 -0.14909943716E+02  0.19596008359E+02 -0.33807157199E+02  0.41824589913E+02  0.24995660825E+00 0.  0.
    1000022    2    1    0    0    0  0.28076903189E+02 -0.26254488214E+02  0.48255976981E+02  0.62500000325E+02  0.10000004107E+02 0.  0.
    3000022    2    5    5    0    0  0.24188020214E+02 -0.26210257939E+02  0.42522252946E+02  0.55499931867E+02  0.24999696205E+00 0.  0.
        -13    1    4    4    0    0 -0.10217008546E+02  0.13418607401E+02 -0.23238876753E+02  0.28714155150E+02  0.10500000000E+00 0. -1.
         13    1    4    4    0    0 -0.46929351696E+01  0.61774009577E+01 -0.10568280446E+02  0.13110434763E+02  0.10500000000E+00 0.  1.
    3000001    1    5    5    0    0  0.38888829753E+01 -0.44230275062E-01  0.57337240345E+01  0.70000684580E+01  0.10000000000E+01 0. -1.
        -13    1    6    6    0    0  0.12727546152E+02 -0.13882593333E+02  0.22496982731E+02  0.29340110526E+02  0.10500000000E+00 0. -1.
         13    1    6    6    0    0  0.11460474062E+02 -0.12327664606E+02  0.20025270215E+02  0.26159821340E+02  0.10500000000E+00 0.  1.
</event>
<event>
11    0  0.3462209E-009  0.9118800E+02  0.7816531E-02  0.1126479E+00
         25   -1    0    0    0    0  0.00000000000E+00  0.00000000000E+00  0.99999998245E-14  0.12500000000E+03  0.12500000000E+03 0.  0.
    3000001    1    3    3    0    0  0.21832499717E+01  0.44578947328E+02  0.29437645427E+02  0.53475453187E+02  0.10000000000E+01 0. -1.
    1000022    2    1    0    0    0  0.23045901303E+01  0.53524667271E+02  0.30594911930E+02  0.62499998151E+02  0.99999995347E+01 0.  0.
    3000022    2    3    3    0    0  0.12134015855E+00  0.89457199427E+01  0.11572665038E+01  0.90245449635E+01  0.25003461638E+00 0.  0.
    1000022    2    1    0    0    0 -0.23045901303E+01 -0.53524667271E+02 -0.30594911930E+02  0.62500001849E+02  0.10000022650E+02 0.  0.
    3000022    2    5    5    0    0 -0.26820709372E+01 -0.47993619714E+02 -0.30375718173E+02  0.56862358304E+02  0.24999929007E+00 0.  0.
        -13    1    4    4    0    0 -0.12868082549E-01  0.39009948585E+01  0.50931037584E+00  0.39355239210E+01  0.10500000000E+00 0.  1.
         13    1    4    4    0    0  0.13420824110E+00  0.50447250842E+01  0.64795612793E+00  0.50890210425E+01  0.10500000000E+00 0. -1.
    3000001    1    5    5    0    0  0.37748080694E+00 -0.55310475571E+01 -0.21919375764E+00  0.56376435452E+01  0.10000000000E+01 0.  1.
        -13    1    6    6    0    0 -0.16347428239E+01 -0.28628914511E+02 -0.18058051705E+02  0.33887923904E+02  0.10500000000E+00 0.  1.
         13    1    6    6    0    0 -0.10473281134E+01 -0.19364705203E+02 -0.12317666468E+02  0.22974434400E+02  0.10500000000E+00 0. -1.
</event>
<event>
11    0  0.3462209E-009  0.9118800E+02  0.7816531E-02  0.1126479E+00
         25   -1    0    0    0    0  0.00000000000E+00  0.00000000000E+00  0.99999998245E-14  0.12500000000E+03  0.12500000000E+03 0.  0.
    3000001    1    3    3    0    0  0.19657858551E+01  0.22250839576E+01 -0.10592679668E+02  0.11046274267E+02  0.10000000000E+01 0. -1.
    1000022    2    1    0    0    0  0.99579176608E+00 -0.56949579758E+01 -0.61423334507E+02  0.62500000245E+02  0.99999930553E+01 0.  0.
    3000022    2    3    3    0    0 -0.96999408905E+00 -0.79200419334E+01 -0.50830654839E+02  0.51453725978E+02  0.24998571174E+00 0.  0.
    1000022    2    1    0    0    0 -0.99579176608E+00  0.56949579758E+01  0.61423334507E+02  0.62499999755E+02  0.99999899916E+01 0.  0.
    3000022    2    5    5    0    0 -0.26767295521E+01 -0.18583870236E+01  0.10955472720E+02  0.11432557623E+02  0.25001573374E+00 0.  0.
        -13    1    4    4    0    0 -0.51066153276E+00 -0.38729457964E+01 -0.25254891198E+02  0.25555450276E+02  0.10500000000E+00 0.  1.
         13    1    4    4    0    0 -0.45933255628E+00 -0.40470961370E+01 -0.25575763641E+02  0.25898275702E+02  0.10500000000E+00 0. -1.
    3000001    1    5    5    0    0  0.16809377861E+01  0.75533449995E+01  0.50467861787E+02  0.51067442132E+02  0.10000000000E+01 0. -1.
        -13    1    6    6    0    0 -0.19818829287E+01 -0.13367531835E+01  0.79751730791E+01  0.83264145740E+01  0.10500000000E+00 0. -1.
         13    1    6    6    0    0 -0.69484662345E+00 -0.52163384015E+00  0.29802996406E+01  0.31061430490E+01  0.10500000000E+00 0.  1.
</event>
<event>
11    0  0.3462209E-009  0.9118800E+02  0.7816531E-02  0.1126479E+00
         25   -1    0    0    0    0  0.00000000000E+00  0.00000000000E+00  0.99999998245E-14  0.12500000000E+03  0.12500000000E+03 0.  0.
    3000001    1    3    3    0    0 -0.29696689327E+02 -0.38172780093E+02  0.13278206433E+02  0.50163385682E+02  0.10000000000E+01 0. -1.
    1000022    2    1    0    0    0 -0.36348307428E+02 -0.45278777348E+02  0.20853846731E+02  0.62500000356E+02  0.99999995019E+01 0.  0.
    3000022    2    3    3    0    0 -0.66516181014E+01 -0.71059972545E+01  0.75756402979E+01  0.12336614674E+02  0.25003068328E+00 0.  0.
    1000022    2    1    0    0    0  0.36348307428E+02  0.45278777348E+02 -0.20853846731E+02  0.62499999644E+02  0.99999950495E+01 0.  0.
    3000022    2    5    5    0    0  0.16271976288E+02  0.26665923062E+02 -0.80484804234E+01  0.32259714874E+02  0.25000304079E+00 0.  0.
        -13    1    4    4    0    0 -0.23874444706E+01 -0.24845136807E+01  0.26377687840E+01  0.43406852555E+01  0.10500000000E+00 0.  1.
         13    1    4    4    0    0 -0.42641736308E+01 -0.46214835738E+01  0.49378715140E+01  0.79959294185E+01  0.10500000000E+00 0.  1.
    3000001    1    5    5    0    0  0.20076331141E+02  0.18612854285E+02 -0.12805366307E+02  0.30240284770E+02  0.10000000000E+01 0.  1.
        -13    1    6    6    0    0  0.42155135398E+01  0.68551608888E+01 -0.20602961322E+01  0.83078053882E+01  0.10500000000E+00 0.  1.
         13    1    6    6    0    0  0.12056462748E+02  0.19810762174E+02 -0.59881842912E+01  0.23951909485E+02  0.10500000000E+00 0. -1.
</event>
<event>
11    0  0.3462209E-009  0.9118800E+02  0.7816531E-02  0.1126479E+00
         25   -1    0    0    0    0  0.00000000000E+00  0.00000000000E+00  0.99999998245E-14  0.12500000000E+03  0.12500000000E+03 0.  0.
    3000001    1    3    3    0    0 -0.16201269618E+01 -0.17341043361E+02 -0.14143304065E+02  0.22458175484E+02  0.10000000000E+01 0.  1.
    1000022    2    1    0    0    0  0.37105714585E+01 -0.53491079327E+02 -0.30515344007E+02  0.62499999064E+02  0.99999877479E+01 0.  0.
    3000022    2    3    3    0    0  0.53306984203E+01 -0.36150035967E+02 -0.16372039942E+02  0.40041823579E+02  0.24999534047E+00 0.  0.
    1000022    2    1    0    0    0 -0.37105714585E+01  0.53491079327E+02  0.30515344007E+02  0.62500000936E+02  0.99999994511E+01 0.  0.
    3000022    2    5    5    0    0  0.11803800002E+01  0.41792606842E+02  0.22772738499E+02  0.47609614617E+02  0.25000344338E+00 0.  0.
        -13    1    4    4    0    0  0.22411943816E+01 -0.14790384315E+02 -0.66769908811E+01  0.16382052761E+02  0.10500000000E+00 0. -1.
         13    1    4    4    0    0  0.30895040387E+01 -0.21359651651E+02 -0.96950490607E+01  0.23659770818E+02  0.10500000000E+00 0.  1.
    3000001    1    5    5    0    0 -0.48909514587E+01  0.11698472486E+02  0.77426055081E+01  0.14890386319E+02  0.10000000000E+01 0.  1.
        -13    1    6    6    0    0  0.39492838880E+00  0.12488982347E+02  0.68255378019E+01  0.14238315904E+02  0.10500000000E+00 0.  1.
         13    1    6    6    0    0  0.78545161139E+00  0.29303624495E+02  0.15947200697E+02  0.33371298714E+02  0.10500000000E+00 0. -1.
</event>
<event>
11    0  0.3462209E-009  0.9118800E+02  0.7816531E-02  0.1126479E+00
         25   -1    0    0    0    0  0.00000000000E+00  0.00000000000E+00  0.99999998245E-14  0.12500000000E+03  0.12500000000E+03 0.  0.
    3000001    1    3    3    0    0 -0.59599573266E+01  0.36178982055E+01  0.53036210367E+01  0.88169538312E+01  0.10000000000E+01 0. -1.
    1000022    2    1    0    0    0 -0.46712393431E+02  0.36562745788E+02  0.16951926484E+02  0.62500000886E+02  0.10000010980E+02 0.  0.
    3000022    2    3    3    0    0 -0.40752436104E+02  0.32944847582E+02  0.11648305447E+02  0.53683047054E+02  0.24998120450E+00 0.  0.
    1000022    2    1    0    0    0  0.46712393431E+02 -0.36562745788E+02 -0.16951926484E+02  0.62499999114E+02  0.99999999110E+01 0.  0.
    3000022    2    5    5    0    0  0.32267548885E+02 -0.27311627352E+02 -0.76513810608E+01  0.42961911403E+02  0.24999915752E+00 0.  0.
        -13    1    4    4    0    0 -0.25449996265E+02  0.20518681506E+02  0.72234000758E+01  0.33479951228E+02  0.10500000000E+00 0.  1.
         13    1    4    4    0    0 -0.15302439840E+02  0.12426166077E+02  0.44249053712E+01  0.20203095826E+02  0.10500000000E+00 0. -1.
    3000001    1    5    5    0    0  0.14444844546E+02 -0.92511184354E+01 -0.93005454229E+01  0.19538087712E+02  0.10000000000E+01 0.  1.
        -13    1    6    6    0    0  0.78919653274E+01 -0.66930808347E+01 -0.18939834698E+01  0.10520391921E+02  0.10500000000E+00 0. -1.
         13    1    6    6    0    0  0.24375583557E+02 -0.20618546517E+02 -0.57573975910E+01  0.32441519482E+02  0.10500000000E+00 0.  1.
</event>
<event>
11    0  0.3462209E-009  0.9118800E+02  0.7816531E-02  0.1126479E+00
         25   -1    0    0    0    0  0.00000000000E+00  0.00000000000E+00  0.99999998245E-14  0.12500000000E+03  0.12500000000E+03 0.  0.
    3000001    1    3    3    0    0 -0.77152268452E+01 -0.29709469031E+02  0.21597739410E+01  0.30787041087E+02  0.10000000000E+01 0. -1.
    1000022    2    1    0    0    0 -0.16339194270E+02 -0.59230210548E+02 -0.55734182542E+01  0.62499999937E+02  0.99999945061E+01 0.  0.
    3000022    2    3    3    0    0 -0.86239674248E+01 -0.29520741516E+02 -0.77331921952E+01  0.31712958850E+02  0.25000733611E+00 0.  0.
    1000022    2    1    0    0    0  0.16339194270E+02  0.59230210548E+02  0.55734182542E+01  0.62500000063E+02  0.99999952992E+01 0.  0.
    3000022    2    5    5    0    0 -0.33419955228E+00  0.12811518798E+01 -0.12104900282E+01  0.18113118784E+01  0.25005025970E+00 0.  0.
        -13    1    4    4    0    0 -0.46883727908E+01 -0.16252788072E+02 -0.42180137642E+01  0.17433778267E+02  0.10500000000E+00 0. -1.
         13    1    4    4    0    0 -0.39355946341E+01 -0.13267953444E+02 -0.35151784311E+01  0.14279180583E+02  0.10500000000E+00 0.  1.
    3000001    1    5    5    0    0  0.16673393822E+02  0.57949058668E+02  0.67839082825E+01  0.60688688185E+02  0.10000000000E+01 0. -1.
        -13    1    6    6    0    0 -0.11288029276E+00  0.41075243937E+00 -0.46613628246E+00  0.64013089347E+00  0.10500000000E+00 0.  1.
         13    1    6    6    0    0 -0.22131925952E+00  0.87039944043E+00 -0.74435374577E+00  0.11711809849E+01  0.10500000000E+00 0. -1.
</event>
<event>
11    0  0.3462209E-009  0.9118800E+02  0.7816531E-02  0.1126479E+00
         25   -1    0    0    0    0  0.00000000000E+00  0.00000000000E+00  0.99999998245E-14  0.12500000000E+03  0.12500000000E+03 0.  0.
    3000001    1    3    3    0    0  0.81346055965E+01 -0.25264639935E+02 -0.35382573246E+01  0.26795393338E+02  0.10000000000E+01 0. -1.
    1000022    2    1    0    0    0  0.12605625161E+02 -0.60383407717E+02  0.10919203413E+01  0.62499999587E+02  0.99999972558E+01 0.  0.
    3000022    2    3    3    0    0  0.44710195650E+01 -0.35118767782E+02  0.46301776658E+01  0.35704606249E+02  0.24999137348E+00 0.  0.
    1000022    2    1    0    0    0 -0.12605625161E+02  0.60383407717E+02 -0.10919203413E+01  0.62500000413E+02  0.10000002423E+02 0.  0.
    3000022    2    5    5    0    0 -0.49350262036E+00  0.16979755330E+02  0.29618363342E+01  0.17245017305E+02  0.25002295367E+00 0.  0.
        -13    1    4    4    0    0  0.19872891568E+01 -0.15720705185E+02  0.20068524026E+01  0.15972738378E+02  0.10500000000E+00 0.  1.
         13    1    4    4    0    0  0.24837304082E+01 -0.19398062596E+02  0.26233252633E+01  0.19731867871E+02  0.10500000000E+00 0. -1.
    3000001    1    5    5    0    0 -0.12112122541E+02  0.43403652387E+02 -0.40537566755E+01  0.45254983108E+02  0.10000000000E+01 0. -1.
        -13    1    6    6    0    0 -0.39622506471E+00  0.12461063885E+02  0.21786080672E+01  0.12656716224E+02  0.10500000000E+00 0. -1.
         13    1    6    6    0    0 -0.97277555650E-01  0.45186914445E+01  0.78322826704E+00  0.45883010812E+01  0.10500000000E+00 0.  1.
</event>
<event>
11    0  0.3462209E-009  0.9118800E+02  0.7816531E-02  0.1126479E+00
         25   -1    0    0    0    0  0.00000000000E+00  0.00000000000E+00  0.99999998245E-14  0.12500000000E+03  0.12500000000E+03 0.  0.
    3000001    1    3    3    0    0  0.10132588720E+01 -0.41207320436E+00  0.27115999578E-01  0.14823066973E+01  0.10000000000E+01 0. -1.
    1000022    2    1    0    0    0  0.51456242727E+02  0.22497166340E+02 -0.25541779846E+02  0.62499999318E+02  0.99999994066E+01 0.  0.
    3000022    2    3    3    0    0  0.50442983855E+02  0.22909239544E+02 -0.25568895846E+02  0.61017692621E+02  0.25000257659E+00 0.  0.
    1000022    2    1    0    0    0 -0.51456242727E+02 -0.22497166340E+02  0.25541779846E+02  0.62500000682E+02  0.10000007931E+02 0.  0.
    3000022    2    5    5    0    0 -0.50577748156E+02 -0.20704892020E+02  0.23557694492E+02  0.59513264229E+02  0.24997462234E+00 0.  0.
        -13    1    4    4    0    0  0.25996301399E+02  0.11862031906E+02 -0.13237387519E+02  0.31492140935E+02  0.10500000000E+00 0. -1.
         13    1    4    4    0    0  0.24446682456E+02  0.11047207638E+02 -0.12331508326E+02  0.29525551685E+02  0.10500000000E+00 0.  1.
    3000001    1    5    5    0    0 -0.87849457146E+00 -0.17922743192E+01  0.19840853544E+01  0.29867364532E+01  0.10000000000E+01 0. -1.
        -13    1    6    6    0    0 -0.24925200597E+02 -0.10276587944E+02  0.11627110991E+02  0.29361107261E+02  0.10500000000E+00 0.  1.
         13    1    6    6    0    0 -0.25652547558E+02 -0.10428304077E+02  0.11930583501E+02  0.30152156968E+02  0.10500000000E+00 0. -1.
</event>
<event>
11    0  0.3462209E-009  0.9118800E+02  0.7816531E-02  0.1126479E+00
         25   -1    0    0    0    0  0.00000000000E+00  0.00000000000E+00  0.99999998245E-14  0.12500000000E+03  0.12500000000E+03 0.  0.
    3000001    1    3    3    0    0 -0.85084392480E+01 -0.41287080179E+02 -0.12681627757E+02  0.44032263293E+02  0.10000000000E+01 0. -1.
    1000022    2    1    0    0    0 -0.70761982652E+01 -0.57276814085E+02 -0.21806972058E+02  0.62500000376E+02  0.10000000153E+02 0.  0.
    3000022    2    3    3    0    0  0.14322409828E+01 -0.15989733907E+02 -0.91253443006E+01  0.18467737083E+02  0.24999948438E+00 0.  0.
    1000022    2    1    0    0    0  0.70761982652E+01  0.57276814085E+02  0.21806972058E+02  0.62499999624E+02  0.99999954507E+01 0.  0.
    3000022    2    5    5    0    0  0.24190834416E+01  0.48425357989E+02  0.18858937477E+02  0.52024890966E+02  0.24999241633E+00 0.  0.
        -13    1    4    4    0    0  0.53077372804E+00 -0.62938932465E+01 -0.36514724780E+01  0.72965121261E+01  0.10500000000E+00 0. -1.
         13    1    4    4    0    0  0.90146725478E+00 -0.96958406601E+01 -0.54738718226E+01  0.11171224957E+02  0.10500000000E+00 0.  1.
    3000001    1    5    5    0    0  0.46571148237E+01  0.88514560964E+01  0.29480345807E+01  0.10475108658E+02  0.10000000000E+01 0.  1.
        -13    1    6    6    0    0  0.14278560662E+01  0.29783171912E+02  0.11582972662E+02  0.31988316348E+02  0.10500000000E+00 0.  1.
         13    1    6    6    0    0  0.99122737533E+00  0.18642186077E+02  0.72759648148E+01  0.20036574618E+02  0.10500000000E+00 0. -1.
</event>
<event>
11    0  0.3462209E-009  0.9118800E+02  0.7816531E-02  0.1126479E+00
         25   -1    0    0    0    0  0.00000000000E+00  0.00000000000E+00  0.99999998245E-14  0.12500000000E+03  0.12500000000E+03 0.  0.
    3000001    1    3    3    0    0  0.15222161187E+02 -0.36987279695E+01 -0.31085807590E+01  0.16001814089E+02  0.10000000000E+01 0. -1.
    1000022    2    1    0    0    0  0.61649796885E+02 -0.15037570904E+01 -0.18141636428E+01  0.62499999770E+02  0.10000002009E+02 0.  0.
    3000022    2    3    3    0    0  0.46427635698E+02  0.21949708791E+01  0.12944171162E+01  0.46498185681E+02  0.25000464231E+00 0.  0.
    1000022    2    1    0    0    0 -0.61649796885E+02  0.15037570904E+01  0.18141636428E+01  0.62500000230E+02  0.10000004885E+02 0.  0.
    3000022    2    5    5    0    0 -0.58509631566E+02  0.74654511023E+00  0.36935721933E+01  0.58631384882E+02  0.25000406117E+00 0.  0.
        -13    1    4    4    0    0  0.24739509981E+02  0.11106617266E+01  0.72232093534E+00  0.24775183069E+02  0.10500000000E+00 0. -1.
         13    1    4    4    0    0  0.21688125717E+02  0.10843091524E+01  0.57209618084E+00  0.21723002612E+02  0.10500000000E+00 0.  1.
    3000001    1    5    5    0    0 -0.31401653191E+01  0.75721198018E+00 -0.18794085504E+01  0.38686153484E+01  0.10000000000E+01 0. -1.
        -13    1    6    6    0    0 -0.35403455873E+02  0.47282228934E+00  0.22939280431E+01  0.35481000262E+02  0.10500000000E+00 0. -1.
         13    1    6    6    0    0 -0.23106175692E+02  0.27372282089E+00  0.13996441502E+01  0.23150384620E+02  0.10500000000E+00 0.  1.
</event>
<event>
11    0  0.3462209E-009  0.9118800E+02  0.7816531E-02  0.1126479E+00
         25   -1    0    0    0    0  0.00000000000E+00  0.00000000000E+00  0.99999998245E-14  0.12500000000E+03  0.12500000000E+03 0.  0.
    3000001    1    3    3    0    0 -0.56286988928E+00 -0.69309605361E+00  0.52044506486E+02  0.52061769659E+02  0.10000000000E+01 0.  1.
    1000022    2    1    0    0    0 -0.44013233562E+00 -0.51535343662E+01  0.61477616959E+02  0.62499999737E+02  0.99999973601E+01 0.  0.
    3000022    2    3    3    0    0  0.12273755366E+00 -0.44604383126E+01  0.94331104734E+01  0.10438230078E+02  0.24999902945E+00 0.  0.
    1000022    2    1    0    0    0  0.44013233562E+00  0.51535343662E+01 -0.61477616959E+02  0.62500000263E+02  0.10000000651E+02 0.  0.
    3000022    2    5    5    0    0 -0.16108579194E+01  0.64644024365E+01 -0.23389160437E+02  0.24320745997E+02  0.24999557970E+00 0.  0.
        -13    1    4    4    0    0  0.27425727801E-01 -0.22959643923E+01  0.49874530140E+01  0.54916224587E+01  0.10500000000E+00 0.  1.
         13    1    4    4    0    0  0.95311825863E-01 -0.21644739203E+01  0.44456574594E+01  0.49466076195E+01  0.10500000000E+00 0. -1.
    3000001    1    5    5    0    0  0.20509902550E+01 -0.13108680703E+01 -0.38088456522E+02  0.38179254267E+02  0.10000000000E+01 0.  1.
        -13    1    6    6    0    0 -0.52070296278E+00  0.19393283551E+01 -0.71593566086E+01  0.74363659198E+01  0.10500000000E+00 0. -1.
         13    1    6    6    0    0 -0.10901549566E+01  0.45250740814E+01 -0.16229803828E+02  0.16884380077E+02  0.10500000000E+00 0.  1.
</event>
<event>
11    0  0.3462209E-009  0.9118800E+02  0.7816531E-02  0.1126479E+00
         25   -1    0    0    0    0  0.00000000000E+00  0.00000000000E+00  0.99999998245E-14  0.12500000000E+03  0.12500000000E+03 0.  0.
    3000001    1    3    3    0    0 -0.36730275876E+01 -0.64293299549E+01 -0.15730998510E+02  0.17415272879E+02  0.10000000000E+01 0. -1.
    1000022    2    1    0    0    0 -0.15050770905E+02 -0.36093682852E+02 -0.47717608411E+02  0.62499999684E+02  0.10000008068E+02 0.  0.
    3000022    2    3    3    0    0 -0.11377743318E+02 -0.29664352898E+02 -0.31986609901E+02  0.45084726806E+02  0.25000463173E+00 0.  0.
    1000022    2    1    0    0    0  0.15050770905E+02  0.36093682852E+02  0.47717608411E+02  0.62500000316E+02  0.10000012014E+02 0.  0.
    3000022    2    5    5    0    0  0.40804481322E+01  0.18411293171E+02  0.17041679774E+02  0.25418637283E+02  0.24999723553E+00 0.  0.
        -13    1    4    4    0    0 -0.51940494407E+01 -0.13373238319E+02 -0.14403494398E+02  0.20329617030E+02  0.10500000000E+00 0. -1.
         13    1    4    4    0    0 -0.61836938772E+01 -0.16291114579E+02 -0.17583115503E+02  0.24755109775E+02  0.10500000000E+00 0.  1.
    3000001    1    5    5    0    0  0.10970322773E+02  0.17682389681E+02  0.30675928637E+02  0.37081363033E+02  0.10000000000E+01 0.  1.
        -13    1    6    6    0    0  0.26522317648E+01  0.12104219842E+02  0.11260260806E+02  0.16743684473E+02  0.10500000000E+00 0.  1.
         13    1    6    6    0    0  0.14282163674E+01  0.63070733299E+01  0.57814189673E+01  0.86749528100E+01  0.10500000000E+00 0. -1.
</event>
<event>
11    0  0.3462209E-009  0.9118800E+02  0.7816531E-02  0.1126479E+00
         25   -1    0    0    0    0  0.00000000000E+00  0.00000000000E+00  0.99999998245E-14  0.12500000000E+03  0.12500000000E+03 0.  0.
    3000001    1    3    3    0    0 -0.23702547846E+01 -0.17533158429E+02 -0.81455440017E+01  0.19503323802E+02  0.10000000000E+01 0. -1.
    1000022    2    1    0    0    0  0.68671754033E+01 -0.56373250557E+02 -0.24107021590E+02  0.62499999722E+02  0.99999999476E+01 0.  0.
    3000022    2    3    3    0    0  0.92374301879E+01 -0.38840092128E+02 -0.15961477588E+02  0.42996675920E+02  0.25000080008E+00 0.  0.
    1000022    2    1    0    0    0 -0.68671754033E+01  0.56373250557E+02  0.24107021590E+02  0.62500000278E+02  0.10000003422E+02 0.  0.
    3000022    2    5    5    0    0  0.18681284527E+01  0.35743255976E+01  0.26565121962E+01  0.48358314765E+01  0.25000325400E+00 0.  0.
        -13    1    4    4    0    0  0.30304180405E+01 -0.12611345409E+02 -0.51403239011E+01  0.13952183389E+02  0.10500000000E+00 0.  1.
         13    1    4    4    0    0  0.62070121474E+01 -0.26228746719E+02 -0.10821153687E+02  0.29044492531E+02  0.10500000000E+00 0. -1.
    3000001    1    5    5    0    0 -0.87353038560E+01  0.52798924959E+02  0.21450509394E+02  0.57664168801E+02  0.10000000000E+01 0.  1.
        -13    1    6    6    0    0  0.12650403305E+01  0.23866622746E+01  0.18380456267E+01  0.32689326357E+01  0.10500000000E+00 0.  1.
         13    1    6    6    0    0  0.60308812225E+00  0.11876633230E+01  0.81846656945E+00  0.15668988408E+01  0.10500000000E+00 0. -1.
</event>
<event>
11    0  0.3462209E-009  0.9118800E+02  0.7816531E-02  0.1126479E+00
         25   -1    0    0    0    0  0.00000000000E+00  0.00000000000E+00  0.99999998245E-14  0.12500000000E+03  0.12500000000E+03 0.  0.
    3000001    1    3    3    0    0  0.39292994121E+02  0.34014792673E+02 -0.11812634585E+02  0.53305570473E+02  0.10000000000E+01 0.  1.
    1000022    2    1    0    0    0  0.44488746743E+02  0.38976609054E+02 -0.17544959507E+02  0.62499999271E+02  0.99999832323E+01 0.  0.
    3000022    2    3    3    0    0  0.51957526226E+01  0.49618163806E+01 -0.57323249212E+01  0.91944287981E+01  0.25000962412E+00 0.  0.
    1000022    2    1    0    0    0 -0.44488746743E+02 -0.38976609054E+02  0.17544959507E+02  0.62500000729E+02  0.99999923481E+01 0.  0.
    3000022    2    5    5    0    0 -0.16623524878E+01 -0.10749345344E+01 -0.11758901352E+01  0.23160561294E+01  0.24999667517E+00 0.  0.
        -13    1    4    4    0    0  0.25861188680E+01  0.25132055733E+01 -0.29540104042E+01  0.46627690830E+01  0.10500000000E+00 0. -1.
         13    1    4    4    0    0  0.26096337546E+01  0.24486108072E+01 -0.27783145170E+01  0.45316597151E+01  0.10500000000E+00 0.  1.
    3000001    1    5    5    0    0 -0.42826394255E+02 -0.37901674519E+02  0.18720849642E+02  0.60183944600E+02  0.10000000000E+01 0.  1.
        -13    1    6    6    0    0 -0.43614863273E+00 -0.31805868076E+00 -0.29856068301E+00  0.62573991057E+00  0.10500000000E+00 0.  1.
         13    1    6    6    0    0 -0.12262038551E+01 -0.75687585365E+00 -0.87732945218E+00  0.16903162189E+01  0.10500000000E+00 0. -1.
</event>
<event>
11    0  0.3462209E-009  0.9118800E+02  0.7816531E-02  0.1126479E+00
         25   -1    0    0    0    0  0.00000000000E+00  0.00000000000E+00  0.99999998245E-14  0.12500000000E+03  0.12500000000E+03 0.  0.
    3000001    1    3    3    0    0 -0.67761311922E+01 -0.25833841034E+02 -0.11144659039E+01  0.26749679077E+02  0.10000000000E+01 0. -1.
    1000022    2    1    0    0    0 -0.84104167743E+01 -0.60817558483E+02  0.60612942775E+01  0.62499999496E+02  0.10000005927E+02 0.  0.
    3000022    2    3    3    0    0 -0.16342855822E+01 -0.34983717449E+02  0.71757601815E+01  0.35750320419E+02  0.24999985399E+00 0.  0.
    1000022    2    1    0    0    0  0.84104167743E+01  0.60817558483E+02 -0.60612942775E+01  0.62500000504E+02  0.10000012226E+02 0.  0.
    3000022    2    5    5    0    0 -0.17835734233E+01  0.44287229346E+01  0.53187499278E+00  0.48104165942E+01  0.24999162830E+00 0.  0.
        -13    1    4    4    0    0 -0.12554447931E+01 -0.26843022649E+02  0.54941331561E+01  0.27428462055E+02  0.10500000000E+00 0. -1.
         13    1    4    4    0    0 -0.37884078907E+00 -0.81406947999E+01  0.16816270253E+01  0.83218583634E+01  0.10500000000E+00 0.  1.
    3000001    1    5    5    0    0  0.10193990198E+02  0.56388835548E+02 -0.65931692703E+01  0.57689583910E+02  0.10000000000E+01 0. -1.
        -13    1    6    6    0    0 -0.53789993008E+00  0.13995553887E+01  0.12373937444E+00  0.15081207026E+01  0.10500000000E+00 0. -1.
         13    1    6    6    0    0 -0.12456734932E+01  0.30291675459E+01  0.40813561834E+00  0.33022958916E+01  0.10500000000E+00 0.  1.
</event>
<event>
11    0  0.3462209E-009  0.9118800E+02  0.7816531E-02  0.1126479E+00
         25   -1    0    0    0    0  0.00000000000E+00  0.00000000000E+00  0.99999998245E-14  0.12500000000E+03  0.12500000000E+03 0.  0.
    3000001    1    3    3    0    0  0.34103418184E+02  0.16582653936E+02  0.90396559580E+01  0.38996704004E+02  0.10000000000E+01 0. -1.
    1000022    2    1    0    0    0  0.53347219278E+02  0.22755223204E+02  0.21036244759E+02  0.62500004505E+02  0.10000049088E+02 0.  0.
    3000022    2    3    3    0    0  0.19243801094E+02  0.61725692679E+01  0.11996588801E+02  0.23503300500E+02  0.24999924240E+00 0.  0.
    1000022    2    1    0    0    0 -0.53347219278E+02 -0.22755223204E+02 -0.21036244759E+02  0.62499995495E+02  0.99999927803E+01 0.  0.
    3000022    2    5    5    0    0 -0.27618154429E+02 -0.17110960647E+02 -0.11279050961E+02  0.34392250858E+02  0.25000029454E+00 0.  0.
        -13    1    4    4    0    0  0.11735817143E+02  0.38293405220E+01  0.73288379618E+01  0.14356745582E+02  0.10500000000E+00 0.  1.
         13    1    4    4    0    0  0.75079839517E+01  0.23432287459E+01  0.46677508388E+01  0.91465549180E+01  0.10500000000E+00 0. -1.
    3000001    1    5    5    0    0 -0.25729064849E+02 -0.56442625575E+01 -0.97571937970E+01  0.28107744638E+02  0.10000000000E+01 0. -1.
        -13    1    6    6    0    0 -0.63307329249E+01 -0.39176660407E+01 -0.25842890483E+01  0.78813616500E+01  0.10500000000E+00 0.  1.
         13    1    6    6    0    0 -0.21287421504E+02 -0.13193294606E+02 -0.86947619131E+01  0.26510889208E+02  0.10500000000E+00 0. -1.
</event>
<event>
11    0  0.3462209E-009  0.9118800E+02  0.7816531E-02  0.1126479E+00
         25   -1    0    0    0    0  0.00000000000E+00  0.00000000000E+00  0.99999998245E-14  0.12500000000E+03  0.12500000000E+03 0.  0.
    3000001    1    3    3    0    0 -0.21906939799E+01  0.25007642481E+02 -0.41425025331E+02  0.48448055134E+02  0.10000000000E+01 0. -1.
    1000022    2    1    0    0    0 -0.69913197267E+01  0.34311115668E+02 -0.50794871824E+02  0.62499999959E+02  0.99999890687E+01 0.  0.
    3000022    2    3    3    0    0 -0.48006257467E+01  0.93034731868E+01 -0.93698464930E+01  0.14051944825E+02  0.25001834462E+00 0.  0.
    1000022    2    1    0    0    0  0.69913197267E+01 -0.34311115668E+02  0.50794871824E+02  0.62500000041E+02  0.99999895829E+01 0.  0.
    3000022    2    5    5    0    0  0.17849878112E+01 -0.11536038866E+02  0.95360341333E+01  0.15075304967E+02  0.24999728149E+00 0.  0.
        -13    1    4    4    0    0 -0.12030234238E+01  0.22905633546E+01 -0.23383957310E+01  0.34889920370E+01  0.10500000000E+00 0.  1.
         13    1    4    4    0    0 -0.35976023230E+01  0.70129098322E+01 -0.70314507620E+01  0.10562952788E+02  0.10500000000E+00 0. -1.
    3000001    1    5    5    0    0  0.52063319154E+01 -0.22775076802E+02  0.41258837690E+02  0.47424695074E+02  0.10000000000E+01 0. -1.
        -13    1    6    6    0    0  0.12050680975E+01 -0.77586913039E+01  0.63460684328E+01  0.10096191828E+02  0.10500000000E+00 0.  1.
         13    1    6    6    0    0  0.57991971377E+00 -0.37773475622E+01  0.31899657005E+01  0.49791131390E+01  0.10500000000E+00 0. -1.
</event>
<event>
11    0  0.3462209E-009  0.9118800E+02  0.7816531E-02  0.1126479E+00
         25   -1    0    0    0    0  0.00000000000E+00  0.00000000000E+00  0.99999998245E-14  0.12500000000E+03  0.12500000000E+03 0.  0.
    3000001    1    3    3    0    0  0.12108528179E+01 -0.23680966492E+02 -0.41591455658E+00  0.23736624095E+02  0.10000000000E+01 0.  1.
    1000022    2    1    0    0    0  0.20278419486E+01 -0.60611054544E+02  0.11333040258E+02  0.62500000162E+02  0.10000007140E+02 0.  0.
    3000022    2    3    3    0    0  0.81698913063E+00 -0.36930088053E+02  0.11748954815E+02  0.38763376066E+02  0.25002003232E+00 0.  0.
    1000022    2    1    0    0    0 -0.20278419486E+01  0.60611054544E+02 -0.11333040258E+02  0.62499999838E+02  0.10000005119E+02 0.  0.
    3000022    2    5    5    0    0 -0.50693033722E+01  0.23650786308E+02 -0.67901086682E+01  0.25124203618E+02  0.25000408283E+00 0.  0.
        -13    1    4    4    0    0  0.57686589530E+00 -0.23657305529E+02  0.75030665217E+01  0.24825549569E+02  0.10500000000E+00 0. -1.
         13    1    4    4    0    0  0.24012323533E+00 -0.13272782524E+02  0.42458882929E+01  0.13937826498E+02  0.10500000000E+00 0.  1.
    3000001    1    5    5    0    0  0.30414614236E+01  0.36960268236E+02 -0.45429315899E+01  0.37375796221E+02  0.10000000000E+01 0. -1.
        -13    1    6    6    0    0 -0.20836110741E+01  0.97695999200E+01 -0.28701758973E+01  0.10394010409E+02  0.10500000000E+00 0. -1.
         13    1    6    6    0    0 -0.29856922981E+01  0.13881186388E+02 -0.39199327709E+01  0.14730193208E+02  0.10500000000E+00 0.  1.
</event>
<event>
11    0  0.3462209E-009  0.9118800E+02  0.7816531E-02  0.1126479E+00
         25   -1    0    0    0    0  0.00000000000E+00  0.00000000000E+00  0.99999998245E-14  0.12500000000E+03  0.12500000000E+03 0.  0.
    3000001    1    3    3    0    0 -0.37792834288E+02 -0.36377861639E+02  0.52500227194E+01  0.52727695564E+02  0.10000000000E+01 0.  1.
    1000022    2    1    0    0    0 -0.41627274096E+02 -0.45322219930E+02  0.43950522316E+01  0.62500000712E+02  0.10000001844E+02 0.  0.
    3000022    2    3    3    0    0 -0.38344398077E+01 -0.89443582909E+01 -0.85497048782E+00  0.97723051480E+01  0.24999898915E+00 0.  0.
    1000022    2    1    0    0    0  0.41627274096E+02  0.45322219930E+02 -0.43950522316E+01  0.62499999288E+02  0.99999929422E+01 0.  0.
    3000022    2    5    5    0    0  0.38604884322E+02  0.42701859571E+02 -0.17330638464E+01  0.57592116800E+02  0.25000564981E+00 0.  0.
        -13    1    4    4    0    0 -0.14104125925E+01 -0.33793784961E+01 -0.27256134020E+00  0.36735238376E+01  0.10500000000E+00 0. -1.
         13    1    4    4    0    0 -0.24240272152E+01 -0.55649797948E+01 -0.58240914762E+00  0.60987813104E+01  0.10500000000E+00 0.  1.
    3000001    1    5    5    0    0  0.30223897741E+01  0.26203603584E+01 -0.26619883852E+01  0.49078824881E+01  0.10000000000E+01 0. -1.
        -13    1    6    6    0    0  0.17204385970E+02  0.18936206864E+02 -0.79106927849E+00  0.25597024097E+02  0.10500000000E+00 0. -1.
         13    1    6    6    0    0  0.21400498352E+02  0.23765652707E+02 -0.94199456795E+00  0.31995092703E+02  0.10500000000E+00 0.  1.
</event>
<event>
11    0  0.3462209E-009  0.9118800E+02  0.7816531E-02  0.1126479E+00
         25   -1    0    0    0    0  0.00000000000E+00  0.00000000000E+00  0.99999998245E-14  0.12500000000E+03  0.12500000000E+03 0.  0.
    3000001    1    3    3    0    0  0.21244989053E+02  0.84840768354E+01 -0.14410358836E+02  0.27055268644E+02  0.10000000000E+01 0.  1.
    1000022    2    1    0    0    0  0.42675146461E+02  0.15632290579E+02 -0.41721858233E+02  0.62500001802E+02  0.10000006833E+02 0.  0.
    3000022    2    3    3    0    0  0.21430157408E+02  0.71482137434E+01 -0.27311499397E+02  0.35444733158E+02  0.25000620888E+00 0.  0.
    1000022    2    1    0    0    0 -0.42675146461E+02 -0.15632290579E+02  0.41721858233E+02  0.62499998198E+02  0.99999843098E+01 0.  0.
    3000022    2    5    5    0    0 -0.16839053124E+02 -0.83393448559E+01  0.23262488945E+02  0.29904920492E+02  0.24998985518E+00 0.  0.
        -13    1    4    4    0    0  0.13872588068E+02  0.46425091757E+01 -0.17771526391E+02  0.23018248552E+02  0.10500000000E+00 0.  1.
         13    1    4    4    0    0  0.75575693400E+01  0.25057045678E+01 -0.95399730059E+01  0.12426484606E+02  0.10500000000E+00 0. -1.
    3000001    1    5    5    0    0 -0.25836093337E+02 -0.72929457230E+01  0.18459369287E+02  0.32595077706E+02  0.10000000000E+01 0. -1.
        -13    1    6    6    0    0 -0.45461490186E+01 -0.22917993565E+01  0.62981406216E+01  0.80992231405E+01  0.10500000000E+00 0. -1.
         13    1    6    6    0    0 -0.12292904106E+02 -0.60475454994E+01  0.16964348324E+02  0.21805697351E+02  0.10500000000E+00 0.  1.
</event>
<event>
11    0  0.3462209E-009  0.9118800E+02  0.7816531E-02  0.1126479E+00
         25   -1    0    0    0    0  0.00000000000E+00  0.00000000000E+00  0.99999998245E-14  0.12500000000E+03  0.12500000000E+03 0.  0.
    3000001    1    3    3    0    0  0.12513208791E+02 -0.14998109797E+01  0.36764521652E+02  0.38877498370E+02  0.10000000000E+01 0. -1.
    1000022    2    1    0    0    0  0.23451322057E+02 -0.88245942059E+01  0.56377408078E+02  0.62500000079E+02  0.99999949601E+01 0.  0.
    3000022    2    3    3    0    0  0.10938113266E+02 -0.73247832262E+01  0.19612886427E+02  0.23622501710E+02  0.25000382151E+00 0.  0.
    1000022    2    1    0    0    0 -0.23451322057E+02  0.88245942059E+01 -0.56377408078E+02  0.62499999921E+02  0.99999939670E+01 0.  0.
    3000022    2    5    5    0    0 -0.76946157375E+01  0.77448878224E+01 -0.19078960717E+02  0.21983167179E+02  0.24999683812E+00 0.  0.
        -13    1    4    4    0    0  0.36171337972E+01 -0.23599054127E+01  0.64202476094E+01  0.77384374929E+01  0.10500000000E+00 0.  1.
         13    1    4    4    0    0  0.73209794690E+01 -0.49648778135E+01  0.13192638817E+02  0.15884064217E+02  0.10500000000E+00 0. -1.
    3000001    1    5    5    0    0 -0.15756706320E+02  0.10797063835E+01 -0.37298447361E+02  0.40516832742E+02  0.10000000000E+01 0.  1.
        -13    1    6    6    0    0 -0.42621623407E+01  0.42013251404E+01 -0.10504818699E+02  0.12090467388E+02  0.10500000000E+00 0.  1.
         13    1    6    6    0    0 -0.34324533968E+01  0.35435626820E+01 -0.85741420187E+01  0.98926997912E+01  0.10500000000E+00 0. -1.
</event>
<event>
11    0  0.3462209E-009  0.9118800E+02  0.7816531E-02  0.1126479E+00
         25   -1    0    0    0    0  0.00000000000E+00  0.00000000000E+00  0.99999998245E-14  0.12500000000E+03  0.12500000000E+03 0.  0.
    3000001    1    3    3    0    0  0.37232287312E+02  0.20176385119E+02 -0.99814167908E+01  0.43519632537E+02  0.10000000000E+01 0.  1.
    1000022    2    1    0    0    0  0.55532323957E+02  0.25174447578E+02 -0.94158536199E+01  0.62499999567E+02  0.99999915794E+01 0.  0.
    3000022    2    3    3    0    0  0.18300036645E+02  0.49980624585E+01  0.56556317083E+00  0.18980367031E+02  0.25000273795E+00 0.  0.
    1000022    2    1    0    0    0 -0.55532323957E+02 -0.25174447578E+02  0.94158536199E+01  0.62500000433E+02  0.99999969906E+01 0.  0.
    3000022    2    5    5    0    0 -0.20108292061E+02 -0.12105322731E+02 -0.39461497630E+00  0.23475529212E+02  0.25000550146E+00 0.  0.
        -13    1    4    4    0    0  0.10103252744E+02  0.28186043789E+01  0.34678900483E+00  0.10495310109E+02  0.10500000000E+00 0. -1.
         13    1    4    4    0    0  0.81967839005E+01  0.21794580796E+01  0.21877416600E+00  0.84850569219E+01  0.10500000000E+00 0.  1.
    3000001    1    5    5    0    0 -0.35424031896E+02 -0.13069124847E+02  0.98104685962E+01  0.39024471221E+02  0.10000000000E+01 0.  1.
        -13    1    6    6    0    0 -0.51484724921E+01 -0.31191627996E+01 -0.12588015221E+00  0.60218615382E+01  0.10500000000E+00 0. -1.
         13    1    6    6    0    0 -0.14959819569E+02 -0.89861599315E+01 -0.26873482408E+00  0.17453667674E+02  0.10500000000E+00 0.  1.
</event>
<event>
11    0  0.3462209E-009  0.9118800E+02  0.7816531E-02  0.1126479E+00
         25   -1    0    0    0    0  0.00000000000E+00  0.00000000000E+00  0.99999998245E-14  0.12500000000E+03  0.12500000000E+03 0.  0.
    3000001    1    3    3    0    0  0.23963499988E+02 -0.41670342556E+01 -0.17543787844E+02  0.30006632568E+02  0.10000000000E+01 0. -1.
    1000022    2    1    0    0    0  0.51855600416E+02  0.92975665761E+00 -0.33412306968E+02  0.62500000181E+02  0.10000001184E+02 0.  0.
    3000022    2    3    3    0    0  0.27892100428E+02  0.50967909132E+01 -0.15868519124E+02  0.32493367612E+02  0.24999140843E+00 0.  0.
    1000022    2    1    0    0    0 -0.51855600416E+02 -0.92975665761E+00  0.33412306968E+02  0.62499999819E+02  0.99999989270E+01 0.  0.
    3000022    2    5    5    0    0 -0.64784281205E+01  0.23657287388E+01  0.19376057478E+01  0.71682295021E+01  0.24998956521E+00 0.  0.
        -13    1    4    4    0    0  0.81608423039E+01  0.14673972204E+01 -0.45985666583E+01  0.94821116858E+01  0.10500000000E+00 0. -1.
         13    1    4    4    0    0  0.19731258124E+02  0.36293936927E+01 -0.11269952466E+02  0.23011255926E+02  0.10500000000E+00 0.  1.
    3000001    1    5    5    0    0 -0.45377172296E+02 -0.32954853964E+01  0.31474701220E+02  0.55331770317E+02  0.10000000000E+01 0. -1.
        -13    1    6    6    0    0 -0.15124544603E+01  0.54393465734E+00  0.44242603266E+00  0.16703739702E+01  0.10500000000E+00 0. -1.
         13    1    6    6    0    0 -0.49659736602E+01  0.18217940815E+01  0.14951797152E+01  0.54978555319E+01  0.10500000000E+00 0.  1.
</event>
<event>
11    0  0.3462209E-009  0.9118800E+02  0.7816531E-02  0.1126479E+00
         25   -1    0    0    0    0  0.00000000000E+00  0.00000000000E+00  0.99999998245E-14  0.12500000000E+03  0.12500000000E+03 0.  0.
    3000001    1    3    3    0    0  0.85251922334E+01  0.69241812856E+01  0.11297886151E+02  0.15788141771E+02  0.10000000000E+01 0.  1.
    1000022    2    1    0    0    0  0.46102066345E+02  0.21335571207E+02  0.35009181633E+02  0.62499999568E+02  0.10000001371E+02 0.  0.
    3000022    2    3    3    0    0  0.37576874112E+02  0.14411389922E+02  0.23711295482E+02  0.46711857797E+02  0.24999599343E+00 0.  0.
    1000022    2    1    0    0    0 -0.46102066345E+02 -0.21335571207E+02 -0.35009181633E+02  0.62500000432E+02  0.10000006765E+02 0.  0.
    3000022    2    5    5    0    0 -0.13132672931E+02 -0.34104989960E+01 -0.13924624527E+02  0.19443669141E+02  0.24999945621E+00 0.  0.
        -13    1    4    4    0    0  0.20495531767E+02  0.77954698543E+01  0.12886292951E+02  0.25434302500E+02  0.10500000000E+00 0.  1.
         13    1    4    4    0    0  0.17081342345E+02  0.66159200673E+01  0.10825002531E+02  0.21277555297E+02  0.10500000000E+00 0. -1.
    3000001    1    5    5    0    0 -0.32969393414E+02 -0.17925072211E+02 -0.21084557106E+02  0.43056331291E+02  0.10000000000E+01 0. -1.
        -13    1    6    6    0    0 -0.67524857738E+01 -0.18179131353E+01 -0.71380473717E+01  0.99931785521E+01  0.10500000000E+00 0.  1.
         13    1    6    6    0    0 -0.63801871577E+01 -0.15925858608E+01 -0.67865771549E+01  0.94504905889E+01  0.10500000000E+00 0. -1.
</event>
<event>
11    0  0.3462209E-009  0.9118800E+02  0.7816531E-02  0.1126479E+00
         25   -1    0    0    0    0  0.00000000000E+00  0.00000000000E+00  0.99999998245E-14  0.12500000000E+03  0.12500000000E+03 0.  0.
    3000001    1    3    3    0    0 -0.25560259835E+02 -0.29407139202E+02  0.16486911175E+02  0.42319321344E+02  0.10000000000E+01 0.  1.
    1000022    2    1    0    0    0 -0.41392891858E+02 -0.37806819697E+02  0.25758936512E+02  0.62500000788E+02  0.10000008819E+02 0.  0.
    3000022    2    3    3    0    0 -0.15832632023E+02 -0.83996804945E+01  0.92720253362E+01  0.20180679444E+02  0.24999965452E+00 0.  0.
    1000022    2    1    0    0    0  0.41392891858E+02  0.37806819697E+02 -0.25758936512E+02  0.62499999212E+02  0.99999989666E+01 0.  0.
    3000022    2    5    5    0    0  0.16584016380E+02  0.15379882479E+02 -0.15799891383E+02  0.27591112159E+02  0.25003609738E+00 0.  0.
        -13    1    4    4    0    0 -0.76252471550E+01 -0.40196190526E+01  0.43876149388E+01  0.96728445327E+01  0.10500000000E+00 0.  1.
         13    1    4    4    0    0 -0.82073848675E+01 -0.43800614419E+01  0.48844103974E+01  0.10507834912E+02  0.10500000000E+00 0. -1.
    3000001    1    5    5    0    0  0.24808875477E+02  0.22426937218E+02 -0.99590451281E+01  0.34908887053E+02  0.10000000000E+01 0.  1.
        -13    1    6    6    0    0  0.76620759695E+01  0.71448864859E+01 -0.72443002751E+01  0.12737649804E+02  0.10500000000E+00 0.  1.
         13    1    6    6    0    0  0.89219404109E+01  0.82349959928E+01 -0.85555911083E+01  0.14853462354E+02  0.10500000000E+00 0. -1.
</event>
<event>
11    0  0.3462209E-009  0.9118800E+02  0.7816531E-02  0.1126479E+00
         25   -1    0    0    0    0  0.00000000000E+00  0.00000000000E+00  0.99999998245E-14  0.12500000000E+03  0.12500000000E+03 0.  0.
    3000001    1    3    3    0    0 -0.48303358066E+00  0.14916974757E+02 -0.35837360463E+02  0.38833823689E+02  0.10000000000E+01 0. -1.
    1000022    2    1    0    0    0 -0.38318057220E+01  0.17056783635E+02 -0.59166148899E+02  0.62500000464E+02  0.10000013974E+02 0.  0.
    3000022    2    3    3    0    0 -0.33487721414E+01  0.21398088779E+01 -0.23328788436E+02  0.23666176776E+02  0.24999281005E+00 0.  0.
    1000022    2    1    0    0    0  0.38318057220E+01 -0.17056783635E+02  0.59166148899E+02  0.62499999536E+02  0.10000008170E+02 0.  0.
    3000022    2    5    5    0    0  0.84446938143E+00 -0.16006547022E+02  0.40805334985E+02  0.43841310865E+02  0.24999796994E+00 0.  0.
        -13    1    4    4    0    0 -0.12337492422E+01  0.80224007100E+00 -0.83032865621E+01  0.84333456621E+01  0.10500000000E+00 0. -1.
         13    1    4    4    0    0 -0.21150228992E+01  0.13375688069E+01 -0.15025501874E+02  0.15232831114E+02  0.10500000000E+00 0.  1.
    3000001    1    5    5    0    0  0.29873363406E+01 -0.10502366129E+01  0.18360813913E+02  0.18658688671E+02  0.10000000000E+01 0. -1.
        -13    1    6    6    0    0  0.38458782322E+00 -0.66081407967E+01  0.16706088811E+02  0.17969971089E+02  0.10500000000E+00 0. -1.
         13    1    6    6    0    0  0.45988155821E+00 -0.93984062250E+01  0.24099246175E+02  0.25871339776E+02  0.10500000000E+00 0.  1.
</event>
<event>
11    0  0.3462209E-009  0.9118800E+02  0.7816531E-02  0.1126479E+00
         25   -1    0    0    0    0  0.00000000000E+00  0.00000000000E+00  0.99999998245E-14  0.12500000000E+03  0.12500000000E+03 0.  0.
    3000001    1    3    3    0    0 -0.42423397579E+02 -0.30423557392E+02  0.30212261091E+01  0.52301676013E+02  0.10000000000E+01 0.  1.
    1000022    2    1    0    0    0 -0.49584397762E+02 -0.35867671669E+02  0.78196565972E+01  0.62499996447E+02  0.10000007709E+02 0.  0.
    3000022    2    3    3    0    0 -0.71610001836E+01 -0.54441142771E+01  0.47984304881E+01  0.10198320435E+02  0.25000129813E+00 0.  0.
    1000022    2    1    0    0    0  0.49584397762E+02  0.35867671669E+02 -0.78196565972E+01  0.62500003553E+02  0.10000052119E+02 0.  0.
    3000022    2    5    5    0    0  0.87271562745E+01  0.42277354531E+01  0.19621087768E+01  0.98969363458E+01  0.24994895306E+00 0.  0.
        -13    1    4    4    0    0 -0.26197121227E+01 -0.19996555074E+01  0.18250082153E+01  0.37687124778E+01  0.10500000000E+00 0.  1.
         13    1    4    4    0    0 -0.45412880608E+01 -0.34444587697E+01  0.29734222728E+01  0.64296079569E+01  0.10500000000E+00 0. -1.
    3000001    1    5    5    0    0  0.40857241488E+02  0.31639936216E+02 -0.97817653739E+01  0.52603067207E+02  0.10000000000E+01 0.  1.
        -13    1    6    6    0    0  0.34287900768E+01  0.17273549789E+01  0.79604744534E+00  0.39223810561E+01  0.10500000000E+00 0. -1.
         13    1    6    6    0    0  0.52983661977E+01  0.25003804742E+01  0.11660613314E+01  0.59745552897E+01  0.10500000000E+00 0.  1.
</event>
<event>
11    0  0.3462209E-009  0.9118800E+02  0.7816531E-02  0.1126479E+00
         25   -1    0    0    0    0  0.00000000000E+00  0.00000000000E+00  0.99999998245E-14  0.12500000000E+03  0.12500000000E+03 0.  0.
    3000001    1    3    3    0    0  0.15353906381E+02  0.49794996256E+00  0.20156107338E+02  0.25362552284E+02  0.10000000000E+01 0.  1.
    1000022    2    1    0    0    0  0.27805859602E+02  0.51531469850E+01  0.54831826690E+02  0.62499999953E+02  0.10000001194E+02 0.  0.
    3000022    2    3    3    0    0  0.12451953221E+02  0.46551970225E+01  0.34675719352E+02  0.37137447669E+02  0.25001690270E+00 0.  0.
    1000022    2    1    0    0    0 -0.27805859602E+02 -0.51531469850E+01 -0.54831826690E+02  0.62500000047E+02  0.10000001784E+02 0.  0.
    3000022    2    5    5    0    0 -0.54059383851E+01  0.21132925259E+01 -0.16590571133E+02  0.17578387873E+02  0.24998918826E+00 0.  0.
        -13    1    4    4    0    0  0.30972336616E+01  0.11782077105E+01  0.85973073117E+01  0.92144314949E+01  0.10500000000E+00 0.  1.
         13    1    4    4    0    0  0.93547195594E+01  0.34769893120E+01  0.26078412040E+02  0.27923016174E+02  0.10500000000E+00 0. -1.
    3000001    1    5    5    0    0 -0.22399921217E+02 -0.72664395109E+01 -0.38241255557E+02  0.44921612174E+02  0.10000000000E+01 0.  1.
        -13    1    6    6    0    0 -0.23451174149E+01  0.91094438435E+00 -0.69948066322E+01  0.74342276117E+01  0.10500000000E+00 0. -1.
         13    1    6    6    0    0 -0.30608209703E+01  0.12023481415E+01 -0.95957645003E+01  0.10144160262E+02  0.10500000000E+00 0.  1.
</event>
<event>
11    0  0.3462209E-009  0.9118800E+02  0.7816531E-02  0.1126479E+00
         25   -1    0    0    0    0  0.00000000000E+00  0.00000000000E+00  0.99999998245E-14  0.12500000000E+03  0.12500000000E+03 0.  0.
    3000001    1    3    3    0    0 -0.25535149422E+01 -0.31338699211E+01  0.20281618441E+00  0.41692581651E+01  0.10000000000E+01 0. -1.
    1000022    2    1    0    0    0 -0.55053111975E+02 -0.23185034474E+02 -0.15422642255E+02  0.62499990549E+02  0.99999981421E+01 0.  0.
    3000022    2    3    3    0    0 -0.52499597033E+02 -0.20051164553E+02 -0.15625458439E+02  0.58330732384E+02  0.25000100383E+00 0.  0.
    1000022    2    1    0    0    0  0.55053111975E+02  0.23185034474E+02  0.15422642255E+02  0.62500009451E+02  0.10000116274E+02 0.  0.
    3000022    2    5    5    0    0  0.38492535739E+01  0.46271743965E+01  0.24571340788E+01  0.65059589800E+01  0.24999679485E+00 0.  0.
        -13    1    4    4    0    0 -0.29116411568E+02 -0.11059090399E+02 -0.86248788175E+01  0.32318237307E+02  0.10500000000E+00 0. -1.
         13    1    4    4    0    0 -0.23383185465E+02 -0.89920741532E+01 -0.70005796217E+01  0.26012495077E+02  0.10500000000E+00 0.  1.
    3000001    1    5    5    0    0  0.51203858401E+02  0.18557860077E+02  0.12965508176E+02  0.55994050471E+02  0.10000000000E+01 0. -1.
        -13    1    6    6    0    0  0.11913749948E+01  0.14130823504E+01  0.80516389154E+00  0.20187842875E+01  0.10500000000E+00 0.  1.
         13    1    6    6    0    0  0.26578785791E+01  0.32140920460E+01  0.16519701872E+01  0.44871746925E+01  0.10500000000E+00 0. -1.
</event>
<event>
11    0  0.3462209E-009  0.9118800E+02  0.7816531E-02  0.1126479E+00
         25   -1    0    0    0    0  0.00000000000E+00  0.00000000000E+00  0.99999998245E-14  0.12500000000E+03  0.12500000000E+03 0.  0.
    3000001    1    3    3    0    0  0.99034884056E+01  0.29365894949E+02  0.12703501432E+02  0.33508414128E+02  0.10000000000E+01 0. -1.
    1000022    2    1    0    0    0  0.14891614519E+02  0.51031966543E+02  0.31308598521E+02  0.62500002527E+02  0.10000009115E+02 0.  0.
    3000022    2    3    3    0    0  0.49881261133E+01  0.21666071594E+02  0.18605097090E+02  0.28991588399E+02  0.24999949065E+00 0.  0.
    1000022    2    1    0    0    0 -0.14891614519E+02 -0.51031966543E+02 -0.31308598521E+02  0.62499997473E+02  0.99999775294E+01 0.  0.
    3000022    2    5    5    0    0 -0.16149881056E+02 -0.46414514944E+02 -0.29286525932E+02  0.57209168474E+02  0.25000142983E+00 0.  0.
        -13    1    4    4    0    0  0.28961864975E+01  0.12735366060E+02  0.10858941468E+02  0.16985437284E+02  0.10500000000E+00 0. -1.
         13    1    4    4    0    0  0.20919396158E+01  0.89307055334E+01  0.77461556220E+01  0.12006151115E+02  0.10500000000E+00 0.  1.
    3000001    1    5    5    0    0  0.12582665366E+01 -0.46174515989E+01 -0.20220725891E+01  0.52908289994E+01  0.10000000000E+01 0. -1.
        -13    1    6    6    0    0 -0.75505233565E+01 -0.21495947319E+02 -0.13572629233E+02  0.26520057379E+02  0.10500000000E+00 0.  1.
         13    1    6    6    0    0 -0.85993576990E+01 -0.24918567625E+02 -0.15713896699E+02  0.30689111094E+02  0.10500000000E+00 0. -1.
</event>
<event>
11    0  0.3462209E-009  0.9118800E+02  0.7816531E-02  0.1126479E+00
         25   -1    0    0    0    0  0.00000000000E+00  0.00000000000E+00  0.99999998245E-14  0.12500000000E+03  0.12500000000E+03 0.  0.
    3000001    1    3    3    0    0  0.10060996289E+01 -0.18607024428E+01 -0.38939166904E+01  0.45428005939E+01  0.10000000000E+01 0. -1.
    1000022    2    1    0    0    0  0.43209024282E+02 -0.20003142490E+02 -0.39231424731E+02  0.62499999945E+02  0.99999908943E+01 0.  0.
    3000022    2    3    3    0    0  0.42202924653E+02 -0.18142440047E+02 -0.35337508040E+02  0.57957199351E+02  0.25000404370E+00 0.  0.
    1000022    2    1    0    0    0 -0.43209024282E+02  0.20003142490E+02  0.39231424731E+02  0.62500000055E+02  0.99999915824E+01 0.  0.
    3000022    2    5    5    0    0 -0.11377434130E+02  0.67843988858E+00  0.93764578197E+01  0.14760987586E+02  0.25001044849E+00 0.  0.
        -13    1    4    4    0    0  0.20450143831E+02 -0.87249756725E+01 -0.17140701280E+02  0.28073978139E+02  0.10500000000E+00 0. -1.
         13    1    4    4    0    0  0.21752780822E+02 -0.94174643743E+01 -0.18196806761E+02  0.29883221212E+02  0.10500000000E+00 0.  1.
    3000001    1    5    5    0    0 -0.31831590152E+02  0.19324702601E+02  0.29854966911E+02  0.47739012469E+02  0.10000000000E+01 0.  1.
        -13    1    6    6    0    0 -0.86400816879E+01  0.49621735160E+00  0.71267246722E+01  0.11211533026E+02  0.10500000000E+00 0. -1.
         13    1    6    6    0    0 -0.27373524418E+01  0.18222253698E+00  0.22497331476E+01  0.35494545608E+01  0.10500000000E+00 0.  1.
</event>
<event>
11    0  0.3462209E-009  0.9118800E+02  0.7816531E-02  0.1126479E+00
         25   -1    0    0    0    0  0.00000000000E+00  0.00000000000E+00  0.99999998245E-14  0.12500000000E+03  0.12500000000E+03 0.  0.
    3000001    1    3    3    0    0 -0.10483251218E+01 -0.48436872725E+01 -0.27695674735E+01  0.57646158541E+01  0.10000000000E+01 0.  1.
    1000022    2    1    0    0    0 -0.36164359325E+02 -0.36788285891E+02 -0.33838007570E+02  0.62499998930E+02  0.10000012288E+02 0.  0.
    3000022    2    3    3    0    0 -0.35116034203E+02 -0.31944598619E+02 -0.31068440096E+02  0.56735383076E+02  0.24996736442E+00 0.  0.
    1000022    2    1    0    0    0  0.36164359325E+02  0.36788285891E+02  0.33838007570E+02  0.62500001070E+02  0.10000025661E+02 0.  0.
    3000022    2    5    5    0    0  0.26767165109E+02  0.31212433836E+02  0.23176139205E+02  0.47200562443E+02  0.25002502812E+00 0.  0.
        -13    1    4    4    0    0 -0.23746723494E+02 -0.21598151042E+02 -0.20946211088E+02  0.38329385451E+02  0.10500000000E+00 0. -1.
         13    1    4    4    0    0 -0.11369310710E+02 -0.10346447576E+02 -0.10122229009E+02  0.18405997625E+02  0.10500000000E+00 0.  1.
    3000001    1    5    5    0    0  0.93971942159E+01  0.55758520553E+01  0.10661868365E+02  0.15299438627E+02  0.10000000000E+01 0.  1.
        -13    1    6    6    0    0  0.19256191583E+02  0.22511786302E+02  0.16711593886E+02  0.34012789241E+02  0.10500000000E+00 0. -1.
         13    1    6    6    0    0  0.75109735263E+01  0.87006475346E+01  0.64645453193E+01  0.13187773202E+02  0.10500000000E+00 0.  1.
</event>
<event>
11    0  0.3462209E-009  0.9118800E+02  0.7816531E-02  0.1126479E+00
         25   -1    0    0    0    0  0.00000000000E+00  0.00000000000E+00  0.99999998245E-14  0.12500000000E+03  0.12500000000E+03 0.  0.
    3000001    1    3    3    0    0  0.49347457317E+00  0.51762724907E+01 -0.50485479856E+00  0.53190405545E+01  0.10000000000E+01 0. -1.
    1000022    2    1    0    0    0 -0.32718542550E+00  0.51139168880E+02 -0.34509829816E+02  0.62500000225E+02  0.10000001505E+02 0.  0.
    3000022    2    3    3    0    0 -0.82065999867E+00  0.45962896389E+02 -0.34004975018E+02  0.57180959670E+02  0.24999104137E+00 0.  0.
    1000022    2    1    0    0    0  0.32718542550E+00 -0.51139168880E+02  0.34509829816E+02  0.62499999775E+02  0.99999986952E+01 0.  0.
    3000022    2    5    5    0    0 -0.44510563614E+00  0.32124230875E+00  0.19056655596E+00  0.63254319310E+00  0.24995925793E+00 0.  0.
        -13    1    4    4    0    0 -0.43164054005E+00  0.22856874079E+02 -0.16989743210E+02  0.28483072263E+02  0.10500000000E+00 0.  1.
         13    1    4    4    0    0 -0.38901945863E+00  0.23106022311E+02 -0.17015231808E+02  0.28697887407E+02  0.10500000000E+00 0. -1.
    3000001    1    5    5    0    0  0.77229106164E+00 -0.51460411189E+02  0.34319263260E+02  0.61867456582E+02  0.10000000000E+01 0. -1.
        -13    1    6    6    0    0 -0.12034743729E+00  0.99377901086E-01  0.10887694937E+00  0.21734457203E+00  0.10500000000E+00 0.  1.
         13    1    6    6    0    0 -0.32475819885E+00  0.22186440767E+00  0.81689606584E-01  0.41519862106E+00  0.10500000000E+00 0. -1.
</event>
<event>
11    0  0.3462209E-009  0.9118800E+02  0.7816531E-02  0.1126479E+00
         25   -1    0    0    0    0  0.00000000000E+00  0.00000000000E+00  0.99999998245E-14  0.12500000000E+03  0.12500000000E+03 0.  0.
    3000001    1    3    3    0    0 -0.54737919803E+02 -0.25435039611E+02  0.51185537143E+00  0.60369223121E+02  0.10000000000E+01 0. -1.
    1000022    2    1    0    0    0 -0.56573678178E+02 -0.24609935800E+02 -0.14152790980E+00  0.62500000950E+02  0.10000004301E+02 0.  0.
    3000022    2    3    3    0    0 -0.18357583751E+01  0.82510381103E+00 -0.65338328123E+00  0.21307778293E+01  0.24999866960E+00 0.  0.
    1000022    2    1    0    0    0  0.56573678178E+02  0.24609935800E+02  0.14152790980E+00  0.62499999050E+02  0.99999924223E+01 0.  0.
    3000022    2    5    5    0    0  0.14438514715E+02  0.77850097042E+01  0.42093454218E+01  0.16936885927E+02  0.24986545594E+00 0.  0.
        -13    1    4    4    0    0 -0.48050265195E+00  0.18766408029E+00 -0.15246482137E+00  0.54806124413E+00  0.10500000000E+00 0. -1.
         13    1    4    4    0    0 -0.13552557231E+01  0.63743973074E+00 -0.50091845986E+00  0.15827165851E+01  0.10500000000E+00 0.  1.
    3000001    1    5    5    0    0  0.42135163462E+02  0.16824926096E+02 -0.40678175120E+01  0.45563113123E+02  0.10000000000E+01 0.  1.
        -13    1    6    6    0    0  0.65583453306E+01  0.34678754180E+01  0.18739964931E+01  0.76525120873E+01  0.10500000000E+00 0.  1.
         13    1    6    6    0    0  0.78801693849E+01  0.43171342862E+01  0.23353489287E+01  0.92843738399E+01  0.10500000000E+00 0. -1.
</event>
<event>
11    0  0.3462209E-009  0.9118800E+02  0.7816531E-02  0.1126479E+00
         25   -1    0    0    0    0  0.00000000000E+00  0.00000000000E+00  0.99999998245E-14  0.12500000000E+03  0.12500000000E+03 0.  0.
    3000001    1    3    3    0    0  0.30164081723E+02  0.22357686093E+02 -0.15947709587E+02  0.40805237344E+02  0.10000000000E+01 0. -1.
    1000022    2    1    0    0    0  0.49659755638E+02  0.27944443721E+02 -0.23648818924E+02  0.62500000456E+02  0.10000007781E+02 0.  0.
    3000022    2    3    3    0    0  0.19495673915E+02  0.55867576282E+01 -0.77011093373E+01  0.21694763112E+02  0.24999856606E+00 0.  0.
    1000022    2    1    0    0    0 -0.49659755638E+02 -0.27944443721E+02  0.23648818924E+02  0.62499999544E+02  0.10000002079E+02 0.  0.
    3000022    2    5    5    0    0 -0.41193048125E+02 -0.26601318970E+02  0.18263754817E+02  0.52327092603E+02  0.24999077797E+00 0.  0.
        -13    1    4    4    0    0  0.11553408477E+02  0.33727497810E+01 -0.45460855349E+01  0.12866025308E+02  0.10500000000E+00 0.  1.
         13    1    4    4    0    0  0.79422654377E+01  0.22140078472E+01 -0.31550238024E+01  0.88287378047E+01  0.10500000000E+00 0. -1.
    3000001    1    5    5    0    0 -0.84667075124E+01 -0.13431247505E+01  0.53850641074E+01  0.10172906941E+02  0.10000000000E+01 0. -1.
        -13    1    6    6    0    0 -0.16986422524E+02 -0.10976846010E+02  0.76009851122E+01  0.21605918128E+02  0.10500000000E+00 0.  1.
         13    1    6    6    0    0 -0.24206625602E+02 -0.15624472960E+02  0.10662769705E+02  0.30721174474E+02  0.10500000000E+00 0. -1.
</event>
<event>
11    0  0.3462209E-009  0.9118800E+02  0.7816531E-02  0.1126479E+00
         25   -1    0    0    0    0  0.00000000000E+00  0.00000000000E+00  0.99999998245E-14  0.12500000000E+03  0.12500000000E+03 0.  0.
    3000001    1    3    3    0    0  0.76039887436E+01 -0.74401708247E+01 -0.35312424622E+02  0.36893686715E+02  0.10000000000E+01 0.  1.
    1000022    2    1    0    0    0  0.82063814840E+01 -0.19174669002E+02 -0.58062357219E+02  0.62499999259E+02  0.99999976577E+01 0.  0.
    3000022    2    3    3    0    0  0.60239274040E+00 -0.11734498178E+02 -0.22749932597E+02  0.25606312545E+02  0.24996892604E+00 0.  0.
    1000022    2    1    0    0    0 -0.82063814840E+01  0.19174669002E+02  0.58062357219E+02  0.62500000741E+02  0.10000006915E+02 0.  0.
    3000022    2    5    5    0    0 -0.77757046019E+01  0.91670564906E+01  0.40610194412E+02  0.42352649118E+02  0.24998068967E+00 0.  0.
        -13    1    4    4    0    0  0.41070865782E+00 -0.69998358365E+01 -0.13493915525E+02  0.15207339167E+02  0.10500000000E+00 0. -1.
         13    1    4    4    0    0  0.19168408258E+00 -0.47346623412E+01 -0.92560170722E+01  0.10398973378E+02  0.10500000000E+00 0.  1.
    3000001    1    5    5    0    0 -0.43067688214E+00  0.10007612512E+02  0.17452162807E+02  0.20147351623E+02  0.10000000000E+01 0.  1.
        -13    1    6    6    0    0 -0.20840780685E+01  0.24938690072E+01  0.10888070601E+02  0.11363268475E+02  0.10500000000E+00 0.  1.
         13    1    6    6    0    0 -0.56916265334E+01  0.66731874833E+01  0.29722123811E+02  0.30989380643E+02  0.10500000000E+00 0. -1.
</event>
<event>
11    0  0.3462209E-009  0.9118800E+02  0.7816531E-02  0.1126479E+00
         25   -1    0    0    0    0  0.00000000000E+00  0.00000000000E+00  0.99999998245E-14  0.12500000000E+03  0.12500000000E+03 0.  0.
    3000001    1    3    3    0    0 -0.15040537500E+00 -0.12161044726E+01 -0.29685129672E+01  0.33635696962E+01  0.10000000000E+01 0.  1.
    1000022    2    1    0    0    0  0.32188160801E+02 -0.30305461339E+02 -0.43031979746E+02  0.62500000223E+02  0.10000003211E+02 0.  0.
    3000022    2    3    3    0    0  0.32338566176E+02 -0.29089356867E+02 -0.40063466779E+02  0.59136430526E+02  0.24999963338E+00 0.  0.
    1000022    2    1    0    0    0 -0.32188160801E+02  0.30305461339E+02  0.43031979746E+02  0.62499999777E+02  0.10000000427E+02 0.  0.
    3000022    2    5    5    0    0 -0.63549172075E+01  0.73321588997E+01  0.15527369387E+02  0.18311396150E+02  0.25000405373E+00 0.  0.
        -13    1    4    4    0    0  0.23491857979E+02 -0.21175893746E+02 -0.29153590774E+02  0.43014285386E+02  0.10500000000E+00 0.  1.
         13    1    4    4    0    0  0.88467081968E+01 -0.79134631212E+01 -0.10909876004E+02  0.16122145140E+02  0.10500000000E+00 0. -1.
    3000001    1    5    5    0    0 -0.25833243593E+02  0.22973302440E+02  0.27504610359E+02  0.44188603627E+02  0.10000000000E+01 0.  1.
        -13    1    6    6    0    0 -0.41455372196E+01  0.46959204930E+01  0.10031169856E+02  0.11826772247E+02  0.10500000000E+00 0. -1.
         13    1    6    6    0    0 -0.22093799879E+01  0.26362384067E+01  0.54961995317E+01  0.64846239027E+01  0.10500000000E+00 0.  1.
</event>
<event>
11    0  0.3462209E-009  0.9118800E+02  0.7816531E-02  0.1126479E+00
         25   -1    0    0    0    0  0.00000000000E+00  0.00000000000E+00  0.99999998245E-14  0.12500000000E+03  0.12500000000E+03 0.  0.
    3000001    1    3    3    0    0  0.80065249430E+00 -0.24271024087E+02 -0.20989311995E+02  0.32113468711E+02  0.10000000000E+01 0.  1.
    1000022    2    1    0    0    0  0.10689068790E+02 -0.44284195271E+02 -0.41604144093E+02  0.62500005192E+02  0.99999850418E+01 0.  0.
    3000022    2    3    3    0    0  0.98884162958E+01 -0.20013171185E+02 -0.20614832099E+02  0.30386536481E+02  0.24999832067E+00 0.  0.
    1000022    2    1    0    0    0 -0.10689068790E+02  0.44284195271E+02  0.41604144093E+02  0.62499994808E+02  0.99999201410E+01 0.  0.
    3000022    2    5    5    0    0 -0.66516795410E+01  0.15353407368E+02  0.20426017925E+02  0.26405618118E+02  0.25000276894E+00 0.  0.
        -13    1    4    4    0    0  0.40693374697E+01 -0.83811003672E+01 -0.85955587129E+01  0.12676632258E+02  0.10500000000E+00 0. -1.
         13    1    4    4    0    0  0.58190788261E+01 -0.11632070817E+02 -0.12019273386E+02  0.17709904223E+02  0.10500000000E+00 0.  1.
    3000001    1    5    5    0    0 -0.40373892492E+01  0.28930787903E+02  0.21178126168E+02  0.36094376690E+02  0.10000000000E+01 0. -1.
        -13    1    6    6    0    0 -0.15444101323E+01  0.35704127208E+01  0.47325315021E+01  0.61270652903E+01  0.10500000000E+00 0. -1.
         13    1    6    6    0    0 -0.51072694087E+01  0.11782994647E+02  0.15693486423E+02  0.20278552827E+02  0.10500000000E+00 0.  1.
</event>
<event>
11    0  0.3462209E-009  0.9118800E+02  0.7816531E-02  0.1126479E+00
         25   -1    0    0    0    0  0.00000000000E+00  0.00000000000E+00  0.99999998245E-14  0.12500000000E+03  0.12500000000E+03 0.  0.
    3000001    1    3    3    0    0  0.25926051365E+02 -0.22600562280E+02  0.48818438674E+02  0.59725919912E+02  0.10000000000E+01 0.  1.
    1000022    2    1    0    0    0  0.25180497880E+02 -0.24433772617E+02  0.50746265505E+02  0.62500000596E+02  0.99999946988E+01 0.  0.
    3000022    2    3    3    0    0 -0.74555348553E+00 -0.18332103370E+01  0.19278268309E+01  0.27740806835E+01  0.24999441849E+00 0.  0.
    1000022    2    1    0    0    0 -0.25180497880E+02  0.24433772617E+02 -0.50746265505E+02  0.62499999404E+02  0.99999872510E+01 0.  0.
    3000022    2    5    5    0    0 -0.10727123077E+02  0.40615230604E+01 -0.16720722418E+02  0.20278367774E+02  0.25000458167E+00 0.  0.
        -13    1    4    4    0    0 -0.51527583367E+00 -0.11481225107E+01  0.12742409783E+01  0.17939926296E+01  0.10500000000E+00 0.  1.
         13    1    4    4    0    0 -0.23027765186E+00 -0.68508782631E+00  0.65358585266E+00  0.98008805395E+00  0.10500000000E+00 0. -1.
    3000001    1    5    5    0    0 -0.14453374803E+02  0.20372249556E+02 -0.34025543087E+02  0.42221631630E+02  0.10000000000E+01 0.  1.
        -13    1    6    6    0    0 -0.57362062190E+01  0.22001072328E+01 -0.88462298525E+01  0.10770856105E+02  0.10500000000E+00 0.  1.
         13    1    6    6    0    0 -0.49909168584E+01  0.18614158275E+01 -0.78744925658E+01  0.95075116691E+01  0.10500000000E+00 0. -1.
</event>
<event>
11    0  0.3462209E-009  0.9118800E+02  0.7816531E-02  0.1126479E+00
         25   -1    0    0    0    0  0.00000000000E+00  0.00000000000E+00  0.99999998245E-14  0.12500000000E+03  0.12500000000E+03 0.  0.
    3000001    1    3    3    0    0  0.77460856243E+01  0.36364586255E+01 -0.21676792540E+02  0.23326144316E+02  0.10000000000E+01 0. -1.
    1000022    2    1    0    0    0  0.24636597734E+02 -0.23292125913E+01 -0.56514270372E+02  0.62500000411E+02  0.10000005826E+02 0.  0.
    3000022    2    3    3    0    0  0.16890512109E+02 -0.59656712168E+01 -0.34837477832E+02  0.39173856095E+02  0.25001453884E+00 0.  0.
    1000022    2    1    0    0    0 -0.24636597734E+02  0.23292125913E+01  0.56514270372E+02  0.62499999589E+02  0.10000000685E+02 0.  0.
    3000022    2    5    5    0    0 -0.21117021944E+01  0.27136761854E+01  0.13497735184E+02  0.13931068873E+02  0.25000047279E+00 0.  0.
        -13    1    4    4    0    0  0.38906752775E+01 -0.13808018802E+01 -0.80412433771E+01  0.90397227831E+01  0.10500000000E+00 0. -1.
         13    1    4    4    0    0  0.12999836832E+02 -0.45848693366E+01 -0.26796234455E+02  0.30134133312E+02  0.10500000000E+00 0.  1.
    3000001    1    5    5    0    0 -0.22524895539E+02 -0.38446359413E+00  0.43016535188E+02  0.48568930716E+02  0.10000000000E+01 0.  1.
        -13    1    6    6    0    0 -0.84070363070E+00  0.11394137961E+01  0.57766987046E+01  0.59486401234E+01  0.10500000000E+00 0. -1.
         13    1    6    6    0    0 -0.12709985637E+01  0.15742623893E+01  0.77210364795E+01  0.79824287492E+01  0.10500000000E+00 0.  1.
</event>
<event>
11    0  0.3462209E-009  0.9118800E+02  0.7816531E-02  0.1126479E+00
         25   -1    0    0    0    0  0.00000000000E+00  0.00000000000E+00  0.99999998245E-14  0.12500000000E+03  0.12500000000E+03 0.  0.
    3000001    1    3    3    0    0  0.30867664746E+02 -0.25156644080E+02 -0.25959392551E+02  0.47545341831E+02  0.10000000000E+01 0.  1.
    1000022    2    1    0    0    0  0.41472148697E+02 -0.27954367804E+02 -0.36122904101E+02  0.62500000111E+02  0.10000000813E+02 0.  0.
    3000022    2    3    3    0    0  0.10604483951E+02 -0.27977237242E+01 -0.10163511550E+02  0.14954658279E+02  0.24999863988E+00 0.  0.
    1000022    2    1    0    0    0 -0.41472148697E+02  0.27954367804E+02  0.36122904101E+02  0.62499999889E+02  0.99999994312E+01 0.  0.
    3000022    2    5    5    0    0 -0.26908294978E+02  0.13681933200E+02  0.17661480447E+02  0.34974877038E+02  0.24999499761E+00 0.  0.
        -13    1    4    4    0    0  0.41926449423E+01 -0.11405754964E+01 -0.40993403420E+01  0.59745125587E+01  0.10500000000E+00 0. -1.
         13    1    4    4    0    0  0.64118390088E+01 -0.16571482278E+01 -0.60641712075E+01  0.89801457203E+01  0.10500000000E+00 0.  1.
    3000001    1    5    5    0    0 -0.14563853719E+02  0.14272434604E+02  0.18461423654E+02  0.27525122852E+02  0.10000000000E+01 0. -1.
        -13    1    6    6    0    0 -0.15741345752E+02  0.79988371191E+01  0.10404947208E+02  0.20495007020E+02  0.10500000000E+00 0.  1.
         13    1    6    6    0    0 -0.11166949226E+02  0.56830960807E+01  0.72565332388E+01  0.14479870018E+02  0.10500000000E+00 0. -1.
</event>
<event>
11    0  0.3462209E-009  0.9118800E+02  0.7816531E-02  0.1126479E+00
         25   -1    0    0    0    0  0.00000000000E+00  0.00000000000E+00  0.99999998245E-14  0.12500000000E+03  0.12500000000E+03 0.  0.
    3000001    1    3    3    0    0  0.13417161888E+02 -0.12110434165E+01  0.11800884220E+02  0.17937327774E+02  0.10000000000E+01 0.  1.
    1000022    2    1    0    0    0  0.34727897515E+02 -0.66651160398E+01  0.50554915282E+02  0.62500000313E+02  0.99999971122E+01 0.  0.
    3000022    2    3    3    0    0  0.21310735627E+02 -0.54540726233E+01  0.38754031063E+02  0.44562672539E+02  0.24999817237E+00 0.  0.
    1000022    2    1    0    0    0 -0.34727897515E+02  0.66651160398E+01 -0.50554915282E+02  0.62499999687E+02  0.99999932036E+01 0.  0.
    3000022    2    5    5    0    0 -0.31909275546E+02  0.87504491695E+01 -0.45001725553E+02  0.55856870889E+02  0.24999236679E+00 0.  0.
        -13    1    4    4    0    0  0.15297275053E+02 -0.39535378740E+01  0.27865018238E+02  0.32032910454E+02  0.10500000000E+00 0. -1.
         13    1    4    4    0    0  0.60134605740E+01 -0.15005347492E+01  0.10889012825E+02  0.12529762085E+02  0.10500000000E+00 0.  1.
    3000001    1    5    5    0    0 -0.28186219693E+01 -0.20853331298E+01 -0.55531897290E+01  0.66431287986E+01  0.10000000000E+01 0.  1.
        -13    1    6    6    0    0 -0.18374471010E+02  0.49712559274E+01 -0.25889117139E+02  0.32133969279E+02  0.10500000000E+00 0. -1.
         13    1    6    6    0    0 -0.13534804535E+02  0.37791932422E+01 -0.19112608414E+02  0.23722901609E+02  0.10500000000E+00 0.  1.
</event>
<event>
11    0  0.3462209E-009  0.9118800E+02  0.7816531E-02  0.1126479E+00
         25   -1    0    0    0    0  0.00000000000E+00  0.00000000000E+00  0.99999998245E-14  0.12500000000E+03  0.12500000000E+03 0.  0.
    3000001    1    3    3    0    0 -0.19328677190E+02 -0.19707070111E+02 -0.36379070007E+02  0.45677161787E+02  0.10000000000E+01 0. -1.
    1000022    2    1    0    0    0 -0.31239190989E+02 -0.24240246339E+02 -0.47357929360E+02  0.62499999730E+02  0.99999948408E+01 0.  0.
    3000022    2    3    3    0    0 -0.11910513799E+02 -0.45331762276E+01 -0.10978859352E+02  0.16822837944E+02  0.24999625618E+00 0.  0.
    1000022    2    1    0    0    0  0.31239190989E+02  0.24240246339E+02  0.47357929360E+02  0.62500000270E+02  0.99999982110E+01 0.  0.
    3000022    2    5    5    0    0  0.27979506518E+02  0.21302386997E+02  0.45785913793E+02  0.57732632725E+02  0.25000546633E+00 0.  0.
        -13    1    4    4    0    0 -0.63983107348E+01 -0.25041253344E+01 -0.59436880543E+01  0.90855641892E+01  0.10500000000E+00 0. -1.
         13    1    4    4    0    0 -0.55122030644E+01 -0.20290508932E+01 -0.50351712982E+01  0.77372737546E+01  0.10500000000E+00 0.  1.
    3000001    1    5    5    0    0  0.32596844711E+01  0.29378593422E+01  0.15720155672E+01  0.47673675450E+01  0.10000000000E+01 0. -1.
        -13    1    6    6    0    0  0.18967119388E+02  0.14434664474E+02  0.30949018524E+02  0.39063588276E+02  0.10500000000E+00 0.  1.
         13    1    6    6    0    0  0.90123871308E+01  0.68677225223E+01  0.14836895268E+02  0.18669044449E+02  0.10500000000E+00 0. -1.
</event>
<event>
11    0  0.3462209E-009  0.9118800E+02  0.7816531E-02  0.1126479E+00
         25   -1    0    0    0    0  0.00000000000E+00  0.00000000000E+00  0.99999998245E-14  0.12500000000E+03  0.12500000000E+03 0.  0.
    3000001    1    3    3    0    0  0.16881923952E+00 -0.21135147684E+02 -0.48231382198E+00  0.21164961474E+02  0.10000000000E+01 0.  1.
    1000022    2    1    0    0    0  0.12828375265E+02 -0.59937812356E+02 -0.70100912056E+01  0.62500001259E+02  0.10000010833E+02 0.  0.
    3000022    2    3    3    0    0  0.12659556025E+02 -0.38802664672E+02 -0.65277773836E+01  0.41335039785E+02  0.24998409655E+00 0.  0.
    1000022    2    1    0    0    0 -0.12828375265E+02  0.59937812356E+02  0.70100912056E+01  0.62499998741E+02  0.99999950987E+01 0.  0.
    3000022    2    5    5    0    0  0.15599577578E+01  0.59920877665E+01 -0.17353467627E+00  0.61992899582E+01  0.24999538769E+00 0.  0.
        -13    1    4    4    0    0  0.73020428595E+01 -0.22170732639E+02 -0.37308973006E+01  0.23638778211E+02  0.10500000000E+00 0.  1.
         13    1    4    4    0    0  0.53575131656E+01 -0.16631932033E+02 -0.27968800831E+01  0.17696261574E+02  0.10500000000E+00 0. -1.
    3000001    1    5    5    0    0 -0.14388333022E+02  0.53945724590E+02  0.71836258819E+01  0.56300708783E+02  0.10000000000E+01 0. -1.
        -13    1    6    6    0    0  0.85984453207E+00  0.33441808570E+01 -0.31283973531E-01  0.34546898429E+01  0.10500000000E+00 0.  1.
         13    1    6    6    0    0  0.70011322574E+00  0.26479069095E+01 -0.14225070273E+00  0.27446001153E+01  0.10500000000E+00 0.  1.
</event>
<event>
11    0  0.3462209E-009  0.9118800E+02  0.7816531E-02  0.1126479E+00
         25   -1    0    0    0    0  0.00000000000E+00  0.00000000000E+00  0.99999998245E-14  0.12500000000E+03  0.12500000000E+03 0.  0.
    3000001    1    3    3    0    0 -0.53827737491E+01 -0.51589664041E+02 -0.30493874865E+02  0.60177604583E+02  0.10000000000E+01 0. -1.
    1000022    2    1    0    0    0 -0.42490007084E+01 -0.53588831646E+02 -0.30272647030E+02  0.62499999259E+02  0.99999932432E+01 0.  0.
    3000022    2    3    3    0    0  0.11337730407E+01 -0.19991676057E+01  0.22122783433E+00  0.23223946758E+01  0.24992569332E+00 0.  0.
    1000022    2    1    0    0    0  0.42490007084E+01  0.53588831646E+02  0.30272647030E+02  0.62500000741E+02  0.10000002512E+02 0.  0.
    3000022    2    5    5    0    0 -0.10470923152E+01  0.33102946720E+02  0.14849062546E+02  0.36296813132E+02  0.25000243846E+00 0.  0.
        -13    1    4    4    0    0  0.28949610854E+00 -0.57606116245E+00  0.86325448757E-01  0.65888659331E+00  0.10500000000E+00 0. -1.
         13    1    4    4    0    0  0.84427693214E+00 -0.14231064432E+01  0.13490238557E+00  0.16635080825E+01  0.10500000000E+00 0.  1.
    3000001    1    5    5    0    0  0.52960930236E+01  0.20485884926E+02  0.15423584484E+02  0.26203187609E+02  0.10000000000E+01 0.  1.
        -13    1    6    6    0    0 -0.26815533743E+00  0.99144304563E+01  0.44416010483E+01  0.10867689885E+02  0.10500000000E+00 0. -1.
         13    1    6    6    0    0 -0.77893697779E+00  0.23188516264E+02  0.10407461498E+02  0.25429123248E+02  0.10500000000E+00 0.  1.
</event>
<event>
11    0  0.3462209E-009  0.9118800E+02  0.7816531E-02  0.1126479E+00
         25   -1    0    0    0    0  0.00000000000E+00  0.00000000000E+00  0.99999998245E-14  0.12500000000E+03  0.12500000000E+03 0.  0.
    3000001    1    3    3    0    0  0.65986984499E-01  0.29145476956E+01 -0.19561985204E+01  0.36504321940E+01  0.10000000000E+01 0. -1.
    1000022    2    1    0    0    0 -0.15904995127E+02  0.25006098328E+02 -0.54110777261E+02  0.62499998582E+02  0.99999891673E+01 0.  0.
    3000022    2    3    3    0    0 -0.15970982111E+02  0.22091550632E+02 -0.52154578741E+02  0.58849566388E+02  0.25000292306E+00 0.  0.
    1000022    2    1    0    0    0  0.15904995127E+02 -0.25006098328E+02  0.54110777261E+02  0.62500001418E+02  0.10000006894E+02 0.  0.
    3000022    2    5    5    0    0  0.10487348608E+02 -0.15200407832E+02  0.42476491159E+02  0.46317941197E+02  0.24999286007E+00 0.  0.
        -13    1    4    4    0    0 -0.10700436348E+02  0.14797518422E+02 -0.35050831029E+02  0.39522622260E+02  0.10500000000E+00 0.  1.
         13    1    4    4    0    0 -0.52705457635E+01  0.72940322097E+01 -0.17103747712E+02  0.19326944128E+02  0.10500000000E+00 0. -1.
    3000001    1    5    5    0    0  0.54176465185E+01 -0.98056904953E+01  0.11634286102E+02  0.16182060221E+02  0.10000000000E+01 0.  1.
        -13    1    6    6    0    0  0.73859090150E+01 -0.10746591615E+02  0.29898133843E+02  0.32618251265E+02  0.10500000000E+00 0.  1.
         13    1    6    6    0    0  0.31014395934E+01 -0.44538162179E+01  0.12578357317E+02  0.13699689932E+02  0.10500000000E+00 0. -1.
</event>
<event>
11    0  0.3462209E-009  0.9118800E+02  0.7816531E-02  0.1126479E+00
         25   -1    0    0    0    0  0.00000000000E+00  0.00000000000E+00  0.99999998245E-14  0.12500000000E+03  0.12500000000E+03 0.  0.
    3000001    1    3    3    0    0  0.20878374527E+02 -0.11298110957E+02 -0.24661791055E+02  0.34245551129E+02  0.10000000000E+01 0.  1.
    1000022    2    1    0    0    0  0.30706476126E+02 -0.25252017818E+02 -0.47177306145E+02  0.62500002465E+02  0.10000000651E+02 0.  0.
    3000022    2    3    3    0    0  0.98281015987E+01 -0.13953906862E+02 -0.22515515090E+02  0.28254451336E+02  0.25000554575E+00 0.  0.
    1000022    2    1    0    0    0 -0.30706476126E+02  0.25252017818E+02  0.47177306145E+02  0.62499997535E+02  0.99999698418E+01 0.  0.
    3000022    2    5    5    0    0 -0.27647601628E+02  0.19224755597E+02  0.35223689279E+02  0.48731426104E+02  0.25000034418E+00 0.  0.
        -13    1    4    4    0    0  0.54715352481E+01 -0.78725288796E+01 -0.12600856321E+02  0.15833730260E+02  0.10500000000E+00 0.  1.
         13    1    4    4    0    0  0.43565663506E+01 -0.60813779823E+01 -0.99146587694E+01  0.12420721076E+02  0.10500000000E+00 0. -1.
    3000001    1    5    5    0    0 -0.30588744982E+01  0.60272622219E+01  0.11953616866E+02  0.13768571431E+02  0.10000000000E+01 0.  1.
        -13    1    6    6    0    0 -0.20144236934E+02  0.14026460453E+02  0.25627741457E+02  0.35486955796E+02  0.10500000000E+00 0. -1.
         13    1    6    6    0    0 -0.75033646936E+01  0.51982951438E+01  0.95959478227E+01  0.13244470308E+02  0.10500000000E+00 0.  1.
</event>
<event>
11    0  0.3462209E-009  0.9118800E+02  0.7816531E-02  0.1126479E+00
         25   -1    0    0    0    0  0.00000000000E+00  0.00000000000E+00  0.99999998245E-14  0.12500000000E+03  0.12500000000E+03 0.  0.
    3000001    1    3    3    0    0 -0.47465763685E+02 -0.10483141395E+02 -0.11514058861E+02  0.49964672791E+02  0.10000000000E+01 0. -1.
    1000022    2    1    0    0    0 -0.59419626558E+02 -0.13639657133E+02 -0.94613814545E+01  0.62499999283E+02  0.99999952194E+01 0.  0.
    3000022    2    3    3    0    0 -0.11953862873E+02 -0.31565157376E+01  0.20526774064E+01  0.12535326492E+02  0.24999306294E+00 0.  0.
    1000022    2    1    0    0    0  0.59419626558E+02  0.13639657133E+02  0.94613814545E+01  0.62500000717E+02  0.10000004177E+02 0.  0.
    3000022    2    5    5    0    0  0.76178347815E+01 -0.14941444576E+01  0.19047592951E+01  0.79971556505E+01  0.25003221279E+00 0.  0.
        -13    1    4    4    0    0 -0.35821774816E+01 -0.90304975080E+00  0.59442566061E+00  0.37432420745E+01  0.10500000000E+00 0.  1.
         13    1    4    4    0    0 -0.83716853916E+01 -0.22534659868E+01  0.14582517458E+01  0.87920844174E+01  0.10500000000E+00 0. -1.
    3000001    1    5    5    0    0  0.51801791777E+02  0.15133801590E+02  0.75566221594E+01  0.54502845066E+02  0.10000000000E+01 0. -1.
        -13    1    6    6    0    0  0.26329515082E+01 -0.50059257485E+00  0.60276906582E+00  0.27490693184E+01  0.10500000000E+00 0.  1.
         13    1    6    6    0    0  0.49848832733E+01 -0.99355188277E+00  0.13019902293E+01  0.52480863322E+01  0.10500000000E+00 0. -1.
</event>
<event>
11    0  0.3462209E-009  0.9118800E+02  0.7816531E-02  0.1126479E+00
         25   -1    0    0    0    0  0.00000000000E+00  0.00000000000E+00  0.99999998245E-14  0.12500000000E+03  0.12500000000E+03 0.  0.
    3000001    1    3    3    0    0 -0.54021376291E+02 -0.30534716026E+01 -0.84193438263E+01  0.54767856775E+02  0.10000000000E+01 0. -1.
    1000022    2    1    0    0    0 -0.60816871645E+02 -0.66993331148E+01 -0.79169105411E+01  0.62499997542E+02  0.99999639659E+01 0.  0.
    3000022    2    3    3    0    0 -0.67954953540E+01 -0.36458615122E+01  0.50243328514E+00  0.77321407671E+01  0.24999673035E+00 0.  0.
    1000022    2    1    0    0    0  0.60816871645E+02  0.66993331148E+01  0.79169105411E+01  0.62500002458E+02  0.99999946909E+01 0.  0.
    3000022    2    5    5    0    0  0.23100959014E+02  0.31369405348E+01  0.78580851704E+01  0.24602981904E+02  0.25002538832E+00 0.  0.
        -13    1    4    4    0    0 -0.47545635394E+01 -0.25491692413E+01  0.30533357439E+00  0.54044788705E+01  0.10500000000E+00 0. -1.
         13    1    4    4    0    0 -0.20409318146E+01 -0.10966922709E+01  0.19709971074E+00  0.23276618966E+01  0.10500000000E+00 0.  1.
    3000001    1    5    5    0    0  0.37715912631E+02  0.35623925799E+01  0.58825370701E-01  0.37897020554E+02  0.10000000000E+01 0.  1.
        -13    1    6    6    0    0  0.13614443019E+02  0.19104007917E+01  0.46136203426E+01  0.14501696714E+02  0.10500000000E+00 0.  1.
         13    1    6    6    0    0  0.94865159953E+01  0.12265397432E+01  0.32444648278E+01  0.10101285190E+02  0.10500000000E+00 0. -1.
</event>
<event>
11    0  0.3462209E-009  0.9118800E+02  0.7816531E-02  0.1126479E+00
         25   -1    0    0    0    0  0.00000000000E+00  0.00000000000E+00  0.99999998245E-14  0.12500000000E+03  0.12500000000E+03 0.  0.
    3000001    1    3    3    0    0 -0.26275212054E+02 -0.20359896842E+02  0.74448862459E+01  0.34078416910E+02  0.10000000000E+01 0.  1.
    1000022    2    1    0    0    0 -0.41724579919E+02 -0.43604811905E+02  0.12803507855E+02  0.62499999723E+02  0.99999980601E+01 0.  0.
    3000022    2    3    3    0    0 -0.15449367865E+02 -0.23244915063E+02  0.53586216092E+01  0.28421582812E+02  0.25000054187E+00 0.  0.
    1000022    2    1    0    0    0  0.41724579919E+02  0.43604811905E+02 -0.12803507855E+02  0.62500000277E+02  0.10000001525E+02 0.  0.
    3000022    2    5    5    0    0  0.19551874330E+02  0.27513835459E+02 -0.74958033729E+01  0.34576531241E+02  0.25002592369E+00 0.  0.
        -13    1    4    4    0    0 -0.11312551778E+02 -0.16987560714E+02  0.38874553132E+01  0.20776775027E+02  0.10500000000E+00 0.  1.
         13    1    4    4    0    0 -0.41368160876E+01 -0.62573543498E+01  0.14711662961E+01  0.76448077852E+01  0.10500000000E+00 0. -1.
    3000001    1    5    5    0    0  0.22172705589E+02  0.16090976446E+02 -0.53077044822E+01  0.27923469036E+02  0.10000000000E+01 0. -1.
        -13    1    6    6    0    0  0.49938798038E+01  0.70712059402E+01 -0.19062060647E+01  0.88648426666E+01  0.10500000000E+00 0. -1.
         13    1    6    6    0    0  0.14557994527E+02  0.20442629519E+02 -0.55895973082E+01  0.25711688575E+02  0.10500000000E+00 0.  1.
</event>
<event>
11    0  0.3462209E-009  0.9118800E+02  0.7816531E-02  0.1126479E+00
         25   -1    0    0    0    0  0.00000000000E+00  0.00000000000E+00  0.99999998245E-14  0.12500000000E+03  0.12500000000E+03 0.  0.
    3000001    1    3    3    0    0  0.15535014023E+01  0.24266865843E+02 -0.70260839638E+01  0.25331008672E+02  0.10000000000E+01 0. -1.
    1000022    2    1    0    0    0 -0.61245636797E+01  0.60443014645E+02 -0.10741587768E+02  0.62500000032E+02  0.99999998261E+01 0.  0.
    3000022    2    3    3    0    0 -0.76780650820E+01  0.36176148802E+02 -0.37155038047E+01  0.37168991360E+02  0.25004931516E+00 0.  0.
    1000022    2    1    0    0    0  0.61245636797E+01 -0.60443014645E+02  0.10741587768E+02  0.62499999968E+02  0.99999994291E+01 0.  0.
    3000022    2    5    5    0    0 -0.98687749916E+00 -0.15980263592E+01 -0.88141036868E+00  0.20897415041E+01  0.25003974227E+00 0.  0.
        -13    1    4    4    0    0 -0.36542840208E+01  0.17537322165E+02 -0.18134413915E+01  0.18005861687E+02  0.10500000000E+00 0.  1.
         13    1    4    4    0    0 -0.40237810611E+01  0.18638826637E+02 -0.19020624132E+01  0.19163129673E+02  0.10500000000E+00 0. -1.
    3000001    1    5    5    0    0  0.71114411789E+01 -0.58844988286E+02  0.11622998137E+02  0.60410258464E+02  0.10000000000E+01 0. -1.
        -13    1    6    6    0    0 -0.63612899922E+00 -0.11242365608E+01 -0.60473688734E+00  0.14301397314E+01  0.10500000000E+00 0. -1.
         13    1    6    6    0    0 -0.35074849994E+00 -0.47378979844E+00 -0.27667348135E+00  0.65960177273E+00  0.10500000000E+00 0.  1.
</event>
<event>
11    0  0.3462209E-009  0.9118800E+02  0.7816531E-02  0.1126479E+00
         25   -1    0    0    0    0  0.00000000000E+00  0.00000000000E+00  0.99999998245E-14  0.12500000000E+03  0.12500000000E+03 0.  0.
    3000001    1    3    3    0    0 -0.20927013811E+02  0.73715641425E+01  0.73697020408E+01  0.23400691723E+02  0.10000000000E+01 0. -1.
    1000022    2    1    0    0    0 -0.57589036446E+02  0.20955550196E+02  0.71146224839E+01  0.62500003081E+02  0.10000016459E+02 0.  0.
    3000022    2    3    3    0    0 -0.36662022636E+02  0.13583986054E+02 -0.25507955693E+00  0.39099311358E+02  0.25000448813E+00 0.  0.
    1000022    2    1    0    0    0  0.57589036446E+02 -0.20955550196E+02 -0.71146224839E+01  0.62499996919E+02  0.99999779471E+01 0.  0.
    3000022    2    5    5    0    0  0.25227856251E+01 -0.57547363014E-01  0.15309011638E+01  0.29620797480E+01  0.24999810127E+00 0.  0.
        -13    1    4    4    0    0 -0.19661361360E+02  0.73550618209E+01 -0.15068827690E+00  0.20992851089E+02  0.10500000000E+00 0. -1.
         13    1    4    4    0    0 -0.17000661276E+02  0.62289242330E+01 -0.10439128003E+00  0.18106460269E+02  0.10500000000E+00 0.  1.
    3000001    1    5    5    0    0  0.55066250821E+02 -0.20898002833E+02 -0.86455236477E+01  0.59537917171E+02  0.10000000000E+01 0.  1.
        -13    1    6    6    0    0  0.10374901887E+01 -0.58884663229E-01  0.56873883038E+00  0.11892611792E+01  0.10500000000E+00 0. -1.
         13    1    6    6    0    0  0.14852954365E+01  0.13373002152E-02  0.96216233343E+00  0.17728185688E+01  0.10500000000E+00 0.  1.
</event>
<event>
11    0  0.3462209E-009  0.9118800E+02  0.7816531E-02  0.1126479E+00
         25   -1    0    0    0    0  0.00000000000E+00  0.00000000000E+00  0.99999998245E-14  0.12500000000E+03  0.12500000000E+03 0.  0.
    3000001    1    3    3    0    0  0.43675269567E+01 -0.23546513420E+02 -0.51492642232E+02  0.56797938255E+02  0.10000000000E+01 0.  1.
    1000022    2    1    0    0    0  0.68206108828E+01 -0.23501979199E+02 -0.56633790768E+02  0.62500000111E+02  0.99999999040E+01 0.  0.
    3000022    2    3    3    0    0  0.24530839261E+01  0.44534220652E-01 -0.51411485356E+01  0.57020618564E+01  0.24999420718E+00 0.  0.
    1000022    2    1    0    0    0 -0.68206108828E+01  0.23501979199E+02  0.56633790768E+02  0.62499999889E+02  0.99999985148E+01 0.  0.
    3000022    2    5    5    0    0  0.16239004809E+01  0.38648863397E+01  0.16402191167E+02  0.16931295775E+02  0.25000473558E+00 0.  0.
        -13    1    4    4    0    0  0.90804860516E+00  0.23945207501E-01 -0.17733975034E+01  0.19952667359E+01  0.10500000000E+00 0.  1.
         13    1    4    4    0    0  0.15450353209E+01  0.20589013151E-01 -0.33677510321E+01  0.37067951204E+01  0.10500000000E+00 0. -1.
    3000001    1    5    5    0    0 -0.84445113637E+01  0.19637092860E+02  0.40231599601E+02  0.45568704114E+02  0.10000000000E+01 0.  1.
        -13    1    6    6    0    0  0.62766907038E+00  0.14075971816E+01  0.58391667103E+01  0.60400489368E+01  0.10500000000E+00 0. -1.
         13    1    6    6    0    0  0.99623141053E+00  0.24572891581E+01  0.10563024456E+02  0.10891246838E+02  0.10500000000E+00 0.  1.
</event>
<event>
11    0  0.3462209E-009  0.9118800E+02  0.7816531E-02  0.1126479E+00
         25   -1    0    0    0    0  0.00000000000E+00  0.00000000000E+00  0.99999998245E-14  0.12500000000E+03  0.12500000000E+03 0.  0.
    3000001    1    3    3    0    0 -0.74174421698E+00  0.14024680994E+01 -0.22739114279E+01  0.29475030848E+01  0.10000000000E+01 0.  1.
    1000022    2    1    0    0    0 -0.48515394208E+02  0.10145249809E+02 -0.36736636531E+02  0.62499999056E+02  0.99999924759E+01 0.  0.
    3000022    2    3    3    0    0 -0.47773649991E+02  0.87427817092E+01 -0.34462725103E+02  0.59552495971E+02  0.24997870337E+00 0.  0.
    1000022    2    1    0    0    0  0.48515394208E+02 -0.10145249809E+02  0.36736636531E+02  0.62500000944E+02  0.10000004282E+02 0.  0.
    3000022    2    5    5    0    0  0.29981031459E+02 -0.20343130951E+01  0.24992046581E+02  0.39085362576E+02  0.24999640745E+00 0.  0.
        -13    1    4    4    0    0 -0.22475938744E+02  0.41716115702E+01 -0.16264276663E+02  0.28055443070E+02  0.10500000000E+00 0. -1.
         13    1    4    4    0    0 -0.25297711247E+02  0.45711701390E+01 -0.18198448440E+02  0.31497052900E+02  0.10500000000E+00 0.  1.
    3000001    1    5    5    0    0  0.18534362748E+02 -0.81109367135E+01  0.11744589950E+02  0.23414638369E+02  0.10000000000E+01 0. -1.
        -13    1    6    6    0    0  0.12844911605E+02 -0.85093434470E+00  0.10625663304E+02  0.16692261352E+02  0.10500000000E+00 0.  1.
         13    1    6    6    0    0  0.17136119855E+02 -0.11833787504E+01  0.14366383277E+02  0.22393101224E+02  0.10500000000E+00 0. -1.
</event>
<event>
11    0  0.3462209E-009  0.9118800E+02  0.7816531E-02  0.1126479E+00
         25   -1    0    0    0    0  0.00000000000E+00  0.00000000000E+00  0.99999998245E-14  0.12500000000E+03  0.12500000000E+03 0.  0.
    3000001    1    3    3    0    0 -0.26475864881E+02 -0.72868133534E+01  0.49611178096E+02  0.56712768070E+02  0.10000000000E+01 0.  1.
    1000022    2    1    0    0    0 -0.30847093533E+02 -0.96761424711E+01  0.52545971593E+02  0.62499999528E+02  0.99999948943E+01 0.  0.
    3000022    2    3    3    0    0 -0.43712286515E+01 -0.23893291177E+01  0.29347934967E+01  0.57872314587E+01  0.25000306227E+00 0.  0.
    1000022    2    1    0    0    0  0.30847093533E+02  0.96761424711E+01 -0.52545971593E+02  0.62500000472E+02  0.10000000789E+02 0.  0.
    3000022    2    5    5    0    0  0.28291745438E+02  0.11290089160E+02 -0.45349597788E+02  0.54630920237E+02  0.24990654318E+00 0.  0.
        -13    1    4    4    0    0 -0.23378475354E+01 -0.12370944504E+01  0.14916035229E+01  0.30383942877E+01  0.10500000000E+00 0. -1.
         13    1    4    4    0    0 -0.20333811161E+01 -0.11522346674E+01  0.14431899738E+01  0.27488371710E+01  0.10500000000E+00 0.  1.
    3000001    1    5    5    0    0  0.25553480955E+01 -0.16139466884E+01 -0.71963738044E+01  0.78690802344E+01  0.10000000000E+01 0. -1.
        -13    1    6    6    0    0  0.16616302635E+02  0.66428033773E+01 -0.26754279317E+02  0.32187432900E+02  0.10500000000E+00 0. -1.
         13    1    6    6    0    0  0.11675442803E+02  0.46472857822E+01 -0.18595318472E+02  0.22443487337E+02  0.10500000000E+00 0.  1.
</event>
<event>
11    0  0.3462209E-009  0.9118800E+02  0.7816531E-02  0.1126479E+00
         25   -1    0    0    0    0  0.00000000000E+00  0.00000000000E+00  0.99999998245E-14  0.12500000000E+03  0.12500000000E+03 0.  0.
    3000001    1    3    3    0    0 -0.27277249060E+01 -0.39518168522E+02 -0.41964680297E+02  0.57716206727E+02  0.10000000000E+01 0.  1.
    1000022    2    1    0    0    0 -0.39625604400E+01 -0.40346918140E+02 -0.46504562188E+02  0.62499998808E+02  0.99999929028E+01 0.  0.
    3000022    2    3    3    0    0 -0.12348355340E+01 -0.82874961791E+00 -0.45398818911E+01  0.47837920812E+01  0.24998873150E+00 0.  0.
    1000022    2    1    0    0    0  0.39625604400E+01  0.40346918140E+02  0.46504562188E+02  0.62500001192E+02  0.10000007803E+02 0.  0.
    3000022    2    5    5    0    0  0.37415115830E+00  0.35850139958E+02  0.41141197724E+02  0.54571358587E+02  0.25000742966E+00 0.  0.
        -13    1    4    4    0    0 -0.49550346604E+00 -0.27637232152E+00 -0.16161811800E+01  0.17160920580E+01  0.10500000000E+00 0.  1.
         13    1    4    4    0    0 -0.73933206798E+00 -0.55237729639E+00 -0.29237007111E+01  0.30677000232E+01  0.10500000000E+00 0. -1.
    3000001    1    5    5    0    0  0.35884092817E+01  0.44967781812E+01  0.53633644640E+01  0.79286426050E+01  0.10000000000E+01 0. -1.
        -13    1    6    6    0    0  0.68589890674E-01  0.11352584381E+02  0.13022815098E+02  0.17276880933E+02  0.10500000000E+00 0.  1.
         13    1    6    6    0    0  0.30556126763E+00  0.24497555578E+02  0.28118382626E+02  0.37294477654E+02  0.10500000000E+00 0. -1.
</event>
<event>
11    0  0.3462209E-009  0.9118800E+02  0.7816531E-02  0.1126479E+00
         25   -1    0    0    0    0  0.00000000000E+00  0.00000000000E+00  0.99999998245E-14  0.12500000000E+03  0.12500000000E+03 0.  0.
    3000001    1    3    3    0    0 -0.12548436402E+02 -0.14611006989E+02  0.51654041165E+02  0.55136963555E+02  0.10000000000E+01 0.  1.
    1000022    2    1    0    0    0 -0.10944496883E+02 -0.15044830673E+02  0.58822792259E+02  0.62500000900E+02  0.10000014067E+02 0.  0.
    3000022    2    3    3    0    0  0.16039395187E+01 -0.43382368359E+00  0.71687510942E+01  0.73630373452E+01  0.25000345706E+00 0.  0.
    1000022    2    1    0    0    0  0.10944496883E+02  0.15044830673E+02 -0.58822792259E+02  0.62499999100E+02  0.10000002818E+02 0.  0.
    3000022    2    5    5    0    0  0.20647341917E+01  0.44339879916E+01 -0.31278814755E+02  0.31659913746E+02  0.25001834147E+00 0.  0.
        -13    1    4    4    0    0  0.11051310964E+01 -0.33500495407E+00  0.50924419419E+01  0.52227897709E+01  0.10500000000E+00 0.  1.
         13    1    4    4    0    0  0.49880842228E+00 -0.98818729528E-01  0.20763091523E+01  0.21402475743E+01  0.10500000000E+00 0. -1.
    3000001    1    5    5    0    0  0.88797626916E+01  0.10610842681E+02 -0.27543977504E+02  0.30840085354E+02  0.10000000000E+01 0. -1.
        -13    1    6    6    0    0  0.81120290935E+00  0.16129913652E+01 -0.11397987602E+02  0.11540577874E+02  0.10500000000E+00 0.  1.
         13    1    6    6    0    0  0.12535312824E+01  0.28209966264E+01 -0.19880827153E+02  0.20119335872E+02  0.10500000000E+00 0. -1.
</event>
<event>
11    0  0.3462209E-009  0.9118800E+02  0.7816531E-02  0.1126479E+00
         25   -1    0    0    0    0  0.00000000000E+00  0.00000000000E+00  0.99999998245E-14  0.12500000000E+03  0.12500000000E+03 0.  0.
    3000001    1    3    3    0    0 -0.11532402692E+01 -0.35104600275E+00  0.11978843343E+01  0.19718324708E+01  0.10000000000E+01 0.  1.
    1000022    2    1    0    0    0 -0.40261548367E+02 -0.45964053229E+02  0.85184238656E+01  0.62499999534E+02  0.99999965260E+01 0.  0.
    3000022    2    3    3    0    0 -0.39108308097E+02 -0.45613007226E+02  0.73205395314E+01  0.60528167063E+02  0.25003715068E+00 0.  0.
    1000022    2    1    0    0    0  0.40261548367E+02  0.45964053229E+02 -0.85184238656E+01  0.62500000466E+02  0.10000002348E+02 0.  0.
    3000022    2    5    5    0    0  0.14552684254E+02  0.23592939984E+02 -0.20440871748E+01  0.27796550531E+02  0.24998593506E+00 0.  0.
        -13    1    4    4    0    0 -0.17752542981E+02 -0.20606225355E+02  0.32961120605E+01  0.27397895638E+02  0.10500000000E+00 0. -1.
         13    1    4    4    0    0 -0.21355765116E+02 -0.25006781872E+02  0.40244274708E+01  0.33130271426E+02  0.10500000000E+00 0.  1.
    3000001    1    5    5    0    0  0.25708864112E+02  0.22371113245E+02 -0.64743366908E+01  0.34703449934E+02  0.10000000000E+01 0. -1.
        -13    1    6    6    0    0  0.34668995129E+01  0.56481581244E+01 -0.47712154718E+00  0.66452804607E+01  0.10500000000E+00 0.  1.
         13    1    6    6    0    0  0.11085784741E+02  0.17944781860E+02 -0.15669656276E+01  0.21151270071E+02  0.10500000000E+00 0. -1.
</event>
<event>
11    0  0.3462209E-009  0.9118800E+02  0.7816531E-02  0.1126479E+00
         25   -1    0    0    0    0  0.00000000000E+00  0.00000000000E+00  0.99999998245E-14  0.12500000000E+03  0.12500000000E+03 0.  0.
    3000001    1    3    3    0    0  0.22063512662E+02 -0.26515813928E+02 -0.89773355213E+01  0.35657811659E+02  0.10000000000E+01 0. -1.
    1000022    2    1    0    0    0  0.43251298712E+02 -0.39829788163E+02 -0.18685905760E+02  0.62499999012E+02  0.99999968482E+01 0.  0.
    3000022    2    3    3    0    0  0.21187786051E+02 -0.13313974235E+02 -0.97085702390E+01  0.26842187353E+02  0.24999627966E+00 0.  0.
    1000022    2    1    0    0    0 -0.43251298712E+02  0.39829788163E+02  0.18685905760E+02  0.62500000988E+02  0.10000009202E+02 0.  0.
    3000022    2    5    5    0    0 -0.16107072435E+02  0.13309406487E+02  0.18684181187E+01  0.20979312711E+02  0.24998419522E+00 0.  0.
        -13    1    4    4    0    0  0.11076193996E+02 -0.69051423029E+01 -0.51165677132E+01  0.14019748708E+02  0.10500000000E+00 0.  1.
         13    1    4    4    0    0  0.10111592054E+02 -0.64088319322E+01 -0.45920025258E+01  0.12822438645E+02  0.10500000000E+00 0. -1.
    3000001    1    5    5    0    0 -0.27144226277E+02  0.26520381676E+02  0.16817487642E+02  0.41520688277E+02  0.10000000000E+01 0. -1.
        -13    1    6    6    0    0 -0.57962998764E+01  0.47216681832E+01  0.64399662848E+00  0.75044652939E+01  0.10500000000E+00 0.  1.
         13    1    6    6    0    0 -0.10310772559E+02  0.85877383037E+01  0.12244214902E+01  0.13474847417E+02  0.10500000000E+00 0. -1.
</event>
<event>
11    0  0.3462209E-009  0.9118800E+02  0.7816531E-02  0.1126479E+00
         25   -1    0    0    0    0  0.00000000000E+00  0.00000000000E+00  0.99999998245E-14  0.12500000000E+03  0.12500000000E+03 0.  0.
    3000001    1    3    3    0    0 -0.87176892904E+01 -0.10076228992E+02 -0.12803633159E+02  0.18505715856E+02  0.10000000000E+01 0.  1.
    1000022    2    1    0    0    0 -0.29969408219E+02 -0.20435631264E+02 -0.49904601768E+02  0.62500001201E+02  0.10000020918E+02 0.  0.
    3000022    2    3    3    0    0 -0.21251718929E+02 -0.10359402272E+02 -0.37100968609E+02  0.43994285345E+02  0.24999693481E+00 0.  0.
    1000022    2    1    0    0    0  0.29969408219E+02  0.20435631264E+02  0.49904601768E+02  0.62499998799E+02  0.10000005902E+02 0.  0.
    3000022    2    5    5    0    0  0.62880984830E+01  0.94129062160E+01  0.12490223118E+02  0.16858563370E+02  0.24999873982E+00 0.  0.
        -13    1    4    4    0    0 -0.12014812455E+02 -0.58128975458E+01 -0.21043058858E+02  0.24919206395E+02  0.10500000000E+00 0. -1.
         13    1    4    4    0    0 -0.92369064732E+01 -0.45465047264E+01 -0.16057909751E+02  0.19075078951E+02  0.10500000000E+00 0.  1.
    3000001    1    5    5    0    0  0.23681309736E+02  0.11022725048E+02  0.37414378650E+02  0.45641435429E+02  0.10000000000E+01 0.  1.
        -13    1    6    6    0    0  0.21513194988E+01  0.31760901257E+01  0.41610374212E+01  0.56604753769E+01  0.10500000000E+00 0.  1.
         13    1    6    6    0    0  0.41367789842E+01  0.62368160904E+01  0.83291856973E+01  0.11198087993E+02  0.10500000000E+00 0. -1.
</event>
<event>
11    0  0.3462209E-009  0.9118800E+02  0.7816531E-02  0.1126479E+00
         25   -1    0    0    0    0  0.00000000000E+00  0.00000000000E+00  0.99999998245E-14  0.12500000000E+03  0.12500000000E+03 0.  0.
    3000001    1    3    3    0    0 -0.29565173258E+00 -0.12242824017E-01 -0.15814418258E+02  0.15848766030E+02  0.10000000000E+01 0. -1.
    1000022    2    1    0    0    0 -0.16290922514E+02  0.65370285433E+01 -0.59144932733E+02  0.62499999908E+02  0.10000001099E+02 0.  0.
    3000022    2    3    3    0    0 -0.15995270782E+02  0.65492713673E+01 -0.43330514475E+02  0.46651233879E+02  0.24998971884E+00 0.  0.
    1000022    2    1    0    0    0  0.16290922514E+02 -0.65370285433E+01  0.59144932733E+02  0.62500000092E+02  0.10000002247E+02 0.  0.
    3000022    2    5    5    0    0 -0.99688628642E+00 -0.88216335294E+00  0.13920196292E+01  0.19422193743E+01  0.25000600070E+00 0.  0.
        -13    1    4    4    0    0 -0.92023395480E+01  0.38018745868E+01 -0.24806504503E+02  0.26730338460E+02  0.10500000000E+00 0. -1.
         13    1    4    4    0    0 -0.67929312336E+01  0.27473967805E+01 -0.18524009972E+02  0.19920895418E+02  0.10500000000E+00 0.  1.
    3000001    1    5    5    0    0  0.17287808801E+02 -0.56548651903E+01  0.57752913104E+02  0.60557780718E+02  0.10000000000E+01 0.  1.
        -13    1    6    6    0    0 -0.45608124599E+00 -0.46533426637E+00  0.75124540821E+00  0.99997037244E+00  0.10500000000E+00 0.  1.
         13    1    6    6    0    0 -0.54080504043E+00 -0.41682908657E+00  0.64077422103E+00  0.94224900186E+00  0.10500000000E+00 0. -1.
</event>
<event>
11    0  0.3462209E-009  0.9118800E+02  0.7816531E-02  0.1126479E+00
         25   -1    0    0    0    0  0.00000000000E+00  0.00000000000E+00  0.99999998245E-14  0.12500000000E+03  0.12500000000E+03 0.  0.
    3000001    1    3    3    0    0  0.12595519622E+01 -0.39621498758E+02 -0.53595045003E+01  0.40014671353E+02  0.10000000000E+01 0.  1.
    1000022    2    1    0    0    0  0.67826896515E+01 -0.59787485552E+02 -0.13627237886E+02  0.62499999631E+02  0.10000001701E+02 0.  0.
    3000022    2    3    3    0    0  0.55231376893E+01 -0.20165986793E+02 -0.82677333861E+01  0.22485328278E+02  0.24999832390E+00 0.  0.
    1000022    2    1    0    0    0 -0.67826896515E+01  0.59787485552E+02  0.13627237886E+02  0.62500000369E+02  0.10000006309E+02 0.  0.
    3000022    2    5    5    0    0 -0.55741519802E+01  0.30917125699E+02  0.24861544205E+01  0.31514810647E+02  0.24998900550E+00 0.  0.
        -13    1    4    4    0    0  0.19580696987E+01 -0.71130143145E+01 -0.29778337268E+01  0.79566028107E+01  0.10500000000E+00 0.  1.
         13    1    4    4    0    0  0.35650679906E+01 -0.13052972479E+02 -0.52898996593E+01  0.14528725468E+02  0.10500000000E+00 0. -1.
    3000001    1    5    5    0    0 -0.12085376713E+01  0.28870359852E+02  0.11141083466E+02  0.30985189722E+02  0.10000000000E+01 0.  1.
        -13    1    6    6    0    0 -0.14896923540E+01  0.84701628214E+01  0.67400484495E+00  0.86271750337E+01  0.10500000000E+00 0.  1.
         13    1    6    6    0    0 -0.40844596262E+01  0.22446962878E+02  0.18121495756E+01  0.22887635613E+02  0.10500000000E+00 0. -1.
</event>
<event>
11    0  0.3462209E-009  0.9118800E+02  0.7816531E-02  0.1126479E+00
         25   -1    0    0    0    0  0.00000000000E+00  0.00000000000E+00  0.99999998245E-14  0.12500000000E+03  0.12500000000E+03 0.  0.
    3000001    1    3    3    0    0 -0.35527656928E+02  0.98636970846E+01 -0.38775317208E+02  0.53516653030E+02  0.10000000000E+01 0.  1.
    1000022    2    1    0    0    0 -0.42197458899E+02  0.14495943362E+02 -0.42608596591E+02  0.62499998216E+02  0.99999680983E+01 0.  0.
    3000022    2    3    3    0    0 -0.66698019714E+01  0.46322462772E+01 -0.38332793831E+01  0.89833451854E+01  0.24999196063E+00 0.  0.
    1000022    2    1    0    0    0  0.42197458899E+02 -0.14495943362E+02  0.42608596591E+02  0.62500001784E+02  0.99999904002E+01 0.  0.
    3000022    2    5    5    0    0  0.35415467813E+02 -0.90651236530E+01  0.30785629759E+02  0.47793821093E+02  0.25001548683E+00 0.  0.
        -13    1    4    4    0    0 -0.18321951753E+01  0.12510124474E+01 -0.10117701580E+01  0.24406300737E+01  0.10500000000E+00 0. -1.
         13    1    4    4    0    0 -0.48376067962E+01  0.33812338298E+01 -0.28215092251E+01  0.65427151118E+01  0.10500000000E+00 0.  1.
    3000001    1    5    5    0    0  0.67819910869E+01 -0.54308197088E+01  0.11822966832E+02  0.14706180691E+02  0.10000000000E+01 0. -1.
        -13    1    6    6    0    0  0.21437631153E+02 -0.55102821503E+01  0.18716100842E+02  0.28986871072E+02  0.10500000000E+00 0.  1.
         13    1    6    6    0    0  0.13977836660E+02 -0.35548415027E+01  0.12069528917E+02  0.18806950020E+02  0.10500000000E+00 0. -1.
</event>
<event>
11    0  0.3462209E-009  0.9118800E+02  0.7816531E-02  0.1126479E+00
         25   -1    0    0    0    0  0.00000000000E+00  0.00000000000E+00  0.99999998245E-14  0.12500000000E+03  0.12500000000E+03 0.  0.
    3000001    1    3    3    0    0  0.88296547951E+01 -0.18001450209E+01  0.57383573598E+01  0.10729961374E+02  0.10000000000E+01 0.  1.
    1000022    2    1    0    0    0  0.55926288143E+02 -0.20982220831E+02  0.15435238702E+02  0.62499999899E+02  0.10000004856E+02 0.  0.
    3000022    2    3    3    0    0  0.47096633348E+02 -0.19182075810E+02  0.96968813422E+01  0.51770038525E+02  0.24995204430E+00 0.  0.
    1000022    2    1    0    0    0 -0.55926288143E+02  0.20982220831E+02 -0.15435238702E+02  0.62500000101E+02  0.10000006123E+02 0.  0.
    3000022    2    5    5    0    0 -0.96388841192E+00 -0.58218640831E+00  0.61567841631E+00  0.13075088619E+01  0.24999525384E+00 0.  0.
        -13    1    4    4    0    0  0.29316394844E+02 -0.12001409522E+02  0.60620090868E+01  0.32252810983E+02  0.10500000000E+00 0. -1.
         13    1    4    4    0    0  0.17780238504E+02 -0.71806662880E+01  0.36348722554E+01  0.19517227541E+02  0.10500000000E+00 0.  1.
    3000001    1    5    5    0    0 -0.54962399731E+02  0.21564407239E+02 -0.16050917118E+02  0.61192491239E+02  0.10000000000E+01 0. -1.
        -13    1    6    6    0    0 -0.29479227140E+00 -0.19780061713E+00  0.25327476070E+00  0.44855397872E+00  0.10500000000E+00 0. -1.
         13    1    6    6    0    0 -0.66909614052E+00 -0.38438579117E+00  0.36240365560E+00  0.85895488316E+00  0.10500000000E+00 0.  1.
</event>
<event>
11    0  0.3462209E-009  0.9118800E+02  0.7816531E-02  0.1126479E+00
         25   -1    0    0    0    0  0.00000000000E+00  0.00000000000E+00  0.99999998245E-14  0.12500000000E+03  0.12500000000E+03 0.  0.
    3000001    1    3    3    0    0  0.11548121491E+02  0.51588191462E+01 -0.20257070951E+02  0.23902331444E+02  0.10000000000E+01 0.  1.
    1000022    2    1    0    0    0  0.22011503413E+02  0.22981094307E+02 -0.52854641127E+02  0.62499999009E+02  0.99999904674E+01 0.  0.
    3000022    2    3    3    0    0  0.10463381922E+02  0.17822275161E+02 -0.32597570176E+02  0.38597667565E+02  0.25001374412E+00 0.  0.
    1000022    2    1    0    0    0 -0.22011503413E+02 -0.22981094307E+02  0.52854641127E+02  0.62500000991E+02  0.10000002857E+02 0.  0.
    3000022    2    5    5    0    0 -0.60560198447E+01 -0.12968234697E+02  0.19650025844E+02  0.24311242310E+02  0.24999896201E+00 0.  0.
        -13    1    4    4    0    0  0.77687476186E+01  0.13198094872E+02 -0.24106525453E+02  0.28560090025E+02  0.10500000000E+00 0. -1.
         13    1    4    4    0    0  0.26946343038E+01  0.46241802889E+01 -0.84910447236E+01  0.10037577540E+02  0.10500000000E+00 0.  1.
    3000001    1    5    5    0    0 -0.15955483569E+02 -0.10012859610E+02  0.33204615283E+02  0.38188758681E+02  0.10000000000E+01 0. -1.
        -13    1    6    6    0    0 -0.40123852170E+01 -0.84601820189E+01  0.12851946024E+02  0.15901492274E+02  0.10500000000E+00 0.  1.
         13    1    6    6    0    0 -0.20436346277E+01 -0.45080526781E+01  0.67980798203E+01  0.84097500369E+01  0.10500000000E+00 0. -1.
</event>
<event>
11    0  0.3462209E-009  0.9118800E+02  0.7816531E-02  0.1126479E+00
         25   -1    0    0    0    0  0.00000000000E+00  0.00000000000E+00  0.99999998245E-14  0.12500000000E+03  0.12500000000E+03 0.  0.
    3000001    1    3    3    0    0  0.78221529117E+01  0.15153386441E+02  0.17991728825E+02  0.24809544593E+02  0.10000000000E+01 0. -1.
    1000022    2    1    0    0    0  0.27191450198E+02  0.41720236665E+02  0.36418358866E+02  0.62499999631E+02  0.99999990125E+01 0.  0.
    3000022    2    3    3    0    0  0.19369297286E+02  0.26566850224E+02  0.18426630040E+02  0.37690455038E+02  0.24999634620E+00 0.  0.
    1000022    2    1    0    0    0 -0.27191450198E+02 -0.41720236665E+02 -0.36418358866E+02  0.62500000369E+02  0.10000003621E+02 0.  0.
    3000022    2    5    5    0    0  0.27117704968E+00 -0.41563403952E+01 -0.39955129676E+01  0.57771378318E+01  0.24999035898E+00 0.  0.
        -13    1    4    4    0    0  0.12236980741E+02  0.16700533398E+02  0.11641748764E+02  0.23752744110E+02  0.10500000000E+00 0. -1.
         13    1    4    4    0    0  0.71323165447E+01  0.98663168258E+01  0.67848812759E+01  0.13937710929E+02  0.10500000000E+00 0.  1.
    3000001    1    5    5    0    0 -0.27462627247E+02 -0.37563896269E+02 -0.32422845898E+02  0.56722862537E+02  0.10000000000E+01 0. -1.
        -13    1    6    6    0    0  0.12672271822E+00 -0.23005233478E+01 -0.21230538752E+01  0.31347805471E+01  0.10500000000E+00 0.  1.
         13    1    6    6    0    0  0.14445433146E+00 -0.18558170474E+01 -0.18724590924E+01  0.26423572847E+01  0.10500000000E+00 0. -1.
</event>
<event>
11    0  0.3462209E-009  0.9118800E+02  0.7816531E-02  0.1126479E+00
         25   -1    0    0    0    0  0.00000000000E+00  0.00000000000E+00  0.99999998245E-14  0.12500000000E+03  0.12500000000E+03 0.  0.
    3000001    1    3    3    0    0  0.21412766931E+02 -0.35695975611E+01  0.31770458592E+02  0.38491695903E+02  0.10000000000E+01 0. -1.
    1000022    2    1    0    0    0  0.38556977938E+02 -0.10819458448E+02  0.46931322846E+02  0.62500001994E+02  0.99999978182E+01 0.  0.
    3000022    2    3    3    0    0  0.17144211007E+02 -0.72498608873E+01  0.15160864254E+02  0.24008306091E+02  0.25000494261E+00 0.  0.
    1000022    2    1    0    0    0 -0.38556977938E+02  0.10819458448E+02 -0.46931322846E+02  0.62499998006E+02  0.99999728873E+01 0.  0.
    3000022    2    5    5    0    0 -0.18296514377E+02  0.34416286876E+01 -0.28879702515E+02  0.34361416800E+02  0.25000151999E+00 0.  0.
        -13    1    4    4    0    0  0.39856588383E+01 -0.16970928835E+01  0.35230720442E+01  0.55846810347E+01  0.10500000000E+00 0. -1.
         13    1    4    4    0    0  0.13158552169E+02 -0.55527680039E+01  0.11637792210E+02  0.18423625056E+02  0.10500000000E+00 0.  1.
    3000001    1    5    5    0    0 -0.20260463561E+02  0.73778297608E+01 -0.18051620332E+02  0.28138581206E+02  0.10000000000E+01 0. -1.
        -13    1    6    6    0    0 -0.66991949489E+01  0.12848180820E+01 -0.10482638131E+02  0.12507065909E+02  0.10500000000E+00 0. -1.
         13    1    6    6    0    0 -0.11597319428E+02  0.21568106056E+01 -0.18397064384E+02  0.21854350891E+02  0.10500000000E+00 0.  1.
</event>
<event>
11    0  0.3462209E-009  0.9118800E+02  0.7816531E-02  0.1126479E+00
         25   -1    0    0    0    0  0.00000000000E+00  0.00000000000E+00  0.99999998245E-14  0.12500000000E+03  0.12500000000E+03 0.  0.
    3000001    1    3    3    0    0  0.47300147314E+02  0.85582180542E+01  0.21363358931E+02  0.52611216836E+02  0.10000000000E+01 0.  1.
    1000022    2    1    0    0    0  0.57060249034E+02  0.72955299182E+01  0.22296931009E+02  0.62499999500E+02  0.10000001425E+02 0.  0.
    3000022    2    3    3    0    0  0.97601017199E+01 -0.12626881360E+01  0.93357207873E+00  0.98887826640E+01  0.24999767777E+00 0.  0.
    1000022    2    1    0    0    0 -0.57060249034E+02 -0.72955299182E+01 -0.22296931009E+02  0.62500000500E+02  0.10000007674E+02 0.  0.
    3000022    2    5    5    0    0 -0.40094733691E+01 -0.30146482815E+01 -0.31500517125E+01  0.59286850387E+01  0.24999907775E+00 0.  0.
        -13    1    4    4    0    0  0.49674820033E+01 -0.58011971169E+00  0.44688770200E+00  0.50222654202E+01  0.10500000000E+00 0.  1.
         13    1    4    4    0    0  0.47926197165E+01 -0.68256842429E+00  0.48668437673E+00  0.48665172438E+01  0.10500000000E+00 0. -1.
    3000001    1    5    5    0    0 -0.53050775665E+02 -0.42808816367E+01 -0.19146879297E+02  0.56571315461E+02  0.10000000000E+01 0.  1.
        -13    1    6    6    0    0 -0.19125825304E+01 -0.13539055552E+01 -0.14673783150E+01  0.27668133850E+01  0.10500000000E+00 0. -1.
         13    1    6    6    0    0 -0.20968908387E+01 -0.16607427263E+01 -0.16826733974E+01  0.31618716538E+01  0.10500000000E+00 0.  1.
</event>
<event>
11    0  0.3462209E-009  0.9118800E+02  0.7816531E-02  0.1126479E+00
         25   -1    0    0    0    0  0.00000000000E+00  0.00000000000E+00  0.99999998245E-14  0.12500000000E+03  0.12500000000E+03 0.  0.
    3000001    1    3    3    0    0  0.22618060821E+02  0.29304525256E+02  0.31800914471E+02  0.48812191479E+02  0.10000000000E+01 0. -1.
    1000022    2    1    0    0    0  0.32493400762E+02  0.33666496180E+02  0.40211887957E+02  0.62500000218E+02  0.10000001801E+02 0.  0.
    3000022    2    3    3    0    0  0.98753399401E+01  0.43619709239E+01  0.84109734867E+01  0.13687808739E+02  0.25000759777E+00 0.  0.
    1000022    2    1    0    0    0 -0.32493400762E+02 -0.33666496180E+02 -0.40211887957E+02  0.62499999782E+02  0.99999990795E+01 0.  0.
    3000022    2    5    5    0    0 -0.56957669350E+01 -0.14610130164E+01 -0.59469600071E+01  0.83669081290E+01  0.24999659981E+00 0.  0.
        -13    1    4    4    0    0  0.55174445136E+01  0.25045734030E+01  0.47501042047E+01  0.76999738212E+01  0.10500000000E+00 0.  1.
         13    1    4    4    0    0  0.43578954265E+01  0.18573975208E+01  0.36608692820E+01  0.59878349174E+01  0.10500000000E+00 0. -1.
    3000001    1    5    5    0    0 -0.26797633827E+02 -0.32205483164E+02 -0.34264927950E+02  0.54133091653E+02  0.10000000000E+01 0.  1.
        -13    1    6    6    0    0 -0.19247332841E+01 -0.54681142156E+00 -0.19976944720E+01  0.28293831747E+01  0.10500000000E+00 0.  1.
         13    1    6    6    0    0 -0.37710336509E+01 -0.91420159482E+00 -0.39492655352E+01  0.55375249543E+01  0.10500000000E+00 0. -1.
</event>
<event>
11    0  0.3462209E-009  0.9118800E+02  0.7816531E-02  0.1126479E+00
         25   -1    0    0    0    0  0.00000000000E+00  0.00000000000E+00  0.99999998245E-14  0.12500000000E+03  0.12500000000E+03 0.  0.
    3000001    1    3    3    0    0 -0.29748215371E+02 -0.14536739360E+02 -0.11060702926E+02  0.34922947444E+02  0.10000000000E+01 0. -1.
    1000022    2    1    0    0    0 -0.56256812181E+02 -0.21981024064E+02 -0.12579959315E+02  0.62499997315E+02  0.99999976168E+01 0.  0.
    3000022    2    3    3    0    0 -0.26508596810E+02 -0.74442847043E+01 -0.15192563895E+01  0.27577049871E+02  0.24992000936E+00 0.  0.
    1000022    2    1    0    0    0  0.56256812181E+02  0.21981024064E+02  0.12579959315E+02  0.62500002685E+02  0.10000031177E+02 0.  0.
    3000022    2    5    5    0    0  0.21198334570E+01 -0.40808484605E+00 -0.94015565602E+00  0.23678301647E+01  0.24999980813E+00 0.  0.
        -13    1    4    4    0    0 -0.69889698862E+01 -0.19375193275E+01 -0.37765172295E+00  0.72631485624E+01  0.10500000000E+00 0.  1.
         13    1    4    4    0    0 -0.19519626924E+02 -0.55067653768E+01 -0.11416046666E+01  0.20313901309E+02  0.10500000000E+00 0. -1.
    3000001    1    5    5    0    0  0.54136978724E+02  0.22389108910E+02  0.13520114971E+02  0.60132172520E+02  0.10000000000E+01 0.  1.
        -13    1    6    6    0    0  0.49851154095E+00 -0.10807792811E+00 -0.23947487405E+00  0.57320834808E+00  0.10500000000E+00 0.  1.
         13    1    6    6    0    0  0.16213219161E+01 -0.30000691794E+00 -0.70068078197E+00  0.17946218166E+01  0.10500000000E+00 0. -1.
</event>
<event>
11    0  0.3462209E-009  0.9118800E+02  0.7816531E-02  0.1126479E+00
         25   -1    0    0    0    0  0.00000000000E+00  0.00000000000E+00  0.99999998245E-14  0.12500000000E+03  0.12500000000E+03 0.  0.
    3000001    1    3    3    0    0 -0.21077346383E+02 -0.19244326600E+02  0.42665206065E+02  0.51341196377E+02  0.10000000000E+01 0. -1.
    1000022    2    1    0    0    0 -0.27849393151E+02 -0.25803307211E+02  0.48629730435E+02  0.62499999729E+02  0.99999960997E+01 0.  0.
    3000022    2    3    3    0    0 -0.67720467679E+01 -0.65589806109E+01  0.59645243703E+01  0.11158803352E+02  0.24999440491E+00 0.  0.
    1000022    2    1    0    0    0  0.27849393151E+02  0.25803307211E+02 -0.48629730435E+02  0.62500000271E+02  0.99999994890E+01 0.  0.
    3000022    2    5    5    0    0  0.20548224546E+02  0.15527065298E+02 -0.38384855048E+02  0.46225305726E+02  0.25000716705E+00 0.  0.
        -13    1    4    4    0    0 -0.41177498376E+01 -0.39123995288E+01  0.36299737587E+01  0.67416962470E+01  0.10500000000E+00 0.  1.
         13    1    4    4    0    0 -0.26542969304E+01 -0.26465810821E+01  0.23345506116E+01  0.44171071050E+01  0.10500000000E+00 0. -1.
    3000001    1    5    5    0    0  0.73011686047E+01  0.10276241913E+02 -0.10244875387E+02  0.16274694545E+02  0.10000000000E+01 0.  1.
        -13    1    6    6    0    0  0.52665080628E+01  0.40174123386E+01 -0.98770278048E+01  0.11892956417E+02  0.10500000000E+00 0. -1.
         13    1    6    6    0    0  0.15281716483E+02  0.11509652959E+02 -0.28507827244E+02  0.34332349309E+02  0.10500000000E+00 0.  1.
</event>
<event>
11    0  0.3462209E-009  0.9118800E+02  0.7816531E-02  0.1126479E+00
         25   -1    0    0    0    0  0.00000000000E+00  0.00000000000E+00  0.99999998245E-14  0.12500000000E+03  0.12500000000E+03 0.  0.
    3000001    1    3    3    0    0  0.22077098168E+02  0.58225905992E+01  0.54300065329E+02  0.58913478250E+02  0.10000000000E+01 0.  1.
    1000022    2    1    0    0    0  0.23508403901E+02  0.83146853588E+01  0.56431123402E+02  0.62499992256E+02  0.99999148543E+01 0.  0.
    3000022    2    3    3    0    0  0.14313057334E+01  0.24920947596E+01  0.21310580724E+01  0.35865140062E+01  0.25000363030E+00 0.  0.
    1000022    2    1    0    0    0 -0.23508403901E+02 -0.83146853588E+01 -0.56431123402E+02  0.62500007744E+02  0.10000011649E+02 0.  0.
    3000022    2    5    5    0    0 -0.68516339409E+01  0.18221199181E+01 -0.11530439693E+02  0.13538040828E+02  0.25000258116E+00 0.  0.
        -13    1    4    4    0    0  0.83787949089E+00  0.14312681558E+01  0.13075899946E+01  0.21145654800E+01  0.10500000000E+00 0.  1.
         13    1    4    4    0    0  0.59342624246E+00  0.10608266038E+01  0.82346807781E+00  0.14719485262E+01  0.10500000000E+00 0. -1.
    3000001    1    5    5    0    0 -0.16656769961E+02 -0.10136805277E+02 -0.44900683709E+02  0.48961966916E+02  0.10000000000E+01 0.  1.
        -13    1    6    6    0    0 -0.35377773212E+01  0.92579517039E+00 -0.60733251098E+01  0.70900823663E+01  0.10500000000E+00 0. -1.
         13    1    6    6    0    0 -0.33138566196E+01  0.89632474773E+00 -0.54571145828E+01  0.64479584613E+01  0.10500000000E+00 0.  1.
</event>
<event>
11    0  0.3462209E-009  0.9118800E+02  0.7816531E-02  0.1126479E+00
         25   -1    0    0    0    0  0.00000000000E+00  0.00000000000E+00  0.99999998245E-14  0.12500000000E+03  0.12500000000E+03 0.  0.
    3000001    1    3    3    0    0  0.11379955621E+02 -0.28427058750E+02  0.52352098565E+01  0.31080676977E+02  0.10000000000E+01 0.  1.
    1000022    2    1    0    0    0  0.30707168750E+02 -0.53189927719E+02  0.58439222016E+01  0.62500000361E+02  0.99999997522E+01 0.  0.
    3000022    2    3    3    0    0  0.19327213130E+02 -0.24762868969E+02  0.60871234516E+00  0.31419323385E+02  0.25000854415E+00 0.  0.
    1000022    2    1    0    0    0 -0.30707168750E+02  0.53189927719E+02 -0.58439222016E+01  0.62499999639E+02  0.99999952347E+01 0.  0.
    3000022    2    5    5    0    0 -0.15045118906E+02  0.33373595734E+02 -0.24782030995E+00  0.36609785752E+02  0.25000567119E+00 0.  0.
        -13    1    4    4    0    0  0.12995689149E+02 -0.16681483178E+02  0.36110774290E+00  0.21149497424E+02  0.10500000000E+00 0.  1.
         13    1    4    4    0    0  0.63315239805E+01 -0.80813857914E+01  0.24760460226E+00  0.10269825961E+02  0.10500000000E+00 0. -1.
    3000001    1    5    5    0    0 -0.15662049845E+02  0.19816331985E+02 -0.55961018917E+01  0.25890213886E+02  0.10000000000E+01 0.  1.
        -13    1    6    6    0    0 -0.86556407457E+01  0.19167123578E+02 -0.78580790679E-01  0.21031308636E+02  0.10500000000E+00 0.  1.
         13    1    6    6    0    0 -0.63894781598E+01  0.14206472156E+02 -0.16923951927E+00  0.15578477117E+02  0.10500000000E+00 0. -1.
</event>
<event>
11    0  0.3462209E-009  0.9118800E+02  0.7816531E-02  0.1126479E+00
         25   -1    0    0    0    0  0.00000000000E+00  0.00000000000E+00  0.99999998245E-14  0.12500000000E+03  0.12500000000E+03 0.  0.
    3000001    1    3    3    0    0  0.10084281556E+02 -0.19605500355E+02 -0.13728142297E+02  0.25990965153E+02  0.10000000000E+01 0. -1.
    1000022    2    1    0    0    0  0.21723392818E+02 -0.39840352141E+02 -0.41798214282E+02  0.62499999505E+02  0.99999883355E+01 0.  0.
    3000022    2    3    3    0    0  0.11639111262E+02 -0.20234851785E+02 -0.28070071985E+02  0.36509034351E+02  0.25002055948E+00 0.  0.
    1000022    2    1    0    0    0 -0.21723392818E+02  0.39840352141E+02  0.41798214282E+02  0.62500000495E+02  0.99999945258E+01 0.  0.
    3000022    2    5    5    0    0 -0.21923718916E+02  0.33454964575E+02  0.35831735367E+02  0.53701581572E+02  0.24999611587E+00 0.  0.
        -13    1    4    4    0    0  0.70565467661E+01 -0.12390529345E+02 -0.17161339510E+02  0.22312388229E+02  0.10500000000E+00 0.  1.
         13    1    4    4    0    0  0.45825644961E+01 -0.78443224409E+01 -0.10908732475E+02  0.14196646122E+02  0.10500000000E+00 0. -1.
    3000001    1    5    5    0    0  0.20032609837E+00  0.63853875655E+01  0.59664789147E+01  0.87984189232E+01  0.10000000000E+01 0. -1.
        -13    1    6    6    0    0 -0.12711895439E+02  0.19513026001E+02  0.20881213700E+02  0.31279171663E+02  0.10500000000E+00 0. -1.
         13    1    6    6    0    0 -0.92118234774E+01  0.13941938574E+02  0.14950521668E+02  0.22422409909E+02  0.10500000000E+00 0.  1.
</event>
<event>
11    0  0.3462209E-009  0.9118800E+02  0.7816531E-02  0.1126479E+00
         25   -1    0    0    0    0  0.00000000000E+00  0.00000000000E+00  0.99999998245E-14  0.12500000000E+03  0.12500000000E+03 0.  0.
    3000001    1    3    3    0    0  0.10041978342E+02  0.17894067046E+02  0.10131057284E+01  0.20568552397E+02  0.10000000000E+01 0.  1.
    1000022    2    1    0    0    0  0.30866337470E+02  0.50756274509E+02  0.16652944330E+02  0.62499992456E+02  0.99999155662E+01 0.  0.
    3000022    2    3    3    0    0  0.20824359128E+02  0.32862207462E+02  0.15639838601E+02  0.41931440059E+02  0.25000314788E+00 0.  0.
    1000022    2    1    0    0    0 -0.30866337470E+02 -0.50756274509E+02 -0.16652944330E+02  0.62500007544E+02  0.10000009868E+02 0.  0.
    3000022    2    5    5    0    0 -0.40759338662E+01 -0.19423234757E+01 -0.17530813417E+01  0.48499125073E+01  0.24999954359E+00 0.  0.
        -13    1    4    4    0    0  0.98111288296E+01  0.15605908745E+02  0.73950924094E+01  0.19862050584E+02  0.10500000000E+00 0.  1.
         13    1    4    4    0    0  0.11013230299E+02  0.17256298717E+02  0.82447461917E+01  0.22069389475E+02  0.10500000000E+00 0. -1.
    3000001    1    5    5    0    0 -0.26790403604E+02 -0.48813951033E+02 -0.14899862988E+02  0.57650095037E+02  0.10000000000E+01 0. -1.
        -13    1    6    6    0    0 -0.26865312877E+01 -0.12188402488E+01 -0.11357439304E+01  0.31629039169E+01  0.10500000000E+00 0.  1.
         13    1    6    6    0    0 -0.13894025785E+01 -0.72348322691E+00 -0.61733741124E+00  0.16870085904E+01  0.10500000000E+00 0. -1.
</event>
<event>
11    0  0.3462209E-009  0.9118800E+02  0.7816531E-02  0.1126479E+00
         25   -1    0    0    0    0  0.00000000000E+00  0.00000000000E+00  0.99999998245E-14  0.12500000000E+03  0.12500000000E+03 0.  0.
    3000001    1    3    3    0    0  0.24055075522E+01 -0.13819013192E+01  0.15599165822E+02  0.15875455653E+02  0.10000000000E+01 0. -1.
    1000022    2    1    0    0    0  0.19281112135E+02 -0.17862526353E+02  0.55815938511E+02  0.62500002188E+02  0.10000007437E+02 0.  0.
    3000022    2    3    3    0    0  0.16875604582E+02 -0.16480625034E+02  0.40216772689E+02  0.46624546535E+02  0.25000509139E+00 0.  0.
    1000022    2    1    0    0    0 -0.19281112135E+02  0.17862526353E+02 -0.55815938511E+02  0.62499997812E+02  0.99999800863E+01 0.  0.
    3000022    2    5    5    0    0 -0.11911075582E+02  0.13424996223E+02 -0.46171368898E+02  0.49537481256E+02  0.24999626233E+00 0.  0.
        -13    1    4    4    0    0  0.89533884155E+01 -0.87173032072E+01  0.21177495925E+02  0.24589670555E+02  0.10500000000E+00 0.  1.
         13    1    4    4    0    0  0.79222161670E+01 -0.77633218266E+01  0.19039276764E+02  0.22034875980E+02  0.10500000000E+00 0. -1.
    3000001    1    5    5    0    0 -0.73700365531E+01  0.44375301296E+01 -0.96445696134E+01  0.12962516556E+02  0.10000000000E+01 0. -1.
        -13    1    6    6    0    0 -0.77631839949E+01  0.87725808569E+01 -0.29985984068E+02  0.32193096560E+02  0.10500000000E+00 0. -1.
         13    1    6    6    0    0 -0.41478915867E+01  0.46524153666E+01 -0.16185384830E+02  0.17344384695E+02  0.10500000000E+00 0.  1.
</event>
<event>
11    0  0.3462209E-009  0.9118800E+02  0.7816531E-02  0.1126479E+00
         25   -1    0    0    0    0  0.00000000000E+00  0.00000000000E+00  0.99999998245E-14  0.12500000000E+03  0.12500000000E+03 0.  0.
    3000001    1    3    3    0    0 -0.29706783440E+01 -0.65890355507E+01  0.12315096103E+02  0.14314395249E+02  0.10000000000E+01 0.  1.
    1000022    2    1    0    0    0 -0.14290248179E+02 -0.11628423203E+02  0.58879695350E+02  0.62499999835E+02  0.10000001780E+02 0.  0.
    3000022    2    3    3    0    0 -0.11319569835E+02 -0.50393876528E+01  0.46564599247E+02  0.48185604586E+02  0.24999421852E+00 0.  0.
    1000022    2    1    0    0    0  0.14290248179E+02  0.11628423203E+02 -0.58879695350E+02  0.62500000165E+02  0.10000003846E+02 0.  0.
    3000022    2    5    5    0    0  0.85782702753E+01  0.10475105793E+02 -0.50225200240E+02  0.52018725518E+02  0.25000612062E+00 0.  0.
        -13    1    4    4    0    0 -0.67465249061E+01 -0.30574714305E+01  0.27679273856E+02  0.28653393447E+02  0.10500000000E+00 0.  1.
         13    1    4    4    0    0 -0.45730449292E+01 -0.19819162222E+01  0.18885325391E+02  0.19532211139E+02  0.10500000000E+00 0. -1.
    3000001    1    5    5    0    0  0.57119779040E+01  0.11533174105E+01 -0.86544951100E+01  0.10481274647E+02  0.10000000000E+01 0.  1.
        -13    1    6    6    0    0  0.35531152711E+01  0.42386786509E+01 -0.20489093365E+02  0.21222747154E+02  0.10500000000E+00 0. -1.
         13    1    6    6    0    0  0.50251550042E+01  0.62364271420E+01 -0.29736106875E+02  0.30795978364E+02  0.10500000000E+00 0.  1.
</event>
<event>
11    0  0.3462209E-009  0.9118800E+02  0.7816531E-02  0.1126479E+00
         25   -1    0    0    0    0  0.00000000000E+00  0.00000000000E+00  0.99999998245E-14  0.12500000000E+03  0.12500000000E+03 0.  0.
    3000001    1    3    3    0    0 -0.45120123937E+02 -0.26094483655E+02 -0.26340477503E+02  0.58408633065E+02  0.10000000000E+01 0. -1.
    1000022    2    1    0    0    0 -0.49100103945E+02 -0.25661541990E+02 -0.27146179619E+02  0.62500000365E+02  0.10000001648E+02 0.  0.
    3000022    2    3    3    0    0 -0.39799800079E+01  0.43294166580E+00 -0.80570211564E+00  0.40913673001E+01  0.24990225306E+00 0.  0.
    1000022    2    1    0    0    0  0.49100103945E+02  0.25661541990E+02  0.27146179619E+02  0.62499999635E+02  0.99999970889E+01 0.  0.
    3000022    2    5    5    0    0  0.30788730151E+02  0.10664835120E+02  0.16590280636E+02  0.36564799029E+02  0.25000793449E+00 0.  0.
        -13    1    4    4    0    0 -0.25782311814E+01  0.22425621447E+00 -0.53209261218E+00  0.26441850204E+01  0.10500000000E+00 0.  1.
         13    1    4    4    0    0 -0.14017488265E+01  0.20868545133E+00 -0.27360950347E+00  0.14471822796E+01  0.10500000000E+00 0. -1.
    3000001    1    5    5    0    0  0.18311373794E+02  0.14996706870E+02  0.10555898983E+02  0.25935200607E+02  0.10000000000E+01 0.  1.
        -13    1    6    6    0    0  0.71762901617E+01  0.24980894167E+01  0.38645861489E+01  0.85255875060E+01  0.10500000000E+00 0.  1.
         13    1    6    6    0    0  0.23612439990E+02  0.81667457030E+01  0.12725694487E+02  0.28039211523E+02  0.10500000000E+00 0. -1.
</event>
<event>
11    0  0.3462209E-009  0.9118800E+02  0.7816531E-02  0.1126479E+00
         25   -1    0    0    0    0  0.00000000000E+00  0.00000000000E+00  0.99999998245E-14  0.12500000000E+03  0.12500000000E+03 0.  0.
    3000001    1    3    3    0    0  0.47489851886E+01  0.50090558712E+01  0.28549882458E+00  0.69803302659E+01  0.10000000000E+01 0. -1.
    1000022    2    1    0    0    0  0.31896598697E+02  0.48031467461E+02 -0.21950743720E+02  0.62500000665E+02  0.10000002916E+02 0.  0.
    3000022    2    3    3    0    0  0.27147613509E+02  0.43022411590E+02 -0.22236242545E+02  0.55519670399E+02  0.25000096441E+00 0.  0.
    1000022    2    1    0    0    0 -0.31896598697E+02 -0.48031467461E+02  0.21950743720E+02  0.62499999335E+02  0.99999946044E+01 0.  0.
    3000022    2    5    5    0    0 -0.11698633691E+02 -0.17718397422E+02  0.30536211835E+01  0.21451963502E+02  0.24999662457E+00 0.  0.
        -13    1    4    4    0    0  0.96572687802E+01  0.15412570366E+02 -0.79516250038E+01  0.19850680865E+02  0.10500000000E+00 0.  1.
         13    1    4    4    0    0  0.17490344728E+02  0.27609841224E+02 -0.14284617541E+02  0.35668989534E+02  0.10500000000E+00 0. -1.
    3000001    1    5    5    0    0 -0.20197965006E+02 -0.30313070039E+02  0.18897122537E+02  0.41048035833E+02  0.10000000000E+01 0. -1.
        -13    1    6    6    0    0 -0.43967379388E+01 -0.65804756508E+01  0.10965134062E+01  0.79904524868E+01  0.10500000000E+00 0. -1.
         13    1    6    6    0    0 -0.73018957525E+01 -0.11137921771E+02  0.19571077773E+01  0.13461511015E+02  0.10500000000E+00 0.  1.
</event>
<event>
11    0  0.3462209E-009  0.9118800E+02  0.7816531E-02  0.1126479E+00
         25   -1    0    0    0    0  0.00000000000E+00  0.00000000000E+00  0.99999998245E-14  0.12500000000E+03  0.12500000000E+03 0.  0.
    3000001    1    3    3    0    0 -0.65578022969E+00  0.91240659931E+01 -0.11560325571E+02  0.14775647372E+02  0.10000000000E+01 0.  1.
    1000022    2    1    0    0    0  0.98047225804E+01  0.27570217958E+02 -0.54313906508E+02  0.62499999973E+02  0.10000002667E+02 0.  0.
    3000022    2    3    3    0    0  0.10460502810E+02  0.18446151964E+02 -0.42753580937E+02  0.47724352601E+02  0.25001377897E+00 0.  0.
    1000022    2    1    0    0    0 -0.98047225804E+01 -0.27570217958E+02  0.54313906508E+02  0.62500000027E+02  0.10000003010E+02 0.  0.
    3000022    2    5    5    0    0  0.18503040759E+01 -0.44882728958E+01  0.11316525984E+02  0.12316431341E+02  0.25000374869E+00 0.  0.
        -13    1    4    4    0    0  0.24104990346E+01  0.42389058072E+01 -0.98401806109E+01  0.10982668505E+02  0.10500000000E+00 0. -1.
         13    1    4    4    0    0  0.80500037755E+01  0.14207246157E+02 -0.32913400326E+02  0.36741684096E+02  0.10500000000E+00 0.  1.
    3000001    1    5    5    0    0 -0.11655026656E+02 -0.23081945062E+02  0.42997380524E+02  0.50183568686E+02  0.10000000000E+01 0.  1.
        -13    1    6    6    0    0  0.73770502228E+00 -0.17726151098E+01  0.46364720060E+01  0.50193894739E+01  0.10500000000E+00 0. -1.
         13    1    6    6    0    0  0.11125990537E+01 -0.27156577859E+01  0.66800539781E+01  0.72970418674E+01  0.10500000000E+00 0.  1.
</event>
<event>
11    0  0.3462209E-009  0.9118800E+02  0.7816531E-02  0.1126479E+00
         25   -1    0    0    0    0  0.00000000000E+00  0.00000000000E+00  0.99999998245E-14  0.12500000000E+03  0.12500000000E+03 0.  0.
    3000001    1    3    3    0    0 -0.59506388163E+01 -0.30149684636E+01  0.15399984158E+02  0.16812484921E+02  0.10000000000E+01 0. -1.
    1000022    2    1    0    0    0 -0.14159542410E+02 -0.25025578958E+02  0.54584592844E+02  0.62500000988E+02  0.10000005204E+02 0.  0.
    3000022    2    3    3    0    0 -0.82089035935E+01 -0.22010610495E+02  0.39184608686E+02  0.45687516067E+02  0.24998782397E+00 0.  0.
    1000022    2    1    0    0    0  0.14159542410E+02  0.25025578958E+02 -0.54584592844E+02  0.62499999012E+02  0.99999928588E+01 0.  0.
    3000022    2    5    5    0    0  0.74169020928E+01  0.11428760600E+02 -0.15944536181E+02  0.20974216096E+02  0.25000262548E+00 0.  0.
        -13    1    4    4    0    0 -0.59875898960E+01 -0.16140812952E+02  0.28748902945E+02  0.33509513889E+02  0.10500000000E+00 0.  1.
         13    1    4    4    0    0 -0.22213136975E+01 -0.58697975428E+01  0.10435705741E+02  0.12178002178E+02  0.10500000000E+00 0. -1.
    3000001    1    5    5    0    0  0.67426403170E+01  0.13596818359E+02 -0.38640056663E+02  0.41525782916E+02  0.10000000000E+01 0.  1.
        -13    1    6    6    0    0  0.44851609578E+01  0.69813529132E+01 -0.96348690327E+01  0.12716040405E+02  0.10500000000E+00 0. -1.
         13    1    6    6    0    0  0.29317411350E+01  0.44474076866E+01 -0.63096671483E+01  0.82581756905E+01  0.10500000000E+00 0.  1.
</event>
<event>
11    0  0.3462209E-009  0.9118800E+02  0.7816531E-02  0.1126479E+00
         25   -1    0    0    0    0  0.00000000000E+00  0.00000000000E+00  0.99999998245E-14  0.12500000000E+03  0.12500000000E+03 0.  0.
    3000001    1    3    3    0    0  0.70173728353E+01  0.42101432285E+01 -0.27331813278E+01  0.86855689327E+01  0.10000000000E+01 0.  1.
    1000022    2    1    0    0    0  0.43685985489E+02  0.43554366892E+02 -0.89577094434E+00  0.62500006235E+02  0.10000008513E+02 0.  0.
    3000022    2    3    3    0    0  0.36668612654E+02  0.39344223664E+02  0.18374103835E+01  0.53814437302E+02  0.24999117946E+00 0.  0.
    1000022    2    1    0    0    0 -0.43685985489E+02 -0.43554366892E+02  0.89577094434E+00  0.62499993765E+02  0.99999305740E+01 0.  0.
    3000022    2    5    5    0    0 -0.26995300715E+02 -0.32215623195E+02 -0.20612481817E+01  0.42082108738E+02  0.24998647925E+00 0.  0.
        -13    1    4    4    0    0  0.12621623689E+02  0.13507158988E+02  0.68149218694E+00  0.18499302286E+02  0.10500000000E+00 0.  1.
         13    1    4    4    0    0  0.24046988964E+02  0.25837064676E+02  0.11559181965E+01  0.35315135016E+02  0.10500000000E+00 0. -1.
    3000001    1    5    5    0    0 -0.16690684774E+02 -0.11338743697E+02  0.29570191260E+01  0.20417885027E+02  0.10000000000E+01 0. -1.
        -13    1    6    6    0    0 -0.12156299690E+02 -0.14496527144E+02 -0.99420069116E+00  0.18945299718E+02  0.10500000000E+00 0.  1.
         13    1    6    6    0    0 -0.14839001026E+02 -0.17719096052E+02 -0.10670474905E+01  0.23136809021E+02  0.10500000000E+00 0. -1.
</event>
<event>
11    0  0.3462209E-009  0.9118800E+02  0.7816531E-02  0.1126479E+00
         25   -1    0    0    0    0  0.00000000000E+00  0.00000000000E+00  0.99999998245E-14  0.12500000000E+03  0.12500000000E+03 0.  0.
    3000001    1    3    3    0    0 -0.19724344344E+02  0.10676600545E+02 -0.42592003219E+02  0.48146840989E+02  0.10000000000E+01 0. -1.
    1000022    2    1    0    0    0 -0.21667753919E+02  0.10463048410E+02 -0.56809182635E+02  0.62499998652E+02  0.99999828939E+01 0.  0.
    3000022    2    3    3    0    0 -0.19434095747E+01 -0.21355213461E+00 -0.14217179417E+02  0.14353157663E+02  0.24999810914E+00 0.  0.
    1000022    2    1    0    0    0  0.21667753919E+02 -0.10463048410E+02  0.56809182635E+02  0.62500001348E+02  0.99999997437E+01 0.  0.
    3000022    2    5    5    0    0  0.13634497536E+02 -0.26879629389E+01  0.22970135107E+02  0.26847984577E+02  0.25000241126E+00 0.  0.
        -13    1    4    4    0    0 -0.11625762077E+01 -0.11913588620E+00 -0.80186928624E+01  0.81040876734E+01  0.10500000000E+00 0.  1.
         13    1    4    4    0    0 -0.78083336703E+00 -0.94416248410E-01 -0.61984865544E+01  0.62490699900E+01  0.10500000000E+00 0. -1.
    3000001    1    5    5    0    0  0.80332563832E+01 -0.77750854712E+01  0.33839047528E+02  0.35652016771E+02  0.10000000000E+01 0. -1.
        -13    1    6    6    0    0  0.74150776210E+01 -0.14638333384E+01  0.12621779494E+02  0.14712121763E+02  0.10500000000E+00 0.  1.
         13    1    6    6    0    0  0.62194199149E+01 -0.12241296005E+01  0.10348355613E+02  0.12135862814E+02  0.10500000000E+00 0. -1.
</event>
<event>
11    0  0.3462209E-009  0.9118800E+02  0.7816531E-02  0.1126479E+00
         25   -1    0    0    0    0  0.00000000000E+00  0.00000000000E+00  0.99999998245E-14  0.12500000000E+03  0.12500000000E+03 0.  0.
    3000001    1    3    3    0    0 -0.14775378557E+02 -0.53795839037E+02  0.74821875202E+01  0.56296422971E+02  0.10000000000E+01 0.  1.
    1000022    2    1    0    0    0 -0.13977914608E+02 -0.59781719495E+02  0.60839288743E+01  0.62499998059E+02  0.99999742145E+01 0.  0.
    3000022    2    3    3    0    0  0.79746394889E+00 -0.59858804578E+01 -0.13982586460E+01  0.62035750885E+01  0.25000606416E+00 0.  0.
    1000022    2    1    0    0    0  0.13977914608E+02  0.59781719495E+02 -0.60839288743E+01  0.62500001941E+02  0.99999984760E+01 0.  0.
    3000022    2    5    5    0    0  0.40208910844E+01  0.23708558949E+02 -0.70224541682E+01  0.25052758264E+02  0.25000315224E+00 0.  0.
        -13    1    4    4    0    0  0.44573914945E+00 -0.28379372606E+01 -0.65671798133E+00  0.29487073086E+01  0.10500000000E+00 0.  1.
         13    1    4    4    0    0  0.35172479944E+00 -0.31479431972E+01 -0.74154066465E+00  0.32548677799E+01  0.10500000000E+00 0. -1.
    3000001    1    5    5    0    0  0.99570235240E+01  0.36073160546E+02  0.93852529391E+00  0.37447243677E+02  0.10000000000E+01 0.  1.
        -13    1    6    6    0    0  0.23092393881E+01  0.13936307359E+02 -0.41621143123E+01  0.14727099847E+02  0.10500000000E+00 0.  1.
         13    1    6    6    0    0  0.17116516963E+01  0.97722515894E+01 -0.28603398558E+01  0.10325658417E+02  0.10500000000E+00 0. -1.
</event>
<event>
11    0  0.3462209E-009  0.9118800E+02  0.7816531E-02  0.1126479E+00
         25   -1    0    0    0    0  0.00000000000E+00  0.00000000000E+00  0.99999998245E-14  0.12500000000E+03  0.12500000000E+03 0.  0.
    3000001    1    3    3    0    0  0.40690562742E+01  0.61621069139E+01 -0.43058363410E+01  0.86063352931E+01  0.10000000000E+01 0.  1.
    1000022    2    1    0    0    0  0.29516513897E+02  0.53455010152E+02 -0.88083795396E+01  0.62500001022E+02  0.99999937341E+01 0.  0.
    3000022    2    3    3    0    0  0.25447457623E+02  0.47292903238E+02 -0.45025431986E+01  0.53893665729E+02  0.25002864000E+00 0.  0.
    1000022    2    1    0    0    0 -0.29516513897E+02 -0.53455010152E+02  0.88083795396E+01  0.62499998978E+02  0.99999809629E+01 0.  0.
    3000022    2    5    5    0    0 -0.83245831182E+01 -0.83233769770E+01 -0.42847014523E+00  0.11782333070E+02  0.24999501050E+00 0.  0.
        -13    1    4    4    0    0  0.12753960271E+02  0.23791114664E+02 -0.22096229937E+01  0.27084573068E+02  0.10500000000E+00 0.  1.
         13    1    4    4    0    0  0.12693497352E+02  0.23501788574E+02 -0.22929202049E+01  0.26809092660E+02  0.10500000000E+00 0. -1.
    3000001    1    5    5    0    0 -0.21191930778E+02 -0.45131633175E+02  0.92368496848E+01  0.50717665909E+02  0.10000000000E+01 0. -1.
        -13    1    6    6    0    0 -0.19043391263E+01 -0.19073277000E+01 -0.10034135408E+00  0.26991665104E+01  0.10500000000E+00 0.  1.
         13    1    6    6    0    0 -0.64202439919E+01 -0.64160492769E+01 -0.32812879115E+00  0.90831665593E+01  0.10500000000E+00 0. -1.
</event>
<event>
11    0  0.3462209E-009  0.9118800E+02  0.7816531E-02  0.1126479E+00
         25   -1    0    0    0    0  0.00000000000E+00  0.00000000000E+00  0.99999998245E-14  0.12500000000E+03  0.12500000000E+03 0.  0.
    3000001    1    3    3    0    0  0.14162045332E+02 -0.59638408475E+02  0.46986288876E+01  0.61484798177E+02  0.10000000000E+01 0.  1.
    1000022    2    1    0    0    0  0.15065514994E+02 -0.59610394547E+02  0.50873292328E+01  0.62500001402E+02  0.10000018823E+02 0.  0.
    3000022    2    3    3    0    0  0.90346966177E+00  0.28013928515E-01  0.38870034524E+00  0.10152032249E+01  0.25001483845E+00 0.  0.
    1000022    2    1    0    0    0 -0.15065514994E+02  0.59610394547E+02 -0.50873292328E+01  0.62499998598E+02  0.10000001301E+02 0.  0.
    3000022    2    5    5    0    0  0.10098336893E+01  0.57016387884E+01  0.10938016101E+01  0.58980802458E+01  0.24999934031E+00 0.  0.
        -13    1    4    4    0    0  0.47076568182E+00  0.47895796092E-01  0.26609243056E+00  0.55294169318E+00  0.10500000000E+00 0. -1.
         13    1    4    4    0    0  0.43270397995E+00 -0.19881867577E-01  0.12260791468E+00  0.46226153168E+00  0.10500000000E+00 0.  1.
    3000001    1    5    5    0    0 -0.16075348683E+02  0.53908755758E+02 -0.61811308429E+01  0.56601918352E+02  0.10000000000E+01 0.  1.
        -13    1    6    6    0    0  0.66590116441E+00  0.33969122661E+01  0.65359376829E+00  0.35242938468E+01  0.10500000000E+00 0. -1.
         13    1    6    6    0    0  0.34393252490E+00  0.23047265223E+01  0.44020784178E+00  0.23737863991E+01  0.10500000000E+00 0.  1.
</event>
<event>
11    0  0.3462209E-009  0.9118800E+02  0.7816531E-02  0.1126479E+00
         25   -1    0    0    0    0  0.00000000000E+00  0.00000000000E+00  0.99999998245E-14  0.12500000000E+03  0.12500000000E+03 0.  0.
    3000001    1    3    3    0    0  0.19818751237E+02  0.14628763436E+02  0.99592941026E+00  0.24673376251E+02  0.10000000000E+01 0. -1.
    1000022    2    1    0    0    0  0.48474454992E+02  0.36944099948E+02 -0.95713484589E+01  0.62500000030E+02  0.99999992346E+01 0.  0.
    3000022    2    3    3    0    0  0.28655703756E+02  0.22315336512E+02 -0.10567277869E+02  0.37826623779E+02  0.25000715454E+00 0.  0.
    1000022    2    1    0    0    0 -0.48474454992E+02 -0.36944099948E+02  0.95713484589E+01  0.62499999970E+02  0.99999988584E+01 0.  0.
    3000022    2    5    5    0    0 -0.78898978622E+01 -0.22212269379E+01  0.27299482829E+01  0.86428839696E+01  0.24997659723E+00 0.  0.
        -13    1    4    4    0    0  0.19989252501E+02  0.15507392662E+02 -0.73649651236E+01  0.26349633375E+02  0.10500000000E+00 0.  1.
         13    1    4    4    0    0  0.86664512545E+01  0.68079438501E+01 -0.32023127456E+01  0.11476990404E+02  0.10500000000E+00 0. -1.
    3000001    1    5    5    0    0 -0.40584557130E+02 -0.34722873010E+02  0.68414001760E+01  0.53857116000E+02  0.10000000000E+01 0. -1.
        -13    1    6    6    0    0 -0.44951898910E+01 -0.12672196456E+01  0.16243711198E+01  0.49459260328E+01  0.10500000000E+00 0. -1.
         13    1    6    6    0    0 -0.33947079712E+01 -0.95400729234E+00  0.11055771630E+01  0.36969579369E+01  0.10500000000E+00 0.  1.
</event>
<event>
11    0  0.3462209E-009  0.9118800E+02  0.7816531E-02  0.1126479E+00
         25   -1    0    0    0    0  0.00000000000E+00  0.00000000000E+00  0.99999998245E-14  0.12500000000E+03  0.12500000000E+03 0.  0.
    3000001    1    3    3    0    0  0.18366723185E+02  0.81787854094E+01  0.28849581571E+02  0.35178507759E+02  0.10000000000E+01 0. -1.
    1000022    2    1    0    0    0  0.34729983722E+02  0.60825194047E+01  0.50626879689E+02  0.62499998258E+02  0.10000001176E+02 0.  0.
    3000022    2    3    3    0    0  0.16363260537E+02 -0.20962660047E+01  0.21777298118E+02  0.27321490499E+02  0.25000636853E+00 0.  0.
    1000022    2    1    0    0    0 -0.34729983722E+02 -0.60825194047E+01 -0.50626879689E+02  0.62500001742E+02  0.10000022952E+02 0.  0.
    3000022    2    5    5    0    0 -0.11378518157E+02 -0.43876262922E+01 -0.24727535374E+02  0.27572367372E+02  0.24999380515E+00 0.  0.
        -13    1    4    4    0    0  0.72213123764E+01 -0.95301031166E+00  0.95159180411E+01  0.11984127096E+02  0.10500000000E+00 0. -1.
         13    1    4    4    0    0  0.91419481606E+01 -0.11432556931E+01  0.12261380077E+02  0.15337363402E+02  0.10500000000E+00 0.  1.
    3000001    1    5    5    0    0 -0.23351465566E+02 -0.16948931125E+01 -0.25899344315E+02  0.34927634370E+02  0.10000000000E+01 0. -1.
        -13    1    6    6    0    0 -0.85976563477E+01 -0.33279647702E+01 -0.18734074280E+02  0.20879933149E+02  0.10500000000E+00 0. -1.
         13    1    6    6    0    0 -0.27808618090E+01 -0.10596615220E+01 -0.59934610944E+01  0.66924342233E+01  0.10500000000E+00 0.  1.
</event>
<event>
11    0  0.3462209E-009  0.9118800E+02  0.7816531E-02  0.1126479E+00
         25   -1    0    0    0    0  0.00000000000E+00  0.00000000000E+00  0.99999998245E-14  0.12500000000E+03  0.12500000000E+03 0.  0.
    3000001    1    3    3    0    0  0.27414820974E+01 -0.18503271167E+02 -0.40724615445E+02  0.44826120411E+02  0.10000000000E+01 0.  1.
    1000022    2    1    0    0    0 -0.23614322729E+01 -0.25330138937E+02 -0.56205495725E+02  0.62499999754E+02  0.99999959337E+01 0.  0.
    3000022    2    3    3    0    0 -0.51029143704E+01 -0.68268677702E+01 -0.15480880279E+02  0.17673879343E+02  0.24999636064E+00 0.  0.
    1000022    2    1    0    0    0  0.23614322729E+01  0.25330138937E+02  0.56205495725E+02  0.62500000246E+02  0.99999990026E+01 0.  0.
    3000022    2    5    5    0    0 -0.20623362804E+01  0.19284666887E+02  0.44790583638E+02  0.48809942595E+02  0.25001123204E+00 0.  0.
        -13    1    4    4    0    0 -0.28691681713E+01 -0.38316456240E+01 -0.88301662887E+01  0.10044724778E+02  0.10500000000E+00 0.  1.
         13    1    4    4    0    0 -0.22337461990E+01 -0.29952221462E+01 -0.66507139908E+01  0.76291545648E+01  0.10500000000E+00 0. -1.
    3000001    1    5    5    0    0  0.44237685534E+01  0.60454720501E+01  0.11414912087E+02  0.13690057650E+02  0.10000000000E+01 0.  1.
        -13    1    6    6    0    0 -0.12614216693E+01  0.11512110522E+02  0.26604544429E+02  0.29016076279E+02  0.10500000000E+00 0.  1.
         13    1    6    6    0    0 -0.80091461113E+00  0.77725563651E+01  0.18186039209E+02  0.19793866317E+02  0.10500000000E+00 0. -1.
</event>
<event>
11    0  0.3462209E-009  0.9118800E+02  0.7816531E-02  0.1126479E+00
         25   -1    0    0    0    0  0.00000000000E+00  0.00000000000E+00  0.99999998245E-14  0.12500000000E+03  0.12500000000E+03 0.  0.
    3000001    1    3    3    0    0 -0.26809437736E+02 -0.40787510624E+01  0.57088531305E+01  0.27730365414E+02  0.10000000000E+01 0.  1.
    1000022    2    1    0    0    0 -0.61385908488E+02 -0.56702253512E+01  0.24225438958E+01  0.62499999474E+02  0.99999999441E+01 0.  0.
    3000022    2    3    3    0    0 -0.34576470752E+02 -0.15914742889E+01 -0.32863092348E+01  0.34769634059E+02  0.25000834261E+00 0.  0.
    1000022    2    1    0    0    0  0.61385908488E+02  0.56702253512E+01 -0.24225438958E+01  0.62500000526E+02  0.10000006520E+02 0.  0.
    3000022    2    5    5    0    0  0.55150514888E+02  0.64952748950E+01  0.40033581064E+00  0.55533689455E+02  0.25001480864E+00 0.  0.
        -13    1    4    4    0    0 -0.21815243806E+02 -0.95383862677E+00 -0.20412668351E+01  0.21931540432E+02  0.10500000000E+00 0. -1.
         13    1    4    4    0    0 -0.12761226946E+02 -0.63763566209E+00 -0.12450423996E+01  0.12838093627E+02  0.10500000000E+00 0.  1.
    3000001    1    5    5    0    0  0.62353936003E+01 -0.82504954378E+00 -0.28228797064E+01  0.69663110710E+01  0.10000000000E+01 0. -1.
        -13    1    6    6    0    0  0.19528674681E+02  0.22620112412E+01  0.98723643092E-01  0.19659771133E+02  0.10500000000E+00 0.  1.
         13    1    6    6    0    0  0.35621840206E+02  0.42332636538E+01  0.30161216755E+00  0.35873918322E+02  0.10500000000E+00 0. -1.
</event>
<event>
11    0  0.3462209E-009  0.9118800E+02  0.7816531E-02  0.1126479E+00
         25   -1    0    0    0    0  0.00000000000E+00  0.00000000000E+00  0.99999998245E-14  0.12500000000E+03  0.12500000000E+03 0.  0.
    3000001    1    3    3    0    0  0.14967305796E+01  0.18671423948E+01 -0.10103884321E+02  0.10431438133E+02  0.10000000000E+01 0.  1.
    1000022    2    1    0    0    0 -0.12633944914E+02  0.10070347860E+02 -0.59541763438E+02  0.62499998270E+02  0.99999860167E+01 0.  0.
    3000022    2    3    3    0    0 -0.14130675494E+02  0.82032054649E+01 -0.49437879117E+02  0.52068560137E+02  0.24998668461E+00 0.  0.
    1000022    2    1    0    0    0  0.12633944914E+02 -0.10070347860E+02  0.59541763438E+02  0.62500001730E+02  0.10000007640E+02 0.  0.
    3000022    2    5    5    0    0  0.54949588800E+01 -0.85124378459E+01  0.45760440384E+02  0.46869356499E+02  0.25000667595E+00 0.  0.
        -13    1    4    4    0    0 -0.52533106310E+01  0.31001529061E+01 -0.18326497997E+02  0.19315273088E+02  0.10500000000E+00 0. -1.
         13    1    4    4    0    0 -0.88773648628E+01  0.51030525588E+01 -0.31111381120E+02  0.32753287049E+02  0.10500000000E+00 0.  1.
    3000001    1    5    5    0    0  0.71389860342E+01 -0.15579100138E+01  0.13781323054E+02  0.15630645231E+02  0.10000000000E+01 0.  1.
        -13    1    6    6    0    0  0.13121264591E+01 -0.20552405476E+01  0.10946842610E+02  0.11215617580E+02  0.10500000000E+00 0.  1.
         13    1    6    6    0    0  0.41828324209E+01 -0.64571972983E+01  0.34813597773E+02  0.35653738919E+02  0.10500000000E+00 0. -1.
</event>
<event>
11    0  0.3462209E-009  0.9118800E+02  0.7816531E-02  0.1126479E+00
         25   -1    0    0    0    0  0.00000000000E+00  0.00000000000E+00  0.99999998245E-14  0.12500000000E+03  0.12500000000E+03 0.  0.
    3000001    1    3    3    0    0 -0.32326375705E+02  0.25953582130E+02  0.25486430208E+02  0.48673823728E+02  0.10000000000E+01 0. -1.
    1000022    2    1    0    0    0 -0.43226445639E+02  0.28406665494E+02  0.33627160511E+02  0.62499999373E+02  0.99999875256E+01 0.  0.
    3000022    2    3    3    0    0 -0.10900069934E+02  0.24530833640E+01  0.81407303031E+01  0.13826175644E+02  0.25000105808E+00 0.  0.
    1000022    2    1    0    0    0  0.43226445639E+02 -0.28406665494E+02 -0.33627160511E+02  0.62500000627E+02  0.99999953669E+01 0.  0.
    3000022    2    5    5    0    0  0.13827516633E+02 -0.85451218653E+01 -0.16232600727E+02  0.22973444339E+02  0.24998893217E+00 0.  0.
        -13    1    4    4    0    0 -0.76436118688E+01  0.17601718021E+01  0.56857153717E+01  0.96882088882E+01  0.10500000000E+00 0.  1.
         13    1    4    4    0    0 -0.32564580649E+01  0.69291156190E+00  0.24550149314E+01  0.41379667561E+01  0.10500000000E+00 0. -1.
    3000001    1    5    5    0    0  0.29398929005E+02 -0.19861543629E+02 -0.17394559783E+02  0.39526556289E+02  0.10000000000E+01 0.  1.
        -13    1    6    6    0    0  0.88528799387E+01 -0.54043093375E+01 -0.10337298215E+02  0.14644138828E+02  0.10500000000E+00 0. -1.
         13    1    6    6    0    0  0.49746366947E+01 -0.31408125278E+01 -0.58953025127E+01  0.83293055110E+01  0.10500000000E+00 0.  1.
</event>
<event>
11    0  0.3462209E-009  0.9118800E+02  0.7816531E-02  0.1126479E+00
         25   -1    0    0    0    0  0.00000000000E+00  0.00000000000E+00  0.99999998245E-14  0.12500000000E+03  0.12500000000E+03 0.  0.
    3000001    1    3    3    0    0 -0.17553700083E+02 -0.25558131170E+02 -0.16565351169E+00  0.31022216178E+02  0.10000000000E+01 0. -1.
    1000022    2    1    0    0    0 -0.33601388430E+02 -0.50870586432E+02  0.94541053125E+01  0.62500001160E+02  0.10000008472E+02 0.  0.
    3000022    2    3    3    0    0 -0.16047688347E+02 -0.25312455261E+02  0.96197588242E+01  0.31477784982E+02  0.24998979911E+00 0.  0.
    1000022    2    1    0    0    0  0.33601388430E+02  0.50870586432E+02 -0.94541053125E+01  0.62499998840E+02  0.99999939673E+01 0.  0.
    3000022    2    5    5    0    0  0.32502311393E+02  0.50739547127E+02 -0.95297200343E+01  0.61006392727E+02  0.25000227187E+00 0.  0.
        -13    1    4    4    0    0 -0.76409443634E+01 -0.12062380422E+02  0.45123839263E+01  0.14975235754E+02  0.10500000000E+00 0. -1.
         13    1    4    4    0    0 -0.84067439836E+01 -0.13250074840E+02  0.51073748979E+01  0.16502549228E+02  0.10500000000E+00 0.  1.
    3000001    1    5    5    0    0  0.10990770373E+01  0.13103930511E+00  0.75614721785E-01  0.14936061126E+01  0.10000000000E+01 0.  1.
        -13    1    6    6    0    0  0.21816465796E+02  0.33959789193E+02 -0.63822887004E+01  0.40865267599E+02  0.10500000000E+00 0. -1.
         13    1    6    6    0    0  0.10685845597E+02  0.16779757933E+02 -0.31474313338E+01  0.20141125128E+02  0.10500000000E+00 0.  1.
</event>
<event>
11    0  0.3462209E-009  0.9118800E+02  0.7816531E-02  0.1126479E+00
         25   -1    0    0    0    0  0.00000000000E+00  0.00000000000E+00  0.99999998245E-14  0.12500000000E+03  0.12500000000E+03 0.  0.
    3000001    1    3    3    0    0 -0.33282176322E+02 -0.57648751064E+01 -0.39256671162E+02  0.51797908032E+02  0.10000000000E+01 0. -1.
    1000022    2    1    0    0    0 -0.36642166136E+02 -0.49801407064E+01 -0.49384206117E+02  0.62500001334E+02  0.10000010616E+02 0.  0.
    3000022    2    3    3    0    0 -0.33599898135E+01  0.78473440006E+00 -0.10127534955E+02  0.10702093302E+02  0.24999430799E+00 0.  0.
    1000022    2    1    0    0    0  0.36642166136E+02  0.49801407064E+01  0.49384206117E+02  0.62499998666E+02  0.99999939469E+01 0.  0.
    3000022    2    5    5    0    0  0.71549323157E+01  0.42606345372E+01  0.71670409495E+01  0.10989769758E+02  0.25000049658E+00 0.  0.
        -13    1    4    4    0    0 -0.20224429126E+01  0.42562042203E+00 -0.59239328641E+01  0.62749847535E+01  0.10500000000E+00 0.  1.
         13    1    4    4    0    0 -0.13375469008E+01  0.35911397803E+00 -0.42036020907E+01  0.44271085482E+01  0.10500000000E+00 0. -1.
    3000001    1    5    5    0    0  0.29487233820E+02  0.71950616916E+00  0.42217165168E+02  0.51510228909E+02  0.10000000000E+01 0. -1.
        -13    1    6    6    0    0  0.43344142245E+01  0.25533882312E+01  0.44053292395E+01  0.66876669203E+01  0.10500000000E+00 0.  1.
         13    1    6    6    0    0  0.28205180912E+01  0.17072463060E+01  0.27617117100E+01  0.43021028372E+01  0.10500000000E+00 0. -1.
</event>
<event>
11    0  0.3462209E-009  0.9118800E+02  0.7816531E-02  0.1126479E+00
         25   -1    0    0    0    0  0.00000000000E+00  0.00000000000E+00  0.99999998245E-14  0.12500000000E+03  0.12500000000E+03 0.  0.
    3000001    1    3    3    0    0 -0.25997620844E+02  0.38170962844E+02  0.16185427699E-01  0.46194144174E+02  0.10000000000E+01 0.  1.
    1000022    2    1    0    0    0 -0.36549238368E+02  0.49423883025E+02 -0.52614622097E+01  0.62499999545E+02  0.99999960019E+01 0.  0.
    3000022    2    3    3    0    0 -0.10551617524E+02  0.11252920181E+02 -0.52776476374E+01  0.16305855371E+02  0.25001967591E+00 0.  0.
    1000022    2    1    0    0    0  0.36549238368E+02 -0.49423883025E+02  0.52614622097E+01  0.62500000455E+02  0.10000001686E+02 0.  0.
    3000022    2    5    5    0    0  0.65591194230E+01 -0.16264492460E+02  0.80195030264E+00  0.17557374103E+02  0.24999701813E+00 0.  0.
        -13    1    4    4    0    0 -0.79909400043E+01  0.84956361798E+01 -0.39758058532E+01  0.12322703171E+02  0.10500000000E+00 0. -1.
         13    1    4    4    0    0 -0.25606775197E+01  0.27572840010E+01 -0.13018417842E+01  0.39831522006E+01  0.10500000000E+00 0.  1.
    3000001    1    5    5    0    0  0.29990118945E+02 -0.33159390565E+02  0.44595119071E+01  0.44942626352E+02  0.10000000000E+01 0.  1.
        -13    1    6    6    0    0  0.33667099594E+01 -0.84756702758E+01  0.36894518145E+00  0.91279169651E+01  0.10500000000E+00 0.  1.
         13    1    6    6    0    0  0.31924094636E+01 -0.77888221843E+01  0.43300512119E+00  0.84294571378E+01  0.10500000000E+00 0. -1.
</event>
<event>
11    0  0.3462209E-009  0.9118800E+02  0.7816531E-02  0.1126479E+00
         25   -1    0    0    0    0  0.00000000000E+00  0.00000000000E+00  0.99999998245E-14  0.12500000000E+03  0.12500000000E+03 0.  0.
    3000001    1    3    3    0    0  0.12607404410E+02  0.98392721851E+01  0.38495128062E+02  0.41696916045E+02  0.10000000000E+01 0. -1.
    1000022    2    1    0    0    0  0.13902725465E+02  0.19579756454E+02  0.56829541849E+02  0.62499995479E+02  0.99999985004E+01 0.  0.
    3000022    2    3    3    0    0  0.12953210544E+01  0.97404842687E+01  0.18334413787E+02  0.20803079435E+02  0.24998928304E+00 0.  0.
    1000022    2    1    0    0    0 -0.13902725465E+02 -0.19579756454E+02 -0.56829541849E+02  0.62500004521E+02  0.10000055009E+02 0.  0.
    3000022    2    5    5    0    0 -0.53009444384E+01 -0.14440374676E+02 -0.27793631954E+02  0.31767481921E+02  0.24999544035E+00 0.  0.
        -13    1    4    4    0    0  0.77366540901E+00  0.59621699164E+01  0.11092079674E+02  0.12617102868E+02  0.10500000000E+00 0. -1.
         13    1    4    4    0    0  0.52165564542E+00  0.37783143522E+01  0.72423341126E+01  0.81859765669E+01  0.10500000000E+00 0.  1.
    3000001    1    5    5    0    0 -0.86017810263E+01 -0.51393817781E+01 -0.29035909895E+02  0.30732522599E+02  0.10000000000E+01 0.  1.
        -13    1    6    6    0    0 -0.34342033607E+01 -0.92685316613E+01 -0.17756088474E+02  0.20322134109E+02  0.10500000000E+00 0. -1.
         13    1    6    6    0    0 -0.18667410777E+01 -0.51718430144E+01 -0.10037543480E+02  0.11445347812E+02  0.10500000000E+00 0.  1.
</event>
<event>
11    0  0.3462209E-009  0.9118800E+02  0.7816531E-02  0.1126479E+00
         25   -1    0    0    0    0  0.00000000000E+00  0.00000000000E+00  0.99999998245E-14  0.12500000000E+03  0.12500000000E+03 0.  0.
    3000001    1    3    3    0    0  0.10489955762E+02 -0.25835513566E+02  0.16245869338E+02  0.32286858064E+02  0.10000000000E+01 0.  1.
    1000022    2    1    0    0    0  0.27721952555E+02 -0.48859384585E+02  0.25504980446E+02  0.62500000556E+02  0.99999963237E+01 0.  0.
    3000022    2    3    3    0    0  0.17231996792E+02 -0.23023871019E+02  0.92591111079E+01  0.30213142492E+02  0.24998112041E+00 0.  0.
    1000022    2    1    0    0    0 -0.27721952555E+02  0.48859384585E+02 -0.25504980446E+02  0.62499999444E+02  0.99999893738E+01 0.  0.
    3000022    2    5    5    0    0 -0.14334713383E+02  0.21000674525E+02 -0.66586170693E+01  0.26285205349E+02  0.25000131385E+00 0.  0.
        -13    1    4    4    0    0  0.12025970816E+02 -0.16026314437E+02  0.64094942370E+01  0.21037095091E+02  0.10500000000E+00 0. -1.
         13    1    4    4    0    0  0.52060259765E+01 -0.69975565821E+01  0.28496168709E+01  0.91760474006E+01  0.10500000000E+00 0.  1.
    3000001    1    5    5    0    0 -0.13387239171E+02  0.27858710060E+02 -0.18846363377E+02  0.36214794095E+02  0.10000000000E+01 0. -1.
        -13    1    6    6    0    0 -0.75418916108E+01  0.11007248078E+02 -0.34287957424E+01  0.13777057180E+02  0.10500000000E+00 0.  1.
         13    1    6    6    0    0 -0.67928217726E+01  0.99934264476E+01 -0.32298213268E+01  0.12508148168E+02  0.10500000000E+00 0. -1.
</event>
<event>
11    0  0.3462209E-009  0.9118800E+02  0.7816531E-02  0.1126479E+00
         25   -1    0    0    0    0  0.00000000000E+00  0.00000000000E+00  0.99999998245E-14  0.12500000000E+03  0.12500000000E+03 0.  0.
    3000001    1    3    3    0    0 -0.61414289008E+01 -0.57666953923E+01 -0.20347226655E+01  0.87242203673E+01  0.10000000000E+01 0.  1.
    1000022    2    1    0    0    0 -0.45248420973E+02 -0.40894483666E+02  0.92990497632E+01  0.62500007080E+02  0.10000008183E+02 0.  0.
    3000022    2    3    3    0    0 -0.39106992072E+02 -0.35127788274E+02  0.11333772429E+02  0.53775786713E+02  0.25000236994E+00 0.  0.
    1000022    2    1    0    0    0  0.45248420973E+02  0.40894483666E+02 -0.92990497632E+01  0.62499992920E+02  0.99999196829E+01 0.  0.
    3000022    2    5    5    0    0  0.23929418017E+02  0.18224841454E+02 -0.26876023760E+00  0.30081499834E+02  0.25001510014E+00 0.  0.
        -13    1    4    4    0    0 -0.11714331553E+02 -0.10542224672E+02  0.34422165285E+01  0.16131458223E+02  0.10500000000E+00 0. -1.
         13    1    4    4    0    0 -0.27392660519E+02 -0.24585563602E+02  0.78915559002E+01  0.37644328490E+02  0.10500000000E+00 0.  1.
    3000001    1    5    5    0    0  0.21319002956E+02  0.22669642212E+02 -0.90302895256E+01  0.32418493086E+02  0.10000000000E+01 0.  1.
        -13    1    6    6    0    0  0.94314920563E+01  0.72317021414E+01 -0.57003899667E-01  0.11885488325E+02  0.10500000000E+00 0. -1.
         13    1    6    6    0    0  0.14497925960E+02  0.10993139313E+02 -0.21175633793E+00  0.18196011509E+02  0.10500000000E+00 0.  1.
</event>
<event>
11    0  0.3462209E-009  0.9118800E+02  0.7816531E-02  0.1126479E+00
         25   -1    0    0    0    0  0.00000000000E+00  0.00000000000E+00  0.99999998245E-14  0.12500000000E+03  0.12500000000E+03 0.  0.
    3000001    1    3    3    0    0 -0.23138539811E+01 -0.44239280728E+02  0.29317724462E+02  0.53131881646E+02  0.10000000000E+01 0.  1.
    1000022    2    1    0    0    0 -0.66811763840E+01 -0.51496573352E+02  0.33312384264E+02  0.62499999072E+02  0.99999876856E+01 0.  0.
    3000022    2    3    3    0    0 -0.43673224029E+01 -0.72572926239E+01  0.39946598027E+01  0.93681174262E+01  0.25003194028E+00 0.  0.
    1000022    2    1    0    0    0  0.66811763840E+01  0.51496573352E+02 -0.33312384264E+02  0.62500000928E+02  0.99999992845E+01 0.  0.
    3000022    2    5    5    0    0 -0.11970208979E+01  0.15639697857E+02 -0.62783096934E+01  0.16897120529E+02  0.25000299787E+00 0.  0.
        -13    1    4    4    0    0 -0.28324635553E+01 -0.47666365546E+01  0.26657809055E+01  0.61531363281E+01  0.10500000000E+00 0. -1.
         13    1    4    4    0    0 -0.15348588475E+01 -0.24906560693E+01  0.13288788972E+01  0.32149810980E+01  0.10500000000E+00 0.  1.
    3000001    1    5    5    0    0  0.78781972819E+01  0.35856875496E+02 -0.27034074571E+02  0.45602880399E+02  0.10000000000E+01 0.  1.
        -13    1    6    6    0    0 -0.52895483667E+00  0.61077425646E+01 -0.24645340195E+01  0.66082724965E+01  0.10500000000E+00 0. -1.
         13    1    6    6    0    0 -0.66806606124E+00  0.95319552921E+01 -0.38137756738E+01  0.10288848033E+02  0.10500000000E+00 0.  1.
</event>
<event>
11    0  0.3462209E-009  0.9118800E+02  0.7816531E-02  0.1126479E+00
         25   -1    0    0    0    0  0.00000000000E+00  0.00000000000E+00  0.99999998245E-14  0.12500000000E+03  0.12500000000E+03 0.  0.
    3000001    1    3    3    0    0  0.59952854195E+01 -0.55892870922E+01  0.24630776360E+02  0.25978043067E+02  0.10000000000E+01 0.  1.
    1000022    2    1    0    0    0  0.32602215567E+01 -0.16972157793E+02  0.59224714920E+02  0.62500000498E+02  0.10000001011E+02 0.  0.
    3000022    2    3    3    0    0 -0.27350638627E+01 -0.11382870700E+02  0.34593938559E+02  0.36521957431E+02  0.24993973817E+00 0.  0.
    1000022    2    1    0    0    0 -0.32602215567E+01  0.16972157793E+02 -0.59224714920E+02  0.62499999502E+02  0.99999947846E+01 0.  0.
    3000022    2    5    5    0    0  0.18756772973E+01  0.25082785336E+00 -0.11571254002E+02  0.11727638227E+02  0.24999854988E+00 0.  0.
        -13    1    4    4    0    0 -0.11331218384E+01 -0.46403296147E+01  0.14307579788E+02  0.15084246366E+02  0.10500000000E+00 0. -1.
         13    1    4    4    0    0 -0.16019420244E+01 -0.67425410858E+01  0.20286358771E+02  0.21437711066E+02  0.10500000000E+00 0.  1.
    3000001    1    5    5    0    0 -0.51358988541E+01  0.16721329939E+02 -0.47653460918E+02  0.50772361275E+02  0.10000000000E+01 0.  1.
        -13    1    6    6    0    0  0.88723406891E+00  0.15259668852E+00 -0.51459985341E+01  0.52252077428E+01  0.10500000000E+00 0. -1.
         13    1    6    6    0    0  0.98844322844E+00  0.98231164839E-01 -0.64252554675E+01  0.65024304841E+01  0.10500000000E+00 0.  1.
</event>
<event>
11    0  0.3462209E-009  0.9118800E+02  0.7816531E-02  0.1126479E+00
         25   -1    0    0    0    0  0.00000000000E+00  0.00000000000E+00  0.99999998245E-14  0.12500000000E+03  0.12500000000E+03 0.  0.
    3000001    1    3    3    0    0  0.64266277690E+01 -0.17493834400E+02 -0.74549509308E+01  0.20097564029E+02  0.10000000000E+01 0.  1.
    1000022    2    1    0    0    0  0.23343197236E+02 -0.56324844339E+02 -0.94263803982E+01  0.62500001343E+02  0.10000028673E+02 0.  0.
    3000022    2    3    3    0    0  0.16916569467E+02 -0.38831009939E+02 -0.19714294674E+01  0.42402437315E+02  0.25000132338E+00 0.  0.
    1000022    2    1    0    0    0 -0.23343197236E+02  0.56324844339E+02  0.94263803982E+01  0.62499998657E+02  0.10000011881E+02 0.  0.
    3000022    2    5    5    0    0 -0.10905224456E+02  0.26383503311E+02  0.94171171173E+01  0.30062564182E+02  0.25000605605E+00 0.  0.
        -13    1    4    4    0    0  0.49127915802E+01 -0.11252268866E+02 -0.52969267719E+00  0.12289860661E+02  0.10500000000E+00 0. -1.
         13    1    4    4    0    0  0.12003777887E+02 -0.27578741073E+02 -0.14417367902E+01  0.30112576653E+02  0.10500000000E+00 0.  1.
    3000001    1    5    5    0    0 -0.12437972781E+02  0.29941341028E+02  0.92632808880E-02  0.32437434474E+02  0.10000000000E+01 0.  1.
        -13    1    6    6    0    0 -0.41545501133E+01  0.10212355256E+02  0.36393501754E+01  0.11610701151E+02  0.10500000000E+00 0. -1.
         13    1    6    6    0    0 -0.67506743425E+01  0.16171148055E+02  0.57777669419E+01  0.18451863031E+02  0.10500000000E+00 0.  1.
</event>
<event>
11    0  0.3462209E-009  0.9118800E+02  0.7816531E-02  0.1126479E+00
         25   -1    0    0    0    0  0.00000000000E+00  0.00000000000E+00  0.99999998245E-14  0.12500000000E+03  0.12500000000E+03 0.  0.
    3000001    1    3    3    0    0 -0.77011759639E+01  0.54090353716E+01 -0.17951380665E+02  0.20293295510E+02  0.10000000000E+01 0.  1.
    1000022    2    1    0    0    0 -0.25683995304E+02  0.26244888334E+01 -0.56032976538E+02  0.62500000240E+02  0.10000000693E+02 0.  0.
    3000022    2    3    3    0    0 -0.17982819340E+02 -0.27845465381E+01 -0.38081595873E+02  0.42206704729E+02  0.24997815948E+00 0.  0.
    1000022    2    1    0    0    0  0.25683995304E+02 -0.26244888334E+01  0.56032976538E+02  0.62499999760E+02  0.99999976979E+01 0.  0.
    3000022    2    5    5    0    0  0.76144858381E+01 -0.26009245248E+00  0.76964627243E+01  0.10832639559E+02  0.24999735457E+00 0.  0.
        -13    1    4    4    0    0 -0.72041405574E+01 -0.10721918082E+01 -0.15135466546E+02  0.16797101209E+02  0.10500000000E+00 0.  1.
         13    1    4    4    0    0 -0.10778678783E+02 -0.17123547299E+01 -0.22946129326E+02  0.25409603521E+02  0.10500000000E+00 0. -1.
    3000001    1    5    5    0    0  0.18069509466E+02 -0.23643963809E+01  0.48336513813E+02  0.51667360202E+02  0.10000000000E+01 0. -1.
        -13    1    6    6    0    0  0.19620993739E+01 -0.61540137986E-01  0.20277426734E+01  0.28242497219E+01  0.10500000000E+00 0.  1.
         13    1    6    6    0    0  0.56523864642E+01 -0.19855231449E+00  0.56687200509E+01  0.80083898367E+01  0.10500000000E+00 0. -1.
</event>
<event>
11    0  0.3462209E-009  0.9118800E+02  0.7816531E-02  0.1126479E+00
         25   -1    0    0    0    0  0.00000000000E+00  0.00000000000E+00  0.99999998245E-14  0.12500000000E+03  0.12500000000E+03 0.  0.
    3000001    1    3    3    0    0  0.41272913407E+01  0.34985624792E+02  0.32698699319E+02  0.48075289007E+02  0.10000000000E+01 0.  1.
    1000022    2    1    0    0    0  0.31370248635E+01  0.41537004117E+02  0.45509187998E+02  0.62500001191E+02  0.10000016031E+02 0.  0.
    3000022    2    3    3    0    0 -0.99026647722E+00  0.65513793243E+01  0.12810488679E+02  0.14424712184E+02  0.25000529753E+00 0.  0.
    1000022    2    1    0    0    0 -0.31370248635E+01 -0.41537004117E+02 -0.45509187998E+02  0.62499998809E+02  0.10000001148E+02 0.  0.
    3000022    2    5    5    0    0 -0.44319676636E+01 -0.98621590161E+01 -0.14989374670E+02  0.18483732560E+02  0.24999701705E+00 0.  0.
        -13    1    4    4    0    0 -0.66367313146E+00  0.46124947594E+01  0.90719034914E+01  0.10199315070E+02  0.10500000000E+00 0.  1.
         13    1    4    4    0    0 -0.32659334576E+00  0.19388845649E+01  0.37385851876E+01  0.42253971145E+01  0.10500000000E+00 0. -1.
    3000001    1    5    5    0    0  0.12949428000E+01 -0.31674845101E+02 -0.30519813328E+02  0.44016266250E+02  0.10000000000E+01 0. -1.
        -13    1    6    6    0    0 -0.11838578482E+01 -0.27267712130E+01 -0.41227999634E+01  0.50838278089E+01  0.10500000000E+00 0. -1.
         13    1    6    6    0    0 -0.32481098153E+01 -0.71353878031E+01 -0.10866574707E+02  0.13399904751E+02  0.10500000000E+00 0.  1.
</event>
<event>
11    0  0.3462209E-009  0.9118800E+02  0.7816531E-02  0.1126479E+00
         25   -1    0    0    0    0  0.00000000000E+00  0.00000000000E+00  0.99999998245E-14  0.12500000000E+03  0.12500000000E+03 0.  0.
    3000001    1    3    3    0    0  0.11691006270E+01 -0.39408967266E+01  0.87113614118E+00  0.43192987234E+01  0.10000000000E+01 0.  1.
    1000022    2    1    0    0    0  0.44498518330E+02 -0.42720930333E+02 -0.10267331142E+01  0.62499998738E+02  0.99999819639E+01 0.  0.
    3000022    2    3    3    0    0  0.43329417703E+02 -0.38780033606E+02 -0.18978692554E+01  0.58180700014E+02  0.25000295263E+00 0.  0.
    1000022    2    1    0    0    0 -0.44498518330E+02  0.42720930333E+02  0.10267331142E+01  0.62500001262E+02  0.99999977408E+01 0.  0.
    3000022    2    5    5    0    0 -0.19190264043E+02  0.22124629034E+02 -0.36731262978E+01  0.29518126835E+02  0.25002220976E+00 0.  0.
        -13    1    4    4    0    0  0.24665906424E+02 -0.22107219878E+02 -0.11424146269E+01  0.33142906430E+02  0.10500000000E+00 0. -1.
         13    1    4    4    0    0  0.18663511279E+02 -0.16672813728E+02 -0.75545462846E+00  0.25037793584E+02  0.10500000000E+00 0.  1.
    3000001    1    5    5    0    0 -0.25308254287E+02  0.20596301299E+02  0.46998594120E+01  0.32981874427E+02  0.10000000000E+01 0.  1.
        -13    1    6    6    0    0 -0.11817898093E+02  0.13645770032E+02 -0.23241752818E+01  0.18201169491E+02  0.10500000000E+00 0. -1.
         13    1    6    6    0    0 -0.73723659502E+01  0.84788590023E+01 -0.13489510159E+01  0.11316957344E+02  0.10500000000E+00 0.  1.
</event>
<event>
11    0  0.3462209E-009  0.9118800E+02  0.7816531E-02  0.1126479E+00
         25   -1    0    0    0    0  0.00000000000E+00  0.00000000000E+00  0.99999998245E-14  0.12500000000E+03  0.12500000000E+03 0.  0.
    3000001    1    3    3    0    0 -0.31261925933E+02  0.85238953092E+01  0.53006259621E+01  0.32849070609E+02  0.10000000000E+01 0.  1.
    1000022    2    1    0    0    0 -0.56037893683E+02  0.17792286680E+02  0.18693289803E+02  0.62499999835E+02  0.99999950992E+01 0.  0.
    3000022    2    3    3    0    0 -0.24775967750E+02  0.92683913713E+01  0.13392663841E+02  0.29650929227E+02  0.25000531864E+00 0.  0.
    1000022    2    1    0    0    0  0.56037893683E+02 -0.17792286680E+02 -0.18693289803E+02  0.62500000165E+02  0.99999971586E+01 0.  0.
    3000022    2    5    5    0    0  0.37283106106E+02 -0.11446992010E+02 -0.17180480360E+02  0.42618012992E+02  0.24999802730E+00 0.  0.
        -13    1    4    4    0    0 -0.13836554467E+02  0.51166180825E+01  0.75089991941E+01  0.16553734141E+02  0.10500000000E+00 0. -1.
         13    1    4    4    0    0 -0.10939413284E+02  0.41517732888E+01  0.58836646472E+01  0.13097195086E+02  0.10500000000E+00 0.  1.
    3000001    1    5    5    0    0  0.18754787577E+02 -0.63452946705E+01 -0.15128094431E+01  0.19881987172E+02  0.10000000000E+01 0. -1.
        -13    1    6    6    0    0  0.24075124222E+02 -0.73363599248E+01 -0.11110647021E+02  0.27511657265E+02  0.10500000000E+00 0.  1.
         13    1    6    6    0    0  0.13207981884E+02 -0.41106320852E+01 -0.60698333389E+01  0.15106355727E+02  0.10500000000E+00 0. -1.
</event>
<event>
11    0  0.3462209E-009  0.9118800E+02  0.7816531E-02  0.1126479E+00
         25   -1    0    0    0    0  0.00000000000E+00  0.00000000000E+00  0.99999998245E-14  0.12500000000E+03  0.12500000000E+03 0.  0.
    3000001    1    3    3    0    0  0.56539009475E+01 -0.88142906987E+01 -0.83998389608E+01  0.13461634782E+02  0.10000000000E+01 0.  1.
    1000022    2    1    0    0    0  0.41286004974E+02 -0.31521756645E+02 -0.33288051044E+02  0.62500001867E+02  0.10000027116E+02 0.  0.
    3000022    2    3    3    0    0  0.35632104027E+02 -0.22707465947E+02 -0.24888212083E+02  0.49038367085E+02  0.24999708305E+00 0.  0.
    1000022    2    1    0    0    0 -0.41286004974E+02  0.31521756645E+02  0.33288051044E+02  0.62499998133E+02  0.10000003778E+02 0.  0.
    3000022    2    5    5    0    0 -0.11987300609E+02  0.15005478670E+02  0.10905523519E+02  0.22087388046E+02  0.25000291942E+00 0.  0.
        -13    1    4    4    0    0  0.24172602895E+02 -0.15343846984E+02 -0.16862817920E+02  0.33228211270E+02  0.10500000000E+00 0.  1.
         13    1    4    4    0    0  0.11459501131E+02 -0.73636189625E+01 -0.80253941632E+01  0.15810155814E+02  0.10500000000E+00 0. -1.
    3000001    1    5    5    0    0 -0.29298704365E+02  0.16516277975E+02  0.22382527525E+02  0.40412610087E+02  0.10000000000E+01 0. -1.
        -13    1    6    6    0    0 -0.80387628081E+01  0.10052253097E+02  0.73686103363E+01  0.14831619706E+02  0.10500000000E+00 0.  1.
         13    1    6    6    0    0 -0.39485378009E+01  0.49532255734E+01  0.35369131830E+01  0.72557683405E+01  0.10500000000E+00 0. -1.
</event>
<event>
11    0  0.3462209E-009  0.9118800E+02  0.7816531E-02  0.1126479E+00
         25   -1    0    0    0    0  0.00000000000E+00  0.00000000000E+00  0.99999998245E-14  0.12500000000E+03  0.12500000000E+03 0.  0.
    3000001    1    3    3    0    0  0.35939887040E+02  0.12742630888E+02 -0.17063693561E+02  0.41787794394E+02  0.10000000000E+01 0. -1.
    1000022    2    1    0    0    0  0.49351584215E+02  0.23525609090E+02 -0.28587007038E+02  0.62500000716E+02  0.99999985283E+01 0.  0.
    3000022    2    3    3    0    0  0.13411697175E+02  0.10782978201E+02 -0.11523313476E+02  0.20712206322E+02  0.24999445930E+00 0.  0.
    1000022    2    1    0    0    0 -0.49351584215E+02 -0.23525609090E+02  0.28587007038E+02  0.62499999284E+02  0.99999895817E+01 0.  0.
    3000022    2    5    5    0    0 -0.12468109400E+02 -0.81643028560E+01  0.12363935535E+02  0.19365923514E+02  0.24999697554E+00 0.  0.
        -13    1    4    4    0    0  0.10038017457E+02  0.80729477389E+01 -0.86577049006E+01  0.15520990909E+02  0.10500000000E+00 0.  1.
         13    1    4    4    0    0  0.33736797179E+01  0.27100304625E+01 -0.28656085755E+01  0.51912154121E+01  0.10500000000E+00 0. -1.
    3000001    1    5    5    0    0 -0.36883474815E+02 -0.15361306234E+02  0.16223071503E+02  0.43134075771E+02  0.10000000000E+01 0.  1.
        -13    1    6    6    0    0 -0.61755624183E+01 -0.41182056221E+01  0.61928628952E+01  0.96674590543E+01  0.10500000000E+00 0.  1.
         13    1    6    6    0    0 -0.62925469815E+01 -0.40460972339E+01  0.61710726398E+01  0.96984644592E+01  0.10500000000E+00 0. -1.
</event>
<event>
11    0  0.3462209E-009  0.9118800E+02  0.7816531E-02  0.1126479E+00
         25   -1    0    0    0    0  0.00000000000E+00  0.00000000000E+00  0.99999998245E-14  0.12500000000E+03  0.12500000000E+03 0.  0.
    3000001    1    3    3    0    0 -0.15898594730E+01 -0.71806450185E+00  0.10909305122E+02  0.11093070270E+02  0.10000000000E+01 0.  1.
    1000022    2    1    0    0    0 -0.21365878159E+02  0.12059739772E+02  0.56606642810E+02  0.62499999462E+02  0.99999924848E+01 0.  0.
    3000022    2    3    3    0    0 -0.19776018686E+02  0.12777804273E+02  0.45697337688E+02  0.51406929193E+02  0.25000014882E+00 0.  0.
    1000022    2    1    0    0    0  0.21365878159E+02 -0.12059739772E+02 -0.56606642810E+02  0.62500000538E+02  0.99999992039E+01 0.  0.
    3000022    2    5    5    0    0  0.17330848542E+01  0.45895101449E+00 -0.12349061634E+02  0.12481027302E+02  0.25000026166E+00 0.  0.
        -13    1    4    4    0    0 -0.12045224521E+02  0.78267921239E+01  0.27987855510E+02  0.31459135235E+02  0.10500000000E+00 0. -1.
         13    1    4    4    0    0 -0.77307941649E+01  0.49510121496E+01  0.17709482179E+02  0.19947793958E+02  0.10500000000E+00 0.  1.
    3000001    1    5    5    0    0  0.19632793305E+02 -0.12518690786E+02 -0.44257581176E+02  0.50018973236E+02  0.10000000000E+01 0.  1.
        -13    1    6    6    0    0  0.72143392099E+00  0.24470689872E+00 -0.55249643375E+01  0.55782259096E+01  0.10500000000E+00 0. -1.
         13    1    6    6    0    0  0.10116509332E+01  0.21424411578E+00 -0.68240972964E+01  0.69028013924E+01  0.10500000000E+00 0.  1.
</event>
<event>
11    0  0.3462209E-009  0.9118800E+02  0.7816531E-02  0.1126479E+00
         25   -1    0    0    0    0  0.00000000000E+00  0.00000000000E+00  0.99999998245E-14  0.12500000000E+03  0.12500000000E+03 0.  0.
    3000001    1    3    3    0    0 -0.19036283338E+01 -0.75973124524E+01  0.38309258256E+02  0.39114475907E+02  0.10000000000E+01 0.  1.
    1000022    2    1    0    0    0 -0.65253018047E-01 -0.18765990410E+02  0.58771449989E+02  0.62500000600E+02  0.10000004360E+02 0.  0.
    3000022    2    3    3    0    0  0.18383753157E+01 -0.11168677957E+02  0.20462191732E+02  0.23385524693E+02  0.24996710765E+00 0.  0.
    1000022    2    1    0    0    0  0.65253018047E-01  0.18765990410E+02 -0.58771449989E+02  0.62499999400E+02  0.99999968574E+01 0.  0.
    3000022    2    5    5    0    0 -0.15576807309E+01  0.14952310244E+01 -0.14749954237E+01  0.26268271985E+01  0.25004910487E+00 0.  0.
        -13    1    4    4    0    0  0.70063128066E+00 -0.43541301083E+01  0.80972619729E+01  0.92209549206E+01  0.10500000000E+00 0. -1.
         13    1    4    4    0    0  0.11377440351E+01 -0.68145478491E+01  0.12364929760E+02  0.14164569772E+02  0.10500000000E+00 0.  1.
    3000001    1    5    5    0    0  0.16229337489E+01  0.17270759385E+02 -0.57296454565E+02  0.59873172201E+02  0.10000000000E+01 0. -1.
        -13    1    6    6    0    0 -0.53220693333E+00  0.46926229575E+00 -0.54011728733E+00  0.89788808109E+00  0.10500000000E+00 0.  1.
         13    1    6    6    0    0 -0.10254737975E+01  0.10259687287E+01 -0.93487813640E+00  0.17289391174E+01  0.10500000000E+00 0. -1.
</event>
<event>
11    0  0.3462209E-009  0.9118800E+02  0.7816531E-02  0.1126479E+00
         25   -1    0    0    0    0  0.00000000000E+00  0.00000000000E+00  0.99999998245E-14  0.12500000000E+03  0.12500000000E+03 0.  0.
    3000001    1    3    3    0    0  0.22947241072E+02  0.29565576434E+02  0.18261412245E+02  0.41655472148E+02  0.10000000000E+01 0. -1.
    1000022    2    1    0    0    0  0.39456126932E+02  0.40998354793E+02  0.23845318705E+02  0.62499997524E+02  0.99999709050E+01 0.  0.
    3000022    2    3    3    0    0  0.16508885860E+02  0.11432778359E+02  0.55839064600E+01  0.20844525376E+02  0.24998686820E+00 0.  0.
    1000022    2    1    0    0    0 -0.39456126932E+02 -0.40998354793E+02 -0.23845318705E+02  0.62500002476E+02  0.10000001854E+02 0.  0.
    3000022    2    5    5    0    0 -0.21630613124E+02 -0.26732193149E+02 -0.10139942815E+02  0.35852120029E+02  0.24999123581E+00 0.  0.
        -13    1    4    4    0    0  0.80749114845E+01  0.55694203296E+01  0.27952697195E+01  0.10200352744E+02  0.10500000000E+00 0. -1.
         13    1    4    4    0    0  0.84339743759E+01  0.58633580297E+01  0.27886367405E+01  0.10644172632E+02  0.10500000000E+00 0.  1.
    3000001    1    5    5    0    0 -0.17825513808E+02 -0.14266161644E+02 -0.13705375891E+02  0.26647882447E+02  0.10000000000E+01 0. -1.
        -13    1    6    6    0    0 -0.12646912836E+02 -0.15618136681E+02 -0.59926574495E+01  0.20971255708E+02  0.10500000000E+00 0. -1.
         13    1    6    6    0    0 -0.89837002884E+01 -0.11114056468E+02 -0.41472853651E+01  0.14880864321E+02  0.10500000000E+00 0. -1.
</event>
<event>
11    0  0.3462209E-009  0.9118800E+02  0.7816531E-02  0.1126479E+00
         25   -1    0    0    0    0  0.00000000000E+00  0.00000000000E+00  0.99999998245E-14  0.12500000000E+03  0.12500000000E+03 0.  0.
    3000001    1    3    3    0    0  0.18856797626E+02  0.38763783432E+02  0.15230855436E+02  0.45729516507E+02  0.10000000000E+01 0. -1.
    1000022    2    1    0    0    0  0.25433046812E+02  0.54186358196E+02  0.14941511830E+02  0.62499998813E+02  0.99999895596E+01 0.  0.
    3000022    2    3    3    0    0  0.65762491866E+01  0.15422574764E+02 -0.28934360627E+00  0.16770482306E+02  0.24998268480E+00 0.  0.
    1000022    2    1    0    0    0 -0.25433046812E+02 -0.54186358196E+02 -0.14941511830E+02  0.62500001187E+02  0.10000004399E+02 0.  0.
    3000022    2    5    5    0    0 -0.13143281597E+02 -0.16890882106E+02 -0.55817680042E+01  0.22119366345E+02  0.24996795219E+00 0.  0.
        -13    1    4    4    0    0  0.49085422478E+01  0.11458905869E+02 -0.19349083854E+00  0.12467909786E+02  0.10500000000E+00 0.  1.
         13    1    4    4    0    0  0.16677069389E+01  0.39636688942E+01 -0.95852767729E-01  0.43025725200E+01  0.10500000000E+00 0. -1.
    3000001    1    5    5    0    0 -0.12289765215E+02 -0.37295476090E+02 -0.93597438256E+01  0.40380634842E+02  0.10000000000E+01 0. -1.
        -13    1    6    6    0    0 -0.67022435688E+01 -0.86221523328E+01 -0.29179512699E+01  0.11304293181E+02  0.10500000000E+00 0.  1.
         13    1    6    6    0    0 -0.64410380284E+01 -0.82687297732E+01 -0.26638167343E+01  0.10815073164E+02  0.10500000000E+00 0. -1.
</event>
<event>
11    0  0.3462209E-009  0.9118800E+02  0.7816531E-02  0.1126479E+00
         25   -1    0    0    0    0  0.00000000000E+00  0.00000000000E+00  0.99999998245E-14  0.12500000000E+03  0.12500000000E+03 0.  0.
    3000001    1    3    3    0    0 -0.26927731749E+02  0.56254649435E+01  0.63483184789E+01  0.28249774167E+02  0.10000000000E+01 0. -1.
    1000022    2    1    0    0    0 -0.60778144332E+02  0.99971783052E+01  0.35105053549E+01  0.62500000364E+02  0.99999997584E+01 0.  0.
    3000022    2    3    3    0    0 -0.33850412582E+02  0.43717133617E+01 -0.28378131240E+01  0.34250226197E+02  0.25000295224E+00 0.  0.
    1000022    2    1    0    0    0  0.60778144332E+02 -0.99971783052E+01 -0.35105053549E+01  0.62499999636E+02  0.99999952123E+01 0.  0.
    3000022    2    5    5    0    0  0.21936791889E+02  0.97198362661E+00  0.16249512995E+00  0.21960338740E+02  0.24996468518E+00 0.  0.
        -13    1    4    4    0    0 -0.22058347524E+02  0.28767727501E+01 -0.18985806325E+01  0.22326265930E+02  0.10500000000E+00 0.  1.
         13    1    4    4    0    0 -0.11792065058E+02  0.14949406116E+01 -0.93923249149E+00  0.11923960267E+02  0.10500000000E+00 0. -1.
    3000001    1    5    5    0    0  0.38841352442E+02 -0.10969161932E+02 -0.36730004849E+01  0.40539660896E+02  0.10000000000E+01 0.  1.
        -13    1    6    6    0    0  0.13102497172E+02  0.56069027869E+00  0.36952687883E-01  0.13114960778E+02  0.10500000000E+00 0. -1.
         13    1    6    6    0    0  0.88342947178E+01  0.41129334791E+00  0.12554244207E+00  0.88453779616E+01  0.10500000000E+00 0.  1.
</event>
<event>
11    0  0.3462209E-009  0.9118800E+02  0.7816531E-02  0.1126479E+00
         25   -1    0    0    0    0  0.00000000000E+00  0.00000000000E+00  0.99999998245E-14  0.12500000000E+03  0.12500000000E+03 0.  0.
    3000001    1    3    3    0    0 -0.85112993678E+01 -0.13246377890E+02  0.12665533763E+02  0.20231769315E+02  0.10000000000E+01 0.  1.
    1000022    2    1    0    0    0 -0.29774139256E+02 -0.28807102061E+02  0.45715444422E+02  0.62500003136E+02  0.10000001782E+02 0.  0.
    3000022    2    3    3    0    0 -0.21262839888E+02 -0.15560724172E+02  0.33049910659E+02  0.42268233821E+02  0.24999773265E+00 0.  0.
    1000022    2    1    0    0    0  0.29774139256E+02  0.28807102061E+02 -0.45715444422E+02  0.62499996864E+02  0.99999625878E+01 0.  0.
    3000022    2    5    5    0    0  0.26861321738E+02  0.22703282036E+02 -0.41773531077E+02  0.54608241317E+02  0.25000089338E+00 0.  0.
        -13    1    4    4    0    0 -0.12912743803E+02 -0.94164948039E+01  0.19955644491E+02  0.25566542570E+02  0.10500000000E+00 0.  1.
         13    1    4    4    0    0 -0.83500960843E+01 -0.61442293681E+01  0.13094266168E+02  0.16701691250E+02  0.10500000000E+00 0. -1.
    3000001    1    5    5    0    0  0.29128175180E+01  0.61038200253E+01 -0.39419133455E+01  0.78917555473E+01  0.10000000000E+01 0. -1.
        -13    1    6    6    0    0  0.17318498027E+02  0.14648484440E+02 -0.26852866040E+02  0.35151044222E+02  0.10500000000E+00 0. -1.
         13    1    6    6    0    0  0.95428237110E+01  0.80547975961E+01 -0.14920665036E+02  0.19457197096E+02  0.10500000000E+00 0.  1.
</event>
<event>
11    0  0.3462209E-009  0.9118800E+02  0.7816531E-02  0.1126479E+00
         25   -1    0    0    0    0  0.00000000000E+00  0.00000000000E+00  0.99999998245E-14  0.12500000000E+03  0.12500000000E+03 0.  0.
    3000001    1    3    3    0    0  0.99974651335E+01 -0.37982597924E+02 -0.26906884768E+02  0.47619402580E+02  0.10000000000E+01 0. -1.
    1000022    2    1    0    0    0  0.15042051055E+02 -0.45768291777E+02 -0.38538944525E+02  0.62500000408E+02  0.99999986869E+01 0.  0.
    3000022    2    3    3    0    0  0.50445859219E+01 -0.77856938531E+01 -0.11632059757E+02  0.14880597828E+02  0.25000325871E+00 0.  0.
    1000022    2    1    0    0    0 -0.15042051055E+02  0.45768291777E+02  0.38538944525E+02  0.62499999592E+02  0.99999935877E+01 0.  0.
    3000022    2    5    5    0    0 -0.78807002916E+01  0.11995144112E+02  0.14612110120E+02  0.20483290385E+02  0.25000693922E+00 0.  0.
        -13    1    4    4    0    0  0.24350147832E+01 -0.36352978864E+01 -0.54707273233E+01  0.70060381218E+01  0.10500000000E+00 0.  1.
         13    1    4    4    0    0  0.26095711386E+01 -0.41503959666E+01 -0.61613324338E+01  0.78745597062E+01  0.10500000000E+00 0. -1.
    3000001    1    5    5    0    0 -0.71613507637E+01  0.33773147665E+02  0.23926834405E+02  0.42016709208E+02  0.10000000000E+01 0.  1.
        -13    1    6    6    0    0 -0.18606833913E+01  0.28079564711E+01  0.34379965503E+01  0.48143127761E+01  0.10500000000E+00 0.  1.
         13    1    6    6    0    0 -0.60200169003E+01  0.91871876407E+01  0.11174113570E+02  0.15668977608E+02  0.10500000000E+00 0. -1.
</event>
<event>
11    0  0.3462209E-009  0.9118800E+02  0.7816531E-02  0.1126479E+00
         25   -1    0    0    0    0  0.00000000000E+00  0.00000000000E+00  0.99999998245E-14  0.12500000000E+03  0.12500000000E+03 0.  0.
    3000001    1    3    3    0    0  0.74179183039E+01 -0.40845779751E+01 -0.11332513787E+01  0.86019502373E+01  0.10000000000E+01 0. -1.
    1000022    2    1    0    0    0  0.44626713737E+02 -0.29765917977E+02 -0.30474535295E+02  0.62499994007E+02  0.99999248697E+01 0.  0.
    3000022    2    3    3    0    0  0.37208795433E+02 -0.25681340002E+02 -0.29341283917E+02  0.53898043770E+02  0.24999683597E+00 0.  0.
    1000022    2    1    0    0    0 -0.44626713737E+02  0.29765917977E+02  0.30474535295E+02  0.62500005993E+02  0.99999997831E+01 0.  0.
    3000022    2    5    5    0    0 -0.36714465237E+02  0.28159980272E+02  0.27569307705E+02  0.53861542033E+02  0.25007256513E+00 0.  0.
        -13    1    4    4    0    0  0.21787118258E+02 -0.14960053822E+02 -0.17139678221E+02  0.31500179791E+02  0.10500000000E+00 0. -1.
         13    1    4    4    0    0  0.15421677175E+02 -0.10721286180E+02 -0.12201605695E+02  0.22397863978E+02  0.10500000000E+00 0.  1.
    3000001    1    5    5    0    0 -0.79122485001E+01  0.16059377058E+01  0.29052275908E+01  0.86384639604E+01  0.10000000000E+01 0.  1.
        -13    1    6    6    0    0 -0.26243744961E+02  0.20150385915E+02  0.19758293199E+02  0.38537947237E+02  0.10500000000E+00 0.  1.
         13    1    6    6    0    0 -0.10470720276E+02  0.80095943569E+01  0.78110145055E+01  0.15323594796E+02  0.10500000000E+00 0. -1.
</event>
<event>
11    0  0.3462209E-009  0.9118800E+02  0.7816531E-02  0.1126479E+00
         25   -1    0    0    0    0  0.00000000000E+00  0.00000000000E+00  0.99999998245E-14  0.12500000000E+03  0.12500000000E+03 0.  0.
    3000001    1    3    3    0    0  0.18711807076E+02  0.81464106914E+01  0.28557497804E+02  0.35114475819E+02  0.10000000000E+01 0. -1.
    1000022    2    1    0    0    0  0.34838811293E+02  0.21676521911E+02  0.46072070695E+02  0.62500000108E+02  0.99999970491E+01 0.  0.
    3000022    2    3    3    0    0  0.16127004216E+02  0.13530111220E+02  0.17514572891E+02  0.27385524290E+02  0.25000488396E+00 0.  0.
    1000022    2    1    0    0    0 -0.34838811293E+02 -0.21676521911E+02 -0.46072070695E+02  0.62499999892E+02  0.99999956943E+01 0.  0.
    3000022    2    5    5    0    0 -0.31101111687E+02 -0.16049725475E+02 -0.41471188407E+02  0.54265963560E+02  0.24999451514E+00 0.  0.
        -13    1    4    4    0    0  0.48285271990E+01  0.40415170196E+01  0.51808478970E+01  0.81547988733E+01  0.10500000000E+00 0.  1.
         13    1    4    4    0    0  0.11298477017E+02  0.94885942005E+01  0.12333724994E+02  0.19230725416E+02  0.10500000000E+00 0. -1.
    3000001    1    5    5    0    0 -0.37376996061E+01 -0.56267964362E+01 -0.46008822874E+01  0.82340363311E+01  0.10000000000E+01 0. -1.
        -13    1    6    6    0    0 -0.94130232526E+01 -0.48566093932E+01 -0.12479366935E+02  0.16368789988E+02  0.10500000000E+00 0. -1.
         13    1    6    6    0    0 -0.21688088434E+02 -0.11193116082E+02 -0.28991821472E+02  0.37897173573E+02  0.10500000000E+00 0.  1.
</event>
<event>
11    0  0.3462209E-009  0.9118800E+02  0.7816531E-02  0.1126479E+00
         25   -1    0    0    0    0  0.00000000000E+00  0.00000000000E+00  0.99999998245E-14  0.12500000000E+03  0.12500000000E+03 0.  0.
    3000001    1    3    3    0    0  0.13225181193E+02 -0.30612764890E+00 -0.62538857299E+00  0.13281198839E+02  0.10000000000E+01 0. -1.
    1000022    2    1    0    0    0  0.58239141785E+02  0.77810585419E+01 -0.18812431892E+02  0.62499998804E+02  0.99999874498E+01 0.  0.
    3000022    2    3    3    0    0  0.45013960592E+02  0.80871861908E+01 -0.18187043319E+02  0.49218799966E+02  0.24999346241E+00 0.  0.
    1000022    2    1    0    0    0 -0.58239141785E+02 -0.77810585419E+01  0.18812431892E+02  0.62500001196E+02  0.10000002395E+02 0.  0.
    3000022    2    5    5    0    0 -0.55282172956E+02 -0.52973879865E+01  0.16735995213E+02  0.58002905092E+02  0.24999420924E+00 0.  0.
        -13    1    4    4    0    0  0.21163080700E+02  0.37800203949E+01 -0.86176501487E+01  0.23161162708E+02  0.10500000000E+00 0.  1.
         13    1    4    4    0    0  0.23850879892E+02  0.43071657960E+01 -0.95693931704E+01  0.26057637258E+02  0.10500000000E+00 0. -1.
    3000001    1    5    5    0    0 -0.29569688284E+01 -0.24836705555E+01  0.20764366794E+01  0.44970961034E+01  0.10000000000E+01 0. -1.
        -13    1    6    6    0    0 -0.19152923407E+02 -0.17941225368E+01  0.57575075752E+01  0.20080171044E+02  0.10500000000E+00 0. -1.
         13    1    6    6    0    0 -0.36129249550E+02 -0.35032654497E+01  0.10978487637E+02  0.37922734048E+02  0.10500000000E+00 0.  1.
</event>
<event>
11    0  0.3462209E-009  0.9118800E+02  0.7816531E-02  0.1126479E+00
         25   -1    0    0    0    0  0.00000000000E+00  0.00000000000E+00  0.99999998245E-14  0.12500000000E+03  0.12500000000E+03 0.  0.
    3000001    1    3    3    0    0  0.27742551267E+02  0.26302405823E+01 -0.35477646736E+01  0.28109677169E+02  0.10000000000E+01 0. -1.
    1000022    2    1    0    0    0  0.59515483277E+02 -0.87560426409E+00 -0.16229309583E+02  0.62499999073E+02  0.99999981057E+01 0.  0.
    3000022    2    3    3    0    0  0.31772932009E+02 -0.35058448464E+01 -0.12681544909E+02  0.34390321904E+02  0.25000571303E+00 0.  0.
    1000022    2    1    0    0    0 -0.59515483277E+02  0.87560426409E+00  0.16229309583E+02  0.62500000927E+02  0.10000009694E+02 0.  0.
    3000022    2    5    5    0    0 -0.70504421138E+01  0.87358802986E+00  0.53812774307E+01  0.89158582181E+01  0.24998186588E+00 0.  0.
        -13    1    4    4    0    0  0.96265459355E+01 -0.10931817294E+01 -0.38814622111E+01  0.10437538351E+02  0.10500000000E+00 0.  1.
         13    1    4    4    0    0  0.22146386074E+02 -0.24126631170E+01 -0.88000826978E+01  0.23952783553E+02  0.10500000000E+00 0. -1.
    3000001    1    5    5    0    0 -0.52465041163E+02  0.20162342348E-02  0.10848032152E+02  0.53584142709E+02  0.10000000000E+01 0.  1.
        -13    1    6    6    0    0 -0.39927890506E+01  0.50336962392E+00  0.29661248805E+01  0.50004666970E+01  0.10500000000E+00 0. -1.
         13    1    6    6    0    0 -0.30576530632E+01  0.37021840593E+00  0.24151525502E+01  0.39153915212E+01  0.10500000000E+00 0.  1.
</event>
<event>
11    0  0.3462209E-009  0.9118800E+02  0.7816531E-02  0.1126479E+00
         25   -1    0    0    0    0  0.00000000000E+00  0.00000000000E+00  0.99999998245E-14  0.12500000000E+03  0.12500000000E+03 0.  0.
    3000001    1    3    3    0    0 -0.39925475218E+02  0.19722834721E+01 -0.29601773885E+02  0.49751366721E+02  0.10000000000E+01 0. -1.
    1000022    2    1    0    0    0 -0.49673959472E+02  0.72958419348E+01 -0.35854128064E+02  0.62499999928E+02  0.99999966331E+01 0.  0.
    3000022    2    3    3    0    0 -0.97484842545E+01  0.53235584627E+01 -0.62523541783E+01  0.12748633207E+02  0.24999183647E+00 0.  0.
    1000022    2    1    0    0    0  0.49673959472E+02 -0.72958419348E+01  0.35854128064E+02  0.62500000072E+02  0.99999975274E+01 0.  0.
    3000022    2    5    5    0    0  0.49036324652E+01  0.23620213035E+00  0.48303889299E+00  0.49393553806E+01  0.25000440700E+00 0.  0.
        -13    1    4    4    0    0 -0.52377948877E+01  0.27871407748E+01 -0.33625067515E+01  0.68205663722E+01  0.10500000000E+00 0. -1.
         13    1    4    4    0    0 -0.45106893668E+01  0.25364176879E+01 -0.28898474268E+01  0.59280668351E+01  0.10500000000E+00 0.  1.
    3000001    1    5    5    0    0  0.44770327007E+02 -0.75320440651E+01  0.35371089171E+02  0.57560644691E+02  0.10000000000E+01 0. -1.
        -13    1    6    6    0    0  0.31371213589E+01  0.17909872546E+00  0.25778067275E+00  0.31545336658E+01  0.10500000000E+00 0. -1.
         13    1    6    6    0    0  0.17665111064E+01  0.57103404894E-01  0.22525822024E+00  0.17848217148E+01  0.10500000000E+00 0.  1.
</event>
<event>
11    0  0.3462209E-009  0.9118800E+02  0.7816531E-02  0.1126479E+00
         25   -1    0    0    0    0  0.00000000000E+00  0.00000000000E+00  0.99999998245E-14  0.12500000000E+03  0.12500000000E+03 0.  0.
    3000001    1    3    3    0    0  0.55532432637E+01  0.21005511333E+01  0.18158727344E+02  0.19130870460E+02  0.10000000000E+01 0. -1.
    1000022    2    1    0    0    0  0.23705101587E+02 -0.65763533811E+01  0.56577997296E+02  0.62500000408E+02  0.10000000395E+02 0.  0.
    3000022    2    3    3    0    0  0.18151858323E+02 -0.86769045145E+01  0.38419269953E+02  0.43369129948E+02  0.24999244914E+00 0.  0.
    1000022    2    1    0    0    0 -0.23705101587E+02  0.65763533811E+01 -0.56577997296E+02  0.62499999592E+02  0.99999952935E+01 0.  0.
    3000022    2    5    5    0    0 -0.43750445722E+01  0.50207326284E+01 -0.97951630569E+01  0.11847214480E+02  0.25000097236E+00 0.  0.
        -13    1    4    4    0    0  0.55865413680E+01 -0.26855261012E+01  0.11936804099E+02  0.13450643553E+02  0.10500000000E+00 0. -1.
         13    1    4    4    0    0  0.12565316955E+02 -0.59913784133E+01  0.26482465854E+02  0.29918486395E+02  0.10500000000E+00 0.  1.
    3000001    1    5    5    0    0 -0.19330057015E+02  0.15556207527E+01 -0.46782834240E+02  0.50652785112E+02  0.10000000000E+01 0.  1.
        -13    1    6    6    0    0 -0.16172926455E+01  0.17840856905E+01 -0.36039679917E+01  0.43356899725E+01  0.10500000000E+00 0.  1.
         13    1    6    6    0    0 -0.27577519267E+01  0.32366469379E+01 -0.61911950653E+01  0.75115245074E+01  0.10500000000E+00 0. -1.
</event>
<event>
11    0  0.3462209E-009  0.9118800E+02  0.7816531E-02  0.1126479E+00
         25   -1    0    0    0    0  0.00000000000E+00  0.00000000000E+00  0.99999998245E-14  0.12500000000E+03  0.12500000000E+03 0.  0.
    3000001    1    3    3    0    0  0.32129165600E+02 -0.25571265370E+02  0.16721457541E+01  0.41109232129E+02  0.10000000000E+01 0.  1.
    1000022    2    1    0    0    0  0.48690582196E+02 -0.37619934428E+02 -0.44964547544E+01  0.62500002952E+02  0.10000000132E+02 0.  0.
    3000022    2    3    3    0    0  0.16561416596E+02 -0.12048669058E+02 -0.61686005085E+01  0.21390770823E+02  0.24999686821E+00 0.  0.
    1000022    2    1    0    0    0 -0.48690582196E+02  0.37619934428E+02  0.44964547544E+01  0.62499997048E+02  0.99999632354E+01 0.  0.
    3000022    2    5    5    0    0 -0.48191302599E+02  0.37300450646E+02  0.51643958309E+01  0.61159290039E+02  0.25001843948E+00 0.  0.
        -13    1    4    4    0    0  0.67481156132E+01 -0.49753850604E+01 -0.24885424587E+01  0.87461642677E+01  0.10500000000E+00 0.  1.
         13    1    4    4    0    0  0.98133009825E+01 -0.70732839978E+01 -0.36800580498E+01  0.12644606555E+02  0.10500000000E+00 0. -1.
    3000001    1    5    5    0    0 -0.49927959699E+00  0.31948378278E+00 -0.66794107647E+00  0.13407070094E+01  0.10000000000E+01 0. -1.
        -13    1    6    6    0    0 -0.26841531225E+02  0.20804148060E+02  0.28153741753E+01  0.34076644960E+02  0.10500000000E+00 0. -1.
         13    1    6    6    0    0 -0.21349771374E+02  0.16496302586E+02  0.23490216556E+01  0.27082645079E+02  0.10500000000E+00 0.  1.
</event>
<event>
11    0  0.3462209E-009  0.9118800E+02  0.7816531E-02  0.1126479E+00
         25   -1    0    0    0    0  0.00000000000E+00  0.00000000000E+00  0.99999998245E-14  0.12500000000E+03  0.12500000000E+03 0.  0.
    3000001    1    3    3    0    0 -0.67848027910E+01 -0.28022522175E+01 -0.27755317086E+02  0.28727056810E+02  0.10000000000E+01 0. -1.
    1000022    2    1    0    0    0 -0.84763231211E+01 -0.14711669464E+02 -0.59312467136E+02  0.62499999712E+02  0.99999967142E+01 0.  0.
    3000022    2    3    3    0    0 -0.16915203300E+01 -0.11909417247E+02 -0.31557150049E+02  0.33772942902E+02  0.24998576850E+00 0.  0.
    1000022    2    1    0    0    0  0.84763231211E+01  0.14711669464E+02  0.59312467136E+02  0.62500000288E+02  0.10000000308E+02 0.  0.
    3000022    2    5    5    0    0  0.46551386006E+01  0.14142934991E+02  0.52821283951E+02  0.54880264782E+02  0.24999749601E+00 0.  0.
        -13    1    4    4    0    0 -0.65216019053E+00 -0.50234610830E+01 -0.13225309408E+02  0.14162637753E+02  0.10500000000E+00 0.  1.
         13    1    4    4    0    0 -0.10393601395E+01 -0.68859561636E+01 -0.18331840641E+02  0.19610305150E+02  0.10500000000E+00 0. -1.
    3000001    1    5    5    0    0  0.38211845205E+01  0.56873447295E+00  0.64911831844E+01  0.76197355055E+01  0.10000000000E+01 0.  1.
        -13    1    6    6    0    0  0.12208116933E+01  0.37538966821E+01  0.14121135919E+02  0.14662865550E+02  0.10500000000E+00 0.  1.
         13    1    6    6    0    0  0.34343269072E+01  0.10389038309E+02  0.38700148032E+02  0.40217399232E+02  0.10500000000E+00 0. -1.
</event>
<event>
11    0  0.3462209E-009  0.9118800E+02  0.7816531E-02  0.1126479E+00
         25   -1    0    0    0    0  0.00000000000E+00  0.00000000000E+00  0.99999998245E-14  0.12500000000E+03  0.12500000000E+03 0.  0.
    3000001    1    3    3    0    0  0.20560554060E+02 -0.33521966037E+02  0.32843861998E+02  0.51246247289E+02  0.10000000000E+01 0.  1.
    1000022    2    1    0    0    0  0.28793099661E+02 -0.39523785474E+02  0.37617520906E+02  0.62500000624E+02  0.99999996304E+01 0.  0.
    3000022    2    3    3    0    0  0.82325456015E+01 -0.60018194367E+01  0.47736589074E+01  0.11253753335E+02  0.25000225397E+00 0.  0.
    1000022    2    1    0    0    0 -0.28793099661E+02  0.39523785474E+02 -0.37617520906E+02  0.62499999376E+02  0.99999918327E+01 0.  0.
    3000022    2    5    5    0    0 -0.27898516378E+02  0.34359781359E+02 -0.31187724893E+02  0.54144791748E+02  0.24999653531E+00 0.  0.
        -13    1    4    4    0    0  0.61766989095E+01 -0.45019629955E+01  0.35515757703E+01  0.84287600324E+01  0.10500000000E+00 0. -1.
         13    1    4    4    0    0  0.20558466920E+01 -0.14998564412E+01  0.12220831371E+01  0.28249933025E+01  0.10500000000E+00 0.  1.
    3000001    1    5    5    0    0 -0.89458328313E+00  0.51640041144E+01 -0.64297960132E+01  0.83552076285E+01  0.10000000000E+01 0. -1.
        -13    1    6    6    0    0 -0.13690215853E+02  0.16790193115E+02 -0.15328118268E+02  0.26538553645E+02  0.10500000000E+00 0. -1.
         13    1    6    6    0    0 -0.14208300525E+02  0.17569588244E+02 -0.15859606625E+02  0.27606238102E+02  0.10500000000E+00 0.  1.
</event>
<event>
11    0  0.3462209E-009  0.9118800E+02  0.7816531E-02  0.1126479E+00
         25   -1    0    0    0    0  0.00000000000E+00  0.00000000000E+00  0.99999998245E-14  0.12500000000E+03  0.12500000000E+03 0.  0.
    3000001    1    3    3    0    0  0.52351892441E+01 -0.98080998290E+01  0.41060029781E+02  0.42550347523E+02  0.10000000000E+01 0.  1.
    1000022    2    1    0    0    0  0.12551754035E+02 -0.18275809995E+02  0.57573416140E+02  0.62500000400E+02  0.10000002185E+02 0.  0.
    3000022    2    3    3    0    0  0.73165647910E+01 -0.84677101658E+01  0.16513386359E+02  0.19949652878E+02  0.24997021987E+00 0.  0.
    1000022    2    1    0    0    0 -0.12551754035E+02  0.18275809995E+02 -0.57573416140E+02  0.62499999600E+02  0.99999971815E+01 0.  0.
    3000022    2    5    5    0    0 -0.11371764357E+02  0.18561897300E+02 -0.56619324037E+02  0.60660294915E+02  0.24993762525E+00 0.  0.
        -13    1    4    4    0    0  0.39633686327E+01 -0.44841827056E+01  0.88254746114E+01  0.10663780407E+02  0.10500000000E+00 0.  1.
         13    1    4    4    0    0  0.33531961583E+01 -0.39835274602E+01  0.76879117474E+01  0.92858724705E+01  0.10500000000E+00 0. -1.
    3000001    1    5    5    0    0 -0.11799896781E+01 -0.28608730465E+00 -0.95409210282E+00  0.18397046847E+01  0.10000000000E+01 0.  1.
        -13    1    6    6    0    0 -0.75948700966E+01  0.12457193535E+02 -0.37828789620E+02  0.40544938915E+02  0.10500000000E+00 0.  1.
         13    1    6    6    0    0 -0.37768942604E+01  0.61047037648E+01 -0.18790534417E+02  0.20115356000E+02  0.10500000000E+00 0. -1.
</event>
<event>
11    0  0.3462209E-009  0.9118800E+02  0.7816531E-02  0.1126479E+00
         25   -1    0    0    0    0  0.00000000000E+00  0.00000000000E+00  0.99999998245E-14  0.12500000000E+03  0.12500000000E+03 0.  0.
    3000001    1    3    3    0    0  0.23612417012E+02 -0.24406929245E+02  0.25878620775E+01  0.34072591073E+02  0.10000000000E+01 0. -1.
    1000022    2    1    0    0    0  0.38015555178E+02 -0.48566948739E+02 -0.15228753283E+01  0.62500000218E+02  0.99999966309E+01 0.  0.
    3000022    2    3    3    0    0  0.14403138166E+02 -0.24160019494E+02 -0.41107374058E+01  0.28427409144E+02  0.24999531024E+00 0.  0.
    1000022    2    1    0    0    0 -0.38015555178E+02  0.48566948739E+02  0.15228753283E+01  0.62499999782E+02  0.99999939074E+01 0.  0.
    3000022    2    5    5    0    0 -0.15237894017E+02  0.26773640434E+02 -0.12948921777E+01  0.30834404121E+02  0.24999116304E+00 0.  0.
        -13    1    4    4    0    0  0.87167059699E+01 -0.14733864067E+02 -0.25256232851E+01  0.17304840689E+02  0.10500000000E+00 0. -1.
         13    1    4    4    0    0  0.56864321965E+01 -0.94261554271E+01 -0.15851141207E+01  0.11122568455E+02  0.10500000000E+00 0.  1.
    3000001    1    5    5    0    0 -0.22777661161E+02  0.21793308305E+02  0.28177675060E+01  0.31665595661E+02  0.10000000000E+01 0. -1.
        -13    1    6    6    0    0 -0.56951808962E+01  0.10091907341E+02 -0.44388808524E+00  0.11596971193E+02  0.10500000000E+00 0.  1.
         13    1    6    6    0    0 -0.95427131213E+01  0.16681733093E+02 -0.85100409243E+00  0.19237432929E+02  0.10500000000E+00 0. -1.
</event>
<event>
11    0  0.3462209E-009  0.9118800E+02  0.7816531E-02  0.1126479E+00
         25   -1    0    0    0    0  0.00000000000E+00  0.00000000000E+00  0.99999998245E-14  0.12500000000E+03  0.12500000000E+03 0.  0.
    3000001    1    3    3    0    0  0.35112003025E+02  0.12565573606E+01 -0.26460302444E+02  0.43995219039E+02  0.10000000000E+01 0. -1.
    1000022    2    1    0    0    0  0.49779162231E+02  0.78946362549E+01 -0.35580323123E+02  0.62500000491E+02  0.10000019693E+02 0.  0.
    3000022    2    3    3    0    0  0.14667159205E+02  0.66380788943E+01 -0.91200206788E+01  0.18504781452E+02  0.25001768509E+00 0.  0.
    1000022    2    1    0    0    0 -0.49779162231E+02 -0.78946362549E+01  0.35580323123E+02  0.62499999509E+02  0.10000013558E+02 0.  0.
    3000022    2    5    5    0    0 -0.48107215027E+02 -0.59727149659E+01  0.32417252407E+02  0.58317392039E+02  0.24999787274E+00 0.  0.
        -13    1    4    4    0    0  0.82148845830E+01  0.37892009666E+01 -0.51382790513E+01  0.10404581168E+02  0.10500000000E+00 0.  1.
         13    1    4    4    0    0  0.64522746223E+01  0.28488779278E+01 -0.39817416275E+01  0.81002002838E+01  0.10500000000E+00 0. -1.
    3000001    1    5    5    0    0 -0.16719472033E+01 -0.19219212891E+01  0.31630707160E+01  0.41826074698E+01  0.10000000000E+01 0.  1.
        -13    1    6    6    0    0 -0.20154287812E+02 -0.25633714782E+01  0.13613338000E+02  0.24456086912E+02  0.10500000000E+00 0.  1.
         13    1    6    6    0    0 -0.27952927215E+02 -0.34093434877E+01  0.18803914407E+02  0.33861305127E+02  0.10500000000E+00 0. -1.
</event>
<event>
11    0  0.3462209E-009  0.9118800E+02  0.7816531E-02  0.1126479E+00
         25   -1    0    0    0    0  0.00000000000E+00  0.00000000000E+00  0.99999998245E-14  0.12500000000E+03  0.12500000000E+03 0.  0.
    3000001    1    3    3    0    0  0.11112973508E+02  0.10197497434E+02 -0.14624144080E+02  0.21032183058E+02  0.10000000000E+01 0. -1.
    1000022    2    1    0    0    0  0.35843201218E+02  0.38266551898E+02 -0.32514397991E+02  0.62499997858E+02  0.99999793936E+01 0.  0.
    3000022    2    3    3    0    0  0.24730227710E+02  0.28069054464E+02 -0.17890253912E+02  0.41467814801E+02  0.24999651929E+00 0.  0.
    1000022    2    1    0    0    0 -0.35843201218E+02 -0.38266551898E+02  0.32514397991E+02  0.62500002142E+02  0.10000006164E+02 0.  0.
    3000022    2    5    5    0    0 -0.33716123916E+02 -0.31687021810E+02  0.26777468371E+02  0.53459701511E+02  0.25002039394E+00 0.  0.
        -13    1    4    4    0    0  0.80991315980E+01  0.91557158898E+01 -0.58971029323E+01  0.13572395297E+02  0.10500000000E+00 0.  1.
         13    1    4    4    0    0  0.16631096112E+02  0.18913338574E+02 -0.11993150979E+02  0.27895419504E+02  0.10500000000E+00 0. -1.
    3000001    1    5    5    0    0 -0.21270773021E+01 -0.65795300874E+01  0.57369296204E+01  0.90403006304E+01  0.10000000000E+01 0.  1.
        -13    1    6    6    0    0 -0.14977657353E+02 -0.14166488847E+02  0.11919813135E+02  0.23814125980E+02  0.10500000000E+00 0.  1.
         13    1    6    6    0    0 -0.18738466563E+02 -0.17520532963E+02  0.14857655236E+02  0.29645575531E+02  0.10500000000E+00 0. -1.
</event>
<event>
11    0  0.3462209E-009  0.9118800E+02  0.7816531E-02  0.1126479E+00
         25   -1    0    0    0    0  0.00000000000E+00  0.00000000000E+00  0.99999998245E-14  0.12500000000E+03  0.12500000000E+03 0.  0.
    3000001    1    3    3    0    0  0.38926026192E+01 -0.32155168982E+02 -0.14614445253E+02  0.35548407242E+02  0.10000000000E+01 0.  1.
    1000022    2    1    0    0    0  0.11783269684E+02 -0.51968321465E+02 -0.31091769244E+02  0.62499999841E+02  0.99999992571E+01 0.  0.
    3000022    2    3    3    0    0  0.78906670649E+01 -0.19813152482E+02 -0.16477323991E+02  0.26951592599E+02  0.24999936398E+00 0.  0.
    1000022    2    1    0    0    0 -0.11783269684E+02  0.51968321465E+02  0.31091769244E+02  0.62500000159E+02  0.10000001241E+02 0.  0.
    3000022    2    5    5    0    0 -0.57754369823E+01  0.29723506543E+02  0.23119583026E+02  0.38097508528E+02  0.25004646959E+00 0.  0.
        -13    1    4    4    0    0  0.32798151381E+01 -0.81268396491E+01 -0.67081061677E+01  0.11036866556E+02  0.10500000000E+00 0.  1.
         13    1    4    4    0    0  0.46108519268E+01 -0.11686312833E+02 -0.97692178237E+01  0.15914726043E+02  0.10500000000E+00 0. -1.
    3000001    1    5    5    0    0 -0.60078327018E+01  0.22244814922E+02  0.79721862183E+01  0.24402491630E+02  0.10000000000E+01 0. -1.
        -13    1    6    6    0    0 -0.29984624705E+01  0.15512418080E+02  0.11980697179E+02  0.19828616234E+02  0.10500000000E+00 0. -1.
         13    1    6    6    0    0 -0.27769745118E+01  0.14211088463E+02  0.11138885847E+02  0.18268892294E+02  0.10500000000E+00 0.  1.
</event>
<event>
11    0  0.3462209E-009  0.9118800E+02  0.7816531E-02  0.1126479E+00
         25   -1    0    0    0    0  0.00000000000E+00  0.00000000000E+00  0.99999998245E-14  0.12500000000E+03  0.12500000000E+03 0.  0.
    3000001    1    3    3    0    0  0.19354268225E+02 -0.11885578290E+02 -0.14145353986E+02  0.26775841896E+02  0.10000000000E+01 0. -1.
    1000022    2    1    0    0    0  0.36401256510E+02 -0.34372685422E+02 -0.36051599224E+02  0.62500005542E+02  0.99999953772E+01 0.  0.
    3000022    2    3    3    0    0  0.17046988285E+02 -0.22487107131E+02 -0.21906245238E+02  0.35724163647E+02  0.24998219405E+00 0.  0.
    1000022    2    1    0    0    0 -0.36401256510E+02  0.34372685422E+02  0.36051599224E+02  0.62499994458E+02  0.99999260965E+01 0.  0.
    3000022    2    5    5    0    0 -0.31543653816E+01  0.25171156596E+00  0.94070795136E+00  0.33107106929E+01  0.24998833852E+00 0.  0.
        -13    1    4    4    0    0  0.10873193632E+02 -0.14397935895E+02 -0.13945756680E+02  0.22803992023E+02  0.10500000000E+00 0. -1.
         13    1    4    4    0    0  0.61737946534E+01 -0.80891712363E+01 -0.79604885580E+01  0.12920171624E+02  0.10500000000E+00 0.  1.
    3000001    1    5    5    0    0 -0.33246891129E+02  0.34120973856E+02  0.35110891273E+02  0.59189283765E+02  0.10000000000E+01 0. -1.
        -13    1    6    6    0    0 -0.11612872910E+01  0.40077280907E-01  0.37439842764E+00  0.12253136510E+01  0.10500000000E+00 0.  1.
         13    1    6    6    0    0 -0.19930780906E+01  0.21163428505E+00  0.56630952373E+00  0.20853970419E+01  0.10500000000E+00 0. -1.
</event>
<event>
11    0  0.3462209E-009  0.9118800E+02  0.7816531E-02  0.1126479E+00
         25   -1    0    0    0    0  0.00000000000E+00  0.00000000000E+00  0.99999998245E-14  0.12500000000E+03  0.12500000000E+03 0.  0.
    3000001    1    3    3    0    0  0.91315902546E+01  0.23209097535E+02 -0.17087380534E+02  0.30249408631E+02  0.10000000000E+01 0. -1.
    1000022    2    1    0    0    0  0.10158601434E+02  0.45726757843E+02 -0.40151169720E+02  0.62500000096E+02  0.10000000811E+02 0.  0.
    3000022    2    3    3    0    0  0.10270111796E+01  0.22517660308E+02 -0.23063789186E+02  0.32250591466E+02  0.25000116553E+00 0.  0.
    1000022    2    1    0    0    0 -0.10158601434E+02 -0.45726757843E+02  0.40151169720E+02  0.62499999904E+02  0.99999996064E+01 0.  0.
    3000022    2    5    5    0    0 -0.22296975464E+01 -0.35823032152E+01  0.82693118981E+00  0.43070595352E+01  0.24999834593E+00 0.  0.
        -13    1    4    4    0    0  0.47627163505E+00  0.90943958454E+01 -0.93408062441E+01  0.13045940240E+02  0.10500000000E+00 0. -1.
         13    1    4    4    0    0  0.55073954459E+00  0.13423264462E+02 -0.13722982942E+02  0.19204651225E+02  0.10500000000E+00 0.  1.
    3000001    1    5    5    0    0 -0.79289038878E+01 -0.42144454628E+02  0.39324238530E+02  0.58192940368E+02  0.10000000000E+01 0. -1.
        -13    1    6    6    0    0 -0.15953970687E+01 -0.25428666813E+01  0.54567569681E+00  0.30529084054E+01  0.10500000000E+00 0. -1.
         13    1    6    6    0    0 -0.63430047768E+00 -0.10394365339E+01  0.28125549300E+00  0.12541511298E+01  0.10500000000E+00 0.  1.
</event>
<event>
11    0  0.3462209E-009  0.9118800E+02  0.7816531E-02  0.1126479E+00
         25   -1    0    0    0    0  0.00000000000E+00  0.00000000000E+00  0.99999998245E-14  0.12500000000E+03  0.12500000000E+03 0.  0.
    3000001    1    3    3    0    0 -0.17453566505E+02 -0.27011174504E+02 -0.12532154769E+02  0.34529486457E+02  0.10000000000E+01 0.  1.
    1000022    2    1    0    0    0 -0.33052792657E+02 -0.43083819559E+02 -0.29283910511E+02  0.62499999487E+02  0.99999955424E+01 0.  0.
    3000022    2    3    3    0    0 -0.15599226152E+02 -0.16072645055E+02 -0.16751755742E+02  0.27970513030E+02  0.25000623823E+00 0.  0.
    1000022    2    1    0    0    0  0.33052792657E+02  0.43083819559E+02  0.29283910511E+02  0.62500000513E+02  0.10000001955E+02 0.  0.
    3000022    2    5    5    0    0  0.19175020239E+02  0.24430067005E+02  0.11153030882E+02  0.32999426828E+02  0.24999617260E+00 0.  0.
        -13    1    4    4    0    0 -0.69493215645E+01 -0.72555700386E+01 -0.75076879134E+01  0.12542438742E+02  0.10500000000E+00 0.  1.
         13    1    4    4    0    0 -0.86499045877E+01 -0.88170750166E+01 -0.92440678289E+01  0.15428074288E+02  0.10500000000E+00 0. -1.
    3000001    1    5    5    0    0  0.13877772419E+02  0.18653752554E+02  0.18130879629E+02  0.29500573685E+02  0.10000000000E+01 0. -1.
        -13    1    6    6    0    0  0.12434608690E+02  0.15887981366E+02  0.71931394862E+01  0.21419610777E+02  0.10500000000E+00 0.  1.
         13    1    6    6    0    0  0.67404115486E+01  0.85420856386E+01  0.39598913959E+01  0.11579816051E+02  0.10500000000E+00 0. -1.
</event>
<event>
11    0  0.3462209E-009  0.9118800E+02  0.7816531E-02  0.1126479E+00
         25   -1    0    0    0    0  0.00000000000E+00  0.00000000000E+00  0.99999998245E-14  0.12500000000E+03  0.12500000000E+03 0.  0.
    3000001    1    3    3    0    0  0.83237703007E+01  0.17868197080E+02  0.28063324599E+00  0.19739209050E+02  0.10000000000E+01 0. -1.
    1000022    2    1    0    0    0  0.36158591336E+02  0.49486687268E+02 -0.70621574829E+01  0.62500000211E+02  0.10000000692E+02 0.  0.
    3000022    2    3    3    0    0  0.27834821036E+02  0.31618490188E+02 -0.73427907289E+01  0.42760791160E+02  0.25000227403E+00 0.  0.
    1000022    2    1    0    0    0 -0.36158591336E+02 -0.49486687268E+02  0.70621574829E+01  0.62499999789E+02  0.99999980602E+01 0.  0.
    3000022    2    5    5    0    0 -0.34066355384E+02 -0.46342315183E+02  0.42255552250E+01  0.57671869772E+02  0.25000096860E+00 0.  0.
        -13    1    4    4    0    0  0.12498913971E+02  0.14130453324E+02 -0.33385487280E+01  0.19158535805E+02  0.10500000000E+00 0. -1.
         13    1    4    4    0    0  0.15335907065E+02  0.17488036864E+02 -0.40042420008E+01  0.23602255355E+02  0.10500000000E+00 0.  1.
    3000001    1    5    5    0    0 -0.20922359528E+01 -0.31443720852E+01  0.28366022579E+01  0.48281300171E+01  0.10000000000E+01 0.  1.
        -13    1    6    6    0    0 -0.16583822342E+02 -0.22455603681E+02  0.20787384360E+01  0.27993025535E+02  0.10500000000E+00 0.  1.
         13    1    6    6    0    0 -0.17482533042E+02 -0.23886711502E+02  0.21468167890E+01  0.29678844237E+02  0.10500000000E+00 0. -1.
</event>
<event>
11    0  0.3462209E-009  0.9118800E+02  0.7816531E-02  0.1126479E+00
         25   -1    0    0    0    0  0.00000000000E+00  0.00000000000E+00  0.99999998245E-14  0.12500000000E+03  0.12500000000E+03 0.  0.
    3000001    1    3    3    0    0 -0.88998784362E+01 -0.84441124683E+01 -0.20928776526E+02  0.24280126821E+02  0.10000000000E+01 0.  1.
    1000022    2    1    0    0    0 -0.22578250110E+02 -0.96663913270E+01 -0.56595348118E+02  0.62499999328E+02  0.99999994027E+01 0.  0.
    3000022    2    3    3    0    0 -0.13678371674E+02 -0.12222788587E+01 -0.35666571592E+02  0.38219872507E+02  0.25001613842E+00 0.  0.
    1000022    2    1    0    0    0  0.22578250110E+02  0.96663913270E+01  0.56595348118E+02  0.62500000672E+02  0.10000007802E+02 0.  0.
    3000022    2    5    5    0    0  0.87647772188E+01  0.41182982883E+01  0.34536864682E+02  0.35869753561E+02  0.24999593603E+00 0.  0.
        -13    1    4    4    0    0 -0.40300460887E+01 -0.31641121499E+00 -0.10522992206E+02  0.11273232788E+02  0.10500000000E+00 0.  1.
         13    1    4    4    0    0 -0.96483255854E+01 -0.90586764375E+00 -0.25143579386E+02  0.26946639719E+02  0.10500000000E+00 0. -1.
    3000001    1    5    5    0    0  0.13813472891E+02  0.55480930387E+01  0.22058483436E+02  0.26630247111E+02  0.10000000000E+01 0. -1.
        -13    1    6    6    0    0  0.48065529691E+01  0.22979758418E+01  0.18790368599E+02  0.19531324111E+02  0.10500000000E+00 0. -1.
         13    1    6    6    0    0  0.39582242498E+01  0.18203224465E+01  0.15746496083E+02  0.16338429451E+02  0.10500000000E+00 0.  1.
</event>
<event>
11    0  0.3462209E-009  0.9118800E+02  0.7816531E-02  0.1126479E+00
         25   -1    0    0    0    0  0.00000000000E+00  0.00000000000E+00  0.99999998245E-14  0.12500000000E+03  0.12500000000E+03 0.  0.
    3000001    1    3    3    0    0  0.34032240652E+02 -0.21257248893E+02  0.74416948612E+01  0.40822087853E+02  0.10000000000E+01 0.  1.
    1000022    2    1    0    0    0  0.54933745482E+02 -0.25925561097E+02  0.10788828987E+02  0.62499999382E+02  0.99999990479E+01 0.  0.
    3000022    2    3    3    0    0  0.20901504830E+02 -0.46683122047E+01  0.33471341260E+01  0.21677911529E+02  0.24999680462E+00 0.  0.
    1000022    2    1    0    0    0 -0.54933745482E+02  0.25925561097E+02 -0.10788828987E+02  0.62500000618E+02  0.10000006770E+02 0.  0.
    3000022    2    5    5    0    0 -0.53814884777E+02  0.23595933088E+02 -0.98960014411E+01  0.59588616588E+02  0.25000116889E+00 0.  0.
        -13    1    4    4    0    0  0.62580215704E+01 -0.14001673407E+01  0.95616378939E+00  0.64844873929E+01  0.10500000000E+00 0.  1.
         13    1    4    4    0    0  0.14643483260E+02 -0.32681448640E+01  0.23909703366E+01  0.15193424136E+02  0.10500000000E+00 0. -1.
    3000001    1    5    5    0    0 -0.11188607057E+01  0.23296280093E+01 -0.89282754601E+00  0.29113840295E+01  0.10000000000E+01 0. -1.
        -13    1    6    6    0    0 -0.25801837079E+02  0.11339172339E+02 -0.46822487200E+01  0.28570021072E+02  0.10500000000E+00 0. -1.
         13    1    6    6    0    0 -0.28013047698E+02  0.12256760749E+02 -0.52137527211E+01  0.31018595516E+02  0.10500000000E+00 0.  1.
</event>
<event>
11    0  0.3462209E-009  0.9118800E+02  0.7816531E-02  0.1126479E+00
         25   -1    0    0    0    0  0.00000000000E+00  0.00000000000E+00  0.99999998245E-14  0.12500000000E+03  0.12500000000E+03 0.  0.
    3000001    1    3    3    0    0 -0.32611652045E+01  0.27966369533E+01  0.78533988651E+01  0.90073442520E+01  0.10000000000E+01 0.  1.
    1000022    2    1    0    0    0 -0.41557103702E+02  0.20704741710E+02  0.40627212130E+02  0.62500002287E+02  0.10000036156E+02 0.  0.
    3000022    2    3    3    0    0 -0.38295938497E+02  0.17908104756E+02  0.32773813265E+02  0.53492658035E+02  0.25001281330E+00 0.  0.
    1000022    2    1    0    0    0  0.41557103702E+02 -0.20704741710E+02 -0.40627212130E+02  0.62499997713E+02  0.10000007567E+02 0.  0.
    3000022    2    5    5    0    0  0.17050592308E+02 -0.64370540313E+01 -0.10165397192E+02  0.20869982319E+02  0.24999855128E+00 0.  0.
        -13    1    4    4    0    0 -0.13069941717E+02  0.61570332712E+01  0.11153696469E+02  0.18252353413E+02  0.10500000000E+00 0. -1.
         13    1    4    4    0    0 -0.25225996780E+02  0.11751071485E+02  0.21620116796E+02  0.35240304622E+02  0.10500000000E+00 0.  1.
    3000001    1    5    5    0    0  0.24506511394E+02 -0.14267687678E+02 -0.30461814938E+02  0.41630015394E+02  0.10000000000E+01 0. -1.
        -13    1    6    6    0    0  0.11365823790E+02 -0.43410860134E+01 -0.68147485282E+01  0.13945565629E+02  0.10500000000E+00 0.  1.
         13    1    6    6    0    0  0.56847685183E+01 -0.20959680180E+01 -0.33506486637E+01  0.69244166907E+01  0.10500000000E+00 0. -1.
</event>
<event>
11    0  0.3462209E-009  0.9118800E+02  0.7816531E-02  0.1126479E+00
         25   -1    0    0    0    0  0.00000000000E+00  0.00000000000E+00  0.99999998245E-14  0.12500000000E+03  0.12500000000E+03 0.  0.
    3000001    1    3    3    0    0  0.83022161495E+00  0.36503560373E+01  0.38697595344E+02  0.38891107628E+02  0.10000000000E+01 0.  1.
    1000022    2    1    0    0    0 -0.62100246799E+01  0.69878151520E+01  0.60982423600E+02  0.62499999798E+02  0.10000000973E+02 0.  0.
    3000022    2    3    3    0    0 -0.70402462949E+01  0.33374591147E+01  0.22284828256E+02  0.23608892169E+02  0.25003568290E+00 0.  0.
    1000022    2    1    0    0    0  0.62100246799E+01 -0.69878151520E+01 -0.60982423600E+02  0.62500000202E+02  0.10000003504E+02 0.  0.
    3000022    2    5    5    0    0 -0.11217093961E+01 -0.17783425928E+01 -0.33482343108E+02  0.33549225499E+02  0.24999439959E+00 0.  0.
        -13    1    4    4    0    0 -0.34396031621E+01  0.16842096588E+01  0.10809818023E+02  0.11468680080E+02  0.10500000000E+00 0. -1.
         13    1    4    4    0    0 -0.36006431328E+01  0.16532494559E+01  0.11475010233E+02  0.12140212090E+02  0.10500000000E+00 0.  1.
    3000001    1    5    5    0    0  0.73317340760E+01 -0.52094725592E+01 -0.27500080492E+02  0.28950774704E+02  0.10000000000E+01 0.  1.
        -13    1    6    6    0    0 -0.25548999475E+00 -0.41718957576E+00 -0.81102660361E+01  0.81256853530E+01  0.10500000000E+00 0.  1.
         13    1    6    6    0    0 -0.86621940131E+00 -0.13611530170E+01 -0.25372077072E+02  0.25423540146E+02  0.10500000000E+00 0. -1.
</event>
<event>
11    0  0.3462209E-009  0.9118800E+02  0.7816531E-02  0.1126479E+00
         25   -1    0    0    0    0  0.00000000000E+00  0.00000000000E+00  0.99999998245E-14  0.12500000000E+03  0.12500000000E+03 0.  0.
    3000001    1    3    3    0    0 -0.30989740923E+02 -0.71671504509E+00 -0.10587167194E+02  0.32771417914E+02  0.10000000000E+01 0. -1.
    1000022    2    1    0    0    0 -0.58651264123E+02 -0.99603454125E+01 -0.16342300993E+02  0.62500000518E+02  0.99999999470E+01 0.  0.
    3000022    2    3    3    0    0 -0.27661523201E+02 -0.92436303674E+01 -0.57551337990E+01  0.29728582603E+02  0.24998081803E+00 0.  0.
    1000022    2    1    0    0    0  0.58651264123E+02  0.99603454125E+01  0.16342300993E+02  0.62499999482E+02  0.99999934769E+01 0.  0.
    3000022    2    5    5    0    0  0.40692470250E+02  0.84934629543E+01  0.69208015086E+01  0.42142330803E+02  0.25000792582E+00 0.  0.
        -13    1    4    4    0    0 -0.17189823793E+02 -0.57742807581E+01 -0.35237205084E+01  0.18473223637E+02  0.10500000000E+00 0.  1.
         13    1    4    4    0    0 -0.10471699407E+02 -0.34693496093E+01 -0.22314132905E+01  0.11255358966E+02  0.10500000000E+00 0. -1.
    3000001    1    5    5    0    0  0.17958793873E+02  0.14668824582E+01  0.94214994844E+01  0.20357668679E+02  0.10000000000E+01 0.  1.
        -13    1    6    6    0    0  0.10119485644E+02  0.21383622477E+01  0.17222863227E+01  0.10485889470E+02  0.10500000000E+00 0.  1.
         13    1    6    6    0    0  0.30572984606E+02  0.63551007066E+01  0.51985151860E+01  0.31656441333E+02  0.10500000000E+00 0. -1.
</event>
<event>
11    0  0.3462209E-009  0.9118800E+02  0.7816531E-02  0.1126479E+00
         25   -1    0    0    0    0  0.00000000000E+00  0.00000000000E+00  0.99999998245E-14  0.12500000000E+03  0.12500000000E+03 0.  0.
    3000001    1    3    3    0    0  0.76323268071E+01  0.12835645672E+02  0.47645057656E+01  0.15706900633E+02  0.10000000000E+01 0. -1.
    1000022    2    1    0    0    0  0.38926198758E+02  0.47623922084E+02  0.47919399073E+01  0.62499996799E+02  0.10000000368E+02 0.  0.
    3000022    2    3    3    0    0  0.31293871951E+02  0.34788276412E+02  0.27434141678E-01  0.46793096166E+02  0.24999747745E+00 0.  0.
    1000022    2    1    0    0    0 -0.38926198758E+02 -0.47623922084E+02 -0.47919399073E+01  0.62500003201E+02  0.10000040383E+02 0.  0.
    3000022    2    5    5    0    0 -0.24017330544E+02 -0.32178427989E+02 -0.74713694026E+01  0.40843203306E+02  0.25000255260E+00 0.  0.
        -13    1    4    4    0    0  0.20842062016E+02  0.23224692121E+02  0.56899952013E-01  0.31205642691E+02  0.10500000000E+00 0. -1.
         13    1    4    4    0    0  0.10451809935E+02  0.11563584291E+02 -0.29465810335E-01  0.15587453474E+02  0.10500000000E+00 0.  1.
    3000001    1    5    5    0    0 -0.14908868215E+02 -0.15445494095E+02  0.26794294952E+01  0.21656799895E+02  0.10000000000E+01 0. -1.
        -13    1    6    6    0    0 -0.15189700164E+02 -0.20273113849E+02 -0.46761991839E+01  0.25760512418E+02  0.10500000000E+00 0. -1.
         13    1    6    6    0    0 -0.88276303800E+01 -0.11905314140E+02 -0.27951702186E+01  0.15082690889E+02  0.10500000000E+00 0.  1.
</event>
<event>
11    0  0.3462209E-009  0.9118800E+02  0.7816531E-02  0.1126479E+00
         25   -1    0    0    0    0  0.00000000000E+00  0.00000000000E+00  0.99999998245E-14  0.12500000000E+03  0.12500000000E+03 0.  0.
    3000001    1    3    3    0    0 -0.21445705321E+02 -0.30072459194E+02 -0.21133717771E+01  0.37009963779E+02  0.10000000000E+01 0. -1.
    1000022    2    1    0    0    0 -0.30120255601E+02 -0.53832688890E+02  0.10303696835E+01  0.62500000137E+02  0.10000008242E+02 0.  0.
    3000022    2    3    3    0    0 -0.86745502802E+01 -0.23760229696E+02  0.31437414606E+01  0.25490036357E+02  0.25001074651E+00 0.  0.
    1000022    2    1    0    0    0  0.30120255601E+02  0.53832688890E+02 -0.10303696835E+01  0.62499999863E+02  0.10000006534E+02 0.  0.
    3000022    2    5    5    0    0  0.12159046668E+01  0.81123537968E+01 -0.17675817462E+01  0.83949721344E+01  0.25000725118E+00 0.  0.
        -13    1    4    4    0    0 -0.55530758770E+01 -0.15099893139E+02  0.20447503004E+01  0.16218367775E+02  0.10500000000E+00 0. -1.
         13    1    4    4    0    0 -0.31214744032E+01 -0.86603365569E+01  0.10989911602E+01  0.92716685823E+01  0.10500000000E+00 0.  1.
    3000001    1    5    5    0    0  0.28904350934E+02  0.45720335093E+02  0.73721206268E+00  0.54105027729E+02  0.10000000000E+01 0.  1.
        -13    1    6    6    0    0  0.79628651387E+00  0.48901734936E+01 -0.10692194517E+01  0.50697262496E+01  0.10500000000E+00 0. -1.
         13    1    6    6    0    0  0.41961815294E+00  0.32221803031E+01 -0.69836229443E+00  0.33252458848E+01  0.10500000000E+00 0.  1.
</event>
<event>
11    0  0.3462209E-009  0.9118800E+02  0.7816531E-02  0.1126479E+00
         25   -1    0    0    0    0  0.00000000000E+00  0.00000000000E+00  0.99999998245E-14  0.12500000000E+03  0.12500000000E+03 0.  0.
    3000001    1    3    3    0    0 -0.10763630019E+02 -0.15546505061E+00  0.38649671408E+02  0.40133240593E+02  0.10000000000E+01 0.  1.
    1000022    2    1    0    0    0 -0.94058057518E+01 -0.43050011075E+00  0.60972094433E+02  0.62500010531E+02  0.10000025228E+02 0.  0.
    3000022    2    3    3    0    0  0.13578242674E+01 -0.27503506014E+00  0.22322423025E+02  0.22366769937E+02  0.24999337213E+00 0.  0.
    1000022    2    1    0    0    0  0.94058057518E+01  0.43050011075E+00 -0.60972094433E+02  0.62499989469E+02  0.99998935955E+01 0.  0.
    3000022    2    5    5    0    0  0.39965641513E+01 -0.19015376166E+01 -0.76296339659E+01  0.88239577293E+01  0.25009045042E+00 0.  0.
        -13    1    4    4    0    0  0.86770970640E+00 -0.11541436835E+00  0.13845373681E+02  0.13873414792E+02  0.10500000000E+00 0. -1.
         13    1    4    4    0    0  0.49011456102E+00 -0.15962069179E+00  0.84770493441E+01  0.84933551457E+01  0.10500000000E+00 0.  1.
    3000001    1    5    5    0    0  0.54092416006E+01  0.23320377274E+01 -0.53342460467E+02  0.53676031740E+02  0.10000000000E+01 0.  1.
        -13    1    6    6    0    0  0.17203395668E+01 -0.75667298604E+00 -0.31731475332E+01  0.36894460967E+01  0.10500000000E+00 0. -1.
         13    1    6    6    0    0  0.22762245845E+01 -0.11448646306E+01 -0.44564864327E+01  0.51345116327E+01  0.10500000000E+00 0.  1.
</event>
<event>
11    0  0.3462209E-009  0.9118800E+02  0.7816531E-02  0.1126479E+00
         25   -1    0    0    0    0  0.00000000000E+00  0.00000000000E+00  0.99999998245E-14  0.12500000000E+03  0.12500000000E+03 0.  0.
    3000001    1    3    3    0    0 -0.43893444281E+00 -0.11497175302E+02  0.15532001113E+02  0.19355122370E+02  0.10000000000E+01 0. -1.
    1000022    2    1    0    0    0 -0.15819042946E+02 -0.34954719724E+02  0.48313304744E+02  0.62500000359E+02  0.10000003945E+02 0.  0.
    3000022    2    3    3    0    0 -0.15380108503E+02 -0.23457544421E+02  0.32781303631E+02  0.43144877990E+02  0.25000221169E+00 0.  0.
    1000022    2    1    0    0    0  0.15819042946E+02  0.34954719724E+02 -0.48313304744E+02  0.62499999641E+02  0.99999994542E+01 0.  0.
    3000022    2    5    5    0    0  0.83054465559E+01  0.95130041882E+01 -0.20279060344E+02  0.23891012615E+02  0.25000825129E+00 0.  0.
        -13    1    4    4    0    0 -0.45551673571E+01 -0.68726123852E+01  0.96611545708E+01  0.12701625222E+02  0.10500000000E+00 0.  1.
         13    1    4    4    0    0 -0.10824941146E+02 -0.16584932036E+02  0.23120149061E+02  0.30443252767E+02  0.10500000000E+00 0. -1.
    3000001    1    5    5    0    0  0.75135963902E+01  0.25441715536E+02 -0.28034244400E+02  0.38608987026E+02  0.10000000000E+01 0. -1.
        -13    1    6    6    0    0  0.63080638220E+01  0.72493632376E+01 -0.15410908366E+02  0.18161829704E+02  0.10500000000E+00 0. -1.
         13    1    6    6    0    0  0.19973827338E+01  0.22636409506E+01 -0.48681519788E+01  0.57291829109E+01  0.10500000000E+00 0.  1.
</event>
<event>
11    0  0.3462209E-009  0.9118800E+02  0.7816531E-02  0.1126479E+00
         25   -1    0    0    0    0  0.00000000000E+00  0.00000000000E+00  0.99999998245E-14  0.12500000000E+03  0.12500000000E+03 0.  0.
    3000001    1    3    3    0    0 -0.35132419349E+01 -0.12135165468E+02 -0.23503840692E+02  0.26702727148E+02  0.10000000000E+01 0.  1.
    1000022    2    1    0    0    0  0.25078547824E+01 -0.24727953650E+02 -0.56466704153E+02  0.62500000636E+02  0.10000018717E+02 0.  0.
    3000022    2    3    3    0    0  0.60210967172E+01 -0.12592788182E+02 -0.32962863460E+02  0.35797273489E+02  0.25000368257E+00 0.  0.
    1000022    2    1    0    0    0 -0.25078547824E+01  0.24727953650E+02  0.56466704153E+02  0.62499999364E+02  0.10000010762E+02 0.  0.
    3000022    2    5    5    0    0 -0.30727058972E+01  0.17056952912E+01  0.10538086668E+02  0.11111466199E+02  0.24998503155E+00 0.  0.
        -13    1    4    4    0    0  0.19278377189E+01 -0.41377273190E+01 -0.10846568300E+02  0.11768449963E+02  0.10500000000E+00 0.  1.
         13    1    4    4    0    0  0.40932589984E+01 -0.84550608632E+01 -0.22116295160E+02  0.24028823526E+02  0.10500000000E+00 0. -1.
    3000001    1    5    5    0    0  0.56485111481E+00  0.23022258359E+02  0.45928617485E+02  0.51388533165E+02  0.10000000000E+01 0. -1.
        -13    1    6    6    0    0 -0.19155453121E+01  0.10385013882E+01  0.63477208443E+01  0.67121072618E+01  0.10500000000E+00 0. -1.
         13    1    6    6    0    0 -0.11571605850E+01  0.66719390299E+00  0.41903658234E+01  0.43993589372E+01  0.10500000000E+00 0.  1.
</event>
<event>
11    0  0.3462209E-009  0.9118800E+02  0.7816531E-02  0.1126479E+00
         25   -1    0    0    0    0  0.00000000000E+00  0.00000000000E+00  0.99999998245E-14  0.12500000000E+03  0.12500000000E+03 0.  0.
    3000001    1    3    3    0    0 -0.18724264318E+02 -0.45509534169E+01 -0.14084817148E+02  0.23889146602E+02  0.10000000000E+01 0.  1.
    1000022    2    1    0    0    0 -0.44512245803E+02 -0.23556992245E+02 -0.35636752949E+02  0.62499999214E+02  0.99999915480E+01 0.  0.
    3000022    2    3    3    0    0 -0.25787981485E+02 -0.19006038828E+02 -0.21551935801E+02  0.38610852612E+02  0.25000340187E+00 0.  0.
    1000022    2    1    0    0    0  0.44512245803E+02  0.23556992245E+02  0.35636752949E+02  0.62500000786E+02  0.10000001374E+02 0.  0.
    3000022    2    5    5    0    0  0.29854575278E+02  0.12195161927E+02  0.18233293725E+02  0.37047714320E+02  0.24999367471E+00 0.  0.
        -13    1    4    4    0    0 -0.18905233882E+02 -0.13901589603E+02 -0.15758089166E+02  0.28266419313E+02  0.10500000000E+00 0.  1.
         13    1    4    4    0    0 -0.68827476025E+01 -0.51044492245E+01 -0.57938466354E+01  0.10344433299E+02  0.10500000000E+00 0. -1.
    3000001    1    5    5    0    0  0.14657670525E+02  0.11361830318E+02  0.17403459224E+02  0.25452286466E+02  0.10000000000E+01 0.  1.
        -13    1    6    6    0    0  0.10133655119E+02  0.40976141838E+01  0.62243952754E+01  0.12579170466E+02  0.10500000000E+00 0. -1.
         13    1    6    6    0    0  0.19720920160E+02  0.80975477433E+01  0.12008898450E+02  0.24468543855E+02  0.10500000000E+00 0.  1.
</event>
<event>
11    0  0.3462209E-009  0.9118800E+02  0.7816531E-02  0.1126479E+00
         25   -1    0    0    0    0  0.00000000000E+00  0.00000000000E+00  0.99999998245E-14  0.12500000000E+03  0.12500000000E+03 0.  0.
    3000001    1    3    3    0    0 -0.40239816062E+01 -0.24117739668E+01  0.26687850748E+02  0.27115502193E+02  0.10000000000E+01 0.  1.
    1000022    2    1    0    0    0 -0.55400245944E+01  0.50859253464E+01  0.61234723776E+02  0.62500001846E+02  0.10000016283E+02 0.  0.
    3000022    2    3    3    0    0 -0.15160429882E+01  0.74976993131E+01  0.34546873028E+02  0.35384499653E+02  0.24999665362E+00 0.  0.
    1000022    2    1    0    0    0  0.55400245944E+01 -0.50859253464E+01 -0.61234723776E+02  0.62499998154E+02  0.99999932085E+01 0.  0.
    3000022    2    5    5    0    0 -0.49791726031E+00 -0.59641202839E+01 -0.37386313430E+02  0.37863142749E+02  0.24998923026E+00 0.  0.
        -13    1    4    4    0    0 -0.89161339111E+00  0.44189367036E+01  0.20060015432E+02  0.20560574412E+02  0.10500000000E+00 0. -1.
         13    1    4    4    0    0 -0.62442959708E+00  0.30787626096E+01  0.14486857596E+02  0.14823925241E+02  0.10500000000E+00 0.  1.
    3000001    1    5    5    0    0  0.60379418547E+01  0.87819493751E+00 -0.23848410346E+02  0.24636855405E+02  0.10000000000E+01 0.  1.
        -13    1    6    6    0    0 -0.13821369259E+00 -0.24185769518E+01 -0.15126562952E+02  0.15319678497E+02  0.10500000000E+00 0.  1.
         13    1    6    6    0    0 -0.35970356772E+00 -0.35455433321E+01 -0.22259750478E+02  0.22543464253E+02  0.10500000000E+00 0. -1.
</event>
<event>
11    0  0.3462209E-009  0.9118800E+02  0.7816531E-02  0.1126479E+00
         25   -1    0    0    0    0  0.00000000000E+00  0.00000000000E+00  0.99999998245E-14  0.12500000000E+03  0.12500000000E+03 0.  0.
    3000001    1    3    3    0    0 -0.59733326124E+01 -0.22032397697E+02  0.92237379547E+01  0.24641115896E+02  0.10000000000E+01 0.  1.
    1000022    2    1    0    0    0 -0.33651809766E+01 -0.57959750210E+02  0.20870861523E+02  0.62499999910E+02  0.10000002033E+02 0.  0.
    3000022    2    3    3    0    0  0.26081516358E+01 -0.35927352513E+02  0.11647123568E+02  0.37858884014E+02  0.24999557708E+00 0.  0.
    1000022    2    1    0    0    0  0.33651809766E+01  0.57959750210E+02 -0.20870861523E+02  0.62500000090E+02  0.10000003159E+02 0.  0.
    3000022    2    5    5    0    0  0.89917314688E+00  0.53879789973E+02 -0.17845458631E+02  0.56765862596E+02  0.24996512049E+00 0.  0.
        -13    1    4    4    0    0  0.12274780144E+01 -0.16052759491E+02  0.51801538166E+01  0.16912800127E+02  0.10500000000E+00 0. -1.
         13    1    4    4    0    0  0.13806736214E+01 -0.19874593022E+02  0.64669697515E+01  0.20946083887E+02  0.10500000000E+00 0.  1.
    3000001    1    5    5    0    0  0.24660078297E+01  0.40799602362E+01 -0.30254028922E+01  0.57341374944E+01  0.10000000000E+01 0. -1.
        -13    1    6    6    0    0  0.40696591455E+00  0.20986249515E+02 -0.69773055965E+01  0.22119722158E+02  0.10500000000E+00 0. -1.
         13    1    6    6    0    0  0.49220723233E+00  0.32893540459E+02 -0.10868153034E+02  0.34646140438E+02  0.10500000000E+00 0.  1.
</event>
<event>
11    0  0.3462209E-009  0.9118800E+02  0.7816531E-02  0.1126479E+00
         25   -1    0    0    0    0  0.00000000000E+00  0.00000000000E+00  0.99999998245E-14  0.12500000000E+03  0.12500000000E+03 0.  0.
    3000001    1    3    3    0    0 -0.12455018518E+02  0.63843528572E+00  0.34927477788E+02  0.37100724932E+02  0.10000000000E+01 0. -1.
    1000022    2    1    0    0    0 -0.17111873480E+02 -0.61503122859E+01  0.58954277898E+02  0.62499996867E+02  0.10000008536E+02 0.  0.
    3000022    2    3    3    0    0 -0.46568549613E+01 -0.67887475716E+01  0.24026800111E+02  0.25399271935E+02  0.24999908908E+00 0.  0.
    1000022    2    1    0    0    0  0.17111873480E+02  0.61503122859E+01 -0.58954277898E+02  0.62500003133E+02  0.10000047692E+02 0.  0.
    3000022    2    5    5    0    0  0.18669894250E+01  0.71934635273E+00 -0.87168401526E+00  0.21966898487E+01  0.25000916151E+00 0.  0.
        -13    1    4    4    0    0 -0.18252269276E+01 -0.27630143213E+01  0.97445289250E+01  0.10292354951E+02  0.10500000000E+00 0.  1.
         13    1    4    4    0    0 -0.28316280337E+01 -0.40257332504E+01  0.14282271186E+02  0.15106916984E+02  0.10500000000E+00 0. -1.
    3000001    1    5    5    0    0  0.15244884055E+02  0.54309659332E+01 -0.58082593883E+02  0.60303313284E+02  0.10000000000E+01 0. -1.
        -13    1    6    6    0    0  0.57712404003E+00  0.26448722809E+00 -0.31275612347E+00  0.71544884106E+00  0.10500000000E+00 0. -1.
         13    1    6    6    0    0  0.12898653849E+01  0.45485912463E+00 -0.55892789178E+00  0.14812410076E+01  0.10500000000E+00 0.  1.
</event>
<event>
11    0  0.3462209E-009  0.9118800E+02  0.7816531E-02  0.1126479E+00
         25   -1    0    0    0    0  0.00000000000E+00  0.00000000000E+00  0.99999998245E-14  0.12500000000E+03  0.12500000000E+03 0.  0.
    3000001    1    3    3    0    0  0.17519757536E+02 -0.51990756498E+02 -0.16089907395E+02  0.57182740275E+02  0.10000000000E+01 0.  1.
    1000022    2    1    0    0    0  0.19658320200E+02 -0.54980341152E+02 -0.19923928266E+02  0.62500002575E+02  0.99999969010E+01 0.  0.
    3000022    2    3    3    0    0  0.21385626644E+01 -0.29895846533E+01 -0.38340208713E+01  0.53172622996E+01  0.24999130432E+00 0.  0.
    1000022    2    1    0    0    0 -0.19658320200E+02  0.54980341152E+02  0.19923928266E+02  0.62499997425E+02  0.99999647191E+01 0.  0.
    3000022    2    5    5    0    0 -0.18506950690E+02  0.38816833599E+02  0.14379903633E+02  0.45344215972E+02  0.24999824220E+00 0.  0.
        -13    1    4    4    0    0  0.13924020487E+01 -0.19128907496E+01 -0.25434172919E+01  0.34753317835E+01  0.10500000000E+00 0. -1.
         13    1    4    4    0    0  0.74616061565E+00 -0.10766939038E+01 -0.12906035794E+01  0.18419305161E+01  0.10500000000E+00 0.  1.
    3000001    1    5    5    0    0 -0.11513695108E+01  0.16163507553E+02  0.55440246328E+01  0.17155781454E+02  0.10000000000E+01 0. -1.
        -13    1    6    6    0    0 -0.77633546805E+01  0.16379611677E+02  0.60087475736E+01  0.19096529187E+02  0.10500000000E+00 0. -1.
         13    1    6    6    0    0 -0.10743596009E+02  0.22437221921E+02  0.83711560597E+01  0.26247686784E+02  0.10500000000E+00 0.  1.
</event>
<event>
11    0  0.3462209E-009  0.9118800E+02  0.7816531E-02  0.1126479E+00
         25   -1    0    0    0    0  0.00000000000E+00  0.00000000000E+00  0.99999998245E-14  0.12500000000E+03  0.12500000000E+03 0.  0.
    3000001    1    3    3    0    0  0.11827944674E+02  0.16188048494E+02  0.22528186220E+01  0.20199712398E+02  0.10000000000E+01 0.  1.
    1000022    2    1    0    0    0  0.31698767955E+02  0.48886753121E+02  0.20286039944E+02  0.62500001706E+02  0.10000013800E+02 0.  0.
    3000022    2    3    3    0    0  0.19870823282E+02  0.32698704627E+02  0.18033221322E+02  0.42300289308E+02  0.25000406849E+00 0.  0.
    1000022    2    1    0    0    0 -0.31698767955E+02 -0.48886753121E+02 -0.20286039944E+02  0.62499998294E+02  0.99999924772E+01 0.  0.
    3000022    2    5    5    0    0 -0.91067184573E+01 -0.18760519559E+02 -0.30604840120E+01  0.21078863274E+02  0.24999873536E+00 0.  0.
        -13    1    4    4    0    0  0.59680727182E+01  0.99080210758E+01  0.54399466331E+01  0.12782441785E+02  0.10500000000E+00 0. -1.
         13    1    4    4    0    0  0.13902750564E+02  0.22790683552E+02  0.12593274689E+02  0.29517847523E+02  0.10500000000E+00 0.  1.
    3000001    1    5    5    0    0 -0.22592049498E+02 -0.30126233562E+02 -0.17225555932E+02  0.41421135020E+02  0.10000000000E+01 0. -1.
        -13    1    6    6    0    0 -0.40614976040E+01 -0.82300772303E+01 -0.13754975345E+01  0.92807840440E+01  0.10500000000E+00 0.  1.
         13    1    6    6    0    0 -0.50452208533E+01 -0.10530442328E+02 -0.16849864774E+01  0.11798079230E+02  0.10500000000E+00 0. -1.
</event>
<event>
11    0  0.3462209E-009  0.9118800E+02  0.7816531E-02  0.1126479E+00
         25   -1    0    0    0    0  0.00000000000E+00  0.00000000000E+00  0.99999998245E-14  0.12500000000E+03  0.12500000000E+03 0.  0.
    3000001    1    3    3    0    0 -0.16559889612E+02  0.18585684799E+02  0.28724909897E+01  0.25078054707E+02  0.10000000000E+01 0. -1.
    1000022    2    1    0    0    0 -0.38767969377E+02  0.44175975419E+02  0.18755742730E+02  0.62500000004E+02  0.99999930668E+01 0.  0.
    3000022    2    3    3    0    0 -0.22208079765E+02  0.25590290619E+02  0.15883251740E+02  0.37421945297E+02  0.25004621221E+00 0.  0.
    1000022    2    1    0    0    0  0.38767969377E+02 -0.44175975419E+02 -0.18755742730E+02  0.62499999996E+02  0.99999930180E+01 0.  0.
    3000022    2    5    5    0    0  0.52558797333E+01 -0.32662910462E+01 -0.46904186252E+01  0.77688774979E+01  0.25000345857E+00 0.  0.
        -13    1    4    4    0    0 -0.67044451065E+01  0.77920674017E+01  0.48001014703E+01  0.11345391034E+02  0.10500000000E+00 0.  1.
         13    1    4    4    0    0 -0.15503634659E+02  0.17798223218E+02  0.11083150270E+02  0.26076554263E+02  0.10500000000E+00 0. -1.
    3000001    1    5    5    0    0  0.33512089644E+02 -0.40909684372E+02 -0.14065324105E+02  0.54731122498E+02  0.10000000000E+01 0.  1.
        -13    1    6    6    0    0  0.25555778532E+01 -0.15344399692E+01 -0.23219496916E+01  0.37799417394E+01  0.10500000000E+00 0. -1.
         13    1    6    6    0    0  0.27003018800E+01 -0.17318510771E+01 -0.23684689336E+01  0.39889357585E+01  0.10500000000E+00 0.  1.
</event>
<event>
11    0  0.3462209E-009  0.9118800E+02  0.7816531E-02  0.1126479E+00
         25   -1    0    0    0    0  0.00000000000E+00  0.00000000000E+00  0.99999998245E-14  0.12500000000E+03  0.12500000000E+03 0.  0.
    3000001    1    3    3    0    0  0.17064320427E+02 -0.22781300961E+02 -0.12116713862E+02  0.30951469431E+02  0.10000000000E+01 0.  1.
    1000022    2    1    0    0    0  0.29708100025E+02 -0.43034918426E+02 -0.32736439787E+02  0.62499999945E+02  0.10000004609E+02 0.  0.
    3000022    2    3    3    0    0  0.12643779597E+02 -0.20253617465E+02 -0.20619725925E+02  0.31548530514E+02  0.24999489367E+00 0.  0.
    1000022    2    1    0    0    0 -0.29708100025E+02  0.43034918426E+02  0.32736439787E+02  0.62500000055E+02  0.10000005301E+02 0.  0.
    3000022    2    5    5    0    0 -0.51976072725E+00  0.44839815471E+01  0.50234591624E+01  0.67582456853E+01  0.25000211637E+00 0.  0.
        -13    1    4    4    0    0  0.75304091700E+01 -0.12167753814E+02 -0.12318116135E+02  0.18881427522E+02  0.10500000000E+00 0. -1.
         13    1    4    4    0    0  0.51133704275E+01 -0.80858636504E+01 -0.83016097899E+01  0.12667102992E+02  0.10500000000E+00 0.  1.
    3000001    1    5    5    0    0 -0.29188339297E+02  0.38550936879E+02  0.27712980624E+02  0.55741754370E+02  0.10000000000E+01 0. -1.
        -13    1    6    6    0    0 -0.16363221334E+00  0.19783522121E+01  0.21928778369E+01  0.29597958010E+01  0.10500000000E+00 0.  1.
         13    1    6    6    0    0 -0.35612851391E+00  0.25056293350E+01  0.28305813256E+01  0.37984498843E+01  0.10500000000E+00 0. -1.
</event>
<event>
11    0  0.3462209E-009  0.9118800E+02  0.7816531E-02  0.1126479E+00
         25   -1    0    0    0    0  0.00000000000E+00  0.00000000000E+00  0.99999998245E-14  0.12500000000E+03  0.12500000000E+03 0.  0.
    3000001    1    3    3    0    0 -0.18486316792E+02  0.38701066954E+02  0.12585361577E+02  0.44709146916E+02  0.10000000000E+01 0.  1.
    1000022    2    1    0    0    0 -0.23997457725E+02  0.51906083412E+02  0.23154505616E+02  0.62499999686E+02  0.99999679039E+01 0.  0.
    3000022    2    3    3    0    0 -0.55111409325E+01  0.13205016458E+02  0.10569144039E+02  0.17790852770E+02  0.25000511160E+00 0.  0.
    1000022    2    1    0    0    0  0.23997457725E+02 -0.51906083412E+02 -0.23154505616E+02  0.62500000314E+02  0.99999718251E+01 0.  0.
    3000022    2    5    5    0    0  0.67641725553E+01 -0.24138896807E+02 -0.69865268285E+01  0.26025265116E+02  0.24999563612E+00 0.  0.
        -13    1    4    4    0    0 -0.21631935461E+01  0.52809140698E+01  0.41528133016E+01  0.70586360615E+01  0.10500000000E+00 0.  1.
         13    1    4    4    0    0 -0.33479473865E+01  0.79241023878E+01  0.64163307374E+01  0.10732216709E+02  0.10500000000E+00 0. -1.
    3000001    1    5    5    0    0  0.17233285169E+02 -0.27767186605E+02 -0.16167978787E+02  0.36474735198E+02  0.10000000000E+01 0.  1.
        -13    1    6    6    0    0  0.24150690826E+01 -0.86521774007E+01 -0.24442938862E+01  0.93101197656E+01  0.10500000000E+00 0.  1.
         13    1    6    6    0    0  0.43491034727E+01 -0.15486719406E+02 -0.45422329423E+01  0.16715145351E+02  0.10500000000E+00 0. -1.
</event>
<event>
11    0  0.3462209E-009  0.9118800E+02  0.7816531E-02  0.1126479E+00
         25   -1    0    0    0    0  0.00000000000E+00  0.00000000000E+00  0.99999998245E-14  0.12500000000E+03  0.12500000000E+03 0.  0.
    3000001    1    3    3    0    0  0.34938167913E+01  0.27864373266E+02  0.15737166721E+02  0.32206963062E+02  0.10000000000E+01 0. -1.
    1000022    2    1    0    0    0  0.43493447024E+01  0.57507732686E+02  0.21913327050E+02  0.62500000595E+02  0.10000002697E+02 0.  0.
    3000022    2    3    3    0    0  0.85552791108E+00  0.29643359420E+02  0.61761603287E+01  0.30293037533E+02  0.24996168443E+00 0.  0.
    1000022    2    1    0    0    0 -0.43493447024E+01 -0.57507732686E+02 -0.21913327050E+02  0.62499999405E+02  0.99999952576E+01 0.  0.
    3000022    2    5    5    0    0  0.16012870338E+01 -0.29632300139E+02 -0.14509166823E+02  0.33033554990E+02  0.25000343722E+00 0.  0.
        -13    1    4    4    0    0  0.66675976670E+00  0.22671146226E+02  0.47313214086E+01  0.23169416631E+02  0.10500000000E+00 0. -1.
         13    1    4    4    0    0  0.18876814438E+00  0.69722131946E+01  0.14448389201E+01  0.71236209015E+01  0.10500000000E+00 0.  1.
    3000001    1    5    5    0    0 -0.59506317362E+01 -0.27875432548E+02 -0.74041602268E+01  0.29466444415E+02  0.10000000000E+01 0. -1.
        -13    1    6    6    0    0  0.78498926863E+00 -0.15364577017E+02 -0.74658688225E+01  0.17100779436E+02  0.10500000000E+00 0.  1.
         13    1    6    6    0    0  0.81629776513E+00 -0.14267723122E+02 -0.70432980006E+01  0.15932775554E+02  0.10500000000E+00 0. -1.
</event>
<event>
11    0  0.3462209E-009  0.9118800E+02  0.7816531E-02  0.1126479E+00
         25   -1    0    0    0    0  0.00000000000E+00  0.00000000000E+00  0.99999998245E-14  0.12500000000E+03  0.12500000000E+03 0.  0.
    3000001    1    3    3    0    0  0.18659104767E+00 -0.43511595001E+00  0.79204584339E+00  0.13606905332E+01  0.10000000000E+01 0. -1.
    1000022    2    1    0    0    0  0.33071251569E+02 -0.51531678772E+02  0.75517108193E+01  0.62500000330E+02  0.10000005380E+02 0.  0.
    3000022    2    3    3    0    0  0.32884660521E+02 -0.51096562822E+02  0.67596649759E+01  0.61139309797E+02  0.25000413185E+00 0.  0.
    1000022    2    1    0    0    0 -0.33071251569E+02  0.51531678772E+02 -0.75517108193E+01  0.62499999670E+02  0.10000001255E+02 0.  0.
    3000022    2    5    5    0    0 -0.27575145985E+02  0.47600836791E+02 -0.51205400898E+01  0.55249531659E+02  0.24995683555E+00 0.  0.
        -13    1    4    4    0    0  0.16409157499E+02 -0.25520110161E+02  0.34422481527E+01  0.30535169392E+02  0.10500000000E+00 0. -1.
         13    1    4    4    0    0  0.16475503022E+02 -0.25576452661E+02  0.33174168232E+01  0.30604140405E+02  0.10500000000E+00 0.  1.
    3000001    1    5    5    0    0 -0.54961055836E+01  0.39308419809E+01 -0.24311707295E+01  0.72504680112E+01  0.10000000000E+01 0.  1.
        -13    1    6    6    0    0 -0.13122911273E+02  0.22631193017E+02 -0.23681880632E+01  0.26267870819E+02  0.10500000000E+00 0. -1.
         13    1    6    6    0    0 -0.14452234712E+02  0.24969643774E+02 -0.27523520266E+01  0.28981660840E+02  0.10500000000E+00 0.  1.
</event>
<event>
11    0  0.3462209E-009  0.9118800E+02  0.7816531E-02  0.1126479E+00
         25   -1    0    0    0    0  0.00000000000E+00  0.00000000000E+00  0.99999998245E-14  0.12500000000E+03  0.12500000000E+03 0.  0.
    3000001    1    3    3    0    0  0.36885277844E+02 -0.35034692827E+01 -0.38810121225E+02  0.53665850671E+02  0.10000000000E+01 0.  1.
    1000022    2    1    0    0    0  0.45072767049E+02 -0.27696663687E+01 -0.42035991374E+02  0.62500000395E+02  0.10000004871E+02 0.  0.
    3000022    2    3    3    0    0  0.81874892045E+01  0.73380291397E+00 -0.32258701484E+01  0.88341497248E+01  0.25003390896E+00 0.  0.
    1000022    2    1    0    0    0 -0.45072767049E+02  0.27696663687E+01  0.42035991374E+02  0.62499999605E+02  0.99999999285E+01 0.  0.
    3000022    2    5    5    0    0 -0.75069973224E+00 -0.15586168872E-03 -0.55027329261E+00  0.96377040070E+00  0.25000515277E+00 0.  0.
        -13    1    4    4    0    0  0.48953707582E+01  0.46582194016E+00 -0.19909010762E+01  0.53062564050E+01  0.10500000000E+00 0. -1.
         13    1    4    4    0    0  0.32921184463E+01  0.26798097381E+00 -0.12349690722E+01  0.35278933199E+01  0.10500000000E+00 0.  1.
    3000001    1    5    5    0    0 -0.44322067317E+02  0.27698222304E+01  0.42586264666E+02  0.61536229204E+02  0.10000000000E+01 0.  1.
        -13    1    6    6    0    0 -0.42311815460E+00  0.64476116350E-01 -0.32406383375E+00  0.54701783396E+00  0.10500000000E+00 0.  1.
         13    1    6    6    0    0 -0.32758157764E+00 -0.64631978039E-01 -0.22620945886E+00  0.41675256673E+00  0.10500000000E+00 0. -1.
</event>
<event>
11    0  0.3462209E-009  0.9118800E+02  0.7816531E-02  0.1126479E+00
         25   -1    0    0    0    0  0.00000000000E+00  0.00000000000E+00  0.99999998245E-14  0.12500000000E+03  0.12500000000E+03 0.  0.
    3000001    1    3    3    0    0 -0.10598059308E+02 -0.22598318260E+02  0.39928828244E+01  0.25297153250E+02  0.10000000000E+01 0.  1.
    1000022    2    1    0    0    0 -0.20595344511E+02 -0.54474293912E+02  0.20362541617E+02  0.62499999672E+02  0.99999972564E+01 0.  0.
    3000022    2    3    3    0    0 -0.99972852023E+01 -0.31875975652E+02  0.16369658792E+02  0.37202846422E+02  0.25003546744E+00 0.  0.
    1000022    2    1    0    0    0  0.20595344511E+02  0.54474293912E+02 -0.20362541617E+02  0.62500000328E+02  0.10000001359E+02 0.  0.
    3000022    2    5    5    0    0  0.87954096871E+01  0.27933541712E+02 -0.52877289777E+01  0.29760116924E+02  0.24999494049E+00 0.  0.
        -13    1    4    4    0    0 -0.39721855790E+01 -0.12460386775E+02  0.64202732335E+01  0.14569503432E+02  0.10500000000E+00 0. -1.
         13    1    4    4    0    0 -0.60250996234E+01 -0.19415588876E+02  0.99493855589E+01  0.22633342990E+02  0.10500000000E+00 0.  1.
    3000001    1    5    5    0    0  0.11799934824E+02  0.26540752201E+02 -0.15074812639E+02  0.32739883404E+02  0.10000000000E+01 0. -1.
        -13    1    6    6    0    0  0.38447011375E+01  0.12411246530E+02 -0.23178945470E+01  0.13198652484E+02  0.10500000000E+00 0.  1.
         13    1    6    6    0    0  0.49507085496E+01  0.15522295182E+02 -0.29698344308E+01  0.16561464440E+02  0.10500000000E+00 0. -1.
</event>
<event>
11    0  0.3462209E-009  0.9118800E+02  0.7816531E-02  0.1126479E+00
         25   -1    0    0    0    0  0.00000000000E+00  0.00000000000E+00  0.99999998245E-14  0.12500000000E+03  0.12500000000E+03 0.  0.
    3000001    1    3    3    0    0 -0.34995970169E+01  0.12775534677E+02 -0.14949670985E+02  0.19998853170E+02  0.10000000000E+01 0. -1.
    1000022    2    1    0    0    0 -0.18847637281E+02  0.28827950178E+02 -0.51185599861E+02  0.62499999332E+02  0.10000007041E+02 0.  0.
    3000022    2    3    3    0    0 -0.15348040264E+02  0.16052415501E+02 -0.36235928875E+02  0.42501146161E+02  0.25000037915E+00 0.  0.
    1000022    2    1    0    0    0  0.18847637281E+02 -0.28827950178E+02  0.51185599861E+02  0.62500000668E+02  0.10000015395E+02 0.  0.
    3000022    2    5    5    0    0  0.14173879885E+02 -0.19341249428E+02  0.42414894341E+02  0.48724414487E+02  0.25000952214E+00 0.  0.
        -13    1    4    4    0    0 -0.40707159172E+01  0.42975581467E+01 -0.96986400322E+01  0.11362850768E+02  0.10500000000E+00 0.  1.
         13    1    4    4    0    0 -0.11277324347E+02  0.11754857354E+02 -0.26537288843E+02  0.31138295393E+02  0.10500000000E+00 0. -1.
    3000001    1    5    5    0    0  0.46737573954E+01 -0.94867007498E+01  0.87707055200E+01  0.13775586181E+02  0.10000000000E+01 0.  1.
        -13    1    6    6    0    0  0.48887189573E+01 -0.67654400292E+01  0.14778035325E+02  0.16972687027E+02  0.10500000000E+00 0. -1.
         13    1    6    6    0    0  0.92851609280E+01 -0.12575809399E+02  0.27636859016E+02  0.31751727461E+02  0.10500000000E+00 0.  1.
</event>
<event>
11    0  0.3462209E-009  0.9118800E+02  0.7816531E-02  0.1126479E+00
         25   -1    0    0    0    0  0.00000000000E+00  0.00000000000E+00  0.99999998245E-14  0.12500000000E+03  0.12500000000E+03 0.  0.
    3000001    1    3    3    0    0  0.26708540545E+02  0.48723937031E+02  0.19023437978E+02  0.58738908488E+02  0.10000000000E+01 0. -1.
    1000022    2    1    0    0    0  0.29767668877E+02  0.50807632933E+02  0.18404357961E+02  0.62500000464E+02  0.99999995671E+01 0.  0.
    3000022    2    3    3    0    0  0.30591283324E+01  0.20836959021E+01 -0.61908001710E+00  0.37610919758E+01  0.24999603178E+00 0.  0.
    1000022    2    1    0    0    0 -0.29767668877E+02 -0.50807632933E+02 -0.18404357961E+02  0.62499999536E+02  0.99999937697E+01 0.  0.
    3000022    2    5    5    0    0 -0.96878366363E+00 -0.81247444646E+01 -0.17163315186E+01  0.83641058600E+01  0.24991709276E+00 0.  0.
        -13    1    4    4    0    0  0.12369764792E+01  0.90570238812E+00 -0.21837896001E+00  0.15521346579E+01  0.10500000000E+00 0.  1.
         13    1    4    4    0    0  0.18221518532E+01  0.11779935140E+01 -0.40070105709E+00  0.22089573179E+01  0.10500000000E+00 0. -1.
    3000001    1    5    5    0    0 -0.28798885213E+02 -0.42682888469E+02 -0.16688026443E+02  0.54135893676E+02  0.10000000000E+01 0. -1.
        -13    1    6    6    0    0 -0.73573929921E+00 -0.61992418334E+01 -0.13256414113E+01  0.63828098653E+01  0.10500000000E+00 0.  1.
         13    1    6    6    0    0 -0.23304436442E+00 -0.19255026312E+01 -0.39069010733E+00  0.19812959947E+01  0.10500000000E+00 0. -1.
</event>
<event>
11    0  0.3462209E-009  0.9118800E+02  0.7816531E-02  0.1126479E+00
         25   -1    0    0    0    0  0.00000000000E+00  0.00000000000E+00  0.99999998245E-14  0.12500000000E+03  0.12500000000E+03 0.  0.
    3000001    1    3    3    0    0  0.63974839311E+01 -0.29113110466E+01  0.54312456601E+01  0.89387897436E+01  0.10000000000E+01 0.  1.
    1000022    2    1    0    0    0  0.42815609266E+02 -0.38205387045E+02  0.22658814970E+02  0.62500000514E+02  0.10000008616E+02 0.  0.
    3000022    2    3    3    0    0  0.36418125335E+02 -0.35294075999E+02  0.17227569310E+02  0.53561210770E+02  0.25000275463E+00 0.  0.
    1000022    2    1    0    0    0 -0.42815609266E+02  0.38205387045E+02 -0.22658814970E+02  0.62499999486E+02  0.10000002191E+02 0.  0.
    3000022    2    5    5    0    0 -0.33024679353E+02  0.32500566753E+02 -0.14681032680E+02  0.48605673544E+02  0.24998888089E+00 0.  0.
        -13    1    4    4    0    0  0.15266115012E+02 -0.14873689890E+02  0.72737412044E+01  0.22521084668E+02  0.10500000000E+00 0. -1.
         13    1    4    4    0    0  0.21152010322E+02 -0.20420386109E+02  0.99538281056E+01  0.31040126103E+02  0.10500000000E+00 0.  1.
    3000001    1    5    5    0    0 -0.97909299129E+01  0.57048202917E+01 -0.79777822898E+01  0.13894325942E+02  0.10000000000E+01 0. -1.
        -13    1    6    6    0    0 -0.11168220401E+02  0.10920083309E+02 -0.49697582519E+01  0.16391671314E+02  0.10500000000E+00 0.  1.
         13    1    6    6    0    0 -0.21856458952E+02  0.21580483444E+02 -0.97112744285E+01  0.32214002230E+02  0.10500000000E+00 0. -1.
</event>
<event>
11    0  0.3462209E-009  0.9118800E+02  0.7816531E-02  0.1126479E+00
         25   -1    0    0    0    0  0.00000000000E+00  0.00000000000E+00  0.99999998245E-14  0.12500000000E+03  0.12500000000E+03 0.  0.
    3000001    1    3    3    0    0  0.54048517277E+00  0.26553683898E+01  0.10419503109E+02  0.10812453493E+02  0.10000000000E+01 0. -1.
    1000022    2    1    0    0    0 -0.23502421340E+01  0.33892213921E+02  0.51498002166E+02  0.62499999461E+02  0.99999951513E+01 0.  0.
    3000022    2    3    3    0    0 -0.28907273067E+01  0.31236845531E+02  0.41078499057E+02  0.51687545968E+02  0.25000064142E+00 0.  0.
    1000022    2    1    0    0    0  0.23502421340E+01 -0.33892213921E+02 -0.51498002166E+02  0.62500000539E+02  0.10000001885E+02 0.  0.
    3000022    2    5    5    0    0  0.40053461968E+01 -0.22975765620E+02 -0.27458186922E+02  0.36026977857E+02  0.25000088597E+00 0.  0.
        -13    1    4    4    0    0 -0.83393659540E+00  0.90058673812E+01  0.11913806632E+02  0.14958305753E+02  0.10500000000E+00 0. -1.
         13    1    4    4    0    0 -0.20567907113E+01  0.22230978150E+02  0.29164692425E+02  0.36729240215E+02  0.10500000000E+00 0.  1.
    3000001    1    5    5    0    0 -0.16551040628E+01 -0.10916448300E+02 -0.24039815244E+02  0.26473022682E+02  0.10000000000E+01 0.  1.
        -13    1    6    6    0    0  0.24402124362E+01 -0.13798848080E+02 -0.16415897832E+02  0.21583687630E+02  0.10500000000E+00 0.  1.
         13    1    6    6    0    0  0.15651337606E+01 -0.91769175401E+01 -0.11042289090E+02  0.14443290227E+02  0.10500000000E+00 0. -1.
</event>
<event>
11    0  0.3462209E-009  0.9118800E+02  0.7816531E-02  0.1126479E+00
         25   -1    0    0    0    0  0.00000000000E+00  0.00000000000E+00  0.99999998245E-14  0.12500000000E+03  0.12500000000E+03 0.  0.
    3000001    1    3    3    0    0 -0.20644982582E+01  0.48415198849E+01 -0.16762852621E+01  0.56135906632E+01  0.10000000000E+01 0. -1.
    1000022    2    1    0    0    0 -0.14443361831E+02  0.59207317304E+02  0.95986390633E+01  0.62499991643E+02  0.99998980098E+01 0.  0.
    3000022    2    3    3    0    0 -0.12378863573E+02  0.54365797419E+02  0.11274924325E+02  0.56886400980E+02  0.25001107803E+00 0.  0.
    1000022    2    1    0    0    0  0.14443361831E+02 -0.59207317304E+02 -0.95986390633E+01  0.62500008357E+02  0.10000002475E+02 0.  0.
    3000022    2    5    5    0    0  0.12093382691E+02 -0.52697241380E+02 -0.53840508931E+01  0.54335068435E+02  0.25000765221E+00 0.  0.
        -13    1    4    4    0    0 -0.81730300603E+01  0.35649730275E+02  0.74073920602E+01  0.37317317310E+02  0.10500000000E+00 0. -1.
         13    1    4    4    0    0 -0.42058335126E+01  0.18716067144E+02  0.38675322652E+01  0.19569083670E+02  0.10500000000E+00 0.  1.
    3000001    1    5    5    0    0  0.23499791406E+01 -0.65100759236E+01 -0.42145881702E+01  0.81649399224E+01  0.10000000000E+01 0. -1.
        -13    1    6    6    0    0  0.38576502536E+01 -0.17039670539E+02 -0.17413629000E+01  0.17557767720E+02  0.10500000000E+00 0. -1.
         13    1    6    6    0    0  0.82357324370E+01 -0.35657570841E+02 -0.36426879931E+01  0.36777300715E+02  0.10500000000E+00 0.  1.
</event>
<event>
11    0  0.3462209E-009  0.9118800E+02  0.7816531E-02  0.1126479E+00
         25   -1    0    0    0    0  0.00000000000E+00  0.00000000000E+00  0.99999998245E-14  0.12500000000E+03  0.12500000000E+03 0.  0.
    3000001    1    3    3    0    0  0.99307009819E+00  0.13829588048E+01 -0.14662513219E+00  0.19799652030E+01  0.10000000000E+01 0. -1.
    1000022    2    1    0    0    0  0.18171041110E+02  0.44089066330E+02  0.39143549356E+02  0.62500000046E+02  0.10000002236E+02 0.  0.
    3000022    2    3    3    0    0  0.17177971012E+02  0.42706107525E+02  0.39290174488E+02  0.60520034843E+02  0.24999613786E+00 0.  0.
    1000022    2    1    0    0    0 -0.18171041110E+02 -0.44089066330E+02 -0.39143549356E+02  0.62499999954E+02  0.10000001660E+02 0.  0.
    3000022    2    5    5    0    0 -0.12723105521E+01 -0.56624596515E+01 -0.12554586549E+01  0.59431381929E+01  0.24998339880E+00 0.  0.
        -13    1    4    4    0    0  0.11386276987E+02  0.28429721116E+02  0.26102482532E+02  0.40239867864E+02  0.10500000000E+00 0. -1.
         13    1    4    4    0    0  0.57916940251E+01  0.14276386409E+02  0.13187691956E+02  0.20280166979E+02  0.10500000000E+00 0.  1.
    3000001    1    5    5    0    0 -0.16898730558E+02 -0.38426606678E+02 -0.37888090701E+02  0.56556861761E+02  0.10000000000E+01 0. -1.
        -13    1    6    6    0    0 -0.29079289511E+00 -0.13097164848E+01 -0.28179055292E+00  0.13748995214E+01  0.10500000000E+00 0. -1.
         13    1    6    6    0    0 -0.98151765703E+00 -0.43527431667E+01 -0.97366810194E+00  0.45682386714E+01  0.10500000000E+00 0.  1.
</event>
<event>
11    0  0.3462209E-009  0.9118800E+02  0.7816531E-02  0.1126479E+00
         25   -1    0    0    0    0  0.00000000000E+00  0.00000000000E+00  0.99999998245E-14  0.12500000000E+03  0.12500000000E+03 0.  0.
    3000001    1    3    3    0    0  0.39752052026E+02  0.11253836560E+02 -0.18831967384E+02  0.45414947684E+02  0.10000000000E+01 0. -1.
    1000022    2    1    0    0    0  0.56613499481E+02  0.13413752428E+02 -0.20523960008E+02  0.62499999041E+02  0.99999934041E+01 0.  0.
    3000022    2    3    3    0    0  0.16861447455E+02  0.21599158681E+01 -0.16919926240E+01  0.17085051357E+02  0.24998802099E+00 0.  0.
    1000022    2    1    0    0    0 -0.56613499481E+02 -0.13413752428E+02  0.20523960008E+02  0.62500000959E+02  0.10000005386E+02 0.  0.
    3000022    2    5    5    0    0 -0.16347903038E+02 -0.25101153882E+01  0.10475430459E+02  0.19579370677E+02  0.24999966218E+00 0.  0.
        -13    1    4    4    0    0  0.10838102636E+02  0.14020165383E+01 -0.10313865755E+01  0.10977472495E+02  0.10500000000E+00 0. -1.
         13    1    4    4    0    0  0.60233448192E+01  0.75789932975E+00 -0.66060604847E+00  0.61075788621E+01  0.10500000000E+00 0.  1.
    3000001    1    5    5    0    0 -0.40265596443E+02 -0.10903637039E+02  0.10048529549E+02  0.42920630281E+02  0.10000000000E+01 0. -1.
        -13    1    6    6    0    0 -0.90130473897E+01 -0.14147692450E+01  0.57081872022E+01  0.10762482121E+02  0.10500000000E+00 0. -1.
         13    1    6    6    0    0 -0.73348556482E+01 -0.10953461432E+01  0.47672432564E+01  0.88168885566E+01  0.10500000000E+00 0.  1.
</event>
<event>
11    0  0.3462209E-009  0.9118800E+02  0.7816531E-02  0.1126479E+00
         25   -1    0    0    0    0  0.00000000000E+00  0.00000000000E+00  0.99999998245E-14  0.12500000000E+03  0.12500000000E+03 0.  0.
    3000001    1    3    3    0    0  0.16995615293E+02 -0.20038986960E+01 -0.10503110746E+02  0.20104275280E+02  0.10000000000E+01 0. -1.
    1000022    2    1    0    0    0  0.44963514919E+02 -0.16353529312E+02 -0.38949895958E+02  0.62499999080E+02  0.99999947524E+01 0.  0.
    3000022    2    3    3    0    0  0.27967899626E+02 -0.14349630616E+02 -0.28446785211E+02  0.42395723800E+02  0.24999876439E+00 0.  0.
    1000022    2    1    0    0    0 -0.44963514919E+02  0.16353529312E+02  0.38949895958E+02  0.62500000920E+02  0.10000006257E+02 0.  0.
    3000022    2    5    5    0    0 -0.10217409131E+02  0.56782398234E+01  0.14744530221E+02  0.18817585654E+02  0.25000312519E+00 0.  0.
        -13    1    4    4    0    0  0.71711817918E+01 -0.36474551571E+01 -0.72697958718E+01  0.10843926154E+02  0.10500000000E+00 0.  1.
         13    1    4    4    0    0  0.20796717834E+02 -0.10702175459E+02 -0.21176989339E+02  0.31551797646E+02  0.10500000000E+00 0. -1.
    3000001    1    5    5    0    0 -0.34746105788E+02  0.10675289488E+02  0.24205365737E+02  0.43682415266E+02  0.10000000000E+01 0.  1.
        -13    1    6    6    0    0 -0.44920385363E+01  0.25591426037E+01  0.64612837309E+01  0.82756772248E+01  0.10500000000E+00 0. -1.
         13    1    6    6    0    0 -0.57253705948E+01  0.31190972197E+01  0.82832464901E+01  0.10541908429E+02  0.10500000000E+00 0.  1.
</event>
<event>
11    0  0.3462209E-009  0.9118800E+02  0.7816531E-02  0.1126479E+00
         25   -1    0    0    0    0  0.00000000000E+00  0.00000000000E+00  0.99999998245E-14  0.12500000000E+03  0.12500000000E+03 0.  0.
    3000001    1    3    3    0    0 -0.78807349654E+00 -0.85977036045E+01  0.43258054068E+00  0.87022234533E+01  0.10000000000E+01 0.  1.
    1000022    2    1    0    0    0  0.12893766332E+02 -0.59165691911E+02 -0.11807684513E+02  0.62500000082E+02  0.10000014357E+02 0.  0.
    3000022    2    3    3    0    0  0.13681839829E+02 -0.50567988306E+02 -0.12240265054E+02  0.53797776628E+02  0.24999827333E+00 0.  0.
    1000022    2    1    0    0    0 -0.12893766332E+02  0.59165691911E+02  0.11807684513E+02  0.62499999918E+02  0.10000013336E+02 0.  0.
    3000022    2    5    5    0    0 -0.61951253083E+01  0.31454551625E+02  0.11222226823E+02  0.33967179374E+02  0.25000849368E+00 0.  0.
        -13    1    4    4    0    0  0.46091456655E+01 -0.16996169947E+02 -0.40602036532E+01  0.18072362749E+02  0.10500000000E+00 0. -1.
         13    1    4    4    0    0  0.90726941634E+01 -0.33571818359E+02 -0.81800614003E+01  0.35725413879E+02  0.10500000000E+00 0.  1.
    3000001    1    5    5    0    0 -0.66986410241E+01  0.27711140286E+02  0.58545769003E+00  0.28532820544E+02  0.10000000000E+01 0.  1.
        -13    1    6    6    0    0 -0.15888658015E+01  0.81036346184E+01  0.29222656815E+01  0.87603681587E+01  0.10500000000E+00 0. -1.
         13    1    6    6    0    0 -0.46062595068E+01  0.23350917006E+02  0.82999611413E+01  0.25206811215E+02  0.10500000000E+00 0.  1.
</event>
<event>
11    0  0.3462209E-009  0.9118800E+02  0.7816531E-02  0.1126479E+00
         25   -1    0    0    0    0  0.00000000000E+00  0.00000000000E+00  0.99999998245E-14  0.12500000000E+03  0.12500000000E+03 0.  0.
    3000001    1    3    3    0    0  0.42968309130E+01 -0.12496360368E+02  0.85230313054E+00  0.13279615919E+02  0.10000000000E+01 0. -1.
    1000022    2    1    0    0    0  0.88618151846E+01 -0.60074822704E+02 -0.10896506033E+02  0.62499999703E+02  0.10000001395E+02 0.  0.
    3000022    2    3    3    0    0  0.45649842716E+01 -0.47578462336E+02 -0.11748809164E+02  0.49220383784E+02  0.25000680871E+00 0.  0.
    1000022    2    1    0    0    0 -0.88618151846E+01  0.60074822704E+02  0.10896506033E+02  0.62500000297E+02  0.10000005103E+02 0.  0.
    3000022    2    5    5    0    0 -0.43632046964E+00  0.16707408147E+02  0.70578730642E+01  0.18143978049E+02  0.25000941987E+00 0.  0.
        -13    1    4    4    0    0  0.31965518856E+01 -0.33729468742E+02 -0.83097154704E+01  0.34884916536E+02  0.10500000000E+00 0.  1.
         13    1    4    4    0    0  0.13684323860E+01 -0.13848993594E+02 -0.34390936932E+01  0.14335467248E+02  0.10500000000E+00 0. -1.
    3000001    1    5    5    0    0 -0.84254947150E+01  0.43367414557E+02  0.38386329688E+01  0.44356022247E+02  0.10000000000E+01 0.  1.
        -13    1    6    6    0    0 -0.23684260694E+00  0.10495475506E+02  0.44838736910E+01  0.11416096040E+02  0.10500000000E+00 0.  1.
         13    1    6    6    0    0 -0.19947786271E+00  0.62119326417E+01  0.25739993733E+01  0.67278820097E+01  0.10500000000E+00 0. -1.
</event>
<event>
11    0  0.3462209E-009  0.9118800E+02  0.7816531E-02  0.1126479E+00
         25   -1    0    0    0    0  0.00000000000E+00  0.00000000000E+00  0.99999998245E-14  0.12500000000E+03  0.12500000000E+03 0.  0.
    3000001    1    3    3    0    0 -0.14588447889E+02  0.13021880061E+02  0.10169082836E+02  0.22063599386E+02  0.10000000000E+01 0. -1.
    1000022    2    1    0    0    0 -0.33390395421E+02  0.46228093028E+02  0.23543467652E+02  0.62499999830E+02  0.10000000909E+02 0.  0.
    3000022    2    3    3    0    0 -0.18801947533E+02  0.33206212968E+02  0.13374384816E+02  0.40436400444E+02  0.25000198544E+00 0.  0.
    1000022    2    1    0    0    0  0.33390395421E+02 -0.46228093028E+02 -0.23543467652E+02  0.62500000170E+02  0.10000003039E+02 0.  0.
    3000022    2    5    5    0    0  0.14183385003E+02 -0.16571562413E+02 -0.42288236298E+01  0.22220048196E+02  0.25000318281E+00 0.  0.
        -13    1    4    4    0    0 -0.12878574223E+02  0.22669158907E+02  0.91729867779E+01  0.27638797930E+02  0.10500000000E+00 0.  1.
         13    1    4    4    0    0 -0.59233733094E+01  0.10537054060E+02  0.42013980381E+01  0.12797602514E+02  0.10500000000E+00 0. -1.
    3000001    1    5    5    0    0  0.19207010419E+02 -0.29656530615E+02 -0.19314644022E+02  0.40279951974E+02  0.10000000000E+01 0.  1.
        -13    1    6    6    0    0  0.68424803515E+01 -0.79113607086E+01 -0.20691611930E+01  0.10663096111E+02  0.10500000000E+00 0. -1.
         13    1    6    6    0    0  0.73409046512E+01 -0.86602017045E+01 -0.21596624367E+01  0.11556952085E+02  0.10500000000E+00 0.  1.
</event>
<event>
11    0  0.3462209E-009  0.9118800E+02  0.7816531E-02  0.1126479E+00
         25   -1    0    0    0    0  0.00000000000E+00  0.00000000000E+00  0.99999998245E-14  0.12500000000E+03  0.12500000000E+03 0.  0.
    3000001    1    3    3    0    0  0.33139769508E+02  0.27450902871E+02  0.44455993411E+01  0.43273083377E+02  0.10000000000E+01 0.  1.
    1000022    2    1    0    0    0  0.47990867875E+02  0.38769951586E+02 -0.12995811820E+00  0.62499996516E+02  0.10000006501E+02 0.  0.
    3000022    2    3    3    0    0  0.14851098367E+02  0.11319048715E+02 -0.45755574593E+01  0.19226913139E+02  0.24995252768E+00 0.  0.
    1000022    2    1    0    0    0 -0.47990867875E+02 -0.38769951586E+02  0.12995811820E+00  0.62500003484E+02  0.10000050051E+02 0.  0.
    3000022    2    5    5    0    0 -0.30001894781E+02 -0.26768596713E+02  0.43542411787E+01  0.40443706444E+02  0.25002842540E+00 0.  0.
        -13    1    4    4    0    0  0.44315824864E+01  0.33215415171E+01 -0.13525401746E+01  0.57019252281E+01  0.10500000000E+00 0.  1.
         13    1    4    4    0    0  0.10419515881E+02  0.79975071976E+01 -0.32230172847E+01  0.13524987911E+02  0.10500000000E+00 0. -1.
    3000001    1    5    5    0    0 -0.17988973094E+02 -0.12001354872E+02 -0.42242830605E+01  0.22056297040E+02  0.10000000000E+01 0. -1.
        -13    1    6    6    0    0 -0.14726242146E+02 -0.13069843567E+02  0.20881929638E+01  0.19800368518E+02  0.10500000000E+00 0.  1.
         13    1    6    6    0    0 -0.15275652635E+02 -0.13698753147E+02  0.22660482149E+01  0.20643337926E+02  0.10500000000E+00 0. -1.
</event>
<event>
11    0  0.3462209E-009  0.9118800E+02  0.7816531E-02  0.1126479E+00
         25   -1    0    0    0    0  0.00000000000E+00  0.00000000000E+00  0.99999998245E-14  0.12500000000E+03  0.12500000000E+03 0.  0.
    3000001    1    3    3    0    0 -0.40242801690E+00  0.45688951907E+00  0.80976496768E+00  0.14235222669E+01  0.10000000000E+01 0.  1.
    1000022    2    1    0    0    0 -0.19942808533E+02  0.58184513723E+02  0.48058740344E+01  0.62500002640E+02  0.10000032770E+02 0.  0.
    3000022    2    3    3    0    0 -0.19540380516E+02  0.57727624204E+02  0.39961090668E+01  0.61076480373E+02  0.25000030595E+00 0.  0.
    1000022    2    1    0    0    0  0.19942808533E+02 -0.58184513723E+02 -0.48058740344E+01  0.62499997360E+02  0.99999997674E+01 0.  0.
    3000022    2    5    5    0    0  0.15114107716E+02 -0.51307357378E+02 -0.17948032507E+01  0.53517894141E+02  0.25000271242E+00 0.  0.
        -13    1    4    4    0    0 -0.60953982035E+01  0.18150478040E+02  0.12369763127E+01  0.19186841004E+02  0.10500000000E+00 0.  1.
         13    1    4    4    0    0 -0.13444982313E+02  0.39577146165E+02  0.27591327541E+01  0.41889639369E+02  0.10500000000E+00 0. -1.
    3000001    1    5    5    0    0  0.48287008172E+01 -0.68771563450E+01 -0.30110707837E+01  0.89821032192E+01  0.10000000000E+01 0. -1.
        -13    1    6    6    0    0  0.64565989342E+01 -0.21779201292E+02 -0.71019314222E+00  0.22727443280E+02  0.10500000000E+00 0. -1.
         13    1    6    6    0    0  0.86575087816E+01 -0.29528156086E+02 -0.10846101085E+01  0.30790450861E+02  0.10500000000E+00 0.  1.
</event>
<event>
11    0  0.3462209E-009  0.9118800E+02  0.7816531E-02  0.1126479E+00
         25   -1    0    0    0    0  0.00000000000E+00  0.00000000000E+00  0.99999998245E-14  0.12500000000E+03  0.12500000000E+03 0.  0.
    3000001    1    3    3    0    0  0.17743430007E+01 -0.18859482467E+02 -0.52903588946E+02  0.56201584456E+02  0.10000000000E+01 0.  1.
    1000022    2    1    0    0    0  0.13455689683E+01 -0.23645497251E+02 -0.56967795230E+02  0.62500002476E+02  0.10000026002E+02 0.  0.
    3000022    2    3    3    0    0 -0.42877403242E+00 -0.47860147839E+01 -0.40642062844E+01  0.62984180203E+01  0.25002430506E+00 0.  0.
    1000022    2    1    0    0    0 -0.13455689683E+01  0.23645497251E+02  0.56967795230E+02  0.62499997524E+02  0.99999950487E+01 0.  0.
    3000022    2    5    5    0    0 -0.26030368396E+01  0.23243005942E+02  0.48178209928E+02  0.53555723686E+02  0.25000322462E+00 0.  0.
        -13    1    4    4    0    0 -0.12798813713E+00 -0.21155210511E+01 -0.17596619549E+01  0.27566728998E+01  0.10500000000E+00 0.  1.
         13    1    4    4    0    0 -0.30078589529E+00 -0.26704937328E+01 -0.23045443295E+01  0.35417451205E+01  0.10500000000E+00 0. -1.
    3000001    1    5    5    0    0  0.12574678713E+01  0.40249130818E+00  0.87895853021E+01  0.89442738377E+01  0.10000000000E+01 0.  1.
        -13    1    6    6    0    0 -0.19348264988E+01  0.16990612777E+02  0.35188129375E+02  0.39123393897E+02  0.10500000000E+00 0. -1.
         13    1    6    6    0    0 -0.66821034079E+00  0.62523931657E+01  0.12990080554E+02  0.14432329789E+02  0.10500000000E+00 0.  1.
</event>
<event>
11    0  0.3462209E-009  0.9118800E+02  0.7816531E-02  0.1126479E+00
         25   -1    0    0    0    0  0.00000000000E+00  0.00000000000E+00  0.99999998245E-14  0.12500000000E+03  0.12500000000E+03 0.  0.
    3000001    1    3    3    0    0 -0.39641227852E+01  0.17404223301E+02 -0.42544935029E+02  0.46148594288E+02  0.10000000000E+01 0. -1.
    1000022    2    1    0    0    0 -0.10090861694E+02  0.20028722493E+02 -0.57474129045E+02  0.62499993680E+02  0.99999243014E+01 0.  0.
    3000022    2    3    3    0    0 -0.61267389086E+01  0.26244991917E+01 -0.14929194016E+02  0.16351399391E+02  0.25000483500E+00 0.  0.
    1000022    2    1    0    0    0  0.10090861694E+02 -0.20028722493E+02  0.57474129045E+02  0.62500006320E+02  0.10000003307E+02 0.  0.
    3000022    2    5    5    0    0  0.69213932524E+01 -0.38018974259E+01  0.16120449756E+02  0.17952479199E+02  0.25000087122E+00 0.  0.
        -13    1    4    4    0    0 -0.26862788375E+01  0.12178656172E+01 -0.65469325047E+01  0.71814093934E+01  0.10500000000E+00 0.  1.
         13    1    4    4    0    0 -0.34404600711E+01  0.14066335745E+01 -0.83822615116E+01  0.91699899980E+01  0.10500000000E+00 0. -1.
    3000001    1    5    5    0    0  0.31694684414E+01 -0.16226825067E+02  0.41353679289E+02  0.44547527122E+02  0.10000000000E+01 0.  1.
        -13    1    6    6    0    0  0.43095507187E+01 -0.23747264954E+01  0.10179196027E+02  0.11306573755E+02  0.10500000000E+00 0. -1.
         13    1    6    6    0    0  0.26118425337E+01 -0.14271709305E+01  0.59412537292E+01  0.66459054433E+01  0.10500000000E+00 0.  1.
</event>
<event>
11    0  0.3462209E-009  0.9118800E+02  0.7816531E-02  0.1126479E+00
         25   -1    0    0    0    0  0.00000000000E+00  0.00000000000E+00  0.99999998245E-14  0.12500000000E+03  0.12500000000E+03 0.  0.
    3000001    1    3    3    0    0  0.13387395418E+02  0.12034573564E+02  0.11930986684E+02  0.21619476409E+02  0.10000000000E+01 0.  1.
    1000022    2    1    0    0    0  0.28090098507E+02  0.43189203483E+02  0.33939491221E+02  0.62499999860E+02  0.99999993266E+01 0.  0.
    3000022    2    3    3    0    0  0.14702703089E+02  0.31154629919E+02  0.22008504538E+02  0.40880523451E+02  0.24996430707E+00 0.  0.
    1000022    2    1    0    0    0 -0.28090098507E+02 -0.43189203483E+02 -0.33939491221E+02  0.62500000140E+02  0.10000001078E+02 0.  0.
    3000022    2    5    5    0    0 -0.11588768983E+02 -0.97053715262E+01 -0.10595792869E+02  0.18461504125E+02  0.25001002906E+00 0.  0.
        -13    1    4    4    0    0  0.98186963966E+01  0.20907251568E+02  0.14791698470E+02  0.27428549646E+02  0.10500000000E+00 0. -1.
         13    1    4    4    0    0  0.48840066921E+01  0.10247378351E+02  0.72168060674E+01  0.13451973805E+02  0.10500000000E+00 0.  1.
    3000001    1    5    5    0    0 -0.16501329523E+02 -0.33483831956E+02 -0.23343698353E+02  0.44038496016E+02  0.10000000000E+01 0. -1.
        -13    1    6    6    0    0 -0.80018091339E+01 -0.66385255531E+01 -0.72766786505E+01  0.12690943547E+02  0.10500000000E+00 0. -1.
         13    1    6    6    0    0 -0.35869598495E+01 -0.30668459731E+01 -0.33191142181E+01  0.57705605773E+01  0.10500000000E+00 0.  1.
</event>
<event>
11    0  0.3462209E-009  0.9118800E+02  0.7816531E-02  0.1126479E+00
         25   -1    0    0    0    0  0.00000000000E+00  0.00000000000E+00  0.99999998245E-14  0.12500000000E+03  0.12500000000E+03 0.  0.
    3000001    1    3    3    0    0 -0.23335460019E+02 -0.14998474634E+02  0.23671250758E+02  0.36480488595E+02  0.10000000000E+01 0. -1.
    1000022    2    1    0    0    0 -0.37480083746E+02 -0.32617044278E+02  0.36573507195E+02  0.62500002277E+02  0.10000030052E+02 0.  0.
    3000022    2    3    3    0    0 -0.14144623727E+02 -0.17618569644E+02  0.12902256436E+02  0.26019513682E+02  0.24998886053E+00 0.  0.
    1000022    2    1    0    0    0  0.37480083746E+02  0.32617044278E+02 -0.36573507195E+02  0.62499997723E+02  0.10000001595E+02 0.  0.
    3000022    2    5    5    0    0  0.14928677039E+02  0.86157695369E+01 -0.85333513865E+01  0.19234798413E+02  0.25000249301E+00 0.  0.
        -13    1    4    4    0    0 -0.64586192663E+01 -0.81436915948E+01  0.59055736946E+01  0.11954927908E+02  0.10500000000E+00 0.  1.
         13    1    4    4    0    0 -0.76860044602E+01 -0.94748780489E+01  0.69966827417E+01  0.14064585774E+02  0.10500000000E+00 0. -1.
    3000001    1    5    5    0    0  0.22551406707E+02  0.24001274741E+02 -0.28040155808E+02  0.43265199311E+02  0.10000000000E+01 0. -1.
        -13    1    6    6    0    0  0.72016620992E+01  0.42275155955E+01 -0.41653322133E+01  0.93325689147E+01  0.10500000000E+00 0.  1.
         13    1    6    6    0    0  0.77270149398E+01  0.43882539414E+01 -0.43680191732E+01  0.99022294980E+01  0.10500000000E+00 0. -1.
</event>
<event>
11    0  0.3462209E-009  0.9118800E+02  0.7816531E-02  0.1126479E+00
         25   -1    0    0    0    0  0.00000000000E+00  0.00000000000E+00  0.99999998245E-14  0.12500000000E+03  0.12500000000E+03 0.  0.
    3000001    1    3    3    0    0  0.53079877728E+01 -0.23986225795E+01  0.65819091498E+01  0.88458833663E+01  0.10000000000E+01 0.  1.
    1000022    2    1    0    0    0  0.41704093568E+02  0.63633892933E+01  0.45016955953E+02  0.62500004275E+02  0.10000003379E+02 0.  0.
    3000022    2    3    3    0    0  0.36396105795E+02  0.87620118728E+01  0.38435046803E+02  0.53654120909E+02  0.24999737324E+00 0.  0.
    1000022    2    1    0    0    0 -0.41704093568E+02 -0.63633892933E+01 -0.45016955953E+02  0.62499995725E+02  0.99999499363E+01 0.  0.
    3000022    2    5    5    0    0 -0.41035938699E+02 -0.67860383556E+01 -0.44922587708E+02  0.61221727942E+02  0.25000880829E+00 0.  0.
        -13    1    4    4    0    0  0.87243521376E+01  0.20946045428E+01  0.92383480986E+01  0.12878656335E+02  0.10500000000E+00 0.  1.
         13    1    4    4    0    0  0.27671753657E+02  0.66674073300E+01  0.29196698704E+02  0.40775464574E+02  0.10500000000E+00 0. -1.
    3000001    1    5    5    0    0 -0.66815486873E+00  0.42264906225E+00 -0.94368245300E-01  0.12782677826E+01  0.10000000000E+01 0.  1.
        -13    1    6    6    0    0 -0.10846982689E+02 -0.18082218504E+01 -0.11922092469E+02  0.16219556515E+02  0.10500000000E+00 0.  1.
         13    1    6    6    0    0 -0.30188956010E+02 -0.49778165052E+01 -0.33000495239E+02  0.45002171427E+02  0.10500000000E+00 0. -1.
</event>
<event>
11    0  0.3462209E-009  0.9118800E+02  0.7816531E-02  0.1126479E+00
         25   -1    0    0    0    0  0.00000000000E+00  0.00000000000E+00  0.99999998245E-14  0.12500000000E+03  0.12500000000E+03 0.  0.
    3000001    1    3    3    0    0  0.23761721820E+02 -0.35248648986E+02 -0.86239359699E+01  0.43387313247E+02  0.10000000000E+01 0. -1.
    1000022    2    1    0    0    0  0.36347765625E+02 -0.46785800501E+02 -0.17209848275E+02  0.62499998796E+02  0.99999888719E+01 0.  0.
    3000022    2    3    3    0    0  0.12586043805E+02 -0.11537151515E+02 -0.85859123047E+01  0.19112685549E+02  0.24999010814E+00 0.  0.
    1000022    2    1    0    0    0 -0.36347765625E+02  0.46785800501E+02  0.17209848275E+02  0.62500001204E+02  0.10000003921E+02 0.  0.
    3000022    2    5    5    0    0 -0.10572067674E+02  0.17172878055E+02  0.15724665562E+01  0.20228976995E+02  0.25000721909E+00 0.  0.
        -13    1    4    4    0    0  0.57739433056E+01 -0.52042708306E+01 -0.38923009841E+01  0.86938994775E+01  0.10500000000E+00 0.  1.
         13    1    4    4    0    0  0.68121004994E+01 -0.63328806847E+01 -0.46936113206E+01  0.10418786072E+02  0.10500000000E+00 0. -1.
    3000001    1    5    5    0    0 -0.25775697950E+02  0.29612922447E+02  0.15637381718E+02  0.42271024209E+02  0.10000000000E+01 0. -1.
        -13    1    6    6    0    0 -0.31435207853E+01  0.51889153866E+01  0.48871842145E+00  0.60873998154E+01  0.10500000000E+00 0.  1.
         13    1    6    6    0    0 -0.74285468890E+01  0.11983962668E+02  0.10837481347E+01  0.14141577180E+02  0.10500000000E+00 0. -1.
</event>
<event>
11    0  0.3462209E-009  0.9118800E+02  0.7816531E-02  0.1126479E+00
         25   -1    0    0    0    0  0.00000000000E+00  0.00000000000E+00  0.99999998245E-14  0.12500000000E+03  0.12500000000E+03 0.  0.
    3000001    1    3    3    0    0  0.21644471948E+02  0.44540127080E+02 -0.29250815528E+02  0.57523180504E+02  0.10000000000E+01 0.  1.
    1000022    2    1    0    0    0  0.25453826370E+02  0.47698655717E+02 -0.29718531403E+02  0.62500000718E+02  0.99999973435E+01 0.  0.
    3000022    2    3    3    0    0  0.38093544218E+01  0.31585286378E+01 -0.46771587434E+00  0.49768202141E+01  0.24999407577E+00 0.  0.
    1000022    2    1    0    0    0 -0.25453826370E+02 -0.47698655717E+02  0.29718531403E+02  0.62499999282E+02  0.99999883726E+01 0.  0.
    3000022    2    5    5    0    0  0.27942754526E+00 -0.56085740845E+01  0.35292041100E+01  0.66371655468E+01  0.25000366288E+00 0.  0.
        -13    1    4    4    0    0  0.26598268538E+01  0.22595663132E+01 -0.34499601000E+00  0.35086131253E+01  0.10500000000E+00 0.  1.
         13    1    4    4    0    0  0.11495275680E+01  0.89896232459E+00 -0.12271986434E+00  0.14682070888E+01  0.10500000000E+00 0. -1.
    3000001    1    5    5    0    0 -0.25733253915E+02 -0.42090081633E+02  0.26189327293E+02  0.55862833736E+02  0.10000000000E+01 0.  1.
        -13    1    6    6    0    0  0.18241001109E+00 -0.25072213865E+01  0.16195493021E+01  0.29922228251E+01  0.10500000000E+00 0.  1.
         13    1    6    6    0    0  0.97017534177E-01 -0.31013526979E+01  0.19096548079E+01  0.36449427217E+01  0.10500000000E+00 0. -1.
</event>
<event>
11    0  0.3462209E-009  0.9118800E+02  0.7816531E-02  0.1126479E+00
         25   -1    0    0    0    0  0.00000000000E+00  0.00000000000E+00  0.99999998245E-14  0.12500000000E+03  0.12500000000E+03 0.  0.
    3000001    1    3    3    0    0  0.45310810877E+02 -0.59605030744E+00  0.38139788746E+02  0.59237389746E+02  0.10000000000E+01 0. -1.
    1000022    2    1    0    0    0  0.48318877157E+02  0.62342590682E+00  0.38355542291E+02  0.62500001519E+02  0.10000000792E+02 0.  0.
    3000022    2    3    3    0    0  0.30080662800E+01  0.12194762143E+01  0.21575354512E+00  0.32626117730E+01  0.25000201511E+00 0.  0.
    1000022    2    1    0    0    0 -0.48318877157E+02 -0.62342590682E+00 -0.38355542291E+02  0.62499998481E+02  0.99999818091E+01 0.  0.
    3000022    2    5    5    0    0 -0.19838417238E+02  0.46074236782E+01 -0.15408818741E+02  0.25539877997E+02  0.25004325511E+00 0.  0.
        -13    1    4    4    0    0  0.16602043074E+01  0.73914180035E+00  0.95532801058E-01  0.18228440579E+01  0.10500000000E+00 0.  1.
         13    1    4    4    0    0  0.13478619726E+01  0.48033441391E+00  0.12022074406E+00  0.14397677151E+01  0.10500000000E+00 0. -1.
    3000001    1    5    5    0    0 -0.28480459919E+02 -0.52308495851E+01 -0.22946723550E+02  0.36960120485E+02  0.10000000000E+01 0.  1.
        -13    1    6    6    0    0 -0.10797761172E+02  0.24418877166E+01 -0.83512830414E+01  0.13867567032E+02  0.10500000000E+00 0.  1.
         13    1    6    6    0    0 -0.90406560663E+01  0.21655359616E+01 -0.70575356992E+01  0.11672310965E+02  0.10500000000E+00 0. -1.
</event>
<event>
11    0  0.3462209E-009  0.9118800E+02  0.7816531E-02  0.1126479E+00
         25   -1    0    0    0    0  0.00000000000E+00  0.00000000000E+00  0.99999998245E-14  0.12500000000E+03  0.12500000000E+03 0.  0.
    3000001    1    3    3    0    0 -0.31289814985E+02 -0.37321457195E+02 -0.14297966173E+02  0.50767859180E+02  0.10000000000E+01 0. -1.
    1000022    2    1    0    0    0 -0.38674820690E+02 -0.43047814185E+02 -0.21386770638E+02  0.62499999943E+02  0.99999986527E+01 0.  0.
    3000022    2    3    3    0    0 -0.73850057046E+01 -0.57263569895E+01 -0.70888044657E+01  0.11732140764E+02  0.25000902633E+00 0.  0.
    1000022    2    1    0    0    0  0.38674820690E+02  0.43047814185E+02  0.21386770638E+02  0.62500000057E+02  0.99999993646E+01 0.  0.
    3000022    2    5    5    0    0  0.25109448179E+02  0.21382839652E+02  0.14355877702E+02  0.35970320294E+02  0.24999597932E+00 0.  0.
        -13    1    4    4    0    0 -0.45207880119E+01 -0.35758390224E+01 -0.43395123525E+01  0.72157148932E+01  0.10500000000E+00 0. -1.
         13    1    4    4    0    0 -0.28642176927E+01 -0.21505179671E+01 -0.27492921132E+01  0.45164258703E+01  0.10500000000E+00 0.  1.
    3000001    1    5    5    0    0  0.13565372511E+02  0.21664974533E+02  0.70308929361E+01  0.26529679763E+02  0.10000000000E+01 0.  1.
        -13    1    6    6    0    0  0.64551336934E+01  0.54652446113E+01  0.36627861102E+01  0.92176285860E+01  0.10500000000E+00 0.  1.
         13    1    6    6    0    0  0.18654314486E+02  0.15917595041E+02  0.10693091592E+02  0.26752691708E+02  0.10500000000E+00 0. -1.
</event>
<event>
11    0  0.3462209E-009  0.9118800E+02  0.7816531E-02  0.1126479E+00
         25   -1    0    0    0    0  0.00000000000E+00  0.00000000000E+00  0.99999998245E-14  0.12500000000E+03  0.12500000000E+03 0.  0.
    3000001    1    3    3    0    0 -0.27294774203E+02 -0.22061229764E+02  0.84194802096E+01  0.36105265606E+02  0.10000000000E+01 0.  1.
    1000022    2    1    0    0    0 -0.51551334421E+02 -0.32299041983E+02  0.10270430955E+02  0.62500000570E+02  0.10000006282E+02 0.  0.
    3000022    2    3    3    0    0 -0.24256560219E+02 -0.10237812219E+02  0.18509507454E+01  0.26394734964E+02  0.25000500691E+00 0.  0.
    1000022    2    1    0    0    0  0.51551334421E+02  0.32299041983E+02 -0.10270430955E+02  0.62499999430E+02  0.99999991512E+01 0.  0.
    3000022    2    5    5    0    0  0.42968242862E+02  0.29858633413E+02 -0.11078351904E+02  0.53484579807E+02  0.25002461099E+00 0.  0.
        -13    1    4    4    0    0 -0.10778042843E+02 -0.45328634513E+01  0.75716867409E+00  0.11717396810E+02  0.10500000000E+00 0. -1.
         13    1    4    4    0    0 -0.13478517376E+02 -0.57049487682E+01  0.10937820713E+01  0.14677338155E+02  0.10500000000E+00 0.  1.
    3000001    1    5    5    0    0  0.85830915592E+01  0.24404085704E+01  0.80792094905E+00  0.90154196222E+01  0.10000000000E+01 0.  1.
        -13    1    6    6    0    0  0.27646118996E+02  0.19262360991E+02 -0.70938129369E+01  0.34433699387E+02  0.10500000000E+00 0. -1.
         13    1    6    6    0    0  0.15322123866E+02  0.10596272423E+02 -0.39845389672E+01  0.19050880420E+02  0.10500000000E+00 0.  1.
</event>
<event>
11    0  0.3462209E-009  0.9118800E+02  0.7816531E-02  0.1126479E+00
         25   -1    0    0    0    0  0.00000000000E+00  0.00000000000E+00  0.99999998245E-14  0.12500000000E+03  0.12500000000E+03 0.  0.
    3000001    1    3    3    0    0  0.75866285220E+01  0.19859096360E+02  0.13811098308E+02  0.25370988885E+02  0.10000000000E+01 0. -1.
    1000022    2    1    0    0    0  0.14652180011E+02  0.54735106951E+02  0.24405565952E+02  0.62499998814E+02  0.99999945111E+01 0.  0.
    3000022    2    3    3    0    0  0.70655514895E+01  0.34876010592E+02  0.10594467644E+02  0.37129009928E+02  0.25000191497E+00 0.  0.
    1000022    2    1    0    0    0 -0.14652180011E+02 -0.54735106951E+02 -0.24405565952E+02  0.62500001186E+02  0.10000009339E+02 0.  0.
    3000022    2    5    5    0    0 -0.12487378167E+02 -0.33883050417E+02 -0.19100173168E+02  0.40851864515E+02  0.25000058039E+00 0.  0.
        -13    1    4    4    0    0  0.22261756042E+01  0.10951444572E+02  0.32763638349E+01  0.11646268974E+02  0.10500000000E+00 0.  1.
         13    1    4    4    0    0  0.48393758853E+01  0.23924566019E+02  0.73181038093E+01  0.25482740954E+02  0.10500000000E+00 0. -1.
    3000001    1    5    5    0    0 -0.21648018449E+01 -0.20852056534E+02 -0.53053927845E+01  0.21648136671E+02  0.10000000000E+01 0. -1.
        -13    1    6    6    0    0 -0.35490191928E+01 -0.97271426176E+01 -0.55052100021E+01  0.11727369820E+02  0.10500000000E+00 0. -1.
         13    1    6    6    0    0 -0.89383589738E+01 -0.24155907800E+02 -0.13594963166E+02  0.29124494695E+02  0.10500000000E+00 0.  1.
</event>
<event>
11    0  0.3462209E-009  0.9118800E+02  0.7816531E-02  0.1126479E+00
         25   -1    0    0    0    0  0.00000000000E+00  0.00000000000E+00  0.99999998245E-14  0.12500000000E+03  0.12500000000E+03 0.  0.
    3000001    1    3    3    0    0  0.10146240468E+01  0.28602966907E+02  0.45739120061E+02  0.53965046853E+02  0.10000000000E+01 0.  1.
    1000022    2    1    0    0    0  0.49383487863E+01  0.32049764166E+02  0.52485000991E+02  0.62500000642E+02  0.10000003968E+02 0.  0.
    3000022    2    3    3    0    0  0.39237247396E+01  0.34467972590E+01  0.67458809295E+01  0.85349537888E+01  0.24999896989E+00 0.  0.
    1000022    2    1    0    0    0 -0.49383487863E+01 -0.32049764166E+02 -0.52485000991E+02  0.62499999358E+02  0.99999959443E+01 0.  0.
    3000022    2    5    5    0    0 -0.72457662980E+01 -0.14576311467E+02 -0.24881900024E+02  0.29734515876E+02  0.25000071716E+00 0.  0.
        -13    1    4    4    0    0  0.23028480766E+01  0.20453097092E+01  0.40776962675E+01  0.51112652954E+01  0.10500000000E+00 0. -1.
         13    1    4    4    0    0  0.16208766630E+01  0.14014875499E+01  0.26681846620E+01  0.34236884934E+01  0.10500000000E+00 0.  1.
    3000001    1    5    5    0    0  0.23074175117E+01 -0.17473452700E+02 -0.27603100967E+02  0.32765483482E+02  0.10000000000E+01 0. -1.
        -13    1    6    6    0    0 -0.23087923787E+01 -0.45573588806E+01 -0.77544544380E+01  0.92866910601E+01  0.10500000000E+00 0. -1.
         13    1    6    6    0    0 -0.49369739193E+01 -0.10018952586E+02 -0.17127445586E+02  0.20447824816E+02  0.10500000000E+00 0.  1.
</event>
<event>
11    0  0.3462209E-009  0.9118800E+02  0.7816531E-02  0.1126479E+00
         25   -1    0    0    0    0  0.00000000000E+00  0.00000000000E+00  0.99999998245E-14  0.12500000000E+03  0.12500000000E+03 0.  0.
    3000001    1    3    3    0    0 -0.16086658425E+02  0.41277524310E+02 -0.14645582900E+02  0.46670201317E+02  0.10000000000E+01 0.  1.
    1000022    2    1    0    0    0 -0.25606628733E+02  0.51755297165E+02 -0.21724174687E+02  0.62500000139E+02  0.10000001596E+02 0.  0.
    3000022    2    3    3    0    0 -0.95199703076E+01  0.10477772854E+02 -0.70785917871E+01  0.15829798822E+02  0.25002085069E+00 0.  0.
    1000022    2    1    0    0    0  0.25606628733E+02 -0.51755297165E+02  0.21724174687E+02  0.62499999861E+02  0.99999998523E+01 0.  0.
    3000022    2    5    5    0    0  0.52482404622E+01 -0.49662909415E+01  0.56592767548E+00  0.72519547100E+01  0.24999863544E+00 0.  0.
        -13    1    4    4    0    0 -0.44214626859E+01  0.49368927281E+01 -0.33672333861E+01  0.74344823470E+01  0.10500000000E+00 0.  1.
         13    1    4    4    0    0 -0.50985076218E+01  0.55408801262E+01 -0.37113584010E+01  0.83953164755E+01  0.10500000000E+00 0. -1.
    3000001    1    5    5    0    0  0.20358388271E+02 -0.46789006223E+02  0.21158247012E+02  0.55248045151E+02  0.10000000000E+01 0. -1.
        -13    1    6    6    0    0  0.35159103182E+01 -0.32555159157E+01  0.39073675904E+00  0.48087118293E+01  0.10500000000E+00 0. -1.
         13    1    6    6    0    0  0.17323301440E+01 -0.17107750258E+01  0.17519091644E+00  0.24432428807E+01  0.10500000000E+00 0.  1.
</event>
<event>
11    0  0.3462209E-009  0.9118800E+02  0.7816531E-02  0.1126479E+00
         25   -1    0    0    0    0  0.00000000000E+00  0.00000000000E+00  0.99999998245E-14  0.12500000000E+03  0.12500000000E+03 0.  0.
    3000001    1    3    3    0    0  0.75337231625E+00 -0.11590237251E+01 -0.90820077176E+00  0.19328048230E+01  0.10000000000E+01 0.  1.
    1000022    2    1    0    0    0  0.96201555703E+01 -0.60453219478E+02  0.76884282539E+01  0.62500007369E+02  0.99999926799E+01 0.  0.
    3000022    2    3    3    0    0  0.88667832541E+01 -0.59294195753E+02  0.85966290256E+01  0.60567202546E+02  0.24999663403E+00 0.  0.
    1000022    2    1    0    0    0 -0.96201555703E+01  0.60453219478E+02 -0.76884282539E+01  0.62499992631E+02  0.99999005693E+01 0.  0.
    3000022    2    5    5    0    0 -0.93776529176E+01  0.39677585333E+02 -0.15048395787E+01  0.40799242631E+02  0.25000997979E+00 0.  0.
        -13    1    4    4    0    0  0.45793433140E+01 -0.30722872974E+02  0.45206804826E+01  0.31389693946E+02  0.10500000000E+00 0.  1.
         13    1    4    4    0    0  0.42874399401E+01 -0.28571322779E+02  0.40759485430E+01  0.29177508600E+02  0.10500000000E+00 0. -1.
    3000001    1    5    5    0    0 -0.24250265269E+00  0.20775634146E+02 -0.61835886751E+01  0.21700750001E+02  0.10000000000E+01 0.  1.
        -13    1    6    6    0    0 -0.43831613944E+01  0.18557217736E+02 -0.77113374185E+00  0.19083713112E+02  0.10500000000E+00 0.  1.
         13    1    6    6    0    0 -0.49944915232E+01  0.21120367597E+02 -0.73370583689E+00  0.21715529518E+02  0.10500000000E+00 0. -1.
</event>
<event>
11    0  0.3462209E-009  0.9118800E+02  0.7816531E-02  0.1126479E+00
         25   -1    0    0    0    0  0.00000000000E+00  0.00000000000E+00  0.99999998245E-14  0.12500000000E+03  0.12500000000E+03 0.  0.
    3000001    1    3    3    0    0 -0.80376601541E+01 -0.44742501908E+02 -0.39407503786E+02  0.60170148848E+02  0.10000000000E+01 0.  1.
    1000022    2    1    0    0    0 -0.98827290293E+01 -0.46083827922E+02 -0.39810331713E+02  0.62499999922E+02  0.99999975071E+01 0.  0.
    3000022    2    3    3    0    0 -0.18450688752E+01 -0.13413260132E+01 -0.40282792679E+00  0.23298510733E+01  0.25000211463E+00 0.  0.
    1000022    2    1    0    0    0  0.98827290293E+01  0.46083827922E+02  0.39810331713E+02  0.62500000078E+02  0.99999984852E+01 0.  0.
    3000022    2    5    5    0    0  0.11442163840E+02  0.42814814580E+02  0.35511376006E+02  0.56790419942E+02  0.25002105425E+00 0.  0.
        -13    1    4    4    0    0 -0.45499173855E+00 -0.36209964008E+00 -0.87997184104E-01  0.59741286888E+00  0.10500000000E+00 0.  1.
         13    1    4    4    0    0 -0.13900771367E+01 -0.97922637311E+00 -0.31483074268E+00  0.17324382045E+01  0.10500000000E+00 0. -1.
    3000001    1    5    5    0    0 -0.15594348109E+01  0.32690133418E+01  0.42989557069E+01  0.57095801359E+01  0.10000000000E+01 0. -1.
        -13    1    6    6    0    0  0.30119671884E+01  0.11160507489E+02  0.92439095308E+01  0.14801681059E+02  0.10500000000E+00 0.  1.
         13    1    6    6    0    0  0.84301966519E+01  0.31654307091E+02  0.26267466475E+02  0.41988738883E+02  0.10500000000E+00 0. -1.
</event>
<event>
11    0  0.3462209E-009  0.9118800E+02  0.7816531E-02  0.1126479E+00
         25   -1    0    0    0    0  0.00000000000E+00  0.00000000000E+00  0.99999998245E-14  0.12500000000E+03  0.12500000000E+03 0.  0.
    3000001    1    3    3    0    0  0.53355031586E+01 -0.16145599913E+01 -0.20699914953E+01  0.60298642366E+01  0.10000000000E+01 0. -1.
    1000022    2    1    0    0    0  0.57805844092E+02 -0.20329304749E+02  0.71731300158E+01  0.62499999138E+02  0.99999927644E+01 0.  0.
    3000022    2    3    3    0    0  0.52470340934E+02 -0.18714744757E+02  0.92431215111E+01  0.56470134902E+02  0.24998305560E+00 0.  0.
    1000022    2    1    0    0    0 -0.57805844092E+02  0.20329304749E+02 -0.71731300158E+01  0.62500000862E+02  0.10000003534E+02 0.  0.
    3000022    2    5    5    0    0 -0.32808315517E+02  0.97069014491E+01  0.63646641336E+00  0.34221003653E+02  0.24999743935E+00 0.  0.
        -13    1    4    4    0    0  0.24905294107E+02 -0.88986049263E+01  0.44549668860E+01  0.26820078284E+02  0.10500000000E+00 0. -1.
         13    1    4    4    0    0  0.27565046827E+02 -0.98161398311E+01  0.47881546251E+01  0.29650056618E+02  0.10500000000E+00 0.  1.
    3000001    1    5    5    0    0 -0.24997528576E+02  0.10622403300E+02 -0.78095964291E+01  0.28278997209E+02  0.10000000000E+01 0. -1.
        -13    1    6    6    0    0 -0.10565746788E+02  0.30929388263E+01  0.16472093125E+00  0.11010877974E+02  0.10500000000E+00 0.  1.
         13    1    6    6    0    0 -0.22242568729E+02  0.66139626229E+01  0.47174548211E+00  0.23210125679E+02  0.10500000000E+00 0. -1.
</event>
<event>
11    0  0.3462209E-009  0.9118800E+02  0.7816531E-02  0.1126479E+00
         25   -1    0    0    0    0  0.00000000000E+00  0.00000000000E+00  0.99999998245E-14  0.12500000000E+03  0.12500000000E+03 0.  0.
    3000001    1    3    3    0    0 -0.10093885652E+02 -0.11690265575E+02  0.12524857224E+02  0.19910321074E+02  0.10000000000E+01 0.  1.
    1000022    2    1    0    0    0 -0.19016322304E+02 -0.43514599754E+02  0.39384123362E+02  0.62500000553E+02  0.99999995189E+01 0.  0.
    3000022    2    3    3    0    0 -0.89224366523E+01 -0.31824334179E+02  0.26859266138E+02  0.42589679479E+02  0.24999785694E+00 0.  0.
    1000022    2    1    0    0    0  0.19016322304E+02  0.43514599754E+02 -0.39384123362E+02  0.62499999447E+02  0.99999926056E+01 0.  0.
    3000022    2    5    5    0    0  0.14805125502E+02  0.23283135562E+02 -0.25600776320E+02  0.37639851065E+02  0.24999464343E+00 0.  0.
        -13    1    4    4    0    0 -0.48197021398E+01 -0.17371944458E+02  0.14591695559E+02  0.23193589357E+02  0.10500000000E+00 0. -1.
         13    1    4    4    0    0 -0.41027345125E+01 -0.14452389721E+02  0.12267570580E+02  0.19396090123E+02  0.10500000000E+00 0.  1.
    3000001    1    5    5    0    0  0.42111968028E+01  0.20231464192E+02 -0.13783347042E+02  0.24860148382E+02  0.10000000000E+01 0.  1.
        -13    1    6    6    0    0  0.50653274988E+01  0.80538029718E+01 -0.88682752694E+01  0.13006868041E+02  0.10500000000E+00 0. -1.
         13    1    6    6    0    0  0.97397980028E+01  0.15229332590E+02 -0.16732501050E+02  0.24632983024E+02  0.10500000000E+00 0.  1.
</event>
<event>
11    0  0.3462209E-009  0.9118800E+02  0.7816531E-02  0.1126479E+00
         25   -1    0    0    0    0  0.00000000000E+00  0.00000000000E+00  0.99999998245E-14  0.12500000000E+03  0.12500000000E+03 0.  0.
    3000001    1    3    3    0    0 -0.18602128273E+02 -0.37452996068E+02 -0.12668892645E+02  0.43706600550E+02  0.10000000000E+01 0.  1.
    1000022    2    1    0    0    0 -0.30650938381E+02 -0.49295898929E+02 -0.20896977460E+02  0.62500005111E+02  0.10000064852E+02 0.  0.
    3000022    2    3    3    0    0 -0.12048810108E+02 -0.11842902861E+02 -0.82280848145E+01  0.18793404561E+02  0.25000417857E+00 0.  0.
    1000022    2    1    0    0    0  0.30650938381E+02  0.49295898929E+02  0.20896977460E+02  0.62499994889E+02  0.10000000964E+02 0.  0.
    3000022    2    5    5    0    0  0.15247440392E+02  0.25163655974E+02  0.53491771695E+01  0.29906023142E+02  0.25000663566E+00 0.  0.
        -13    1    4    4    0    0 -0.49224520595E+01 -0.49186901576E+01 -0.34211749577E+01  0.77549668107E+01  0.10500000000E+00 0.  1.
         13    1    4    4    0    0 -0.71263580485E+01 -0.69242127033E+01 -0.48069098569E+01  0.11038437750E+02  0.10500000000E+00 0. -1.
    3000001    1    5    5    0    0  0.15403497989E+02  0.24132242955E+02  0.15547800290E+02  0.32593971747E+02  0.10000000000E+01 0.  1.
        -13    1    6    6    0    0  0.98556783884E+01  0.16345626114E+02  0.35092437738E+01  0.19407207589E+02  0.10500000000E+00 0.  1.
         13    1    6    6    0    0  0.53917620035E+01  0.88180298599E+01  0.18399333958E+01  0.10498815553E+02  0.10500000000E+00 0. -1.
</event>
<event>
11    0  0.3462209E-009  0.9118800E+02  0.7816531E-02  0.1126479E+00
         25   -1    0    0    0    0  0.00000000000E+00  0.00000000000E+00  0.99999998245E-14  0.12500000000E+03  0.12500000000E+03 0.  0.
    3000001    1    3    3    0    0  0.34866402639E+02 -0.85501225705E+01 -0.35418176101E+01  0.36087603147E+02  0.10000000000E+01 0.  1.
    1000022    2    1    0    0    0  0.58176113917E+02 -0.20535451695E+02 -0.29200056636E+00  0.62499998369E+02  0.99999762494E+01 0.  0.
    3000022    2    3    3    0    0  0.23309711278E+02 -0.11985329125E+02  0.32498170438E+01  0.26412395221E+02  0.25011282081E+00 0.  0.
    1000022    2    1    0    0    0 -0.58176113917E+02  0.20535451695E+02  0.29200056636E+00  0.62500001631E+02  0.99999966413E+01 0.  0.
    3000022    2    5    5    0    0 -0.27580705830E+01  0.17589248769E+01  0.21961313232E+01  0.39479461574E+01  0.25003201786E+00 0.  0.
        -13    1    4    4    0    0  0.91123906707E+01 -0.47017358758E+01  0.13323809526E+01  0.10340611587E+02  0.10500000000E+00 0. -1.
         13    1    4    4    0    0  0.14197320607E+02 -0.72835932490E+01  0.19174360912E+01  0.16071783635E+02  0.10500000000E+00 0.  1.
    3000001    1    5    5    0    0 -0.55418043334E+02  0.18776526818E+02 -0.19041307568E+01  0.58552055474E+02  0.10000000000E+01 0.  1.
        -13    1    6    6    0    0 -0.20929927612E+01  0.13203980267E+01  0.16811761536E+01  0.29935677555E+01  0.10500000000E+00 0. -1.
         13    1    6    6    0    0 -0.66507782179E+00  0.43852685020E+00  0.51495516957E+00  0.95437840192E+00  0.10500000000E+00 0.  1.
</event>
<event>
11    0  0.3462209E-009  0.9118800E+02  0.7816531E-02  0.1126479E+00
         25   -1    0    0    0    0  0.00000000000E+00  0.00000000000E+00  0.99999998245E-14  0.12500000000E+03  0.12500000000E+03 0.  0.
    3000001    1    3    3    0    0  0.12112593433E+00 -0.47691223509E+00  0.11605897580E+02  0.11659287088E+02  0.10000000000E+01 0. -1.
    1000022    2    1    0    0    0  0.54483277235E+01  0.16923656075E+02  0.59077538213E+02  0.62499999441E+02  0.99999999415E+01 0.  0.
    3000022    2    3    3    0    0  0.53272017891E+01  0.17400568310E+02  0.47471640633E+02  0.50840712352E+02  0.25002333501E+00 0.  0.
    1000022    2    1    0    0    0 -0.54483277235E+01 -0.16923656075E+02 -0.59077538213E+02  0.62500000559E+02  0.10000006935E+02 0.  0.
    3000022    2    5    5    0    0 -0.24788348744E+01 -0.10742563317E+02 -0.20241850210E+02  0.23050862950E+02  0.24998773036E+00 0.  0.
        -13    1    4    4    0    0  0.18495459315E+01  0.61786858710E+01  0.16711836023E+02  0.17913499588E+02  0.10500000000E+00 0.  1.
         13    1    4    4    0    0  0.34776558577E+01  0.11221882439E+02  0.30759804610E+02  0.32927212764E+02  0.10500000000E+00 0. -1.
    3000001    1    5    5    0    0 -0.29694928491E+01 -0.61810927585E+01 -0.38835688003E+02  0.39449137610E+02  0.10000000000E+01 0.  1.
        -13    1    6    6    0    0 -0.17663895804E+01 -0.75879042339E+01 -0.14388140713E+02  0.16362336049E+02  0.10500000000E+00 0. -1.
         13    1    6    6    0    0 -0.71244529397E+00 -0.31546590829E+01 -0.58537094969E+01  0.66885269006E+01  0.10500000000E+00 0.  1.
</event>
<event>
11    0  0.3462209E-009  0.9118800E+02  0.7816531E-02  0.1126479E+00
         25   -1    0    0    0    0  0.00000000000E+00  0.00000000000E+00  0.99999998245E-14  0.12500000000E+03  0.12500000000E+03 0.  0.
    3000001    1    3    3    0    0 -0.24861397203E+02 -0.33528309545E+02  0.15275940140E+02  0.44458868171E+02  0.10000000000E+01 0.  1.
    1000022    2    1    0    0    0 -0.38974993971E+02 -0.44573688850E+02  0.17331649718E+02  0.62500000832E+02  0.10000006468E+02 0.  0.
    3000022    2    3    3    0    0 -0.14113596768E+02 -0.11045379305E+02  0.20557095782E+01  0.18041132662E+02  0.25001626606E+00 0.  0.
    1000022    2    1    0    0    0  0.38974993971E+02  0.44573688850E+02 -0.17331649718E+02  0.62499999168E+02  0.99999960625E+01 0.  0.
    3000022    2    5    5    0    0  0.23804304755E+02  0.33303703560E+02 -0.95422816998E+01  0.42034500545E+02  0.25000074084E+00 0.  0.
        -13    1    4    4    0    0 -0.52353493952E+01 -0.40561639370E+01  0.80996213124E+00  0.66729613237E+01  0.10500000000E+00 0.  1.
         13    1    4    4    0    0 -0.88782473731E+01 -0.69892153677E+01  0.12457474470E+01  0.11368171338E+02  0.10500000000E+00 0. -1.
    3000001    1    5    5    0    0  0.15170689216E+02  0.11269985290E+02 -0.77893680183E+01  0.20465498622E+02  0.10000000000E+01 0. -1.
        -13    1    6    6    0    0  0.12259439242E+02  0.17212552080E+02 -0.49851683632E+01  0.21712409545E+02  0.10500000000E+00 0. -1.
         13    1    6    6    0    0  0.11544865513E+02  0.16091151480E+02 -0.45571133365E+01  0.20322091000E+02  0.10500000000E+00 0.  1.
</event>
<event>
11    0  0.3462209E-009  0.9118800E+02  0.7816531E-02  0.1126479E+00
         25   -1    0    0    0    0  0.00000000000E+00  0.00000000000E+00  0.99999998245E-14  0.12500000000E+03  0.12500000000E+03 0.  0.
    3000001    1    3    3    0    0  0.43318915592E+02  0.79374059505E+01 -0.30132847942E+01  0.44154396684E+02  0.10000000000E+01 0.  1.
    1000022    2    1    0    0    0  0.61180208333E+02  0.51103359999E+01 -0.60923363178E+01  0.62500000059E+02  0.10000000990E+02 0.  0.
    3000022    2    3    3    0    0  0.17861292742E+02 -0.28270699506E+01 -0.30790515237E+01  0.18345603375E+02  0.25000399461E+00 0.  0.
    1000022    2    1    0    0    0 -0.61180208333E+02 -0.51103359999E+01  0.60923363178E+01  0.62499999941E+02  0.10000000253E+02 0.  0.
    3000022    2    5    5    0    0 -0.28178768723E+01 -0.19513770435E+01  0.18172464132E+01  0.38875682481E+01  0.24999984783E+00 0.  0.
        -13    1    4    4    0    0  0.99624246234E+01 -0.16026496467E+01 -0.17800848617E+01  0.10246858903E+02  0.10500000000E+00 0.  1.
         13    1    4    4    0    0  0.78988681181E+01 -0.12244203039E+01 -0.12989666620E+01  0.80987444717E+01  0.10500000000E+00 0. -1.
    3000001    1    5    5    0    0 -0.58362331461E+02 -0.31589589564E+01  0.42750899047E+01  0.58612431693E+02  0.10000000000E+01 0.  1.
        -13    1    6    6    0    0 -0.20556035422E+01 -0.13981240792E+01  0.13517753429E+01  0.28317094557E+01  0.10500000000E+00 0.  1.
         13    1    6    6    0    0 -0.76227333013E+00 -0.55325296427E+00  0.46547107032E+00  0.10558587925E+01  0.10500000000E+00 0. -1.
</event>
<event>
11    0  0.3462209E-009  0.9118800E+02  0.7816531E-02  0.1126479E+00
         25   -1    0    0    0    0  0.00000000000E+00  0.00000000000E+00  0.99999998245E-14  0.12500000000E+03  0.12500000000E+03 0.  0.
    3000001    1    3    3    0    0 -0.32515393206E+02  0.70643505769E+01  0.29849050958E+01  0.33422529869E+02  0.10000000000E+01 0. -1.
    1000022    2    1    0    0    0 -0.58576760021E+02  0.19341807134E+02 -0.95284875905E+00  0.62499998455E+02  0.99999784154E+01 0.  0.
    3000022    2    3    3    0    0 -0.26061366816E+02  0.12277456557E+02 -0.39377538549E+01  0.29077468586E+02  0.24998830099E+00 0.  0.
    1000022    2    1    0    0    0  0.58576760021E+02 -0.19341807134E+02  0.95284875905E+00  0.62500001545E+02  0.99999977296E+01 0.  0.
    3000022    2    5    5    0    0  0.12984240916E+02 -0.29418437129E+00  0.14930176757E+01  0.13075498374E+02  0.24999866853E+00 0.  0.
        -13    1    4    4    0    0 -0.17311204107E+02  0.82126685952E+01 -0.26331876644E+01  0.19340900066E+02  0.10500000000E+00 0. -1.
         13    1    4    4    0    0 -0.87501627088E+01  0.40647879622E+01 -0.13045661905E+01  0.97365685204E+01  0.10500000000E+00 0.  1.
    3000001    1    5    5    0    0  0.45592519105E+02 -0.19047622763E+02 -0.54016891668E+00  0.49424503171E+02  0.10000000000E+01 0. -1.
        -13    1    6    6    0    0  0.80105631588E+01 -0.21097943265E+00  0.97510145353E+00  0.80731333624E+01  0.10500000000E+00 0.  1.
         13    1    6    6    0    0  0.49736777574E+01 -0.83204938648E-01  0.51791622220E+00  0.50023650117E+01  0.10500000000E+00 0. -1.
</event>
<event>
11    0  0.3462209E-009  0.9118800E+02  0.7816531E-02  0.1126479E+00
         25   -1    0    0    0    0  0.00000000000E+00  0.00000000000E+00  0.99999998245E-14  0.12500000000E+03  0.12500000000E+03 0.  0.
    3000001    1    3    3    0    0  0.17507878975E+02 -0.37213922443E+02  0.13953406597E+02  0.43440757422E+02  0.10000000000E+01 0.  1.
    1000022    2    1    0    0    0  0.27165271886E+02 -0.49499309165E+02  0.24861948815E+02  0.62500000777E+02  0.99999996872E+01 0.  0.
    3000022    2    3    3    0    0  0.96573929117E+01 -0.12285386723E+02  0.10908542218E+02  0.19059243355E+02  0.24999830843E+00 0.  0.
    1000022    2    1    0    0    0 -0.27165271886E+02  0.49499309165E+02 -0.24861948815E+02  0.62499999223E+02  0.99999899748E+01 0.  0.
    3000022    2    5    5    0    0 -0.14728319151E+02  0.28516928875E+02 -0.88113222913E+01  0.33284238275E+02  0.24999905276E+00 0.  0.
        -13    1    4    4    0    0  0.22737152873E+01 -0.29171047635E+01  0.25753318200E+01  0.45080639295E+01  0.10500000000E+00 0.  1.
         13    1    4    4    0    0  0.73836776243E+01 -0.93682819592E+01  0.83332103982E+01  0.14551179425E+02  0.10500000000E+00 0. -1.
    3000001    1    5    5    0    0 -0.12436952735E+02  0.20982380290E+02 -0.16050626523E+02  0.29215760948E+02  0.10000000000E+01 0.  1.
        -13    1    6    6    0    0 -0.10433648601E+02  0.20215735826E+02 -0.62009414615E+01  0.23579645844E+02  0.10500000000E+00 0. -1.
         13    1    6    6    0    0 -0.42946705501E+01  0.83011930492E+01 -0.26103808299E+01  0.97045924309E+01  0.10500000000E+00 0.  1.
</event>
<event>
11    0  0.3462209E-009  0.9118800E+02  0.7816531E-02  0.1126479E+00
         25   -1    0    0    0    0  0.00000000000E+00  0.00000000000E+00  0.99999998245E-14  0.12500000000E+03  0.12500000000E+03 0.  0.
    3000001    1    3    3    0    0 -0.21296497148E+02 -0.40442214172E+00  0.41686486113E+02  0.46823791736E+02  0.10000000000E+01 0. -1.
    1000022    2    1    0    0    0 -0.25613839195E+02  0.44546193197E+01  0.55949419909E+02  0.62499999915E+02  0.10000000482E+02 0.  0.
    3000022    2    3    3    0    0 -0.43173420472E+01  0.48590414615E+01  0.14262933796E+02  0.15676208179E+02  0.24999228665E+00 0.  0.
    1000022    2    1    0    0    0  0.25613839195E+02 -0.44546193197E+01 -0.55949419909E+02  0.62500000085E+02  0.10000001545E+02 0.  0.
    3000022    2    5    5    0    0  0.13885299415E+02 -0.45562591592E+01 -0.40638726119E+02  0.43187146325E+02  0.25001953142E+00 0.  0.
        -13    1    4    4    0    0 -0.31717089644E+01  0.35425250230E+01  0.10355324143E+02  0.11395305367E+02  0.10500000000E+00 0.  1.
         13    1    4    4    0    0 -0.11456330828E+01  0.13165164385E+01  0.39076096523E+01  0.42809028122E+01  0.10500000000E+00 0. -1.
    3000001    1    5    5    0    0  0.11728539780E+02  0.10163983948E+00 -0.15310693790E+02  0.19312853760E+02  0.10000000000E+01 0. -1.
        -13    1    6    6    0    0  0.39361036174E+01 -0.13269279548E+01 -0.11482975136E+02  0.12211608922E+02  0.10500000000E+00 0.  1.
         13    1    6    6    0    0  0.99491957978E+01 -0.32293312044E+01 -0.29155750983E+02  0.30975537403E+02  0.10500000000E+00 0. -1.
</event>
<event>
11    0  0.3462209E-009  0.9118800E+02  0.7816531E-02  0.1126479E+00
         25   -1    0    0    0    0  0.00000000000E+00  0.00000000000E+00  0.99999998245E-14  0.12500000000E+03  0.12500000000E+03 0.  0.
    3000001    1    3    3    0    0 -0.45219667690E+02 -0.21172115276E+01 -0.41464174153E+02  0.61396894619E+02  0.10000000000E+01 0.  1.
    1000022    2    1    0    0    0 -0.45976300714E+02 -0.27556581037E+01 -0.41046755672E+02  0.62500001687E+02  0.10000009040E+02 0.  0.
    3000022    2    3    3    0    0 -0.75663302333E+00 -0.63844657602E+00  0.41741848072E+00  0.11031070682E+01  0.24999890698E+00 0.  0.
    1000022    2    1    0    0    0  0.45976300714E+02  0.27556581037E+01  0.41046755672E+02  0.62499998313E+02  0.99999879475E+01 0.  0.
    3000022    2    5    5    0    0  0.25121426283E+02 -0.29029252925E+01  0.19171257718E+02  0.31735038304E+02  0.24999985777E+00 0.  0.
        -13    1    4    4    0    0 -0.27064707580E+00 -0.18238290584E+00  0.97618422942E-01  0.35646559509E+00  0.10500000000E+00 0.  1.
         13    1    4    4    0    0 -0.48598594753E+00 -0.45606367018E+00  0.31980005777E+00  0.74664147313E+00  0.10500000000E+00 0. -1.
    3000001    1    5    5    0    0  0.20854874431E+02  0.56585833962E+01  0.21875497955E+02  0.30764960009E+02  0.10000000000E+01 0.  1.
        -13    1    6    6    0    0  0.70557710174E+01 -0.77518709488E+00  0.53838193398E+01  0.89096215052E+01  0.10500000000E+00 0. -1.
         13    1    6    6    0    0  0.18065655265E+02 -0.21277381976E+01  0.13787438378E+02  0.22825416799E+02  0.10500000000E+00 0.  1.
</event>
<event>
11    0  0.3462209E-009  0.9118800E+02  0.7816531E-02  0.1126479E+00
         25   -1    0    0    0    0  0.00000000000E+00  0.00000000000E+00  0.99999998245E-14  0.12500000000E+03  0.12500000000E+03 0.  0.
    3000001    1    3    3    0    0 -0.32083242547E+02 -0.12037213405E+02  0.41734545882E+02  0.54009270305E+02  0.10000000000E+01 0.  1.
    1000022    2    1    0    0    0 -0.38232290169E+02 -0.16492651601E+02  0.45525097015E+02  0.62500000300E+02  0.10000000542E+02 0.  0.
    3000022    2    3    3    0    0 -0.61490476218E+01 -0.44554381959E+01  0.37905511329E+01  0.84907299947E+01  0.25000355687E+00 0.  0.
    1000022    2    1    0    0    0  0.38232290169E+02  0.16492651601E+02 -0.45525097015E+02  0.62499999700E+02  0.99999967928E+01 0.  0.
    3000022    2    5    5    0    0  0.35664923163E+02  0.15331831156E+02 -0.45055370994E+02  0.59473529812E+02  0.25000404918E+00 0.  0.
        -13    1    4    4    0    0 -0.19722034196E+01 -0.14924179038E+01  0.12259983450E+01  0.27624254686E+01  0.10500000000E+00 0. -1.
         13    1    4    4    0    0 -0.41768442023E+01 -0.29630202921E+01  0.25645527879E+01  0.57283045261E+01  0.10500000000E+00 0.  1.
    3000001    1    5    5    0    0  0.25673670060E+01  0.11608204457E+01 -0.46972602099E+00  0.30264698884E+01  0.10000000000E+01 0.  1.
        -13    1    6    6    0    0  0.24999501226E+02  0.10704684606E+02 -0.31598994701E+02  0.41690200590E+02  0.10500000000E+00 0. -1.
         13    1    6    6    0    0  0.10665421937E+02  0.46271465499E+01 -0.13456376293E+02  0.17783329222E+02  0.10500000000E+00 0.  1.
</event>
<event>
11    0  0.3462209E-009  0.9118800E+02  0.7816531E-02  0.1126479E+00
         25   -1    0    0    0    0  0.00000000000E+00  0.00000000000E+00  0.99999998245E-14  0.12500000000E+03  0.12500000000E+03 0.  0.
    3000001    1    3    3    0    0  0.54045422620E+01 -0.43545578508E+01  0.62711254879E-01  0.70125019671E+01  0.10000000000E+01 0. -1.
    1000022    2    1    0    0    0  0.53221094294E+02 -0.22696673023E+02  0.21415558260E+02  0.62499999773E+02  0.99999995925E+01 0.  0.
    3000022    2    3    3    0    0  0.47816552032E+02 -0.18342115173E+02  0.21352847005E+02  0.55487497806E+02  0.25000058530E+00 0.  0.
    1000022    2    1    0    0    0 -0.53221094294E+02  0.22696673023E+02 -0.21415558260E+02  0.62500000227E+02  0.10000002428E+02 0.  0.
    3000022    2    5    5    0    0 -0.86828883853E+01  0.77832365565E+01 -0.55262521035E+01  0.12906327012E+02  0.24998522645E+00 0.  0.
        -13    1    4    4    0    0  0.29860817107E+02 -0.11392910275E+02  0.13345329973E+02  0.34634890788E+02  0.10500000000E+00 0.  1.
         13    1    4    4    0    0  0.17955734925E+02 -0.69492048977E+01  0.80075170319E+01  0.20852607018E+02  0.10500000000E+00 0. -1.
    3000001    1    5    5    0    0 -0.44538205909E+02  0.14913436467E+02 -0.15889306156E+02  0.49593673215E+02  0.10000000000E+01 0. -1.
        -13    1    6    6    0    0 -0.63663596002E+01  0.57130760567E+01 -0.40154857867E+01  0.94501282368E+01  0.10500000000E+00 0. -1.
         13    1    6    6    0    0 -0.23165287851E+01  0.20701604999E+01 -0.15107663168E+01  0.34561987749E+01  0.10500000000E+00 0.  1.
</event>
<event>
11    0  0.3462209E-009  0.9118800E+02  0.7816531E-02  0.1126479E+00
         25   -1    0    0    0    0  0.00000000000E+00  0.00000000000E+00  0.99999998245E-14  0.12500000000E+03  0.12500000000E+03 0.  0.
    3000001    1    3    3    0    0  0.53066069414E+01  0.93693563897E+01  0.17631365894E+02  0.20683567866E+02  0.10000000000E+01 0. -1.
    1000022    2    1    0    0    0  0.14808098932E+02  0.39526923428E+02  0.44995471910E+02  0.62500000008E+02  0.10000001950E+02 0.  0.
    3000022    2    3    3    0    0  0.95014919901E+01  0.30157567038E+02  0.27364106016E+02  0.41816432142E+02  0.24999868768E+00 0.  0.
    1000022    2    1    0    0    0 -0.14808098932E+02 -0.39526923428E+02 -0.44995471910E+02  0.62499999992E+02  0.10000001844E+02 0.  0.
    3000022    2    5    5    0    0 -0.76644400121E+01 -0.30050807065E+02 -0.28249029933E+02  0.41950742998E+02  0.24999999759E+00 0.  0.
        -13    1    4    4    0    0  0.70683574040E+01  0.22527824109E+02  0.20438143603E+02  0.31228084706E+02  0.10500000000E+00 0. -1.
         13    1    4    4    0    0  0.24331345861E+01  0.76297429287E+01  0.69259624136E+01  0.10588347436E+02  0.10500000000E+00 0.  1.
    3000001    1    5    5    0    0 -0.71436589194E+01 -0.94761163628E+01 -0.16746441977E+02  0.20549256993E+02  0.10000000000E+01 0.  1.
        -13    1    6    6    0    0 -0.58785860037E+01 -0.23035386762E+02 -0.21638070890E+02  0.32146600964E+02  0.10500000000E+00 0.  1.
         13    1    6    6    0    0 -0.17858540084E+01 -0.70154203026E+01 -0.66109590436E+01  0.98041420348E+01  0.10500000000E+00 0. -1.
</event>
<event>
11    0  0.3462209E-009  0.9118800E+02  0.7816531E-02  0.1126479E+00
         25   -1    0    0    0    0  0.00000000000E+00  0.00000000000E+00  0.99999998245E-14  0.12500000000E+03  0.12500000000E+03 0.  0.
    3000001    1    3    3    0    0  0.48274080661E+02  0.77755084078E+01 -0.30318088673E+02  0.57541566676E+02  0.10000000000E+01 0. -1.
    1000022    2    1    0    0    0  0.50203074046E+02  0.89966343392E+01 -0.34712564591E+02  0.62500001940E+02  0.10000001449E+02 0.  0.
    3000022    2    3    3    0    0  0.19289933842E+01  0.12211259314E+01 -0.43944759182E+01  0.49584352647E+01  0.24999532336E+00 0.  0.
    1000022    2    1    0    0    0 -0.50203074046E+02 -0.89966343392E+01  0.34712564591E+02  0.62499998060E+02  0.99999771939E+01 0.  0.
    3000022    2    5    5    0    0 -0.11003870685E+02  0.17529211917E+01  0.54552862646E+01  0.12408892828E+02  0.25014043020E+00 0.  0.
        -13    1    4    4    0    0  0.11387070955E+01  0.69078326515E+00 -0.24306231365E+01  0.27735877849E+01  0.10500000000E+00 0. -1.
         13    1    4    4    0    0  0.79028628863E+00  0.53034266624E+00 -0.19638527817E+01  0.21848474798E+01  0.10500000000E+00 0.  1.
    3000001    1    5    5    0    0 -0.39199203361E+02 -0.10749555531E+02  0.29257278327E+02  0.50091105231E+02  0.10000000000E+01 0. -1.
        -13    1    6    6    0    0 -0.60252456829E+01  0.91489486992E+00  0.30392828898E+01  0.68109385291E+01  0.10500000000E+00 0.  1.
         13    1    6    6    0    0 -0.49786250021E+01  0.83802632183E+00  0.24160033749E+01  0.55979542991E+01  0.10500000000E+00 0. -1.
</event>
<event>
11    0  0.3462209E-009  0.9118800E+02  0.7816531E-02  0.1126479E+00
         25   -1    0    0    0    0  0.00000000000E+00  0.00000000000E+00  0.99999998245E-14  0.12500000000E+03  0.12500000000E+03 0.  0.
    3000001    1    3    3    0    0  0.42202432707E+00  0.44913035862E+02 -0.68174205967E+01  0.45440467851E+02  0.10000000000E+01 0.  1.
    1000022    2    1    0    0    0 -0.98922128115E+00  0.61587044602E+02 -0.35081955987E+01  0.62500000391E+02  0.99999995488E+01 0.  0.
    3000022    2    3    3    0    0 -0.14112456082E+01  0.16674008740E+02  0.33092249980E+01  0.17059532540E+02  0.24999757851E+00 0.  0.
    1000022    2    1    0    0    0  0.98922128115E+00 -0.61587044602E+02  0.35081955987E+01  0.62499999609E+02  0.99999946603E+01 0.  0.
    3000022    2    5    5    0    0 -0.20043239191E+01 -0.47185857444E+02 -0.46374193195E+00  0.47231345700E+02  0.25000602381E+00 0.  0.
        -13    1    4    4    0    0 -0.51685219178E+00  0.68279770089E+01  0.13741403750E+01  0.69848187516E+01  0.10500000000E+00 0. -1.
         13    1    4    4    0    0 -0.89439341644E+00  0.98460317307E+01  0.19350846231E+01  0.10074713789E+02  0.10500000000E+00 0.  1.
    3000001    1    5    5    0    0  0.29935452002E+01 -0.14401187158E+02  0.39719375307E+01  0.15268653909E+02  0.10000000000E+01 0. -1.
        -13    1    6    6    0    0 -0.10883872658E+01 -0.24709915645E+02 -0.29822549150E+00  0.24735894596E+02  0.10500000000E+00 0. -1.
         13    1    6    6    0    0 -0.91593665330E+00 -0.22475941799E+02 -0.16551644045E+00  0.22495451105E+02  0.10500000000E+00 0.  1.
</event>
<event>
11    0  0.3462209E-009  0.9118800E+02  0.7816531E-02  0.1126479E+00
         25   -1    0    0    0    0  0.00000000000E+00  0.00000000000E+00  0.99999998245E-14  0.12500000000E+03  0.12500000000E+03 0.  0.
    3000001    1    3    3    0    0  0.21221578061E+02 -0.21310350107E+02  0.39196724437E+01  0.30345514152E+02  0.10000000000E+01 0.  1.
    1000022    2    1    0    0    0  0.35743608957E+02 -0.48816083512E+02  0.12067911252E+02  0.62500001285E+02  0.10000004400E+02 0.  0.
    3000022    2    3    3    0    0  0.14522030895E+02 -0.27505733405E+02  0.81482388078E+01  0.32154487133E+02  0.24999130679E+00 0.  0.
    1000022    2    1    0    0    0 -0.35743608957E+02  0.48816083512E+02 -0.12067911252E+02  0.62499998715E+02  0.99999883323E+01 0.  0.
    3000022    2    5    5    0    0 -0.18177174214E+02  0.16650803390E+02 -0.53691596234E+01  0.25229928306E+02  0.24998262613E+00 0.  0.
        -13    1    4    4    0    0  0.77332436646E+01 -0.14543852256E+02  0.42664902003E+01  0.17015894324E+02  0.10500000000E+00 0.  1.
         13    1    4    4    0    0  0.67887872307E+01 -0.12961881149E+02  0.38817486076E+01  0.15138592809E+02  0.10500000000E+00 0. -1.
    3000001    1    5    5    0    0 -0.17566434742E+02  0.32165280122E+02 -0.66987516281E+01  0.37270070409E+02  0.10000000000E+01 0.  1.
        -13    1    6    6    0    0 -0.64872639182E+01  0.58811187370E+01 -0.19432617896E+01  0.89699187357E+01  0.10500000000E+00 0. -1.
         13    1    6    6    0    0 -0.11689910296E+02  0.10769684653E+02 -0.34258978338E+01  0.16260009570E+02  0.10500000000E+00 0.  1.
</event>
<event>
11    0  0.3462209E-009  0.9118800E+02  0.7816531E-02  0.1126479E+00
         25   -1    0    0    0    0  0.00000000000E+00  0.00000000000E+00  0.99999998245E-14  0.12500000000E+03  0.12500000000E+03 0.  0.
    3000001    1    3    3    0    0  0.86640641194E+01  0.51195542450E+02  0.14158011314E+02  0.53828420543E+02  0.10000000000E+01 0. -1.
    1000022    2    1    0    0    0  0.87949105835E+01  0.57759525182E+02  0.19817587543E+02  0.62499999735E+02  0.99999994688E+01 0.  0.
    3000022    2    3    3    0    0  0.13084646407E+00  0.65639827326E+01  0.56595762291E+01  0.86715791919E+01  0.24998495585E+00 0.  0.
    1000022    2    1    0    0    0 -0.87949105835E+01 -0.57759525182E+02 -0.19817587543E+02  0.62500000265E+02  0.10000002783E+02 0.  0.
    3000022    2    5    5    0    0 -0.84464552336E+01 -0.50453183241E+02 -0.13824497096E+02  0.52990994702E+02  0.24998876472E+00 0.  0.
        -13    1    4    4    0    0  0.97851252192E-01  0.46252070988E+01  0.40446748690E+01  0.61459364925E+01  0.10500000000E+00 0.  1.
         13    1    4    4    0    0  0.32995211882E-01  0.19387756339E+01  0.16149013600E+01  0.25256426994E+01  0.10500000000E+00 0. -1.
    3000001    1    5    5    0    0 -0.34845534983E+00 -0.73063419415E+01 -0.59930904473E+01  0.95090055635E+01  0.10000000000E+01 0.  1.
        -13    1    6    6    0    0 -0.24425406066E+01 -0.14754214174E+02 -0.40770068720E+01  0.15501156426E+02  0.10500000000E+00 0. -1.
         13    1    6    6    0    0 -0.60039146270E+01 -0.35698969067E+02 -0.97474902240E+01  0.37489838276E+02  0.10500000000E+00 0.  1.
</event>
<event>
11    0  0.3462209E-009  0.9118800E+02  0.7816531E-02  0.1126479E+00
         25   -1    0    0    0    0  0.00000000000E+00  0.00000000000E+00  0.99999998245E-14  0.12500000000E+03  0.12500000000E+03 0.  0.
    3000001    1    3    3    0    0  0.36964843289E+02  0.15785088998E+02 -0.42909313596E+00  0.40208864631E+02  0.10000000000E+01 0. -1.
    1000022    2    1    0    0    0  0.58418232137E+02  0.19055775153E+02 -0.55170113700E+01  0.62499999231E+02  0.10000003836E+02 0.  0.
    3000022    2    3    3    0    0  0.21453388849E+02  0.32706861545E+01 -0.50879182341E+01  0.22291134600E+02  0.24997754360E+00 0.  0.
    1000022    2    1    0    0    0 -0.58418232137E+02 -0.19055775153E+02  0.55170113700E+01  0.62500000769E+02  0.10000013446E+02 0.  0.
    3000022    2    5    5    0    0 -0.41568792897E+02 -0.16548507646E+02  0.73331629842E+01  0.45339336453E+02  0.25000489091E+00 0.  0.
        -13    1    4    4    0    0  0.12908138081E+02  0.19895537660E+01 -0.31227022870E+01  0.13429097046E+02  0.10500000000E+00 0. -1.
         13    1    4    4    0    0  0.85452507682E+01  0.12811323885E+01 -0.19652159471E+01  0.88620375539E+01  0.10500000000E+00 0.  1.
    3000001    1    5    5    0    0 -0.16849439240E+02 -0.25072675068E+01 -0.18161516142E+01  0.17160664316E+02  0.10000000000E+01 0. -1.
        -13    1    6    6    0    0 -0.27529260813E+02 -0.10981693414E+02  0.49086459071E+01  0.30042696630E+02  0.10500000000E+00 0.  1.
         13    1    6    6    0    0 -0.14039532084E+02 -0.55668142319E+01  0.24245170771E+01  0.15296639824E+02  0.10500000000E+00 0. -1.
</event>
<event>
11    0  0.3462209E-009  0.9118800E+02  0.7816531E-02  0.1126479E+00
         25   -1    0    0    0    0  0.00000000000E+00  0.00000000000E+00  0.99999998245E-14  0.12500000000E+03  0.12500000000E+03 0.  0.
    3000001    1    3    3    0    0  0.14646969108E+02  0.49333322731E+01  0.53730839924E+01  0.16393337151E+02  0.10000000000E+01 0.  1.
    1000022    2    1    0    0    0  0.47305549732E+02  0.19406173342E+02  0.34522969097E+02  0.62499999737E+02  0.99999986310E+01 0.  0.
    3000022    2    3    3    0    0  0.32658580625E+02  0.14472841069E+02  0.29149885105E+02  0.46106662586E+02  0.25003239918E+00 0.  0.
    1000022    2    1    0    0    0 -0.47305549732E+02 -0.19406173342E+02 -0.34522969097E+02  0.62500000263E+02  0.10000001916E+02 0.  0.
    3000022    2    5    5    0    0 -0.21024992087E+02 -0.33730107259E+01 -0.13767468976E+02  0.25358099411E+02  0.25002021588E+00 0.  0.
        -13    1    4    4    0    0  0.24236872121E+02  0.10769874675E+02  0.21661330964E+02  0.34243838203E+02  0.10500000000E+00 0.  1.
         13    1    4    4    0    0  0.84217085035E+01  0.37029663939E+01  0.74885541411E+01  0.11862824384E+02  0.10500000000E+00 0. -1.
    3000001    1    5    5    0    0 -0.26280557645E+02 -0.16033162616E+02 -0.20755500121E+02  0.37141900852E+02  0.10000000000E+01 0. -1.
        -13    1    6    6    0    0 -0.94121609667E+01 -0.14448886694E+01 -0.61771944336E+01  0.11351001427E+02  0.10500000000E+00 0. -1.
         13    1    6    6    0    0 -0.11612831120E+02 -0.19281220565E+01 -0.75902745425E+01  0.14007097983E+02  0.10500000000E+00 0.  1.
</event>
<event>
11    0  0.3462209E-009  0.9118800E+02  0.7816531E-02  0.1126479E+00
         25   -1    0    0    0    0  0.00000000000E+00  0.00000000000E+00  0.99999998245E-14  0.12500000000E+03  0.12500000000E+03 0.  0.
    3000001    1    3    3    0    0  0.13639225156E+02  0.21253379428E+02 -0.82920532943E+01  0.26598735831E+02  0.10000000000E+01 0.  1.
    1000022    2    1    0    0    0  0.37108104431E+02  0.41912072103E+02 -0.25934855453E+02  0.62500001064E+02  0.10000010164E+02 0.  0.
    3000022    2    3    3    0    0  0.23468879275E+02  0.20658692675E+02 -0.17642802159E+02  0.35901265234E+02  0.24999983497E+00 0.  0.
    1000022    2    1    0    0    0 -0.37108104431E+02 -0.41912072103E+02  0.25934855453E+02  0.62499998936E+02  0.99999968590E+01 0.  0.
    3000022    2    5    5    0    0 -0.18309669683E+02 -0.27980556135E+02  0.14810005768E+02  0.36572589373E+02  0.24999409347E+00 0.  0.
        -13    1    4    4    0    0  0.15663977593E+02  0.13838326171E+02 -0.11837135502E+02  0.24020580074E+02  0.10500000000E+00 0.  1.
         13    1    4    4    0    0  0.78049016820E+01  0.68203665046E+01 -0.58056666571E+01  0.11880685159E+02  0.10500000000E+00 0. -1.
    3000001    1    5    5    0    0 -0.18798434748E+02 -0.13931515968E+02  0.11124849685E+02  0.25927409563E+02  0.10000000000E+01 0.  1.
        -13    1    6    6    0    0 -0.96581227423E+01 -0.14727252408E+02  0.78714171218E+01  0.19290970191E+02  0.10500000000E+00 0.  1.
         13    1    6    6    0    0 -0.86515469406E+01 -0.13253303727E+02  0.69385886461E+01  0.17281619182E+02  0.10500000000E+00 0. -1.
</event>
<event>
11    0  0.3462209E-009  0.9118800E+02  0.7816531E-02  0.1126479E+00
         25   -1    0    0    0    0  0.00000000000E+00  0.00000000000E+00  0.99999998245E-14  0.12500000000E+03  0.12500000000E+03 0.  0.
    3000001    1    3    3    0    0 -0.31124557623E+02 -0.14739141285E+02  0.91836238022E+01  0.35655565052E+02  0.10000000000E+01 0. -1.
    1000022    2    1    0    0    0 -0.57134964346E+02 -0.17695524626E+02  0.15123301080E+02  0.62500000817E+02  0.10000006196E+02 0.  0.
    3000022    2    3    3    0    0 -0.26010406724E+02 -0.29563833416E+01  0.59396772782E+01  0.26844435765E+02  0.25000999818E+00 0.  0.
    1000022    2    1    0    0    0  0.57134964346E+02  0.17695524626E+02 -0.15123301080E+02  0.62499999183E+02  0.99999959814E+01 0.  0.
    3000022    2    5    5    0    0  0.53885458350E+02  0.18723451040E+02 -0.13662860972E+02  0.58659581596E+02  0.25000525365E+00 0.  0.
        -13    1    4    4    0    0 -0.19439220020E+02 -0.21940791692E+01  0.44624955628E+01  0.20065446670E+02  0.10500000000E+00 0. -1.
         13    1    4    4    0    0 -0.65711867034E+01 -0.76230417234E+00  0.14771817154E+01  0.67789890959E+01  0.10500000000E+00 0.  1.
    3000001    1    5    5    0    0  0.32495059963E+01 -0.10279264137E+01 -0.14604401082E+01  0.38404175869E+01  0.10000000000E+01 0. -1.
        -13    1    6    6    0    0  0.27545529021E+02  0.95038218584E+01 -0.70029835698E+01  0.29968843869E+02  0.10500000000E+00 0. -1.
         13    1    6    6    0    0  0.26339929329E+02  0.92196291815E+01 -0.66598774024E+01  0.28690737727E+02  0.10500000000E+00 0.  1.
</event>
<event>
11    0  0.3462209E-009  0.9118800E+02  0.7816531E-02  0.1126479E+00
         25   -1    0    0    0    0  0.00000000000E+00  0.00000000000E+00  0.99999998245E-14  0.12500000000E+03  0.12500000000E+03 0.  0.
    3000001    1    3    3    0    0  0.75195904312E+01 -0.10306513452E+02 -0.21413183317E+02  0.24945798836E+02  0.10000000000E+01 0. -1.
    1000022    2    1    0    0    0  0.19705859591E+02 -0.14143421474E+02 -0.56726473752E+02  0.62499999496E+02  0.99999919669E+01 0.  0.
    3000022    2    3    3    0    0  0.12186269160E+02 -0.38369080224E+01 -0.35313290435E+02  0.37554200660E+02  0.24997321716E+00 0.  0.
    1000022    2    1    0    0    0 -0.19705859591E+02  0.14143421474E+02  0.56726473752E+02  0.62500000504E+02  0.99999982728E+01 0.  0.
    3000022    2    5    5    0    0 -0.68984057842E+01  0.70160378482E+01  0.34345879377E+02  0.35728346186E+02  0.25000305796E+00 0.  0.
        -13    1    4    4    0    0  0.67199049743E+01 -0.21055491335E+01 -0.19270147555E+02  0.20516824116E+02  0.10500000000E+00 0.  1.
         13    1    4    4    0    0  0.54663641859E+01 -0.17313588889E+01 -0.16043142880E+02  0.17037376543E+02  0.10500000000E+00 0. -1.
    3000001    1    5    5    0    0 -0.12807453807E+02  0.71273836263E+01  0.22380594375E+02  0.26771654319E+02  0.10000000000E+01 0.  1.
        -13    1    6    6    0    0 -0.41127499921E+01  0.41095475891E+01  0.20429876916E+02  0.21241327400E+02  0.10500000000E+00 0. -1.
         13    1    6    6    0    0 -0.27856557922E+01  0.29064902591E+01  0.13916002461E+02  0.14487018786E+02  0.10500000000E+00 0.  1.
</event>
<event>
11    0  0.3462209E-009  0.9118800E+02  0.7816531E-02  0.1126479E+00
         25   -1    0    0    0    0  0.00000000000E+00  0.00000000000E+00  0.99999998245E-14  0.12500000000E+03  0.12500000000E+03 0.  0.
    3000001    1    3    3    0    0  0.67387030335E+01 -0.28052829051E+01 -0.41841365991E+01  0.84727049891E+01  0.10000000000E+01 0.  1.
    1000022    2    1    0    0    0  0.31927944302E+02 -0.34558704908E+02 -0.39906794551E+02  0.62499998836E+02  0.99999945408E+01 0.  0.
    3000022    2    3    3    0    0  0.25189241268E+02 -0.31753422003E+02 -0.35722657952E+02  0.54027293847E+02  0.25000926177E+00 0.  0.
    1000022    2    1    0    0    0 -0.31927944302E+02  0.34558704908E+02  0.39906794551E+02  0.62500001164E+02  0.10000009095E+02 0.  0.
    3000022    2    5    5    0    0 -0.31829874862E+02  0.31259497300E+02  0.37663609630E+02  0.58385846688E+02  0.24999603647E+00 0.  0.
        -13    1    4    4    0    0  0.16523940455E+02 -0.20828905133E+02 -0.23506794614E+02  0.35488932292E+02  0.10500000000E+00 0. -1.
         13    1    4    4    0    0  0.86653008133E+01 -0.10924516870E+02 -0.12215863339E+02  0.18538361555E+02  0.10500000000E+00 0.  1.
    3000001    1    5    5    0    0 -0.98069439610E-01  0.32992076084E+01  0.22431849219E+01  0.41141544760E+01  0.10000000000E+01 0.  1.
        -13    1    6    6    0    0 -0.12510074769E+02  0.12341999484E+02  0.14898896882E+02  0.23039424370E+02  0.10500000000E+00 0. -1.
         13    1    6    6    0    0 -0.19319800093E+02  0.18917497815E+02  0.22764712747E+02  0.35346422318E+02  0.10500000000E+00 0.  1.
</event>
<event>
11    0  0.3462209E-009  0.9118800E+02  0.7816531E-02  0.1126479E+00
         25   -1    0    0    0    0  0.00000000000E+00  0.00000000000E+00  0.99999998245E-14  0.12500000000E+03  0.12500000000E+03 0.  0.
    3000001    1    3    3    0    0  0.31221102430E+01 -0.61190343708E+00  0.25162200276E+01  0.41777220363E+01  0.10000000000E+01 0.  1.
    1000022    2    1    0    0    0  0.29071488550E+02  0.16855512294E+02  0.51739637857E+02  0.62500000859E+02  0.10000012033E+02 0.  0.
    3000022    2    3    3    0    0  0.25949378307E+02  0.17467415731E+02  0.49223417829E+02  0.58322278823E+02  0.24999494219E+00 0.  0.
    1000022    2    1    0    0    0 -0.29071488550E+02 -0.16855512294E+02 -0.51739637857E+02  0.62499999141E+02  0.10000001296E+02 0.  0.
    3000022    2    5    5    0    0 -0.16471071051E+02 -0.13480352401E+02 -0.37810496257E+02  0.43390231713E+02  0.24999698974E+00 0.  0.
        -13    1    4    4    0    0  0.10158996199E+02  0.67925995090E+01  0.19322286405E+02  0.22862772990E+02  0.10500000000E+00 0.  1.
         13    1    4    4    0    0  0.15790382107E+02  0.10674816222E+02  0.29901131424E+02  0.35459505833E+02  0.10500000000E+00 0. -1.
    3000001    1    5    5    0    0 -0.12600417499E+02 -0.33751598929E+01 -0.13929141600E+02  0.19109767428E+02  0.10000000000E+01 0. -1.
        -13    1    6    6    0    0 -0.50737740127E+01 -0.41072228034E+01 -0.11531634621E+02  0.13251493649E+02  0.10500000000E+00 0.  1.
         13    1    6    6    0    0 -0.11397297038E+02 -0.93731295973E+01 -0.26278861635E+02  0.30138738064E+02  0.10500000000E+00 0. -1.
</event>
<event>
11    0  0.3462209E-009  0.9118800E+02  0.7816531E-02  0.1126479E+00
         25   -1    0    0    0    0  0.00000000000E+00  0.00000000000E+00  0.99999998245E-14  0.12500000000E+03  0.12500000000E+03 0.  0.
    3000001    1    3    3    0    0 -0.38515274425E+02 -0.10122771527E+02  0.27591218985E+01  0.39931311287E+02  0.10000000000E+01 0. -1.
    1000022    2    1    0    0    0 -0.58300556831E+02 -0.20129649056E+02 -0.14466182598E+01  0.62500000830E+02  0.99999850770E+01 0.  0.
    3000022    2    3    3    0    0 -0.19785282405E+02 -0.10006877529E+02 -0.42057401582E+01  0.22568689544E+02  0.24999939382E+00 0.  0.
    1000022    2    1    0    0    0  0.58300556831E+02  0.20129649056E+02  0.14466182598E+01  0.62499999170E+02  0.99999746968E+01 0.  0.
    3000022    2    5    5    0    0  0.34610003316E+02  0.13519213293E+02 -0.37346509723E+01  0.37344766361E+02  0.24999814565E+00 0.  0.
        -13    1    4    4    0    0 -0.71237144798E+01 -0.35381003600E+01 -0.15088595397E+01  0.80964896256E+01  0.10500000000E+00 0.  1.
         13    1    4    4    0    0 -0.12661567926E+02 -0.64687771689E+01 -0.26968806185E+01  0.14472199918E+02  0.10500000000E+00 0. -1.
    3000001    1    5    5    0    0  0.23690553515E+02  0.66104357633E+01  0.51812692321E+01  0.25155232809E+02  0.10000000000E+01 0. -1.
        -13    1    6    6    0    0  0.10417332946E+02  0.40354696282E+01 -0.11566978766E+01  0.11231866087E+02  0.10500000000E+00 0.  1.
         13    1    6    6    0    0  0.24192670370E+02  0.94837436647E+01 -0.25779530957E+01  0.26112900273E+02  0.10500000000E+00 0. -1.
</event>
<event>
11    0  0.3462209E-009  0.9118800E+02  0.7816531E-02  0.1126479E+00
         25   -1    0    0    0    0  0.00000000000E+00  0.00000000000E+00  0.99999998245E-14  0.12500000000E+03  0.12500000000E+03 0.  0.
    3000001    1    3    3    0    0 -0.34442150449E+00  0.14445071474E+01  0.21285569073E+00  0.18029239076E+01  0.10000000000E+01 0. -1.
    1000022    2    1    0    0    0 -0.73651633696E+01  0.47086278508E+02 -0.39177626205E+02  0.62499996885E+02  0.99999980167E+01 0.  0.
    3000022    2    3    3    0    0 -0.70207418651E+01  0.45641771360E+02 -0.39390481896E+02  0.60697072977E+02  0.24998946739E+00 0.  0.
    1000022    2    1    0    0    0  0.73651633696E+01 -0.47086278508E+02  0.39177626205E+02  0.62500003115E+02  0.10000036960E+02 0.  0.
    3000022    2    5    5    0    0 -0.95087996839E+00 -0.65446970869E+01  0.21493716927E+01  0.69584147951E+01  0.25001022790E+00 0.  0.
        -13    1    4    4    0    0 -0.38291313415E+01  0.24518689932E+02 -0.21121087160E+02  0.32587417060E+02  0.10500000000E+00 0.  1.
         13    1    4    4    0    0 -0.31916105237E+01  0.21123081428E+02 -0.18269394736E+02  0.28109655917E+02  0.10500000000E+00 0. -1.
    3000001    1    5    5    0    0  0.83160433380E+01 -0.40541581421E+02  0.37028254513E+02  0.55541588320E+02  0.10000000000E+01 0. -1.
        -13    1    6    6    0    0 -0.67688314318E+00 -0.44748569450E+01  0.15146627210E+01  0.47736509745E+01  0.10500000000E+00 0. -1.
         13    1    6    6    0    0 -0.27399682522E+00 -0.20698401419E+01  0.63470897165E+00  0.21847638207E+01  0.10500000000E+00 0.  1.
</event>
<event>
11    0  0.3462209E-009  0.9118800E+02  0.7816531E-02  0.1126479E+00
         25   -1    0    0    0    0  0.00000000000E+00  0.00000000000E+00  0.99999998245E-14  0.12500000000E+03  0.12500000000E+03 0.  0.
    3000001    1    3    3    0    0 -0.36342208017E+02  0.17312836781E+01 -0.17299304222E+02  0.40299123480E+02  0.10000000000E+01 0.  1.
    1000022    2    1    0    0    0 -0.52249557602E+02  0.13355403155E+01 -0.32778825108E+02  0.62499989485E+02  0.99998686288E+01 0.  0.
    3000022    2    3    3    0    0 -0.15907349586E+02 -0.39574336258E+00 -0.15479520887E+02  0.22200866005E+02  0.25000170236E+00 0.  0.
    1000022    2    1    0    0    0  0.52249557602E+02 -0.13355403155E+01  0.32778825108E+02  0.62500010515E+02  0.10000000069E+02 0.  0.
    3000022    2    5    5    0    0  0.48112638965E+02 -0.21923086488E+01  0.26819424790E+02  0.55126910764E+02  0.24999794366E+00 0.  0.
        -13    1    4    4    0    0 -0.10794932898E+02 -0.29053559128E+00 -0.10568732998E+02  0.15110398055E+02  0.10500000000E+00 0.  1.
         13    1    4    4    0    0 -0.51124166873E+01 -0.10520777129E+00 -0.49107878889E+01  0.70904679500E+01  0.10500000000E+00 0. -1.
    3000001    1    5    5    0    0  0.41369186372E+01  0.85676833325E+00  0.59594003177E+01  0.73730997507E+01  0.10000000000E+01 0.  1.
        -13    1    6    6    0    0  0.24622117277E+02 -0.11002086923E+01  0.13651077593E+02  0.28174848053E+02  0.10500000000E+00 0.  1.
         13    1    6    6    0    0  0.23490521687E+02 -0.10920999565E+01  0.13168347198E+02  0.26952062711E+02  0.10500000000E+00 0. -1.
</event>
<event>
11    0  0.3462209E-009  0.9118800E+02  0.7816531E-02  0.1126479E+00
         25   -1    0    0    0    0  0.00000000000E+00  0.00000000000E+00  0.99999998245E-14  0.12500000000E+03  0.12500000000E+03 0.  0.
    3000001    1    3    3    0    0 -0.17548316241E+02 -0.36629708294E+02 -0.18958479418E-01  0.40628552670E+02  0.10000000000E+01 0. -1.
    1000022    2    1    0    0    0 -0.20201091704E+02 -0.58268365433E+02  0.17214284392E+01  0.62499998284E+02  0.99999976689E+01 0.  0.
    3000022    2    3    3    0    0 -0.26527754636E+01 -0.21638657139E+02  0.17403869186E+01  0.21871445614E+02  0.24997243243E+00 0.  0.
    1000022    2    1    0    0    0  0.20201091704E+02  0.58268365433E+02 -0.17214284392E+01  0.62500001716E+02  0.10000019116E+02 0.  0.
    3000022    2    5    5    0    0  0.17795438843E+02  0.53423686649E+02 -0.42002107273E+01  0.56466558268E+02  0.24998730144E+00 0.  0.
        -13    1    4    4    0    0 -0.16621955464E+01 -0.13485604050E+02  0.11446263061E+01  0.13636187334E+02  0.10500000000E+00 0. -1.
         13    1    4    4    0    0 -0.99057991714E+00 -0.81530530889E+01  0.59576061250E+00  0.82352582807E+01  0.10500000000E+00 0.  1.
    3000001    1    5    5    0    0  0.24056528612E+01  0.48446787838E+01  0.24787822882E+01  0.60334434479E+01  0.10000000000E+01 0.  1.
        -13    1    6    6    0    0  0.65606521222E+01  0.19680451795E+02 -0.16066889102E+01  0.20807566253E+02  0.10500000000E+00 0.  1.
         13    1    6    6    0    0  0.11234786721E+02  0.33743234855E+02 -0.25935218171E+01  0.35658992015E+02  0.10500000000E+00 0. -1.
</event>
<event>
11    0  0.3462209E-009  0.9118800E+02  0.7816531E-02  0.1126479E+00
         25   -1    0    0    0    0  0.00000000000E+00  0.00000000000E+00  0.99999998245E-14  0.12500000000E+03  0.12500000000E+03 0.  0.
    3000001    1    3    3    0    0  0.86911340316E+00  0.20495696826E+02 -0.22588127506E+02  0.30529534073E+02  0.10000000000E+01 0.  1.
    1000022    2    1    0    0    0  0.80805712108E+01  0.35053106452E+02 -0.50122194039E+02  0.62499998744E+02  0.99999802372E+01 0.  0.
    3000022    2    3    3    0    0  0.72114578076E+01  0.14557409626E+02 -0.27534066532E+02  0.31970464671E+02  0.24998546703E+00 0.  0.
    1000022    2    1    0    0    0 -0.80805712108E+01 -0.35053106452E+02  0.50122194039E+02  0.62500001256E+02  0.99999959377E+01 0.  0.
    3000022    2    5    5    0    0 -0.37972267364E+01 -0.16066208788E+02  0.14874540630E+02  0.22222881280E+02  0.24999543328E+00 0.  0.
        -13    1    4    4    0    0  0.45790584970E+01  0.93551605106E+01 -0.17592981309E+02  0.20445312940E+02  0.10500000000E+00 0.  1.
         13    1    4    4    0    0  0.26323993106E+01  0.52022491153E+01 -0.99410852237E+01  0.11525151731E+02  0.10500000000E+00 0. -1.
    3000001    1    5    5    0    0 -0.42833444744E+01 -0.18986897664E+02  0.35247653408E+02  0.40277119976E+02  0.10000000000E+01 0.  1.
        -13    1    6    6    0    0 -0.17976853487E+01 -0.74282105916E+01  0.69578088066E+01  0.10335962151E+02  0.10500000000E+00 0.  1.
         13    1    6    6    0    0 -0.19995413878E+01 -0.86379981961E+01  0.79167318238E+01  0.11886919128E+02  0.10500000000E+00 0. -1.
</event>
<event>
11    0  0.3462209E-009  0.9118800E+02  0.7816531E-02  0.1126479E+00
         25   -1    0    0    0    0  0.00000000000E+00  0.00000000000E+00  0.99999998245E-14  0.12500000000E+03  0.12500000000E+03 0.  0.
    3000001    1    3    3    0    0  0.27248859633E+02  0.45096802247E+02 -0.62057675927E+01  0.53063485332E+02  0.10000000000E+01 0.  1.
    1000022    2    1    0    0    0  0.32016580173E+02  0.51537741834E+02 -0.11182560586E+02  0.62500001161E+02  0.10000012224E+02 0.  0.
    3000022    2    3    3    0    0  0.47677205396E+01  0.64409395876E+01 -0.49767929938E+01  0.94365158285E+01  0.25000112907E+00 0.  0.
    1000022    2    1    0    0    0 -0.32016580173E+02 -0.51537741834E+02  0.11182560586E+02  0.62499998839E+02  0.99999977165E+01 0.  0.
    3000022    2    5    5    0    0 -0.22360448782E+01 -0.14786612940E+01 -0.11912266797E+01  0.29441222338E+01  0.24999761008E+00 0.  0.
        -13    1    4    4    0    0  0.20505718199E+01  0.26809406453E+01 -0.21402043494E+01  0.39979728850E+01  0.10500000000E+00 0. -1.
         13    1    4    4    0    0  0.27171487197E+01  0.37599989423E+01 -0.28365886444E+01  0.54385429435E+01  0.10500000000E+00 0.  1.
    3000001    1    5    5    0    0 -0.29780535294E+02 -0.50059080540E+02  0.12373787266E+02  0.59555876606E+02  0.10000000000E+01 0.  1.
        -13    1    6    6    0    0 -0.15286611825E+01 -0.10253297373E+01 -0.76359767885E+00  0.19955481694E+01  0.10500000000E+00 0.  1.
         13    1    6    6    0    0 -0.70738369572E+00 -0.45333155669E+00 -0.42762900088E+00  0.94857406440E+00  0.10500000000E+00 0. -1.
</event>
<event>
11    0  0.3462209E-009  0.9118800E+02  0.7816531E-02  0.1126479E+00
         25   -1    0    0    0    0  0.00000000000E+00  0.00000000000E+00  0.99999998245E-14  0.12500000000E+03  0.12500000000E+03 0.  0.
    3000001    1    3    3    0    0  0.12586231523E+02 -0.47319263303E+02  0.34722627350E+02  0.60034879475E+02  0.10000000000E+01 0.  1.
    1000022    2    1    0    0    0  0.11154875185E+02 -0.48830628927E+02  0.36019259131E+02  0.62499988161E+02  0.99999964992E+01 0.  0.
    3000022    2    3    3    0    0 -0.14313563381E+01 -0.15113656237E+01  0.12966317813E+01  0.24651086860E+01  0.24999968447E+00 0.  0.
    1000022    2    1    0    0    0 -0.11154875185E+02  0.48830628927E+02 -0.36019259131E+02  0.62500011839E+02  0.10000144485E+02 0.  0.
    3000022    2    5    5    0    0 -0.10928868247E+02  0.27032618611E+02 -0.22483432317E+02  0.36820780145E+02  0.24998316592E+00 0.  0.
        -13    1    4    4    0    0 -0.59607010590E+00 -0.67090068022E+00  0.49054118803E+00  0.10281356676E+01  0.10500000000E+00 0. -1.
         13    1    4    4    0    0 -0.83528623220E+00 -0.84046494351E+00  0.80609059325E+00  0.14369730184E+01  0.10500000000E+00 0.  1.
    3000001    1    5    5    0    0 -0.22600693837E+00  0.21798010316E+02 -0.13535826814E+02  0.25679231694E+02  0.10000000000E+01 0. -1.
        -13    1    6    6    0    0 -0.62902638505E+01  0.15391482900E+02 -0.12797255334E+02  0.20982038372E+02  0.10500000000E+00 0.  1.
         13    1    6    6    0    0 -0.46386043960E+01  0.11641135711E+02 -0.96861769829E+01  0.15838741772E+02  0.10500000000E+00 0. -1.
</event>
<event>
11    0  0.3462209E-009  0.9118800E+02  0.7816531E-02  0.1126479E+00
         25   -1    0    0    0    0  0.00000000000E+00  0.00000000000E+00  0.99999998245E-14  0.12500000000E+03  0.12500000000E+03 0.  0.
    3000001    1    3    3    0    0 -0.33224386283E+01  0.30280961616E+02  0.33076852882E+02  0.44978366260E+02  0.10000000000E+01 0. -1.
    1000022    2    1    0    0    0 -0.10514883255E+02  0.40237079057E+02  0.45570435191E+02  0.62499999395E+02  0.10000003002E+02 0.  0.
    3000022    2    3    3    0    0 -0.71924446263E+01  0.99561174410E+01  0.12493582309E+02  0.17521633135E+02  0.24998925034E+00 0.  0.
    1000022    2    1    0    0    0  0.10514883255E+02 -0.40237079057E+02 -0.45570435191E+02  0.62500000605E+02  0.10000010560E+02 0.  0.
    3000022    2    5    5    0    0  0.38860724891E+01 -0.28766866523E+02 -0.26837329368E+02  0.39534022256E+02  0.24999837757E+00 0.  0.
        -13    1    4    4    0    0 -0.31763936063E+01  0.44577135674E+01  0.54879421667E+01  0.77517237320E+01  0.10500000000E+00 0. -1.
         13    1    4    4    0    0 -0.40160510200E+01  0.54984038736E+01  0.70056401420E+01  0.97699094035E+01  0.10500000000E+00 0.  1.
    3000001    1    5    5    0    0  0.66288107656E+01 -0.11470212534E+02 -0.18733105823E+02  0.22965978349E+02  0.10000000000E+01 0. -1.
        -13    1    6    6    0    0  0.27581958383E+01 -0.20071363000E+02 -0.18728779583E+02  0.27590677169E+02  0.10500000000E+00 0.  1.
         13    1    6    6    0    0  0.11278766507E+01 -0.86955035228E+01 -0.81085497847E+01  0.11943345087E+02  0.10500000000E+00 0. -1.
</event>
<event>
11    0  0.3462209E-009  0.9118800E+02  0.7816531E-02  0.1126479E+00
         25   -1    0    0    0    0  0.00000000000E+00  0.00000000000E+00  0.99999998245E-14  0.12500000000E+03  0.12500000000E+03 0.  0.
    3000001    1    3    3    0    0 -0.36366343668E+01  0.11940464564E+02  0.88694346067E+01  0.15344923387E+02  0.10000000000E+01 0.  1.
    1000022    2    1    0    0    0 -0.13507845023E+02  0.56452032706E+02  0.20903489162E+02  0.62500002281E+02  0.10000027612E+02 0.  0.
    3000022    2    3    3    0    0 -0.98712106559E+01  0.44511568142E+02  0.12034054555E+02  0.47155078894E+02  0.24999640369E+00 0.  0.
    1000022    2    1    0    0    0  0.13507845023E+02 -0.56452032706E+02 -0.20903489162E+02  0.62499997719E+02  0.99999990951E+01 0.  0.
    3000022    2    5    5    0    0  0.47469029639E+01 -0.83393016198E+01 -0.85590495275E+00  0.96370179413E+01  0.25000451418E+00 0.  0.
        -13    1    4    4    0    0 -0.55539884761E+01  0.24876210770E+02  0.67847862621E+01  0.26376447825E+02  0.10500000000E+00 0. -1.
         13    1    4    4    0    0 -0.43172221798E+01  0.19635357372E+02  0.52492682933E+01  0.20778631069E+02  0.10500000000E+00 0.  1.
    3000001    1    5    5    0    0  0.87609420588E+01 -0.48112731086E+02 -0.20047584209E+02  0.52862979777E+02  0.10000000000E+01 0.  1.
        -13    1    6    6    0    0  0.26456783716E+01 -0.46724032084E+01 -0.54421393372E+00  0.53979773613E+01  0.10500000000E+00 0. -1.
         13    1    6    6    0    0  0.21012245923E+01 -0.36668984114E+01 -0.31169101903E+00  0.42390405799E+01  0.10500000000E+00 0.  1.
</event>
<event>
11    0  0.3462209E-009  0.9118800E+02  0.7816531E-02  0.1126479E+00
         25   -1    0    0    0    0  0.00000000000E+00  0.00000000000E+00  0.99999998245E-14  0.12500000000E+03  0.12500000000E+03 0.  0.
    3000001    1    3    3    0    0 -0.15868887807E+02  0.11441362025E+02 -0.38508818875E+02  0.43204808718E+02  0.10000000000E+01 0.  1.
    1000022    2    1    0    0    0 -0.21178261199E+02  0.22503522958E+02 -0.53397777471E+02  0.62500001367E+02  0.10000011950E+02 0.  0.
    3000022    2    3    3    0    0 -0.53093733920E+01  0.11062160933E+02 -0.14888958597E+02  0.19295192649E+02  0.25004186758E+00 0.  0.
    1000022    2    1    0    0    0  0.21178261199E+02 -0.22503522958E+02  0.53397777471E+02  0.62499998633E+02  0.99999948686E+01 0.  0.
    3000022    2    5    5    0    0  0.14544626595E+02 -0.86748629229E+01  0.31194173849E+02  0.35495610837E+02  0.24999415201E+00 0.  0.
        -13    1    4    4    0    0 -0.29452213234E+01  0.62423409340E+01 -0.82999653766E+01  0.10795443448E+02  0.10500000000E+00 0. -1.
         13    1    4    4    0    0 -0.23641520686E+01  0.48198199989E+01 -0.65889932202E+01  0.84997492011E+01  0.10500000000E+00 0.  1.
    3000001    1    5    5    0    0  0.66336346041E+01 -0.13828660035E+02  0.22203603622E+02  0.27004387796E+02  0.10000000000E+01 0.  1.
        -13    1    6    6    0    0  0.54957592082E+01 -0.32363175775E+01  0.11646377153E+02  0.13278789347E+02  0.10500000000E+00 0. -1.
         13    1    6    6    0    0  0.90488673866E+01 -0.54385453454E+01  0.19547796696E+02  0.22216821490E+02  0.10500000000E+00 0.  1.
</event>
<event>
11    0  0.3462209E-009  0.9118800E+02  0.7816531E-02  0.1126479E+00
         25   -1    0    0    0    0  0.00000000000E+00  0.00000000000E+00  0.99999998245E-14  0.12500000000E+03  0.12500000000E+03 0.  0.
    3000001    1    3    3    0    0  0.13757124923E+02  0.81151255511E+01  0.44823127522E+02  0.47594395781E+02  0.10000000000E+01 0.  1.
    1000022    2    1    0    0    0  0.22764042829E+02  0.11770101430E+02  0.56120522769E+02  0.62500000758E+02  0.10000004270E+02 0.  0.
    3000022    2    3    3    0    0  0.90069179059E+01  0.36549758788E+01  0.11297395247E+02  0.14905604978E+02  0.25000312859E+00 0.  0.
    1000022    2    1    0    0    0 -0.22764042829E+02 -0.11770101430E+02 -0.56120522769E+02  0.62499999242E+02  0.99999947894E+01 0.  0.
    3000022    2    5    5    0    0 -0.18427635880E+02 -0.11456179256E+02 -0.37253818972E+02  0.43113006579E+02  0.25000200158E+00 0.  0.
        -13    1    4    4    0    0  0.69372917951E+01  0.28158549767E+01  0.86902740156E+01  0.11471135261E+02  0.10500000000E+00 0. -1.
         13    1    4    4    0    0  0.20696261108E+01  0.83912090207E+00  0.26071212309E+01  0.34344697173E+01  0.10500000000E+00 0.  1.
    3000001    1    5    5    0    0 -0.43364069487E+01 -0.31392217427E+00 -0.18866703796E+02  0.19386992662E+02  0.10000000000E+01 0.  1.
        -13    1    6    6    0    0 -0.12031460798E+02 -0.74975758690E+01 -0.24445547665E+02  0.28258901580E+02  0.10500000000E+00 0. -1.
         13    1    6    6    0    0 -0.63961750825E+01 -0.39586033866E+01 -0.12808271307E+02  0.14854104999E+02  0.10500000000E+00 0.  1.
</event>
<event>
11    0  0.3462209E-009  0.9118800E+02  0.7816531E-02  0.1126479E+00
         25   -1    0    0    0    0  0.00000000000E+00  0.00000000000E+00  0.99999998245E-14  0.12500000000E+03  0.12500000000E+03 0.  0.
    3000001    1    3    3    0    0  0.15874929306E+02  0.20159813093E+02  0.17963645950E+02  0.31338857992E+02  0.10000000000E+01 0. -1.
    1000022    2    1    0    0    0  0.27987484438E+02  0.34390368955E+02  0.42898182861E+02  0.62499993110E+02  0.99999142003E+01 0.  0.
    3000022    2    3    3    0    0  0.12112555132E+02  0.14230555862E+02  0.24934536911E+02  0.31161135119E+02  0.24999790332E+00 0.  0.
    1000022    2    1    0    0    0 -0.27987484438E+02 -0.34390368955E+02 -0.42898182861E+02  0.62500006890E+02  0.10000000323E+02 0.  0.
    3000022    2    5    5    0    0 -0.79600857812E+01 -0.81677604451E+01 -0.56541009370E+01  0.12732110286E+02  0.24999719695E+00 0.  0.
        -13    1    4    4    0    0  0.87626005711E+01  0.10333929547E+02  0.18124108950E+02  0.22628911129E+02  0.10500000000E+00 0.  1.
         13    1    4    4    0    0  0.33499545606E+01  0.38966263146E+01  0.68104279610E+01  0.85322239894E+01  0.10500000000E+00 0. -1.
    3000001    1    5    5    0    0 -0.20027398657E+02 -0.26222608510E+02 -0.37244081924E+02  0.49767896604E+02  0.10000000000E+01 0.  1.
        -13    1    6    6    0    0 -0.26887235693E+01 -0.28304976838E+01 -0.19617659008E+01  0.43704121109E+01  0.10500000000E+00 0.  1.
         13    1    6    6    0    0 -0.52713622119E+01 -0.53372627614E+01 -0.36923350362E+01  0.83616981752E+01  0.10500000000E+00 0. -1.
</event>
<event>
11    0  0.3462209E-009  0.9118800E+02  0.7816531E-02  0.1126479E+00
         25   -1    0    0    0    0  0.00000000000E+00  0.00000000000E+00  0.99999998245E-14  0.12500000000E+03  0.12500000000E+03 0.  0.
    3000001    1    3    3    0    0  0.12491366365E+02  0.39437135390E+01  0.16937390384E+02  0.21435071802E+02  0.10000000000E+01 0.  1.
    1000022    2    1    0    0    0  0.30765695095E+02 -0.20930516966E+00  0.53475959947E+02  0.62499998676E+02  0.99999869454E+01 0.  0.
    3000022    2    3    3    0    0  0.18274328731E+02 -0.41530187086E+01  0.36538569563E+02  0.41064926874E+02  0.24999704646E+00 0.  0.
    1000022    2    1    0    0    0 -0.30765695095E+02  0.20930516966E+00 -0.53475959947E+02  0.62500001324E+02  0.10000003494E+02 0.  0.
    3000022    2    5    5    0    0 -0.98509920220E+01  0.16071537080E+01 -0.95385993689E+01  0.13808416427E+02  0.24999889868E+00 0.  0.
        -13    1    4    4    0    0  0.11088565207E+02 -0.24567417238E+01  0.22164222194E+02  0.24904931815E+02  0.10500000000E+00 0.  1.
         13    1    4    4    0    0  0.71857635236E+01 -0.16962769848E+01  0.14374347369E+02  0.16159995059E+02  0.10500000000E+00 0. -1.
    3000001    1    5    5    0    0 -0.20914703073E+02 -0.13978485384E+01 -0.43937360578E+02  0.48691584897E+02  0.10000000000E+01 0.  1.
        -13    1    6    6    0    0 -0.41295001562E+01  0.67703683994E+00 -0.39101058694E+01  0.57280977063E+01  0.10500000000E+00 0.  1.
         13    1    6    6    0    0 -0.57214918658E+01  0.93011686807E+00 -0.56284934995E+01  0.80803187210E+01  0.10500000000E+00 0. -1.
</event>
<event>
11    0  0.3462209E-009  0.9118800E+02  0.7816531E-02  0.1126479E+00
         25   -1    0    0    0    0  0.00000000000E+00  0.00000000000E+00  0.99999998245E-14  0.12500000000E+03  0.12500000000E+03 0.  0.
    3000001    1    3    3    0    0  0.25720671870E+02  0.48824870831E+01  0.21410866328E+02  0.33835142063E+02  0.10000000000E+01 0.  1.
    1000022    2    1    0    0    0  0.43729175393E+02  0.17220982074E+01  0.43486131447E+02  0.62500000117E+02  0.99999991790E+01 0.  0.
    3000022    2    3    3    0    0  0.18008503524E+02 -0.31603888757E+01  0.22075265119E+02  0.28664858054E+02  0.25000028109E+00 0.  0.
    1000022    2    1    0    0    0 -0.43729175393E+02 -0.17220982074E+01 -0.43486131447E+02  0.62499999883E+02  0.99999977177E+01 0.  0.
    3000022    2    5    5    0    0 -0.35752886946E+02 -0.27944928598E+01 -0.29967498459E+02  0.46735335422E+02  0.24999573280E+00 0.  0.
        -13    1    4    4    0    0  0.11717990447E+02 -0.20529062909E+01  0.14451096757E+02  0.18718198280E+02  0.10500000000E+00 0.  1.
         13    1    4    4    0    0  0.62905130766E+01 -0.11074825848E+01  0.76241683622E+01  0.99466597739E+01  0.10500000000E+00 0. -1.
    3000001    1    5    5    0    0 -0.79762884476E+01  0.10723946524E+01 -0.13518632988E+02  0.15764664461E+02  0.10000000000E+01 0. -1.
        -13    1    6    6    0    0 -0.23937065860E+02 -0.19195718043E+01 -0.20094289737E+02  0.31312288050E+02  0.10500000000E+00 0. -1.
         13    1    6    6    0    0 -0.11815821086E+02 -0.87492105551E+00 -0.98732087216E+01  0.15423047372E+02  0.10500000000E+00 0.  1.
</event>
<event>
11    0  0.3462209E-009  0.9118800E+02  0.7816531E-02  0.1126479E+00
         25   -1    0    0    0    0  0.00000000000E+00  0.00000000000E+00  0.99999998245E-14  0.12500000000E+03  0.12500000000E+03 0.  0.
    3000001    1    3    3    0    0 -0.99603620135E+01 -0.39887513459E+02  0.10908854682E+02  0.42546746666E+02  0.10000000000E+01 0. -1.
    1000022    2    1    0    0    0 -0.17688955583E+02 -0.58257542858E+02  0.99704201298E+01  0.62499999502E+02  0.10000010533E+02 0.  0.
    3000022    2    3    3    0    0 -0.77285935693E+01 -0.18370029399E+02 -0.93843455247E+00  0.19953252836E+02  0.25000126155E+00 0.  0.
    1000022    2    1    0    0    0  0.17688955583E+02  0.58257542858E+02 -0.99704201298E+01  0.62500000498E+02  0.10000016760E+02 0.  0.
    3000022    2    5    5    0    0  0.85807594037E+01  0.38232066188E+02 -0.10149269546E+02  0.40477036559E+02  0.24999880410E+00 0.  0.
        -13    1    4    4    0    0 -0.46679160036E+01 -0.11254273810E+02 -0.57778342214E+00  0.12198072695E+02  0.10500000000E+00 0. -1.
         13    1    4    4    0    0 -0.30606775657E+01 -0.71157555897E+01 -0.36065113033E+00  0.77551801404E+01  0.10500000000E+00 0.  1.
    3000001    1    5    5    0    0  0.91081961791E+01  0.20025476671E+02  0.17884941614E+00  0.22022963939E+02  0.10000000000E+01 0. -1.
        -13    1    6    6    0    0  0.58471877793E+01  0.25825941115E+02 -0.68438135054E+01  0.27349911292E+02  0.10500000000E+00 0.  1.
         13    1    6    6    0    0  0.27335716243E+01  0.12406125073E+02 -0.33054560406E+01  0.13127125267E+02  0.10500000000E+00 0. -1.
</event>
<event>
11    0  0.3462209E-009  0.9118800E+02  0.7816531E-02  0.1126479E+00
         25   -1    0    0    0    0  0.00000000000E+00  0.00000000000E+00  0.99999998245E-14  0.12500000000E+03  0.12500000000E+03 0.  0.
    3000001    1    3    3    0    0 -0.16148326456E+02 -0.64622777586E+01 -0.28829343238E+02  0.33684722244E+02  0.10000000000E+01 0.  1.
    1000022    2    1    0    0    0 -0.37194523287E+02 -0.11195118687E+02 -0.47932100992E+02  0.62499996666E+02  0.10000001642E+02 0.  0.
    3000022    2    3    3    0    0 -0.21046196831E+02 -0.47328409280E+01 -0.19102757754E+02  0.28815274422E+02  0.25000380854E+00 0.  0.
    1000022    2    1    0    0    0  0.37194523287E+02  0.11195118687E+02  0.47932100992E+02  0.62500003334E+02  0.10000043313E+02 0.  0.
    3000022    2    5    5    0    0  0.10661438153E+02  0.16827121967E+01  0.72784047038E+01  0.13020578258E+02  0.24999861559E+00 0.  0.
        -13    1    4    4    0    0 -0.61740051746E+01 -0.14106919613E+01 -0.56598685943E+01  0.84943233522E+01  0.10500000000E+00 0. -1.
         13    1    4    4    0    0 -0.14872191656E+02 -0.33221489667E+01 -0.13442889160E+02  0.20320951070E+02  0.10500000000E+00 0.  1.
    3000001    1    5    5    0    0  0.26533085134E+02  0.95124064898E+01  0.40653696288E+02  0.49479425076E+02  0.10000000000E+01 0.  1.
        -13    1    6    6    0    0  0.43376309920E+01  0.69574454132E+00  0.30384591956E+01  0.53425052525E+01  0.10500000000E+00 0. -1.
         13    1    6    6    0    0  0.63238071608E+01  0.98696765542E+00  0.42399455082E+01  0.76780730052E+01  0.10500000000E+00 0.  1.
</event>
<event>
11    0  0.3462209E-009  0.9118800E+02  0.7816531E-02  0.1126479E+00
         25   -1    0    0    0    0  0.00000000000E+00  0.00000000000E+00  0.99999998245E-14  0.12500000000E+03  0.12500000000E+03 0.  0.
    3000001    1    3    3    0    0 -0.34931004798E+02 -0.67537653503E+00  0.32152351936E+02  0.47491104058E+02  0.10000000000E+01 0.  1.
    1000022    2    1    0    0    0 -0.46609529154E+02 -0.59161862300E+01  0.39985003877E+02  0.62499999880E+02  0.99999991252E+01 0.  0.
    3000022    2    3    3    0    0 -0.11678524356E+02 -0.52408096950E+01  0.78326519412E+01  0.15008895822E+02  0.24999993640E+00 0.  0.
    1000022    2    1    0    0    0  0.46609529154E+02  0.59161862300E+01 -0.39985003877E+02  0.62500000120E+02  0.10000000623E+02 0.  0.
    3000022    2    5    5    0    0  0.44676855500E+01 -0.23876902902E+01 -0.42829764312E+01  0.66383485925E+01  0.25001165826E+00 0.  0.
        -13    1    4    4    0    0 -0.70059258007E+01 -0.31927703575E+01  0.46586474389E+01  0.89994888655E+01  0.10500000000E+00 0.  1.
         13    1    4    4    0    0 -0.46725985553E+01 -0.20480393374E+01  0.31740045023E+01  0.60094069563E+01  0.10500000000E+00 0. -1.
    3000001    1    5    5    0    0  0.42141843604E+02  0.83038765202E+01 -0.35702027446E+02  0.55861651527E+02  0.10000000000E+01 0.  1.
        -13    1    6    6    0    0  0.23954028919E+01 -0.12130553777E+01 -0.23115144558E+01  0.35445144157E+01  0.10500000000E+00 0. -1.
         13    1    6    6    0    0  0.20722826581E+01 -0.11746349125E+01 -0.19714619755E+01  0.30938341768E+01  0.10500000000E+00 0.  1.
</event>
<event>
11    0  0.3462209E-009  0.9118800E+02  0.7816531E-02  0.1126479E+00
         25   -1    0    0    0    0  0.00000000000E+00  0.00000000000E+00  0.99999998245E-14  0.12500000000E+03  0.12500000000E+03 0.  0.
    3000001    1    3    3    0    0  0.46717748249E+02 -0.74248863947E+01 -0.28268469356E+02  0.55116089295E+02  0.10000000000E+01 0.  1.
    1000022    2    1    0    0    0  0.50359481963E+02 -0.93581095351E+01 -0.34388933018E+02  0.62500000975E+02  0.99999885046E+01 0.  0.
    3000022    2    3    3    0    0  0.36417337136E+01 -0.19332231405E+01 -0.61204636625E+01  0.73839116799E+01  0.25000020276E+00 0.  0.
    1000022    2    1    0    0    0 -0.50359481963E+02  0.93581095351E+01  0.34388933018E+02  0.62499999025E+02  0.99999763218E+01 0.  0.
    3000022    2    5    5    0    0 -0.80746692250E+01 -0.14483887786E+01  0.30291035452E+01  0.87484902221E+01  0.24999946339E+00 0.  0.
        -13    1    4    4    0    0  0.10862065692E+01 -0.53555983647E+00 -0.18465251425E+01  0.22107349799E+01  0.10500000000E+00 0. -1.
         13    1    4    4    0    0  0.25555271444E+01 -0.13976633040E+01 -0.42739385201E+01  0.51731767001E+01  0.10500000000E+00 0.  1.
    3000001    1    5    5    0    0 -0.42284812738E+02  0.10806498314E+02  0.31359829473E+02  0.53751508803E+02  0.10000000000E+01 0.  1.
        -13    1    6    6    0    0 -0.46510065829E+01 -0.87138782245E+00  0.18043386718E+01  0.50653570470E+01  0.10500000000E+00 0. -1.
         13    1    6    6    0    0 -0.34236626421E+01 -0.57700095617E+00  0.12247648734E+01  0.36831331751E+01  0.10500000000E+00 0.  1.
</event>
<event>
11    0  0.3462209E-009  0.9118800E+02  0.7816531E-02  0.1126479E+00
         25   -1    0    0    0    0  0.00000000000E+00  0.00000000000E+00  0.99999998245E-14  0.12500000000E+03  0.12500000000E+03 0.  0.
    3000001    1    3    3    0    0  0.85452599457E+01 -0.10237152005E+02  0.16088186751E+02  0.20920098032E+02  0.10000000000E+01 0.  1.
    1000022    2    1    0    0    0  0.32733734249E+02 -0.18745209172E+02  0.48819768304E+02  0.62500000080E+02  0.10000000400E+02 0.  0.
    3000022    2    3    3    0    0  0.24188474304E+02 -0.85080571668E+01  0.32731581552E+02  0.41579902048E+02  0.24999509459E+00 0.  0.
    1000022    2    1    0    0    0 -0.32733734249E+02  0.18745209172E+02 -0.48819768304E+02  0.62499999920E+02  0.99999993963E+01 0.  0.
    3000022    2    5    5    0    0 -0.46924786830E+01  0.56794289594E+01 -0.52276315927E+01  0.90369191131E+01  0.25001098533E+00 0.  0.
        -13    1    4    4    0    0  0.12682043568E+02 -0.44793522838E+01  0.17063220752E+02  0.21727018971E+02  0.10500000000E+00 0.  1.
         13    1    4    4    0    0  0.11506430735E+02 -0.40287048830E+01  0.15668360800E+02  0.19852883077E+02  0.10500000000E+00 0. -1.
    3000001    1    5    5    0    0 -0.28041255566E+02  0.13065780213E+02 -0.43592136711E+02  0.53463080807E+02  0.10000000000E+01 0. -1.
        -13    1    6    6    0    0 -0.33462879269E+01  0.40163527069E+01 -0.36623749143E+01  0.63837878229E+01  0.10500000000E+00 0.  1.
         13    1    6    6    0    0 -0.13461907561E+01  0.16630762525E+01 -0.15652566784E+01  0.26531312902E+01  0.10500000000E+00 0. -1.
</event>
<event>
11    0  0.3462209E-009  0.9118800E+02  0.7816531E-02  0.1126479E+00
         25   -1    0    0    0    0  0.00000000000E+00  0.00000000000E+00  0.99999998245E-14  0.12500000000E+03  0.12500000000E+03 0.  0.
    3000001    1    3    3    0    0 -0.53601829753E+01  0.34698298359E+02  0.35489719097E+02  0.49932190340E+02  0.10000000000E+01 0.  1.
    1000022    2    1    0    0    0 -0.78624784666E+01  0.39282401650E+02  0.46918273600E+02  0.62500000043E+02  0.99999980398E+01 0.  0.
    3000022    2    3    3    0    0 -0.25022954913E+01  0.45841032906E+01  0.11428554502E+02  0.12567809703E+02  0.24999402299E+00 0.  0.
    1000022    2    1    0    0    0  0.78624784666E+01 -0.39282401650E+02 -0.46918273600E+02  0.62499999957E+02  0.99999974970E+01 0.  0.
    3000022    2    5    5    0    0 -0.19746747380E+01 -0.59435379461E+01 -0.98375309300E+01  0.11664668806E+02  0.24999983177E+00 0.  0.
        -13    1    4    4    0    0 -0.16404672740E+01  0.28951967566E+01  0.72162871263E+01  0.79472713573E+01  0.10500000000E+00 0.  1.
         13    1    4    4    0    0 -0.86182821730E+00  0.16889065340E+01  0.42122673762E+01  0.46205383458E+01  0.10500000000E+00 0. -1.
    3000001    1    5    5    0    0  0.98371532046E+01 -0.33338863704E+02 -0.37080742670E+02  0.50835331151E+02  0.10000000000E+01 0.  1.
        -13    1    6    6    0    0 -0.83033872905E+00 -0.26323578472E+01 -0.42407818725E+01  0.50610301453E+01  0.10500000000E+00 0. -1.
         13    1    6    6    0    0 -0.11443360090E+01 -0.33111800989E+01 -0.55967490574E+01  0.66036386607E+01  0.10500000000E+00 0.  1.
</event>
<event>
11    0  0.3462209E-009  0.9118800E+02  0.7816531E-02  0.1126479E+00
         25   -1    0    0    0    0  0.00000000000E+00  0.00000000000E+00  0.99999998245E-14  0.12500000000E+03  0.12500000000E+03 0.  0.
    3000001    1    3    3    0    0  0.72166553890E+01  0.17020987823E+02  0.19571536631E+02  0.26941402850E+02  0.10000000000E+01 0. -1.
    1000022    2    1    0    0    0  0.26180865968E+02  0.33205327294E+02  0.44924588378E+02  0.62500000418E+02  0.99999953887E+01 0.  0.
    3000022    2    3    3    0    0  0.18964210579E+02  0.16184339472E+02  0.25353051747E+02  0.35558597568E+02  0.25000211405E+00 0.  0.
    1000022    2    1    0    0    0 -0.26180865968E+02 -0.33205327294E+02 -0.44924588378E+02  0.62499999582E+02  0.99999901632E+01 0.  0.
    3000022    2    5    5    0    0 -0.13843006765E+02 -0.20743278112E+02 -0.32586593454E+02  0.41034875350E+02  0.24999789826E+00 0.  0.
        -13    1    4    4    0    0  0.69898116048E+01  0.59454796425E+01  0.94136863184E+01  0.13146661536E+02  0.10500000000E+00 0.  1.
         13    1    4    4    0    0  0.11974398975E+02  0.10238859829E+02  0.15939365429E+02  0.22411936031E+02  0.10500000000E+00 0. -1.
    3000001    1    5    5    0    0 -0.12337859204E+02 -0.12462049182E+02 -0.12337994924E+02  0.21465124232E+02  0.10000000000E+01 0. -1.
        -13    1    6    6    0    0 -0.58689515632E+01 -0.87550127098E+01 -0.13672272363E+02  0.17263745149E+02  0.10500000000E+00 0. -1.
         13    1    6    6    0    0 -0.79740552016E+01 -0.11988265402E+02 -0.18914321091E+02  0.23771130201E+02  0.10500000000E+00 0.  1.
</event>
<event>
11    0  0.3462209E-009  0.9118800E+02  0.7816531E-02  0.1126479E+00
         25   -1    0    0    0    0  0.00000000000E+00  0.00000000000E+00  0.99999998245E-14  0.12500000000E+03  0.12500000000E+03 0.  0.
    3000001    1    3    3    0    0  0.37842510885E+01 -0.35044728685E+01 -0.11811291011E+02  0.12927044586E+02  0.10000000000E+01 0. -1.
    1000022    2    1    0    0    0  0.13345285592E+02 -0.33878922061E+02 -0.49803330491E+02  0.62500001972E+02  0.10000025552E+02 0.  0.
    3000022    2    3    3    0    0  0.95610345035E+01 -0.30374449193E+02 -0.37992039480E+02  0.49572957386E+02  0.24999131039E+00 0.  0.
    1000022    2    1    0    0    0 -0.13345285592E+02  0.33878922061E+02  0.49803330491E+02  0.62499998028E+02  0.10000000897E+02 0.  0.
    3000022    2    5    5    0    0 -0.14471258406E+02  0.26436072712E+02  0.40729376323E+02  0.50667818793E+02  0.25001052021E+00 0.  0.
        -13    1    4    4    0    0  0.36463477621E+01 -0.11383476395E+02 -0.14262183010E+02  0.18609144957E+02  0.10500000000E+00 0.  1.
         13    1    4    4    0    0  0.59146867414E+01 -0.18990972798E+02 -0.23729856469E+02  0.30963812429E+02  0.10500000000E+00 0. -1.
    3000001    1    5    5    0    0  0.11259728138E+01  0.74428493495E+01  0.90739541673E+01  0.11832179235E+02  0.10000000000E+01 0. -1.
        -13    1    6    6    0    0 -0.95258000990E+01  0.17336248426E+02  0.26809097468E+02  0.33317039320E+02  0.10500000000E+00 0.  1.
         13    1    6    6    0    0 -0.49454583067E+01  0.90998242855E+01  0.13920278856E+02  0.17350779473E+02  0.10500000000E+00 0. -1.
</event>
<event>
11    0  0.3462209E-009  0.9118800E+02  0.7816531E-02  0.1126479E+00
         25   -1    0    0    0    0  0.00000000000E+00  0.00000000000E+00  0.99999998245E-14  0.12500000000E+03  0.12500000000E+03 0.  0.
    3000001    1    3    3    0    0 -0.16260314507E+02  0.82393105430E-01 -0.52871919074E+02  0.55324898943E+02  0.10000000000E+01 0.  1.
    1000022    2    1    0    0    0 -0.20618281577E+02  0.23384056119E+01 -0.58100489554E+02  0.62499989344E+02  0.10000005275E+02 0.  0.
    3000022    2    3    3    0    0 -0.43579670698E+01  0.22560125065E+01 -0.52285704804E+01  0.71750904006E+01  0.25000715474E+00 0.  0.
    1000022    2    1    0    0    0  0.20618281577E+02 -0.23384056119E+01  0.58100489554E+02  0.62500010656E+02  0.10000138479E+02 0.  0.
    3000022    2    5    5    0    0  0.20349129397E+02 -0.42562076678E+01  0.51086774352E+02  0.55155447459E+02  0.24999950638E+00 0.  0.
        -13    1    4    4    0    0 -0.18102244894E+01  0.10080735654E+01 -0.22307741430E+01  0.30463918482E+01  0.10500000000E+00 0. -1.
         13    1    4    4    0    0 -0.25477425804E+01  0.12479389411E+01 -0.29977963374E+01  0.41286985525E+01  0.10500000000E+00 0.  1.
    3000001    1    5    5    0    0  0.26915217957E+00  0.19178020559E+01  0.70137152024E+01  0.73445631974E+01  0.10000000000E+01 0. -1.
        -13    1    6    6    0    0  0.89209810729E+01 -0.19277571143E+01  0.22498111018E+02  0.24279130445E+02  0.10500000000E+00 0. -1.
         13    1    6    6    0    0  0.11428148324E+02 -0.23284505535E+01  0.28588663334E+02  0.30876317014E+02  0.10500000000E+00 0.  1.
</event>
<event>
11    0  0.3462209E-009  0.9118800E+02  0.7816531E-02  0.1126479E+00
         25   -1    0    0    0    0  0.00000000000E+00  0.00000000000E+00  0.99999998245E-14  0.12500000000E+03  0.12500000000E+03 0.  0.
    3000001    1    3    3    0    0 -0.25108570669E+02 -0.71668607067E+01 -0.28755407896E+01  0.26288266361E+02  0.10000000000E+01 0.  1.
    1000022    2    1    0    0    0 -0.57079258808E+02 -0.23271437275E+02  0.25783046460E+01  0.62499993976E+02  0.10000000660E+02 0.  0.
    3000022    2    3    3    0    0 -0.31970688140E+02 -0.16104576568E+02  0.54538454356E+01  0.36211727615E+02  0.25000058388E+00 0.  0.
    1000022    2    1    0    0    0  0.57079258808E+02  0.23271437275E+02 -0.25783046460E+01  0.62500006024E+02  0.10000075961E+02 0.  0.
    3000022    2    5    5    0    0  0.35308443806E+02  0.16163410251E+02 -0.60942331402E+01  0.39308322445E+02  0.25000192697E+00 0.  0.
        -13    1    4    4    0    0 -0.12687587082E+02 -0.63803972014E+01  0.21009574225E+01  0.14356510074E+02  0.10500000000E+00 0. -1.
         13    1    4    4    0    0 -0.19283101058E+02 -0.97241793670E+01  0.33528880131E+01  0.21855217542E+02  0.10500000000E+00 0.  1.
    3000001    1    5    5    0    0  0.21770815002E+02  0.71080270241E+01  0.35159284942E+01  0.23191683579E+02  0.10000000000E+01 0. -1.
        -13    1    6    6    0    0  0.14888074408E+02  0.68489924336E+01 -0.26299406487E+01  0.16597923658E+02  0.10500000000E+00 0.  1.
         13    1    6    6    0    0  0.20420369397E+02  0.93144178175E+01 -0.34642924916E+01  0.22710398787E+02  0.10500000000E+00 0. -1.
</event>
<event>
11    0  0.3462209E-009  0.9118800E+02  0.7816531E-02  0.1126479E+00
         25   -1    0    0    0    0  0.00000000000E+00  0.00000000000E+00  0.99999998245E-14  0.12500000000E+03  0.12500000000E+03 0.  0.
    3000001    1    3    3    0    0 -0.10582539689E+02  0.81170177927E+01 -0.92709224989E+01  0.16273479287E+02  0.10000000000E+01 0.  1.
    1000022    2    1    0    0    0 -0.39037691940E+02  0.41827287847E+02 -0.23082171335E+02  0.62499998483E+02  0.99999888070E+01 0.  0.
    3000022    2    3    3    0    0 -0.28455152252E+02  0.33710270054E+02 -0.13811248836E+02  0.46226519196E+02  0.24997155657E+00 0.  0.
    1000022    2    1    0    0    0  0.39037691940E+02 -0.41827287847E+02  0.23082171335E+02  0.62500001517E+02  0.10000007774E+02 0.  0.
    3000022    2    5    5    0    0  0.11707559318E+02 -0.10834145782E+02  0.11198792558E+02  0.19491564027E+02  0.24990687339E+00 0.  0.
        -13    1    4    4    0    0 -0.79227409483E+01  0.94184556861E+01 -0.38185184211E+01  0.12886785463E+02  0.10500000000E+00 0.  1.
         13    1    4    4    0    0 -0.20532411303E+02  0.24291814368E+02 -0.99927304145E+01  0.33339733733E+02  0.10500000000E+00 0. -1.
    3000001    1    5    5    0    0  0.27330132622E+02 -0.30993142065E+02  0.11883378776E+02  0.43008437490E+02  0.10000000000E+01 0.  1.
        -13    1    6    6    0    0  0.80055142063E+01 -0.74502771785E+01  0.76300085772E+01  0.13335026945E+02  0.10500000000E+00 0.  1.
         13    1    6    6    0    0  0.37020451117E+01 -0.33838686037E+01  0.35687839811E+01  0.61565370818E+01  0.10500000000E+00 0. -1.
</event>
<event>
11    0  0.3462209E-009  0.9118800E+02  0.7816531E-02  0.1126479E+00
         25   -1    0    0    0    0  0.00000000000E+00  0.00000000000E+00  0.99999998245E-14  0.12500000000E+03  0.12500000000E+03 0.  0.
    3000001    1    3    3    0    0  0.19676660407E+02  0.21001560785E+02 -0.15461962333E+02  0.32684993489E+02  0.10000000000E+01 0.  1.
    1000022    2    1    0    0    0  0.40888926503E+02  0.32084174956E+02 -0.33240811171E+02  0.62499998662E+02  0.99999856157E+01 0.  0.
    3000022    2    3    3    0    0  0.21212266096E+02  0.11082614171E+02 -0.17778848838E+02  0.29815005173E+02  0.24999539608E+00 0.  0.
    1000022    2    1    0    0    0 -0.40888926503E+02 -0.32084174956E+02  0.33240811171E+02  0.62500001338E+02  0.10000002340E+02 0.  0.
    3000022    2    5    5    0    0 -0.38586616853E+01 -0.57822676952E+01  0.16048012696E+01  0.71387517090E+01  0.24999829474E+00 0.  0.
        -13    1    4    4    0    0  0.13477170829E+02  0.70559680473E+01 -0.11229176536E+02  0.18908364533E+02  0.10500000000E+00 0. -1.
         13    1    4    4    0    0  0.77350952665E+01  0.40266461232E+01 -0.65496723018E+01  0.10906640640E+02  0.10500000000E+00 0.  1.
    3000001    1    5    5    0    0 -0.37030264817E+02 -0.26301907260E+02  0.31636009901E+02  0.55361249629E+02  0.10000000000E+01 0.  1.
        -13    1    6    6    0    0 -0.18590365277E+01 -0.26919408075E+01  0.79912416394E+00  0.33693006028E+01  0.10500000000E+00 0.  1.
         13    1    6    6    0    0 -0.19996251575E+01 -0.30903268877E+01  0.80567710565E+00  0.37694511062E+01  0.10500000000E+00 0. -1.
</event>
<event>
11    0  0.3462209E-009  0.9118800E+02  0.7816531E-02  0.1126479E+00
         25   -1    0    0    0    0  0.00000000000E+00  0.00000000000E+00  0.99999998245E-14  0.12500000000E+03  0.12500000000E+03 0.  0.
    3000001    1    3    3    0    0 -0.15682501819E+02 -0.15220203513E+02 -0.75477241312E+01  0.23142247035E+02  0.10000000000E+01 0. -1.
    1000022    2    1    0    0    0 -0.42648547913E+02 -0.32798280967E+02 -0.30193114943E+02  0.62499999363E+02  0.99999928464E+01 0.  0.
    3000022    2    3    3    0    0 -0.26966046094E+02 -0.17578077454E+02 -0.22645390812E+02  0.39357752328E+02  0.24998868996E+00 0.  0.
    1000022    2    1    0    0    0  0.42648547913E+02  0.32798280967E+02  0.30193114943E+02  0.62500000637E+02  0.10000000814E+02 0.  0.
    3000022    2    5    5    0    0  0.24136542253E+02  0.12563937921E+02  0.13473364539E+02  0.30364770038E+02  0.24999901778E+00 0.  0.
        -13    1    4    4    0    0 -0.10133699083E+02 -0.66566933578E+01 -0.84775046198E+01  0.14794679217E+02  0.10500000000E+00 0. -1.
         13    1    4    4    0    0 -0.16832347011E+02 -0.10921384096E+02 -0.14167886192E+02  0.24563073110E+02  0.10500000000E+00 0.  1.
    3000001    1    5    5    0    0  0.18512005660E+02  0.20234343046E+02  0.16719750405E+02  0.32135230599E+02  0.10000000000E+01 0.  1.
        -13    1    6    6    0    0  0.83725738891E+01  0.44212647531E+01  0.46942237416E+01  0.10568554162E+02  0.10500000000E+00 0.  1.
         13    1    6    6    0    0  0.15763968363E+02  0.81426731678E+01  0.87791407971E+01  0.19796215876E+02  0.10500000000E+00 0. -1.
</event>
<event>
11    0  0.3462209E-009  0.9118800E+02  0.7816531E-02  0.1126479E+00
         25   -1    0    0    0    0  0.00000000000E+00  0.00000000000E+00  0.99999998245E-14  0.12500000000E+03  0.12500000000E+03 0.  0.
    3000001    1    3    3    0    0 -0.18092837673E+01 -0.18795332983E+02 -0.23189632975E+02  0.29921516124E+02  0.10000000000E+01 0. -1.
    1000022    2    1    0    0    0 -0.13807512933E+02 -0.38610233786E+02 -0.46096130497E+02  0.62500004826E+02  0.99999895043E+01 0.  0.
    3000022    2    3    3    0    0 -0.11998229166E+02 -0.19814900803E+02 -0.22906497523E+02  0.32578488702E+02  0.25000080170E+00 0.  0.
    1000022    2    1    0    0    0  0.13807512933E+02  0.38610233786E+02  0.46096130497E+02  0.62499995174E+02  0.99999291751E+01 0.  0.
    3000022    2    5    5    0    0  0.51843880601E+01  0.77128487075E+01  0.15986871996E+02  0.18493471399E+02  0.24998684180E+00 0.  0.
        -13    1    4    4    0    0 -0.62329020479E+01 -0.10420029356E+02 -0.12029691108E+02  0.17092412728E+02  0.10500000000E+00 0.  1.
         13    1    4    4    0    0 -0.57653271181E+01 -0.93948714472E+01 -0.10876806414E+02  0.15486075974E+02  0.10500000000E+00 0. -1.
    3000001    1    5    5    0    0  0.86231248732E+01  0.30897385078E+02  0.30109258501E+02  0.44006523775E+02  0.10000000000E+01 0.  1.
        -13    1    6    6    0    0  0.26763691358E+01  0.38601668554E+01  0.80832179073E+01  0.93495067591E+01  0.10500000000E+00 0. -1.
         13    1    6    6    0    0  0.25080189243E+01  0.38526818522E+01  0.79036540891E+01  0.91439646400E+01  0.10500000000E+00 0.  1.
</event>
<event>
11    0  0.3462209E-009  0.9118800E+02  0.7816531E-02  0.1126479E+00
         25   -1    0    0    0    0  0.00000000000E+00  0.00000000000E+00  0.99999998245E-14  0.12500000000E+03  0.12500000000E+03 0.  0.
    3000001    1    3    3    0    0 -0.81792821054E+01 -0.35942972192E+01 -0.48726992839E+02  0.49549363865E+02  0.10000000000E+01 0.  1.
    1000022    2    1    0    0    0 -0.10142580032E+02  0.49881834411E+00 -0.60853342402E+02  0.62499999384E+02  0.99999946070E+01 0.  0.
    3000022    2    3    3    0    0 -0.19632979271E+01  0.40931155633E+01 -0.12126349562E+02  0.12950635519E+02  0.24994576188E+00 0.  0.
    1000022    2    1    0    0    0  0.10142580032E+02 -0.49881834411E+00  0.60853342402E+02  0.62500000616E+02  0.10000002302E+02 0.  0.
    3000022    2    5    5    0    0  0.44245902660E+01 -0.33470171059E+01  0.45542337381E+02  0.45879696229E+02  0.25001882573E+00 0.  0.
        -13    1    4    4    0    0 -0.76049901592E+00  0.15415138694E+01 -0.44317711733E+01  0.47546024540E+01  0.10500000000E+00 0.  1.
         13    1    4    4    0    0 -0.12027989112E+01  0.25516016939E+01 -0.76945783889E+01  0.81960330654E+01  0.10500000000E+00 0. -1.
    3000001    1    5    5    0    0  0.57179897665E+01  0.28481987618E+01  0.15311005020E+02  0.16620304386E+02  0.10000000000E+01 0.  1.
        -13    1    6    6    0    0  0.22538657077E+01 -0.17677539279E+01  0.23132005739E+02  0.23308916300E+02  0.10500000000E+00 0. -1.
         13    1    6    6    0    0  0.21707245583E+01 -0.15792631780E+01  0.22410331642E+02  0.22570779929E+02  0.10500000000E+00 0.  1.
</event>
<event>
11    0  0.3462209E-009  0.9118800E+02  0.7816531E-02  0.1126479E+00
         25   -1    0    0    0    0  0.00000000000E+00  0.00000000000E+00  0.99999998245E-14  0.12500000000E+03  0.12500000000E+03 0.  0.
    3000001    1    3    3    0    0 -0.20888618279E+01 -0.62499222276E+01  0.27100433319E+01  0.71950821015E+01  0.10000000000E+01 0.  1.
    1000022    2    1    0    0    0 -0.30668995663E+01 -0.61544791831E+02  0.30137674960E+01  0.62499999708E+02  0.99999947303E+01 0.  0.
    3000022    2    3    3    0    0 -0.97803773846E+00 -0.55294869603E+02  0.30372416411E+00  0.55304917607E+02  0.25000180531E+00 0.  0.
    1000022    2    1    0    0    0  0.30668995663E+01  0.61544791831E+02 -0.30137674960E+01  0.62500000292E+02  0.99999983757E+01 0.  0.
    3000022    2    5    5    0    0 -0.18462150690E+01  0.28098814623E+02 -0.50891946528E+01  0.28616678661E+02  0.25000423677E+00 0.  0.
        -13    1    4    4    0    0 -0.48322301226E+00 -0.30798451285E+02  0.14441159032E+00  0.30802759385E+02  0.10500000000E+00 0. -1.
         13    1    4    4    0    0 -0.49481472620E+00 -0.24496418318E+02  0.15931257379E+00  0.24502158222E+02  0.10500000000E+00 0.  1.
    3000001    1    5    5    0    0  0.49131146353E+01  0.33445977208E+02  0.20754271568E+01  0.33883321630E+02  0.10000000000E+01 0. -1.
        -13    1    6    6    0    0 -0.12919331451E+01  0.20258696579E+02 -0.36635884837E+01  0.20628058171E+02  0.10500000000E+00 0. -1.
         13    1    6    6    0    0 -0.55428192390E+00  0.78401180437E+01 -0.14256061690E+01  0.79886204904E+01  0.10500000000E+00 0.  1.
</event>
<event>
11    0  0.3462209E-009  0.9118800E+02  0.7816531E-02  0.1126479E+00
         25   -1    0    0    0    0  0.00000000000E+00  0.00000000000E+00  0.99999998245E-14  0.12500000000E+03  0.12500000000E+03 0.  0.
    3000001    1    3    3    0    0  0.13471817339E+02 -0.47726005092E+02 -0.18728502507E+02  0.53019036492E+02  0.10000000000E+01 0. -1.
    1000022    2    1    0    0    0  0.14364721511E+02 -0.57150303765E+02 -0.18268746993E+02  0.62499994169E+02  0.99999854977E+01 0.  0.
    3000022    2    3    3    0    0  0.89290417123E+00 -0.94242986730E+01  0.45975551391E+00  0.94809576765E+01  0.24999998962E+00 0.  0.
    1000022    2    1    0    0    0 -0.14364721511E+02  0.57150303765E+02  0.18268746993E+02  0.62500005831E+02  0.10000058386E+02 0.  0.
    3000022    2    5    5    0    0 -0.15559295781E+01  0.25942842139E+02  0.89491643720E+01  0.27488215930E+02  0.24999385466E+00 0.  0.
        -13    1    4    4    0    0  0.54996880886E+00 -0.56162555650E+01  0.33499172766E+00  0.56540283621E+01  0.10500000000E+00 0. -1.
         13    1    4    4    0    0  0.34293536237E+00 -0.38080431080E+01  0.12476378626E+00  0.38269293144E+01  0.10500000000E+00 0.  1.
    3000001    1    5    5    0    0 -0.12808791933E+02  0.31207461626E+02  0.93195826206E+01  0.35011789901E+02  0.10000000000E+01 0. -1.
        -13    1    6    6    0    0 -0.10962454079E+01  0.18452084615E+02  0.64084255164E+01  0.19564256266E+02  0.10500000000E+00 0. -1.
         13    1    6    6    0    0 -0.45968417016E+00  0.74907575242E+01  0.25407388556E+01  0.79239596639E+01  0.10500000000E+00 0.  1.
</event>
<event>
11    0  0.3462209E-009  0.9118800E+02  0.7816531E-02  0.1126479E+00
         25   -1    0    0    0    0  0.00000000000E+00  0.00000000000E+00  0.99999998245E-14  0.12500000000E+03  0.12500000000E+03 0.  0.
    3000001    1    3    3    0    0 -0.63831025733E+01  0.93242087101E+01  0.18964547475E+01  0.11501365447E+02  0.10000000000E+01 0. -1.
    1000022    2    1    0    0    0 -0.34146059701E+02  0.42402284489E+02  0.29023142716E+02  0.62499998493E+02  0.99999937757E+01 0.  0.
    3000022    2    3    3    0    0 -0.27762957128E+02  0.33078075779E+02  0.27126687969E+02  0.50998633046E+02  0.24997345705E+00 0.  0.
    1000022    2    1    0    0    0  0.34146059701E+02 -0.42402284489E+02 -0.29023142716E+02  0.62500001507E+02  0.10000012611E+02 0.  0.
    3000022    2    5    5    0    0  0.13548702171E+02 -0.20849010356E+02 -0.18007930176E+02  0.30701736297E+02  0.24999810768E+00 0.  0.
        -13    1    4    4    0    0 -0.19695556153E+02  0.23407430139E+02  0.19190489729E+02  0.36112444378E+02  0.10500000000E+00 0. -1.
         13    1    4    4    0    0 -0.80674009745E+01  0.96706456404E+01  0.79361982396E+01  0.14886188669E+02  0.10500000000E+00 0.  1.
    3000001    1    5    5    0    0  0.20597357530E+02 -0.21553274133E+02 -0.11015212540E+02  0.31798265210E+02  0.10000000000E+01 0.  1.
        -13    1    6    6    0    0  0.57003212533E+01 -0.86689893619E+01 -0.75539137373E+01  0.12834238454E+02  0.10500000000E+00 0.  1.
         13    1    6    6    0    0  0.78483809181E+01 -0.12180020994E+02 -0.10454016439E+02  0.17867497843E+02  0.10500000000E+00 0. -1.
</event>
<event>
11    0  0.3462209E-009  0.9118800E+02  0.7816531E-02  0.1126479E+00
         25   -1    0    0    0    0  0.00000000000E+00  0.00000000000E+00  0.99999998245E-14  0.12500000000E+03  0.12500000000E+03 0.  0.
    3000001    1    3    3    0    0  0.65993702384E+00  0.14144209214E+02  0.80068971758E-01  0.14195090074E+02  0.10000000000E+01 0.  1.
    1000022    2    1    0    0    0  0.13486966629E+02  0.58445671301E+02  0.14437979908E+02  0.62499999903E+02  0.99999980649E+01 0.  0.
    3000022    2    3    3    0    0  0.12827029605E+02  0.44301462087E+02  0.14357910937E+02  0.48304909829E+02  0.24995109904E+00 0.  0.
    1000022    2    1    0    0    0 -0.13486966629E+02 -0.58445671301E+02 -0.14437979908E+02  0.62500000097E+02  0.99999992831E+01 0.  0.
    3000022    2    5    5    0    0 -0.12293532191E+02 -0.57761109842E+02 -0.14456303073E+02  0.60799045693E+02  0.25002944429E+00 0.  0.
        -13    1    4    4    0    0  0.54017752519E+01  0.18435424243E+02  0.59599824938E+01  0.20114086089E+02  0.10500000000E+00 0. -1.
         13    1    4    4    0    0  0.74252543530E+01  0.25866037845E+02  0.83979284427E+01  0.28190823740E+02  0.10500000000E+00 0.  1.
    3000001    1    5    5    0    0 -0.11934344375E+01 -0.68456145935E+00  0.18323164906E-01  0.17009544046E+01  0.10000000000E+01 0.  1.
        -13    1    6    6    0    0 -0.40496560570E+01 -0.18784291863E+02 -0.46918367467E+01  0.19780639323E+02  0.10500000000E+00 0. -1.
         13    1    6    6    0    0 -0.82438761342E+01 -0.38976817978E+02 -0.97644663265E+01  0.41018406369E+02  0.10500000000E+00 0.  1.
</event>
<event>
11    0  0.3462209E-009  0.9118800E+02  0.7816531E-02  0.1126479E+00
         25   -1    0    0    0    0  0.00000000000E+00  0.00000000000E+00  0.99999998245E-14  0.12500000000E+03  0.12500000000E+03 0.  0.
    3000001    1    3    3    0    0  0.20481029587E+02 -0.82444969959E+01  0.42315302886E+01  0.22502225495E+02  0.10000000000E+01 0.  1.
    1000022    2    1    0    0    0  0.58713730575E+02 -0.10519097983E+02  0.15757428329E+02  0.62500001204E+02  0.10000001127E+02 0.  0.
    3000022    2    3    3    0    0  0.38232700988E+02 -0.22746009875E+01  0.11525898040E+02  0.39997775709E+02  0.25000303247E+00 0.  0.
    1000022    2    1    0    0    0 -0.58713730575E+02  0.10519097983E+02 -0.15757428329E+02  0.62499998796E+02  0.99999860793E+01 0.  0.
    3000022    2    5    5    0    0 -0.37926054587E+02  0.19877556669E+01 -0.93572242111E+01  0.39114663917E+02  0.24999843598E+00 0.  0.
        -13    1    4    4    0    0  0.23713547570E+02 -0.13503933604E+01  0.71559066574E+01  0.24806731459E+02  0.10500000000E+00 0. -1.
         13    1    4    4    0    0  0.14519153418E+02 -0.92420762701E+00  0.43699913825E+01  0.15191044250E+02  0.10500000000E+00 0.  1.
    3000001    1    5    5    0    0 -0.20787675987E+02  0.85313423164E+01 -0.64002041175E+01  0.23385334879E+02  0.10000000000E+01 0. -1.
        -13    1    6    6    0    0 -0.15639799316E+02  0.83314590404E+00 -0.37942586644E+01  0.16115361570E+02  0.10500000000E+00 0.  1.
         13    1    6    6    0    0 -0.22286255272E+02  0.11546097628E+01 -0.55629655467E+01  0.22999302346E+02  0.10500000000E+00 0. -1.
</event>
<event>
11    0  0.3462209E-009  0.9118800E+02  0.7816531E-02  0.1126479E+00
         25   -1    0    0    0    0  0.00000000000E+00  0.00000000000E+00  0.99999998245E-14  0.12500000000E+03  0.12500000000E+03 0.  0.
    3000001    1    3    3    0    0  0.51953997940E+01  0.12476363203E+02  0.15912628445E+02  0.20901281344E+02  0.10000000000E+01 0.  1.
    1000022    2    1    0    0    0  0.15775479897E+02  0.46582657288E+02  0.37248359219E+02  0.62499998863E+02  0.99999933686E+01 0.  0.
    3000022    2    3    3    0    0  0.10580080103E+02  0.34106294085E+02  0.21335730775E+02  0.41598717519E+02  0.25000074327E+00 0.  0.
    1000022    2    1    0    0    0 -0.15775479897E+02 -0.46582657288E+02 -0.37248359219E+02  0.62500001137E+02  0.10000007579E+02 0.  0.
    3000022    2    5    5    0    0 -0.59854717549E+01 -0.73459633655E+01 -0.47051156715E+01  0.10582517473E+02  0.25002536658E+00 0.  0.
        -13    1    4    4    0    0  0.48837955096E+01  0.15641741368E+02  0.97208319825E+01  0.19053113421E+02  0.10500000000E+00 0. -1.
         13    1    4    4    0    0  0.56962845932E+01  0.18464552717E+02  0.11614898792E+02  0.22545604098E+02  0.10500000000E+00 0.  1.
    3000001    1    5    5    0    0 -0.97900081418E+01 -0.39236693923E+02 -0.32543243548E+02  0.51917483664E+02  0.10000000000E+01 0. -1.
        -13    1    6    6    0    0 -0.29771684061E+01 -0.37166538697E+01 -0.24259344480E+01  0.53453934048E+01  0.10500000000E+00 0. -1.
         13    1    6    6    0    0 -0.30083033488E+01 -0.36293094958E+01 -0.22791812235E+01  0.52371240681E+01  0.10500000000E+00 0.  1.
</event>
<event>
11    0  0.3462209E-009  0.9118800E+02  0.7816531E-02  0.1126479E+00
         25   -1    0    0    0    0  0.00000000000E+00  0.00000000000E+00  0.99999998245E-14  0.12500000000E+03  0.12500000000E+03 0.  0.
    3000001    1    3    3    0    0  0.33366995242E+02  0.42785999744E+01 -0.25451700538E+00  0.33656018305E+02  0.10000000000E+01 0.  1.
    1000022    2    1    0    0    0  0.61511298695E+02 -0.14594783329E+00 -0.47527712394E+01  0.62499999029E+02  0.99999938078E+01 0.  0.
    3000022    2    3    3    0    0  0.28144303453E+02 -0.44245478077E+01 -0.44982542341E+01  0.28843980724E+02  0.24998533238E+00 0.  0.
    1000022    2    1    0    0    0 -0.61511298695E+02  0.14594783329E+00  0.47527712394E+01  0.62500000971E+02  0.10000005949E+02 0.  0.
    3000022    2    5    5    0    0 -0.18273675533E+02  0.40684341667E+01  0.35519159231E+01  0.19056704489E+02  0.25001038980E+00 0.  0.
        -13    1    4    4    0    0  0.17976183201E+02 -0.28685225461E+01 -0.28332319742E+01  0.18423078258E+02  0.10500000000E+00 0. -1.
         13    1    4    4    0    0  0.10168120252E+02 -0.15560252616E+01 -0.16650222598E+01  0.10420902466E+02  0.10500000000E+00 0.  1.
    3000001    1    5    5    0    0 -0.43237623162E+02 -0.39224863334E+01  0.12008553164E+01  0.43443296482E+02  0.10000000000E+01 0. -1.
        -13    1    6    6    0    0 -0.12338161762E+02  0.27998924048E+01  0.24003087405E+01  0.12877971121E+02  0.10500000000E+00 0.  1.
         13    1    6    6    0    0 -0.59355137714E+01  0.12685417618E+01  0.11516071825E+01  0.61787333681E+01  0.10500000000E+00 0. -1.
</event>
<event>
11    0  0.3462209E-009  0.9118800E+02  0.7816531E-02  0.1126479E+00
         25   -1    0    0    0    0  0.00000000000E+00  0.00000000000E+00  0.99999998245E-14  0.12500000000E+03  0.12500000000E+03 0.  0.
    3000001    1    3    3    0    0 -0.90227650621E+01 -0.14162645971E+02  0.16510910078E+02  0.23571189657E+02  0.10000000000E+01 0.  1.
    1000022    2    1    0    0    0 -0.17270921003E+02 -0.29742587955E+02  0.51218591831E+02  0.62500000860E+02  0.99999853871E+01 0.  0.
    3000022    2    3    3    0    0 -0.82481559411E+01 -0.15579941984E+02  0.34707681753E+02  0.38928811202E+02  0.25000055951E+00 0.  0.
    1000022    2    1    0    0    0  0.17270921003E+02  0.29742587955E+02 -0.51218591831E+02  0.62499999140E+02  0.99999746392E+01 0.  0.
    3000022    2    5    5    0    0  0.56751277324E+01  0.14344407977E+02 -0.15326776353E+02  0.21747222713E+02  0.25001470731E+00 0.  0.
        -13    1    4    4    0    0 -0.39936811989E+01 -0.74619616071E+01  0.16786329299E+02  0.18799527570E+02  0.10500000000E+00 0.  1.
         13    1    4    4    0    0 -0.42544747422E+01 -0.81179803769E+01  0.17921352455E+02  0.20129283632E+02  0.10500000000E+00 0. -1.
    3000001    1    5    5    0    0  0.11595793271E+02  0.15398179978E+02 -0.35891815478E+02  0.40752776427E+02  0.10000000000E+01 0.  1.
        -13    1    6    6    0    0  0.20504727894E+01  0.50985263005E+01 -0.55287856907E+01  0.77960185551E+01  0.10500000000E+00 0.  1.
         13    1    6    6    0    0  0.36246549430E+01  0.92458816769E+01 -0.97979906624E+01  0.13951204158E+02  0.10500000000E+00 0. -1.
</event>
<event>
11    0  0.3462209E-009  0.9118800E+02  0.7816531E-02  0.1126479E+00
         25   -1    0    0    0    0  0.00000000000E+00  0.00000000000E+00  0.99999998245E-14  0.12500000000E+03  0.12500000000E+03 0.  0.
    3000001    1    3    3    0    0  0.66913547202E+01 -0.16785791665E+02 -0.50566060353E+02  0.53707201467E+02  0.10000000000E+01 0. -1.
    1000022    2    1    0    0    0  0.67867615213E+01 -0.22891994693E+02 -0.56887136826E+02  0.62500000959E+02  0.10000011535E+02 0.  0.
    3000022    2    3    3    0    0  0.95406801087E-01 -0.61062030285E+01 -0.63210764723E+01  0.87927994917E+01  0.24999450014E+00 0.  0.
    1000022    2    1    0    0    0 -0.67867615213E+01  0.22891994693E+02  0.56887136826E+02  0.62499999041E+02  0.99999995462E+01 0.  0.
    3000022    2    5    5    0    0 -0.21910327269E+01  0.38307511107E+01  0.35660125002E+01  0.56792807299E+01  0.25001194836E+00 0.  0.
        -13    1    4    4    0    0  0.10257452065E-01 -0.17989228623E+01 -0.18057187041E+01  0.25510534526E+01  0.10500000000E+00 0. -1.
         13    1    4    4    0    0  0.85149349022E-01 -0.43072801663E+01 -0.45153577682E+01  0.62417460391E+01  0.10500000000E+00 0.  1.
    3000001    1    5    5    0    0 -0.45957287943E+01  0.19061243582E+02  0.53321124325E+02  0.56820718311E+02  0.10000000000E+01 0. -1.
        -13    1    6    6    0    0 -0.16825386700E+01  0.29082696114E+01  0.27011999667E+01  0.43123630145E+01  0.10500000000E+00 0. -1.
         13    1    6    6    0    0 -0.50849405694E+00  0.92248149934E+00  0.86481253350E+00  0.13669177154E+01  0.10500000000E+00 0.  1.
</event>
<event>
11    0  0.3462209E-009  0.9118800E+02  0.7816531E-02  0.1126479E+00
         25   -1    0    0    0    0  0.00000000000E+00  0.00000000000E+00  0.99999998245E-14  0.12500000000E+03  0.12500000000E+03 0.  0.
    3000001    1    3    3    0    0  0.16803841830E+02  0.38345280100E+02 -0.32787609519E+02  0.53186059679E+02  0.10000000000E+01 0. -1.
    1000022    2    1    0    0    0  0.23071477414E+02  0.42596298084E+02 -0.38203564789E+02  0.62499999674E+02  0.99999958063E+01 0.  0.
    3000022    2    3    3    0    0  0.62676355838E+01  0.42510179840E+01 -0.54159552702E+01  0.93139399951E+01  0.24999406202E+00 0.  0.
    1000022    2    1    0    0    0 -0.23071477414E+02 -0.42596298084E+02  0.38203564789E+02  0.62500000326E+02  0.99999998803E+01 0.  0.
    3000022    2    5    5    0    0 -0.32352653086E+01 -0.78518967389E+01  0.11853012390E+02  0.14583402500E+02  0.25000344652E+00 0.  0.
        -13    1    4    4    0    0  0.41901931436E+01  0.29007175808E+01 -0.36196794232E+01  0.62517985565E+01  0.10500000000E+00 0.  1.
         13    1    4    4    0    0  0.20774424402E+01  0.13503004031E+01 -0.17962758470E+01  0.30621414385E+01  0.10500000000E+00 0. -1.
    3000001    1    5    5    0    0 -0.19836212105E+02 -0.34744401345E+02  0.26350552399E+02  0.47916597826E+02  0.10000000000E+01 0. -1.
        -13    1    6    6    0    0 -0.12683453081E+01 -0.30919501451E+01  0.47723305161E+01  0.58270935358E+01  0.10500000000E+00 0. -1.
         13    1    6    6    0    0 -0.19669200005E+01 -0.47599465938E+01  0.70806818743E+01  0.87563089638E+01  0.10500000000E+00 0.  1.
</event>
<event>
11    0  0.3462209E-009  0.9118800E+02  0.7816531E-02  0.1126479E+00
         25   -1    0    0    0    0  0.00000000000E+00  0.00000000000E+00  0.99999998245E-14  0.12500000000E+03  0.12500000000E+03 0.  0.
    3000001    1    3    3    0    0 -0.53901829993E+00 -0.48602897820E+00  0.30584309469E+00  0.12729119741E+01  0.10000000000E+01 0. -1.
    1000022    2    1    0    0    0  0.88849105645E+01 -0.41559938242E+02  0.44722252189E+02  0.62500000416E+02  0.10000005439E+02 0.  0.
    3000022    2    3    3    0    0  0.94239288644E+01 -0.41073909264E+02  0.44416409094E+02  0.61227088442E+02  0.25000965877E+00 0.  0.
    1000022    2    1    0    0    0 -0.88849105645E+01  0.41559938242E+02 -0.44722252189E+02  0.62499999584E+02  0.10000000235E+02 0.  0.
    3000022    2    5    5    0    0 -0.62525784622E+01  0.13724794217E+02 -0.10921572871E+02  0.18622780693E+02  0.24998610840E+00 0.  0.
        -13    1    4    4    0    0  0.28650478915E+01 -0.12289632950E+02  0.13317602477E+02  0.18347019872E+02  0.10500000000E+00 0. -1.
         13    1    4    4    0    0  0.65588809729E+01 -0.28784276314E+02  0.31098806618E+02  0.42880068570E+02  0.10500000000E+00 0.  1.
    3000001    1    5    5    0    0 -0.26323321022E+01  0.27835144025E+02 -0.33800679318E+02  0.43877218890E+02  0.10000000000E+01 0.  1.
        -13    1    6    6    0    0 -0.14757320438E+01  0.32826903419E+01 -0.26037500092E+01  0.44434648707E+01  0.10500000000E+00 0.  1.
         13    1    6    6    0    0 -0.47768464184E+01  0.10442103875E+02 -0.83178228613E+01  0.14179315823E+02  0.10500000000E+00 0. -1.
</event>
<event>
11    0  0.3462209E-009  0.9118800E+02  0.7816531E-02  0.1126479E+00
         25   -1    0    0    0    0  0.00000000000E+00  0.00000000000E+00  0.99999998245E-14  0.12500000000E+03  0.12500000000E+03 0.  0.
    3000001    1    3    3    0    0 -0.94795236514E+01  0.82226584106E+01 -0.96699913501E+00  0.12625710567E+02  0.10000000000E+01 0.  1.
    1000022    2    1    0    0    0 -0.56586881802E+02  0.23935714587E+02 -0.55907355314E+01  0.62500000228E+02  0.10000003992E+02 0.  0.
    3000022    2    3    3    0    0 -0.47107358150E+02  0.15713056176E+02 -0.46237363964E+01  0.49874289661E+02  0.25000917688E+00 0.  0.
    1000022    2    1    0    0    0  0.56586881802E+02 -0.23935714587E+02  0.55907355314E+01  0.62499999772E+02  0.10000001147E+02 0.  0.
    3000022    2    5    5    0    0  0.37357698971E+02 -0.16625543474E+02 -0.91389646396E+00  0.40901150001E+02  0.24999294725E+00 0.  0.
        -13    1    4    4    0    0 -0.20574050428E+02  0.67938368886E+01 -0.20080352897E+01  0.21759848378E+02  0.10500000000E+00 0. -1.
         13    1    4    4    0    0 -0.26533307722E+02  0.89192192879E+01 -0.26157011067E+01  0.28114441283E+02  0.10500000000E+00 0.  1.
    3000001    1    5    5    0    0  0.19229182831E+02 -0.73101711128E+01  0.65046319954E+01  0.21598849771E+02  0.10000000000E+01 0. -1.
        -13    1    6    6    0    0  0.28459649924E+02 -0.12646867245E+02 -0.69065848706E+00  0.31150970435E+02  0.10500000000E+00 0. -1.
         13    1    6    6    0    0  0.88980490469E+01 -0.39786762295E+01 -0.22323797690E+00  0.97501795662E+01  0.10500000000E+00 0.  1.
</event>
<event>
11    0  0.3462209E-009  0.9118800E+02  0.7816531E-02  0.1126479E+00
         25   -1    0    0    0    0  0.00000000000E+00  0.00000000000E+00  0.99999998245E-14  0.12500000000E+03  0.12500000000E+03 0.  0.
    3000001    1    3    3    0    0 -0.20505185744E+02  0.19758882291E+02 -0.47029415891E+02  0.54987653440E+02  0.10000000000E+01 0.  1.
    1000022    2    1    0    0    0 -0.20655151867E+02  0.20164993758E+02 -0.54525109719E+02  0.62500000224E+02  0.10000008316E+02 0.  0.
    3000022    2    3    3    0    0 -0.14996612270E+00  0.40611146687E+00 -0.74956938280E+01  0.75123467846E+01  0.25002377471E+00 0.  0.
    1000022    2    1    0    0    0  0.20655151867E+02 -0.20164993758E+02  0.54525109719E+02  0.62499999776E+02  0.10000005510E+02 0.  0.
    3000022    2    5    5    0    0  0.10373146740E+02 -0.60072790226E+01  0.30415908537E+02  0.32693723631E+02  0.24999642247E+00 0.  0.
        -13    1    4    4    0    0 -0.91924643148E-01  0.18445568161E+00 -0.26387739412E+01  0.26488916458E+01  0.10500000000E+00 0.  1.
         13    1    4    4    0    0 -0.58041479557E-01  0.22165578526E+00 -0.48569198868E+01  0.48634551388E+01  0.10500000000E+00 0. -1.
    3000001    1    5    5    0    0  0.10282005127E+02 -0.14157714736E+02  0.24109201182E+02  0.29806276144E+02  0.10000000000E+01 0. -1.
        -13    1    6    6    0    0  0.28773507098E+01 -0.16224553733E+01  0.83931772735E+01  0.90204189642E+01  0.10500000000E+00 0.  1.
         13    1    6    6    0    0  0.74957960304E+01 -0.43848236494E+01  0.22022731263E+02  0.23673304667E+02  0.10500000000E+00 0. -1.
</event>
<event>
11    0  0.3462209E-009  0.9118800E+02  0.7816531E-02  0.1126479E+00
         25   -1    0    0    0    0  0.00000000000E+00  0.00000000000E+00  0.99999998245E-14  0.12500000000E+03  0.12500000000E+03 0.  0.
    3000001    1    3    3    0    0 -0.29916753838E+02  0.63174108558E+01  0.31699581410E+02  0.44054344867E+02  0.10000000000E+01 0.  1.
    1000022    2    1    0    0    0 -0.37133520069E+02  0.84415199196E+01  0.48539597124E+02  0.62500000536E+02  0.10000000338E+02 0.  0.
    3000022    2    3    3    0    0 -0.72167662310E+01  0.21241090638E+01  0.16840015714E+02  0.18445655668E+02  0.25005928316E+00 0.  0.
    1000022    2    1    0    0    0  0.37133520069E+02 -0.84415199196E+01 -0.48539597124E+02  0.62499999464E+02  0.99999936395E+01 0.  0.
    3000022    2    5    5    0    0  0.97352394465E+01 -0.54729441286E+01 -0.19356061133E+02  0.22348324577E+02  0.25000860238E+00 0.  0.
        -13    1    4    4    0    0 -0.32994247050E+01  0.90194784801E+00  0.76349053480E+01  0.83667507419E+01  0.10500000000E+00 0.  1.
         13    1    4    4    0    0 -0.39173415260E+01  0.12221612158E+01  0.92051103659E+01  0.10078904927E+02  0.10500000000E+00 0. -1.
    3000001    1    5    5    0    0  0.27398280623E+02 -0.29685757910E+01 -0.29183535991E+02  0.40151674887E+02  0.10000000000E+01 0. -1.
        -13    1    6    6    0    0  0.49667034246E+01 -0.28328596124E+01 -0.97939507718E+01  0.11341328547E+02  0.10500000000E+00 0. -1.
         13    1    6    6    0    0  0.47685360219E+01 -0.26400845162E+01 -0.95621103615E+01  0.11006996030E+02  0.10500000000E+00 0.  1.
</event>
<event>
11    0  0.3462209E-009  0.9118800E+02  0.7816531E-02  0.1126479E+00
         25   -1    0    0    0    0  0.00000000000E+00  0.00000000000E+00  0.99999998245E-14  0.12500000000E+03  0.12500000000E+03 0.  0.
    3000001    1    3    3    0    0 -0.41465980597E+02 -0.37488370383E+01 -0.22191650125E+02  0.47190578099E+02  0.10000000000E+01 0.  1.
    1000022    2    1    0    0    0 -0.53901415605E+02 -0.10385517649E+02 -0.28160759972E+02  0.62499998455E+02  0.99999911800E+01 0.  0.
    3000022    2    3    3    0    0 -0.12435435008E+02 -0.66366806112E+01 -0.59691098462E+01  0.15309420356E+02  0.25001181490E+00 0.  0.
    1000022    2    1    0    0    0  0.53901415605E+02  0.10385517649E+02  0.28160759972E+02  0.62500001545E+02  0.10000010497E+02 0.  0.
    3000022    2    5    5    0    0  0.74583138677E+01  0.32111022175E+01  0.92931125027E+00  0.81770254191E+01  0.25000420900E+00 0.  0.
        -13    1    4    4    0    0 -0.69758341401E+01 -0.36622077422E+01 -0.33784866458E+01  0.85731688723E+01  0.10500000000E+00 0. -1.
         13    1    4    4    0    0 -0.54596008679E+01 -0.29744728690E+01 -0.25906232004E+01  0.67362514837E+01  0.10500000000E+00 0.  1.
    3000001    1    5    5    0    0  0.46443101737E+02  0.71744154320E+01  0.27231448721E+02  0.54322976126E+02  0.10000000000E+01 0. -1.
        -13    1    6    6    0    0  0.47209908580E+01  0.19684633566E+01  0.57622507664E+00  0.51483650809E+01  0.10500000000E+00 0. -1.
         13    1    6    6    0    0  0.27373230097E+01  0.12426388609E+01  0.35308617363E+00  0.30286603381E+01  0.10500000000E+00 0.  1.
</event>
<event>
11    0  0.3462209E-009  0.9118800E+02  0.7816531E-02  0.1126479E+00
         25   -1    0    0    0    0  0.00000000000E+00  0.00000000000E+00  0.99999998245E-14  0.12500000000E+03  0.12500000000E+03 0.  0.
    3000001    1    3    3    0    0 -0.95910381727E+01 -0.18689657967E+02 -0.29891022738E+02  0.36548113063E+02  0.10000000000E+01 0.  1.
    1000022    2    1    0    0    0 -0.18268677443E+02 -0.24248275663E+02 -0.53707783414E+02  0.62499996302E+02  0.10000004518E+02 0.  0.
    3000022    2    3    3    0    0 -0.86776392699E+01 -0.55586176969E+01 -0.23816760676E+02  0.25951883239E+02  0.25000111865E+00 0.  0.
    1000022    2    1    0    0    0  0.18268677443E+02  0.24248275663E+02  0.53707783414E+02  0.62500003698E+02  0.10000050740E+02 0.  0.
    3000022    2    5    5    0    0 -0.99499337930E+00  0.70934322556E-01  0.15145991195E+01  0.18307253547E+01  0.25000265752E+00 0.  0.
        -13    1    4    4    0    0 -0.35440374463E+01 -0.21986829641E+01 -0.96899354632E+01  0.10549894904E+02  0.10500000000E+00 0.  1.
         13    1    4    4    0    0 -0.51336018236E+01 -0.33599347327E+01 -0.14126825213E+02  0.15401988336E+02  0.10500000000E+00 0. -1.
    3000001    1    5    5    0    0  0.19263670822E+02  0.24177341341E+02  0.52193184295E+02  0.60669278343E+02  0.10000000000E+01 0. -1.
        -13    1    6    6    0    0 -0.24316827589E+00 -0.55642743538E-02  0.41506155820E+00  0.49240518747E+00  0.10500000000E+00 0. -1.
         13    1    6    6    0    0 -0.75182510341E+00  0.76498596910E-01  0.10995375613E+01  0.13383201672E+01  0.10500000000E+00 0. -1.
</event>
<event>
11    0  0.3462209E-009  0.9118800E+02  0.7816531E-02  0.1126479E+00
         25   -1    0    0    0    0  0.00000000000E+00  0.00000000000E+00  0.99999998245E-14  0.12500000000E+03  0.12500000000E+03 0.  0.
    3000001    1    3    3    0    0  0.31085139995E+02 -0.42122524567E+01  0.42728496516E+02  0.53016539059E+02  0.10000000000E+01 0. -1.
    1000022    2    1    0    0    0  0.38366237644E+02 -0.17599328226E+01  0.48282344524E+02  0.62499997438E+02  0.99999666243E+01 0.  0.
    3000022    2    3    3    0    0  0.72810976494E+01  0.24523196341E+01  0.55538480079E+01  0.94834583790E+01  0.25000112543E+00 0.  0.
    1000022    2    1    0    0    0 -0.38366237644E+02  0.17599328226E+01 -0.48282344524E+02  0.62500002562E+02  0.99999986495E+01 0.  0.
    3000022    2    5    5    0    0 -0.35157264171E+02  0.59946901548E+00 -0.38750217757E+02  0.52326231005E+02  0.24997569100E+00 0.  0.
        -13    1    4    4    0    0  0.39583442636E+01  0.12905384372E+01  0.29433069269E+01  0.50998097448E+01  0.10500000000E+00 0. -1.
         13    1    4    4    0    0  0.33227533858E+01  0.11617811970E+01  0.26105410810E+01  0.43836486342E+01  0.10500000000E+00 0.  1.
    3000001    1    5    5    0    0 -0.32089734734E+01  0.11604638071E+01 -0.95321267668E+01  0.10173771557E+02  0.10000000000E+01 0.  1.
        -13    1    6    6    0    0 -0.22475951824E+02  0.37088139659E+00 -0.24857011779E+02  0.33513997419E+02  0.10500000000E+00 0. -1.
         13    1    6    6    0    0 -0.12681312346E+02  0.22858761889E+00 -0.13893205978E+02  0.18812233586E+02  0.10500000000E+00 0.  1.
</event>
<event>
11    0  0.3462209E-009  0.9118800E+02  0.7816531E-02  0.1126479E+00
         25   -1    0    0    0    0  0.00000000000E+00  0.00000000000E+00  0.99999998245E-14  0.12500000000E+03  0.12500000000E+03 0.  0.
    3000001    1    3    3    0    0 -0.19101299249E+01 -0.32705626058E+01  0.80999159491E+01  0.89974337714E+01  0.10000000000E+01 0.  1.
    1000022    2    1    0    0    0 -0.33037160188E+02 -0.27292932615E+02  0.44383463982E+02  0.62500000319E+02  0.10000002042E+02 0.  0.
    3000022    2    3    3    0    0 -0.31127030263E+02 -0.24022370009E+02  0.36283548033E+02  0.53502566548E+02  0.24999094770E+00 0.  0.
    1000022    2    1    0    0    0  0.33037160188E+02  0.27292932615E+02 -0.44383463982E+02  0.62499999681E+02  0.99999980504E+01 0.  0.
    3000022    2    5    5    0    0  0.26254302527E+02  0.20224529117E+02 -0.28007281073E+02  0.43391131250E+02  0.24999757066E+00 0.  0.
        -13    1    4    4    0    0 -0.15587914575E+02 -0.11947356319E+02  0.18147830672E+02  0.26740927189E+02  0.10500000000E+00 0. -1.
         13    1    4    4    0    0 -0.15539115688E+02 -0.12075013690E+02  0.18135717361E+02  0.26761639359E+02  0.10500000000E+00 0.  1.
    3000001    1    5    5    0    0  0.67828576604E+01  0.70684034982E+01 -0.16376182909E+02  0.19108868431E+02  0.10000000000E+01 0. -1.
        -13    1    6    6    0    0  0.19143141563E+02  0.14786554221E+02 -0.20464016793E+02  0.31684208416E+02  0.10500000000E+00 0.  1.
         13    1    6    6    0    0  0.71111609641E+01  0.54379748965E+01 -0.75432642805E+01  0.11706922834E+02  0.10500000000E+00 0. -1.
</event>
<event>
11    0  0.3462209E-009  0.9118800E+02  0.7816531E-02  0.1126479E+00
         25   -1    0    0    0    0  0.00000000000E+00  0.00000000000E+00  0.99999998245E-14  0.12500000000E+03  0.12500000000E+03 0.  0.
    3000001    1    3    3    0    0  0.41663374949E+01  0.11265047563E+02 -0.67585494092E+01  0.13818019208E+02  0.10000000000E+01 0.  1.
    1000022    2    1    0    0    0  0.31576110975E+01  0.47398537553E+02 -0.39365698273E+02  0.62500000315E+02  0.99999984423E+01 0.  0.
    3000022    2    3    3    0    0 -0.10087263974E+01  0.36133489989E+02 -0.32607148864E+02  0.48681981106E+02  0.24999932683E+00 0.  0.
    1000022    2    1    0    0    0 -0.31576110975E+01 -0.47398537553E+02  0.39365698273E+02  0.62499999685E+02  0.99999945109E+01 0.  0.
    3000022    2    5    5    0    0  0.14940765516E+01 -0.25465839386E+02  0.16059818336E+02  0.30145008008E+02  0.25000482976E+00 0.  0.
        -13    1    4    4    0    0 -0.51708318943E+00  0.17799189407E+02 -0.15975484281E+02  0.23922910391E+02  0.10500000000E+00 0.  1.
         13    1    4    4    0    0 -0.49164320796E+00  0.18334300583E+02 -0.16631664583E+02  0.24759070716E+02  0.10500000000E+00 0. -1.
    3000001    1    5    5    0    0 -0.46516876490E+01 -0.21932698166E+02  0.23305879937E+02  0.32354991678E+02  0.10000000000E+01 0. -1.
        -13    1    6    6    0    0  0.34424155753E+00 -0.58389069480E+01  0.36777580584E+01  0.69100120067E+01  0.10500000000E+00 0. -1.
         13    1    6    6    0    0  0.11498349940E+01 -0.19626932438E+02  0.12382060278E+02  0.23234996001E+02  0.10500000000E+00 0.  1.
</event>
<event>
11    0  0.3462209E-009  0.9118800E+02  0.7816531E-02  0.1126479E+00
         25   -1    0    0    0    0  0.00000000000E+00  0.00000000000E+00  0.99999998245E-14  0.12500000000E+03  0.12500000000E+03 0.  0.
    3000001    1    3    3    0    0 -0.23596623350E+01 -0.35609085766E+02 -0.35543417661E+02  0.50377669006E+02  0.10000000000E+01 0. -1.
    1000022    2    1    0    0    0 -0.45102624948E+01 -0.40267456405E+02 -0.46523533774E+02  0.62500002155E+02  0.10000028072E+02 0.  0.
    3000022    2    3    3    0    0 -0.21506001598E+01 -0.46583706394E+01 -0.10980116113E+02  0.12122333149E+02  0.25002613930E+00 0.  0.
    1000022    2    1    0    0    0  0.45102624948E+01  0.40267456405E+02  0.46523533774E+02  0.62499997845E+02  0.10000001135E+02 0.  0.
    3000022    2    5    5    0    0  0.60440544398E+00  0.31678961506E+02  0.31141398415E+02  0.44427143833E+02  0.25001177076E+00 0.  0.
        -13    1    4    4    0    0 -0.12860850253E+01 -0.29297063675E+01 -0.68509076223E+01  0.75619543996E+01  0.10500000000E+00 0. -1.
         13    1    4    4    0    0 -0.86451513455E+00 -0.17286642719E+01 -0.41292084904E+01  0.45603787496E+01  0.10500000000E+00 0.  1.
    3000001    1    5    5    0    0  0.39058570508E+01  0.85884948992E+01  0.15382135360E+02  0.18072854012E+02  0.10000000000E+01 0.  1.
        -13    1    6    6    0    0  0.40369572697E+00  0.20376744638E+02  0.20108993938E+02  0.28631405038E+02  0.10500000000E+00 0.  1.
         13    1    6    6    0    0  0.20070971701E+00  0.11302216868E+02  0.11032404477E+02  0.15795738795E+02  0.10500000000E+00 0. -1.
</event>
<event>
11    0  0.3462209E-009  0.9118800E+02  0.7816531E-02  0.1126479E+00
         25   -1    0    0    0    0  0.00000000000E+00  0.00000000000E+00  0.99999998245E-14  0.12500000000E+03  0.12500000000E+03 0.  0.
    3000001    1    3    3    0    0 -0.47429848847E+02  0.14947951745E+02  0.49346464678E+01  0.49983822971E+02  0.10000000000E+01 0. -1.
    1000022    2    1    0    0    0 -0.56976877515E+02  0.23019768561E+02  0.54750773336E+01  0.62499994458E+02  0.99999259727E+01 0.  0.
    3000022    2    3    3    0    0 -0.95470286684E+01  0.80718168163E+01  0.54043086576E+00  0.12516171488E+02  0.25000014501E+00 0.  0.
    1000022    2    1    0    0    0  0.56976877515E+02 -0.23019768561E+02 -0.54750773336E+01  0.62500005542E+02  0.99999952454E+01 0.  0.
    3000022    2    5    5    0    0  0.20264008789E+02 -0.89540755603E+01  0.27369233239E+01  0.22323950428E+02  0.24998417899E+00 0.  0.
        -13    1    4    4    0    0 -0.31085825024E+01  0.26416148261E+01  0.22752187777E+00  0.40870778398E+01  0.10500000000E+00 0.  1.
         13    1    4    4    0    0 -0.64384461661E+01  0.54302019902E+01  0.31290898800E+00  0.84290936477E+01  0.10500000000E+00 0. -1.
    3000001    1    5    5    0    0  0.36712868727E+02 -0.14065693001E+02 -0.82120006574E+01  0.40176055114E+02  0.10000000000E+01 0. -1.
        -13    1    6    6    0    0  0.85809504380E+01 -0.37557335977E+01  0.11006966417E+01  0.94319034863E+01  0.10500000000E+00 0. -1.
         13    1    6    6    0    0  0.11683058351E+02 -0.51983419626E+01  0.16362266821E+01  0.12892046941E+02  0.10500000000E+00 0.  1.
</event>
<event>
11    0  0.3462209E-009  0.9118800E+02  0.7816531E-02  0.1126479E+00
         25   -1    0    0    0    0  0.00000000000E+00  0.00000000000E+00  0.99999998245E-14  0.12500000000E+03  0.12500000000E+03 0.  0.
    3000001    1    3    3    0    0  0.91367351073E+01  0.50496768975E+01 -0.10877209097E+02  0.15109362757E+02  0.10000000000E+01 0.  1.
    1000022    2    1    0    0    0  0.24451369594E+02  0.15294874998E+02 -0.54538493299E+02  0.62499998531E+02  0.99999944388E+01 0.  0.
    3000022    2    3    3    0    0  0.15314634487E+02  0.10245198101E+02 -0.43661284203E+02  0.47390635774E+02  0.25001449555E+00 0.  0.
    1000022    2    1    0    0    0 -0.24451369594E+02 -0.15294874998E+02  0.54538493299E+02  0.62500001469E+02  0.10000012801E+02 0.  0.
    3000022    2    5    5    0    0 -0.31481670624E+01 -0.46113579778E+01  0.49210301780E+01  0.74467852083E+01  0.24998734800E+00 0.  0.
        -13    1    4    4    0    0  0.35989895296E+01  0.24253334732E+01 -0.10276031891E+02  0.11155394413E+02  0.10500000000E+00 0. -1.
         13    1    4    4    0    0  0.11715644957E+02  0.78198646276E+01 -0.33385252312E+02  0.36235241361E+02  0.10500000000E+00 0.  1.
    3000001    1    5    5    0    0 -0.21303202532E+02 -0.10683517020E+02  0.49617463121E+02  0.55053216261E+02  0.10000000000E+01 0. -1.
        -13    1    6    6    0    0 -0.19573544047E+01 -0.28399786212E+01  0.29599040798E+01  0.45462921152E+01  0.10500000000E+00 0.  1.
         13    1    6    6    0    0 -0.11908126577E+01 -0.17713793565E+01  0.19611260981E+01  0.29004930931E+01  0.10500000000E+00 0. -1.
</event>
<event>
11    0  0.3462209E-009  0.9118800E+02  0.7816531E-02  0.1126479E+00
         25   -1    0    0    0    0  0.00000000000E+00  0.00000000000E+00  0.99999998245E-14  0.12500000000E+03  0.12500000000E+03 0.  0.
    3000001    1    3    3    0    0 -0.45771725959E+02 -0.26586881075E+02  0.23799017275E+02  0.58045726509E+02  0.10000000000E+01 0. -1.
    1000022    2    1    0    0    0 -0.48475851676E+02 -0.26635449899E+02  0.27329369280E+02  0.62499999064E+02  0.10000003536E+02 0.  0.
    3000022    2    3    3    0    0 -0.27041257170E+01 -0.48568823803E-01  0.35303520045E+01  0.44542725559E+01  0.25000780450E+00 0.  0.
    1000022    2    1    0    0    0  0.48475851676E+02  0.26635449899E+02 -0.27329369280E+02  0.62500000936E+02  0.10000015230E+02 0.  0.
    3000022    2    5    5    0    0  0.41550052949E+02  0.20212807988E+02 -0.25669379041E+02  0.52857771695E+02  0.25000278504E+00 0.  0.
        -13    1    4    4    0    0 -0.16555114405E+01 -0.19824030853E-01  0.20576862290E+01  0.26431437227E+01  0.10500000000E+00 0.  1.
         13    1    4    4    0    0 -0.10486142764E+01 -0.28744792950E-01  0.14726657756E+01  0.18111288332E+01  0.10500000000E+00 0. -1.
    3000001    1    5    5    0    0  0.69257987276E+01  0.64226419110E+01 -0.16599902389E+01  0.96422292404E+01  0.10000000000E+01 0.  1.
        -13    1    6    6    0    0  0.29072654037E+02  0.14108378873E+02 -0.17991158791E+02  0.36985921468E+02  0.10500000000E+00 0.  1.
         13    1    6    6    0    0  0.12477398912E+02  0.61044291151E+01 -0.76782202502E+01  0.15871850228E+02  0.10500000000E+00 0. -1.
</event>
<event>
11    0  0.3462209E-009  0.9118800E+02  0.7816531E-02  0.1126479E+00
         25   -1    0    0    0    0  0.00000000000E+00  0.00000000000E+00  0.99999998245E-14  0.12500000000E+03  0.12500000000E+03 0.  0.
    3000001    1    3    3    0    0 -0.33912032773E+02  0.16073597529E+02 -0.89689441072E+01  0.38598296111E+02  0.10000000000E+01 0.  1.
    1000022    2    1    0    0    0 -0.53882185510E+02  0.21617321608E+02 -0.20872264890E+02  0.62499999596E+02  0.99999999530E+01 0.  0.
    3000022    2    3    3    0    0 -0.19970152737E+02  0.55437240792E+01 -0.11903320782E+02  0.23901703485E+02  0.25001362393E+00 0.  0.
    1000022    2    1    0    0    0  0.53882185510E+02 -0.21617321608E+02  0.20872264890E+02  0.62500000404E+02  0.10000005005E+02 0.  0.
    3000022    2    5    5    0    0  0.22000105496E+02 -0.65156292905E+01  0.36661719313E+01  0.23237069137E+02  0.24999706813E+00 0.  0.
        -13    1    4    4    0    0 -0.83156407878E+01  0.22838382416E+01 -0.50221456901E+01  0.99799183944E+01  0.10500000000E+00 0.  1.
         13    1    4    4    0    0 -0.11654511949E+02  0.32598858376E+01 -0.68811750923E+01  0.13921785090E+02  0.10500000000E+00 0. -1.
    3000001    1    5    5    0    0  0.31882080013E+02 -0.15101692318E+02  0.17206092958E+02  0.39262931268E+02  0.10000000000E+01 0.  1.
        -13    1    6    6    0    0  0.93336802794E+01 -0.27061805153E+01  0.15868226303E+01  0.98473362692E+01  0.10500000000E+00 0.  1.
         13    1    6    6    0    0  0.12666425217E+02 -0.38094487752E+01  0.20793493010E+01  0.13389732867E+02  0.10500000000E+00 0. -1.
</event>
<event>
11    0  0.3462209E-009  0.9118800E+02  0.7816531E-02  0.1126479E+00
         25   -1    0    0    0    0  0.00000000000E+00  0.00000000000E+00  0.99999998245E-14  0.12500000000E+03  0.12500000000E+03 0.  0.
    3000001    1    3    3    0    0 -0.13075038298E+02 -0.85809300322E+01 -0.46787048857E+02  0.49341837495E+02  0.10000000000E+01 0. -1.
    1000022    2    1    0    0    0 -0.20705364453E+02 -0.12530520676E+02 -0.56749659758E+02  0.62500000356E+02  0.10000004816E+02 0.  0.
    3000022    2    3    3    0    0 -0.76303261553E+01 -0.39495906438E+01 -0.99626109013E+01  0.13158162861E+02  0.24998081158E+00 0.  0.
    1000022    2    1    0    0    0  0.20705364453E+02  0.12530520676E+02  0.56749659758E+02  0.62499999644E+02  0.10000000365E+02 0.  0.
    3000022    2    5    5    0    0  0.88562097532E+01  0.87228249571E+01  0.37923841669E+02  0.39909903572E+02  0.25001963640E+00 0.  0.
        -13    1    4    4    0    0 -0.19465071213E+01 -0.10355356621E+01 -0.25840927015E+01  0.33984973401E+01  0.10500000000E+00 0. -1.
         13    1    4    4    0    0 -0.56838190340E+01 -0.29140549817E+01 -0.73785181998E+01  0.97596655205E+01  0.10500000000E+00 0.  1.
    3000001    1    5    5    0    0  0.11849154700E+02  0.38076957189E+01  0.18825818089E+02  0.22590096072E+02  0.10000000000E+01 0.  1.
        -13    1    6    6    0    0  0.51134194853E+01  0.49483373196E+01  0.21647894746E+02  0.22787616659E+02  0.10500000000E+00 0. -1.
         13    1    6    6    0    0  0.37427902678E+01  0.37744876376E+01  0.16275946923E+02  0.17122286914E+02  0.10500000000E+00 0.  1.
</event>
<event>
11    0  0.3462209E-009  0.9118800E+02  0.7816531E-02  0.1126479E+00
         25   -1    0    0    0    0  0.00000000000E+00  0.00000000000E+00  0.99999998245E-14  0.12500000000E+03  0.12500000000E+03 0.  0.
    3000001    1    3    3    0    0 -0.28966578807E+02 -0.62289028767E+01 -0.22826287047E+02  0.37415254899E+02  0.10000000000E+01 0. -1.
    1000022    2    1    0    0    0 -0.52368879941E+02 -0.72702684180E+01 -0.31794554515E+02  0.62500000577E+02  0.99999993041E+01 0.  0.
    3000022    2    3    3    0    0 -0.23402301135E+02 -0.10413655412E+01 -0.89682674680E+01  0.25084745678E+02  0.25000747863E+00 0.  0.
    1000022    2    1    0    0    0  0.52368879941E+02  0.72702684180E+01  0.31794554515E+02  0.62499999423E+02  0.99999920969E+01 0.  0.
    3000022    2    5    5    0    0  0.47125572617E+02  0.37202358911E+01  0.29327402385E+02  0.55631095415E+02  0.24999380223E+00 0.  0.
        -13    1    4    4    0    0 -0.12045461442E+02 -0.50034812147E+00 -0.45537741568E+01  0.12887644225E+02  0.10500000000E+00 0. -1.
         13    1    4    4    0    0 -0.11356839693E+02 -0.54101741977E+00 -0.44144933112E+01  0.12197101453E+02  0.10500000000E+00 0.  1.
    3000001    1    5    5    0    0  0.52433073248E+01  0.35500325269E+01  0.24671521302E+01  0.68689040085E+01  0.10000000000E+01 0.  1.
        -13    1    6    6    0    0  0.21380305656E+02  0.16713308188E+01  0.13380939432E+02  0.25277883252E+02  0.10500000000E+00 0. -1.
         13    1    6    6    0    0  0.25745266961E+02  0.20489050722E+01  0.15946462953E+02  0.30353212163E+02  0.10500000000E+00 0.  1.
</event>
<event>
11    0  0.3462209E-009  0.9118800E+02  0.7816531E-02  0.1126479E+00
         25   -1    0    0    0    0  0.00000000000E+00  0.00000000000E+00  0.99999998245E-14  0.12500000000E+03  0.12500000000E+03 0.  0.
    3000001    1    3    3    0    0  0.19805697785E+02 -0.27187156061E+02 -0.54551978220E+01  0.34090560317E+02  0.10000000000E+01 0. -1.
    1000022    2    1    0    0    0  0.34713350384E+02 -0.50988655902E+02 -0.11791816617E+01  0.62500000908E+02  0.99999959259E+01 0.  0.
    3000022    2    3    3    0    0  0.14907652599E+02 -0.23801499841E+02  0.42760161603E+01  0.28409440591E+02  0.24999960622E+00 0.  0.
    1000022    2    1    0    0    0 -0.34713350384E+02  0.50988655902E+02  0.11791816617E+01  0.62499999092E+02  0.99999845708E+01 0.  0.
    3000022    2    5    5    0    0 -0.13891730991E+02  0.20170641935E+02  0.53209955159E+01  0.25064128044E+02  0.25007068995E+00 0.  0.
        -13    1    4    4    0    0  0.89970970982E+01 -0.14259984946E+02  0.25371284140E+01  0.17051186834E+02  0.10500000000E+00 0. -1.
         13    1    4    4    0    0  0.59105555012E+01 -0.95415148954E+01  0.17388877463E+01  0.11358253758E+02  0.10500000000E+00 0. -1.
    3000001    1    5    5    0    0 -0.20821619393E+02  0.30818013967E+02 -0.41418138543E+01  0.37435871047E+02  0.10000000000E+01 0.  1.
        -13    1    6    6    0    0 -0.48657244193E+01  0.71612185188E+01  0.18983705805E+01  0.88641503067E+01  0.10500000000E+00 0.  1.
         13    1    6    6    0    0 -0.90260065718E+01  0.13009423416E+02  0.34226249354E+01  0.16199977738E+02  0.10500000000E+00 0. -1.
</event>
<event>
11    0  0.3462209E-009  0.9118800E+02  0.7816531E-02  0.1126479E+00
         25   -1    0    0    0    0  0.00000000000E+00  0.00000000000E+00  0.99999998245E-14  0.12500000000E+03  0.12500000000E+03 0.  0.
    3000001    1    3    3    0    0 -0.39161674320E+01 -0.38402983577E+02  0.37788098018E+01  0.38799547916E+02  0.10000000000E+01 0.  1.
    1000022    2    1    0    0    0 -0.98980574491E+01 -0.60891520204E+02 -0.70801553976E+00  0.62499999701E+02  0.99999951305E+01 0.  0.
    3000022    2    3    3    0    0 -0.59818900171E+01 -0.22488536627E+02 -0.44868253416E+01  0.23700451785E+02  0.25005073119E+00 0.  0.
    1000022    2    1    0    0    0  0.98980574491E+01  0.60891520204E+02  0.70801553976E+00  0.62500000299E+02  0.99999988702E+01 0.  0.
    3000022    2    5    5    0    0  0.29326713320E+00  0.55984098301E+01  0.29209916288E+01  0.63263648910E+01  0.25000480250E+00 0.  0.
        -13    1    4    4    0    0 -0.30832392999E+01 -0.11392009059E+02 -0.23208311169E+01  0.12028363025E+02  0.10500000000E+00 0.  1.
         13    1    4    4    0    0 -0.28986507172E+01 -0.11096527568E+02 -0.21659942246E+01  0.11672088760E+02  0.10500000000E+00 0. -1.
    3000001    1    5    5    0    0  0.96047903159E+01  0.55293110374E+02 -0.22129760890E+01  0.56173635408E+02  0.10000000000E+01 0. -1.
        -13    1    6    6    0    0  0.15376293293E+00  0.35741044226E+01  0.18090916503E+01  0.40101998781E+01  0.10500000000E+00 0.  1.
         13    1    6    6    0    0  0.13950420028E+00  0.20243054075E+01  0.11118999784E+01  0.23161650129E+01  0.10500000000E+00 0. -1.
</event>
<event>
11    0  0.3462209E-009  0.9118800E+02  0.7816531E-02  0.1126479E+00
         25   -1    0    0    0    0  0.00000000000E+00  0.00000000000E+00  0.99999998245E-14  0.12500000000E+03  0.12500000000E+03 0.  0.
    3000001    1    3    3    0    0  0.50714146890E+01 -0.29801959244E+01 -0.20852822761E+02  0.21689652643E+02  0.10000000000E+01 0. -1.
    1000022    2    1    0    0    0  0.20824200661E+02 -0.19338632507E+02 -0.54759655373E+02  0.62500000747E+02  0.10000009814E+02 0.  0.
    3000022    2    3    3    0    0  0.15752785972E+02 -0.16358436583E+02 -0.33906832613E+02  0.40810348104E+02  0.25000234871E+00 0.  0.
    1000022    2    1    0    0    0 -0.20824200661E+02  0.19338632507E+02  0.54759655373E+02  0.62499999253E+02  0.10000000481E+02 0.  0.
    3000022    2    5    5    0    0 -0.10573636284E+02  0.74456995636E+01  0.15392257641E+02  0.20105330623E+02  0.24999583054E+00 0.  0.
        -13    1    4    4    0    0  0.63752630781E+01 -0.66606672705E+01 -0.13868755983E+02  0.16654185219E+02  0.10500000000E+00 0. -1.
         13    1    4    4    0    0  0.93775228944E+01 -0.96977693120E+01 -0.20038076630E+02  0.24156162884E+02  0.10500000000E+00 0.  1.
    3000001    1    5    5    0    0 -0.10250564378E+02  0.11892932943E+02  0.39367397733E+02  0.42394668631E+02  0.10000000000E+01 0.  1.
        -13    1    6    6    0    0 -0.76047807434E+01  0.53095829479E+01  0.11063396499E+02  0.14437247949E+02  0.10500000000E+00 0.  1.
         13    1    6    6    0    0 -0.29688555404E+01  0.21361166157E+01  0.43288611414E+01  0.56680826738E+01  0.10500000000E+00 0. -1.
</event>
<event>
11    0  0.3462209E-009  0.9118800E+02  0.7816531E-02  0.1126479E+00
         25   -1    0    0    0    0  0.00000000000E+00  0.00000000000E+00  0.99999998245E-14  0.12500000000E+03  0.12500000000E+03 0.  0.
    3000001    1    3    3    0    0 -0.26223582416E+02  0.15362607651E+02  0.80566712803E+01  0.31457843866E+02  0.10000000000E+01 0.  1.
    1000022    2    1    0    0    0 -0.48540261887E+02  0.36894983479E+02  0.94261879478E+01  0.62500000106E+02  0.10000008203E+02 0.  0.
    3000022    2    3    3    0    0 -0.22316679471E+02  0.21532375829E+02  0.13695166675E+01  0.31042156241E+02  0.24999345686E+00 0.  0.
    1000022    2    1    0    0    0  0.48540261887E+02 -0.36894983479E+02 -0.94261879478E+01  0.62499999894E+02  0.10000006872E+02 0.  0.
    3000022    2    5    5    0    0  0.38491563131E+00 -0.24231713717E+01  0.27067952263E+00  0.24810658664E+01  0.25000177954E+00 0.  0.
        -13    1    4    4    0    0 -0.13594284426E+02  0.13173549755E+02  0.78953995906E+00  0.18946803967E+02  0.10500000000E+00 0. -1.
         13    1    4    4    0    0 -0.87223950448E+01  0.83588260741E+01  0.57997670842E+00  0.12095352274E+02  0.10500000000E+00 0.  1.
    3000001    1    5    5    0    0  0.48155346256E+02 -0.34471812108E+02 -0.96968674704E+01  0.60018934027E+02  0.10000000000E+01 0. -1.
        -13    1    6    6    0    0  0.26438556199E+00 -0.16748657158E+01  0.13787702531E+00  0.17044383137E+01  0.10500000000E+00 0. -1.
         13    1    6    6    0    0  0.12053006932E+00 -0.74830565594E+00  0.13280249732E+00  0.77662755270E+00  0.10500000000E+00 0.  1.
</event>
<event>
11    0  0.3462209E-009  0.9118800E+02  0.7816531E-02  0.1126479E+00
         25   -1    0    0    0    0  0.00000000000E+00  0.00000000000E+00  0.99999998245E-14  0.12500000000E+03  0.12500000000E+03 0.  0.
    3000001    1    3    3    0    0 -0.44285430010E+01  0.61314650119E+01  0.84670892036E+01  0.11397300377E+02  0.10000000000E+01 0. -1.
    1000022    2    1    0    0    0 -0.42343858314E+01  0.37671358823E+02  0.48674311834E+02  0.62499999397E+02  0.99999996591E+01 0.  0.
    3000022    2    3    3    0    0  0.19415716957E+00  0.31539893812E+02  0.40207222630E+02  0.51102699020E+02  0.24999371012E+00 0.  0.
    1000022    2    1    0    0    0  0.42343858314E+01 -0.37671358823E+02 -0.48674311834E+02  0.62500000603E+02  0.10000007193E+02 0.  0.
    3000022    2    5    5    0    0  0.22536098465E+01 -0.32415860729E+01 -0.19285493863E+01  0.44009555850E+01  0.24993942805E+00 0.  0.
        -13    1    4    4    0    0  0.36034410108E-01  0.73428419045E+01  0.93731750123E+01  0.11907395203E+02  0.10500000000E+00 0. -1.
         13    1    4    4    0    0  0.15812275947E+00  0.24197051907E+02  0.30834047618E+02  0.39195303817E+02  0.10500000000E+00 0.  1.
    3000001    1    5    5    0    0  0.19807759849E+01 -0.34429772751E+02 -0.46745762448E+02  0.58099045018E+02  0.10000000000E+01 0. -1.
        -13    1    6    6    0    0  0.16001715183E+01 -0.22560034594E+01 -0.13077223743E+01  0.30612519179E+01  0.10500000000E+00 0. -1.
         13    1    6    6    0    0  0.65343832824E+00 -0.98558261349E+00 -0.62082701198E+00  0.13397036671E+01  0.10500000000E+00 0.  1.
</event>
<event>
11    0  0.3462209E-009  0.9118800E+02  0.7816531E-02  0.1126479E+00
         25   -1    0    0    0    0  0.00000000000E+00  0.00000000000E+00  0.99999998245E-14  0.12500000000E+03  0.12500000000E+03 0.  0.
    3000001    1    3    3    0    0  0.40710929621E+02  0.44142450905E+02  0.75511577161E+01  0.60530618247E+02  0.10000000000E+01 0.  1.
    1000022    2    1    0    0    0  0.40358560854E+02  0.46061948172E+02  0.74654931642E+01  0.62500001681E+02  0.10000005914E+02 0.  0.
    3000022    2    3    3    0    0 -0.35236876694E+00  0.19194972673E+01 -0.85664551906E-01  0.19693834338E+01  0.24999837430E+00 0.  0.
    1000022    2    1    0    0    0 -0.40358560854E+02 -0.46061948172E+02 -0.74654931642E+01  0.62499998319E+02  0.99999849063E+01 0.  0.
    3000022    2    5    5    0    0 -0.34918908670E+02 -0.38261828280E+02 -0.28425075167E+01  0.51879090519E+02  0.24999608348E+00 0.  0.
        -13    1    4    4    0    0 -0.86201916793E-01  0.54203531955E+00 -0.62942074879E-01  0.56233420924E+00  0.10500000000E+00 0.  1.
         13    1    4    4    0    0 -0.26616685014E+00  0.13774619477E+01 -0.22722477027E-01  0.14070492246E+01  0.10500000000E+00 0. -1.
    3000001    1    5    5    0    0 -0.54396521846E+01 -0.78001198915E+01 -0.46229856476E+01  0.10620907801E+02  0.10000000000E+01 0. -1.
        -13    1    6    6    0    0 -0.20186072504E+02 -0.22130391915E+02 -0.15791408618E+01  0.29995607683E+02  0.10500000000E+00 0. -1.
         13    1    6    6    0    0 -0.14732836166E+02 -0.16131436366E+02 -0.12633666549E+01  0.21883482836E+02  0.10500000000E+00 0.  1.
</event>
<event>
11    0  0.3462209E-009  0.9118800E+02  0.7816531E-02  0.1126479E+00
         25   -1    0    0    0    0  0.00000000000E+00  0.00000000000E+00  0.99999998245E-14  0.12500000000E+03  0.12500000000E+03 0.  0.
    3000001    1    3    3    0    0  0.24071738747E+01 -0.36136723906E+02  0.57729485820E+01  0.36687657817E+02  0.10000000000E+01 0. -1.
    1000022    2    1    0    0    0  0.11608055798E+02 -0.59275373810E+02  0.12567141821E+02  0.62499997948E+02  0.99999895123E+01 0.  0.
    3000022    2    3    3    0    0  0.92008819230E+01 -0.23138649904E+02  0.67941932395E+01  0.25812340132E+02  0.24998752571E+00 0.  0.
    1000022    2    1    0    0    0 -0.11608055798E+02  0.59275373810E+02 -0.12567141821E+02  0.62500002052E+02  0.10000015160E+02 0.  0.
    3000022    2    5    5    0    0 -0.10476851834E+02  0.30393689908E+02 -0.88166223731E+01  0.33336708624E+02  0.25000248389E+00 0.  0.
        -13    1    4    4    0    0  0.61035389395E+01 -0.15356369866E+02  0.44526922495E+01  0.17114577889E+02  0.10500000000E+00 0.  1.
         13    1    4    4    0    0  0.30973429835E+01 -0.77822800373E+01  0.23415009900E+01  0.86977622423E+01  0.10500000000E+00 0. -1.
    3000001    1    5    5    0    0 -0.11312039638E+01  0.28881683902E+02 -0.37505194483E+01  0.29163293428E+02  0.10000000000E+01 0.  1.
        -13    1    6    6    0    0 -0.58716759747E+01  0.16873190088E+02 -0.48572291588E+01  0.18514449023E+02  0.10500000000E+00 0. -1.
         13    1    6    6    0    0 -0.46051758593E+01  0.13520499820E+02 -0.39593932144E+01  0.14822259602E+02  0.10500000000E+00 0.  1.
</event>
<event>
11    0  0.3462209E-009  0.9118800E+02  0.7816531E-02  0.1126479E+00
         25   -1    0    0    0    0  0.00000000000E+00  0.00000000000E+00  0.99999998245E-14  0.12500000000E+03  0.12500000000E+03 0.  0.
    3000001    1    3    3    0    0  0.13852588800E+02  0.43785836017E+01 -0.69250928812E+01  0.16125232471E+02  0.10000000000E+01 0.  1.
    1000022    2    1    0    0    0  0.44062852965E+02  0.15495432151E+02 -0.40306406309E+02  0.62499998960E+02  0.10000002574E+02 0.  0.
    3000022    2    3    3    0    0  0.30210264165E+02  0.11116848549E+02 -0.33381313428E+02  0.46374766489E+02  0.24999634084E+00 0.  0.
    1000022    2    1    0    0    0 -0.44062852965E+02 -0.15495432151E+02  0.40306406309E+02  0.62500001040E+02  0.10000015575E+02 0.  0.
    3000022    2    5    5    0    0 -0.63056608611E+01  0.71290072484E+00  0.31317516965E+01  0.70809559767E+01  0.24996502958E+00 0.  0.
        -13    1    4    4    0    0  0.20359587604E+02  0.75374113132E+01 -0.22555304487E+02  0.31306200061E+02  0.10500000000E+00 0.  1.
         13    1    4    4    0    0  0.98506765602E+01  0.35794372356E+01 -0.10826008941E+02  0.15068566429E+02  0.10500000000E+00 0. -1.
    3000001    1    5    5    0    0 -0.37757192104E+02 -0.16208332875E+02  0.37174654613E+02  0.55419045063E+02  0.10000000000E+01 0.  1.
        -13    1    6    6    0    0 -0.34625237678E+01  0.37086581353E+00  0.17890766910E+01  0.39164311178E+01  0.10500000000E+00 0. -1.
         13    1    6    6    0    0 -0.28431370933E+01  0.34203491131E+00  0.13426750055E+01  0.31645248589E+01  0.10500000000E+00 0.  1.
</event>
<event>
11    0  0.3462209E-009  0.9118800E+02  0.7816531E-02  0.1126479E+00
         25   -1    0    0    0    0  0.00000000000E+00  0.00000000000E+00  0.99999998245E-14  0.12500000000E+03  0.12500000000E+03 0.  0.
    3000001    1    3    3    0    0 -0.31571231413E+02 -0.36640333577E+02 -0.22587224039E+02  0.53389506341E+02  0.10000000000E+01 0.  1.
    1000022    2    1    0    0    0 -0.35211483853E+02 -0.41064865816E+02 -0.29666114054E+02  0.62500000687E+02  0.99999981617E+01 0.  0.
    3000022    2    3    3    0    0 -0.36402524396E+01 -0.44245322392E+01 -0.70788900149E+01  0.91104943460E+01  0.25000005141E+00 0.  0.
    1000022    2    1    0    0    0  0.35211483853E+02  0.41064865816E+02  0.29666114054E+02  0.62499999313E+02  0.99999895724E+01 0.  0.
    3000022    2    5    5    0    0  0.27535947176E+02  0.26518296680E+02  0.17656578329E+02  0.42110161520E+02  0.24999845860E+00 0.  0.
        -13    1    4    4    0    0 -0.22218370668E+01 -0.27890087689E+01 -0.44391572697E+01  0.56949339004E+01  0.10500000000E+00 0. -1.
         13    1    4    4    0    0 -0.14184153728E+01 -0.16355234703E+01 -0.26397327452E+01  0.34155604457E+01  0.10500000000E+00 0.  1.
    3000001    1    5    5    0    0  0.76755366763E+01  0.14546569136E+02  0.12009535725E+02  0.20389837793E+02  0.10000000000E+01 0.  1.
        -13    1    6    6    0    0  0.12100649065E+02  0.11665172934E+02  0.78352100946E+01  0.18544635602E+02  0.10500000000E+00 0. -1.
         13    1    6    6    0    0  0.15435298111E+02  0.14853123746E+02  0.98213682347E+01  0.23565525918E+02  0.10500000000E+00 0.  1.
</event>
<event>
11    0  0.3462209E-009  0.9118800E+02  0.7816531E-02  0.1126479E+00
         25   -1    0    0    0    0  0.00000000000E+00  0.00000000000E+00  0.99999998245E-14  0.12500000000E+03  0.12500000000E+03 0.  0.
    3000001    1    3    3    0    0  0.38413591662E+02  0.22621543282E+02  0.15400019227E+02  0.47175193026E+02  0.10000000000E+01 0. -1.
    1000022    2    1    0    0    0  0.50813873083E+02  0.31613459458E+02  0.14992982842E+02  0.62500000338E+02  0.99999995589E+01 0.  0.
    3000022    2    3    3    0    0  0.12400281421E+02  0.89919161758E+01 -0.40703638504E+00  0.15324807312E+02  0.25000941007E+00 0.  0.
    1000022    2    1    0    0    0 -0.50813873083E+02 -0.31613459458E+02 -0.14992982842E+02  0.62499999662E+02  0.99999953326E+01 0.  0.
    3000022    2    5    5    0    0 -0.32587026967E+02 -0.24087958628E+02 -0.13438480183E+02  0.42694254016E+02  0.24999791862E+00 0.  0.
        -13    1    4    4    0    0  0.77916143825E+01  0.56171707358E+01 -0.20149356398E+00  0.96079907586E+01  0.10500000000E+00 0.  1.
         13    1    4    4    0    0  0.46086670382E+01  0.33747454400E+01 -0.20554282106E+00  0.57168165534E+01  0.10500000000E+00 0. -1.
    3000001    1    5    5    0    0 -0.18226846116E+02 -0.75255008303E+01 -0.15545026599E+01  0.19805745646E+02  0.10000000000E+01 0.  1.
        -13    1    6    6    0    0 -0.23889459642E+02 -0.17648046496E+02 -0.98139982694E+01  0.31280751496E+02  0.10500000000E+00 0.  1.
         13    1    6    6    0    0 -0.86975673246E+01 -0.64399121325E+01 -0.36244819131E+01  0.11413502520E+02  0.10500000000E+00 0. -1.
</event>
<event>
11    0  0.3462209E-009  0.9118800E+02  0.7816531E-02  0.1126479E+00
         25   -1    0    0    0    0  0.00000000000E+00  0.00000000000E+00  0.99999998245E-14  0.12500000000E+03  0.12500000000E+03 0.  0.
    3000001    1    3    3    0    0  0.11762485507E+02  0.17536518751E+02  0.55423693006E+02  0.59318389236E+02  0.10000000000E+01 0. -1.
    1000022    2    1    0    0    0  0.10707931487E+02  0.19718741285E+02  0.57469651738E+02  0.62499997261E+02  0.10000011610E+02 0.  0.
    3000022    2    3    3    0    0 -0.10545540203E+01  0.21822225336E+01  0.20459587323E+01  0.31816080249E+01  0.25000624364E+00 0.  0.
    1000022    2    1    0    0    0 -0.10707931487E+02 -0.19718741285E+02 -0.57469651738E+02  0.62500002739E+02  0.10000045843E+02 0.  0.
    3000022    2    5    5    0    0 -0.11769615814E+02 -0.12587425862E+02 -0.38487449649E+02  0.42170053663E+02  0.24999842932E+00 0.  0.
        -13    1    4    4    0    0 -0.62634169348E+00  0.14287166939E+01  0.13104698347E+01  0.20400714439E+01  0.10500000000E+00 0. -1.
         13    1    4    4    0    0 -0.42821232687E+00  0.75350583965E+00  0.73548889759E+00  0.11415365810E+01  0.10500000000E+00 0.  1.
    3000001    1    5    5    0    0  0.10616843271E+01 -0.71313154233E+01 -0.18982202089E+02  0.20329949076E+02  0.10000000000E+01 0.  1.
        -13    1    6    6    0    0 -0.42419897459E+01 -0.45343531160E+01 -0.14011038502E+02  0.15325634085E+02  0.10500000000E+00 0.  1.
         13    1    6    6    0    0 -0.75276260682E+01 -0.80530727457E+01 -0.24476411147E+02  0.26844419578E+02  0.10500000000E+00 0. -1.
</event>
<event>
11    0  0.3462209E-009  0.9118800E+02  0.7816531E-02  0.1126479E+00
         25   -1    0    0    0    0  0.00000000000E+00  0.00000000000E+00  0.99999998245E-14  0.12500000000E+03  0.12500000000E+03 0.  0.
    3000001    1    3    3    0    0 -0.52772945734E+02 -0.15384126760E+02  0.80970960461E+01  0.55571738519E+02  0.10000000000E+01 0.  1.
    1000022    2    1    0    0    0 -0.57598454533E+02 -0.20308690964E+02  0.87307018389E+01  0.62500001203E+02  0.10000005130E+02 0.  0.
    3000022    2    3    3    0    0 -0.48255087981E+01 -0.49245642041E+01  0.63360579273E+00  0.69282626842E+01  0.24999951891E+00 0.  0.
    1000022    2    1    0    0    0  0.57598454533E+02  0.20308690964E+02 -0.87307018389E+01  0.62499998797E+02  0.99999900891E+01 0.  0.
    3000022    2    5    5    0    0  0.47419514340E+02  0.17841911443E+02 -0.35970736843E+01  0.50793164781E+02  0.25001033254E+00 0.  0.
        -13    1    4    4    0    0 -0.12450020227E+01 -0.12616979071E+01  0.13333101452E+00  0.17806498266E+01  0.10500000000E+00 0.  1.
         13    1    4    4    0    0 -0.35805067754E+01 -0.36628662970E+01  0.50027477821E+00  0.51476128576E+01  0.10500000000E+00 0. -1.
    3000001    1    5    5    0    0  0.10178940192E+02  0.24667795209E+01 -0.51336281546E+01  0.11706834016E+02  0.10000000000E+01 0. -1.
        -13    1    6    6    0    0  0.23711196403E+02  0.88769756749E+01 -0.18511926920E+01  0.25386206321E+02  0.10500000000E+00 0. -1.
         13    1    6    6    0    0  0.23708317937E+02  0.89649357681E+01 -0.17458809923E+01  0.25406958460E+02  0.10500000000E+00 0.  1.
</event>
<event>
11    0  0.3462209E-009  0.9118800E+02  0.7816531E-02  0.1126479E+00
         25   -1    0    0    0    0  0.00000000000E+00  0.00000000000E+00  0.99999998245E-14  0.12500000000E+03  0.12500000000E+03 0.  0.
    3000001    1    3    3    0    0  0.55874682606E+01  0.20743158208E+02 -0.26965349238E+02  0.34490991194E+02  0.10000000000E+01 0.  1.
    1000022    2    1    0    0    0  0.17469668118E+02  0.32550659933E+02 -0.49411696327E+02  0.62500003686E+02  0.99999980349E+01 0.  0.
    3000022    2    3    3    0    0  0.11882199857E+02  0.11807501725E+02 -0.22446347088E+02  0.28009012492E+02  0.25002550776E+00 0.  0.
    1000022    2    1    0    0    0 -0.17469668118E+02 -0.32550659933E+02  0.49411696327E+02  0.62499996314E+02  0.99999519560E+01 0.  0.
    3000022    2    5    5    0    0 -0.15546141714E+02 -0.19054085404E+02  0.32423087774E+02  0.40694714881E+02  0.25001119199E+00 0.  0.
        -13    1    4    4    0    0  0.82922287993E+01  0.82861758086E+01 -0.15653238736E+02  0.19556499582E+02  0.10500000000E+00 0. -1.
         13    1    4    4    0    0  0.35899710578E+01  0.35213259167E+01 -0.67931083524E+01  0.84525129101E+01  0.10500000000E+00 0.  1.
    3000001    1    5    5    0    0 -0.19235264034E+01 -0.13496574529E+02  0.16988608552E+02  0.21805281433E+02  0.10000000000E+01 0. -1.
        -13    1    6    6    0    0 -0.97100402874E+01 -0.11825748679E+02  0.20112016710E+02  0.25271277280E+02  0.10500000000E+00 0.  1.
         13    1    6    6    0    0 -0.58361014269E+01 -0.72283367249E+01  0.12311071064E+02  0.15423437601E+02  0.10500000000E+00 0. -1.
</event>
<event>
11    0  0.3462209E-009  0.9118800E+02  0.7816531E-02  0.1126479E+00
         25   -1    0    0    0    0  0.00000000000E+00  0.00000000000E+00  0.99999998245E-14  0.12500000000E+03  0.12500000000E+03 0.  0.
    3000001    1    3    3    0    0  0.36202716978E+02  0.10886825197E+02  0.22427389810E+02  0.43967573201E+02  0.10000000000E+01 0.  1.
    1000022    2    1    0    0    0  0.53542661959E+02  0.10148696631E+02  0.28921223750E+02  0.62500001008E+02  0.10000012490E+02 0.  0.
    3000022    2    3    3    0    0  0.17339944981E+02 -0.73812856581E+00  0.64938339403E+01  0.18532427807E+02  0.24995091983E+00 0.  0.
    1000022    2    1    0    0    0 -0.53542661959E+02 -0.10148696631E+02 -0.28921223750E+02  0.62499998992E+02  0.99999998919E+01 0.  0.
    3000022    2    5    5    0    0 -0.33927552779E+02 -0.11177354637E+02 -0.19372823257E+02  0.40637185874E+02  0.25000119217E+00 0.  0.
        -13    1    4    4    0    0  0.10756627966E+02 -0.51826185556E+00  0.40366329542E+01  0.11501263894E+02  0.10500000000E+00 0. -1.
         13    1    4    4    0    0  0.65833170149E+01 -0.21986671025E+00  0.24572009861E+01  0.70311639132E+01  0.10500000000E+00 0.  1.
    3000001    1    5    5    0    0 -0.19615109180E+02  0.10286580058E+01 -0.95484004933E+01  0.21862813118E+02  0.10000000000E+01 0. -1.
        -13    1    6    6    0    0 -0.12459000094E+02 -0.41571629592E+01 -0.71594056722E+01  0.14959171160E+02  0.10500000000E+00 0. -1.
         13    1    6    6    0    0 -0.21468552685E+02 -0.70201916782E+01 -0.12213417585E+02  0.25678014715E+02  0.10500000000E+00 0.  1.
</event>
<event>
11    0  0.3462209E-009  0.9118800E+02  0.7816531E-02  0.1126479E+00
         25   -1    0    0    0    0  0.00000000000E+00  0.00000000000E+00  0.99999998245E-14  0.12500000000E+03  0.12500000000E+03 0.  0.
    3000001    1    3    3    0    0 -0.22984806685E+01 -0.13300869204E+02 -0.22754600547E+02  0.26475799913E+02  0.10000000000E+01 0.  1.
    1000022    2    1    0    0    0 -0.12848957191E+02 -0.37450411960E+02 -0.47314065463E+02  0.62499997124E+02  0.99999896461E+01 0.  0.
    3000022    2    3    3    0    0 -0.10550476523E+02 -0.24149542756E+02 -0.24559464916E+02  0.36024197211E+02  0.24999507054E+00 0.  0.
    1000022    2    1    0    0    0  0.12848957191E+02  0.37450411960E+02  0.47314065463E+02  0.62500002876E+02  0.10000025596E+02 0.  0.
    3000022    2    5    5    0    0  0.25747379502E+01  0.11278314992E+02  0.76512293846E+01  0.13872039660E+02  0.25001731877E+00 0.  0.
        -13    1    4    4    0    0 -0.57880127964E+01 -0.13409929981E+02 -0.13590015675E+02  0.19950610649E+02  0.10500000000E+00 0.  1.
         13    1    4    4    0    0 -0.47624637266E+01 -0.10739612775E+02 -0.10969449241E+02  0.16073586562E+02  0.10500000000E+00 0. -1.
    3000001    1    5    5    0    0  0.10274219241E+02  0.26172096968E+02  0.39662836079E+02  0.48627963216E+02  0.10000000000E+01 0. -1.
        -13    1    6    6    0    0  0.16017505501E+01  0.69911625812E+01  0.46705915354E+01  0.85596383891E+01  0.10500000000E+00 0. -1.
         13    1    6    6    0    0  0.97298740011E+00  0.42871524107E+01  0.29806378492E+01  0.53124012708E+01  0.10500000000E+00 0.  1.
</event>
<event>
11    0  0.3462209E-009  0.9118800E+02  0.7816531E-02  0.1126479E+00
         25   -1    0    0    0    0  0.00000000000E+00  0.00000000000E+00  0.99999998245E-14  0.12500000000E+03  0.12500000000E+03 0.  0.
    3000001    1    3    3    0    0  0.11372923024E+02 -0.19481985796E+00  0.13302062503E+02  0.17530721597E+02  0.10000000000E+01 0. -1.
    1000022    2    1    0    0    0  0.27553051936E+02  0.37581690311E+01  0.55072273703E+02  0.62499997019E+02  0.99999895565E+01 0.  0.
    3000022    2    3    3    0    0  0.16180128912E+02  0.39529888891E+01  0.41770211200E+02  0.44969275422E+02  0.24999101967E+00 0.  0.
    1000022    2    1    0    0    0 -0.27553051936E+02 -0.37581690311E+01 -0.55072273703E+02  0.62500002981E+02  0.10000026813E+02 0.  0.
    3000022    2    5    5    0    0 -0.24013466980E+02 -0.56324211289E+01 -0.51236582352E+02  0.56864933263E+02  0.24999926989E+00 0.  0.
        -13    1    4    4    0    0  0.98223148787E+01  0.24302576404E+01  0.25521974161E+02  0.27454803075E+02  0.10500000000E+00 0. -1.
         13    1    4    4    0    0  0.63578140332E+01  0.15227312487E+01  0.16248237039E+02  0.17514472348E+02  0.10500000000E+00 0.  1.
    3000001    1    5    5    0    0 -0.35395849557E+01  0.18742520978E+01 -0.38356913509E+01  0.56350697178E+01  0.10000000000E+01 0.  1.
        -13    1    6    6    0    0 -0.10985810858E+02 -0.25152642157E+01 -0.23341869887E+02  0.25920426483E+02  0.10500000000E+00 0. -1.
         13    1    6    6    0    0 -0.13027656123E+02 -0.31171569131E+01 -0.27894712466E+02  0.30944506779E+02  0.10500000000E+00 0.  1.
</event>
<event>
11    0  0.3462209E-009  0.9118800E+02  0.7816531E-02  0.1126479E+00
         25   -1    0    0    0    0  0.00000000000E+00  0.00000000000E+00  0.99999998245E-14  0.12500000000E+03  0.12500000000E+03 0.  0.
    3000001    1    3    3    0    0 -0.26886376126E+02 -0.27818301571E+02 -0.18594991472E+02  0.42936101725E+02  0.10000000000E+01 0.  1.
    1000022    2    1    0    0    0 -0.41296373013E+02 -0.40872883643E+02 -0.20742857390E+02  0.62499995678E+02  0.10000014282E+02 0.  0.
    3000022    2    3    3    0    0 -0.14409996887E+02 -0.13054582072E+02 -0.21478659177E+01  0.19563893953E+02  0.24999043707E+00 0.  0.
    1000022    2    1    0    0    0  0.41296373013E+02  0.40872883643E+02  0.20742857390E+02  0.62500004322E+02  0.10000068310E+02 0.  0.
    3000022    2    5    5    0    0  0.33992089826E+02  0.29213937348E+02  0.12941973377E+02  0.46652689945E+02  0.24999615238E+00 0.  0.
        -13    1    4    4    0    0 -0.80465768836E+01 -0.72008479432E+01 -0.11843160176E+01  0.10863389898E+02  0.10500000000E+00 0. -1.
         13    1    4    4    0    0 -0.63634200039E+01 -0.58537341287E+01 -0.96354990010E+00  0.87005040546E+01  0.10500000000E+00 0.  1.
    3000001    1    5    5    0    0  0.73042831878E+01  0.11658946295E+02  0.78008840130E+01  0.15847314378E+02  0.10000000000E+01 0. -1.
        -13    1    6    6    0    0  0.13238534876E+02  0.11453249171E+02  0.50793386819E+01  0.18227628169E+02  0.10500000000E+00 0. -1.
         13    1    6    6    0    0  0.20753554950E+02  0.17760688177E+02  0.78626346950E+01  0.28425061775E+02  0.10500000000E+00 0.  1.
</event>
<event>
11    0  0.3462209E-009  0.9118800E+02  0.7816531E-02  0.1126479E+00
         25   -1    0    0    0    0  0.00000000000E+00  0.00000000000E+00  0.99999998245E-14  0.12500000000E+03  0.12500000000E+03 0.  0.
    3000001    1    3    3    0    0  0.22365927314E+02  0.33022616243E+01  0.59106207569E+01  0.23389636042E+02  0.10000000000E+01 0. -1.
    1000022    2    1    0    0    0  0.59065558982E+02 -0.38046389130E+01  0.17407884746E+02  0.62500000158E+02  0.10000001667E+02 0.  0.
    3000022    2    3    3    0    0  0.36699631668E+02 -0.71069005373E+01  0.11497263989E+02  0.39110364116E+02  0.25000449314E+00 0.  0.
    1000022    2    1    0    0    0 -0.59065558982E+02  0.38046389130E+01 -0.17407884746E+02  0.62499999842E+02  0.99999996855E+01 0.  0.
    3000022    2    5    5    0    0 -0.23227658654E+02 -0.31647170539E+01 -0.81752660656E+01  0.24828150004E+02  0.24999353005E+00 0.  0.
        -13    1    4    4    0    0  0.20823718706E+02 -0.40550236709E+01  0.64602098812E+01  0.22176920761E+02  0.10500000000E+00 0. -1.
         13    1    4    4    0    0  0.15875912962E+02 -0.30518768664E+01  0.50370541074E+01  0.16933443355E+02  0.10500000000E+00 0.  1.
    3000001    1    5    5    0    0 -0.35837900328E+02  0.69693559669E+01 -0.92326186800E+01  0.37671849838E+02  0.10000000000E+01 0. -1.
        -13    1    6    6    0    0 -0.10737602330E+02 -0.14359980516E+01 -0.38432414607E+01  0.11495204397E+02  0.10500000000E+00 0. -1.
         13    1    6    6    0    0 -0.12490056324E+02 -0.17287190024E+01 -0.43320246048E+01  0.13332945606E+02  0.10500000000E+00 0.  1.
</event>
<event>
11    0  0.3462209E-009  0.9118800E+02  0.7816531E-02  0.1126479E+00
         25   -1    0    0    0    0  0.00000000000E+00  0.00000000000E+00  0.99999998245E-14  0.12500000000E+03  0.12500000000E+03 0.  0.
    3000001    1    3    3    0    0  0.40886844479E+02  0.18404655070E+01 -0.26433270219E+02  0.48732321299E+02  0.10000000000E+01 0.  1.
    1000022    2    1    0    0    0  0.54398629418E+02  0.23886461679E+01 -0.29005748263E+02  0.62500000066E+02  0.10000003141E+02 0.  0.
    3000022    2    3    3    0    0  0.13511784939E+02  0.54818066091E+00 -0.25724780446E+01  0.13767678767E+02  0.25000210873E+00 0.  0.
    1000022    2    1    0    0    0 -0.54398629418E+02 -0.23886461679E+01  0.29005748263E+02  0.62499999934E+02  0.10000002321E+02 0.  0.
    3000022    2    5    5    0    0 -0.10050428136E+02  0.34005906350E+01  0.60983164065E+01  0.12240387381E+02  0.24999574089E+00 0.  0.
        -13    1    4    4    0    0  0.61228732698E+01  0.24123197690E+00 -0.10980953004E+01  0.62261230500E+01  0.10500000000E+00 0. -1.
         13    1    4    4    0    0  0.73889116696E+01  0.30694868401E+00 -0.14743827443E+01  0.75415557170E+01  0.10500000000E+00 0.  1.
    3000001    1    5    5    0    0 -0.44348201282E+02 -0.57892368029E+01  0.22907431857E+02  0.50259612553E+02  0.10000000000E+01 0. -1.
        -13    1    6    6    0    0 -0.56555645544E+01  0.19804855681E+01  0.34643968841E+01  0.69224854124E+01  0.10500000000E+00 0.  1.
         13    1    6    6    0    0 -0.43948635811E+01  0.14201050669E+01  0.26339195224E+01  0.53179019687E+01  0.10500000000E+00 0. -1.
</event>
<event>
11    0  0.3462209E-009  0.9118800E+02  0.7816531E-02  0.1126479E+00
         25   -1    0    0    0    0  0.00000000000E+00  0.00000000000E+00  0.99999998245E-14  0.12500000000E+03  0.12500000000E+03 0.  0.
    3000001    1    3    3    0    0 -0.30742000723E+02  0.10790912030E+02 -0.29692749990E+02  0.44092786177E+02  0.10000000000E+01 0.  1.
    1000022    2    1    0    0    0 -0.38437519976E+02  0.18040710752E+02 -0.44758685346E+02  0.62499999560E+02  0.99999922410E+01 0.  0.
    3000022    2    3    3    0    0 -0.76955192531E+01  0.72497987216E+01 -0.15065935356E+02  0.18407213383E+02  0.24999662896E+00 0.  0.
    1000022    2    1    0    0    0  0.38437519976E+02 -0.18040710752E+02  0.44758685346E+02  0.62500000440E+02  0.99999977381E+01 0.  0.
    3000022    2    5    5    0    0  0.20558544402E+02 -0.14047926410E+02  0.21672385638E+02  0.33011403854E+02  0.25000172704E+00 0.  0.
        -13    1    4    4    0    0 -0.52149143598E+01  0.49455195457E+01 -0.10161759794E+02  0.12446922610E+02  0.10500000000E+00 0.  1.
         13    1    4    4    0    0 -0.24806048933E+01  0.23042791758E+01 -0.49041755619E+01  0.59602907730E+01  0.10500000000E+00 0. -1.
    3000001    1    5    5    0    0  0.17878975574E+02 -0.39927843424E+01  0.23086299708E+02  0.29488596586E+02  0.10000000000E+01 0. -1.
        -13    1    6    6    0    0  0.12634572185E+02 -0.86628172603E+01  0.13258558482E+02  0.20260237294E+02  0.10500000000E+00 0. -1.
         13    1    6    6    0    0  0.79239722170E+01 -0.53851091492E+01  0.84138271558E+01  0.12751166560E+02  0.10500000000E+00 0.  1.
</event>
<event>
11    0  0.3462209E-009  0.9118800E+02  0.7816531E-02  0.1126479E+00
         25   -1    0    0    0    0  0.00000000000E+00  0.00000000000E+00  0.99999998245E-14  0.12500000000E+03  0.12500000000E+03 0.  0.
    3000001    1    3    3    0    0 -0.17912344108E+02  0.12223558866E+02 -0.85766568277E+01  0.23341518912E+02  0.10000000000E+01 0.  1.
    1000022    2    1    0    0    0 -0.47617232506E+02  0.37605413650E+02 -0.11166110670E+02  0.62500000839E+02  0.10000005498E+02 0.  0.
    3000022    2    3    3    0    0 -0.29704888398E+02  0.25381854785E+02 -0.25894538423E+01  0.39158481927E+02  0.24997704827E+00 0.  0.
    1000022    2    1    0    0    0  0.47617232506E+02 -0.37605413650E+02  0.11166110670E+02  0.62499999161E+02  0.99999950145E+01 0.  0.
    3000022    2    5    5    0    0  0.26709316136E+02 -0.16851857737E+02  0.94852801469E+01  0.32975835477E+02  0.25001661550E+00 0.  0.
        -13    1    4    4    0    0 -0.11918447222E+02  0.10260773970E+02 -0.10179484681E+01  0.15760079655E+02  0.10500000000E+00 0. -1.
         13    1    4    4    0    0 -0.17786441177E+02  0.15121080815E+02 -0.15715053742E+01  0.23398402272E+02  0.10500000000E+00 0.  1.
    3000001    1    5    5    0    0  0.20907916370E+02 -0.20753555913E+02  0.16808305230E+01  0.29524163684E+02  0.10000000000E+01 0.  1.
        -13    1    6    6    0    0  0.10212424163E+02 -0.64161549791E+01  0.36815097645E+01  0.12610519067E+02  0.10500000000E+00 0. -1.
         13    1    6    6    0    0  0.16496891974E+02 -0.10435702758E+02  0.58037703824E+01  0.20365316410E+02  0.10500000000E+00 0.  1.
</event>
<event>
11    0  0.3462209E-009  0.9118800E+02  0.7816531E-02  0.1126479E+00
         25   -1    0    0    0    0  0.00000000000E+00  0.00000000000E+00  0.99999998245E-14  0.12500000000E+03  0.12500000000E+03 0.  0.
    3000001    1    3    3    0    0 -0.48772231702E+01  0.12924322910E+00 -0.20346598736E+01  0.53799489277E+01  0.10000000000E+01 0. -1.
    1000022    2    1    0    0    0 -0.45699544815E+02  0.29580500831E+02 -0.29030943049E+02  0.62500000755E+02  0.10000000714E+02 0.  0.
    3000022    2    3    3    0    0 -0.40822321645E+02  0.29451257602E+02 -0.26996283176E+02  0.57120051827E+02  0.24999318967E+00 0.  0.
    1000022    2    1    0    0    0  0.45699544815E+02 -0.29580500831E+02  0.29030943049E+02  0.62499999245E+02  0.99999912788E+01 0.  0.
    3000022    2    5    5    0    0  0.29184497421E+02 -0.14200636723E+02  0.13881508599E+02  0.35300874726E+02  0.25000483649E+00 0.  0.
        -13    1    4    4    0    0 -0.23858931083E+02  0.17149855331E+02 -0.15713831119E+02  0.33321189111E+02  0.10500000000E+00 0.  1.
         13    1    4    4    0    0 -0.16963390562E+02  0.12301402271E+02 -0.11282452057E+02  0.23798862716E+02  0.10500000000E+00 0. -1.
    3000001    1    5    5    0    0  0.16515047395E+02 -0.15379864108E+02  0.15149434451E+02  0.27199124519E+02  0.10000000000E+01 0. -1.
        -13    1    6    6    0    0  0.15507260544E+02 -0.76176263268E+01  0.73695505391E+01  0.18783627460E+02  0.10500000000E+00 0. -1.
         13    1    6    6    0    0  0.13677236877E+02 -0.65830103960E+01  0.65119580598E+01  0.16517247266E+02  0.10500000000E+00 0.  1.
</event>
<event>
11    0  0.3462209E-009  0.9118800E+02  0.7816531E-02  0.1126479E+00
         25   -1    0    0    0    0  0.00000000000E+00  0.00000000000E+00  0.99999998245E-14  0.12500000000E+03  0.12500000000E+03 0.  0.
    3000001    1    3    3    0    0  0.99293980608E+01 -0.30038185954E+01 -0.25665140316E+02  0.27700456665E+02  0.10000000000E+01 0. -1.
    1000022    2    1    0    0    0  0.18452895943E+02  0.35332866969E+01 -0.58764414620E+02  0.62500000077E+02  0.10000005019E+02 0.  0.
    3000022    2    3    3    0    0  0.85234978823E+01  0.65371052924E+01 -0.33099274304E+02  0.34799543412E+02  0.25000091421E+00 0.  0.
    1000022    2    1    0    0    0 -0.18452895943E+02 -0.35332866969E+01  0.58764414620E+02  0.62499999923E+02  0.10000004059E+02 0.  0.
    3000022    2    5    5    0    0 -0.62590859768E+01 -0.50774174711E+01  0.32488646970E+02  0.33474333575E+02  0.25000184200E+00 0.  0.
        -13    1    4    4    0    0  0.58244458415E+01  0.45056155247E+01 -0.22560986415E+02  0.23732548823E+02  0.10500000000E+00 0. -1.
         13    1    4    4    0    0  0.26990520408E+01  0.20314897676E+01 -0.10538287889E+02  0.11066994589E+02  0.10500000000E+00 0.  1.
    3000001    1    5    5    0    0 -0.12193809966E+02  0.15441307742E+01  0.26275767650E+02  0.29025666348E+02  0.10000000000E+01 0.  1.
        -13    1    6    6    0    0 -0.33747836395E+01 -0.27748676471E+01  0.17861430593E+02  0.18388332792E+02  0.10500000000E+00 0. -1.
         13    1    6    6    0    0 -0.28843023373E+01 -0.23025498240E+01  0.14627216378E+02  0.15086000783E+02  0.10500000000E+00 0.  1.
</event>
<event>
11    0  0.3462209E-009  0.9118800E+02  0.7816531E-02  0.1126479E+00
         25   -1    0    0    0    0  0.00000000000E+00  0.00000000000E+00  0.99999998245E-14  0.12500000000E+03  0.12500000000E+03 0.  0.
    3000001    1    3    3    0    0  0.23602824979E+02 -0.36667625752E+02  0.42261023494E+02  0.60733863964E+02  0.10000000000E+01 0. -1.
    1000022    2    1    0    0    0  0.23095554798E+02 -0.38327444192E+02  0.42471782913E+02  0.62500001819E+02  0.10000012692E+02 0.  0.
    3000022    2    3    3    0    0 -0.50727018168E+00 -0.16598184405E+01  0.21075941940E+00  0.17661378549E+01  0.25000619407E+00 0.  0.
    1000022    2    1    0    0    0 -0.23095554798E+02  0.38327444192E+02 -0.42471782913E+02  0.62499998181E+02  0.99999899548E+01 0.  0.
    3000022    2    5    5    0    0 -0.92458728833E+01  0.18003495770E+02 -0.12802609478E+02  0.23949558223E+02  0.25000867908E+00 0.  0.
        -13    1    4    4    0    0 -0.29774360279E+00 -0.74744650367E+00  0.10850592606E+00  0.81861227992E+00  0.10500000000E+00 0.  1.
         13    1    4    4    0    0 -0.20952657890E+00 -0.91237193683E+00  0.10225349333E+00  0.94752557500E+00  0.10500000000E+00 0. -1.
    3000001    1    5    5    0    0 -0.13849681914E+02  0.20323948422E+02 -0.29669173435E+02  0.38550439958E+02  0.10000000000E+01 0.  1.
        -13    1    6    6    0    0 -0.34264229322E+01  0.67618539439E+01 -0.47434038290E+01  0.89428154266E+01  0.10500000000E+00 0. -1.
         13    1    6    6    0    0 -0.58194499512E+01  0.11241641826E+02 -0.80592056487E+01  0.15006742797E+02  0.10500000000E+00 0.  1.
</event>
<event>
11    0  0.3462209E-009  0.9118800E+02  0.7816531E-02  0.1126479E+00
         25   -1    0    0    0    0  0.00000000000E+00  0.00000000000E+00  0.99999998245E-14  0.12500000000E+03  0.12500000000E+03 0.  0.
    3000001    1    3    3    0    0 -0.79697300113E+00  0.81921140347E+00 -0.10865734992E+01  0.18673283743E+01  0.10000000000E+01 0.  1.
    1000022    2    1    0    0    0  0.82944428226E+01  0.55800507609E+02 -0.24975122936E+02  0.62500009889E+02  0.10000001964E+02 0.  0.
    3000022    2    3    3    0    0  0.90914158238E+01  0.54981296206E+02 -0.23888549436E+02  0.60632681514E+02  0.24999865780E+00 0.  0.
    1000022    2    1    0    0    0 -0.82944428226E+01 -0.55800507609E+02  0.24975122936E+02  0.62499990111E+02  0.99998783542E+01 0.  0.
    3000022    2    5    5    0    0 -0.13177222754E+01 -0.97084463783E+01  0.43876855715E+00  0.98104709991E+01  0.25000060310E+00 0.  0.
        -13    1    4    4    0    0  0.33061513597E+01  0.19956727716E+02 -0.86080605164E+01  0.21984343265E+02  0.10500000000E+00 0. -1.
         13    1    4    4    0    0  0.57852644641E+01  0.35024568490E+02 -0.15280488920E+02  0.38648338250E+02  0.10500000000E+00 0.  1.
    3000001    1    5    5    0    0 -0.69767205472E+01 -0.46092061231E+02  0.24536354378E+02  0.52689519112E+02  0.10000000000E+01 0.  1.
        -13    1    6    6    0    0 -0.71339809380E+00 -0.56141652060E+01  0.29708992335E+00  0.56680750897E+01  0.10500000000E+00 0.  1.
         13    1    6    6    0    0 -0.60432418159E+00 -0.40942811723E+01  0.14167863380E+00  0.41423959094E+01  0.10500000000E+00 0. -1.
</event>
<event>
11    0  0.3462209E-009  0.9118800E+02  0.7816531E-02  0.1126479E+00
         25   -1    0    0    0    0  0.00000000000E+00  0.00000000000E+00  0.99999998245E-14  0.12500000000E+03  0.12500000000E+03 0.  0.
    3000001    1    3    3    0    0 -0.12476754548E+02 -0.16498723840E+02  0.92085372298E+00  0.20729815821E+02  0.10000000000E+01 0.  1.
    1000022    2    1    0    0    0 -0.38485892134E+02 -0.46973028962E+02 -0.10891317498E+02  0.62500001361E+02  0.10000001504E+02 0.  0.
    3000022    2    3    3    0    0 -0.26009137586E+02 -0.30474305122E+02 -0.11812171221E+02  0.41770185540E+02  0.25000091500E+00 0.  0.
    1000022    2    1    0    0    0  0.38485892134E+02  0.46973028962E+02  0.10891317498E+02  0.62499998639E+02  0.99999844877E+01 0.  0.
    3000022    2    5    5    0    0  0.20900407591E+02  0.28561027377E+02  0.10854792033E+02  0.37019566870E+02  0.24999777876E+00 0.  0.
        -13    1    4    4    0    0 -0.13834196081E+02 -0.16308152671E+02 -0.63259644817E+01  0.22301786394E+02  0.10500000000E+00 0.  1.
         13    1    4    4    0    0 -0.12174941506E+02 -0.14166152451E+02 -0.54862067392E+01  0.19468399146E+02  0.10500000000E+00 0. -1.
    3000001    1    5    5    0    0  0.17585484543E+02  0.18412001585E+02  0.36525464918E-01  0.25480431768E+02  0.10000000000E+01 0. -1.
        -13    1    6    6    0    0  0.12857810101E+02  0.17611209394E+02  0.66288027450E+01  0.22791007607E+02  0.10500000000E+00 0.  1.
         13    1    6    6    0    0  0.80425974899E+01  0.10949817983E+02  0.42259892880E+01  0.14228559263E+02  0.10500000000E+00 0. -1.
</event>
<event>
11    0  0.3462209E-009  0.9118800E+02  0.7816531E-02  0.1126479E+00
         25   -1    0    0    0    0  0.00000000000E+00  0.00000000000E+00  0.99999998245E-14  0.12500000000E+03  0.12500000000E+03 0.  0.
    3000001    1    3    3    0    0  0.12980986992E+02  0.18075593854E+02 -0.13812821697E+02  0.26211202942E+02  0.10000000000E+01 0.  1.
    1000022    2    1    0    0    0  0.39989168134E+02  0.37749550743E+02 -0.27965837491E+02  0.62499999823E+02  0.99999880953E+01 0.  0.
    3000022    2    3    3    0    0  0.27008181142E+02  0.19673956889E+02 -0.14153015795E+02  0.36288796881E+02  0.24998936316E+00 0.  0.
    1000022    2    1    0    0    0 -0.39989168134E+02 -0.37749550743E+02  0.27965837491E+02  0.62500000177E+02  0.99999903077E+01 0.  0.
    3000022    2    5    5    0    0 -0.16927627348E+02 -0.22382443354E+02  0.15932699256E+02  0.32271221361E+02  0.24996877946E+00 0.  0.
        -13    1    4    4    0    0  0.13933305509E+02  0.10107177846E+02 -0.72274424004E+01  0.18669199101E+02  0.10500000000E+00 0.  1.
         13    1    4    4    0    0  0.13074875633E+02  0.95667790436E+01 -0.69255733943E+01  0.17619597780E+02  0.10500000000E+00 0. -1.
    3000001    1    5    5    0    0 -0.23061540786E+02 -0.15367107389E+02  0.12033138235E+02  0.30228778816E+02  0.10000000000E+01 0.  1.
        -13    1    6    6    0    0 -0.97858474570E+01 -0.13016265111E+02  0.91935514092E+01  0.18700758819E+02  0.10500000000E+00 0.  1.
         13    1    6    6    0    0 -0.71417798914E+01 -0.93661782434E+01  0.67391478468E+01  0.13570462542E+02  0.10500000000E+00 0. -1.
</event>
<event>
11    0  0.3462209E-009  0.9118800E+02  0.7816531E-02  0.1126479E+00
         25   -1    0    0    0    0  0.00000000000E+00  0.00000000000E+00  0.99999998245E-14  0.12500000000E+03  0.12500000000E+03 0.  0.
    3000001    1    3    3    0    0 -0.54763646189E+00  0.11533858469E+02  0.87850951154E+01  0.14543304062E+02  0.10000000000E+01 0. -1.
    1000022    2    1    0    0    0 -0.18324450782E+02  0.50658391012E+02  0.30069783655E+02  0.62499999528E+02  0.99999987746E+01 0.  0.
    3000022    2    3    3    0    0 -0.17776814320E+02  0.39124532544E+02  0.21284688540E+02  0.47956695465E+02  0.24999916023E+00 0.  0.
    1000022    2    1    0    0    0  0.18324450782E+02 -0.50658391012E+02 -0.30069783655E+02  0.62500000472E+02  0.10000004675E+02 0.  0.
    3000022    2    5    5    0    0  0.10256145647E+02 -0.21829751178E+02 -0.18467899625E+02  0.30378485322E+02  0.24998778526E+00 0.  0.
        -13    1    4    4    0    0 -0.66889000471E+01  0.14581313090E+02  0.79285331519E+01  0.17894936105E+02  0.10500000000E+00 0.  1.
         13    1    4    4    0    0 -0.11087914273E+02  0.24543219454E+02  0.13356155388E+02  0.30061759360E+02  0.10500000000E+00 0. -1.
    3000001    1    5    5    0    0  0.80683051353E+01 -0.28828639835E+02 -0.11601884030E+02  0.32121515150E+02  0.10000000000E+01 0.  1.
        -13    1    6    6    0    0  0.65391879796E+01 -0.13990016449E+02 -0.11762049009E+02  0.19412324991E+02  0.10500000000E+00 0.  1.
         13    1    6    6    0    0  0.37169576673E+01 -0.78397347286E+01 -0.67058506162E+01  0.10966160331E+02  0.10500000000E+00 0. -1.
</event>
<event>
11    0  0.3462209E-009  0.9118800E+02  0.7816531E-02  0.1126479E+00
         25   -1    0    0    0    0  0.00000000000E+00  0.00000000000E+00  0.99999998245E-14  0.12500000000E+03  0.12500000000E+03 0.  0.
    3000001    1    3    3    0    0  0.11885357971E+01  0.12702465551E+02 -0.80230894153E+01  0.15104145530E+02  0.10000000000E+01 0. -1.
    1000022    2    1    0    0    0  0.99627297947E+01  0.40957512423E+02 -0.45049706264E+02  0.62499999902E+02  0.10000007227E+02 0.  0.
    3000022    2    3    3    0    0  0.87741939976E+01  0.28255046872E+02 -0.37026616848E+02  0.47395854373E+02  0.25000490861E+00 0.  0.
    1000022    2    1    0    0    0 -0.99627297947E+01 -0.40957512423E+02  0.45049706264E+02  0.62500000098E+02  0.10000008449E+02 0.  0.
    3000022    2    5    5    0    0 -0.55461223578E+01 -0.12946377968E+02  0.21093712710E+02  0.25364845570E+02  0.24999837673E+00 0.  0.
        -13    1    4    4    0    0  0.41403452593E+01  0.13295504228E+02 -0.17533929695E+02  0.22391127866E+02  0.10500000000E+00 0. -1.
         13    1    4    4    0    0  0.46338487383E+01  0.14959542644E+02 -0.19492687153E+02  0.25004726507E+02  0.10500000000E+00 0.  1.
    3000001    1    5    5    0    0 -0.44166074369E+01 -0.28011134454E+02  0.23955993554E+02  0.37135154528E+02  0.10000000000E+01 0.  1.
        -13    1    6    6    0    0 -0.14072603166E+01 -0.32333190336E+01  0.53135903266E+01  0.63780875449E+01  0.10500000000E+00 0.  1.
         13    1    6    6    0    0 -0.41388620412E+01 -0.97130589348E+01  0.15780122383E+02  0.18986758025E+02  0.10500000000E+00 0. -1.
</event>
<event>
11    0  0.3462209E-009  0.9118800E+02  0.7816531E-02  0.1126479E+00
         25   -1    0    0    0    0  0.00000000000E+00  0.00000000000E+00  0.99999998245E-14  0.12500000000E+03  0.12500000000E+03 0.  0.
    3000001    1    3    3    0    0  0.18169022874E+02  0.13557915756E+02  0.57751948620E+01  0.23415451042E+02  0.10000000000E+01 0.  1.
    1000022    2    1    0    0    0  0.54227674384E+02  0.24817563468E+02  0.15801833419E+02  0.62500000375E+02  0.99999990972E+01 0.  0.
    3000022    2    3    3    0    0  0.36058651510E+02  0.11259647713E+02  0.10026638557E+02  0.39084549333E+02  0.25000093644E+00 0.  0.
    1000022    2    1    0    0    0 -0.54227674384E+02 -0.24817563468E+02 -0.15801833419E+02  0.62499999625E+02  0.99999944044E+01 0.  0.
    3000022    2    5    5    0    0 -0.20086317035E+02 -0.71285570452E+01 -0.10198198221E+02  0.23629265681E+02  0.24998420673E+00 0.  0.
        -13    1    4    4    0    0  0.16805399171E+02  0.51772212748E+01  0.46702294045E+01  0.18194700577E+02  0.10500000000E+00 0.  1.
         13    1    4    4    0    0  0.19253252340E+02  0.60824264377E+01  0.53564091520E+01  0.20889848756E+02  0.10500000000E+00 0. -1.
    3000001    1    5    5    0    0 -0.34141357349E+02 -0.17689006423E+02 -0.56036351977E+01  0.38870733944E+02  0.10000000000E+01 0. -1.
        -13    1    6    6    0    0 -0.74177306457E+01 -0.26942470516E+01 -0.37903222024E+01  0.87555275400E+01  0.10500000000E+00 0.  1.
         13    1    6    6    0    0 -0.12668586389E+02 -0.44343099936E+01 -0.64078760185E+01  0.14873738141E+02  0.10500000000E+00 0. -1.
</event>
<event>
11    0  0.3462209E-009  0.9118800E+02  0.7816531E-02  0.1126479E+00
         25   -1    0    0    0    0  0.00000000000E+00  0.00000000000E+00  0.99999998245E-14  0.12500000000E+03  0.12500000000E+03 0.  0.
    3000001    1    3    3    0    0 -0.35053860925E+02  0.42894560227E+02  0.25829446691E+02  0.61129999012E+02  0.10000000000E+01 0. -1.
    1000022    2    1    0    0    0 -0.35974876249E+02  0.42422049407E+02  0.26691345707E+02  0.62500000573E+02  0.10000006949E+02 0.  0.
    3000022    2    3    3    0    0 -0.92101532356E+00 -0.47251082012E+00  0.86189901591E+00  0.13700015611E+01  0.24999732492E+00 0.  0.
    1000022    2    1    0    0    0  0.35974876249E+02 -0.42422049407E+02 -0.26691345707E+02  0.62499999427E+02  0.99999997879E+01 0.  0.
    3000022    2    5    5    0    0  0.66292102777E+01 -0.55795408687E+01 -0.80637807436E+01  0.11839119814E+02  0.24998577840E+00 0.  0.
        -13    1    4    4    0    0 -0.39899312594E+00 -0.19530701834E+00  0.28948501342E+00  0.54052467008E+00  0.10500000000E+00 0. -1.
         13    1    4    4    0    0 -0.52202219761E+00 -0.27720380178E+00  0.57241400249E+00  0.82947689104E+00  0.10500000000E+00 0.  1.
    3000001    1    5    5    0    0  0.29345665971E+02 -0.36842508538E+02 -0.18627564963E+02  0.50660879613E+02  0.10000000000E+01 0.  1.
        -13    1    6    6    0    0  0.19472703863E+01 -0.16981350291E+01 -0.24032044033E+01  0.35301474387E+01  0.10500000000E+00 0.  1.
         13    1    6    6    0    0  0.46819398914E+01 -0.38814058395E+01 -0.56605763403E+01  0.83089723758E+01  0.10500000000E+00 0. -1.
</event>
<event>
11    0  0.3462209E-009  0.9118800E+02  0.7816531E-02  0.1126479E+00
         25   -1    0    0    0    0  0.00000000000E+00  0.00000000000E+00  0.99999998245E-14  0.12500000000E+03  0.12500000000E+03 0.  0.
    3000001    1    3    3    0    0 -0.28868999357E+01 -0.45689467698E+00 -0.66016558553E+01  0.72886764242E+01  0.10000000000E+01 0. -1.
    1000022    2    1    0    0    0 -0.27347564522E+01  0.98361766724E+01 -0.60844234784E+02  0.62500000766E+02  0.99999962451E+01 0.  0.
    3000022    2    3    3    0    0  0.15214348349E+00  0.10293071349E+02 -0.54242578929E+02  0.55211324342E+02  0.25000257067E+00 0.  0.
    1000022    2    1    0    0    0  0.27347564522E+01 -0.98361766724E+01  0.60844234784E+02  0.62499999234E+02  0.99999866687E+01 0.  0.
    3000022    2    5    5    0    0 -0.71560546604E+00 -0.57477155794E+00  0.10871853040E+00  0.95748095035E+00  0.24999304907E+00 0.  0.
        -13    1    4    4    0    0  0.30895366296E-01  0.27173147128E+01 -0.14499051729E+02  0.14751890720E+02  0.10500000000E+00 0.  1.
         13    1    4    4    0    0  0.12124811719E+00  0.75757566366E+01 -0.39743527200E+02  0.40459433622E+02  0.10500000000E+00 0. -1.
    3000001    1    5    5    0    0  0.34503619183E+01 -0.92614051145E+01  0.60735516254E+02  0.61542518284E+02  0.10000000000E+01 0. -1.
        -13    1    6    6    0    0 -0.38301891840E+00 -0.32152398964E+00  0.12538752832E+00  0.52614465694E+00  0.10500000000E+00 0.  1.
         13    1    6    6    0    0 -0.33258654764E+00 -0.25324756830E+00 -0.16668997913E-01  0.43133629341E+00  0.10500000000E+00 0. -1.
</event>
<event>
11    0  0.3462209E-009  0.9118800E+02  0.7816531E-02  0.1126479E+00
         25   -1    0    0    0    0  0.00000000000E+00  0.00000000000E+00  0.99999998245E-14  0.12500000000E+03  0.12500000000E+03 0.  0.
    3000001    1    3    3    0    0 -0.36435123177E+02  0.13352225619E+02 -0.37915785917E+02  0.54262389844E+02  0.10000000000E+01 0. -1.
    1000022    2    1    0    0    0 -0.41433562059E+02  0.18673546394E+02 -0.41722999093E+02  0.62499999540E+02  0.99999944686E+01 0.  0.
    3000022    2    3    3    0    0 -0.49984388819E+01  0.53213207744E+01 -0.38072131765E+01  0.82376096960E+01  0.24999058300E+00 0.  0.
    1000022    2    1    0    0    0  0.41433562059E+02 -0.18673546394E+02  0.41722999093E+02  0.62500000460E+02  0.10000000219E+02 0.  0.
    3000022    2    5    5    0    0  0.64155522908E+01 -0.22501561138E+01  0.21006685832E+01  0.71202403356E+01  0.25000041534E+00 0.  0.
        -13    1    4    4    0    0 -0.28599124735E+01  0.29581606743E+01 -0.21778693080E+01  0.46566032313E+01  0.10500000000E+00 0.  1.
         13    1    4    4    0    0 -0.21385264084E+01  0.23631601001E+01 -0.16293438685E+01  0.35810064647E+01  0.10500000000E+00 0. -1.
    3000001    1    5    5    0    0  0.35018009768E+02 -0.16423390280E+02  0.39622330510E+02  0.55379760124E+02  0.10000000000E+01 0. -1.
        -13    1    6    6    0    0  0.29569010203E+01 -0.10140840133E+01  0.89952897487E+00  0.32545057085E+01  0.10500000000E+00 0. -1.
         13    1    6    6    0    0  0.34586512706E+01 -0.12360721005E+01  0.12011396084E+01  0.38657346272E+01  0.10500000000E+00 0.  1.
</event>
<event>
11    0  0.3462209E-009  0.9118800E+02  0.7816531E-02  0.1126479E+00
         25   -1    0    0    0    0  0.00000000000E+00  0.00000000000E+00  0.99999998245E-14  0.12500000000E+03  0.12500000000E+03 0.  0.
    3000001    1    3    3    0    0  0.17011004146E+02  0.11059349666E+02 -0.50247097149E+01  0.20926805414E+02  0.10000000000E+01 0. -1.
    1000022    2    1    0    0    0  0.51022305799E+02  0.23726070126E+02 -0.25299167051E+02  0.62500000701E+02  0.10000007075E+02 0.  0.
    3000022    2    3    3    0    0  0.34011301653E+02  0.12666720460E+02 -0.20274457336E+02  0.41573195288E+02  0.24999763943E+00 0.  0.
    1000022    2    1    0    0    0 -0.51022305799E+02 -0.23726070126E+02  0.25299167051E+02  0.62499999299E+02  0.99999983105E+01 0.  0.
    3000022    2    5    5    0    0 -0.12901270351E+02 -0.15532178879E+01  0.47620002313E+01  0.13841763193E+02  0.24999919083E+00 0.  0.
        -13    1    4    4    0    0  0.22314825473E+02  0.83070622945E+01 -0.13364658209E+02  0.27305381043E+02  0.10500000000E+00 0. -1.
         13    1    4    4    0    0  0.11696476180E+02  0.43596581653E+01 -0.69097991269E+01  0.14267814245E+02  0.10500000000E+00 0.  1.
    3000001    1    5    5    0    0 -0.38121035448E+02 -0.22172852238E+02  0.20537166820E+02  0.48658236106E+02  0.10000000000E+01 0.  1.
        -13    1    6    6    0    0 -0.93231465634E+01 -0.11371571370E+01  0.34797100441E+01  0.10016665872E+02  0.10500000000E+00 0.  1.
         13    1    6    6    0    0 -0.35781237880E+01 -0.41606075082E+00  0.12822901872E+01  0.38250973210E+01  0.10500000000E+00 0. -1.
</event>
<event>
11    0  0.3462209E-009  0.9118800E+02  0.7816531E-02  0.1126479E+00
         25   -1    0    0    0    0  0.00000000000E+00  0.00000000000E+00  0.99999998245E-14  0.12500000000E+03  0.12500000000E+03 0.  0.
    3000001    1    3    3    0    0  0.80547639274E-01  0.21402280900E+01  0.12063134684E+01  0.26537250014E+01  0.10000000000E+01 0.  1.
    1000022    2    1    0    0    0  0.41540594595E+02  0.39303458868E+02  0.23148804239E+02  0.62499999893E+02  0.99999985294E+01 0.  0.
    3000022    2    3    3    0    0  0.41460046956E+02  0.37163230778E+02  0.21942490771E+02  0.59846274891E+02  0.25000339578E+00 0.  0.
    1000022    2    1    0    0    0 -0.41540594595E+02 -0.39303458868E+02 -0.23148804239E+02  0.62500000107E+02  0.99999998704E+01 0.  0.
    3000022    2    5    5    0    0 -0.16791808045E+02 -0.97029263445E+01 -0.63742903035E+01  0.20415819242E+02  0.25000270929E+00 0.  0.
        -13    1    4    4    0    0  0.12057283559E+02  0.10754764769E+02  0.63858902980E+01  0.17373360986E+02  0.10500000000E+00 0.  1.
         13    1    4    4    0    0  0.29402763397E+02  0.26408466009E+02  0.15556600473E+02  0.42472913905E+02  0.10500000000E+00 0. -1.
    3000001    1    5    5    0    0 -0.24748786550E+02 -0.29600532523E+02 -0.16774513936E+02  0.42084180866E+02  0.10000000000E+01 0. -1.
        -13    1    6    6    0    0 -0.89001749632E+01 -0.52194458623E+01 -0.33787696909E+01  0.10857386385E+02  0.10500000000E+00 0. -1.
         13    1    6    6    0    0 -0.78916330823E+01 -0.44834804822E+01 -0.29955206126E+01  0.95584328569E+01  0.10500000000E+00 0.  1.
</event>
<event>
11    0  0.3462209E-009  0.9118800E+02  0.7816531E-02  0.1126479E+00
         25   -1    0    0    0    0  0.00000000000E+00  0.00000000000E+00  0.99999998245E-14  0.12500000000E+03  0.12500000000E+03 0.  0.
    3000001    1    3    3    0    0 -0.49833900987E+02  0.15020252873E+01 -0.24924694033E+02  0.55748669403E+02  0.10000000000E+01 0.  1.
    1000022    2    1    0    0    0 -0.53847037794E+02  0.36957027679E+01 -0.29884581956E+02  0.62500000749E+02  0.10000007838E+02 0.  0.
    3000022    2    3    3    0    0 -0.40131368070E+01  0.21936774806E+01 -0.49598879235E+01  0.67513313461E+01  0.24999762166E+00 0.  0.
    1000022    2    1    0    0    0  0.53847037794E+02 -0.36957027679E+01  0.29884581956E+02  0.62499999251E+02  0.99999984732E+01 0.  0.
    3000022    2    5    5    0    0  0.58230286145E+01  0.78073490273E+00  0.25699944534E+00  0.58860645935E+01  0.24999690176E+00 0.  0.
        -13    1    4    4    0    0 -0.26588850047E+01  0.14983860812E+01 -0.33601971692E+01  0.45405704853E+01  0.10500000000E+00 0.  1.
         13    1    4    4    0    0 -0.13542518023E+01  0.69529139944E+00 -0.15996907543E+01  0.22107608608E+01  0.10500000000E+00 0. -1.
    3000001    1    5    5    0    0  0.48024009180E+02 -0.44764376706E+01  0.29627582511E+02  0.56613934657E+02  0.10000000000E+01 0.  1.
        -13    1    6    6    0    0  0.29292409965E+01  0.32725714972E+00  0.10921876150E+00  0.29513562637E+01  0.10500000000E+00 0. -1.
         13    1    6    6    0    0  0.28937876180E+01  0.45347775301E+00  0.14778068383E+00  0.29347083298E+01  0.10500000000E+00 0.  1.
</event>
<event>
11    0  0.3462209E-009  0.9118800E+02  0.7816531E-02  0.1126479E+00
         25   -1    0    0    0    0  0.00000000000E+00  0.00000000000E+00  0.99999998245E-14  0.12500000000E+03  0.12500000000E+03 0.  0.
    3000001    1    3    3    0    0 -0.22387272515E+02  0.34857259945E+02  0.79819965464E+00  0.41447022381E+02  0.10000000000E+01 0. -1.
    1000022    2    1    0    0    0 -0.38224216634E+02  0.48371178090E+02 -0.23211942735E+01  0.62500000781E+02  0.10000027380E+02 0.  0.
    3000022    2    3    3    0    0 -0.15836944119E+02  0.13513918145E+02 -0.31193939281E+01  0.21052978400E+02  0.24999673016E+00 0.  0.
    1000022    2    1    0    0    0  0.38224216634E+02 -0.48371178090E+02  0.23211942735E+01  0.62499999219E+02  0.10000017619E+02 0.  0.
    3000022    2    5    5    0    0  0.41643566776E+01 -0.14952412943E+01 -0.61253324857E+00  0.44738476325E+01  0.25000518292E+00 0.  0.
        -13    1    4    4    0    0 -0.10644540665E+02  0.91349143239E+01 -0.20671206752E+01  0.14178748836E+02  0.10500000000E+00 0. -1.
         13    1    4    4    0    0 -0.51924034540E+01  0.43790038215E+01 -0.10522732529E+01  0.68742295639E+01  0.10500000000E+00 0.  1.
    3000001    1    5    5    0    0  0.34059859957E+02 -0.46875936796E+02  0.29337275220E+01  0.58026151587E+02  0.10000000000E+01 0.  1.
        -13    1    6    6    0    0  0.10307064346E+01 -0.38190572434E+00 -0.12934027624E+00  0.11117381183E+01  0.10500000000E+00 0. -1.
         13    1    6    6    0    0  0.31336502430E+01 -0.11133355700E+01 -0.48319297233E+00  0.33621095142E+01  0.10500000000E+00 0.  1.
</event>
<event>
11    0  0.3462209E-009  0.9118800E+02  0.7816531E-02  0.1126479E+00
         25   -1    0    0    0    0  0.00000000000E+00  0.00000000000E+00  0.99999998245E-14  0.12500000000E+03  0.12500000000E+03 0.  0.
    3000001    1    3    3    0    0  0.15543756830E+02 -0.36382904136E+02 -0.98510900383E+01  0.40784409579E+02  0.10000000000E+01 0. -1.
    1000022    2    1    0    0    0  0.27395821511E+02 -0.54553553049E+02 -0.89234806643E+01  0.62500000272E+02  0.10000017015E+02 0.  0.
    3000022    2    3    3    0    0  0.11852064680E+02 -0.18170648913E+02  0.92760937398E+00  0.21715590692E+02  0.25000176250E+00 0.  0.
    1000022    2    1    0    0    0 -0.27395821511E+02  0.54553553049E+02  0.89234806643E+01  0.62499999728E+02  0.10000013619E+02 0.  0.
    3000022    2    5    5    0    0 -0.17155025713E+02  0.23535849344E+02  0.55133916152E+01  0.29642724293E+02  0.25000972600E+00 0.  0.
        -13    1    4    4    0    0  0.38107279238E+01 -0.57612466235E+01  0.31943267113E+00  0.69156830608E+01  0.10500000000E+00 0. -1.
         13    1    4    4    0    0  0.80413367563E+01 -0.12409402289E+02  0.60817670286E+00  0.14799907632E+02  0.10500000000E+00 0.  1.
    3000001    1    5    5    0    0 -0.10240795798E+02  0.31017703705E+02  0.34100890491E+01  0.32857275435E+02  0.10000000000E+01 0.  1.
        -13    1    6    6    0    0 -0.10078064545E+02  0.13741797826E+02  0.31845661103E+01  0.17336576328E+02  0.10500000000E+00 0.  1.
         13    1    6    6    0    0 -0.70769611684E+01  0.97940515171E+01  0.23288255049E+01  0.12306147965E+02  0.10500000000E+00 0. -1.
</event>
<event>
11    0  0.3462209E-009  0.9118800E+02  0.7816531E-02  0.1126479E+00
         25   -1    0    0    0    0  0.00000000000E+00  0.00000000000E+00  0.99999998245E-14  0.12500000000E+03  0.12500000000E+03 0.  0.
    3000001    1    3    3    0    0 -0.40163600717E+02  0.30779203916E+02  0.46264983734E+01  0.50822029706E+02  0.10000000000E+01 0. -1.
    1000022    2    1    0    0    0 -0.46608537713E+02  0.39350661712E+02  0.92422751021E+01  0.62499999941E+02  0.99999989348E+01 0.  0.
    3000022    2    3    3    0    0 -0.64449369955E+01  0.85714577954E+01  0.46157767287E+01  0.11677970234E+02  0.24998474718E+00 0.  0.
    1000022    2    1    0    0    0  0.46608537713E+02 -0.39350661712E+02 -0.92422751021E+01  0.62500000059E+02  0.99999996752E+01 0.  0.
    3000022    2    5    5    0    0  0.43204213127E+02 -0.34017880425E+02 -0.59865297846E+01  0.55314747127E+02  0.24998054857E+00 0.  0.
        -13    1    4    4    0    0 -0.19984043373E+01  0.26099467748E+01  0.14564738438E+01  0.35969129987E+01  0.10500000000E+00 0. -1.
         13    1    4    4    0    0 -0.44465326582E+01  0.59615110205E+01  0.31593028849E+01  0.80810572357E+01  0.10500000000E+00 0.  1.
    3000001    1    5    5    0    0  0.34043245853E+01 -0.53327812864E+01 -0.32557453175E+01  0.71852529324E+01  0.10000000000E+01 0.  1.
        -13    1    6    6    0    0  0.10994764458E+02 -0.86243310190E+01 -0.15085406382E+01  0.14055271284E+02  0.10500000000E+00 0.  1.
         13    1    6    6    0    0  0.32209448669E+02 -0.25393549406E+02 -0.44779891464E+01  0.41259475843E+02  0.10500000000E+00 0. -1.
</event>
<event>
11    0  0.3462209E-009  0.9118800E+02  0.7816531E-02  0.1126479E+00
         25   -1    0    0    0    0  0.00000000000E+00  0.00000000000E+00  0.99999998245E-14  0.12500000000E+03  0.12500000000E+03 0.  0.
    3000001    1    3    3    0    0  0.43354771955E+00 -0.39900718425E+01  0.47688242236E+01  0.63127110982E+01  0.10000000000E+01 0. -1.
    1000022    2    1    0    0    0 -0.11805014318E+02 -0.18666534234E+02  0.57606002198E+02  0.62499994554E+02  0.99999983369E+01 0.  0.
    3000022    2    3    3    0    0 -0.12238562037E+02 -0.14676462392E+02  0.52837177974E+02  0.56187283456E+02  0.24999369838E+00 0.  0.
    1000022    2    1    0    0    0  0.11805014318E+02  0.18666534234E+02 -0.57606002198E+02  0.62500005446E+02  0.10000066407E+02 0.  0.
    3000022    2    5    5    0    0 -0.15686850175E+00 -0.49930579372E+00  0.35500711781E-01  0.58103482890E+00  0.24985429629E+00 0.  0.
        -13    1    4    4    0    0 -0.28026400019E+01 -0.33622070007E+01  0.12114801535E+02  0.12881718369E+02  0.10500000000E+00 0. -1.
         13    1    4    4    0    0 -0.94359220354E+01 -0.11314255391E+02  0.40722376439E+02  0.43305565088E+02  0.10500000000E+00 0.  1.
    3000001    1    5    5    0    0  0.11961882819E+02  0.19165840028E+02 -0.57641502909E+02  0.61918970617E+02  0.10000000000E+01 0. -1.
        -13    1    6    6    0    0 -0.14938144641E+00 -0.32891219451E+00 -0.71199784279E-02  0.37626286333E+00  0.10500000000E+00 0.  1.
         13    1    6    6    0    0 -0.74870553386E-02 -0.17039359921E+00  0.42620690209E-01  0.20477196557E+00  0.10500000000E+00 0. -1.
</event>
<event>
11    0  0.3462209E-009  0.9118800E+02  0.7816531E-02  0.1126479E+00
         25   -1    0    0    0    0  0.00000000000E+00  0.00000000000E+00  0.99999998245E-14  0.12500000000E+03  0.12500000000E+03 0.  0.
    3000001    1    3    3    0    0  0.11310476975E+02  0.28063024126E+01  0.40392295037E+01  0.12374069566E+02  0.10000000000E+01 0. -1.
    1000022    2    1    0    0    0  0.46719284886E+02  0.28915386367E+02  0.28061693232E+02  0.62500003060E+02  0.10000030323E+02 0.  0.
    3000022    2    3    3    0    0  0.35408807912E+02  0.26109083954E+02  0.24022463728E+02  0.50125933495E+02  0.25000501737E+00 0.  0.
    1000022    2    1    0    0    0 -0.46719284886E+02 -0.28915386367E+02 -0.28061693232E+02  0.62499996940E+02  0.99999920720E+01 0.  0.
    3000022    2    5    5    0    0 -0.22264535534E+01 -0.43814319159E+01 -0.14223576567E+01  0.51224650926E+01  0.25001252427E+00 0.  0.
        -13    1    4    4    0    0  0.24775241455E+02  0.18318649566E+02  0.16800320237E+02  0.35094832898E+02  0.10500000000E+00 0. -1.
         13    1    4    4    0    0  0.10633566456E+02  0.77904343879E+01  0.72221434911E+01  0.15031100596E+02  0.10500000000E+00 0.  1.
    3000001    1    5    5    0    0 -0.44492831333E+02 -0.24533954451E+02 -0.26639335575E+02  0.57377531847E+02  0.10000000000E+01 0.  1.
        -13    1    6    6    0    0 -0.95647730484E+00 -0.18323511403E+01 -0.66174970508E+00  0.21728546220E+01  0.10500000000E+00 0.  1.
         13    1    6    6    0    0 -0.12699762486E+01 -0.25490807756E+01 -0.76060795160E+00  0.29496104706E+01  0.10500000000E+00 0. -1.
</event>
<event>
11    0  0.3462209E-009  0.9118800E+02  0.7816531E-02  0.1126479E+00
         25   -1    0    0    0    0  0.00000000000E+00  0.00000000000E+00  0.99999998245E-14  0.12500000000E+03  0.12500000000E+03 0.  0.
    3000001    1    3    3    0    0  0.53782031094E+01 -0.66836350279E+01 -0.59832072624E+01  0.10506893690E+02  0.10000000000E+01 0. -1.
    1000022    2    1    0    0    0  0.33173558506E+02 -0.21677191703E+02 -0.47284927366E+02  0.62500000085E+02  0.10000001527E+02 0.  0.
    3000022    2    3    3    0    0  0.27795355397E+02 -0.14993556675E+02 -0.41301720104E+02  0.51993106395E+02  0.25001134616E+00 0.  0.
    1000022    2    1    0    0    0 -0.33173558506E+02  0.21677191703E+02  0.47284927366E+02  0.62499999915E+02  0.10000000463E+02 0.  0.
    3000022    2    5    5    0    0 -0.29833314109E+02  0.15552173521E+02  0.36749953383E+02  0.49824876358E+02  0.24999696328E+00 0.  0.
        -13    1    4    4    0    0  0.10687875969E+02 -0.57269124721E+01 -0.15773585914E+02  0.19895860292E+02  0.10500000000E+00 0. -1.
         13    1    4    4    0    0  0.17107479427E+02 -0.92666442031E+01 -0.25528134190E+02  0.32097246102E+02  0.10500000000E+00 0.  1.
    3000001    1    5    5    0    0 -0.33402443969E+01  0.61250181815E+01  0.10534973983E+02  0.12675123556E+02  0.10000000000E+01 0.  1.
        -13    1    6    6    0    0 -0.17204510665E+02  0.89096810590E+01  0.21105988166E+02  0.28650503752E+02  0.10500000000E+00 0. -1.
         13    1    6    6    0    0 -0.12628803444E+02  0.66424924625E+01  0.15643965217E+02  0.21174372606E+02  0.10500000000E+00 0.  1.
</event>
<event>
11    0  0.3462209E-009  0.9118800E+02  0.7816531E-02  0.1126479E+00
         25   -1    0    0    0    0  0.00000000000E+00  0.00000000000E+00  0.99999998245E-14  0.12500000000E+03  0.12500000000E+03 0.  0.
    3000001    1    3    3    0    0  0.22945126742E+01  0.31640015935E+02 -0.58287773296E+01  0.32269645830E+02  0.10000000000E+01 0. -1.
    1000022    2    1    0    0    0 -0.48757978373E+01  0.60080500733E+02 -0.13145705666E+02  0.62500002577E+02  0.10000038589E+02 0.  0.
    3000022    2    3    3    0    0 -0.71703105115E+01  0.28440484797E+02 -0.73169283362E+01  0.30230356747E+02  0.25000088765E+00 0.  0.
    1000022    2    1    0    0    0  0.48757978373E+01 -0.60080500733E+02  0.13145705666E+02  0.62499997423E+02  0.10000006379E+02 0.  0.
    3000022    2    5    5    0    0 -0.25492766888E+00 -0.31564345371E+02  0.26895379090E+01  0.31680735508E+02  0.25000267617E+00 0.  0.
        -13    1    4    4    0    0 -0.46766281842E+01  0.18344392429E+02 -0.47510594433E+01  0.19518482923E+02  0.10500000000E+00 0.  1.
         13    1    4    4    0    0 -0.24936823273E+01  0.10096092368E+02 -0.25658688929E+01  0.10711873824E+02  0.10500000000E+00 0. -1.
    3000001    1    5    5    0    0  0.51307255061E+01 -0.28516155362E+02  0.10456167757E+02  0.30819261915E+02  0.10000000000E+01 0.  1.
        -13    1    6    6    0    0 -0.16234670249E+00 -0.19174445258E+02  0.16958548593E+01  0.19250263793E+02  0.10500000000E+00 0.  1.
         13    1    6    6    0    0 -0.92580966398E-01 -0.12389900113E+02  0.99368304965E+00  0.12430471715E+02  0.10500000000E+00 0. -1.
</event>
<event>
11    0  0.3462209E-009  0.9118800E+02  0.7816531E-02  0.1126479E+00
         25   -1    0    0    0    0  0.00000000000E+00  0.00000000000E+00  0.99999998245E-14  0.12500000000E+03  0.12500000000E+03 0.  0.
    3000001    1    3    3    0    0 -0.41960441032E+02  0.14317216452E+01  0.66785909282E+01  0.42524487242E+02  0.10000000000E+01 0. -1.
    1000022    2    1    0    0    0 -0.60414437427E+02  0.87277092279E+01  0.89539293776E+01  0.62499999387E+02  0.99999957037E+01 0.  0.
    3000022    2    3    3    0    0 -0.18453996395E+02  0.72959875827E+01  0.22753384494E+01  0.19975512145E+02  0.25000521940E+00 0.  0.
    1000022    2    1    0    0    0  0.60414437427E+02 -0.87277092279E+01 -0.89539293776E+01  0.62500000613E+02  0.10000003367E+02 0.  0.
    3000022    2    5    5    0    0  0.39792699302E+02 -0.66779253983E+01 -0.10503931063E+02  0.41694707963E+02  0.24999787273E+00 0.  0.
        -13    1    4    4    0    0 -0.89284782582E+01  0.34603049747E+01  0.11176648667E+01  0.96411427891E+01  0.10500000000E+00 0.  1.
         13    1    4    4    0    0 -0.95255181371E+01  0.38356826081E+01  0.11576735827E+01  0.10334369355E+02  0.10500000000E+00 0. -1.
    3000001    1    5    5    0    0  0.20621738125E+02 -0.20497838296E+01  0.15500016857E+01  0.20805292650E+02  0.10000000000E+01 0. -1.
        -13    1    6    6    0    0  0.17636004358E+02 -0.29320153031E+01 -0.45916698301E+01  0.18458597463E+02  0.10500000000E+00 0.  1.
         13    1    6    6    0    0  0.22156694944E+02 -0.37459100953E+01 -0.59122612332E+01  0.23236110500E+02  0.10500000000E+00 0. -1.
</event>
<event>
11    0  0.3462209E-009  0.9118800E+02  0.7816531E-02  0.1126479E+00
         25   -1    0    0    0    0  0.00000000000E+00  0.00000000000E+00  0.99999998245E-14  0.12500000000E+03  0.12500000000E+03 0.  0.
    3000001    1    3    3    0    0 -0.78909854709E+01  0.21441202066E+02 -0.16906919169E+02  0.28440054739E+02  0.10000000000E+01 0. -1.
    1000022    2    1    0    0    0 -0.11015152690E+02  0.41734454016E+02 -0.44081189323E+02  0.62500001221E+02  0.10000032988E+02 0.  0.
    3000022    2    3    3    0    0 -0.31241672189E+01  0.20293251950E+02 -0.27174270153E+02  0.34059946483E+02  0.25000102708E+00 0.  0.
    1000022    2    1    0    0    0  0.11015152690E+02 -0.41734454016E+02  0.44081189323E+02  0.62499998779E+02  0.10000017723E+02 0.  0.
    3000022    2    5    5    0    0  0.55632249399E+01 -0.30286419874E+02  0.36246218262E+02  0.47561197842E+02  0.25000272975E+00 0.  0.
        -13    1    4    4    0    0 -0.20685325364E+01  0.13172474584E+02 -0.17712780802E+02  0.22170848929E+02  0.10500000000E+00 0.  1.
         13    1    4    4    0    0 -0.10556346825E+01  0.71207773656E+01 -0.94614893518E+01  0.11889097553E+02  0.10500000000E+00 0. -1.
    3000001    1    5    5    0    0  0.54519277498E+01 -0.11448034142E+02  0.78349710612E+01  0.14938800937E+02  0.10000000000E+01 0.  1.
        -13    1    6    6    0    0  0.23770016354E+01 -0.13138920962E+02  0.15801974396E+02  0.20688035205E+02  0.10500000000E+00 0.  1.
         13    1    6    6    0    0  0.31862233046E+01 -0.17147498912E+02  0.20444243865E+02  0.26873162637E+02  0.10500000000E+00 0. -1.
</event>
<event>
11    0  0.3462209E-009  0.9118800E+02  0.7816531E-02  0.1126479E+00
         25   -1    0    0    0    0  0.00000000000E+00  0.00000000000E+00  0.99999998245E-14  0.12500000000E+03  0.12500000000E+03 0.  0.
    3000001    1    3    3    0    0  0.12160075834E+02 -0.37134586145E+01 -0.26505007646E+02  0.29413817323E+02  0.10000000000E+01 0.  1.
    1000022    2    1    0    0    0  0.33426285921E+02 -0.22314340431E+01 -0.51806886941E+02  0.62500003027E+02  0.10000047774E+02 0.  0.
    3000022    2    3    3    0    0  0.21266210087E+02  0.14820245714E+01 -0.25301879295E+02  0.33086185704E+02  0.25000061281E+00 0.  0.
    1000022    2    1    0    0    0 -0.33426285921E+02  0.22314340431E+01  0.51806886941E+02  0.62499996973E+02  0.10000009939E+02 0.  0.
    3000022    2    5    5    0    0 -0.19554992955E+02 -0.14940051123E+01  0.36817971672E+02  0.41716367685E+02  0.24998810151E+00 0.  0.
        -13    1    4    4    0    0  0.79451297141E+01  0.60986092347E+00 -0.94913957504E+01  0.12393330255E+02  0.10500000000E+00 0. -1.
         13    1    4    4    0    0  0.13321080373E+02  0.87216364791E+00 -0.15810483545E+02  0.20692855449E+02  0.10500000000E+00 0.  1.
    3000001    1    5    5    0    0 -0.13871292966E+02  0.37254391554E+01  0.14988915269E+02  0.20783629288E+02  0.10000000000E+01 0.  1.
        -13    1    6    6    0    0 -0.13974501719E+02 -0.11086904969E+01  0.26301906051E+02  0.29804650306E+02  0.10500000000E+00 0. -1.
         13    1    6    6    0    0 -0.55804912359E+01 -0.38531461545E+00  0.10516065621E+02  0.11911717380E+02  0.10500000000E+00 0.  1.
</event>
<event>
11    0  0.3462209E-009  0.9118800E+02  0.7816531E-02  0.1126479E+00
         25   -1    0    0    0    0  0.00000000000E+00  0.00000000000E+00  0.99999998245E-14  0.12500000000E+03  0.12500000000E+03 0.  0.
    3000001    1    3    3    0    0  0.29512535222E+01  0.91401932936E+01 -0.47722520297E+01  0.10771602491E+02  0.10000000000E+01 0. -1.
    1000022    2    1    0    0    0  0.26236170435E+02  0.38592356370E+02 -0.40355217449E+02  0.62500000822E+02  0.99999959027E+01 0.  0.
    3000022    2    3    3    0    0  0.23284916913E+02  0.29452163076E+02 -0.35582965419E+02  0.51728398330E+02  0.25000052472E+00 0.  0.
    1000022    2    1    0    0    0 -0.26236170435E+02 -0.38592356370E+02  0.40355217449E+02  0.62499999178E+02  0.99999856317E+01 0.  0.
    3000022    2    5    5    0    0 -0.13299768395E+02 -0.13919603197E+02  0.21416805873E+02  0.28798980204E+02  0.24998892941E+00 0.  0.
        -13    1    4    4    0    0  0.73575966720E+01  0.92466649841E+01 -0.11154086726E+02  0.16249914394E+02  0.10500000000E+00 0.  1.
         13    1    4    4    0    0  0.15927320241E+02  0.20205498092E+02 -0.24428878693E+02  0.35478483936E+02  0.10500000000E+00 0. -1.
    3000001    1    5    5    0    0 -0.12936402040E+02 -0.24672753173E+02  0.18938411576E+02  0.33701018974E+02  0.10000000000E+01 0.  1.
        -13    1    6    6    0    0 -0.88434692173E+01 -0.93290381514E+01  0.14274678900E+02  0.19209773120E+02  0.10500000000E+00 0.  1.
         13    1    6    6    0    0 -0.44562991778E+01 -0.45905650455E+01  0.71421269728E+01  0.95892070837E+01  0.10500000000E+00 0. -1.
</event>
<event>
11    0  0.3462209E-009  0.9118800E+02  0.7816531E-02  0.1126479E+00
         25   -1    0    0    0    0  0.00000000000E+00  0.00000000000E+00  0.99999998245E-14  0.12500000000E+03  0.12500000000E+03 0.  0.
    3000001    1    3    3    0    0 -0.12541614263E+02  0.72661916928E+01  0.18213036646E+02  0.23298161600E+02  0.10000000000E+01 0. -1.
    1000022    2    1    0    0    0 -0.39046651471E+02  0.26582102906E+02  0.39686280672E+02  0.62499999981E+02  0.99999969021E+01 0.  0.
    3000022    2    3    3    0    0 -0.26505037208E+02  0.19315911213E+02  0.21473244025E+02  0.39201838381E+02  0.25000019839E+00 0.  0.
    1000022    2    1    0    0    0  0.39046651471E+02 -0.26582102906E+02 -0.39686280672E+02  0.62500000019E+02  0.99999971408E+01 0.  0.
    3000022    2    5    5    0    0  0.36136053488E+02 -0.26699956834E+02 -0.35292383564E+02  0.57134200735E+02  0.24999871944E+00 0.  0.
        -13    1    4    4    0    0 -0.12196689777E+02  0.89709047856E+01  0.99028012760E+01  0.18091790191E+02  0.10500000000E+00 0. -1.
         13    1    4    4    0    0 -0.14308347431E+02  0.10345006428E+02  0.11570442749E+02  0.21110048190E+02  0.10500000000E+00 0.  1.
    3000001    1    5    5    0    0  0.29105979829E+01  0.11785392733E+00 -0.43938971080E+01  0.53657992845E+01  0.10000000000E+01 0.  1.
        -13    1    6    6    0    0  0.25739518974E+02 -0.19014420780E+02 -0.25082989213E+02  0.40660034524E+02  0.10500000000E+00 0. -1.
         13    1    6    6    0    0  0.10396534514E+02 -0.76855360540E+01 -0.10209394351E+02  0.16474166211E+02  0.10500000000E+00 0.  1.
</event>
<event>
11    0  0.3462209E-009  0.9118800E+02  0.7816531E-02  0.1126479E+00
         25   -1    0    0    0    0  0.00000000000E+00  0.00000000000E+00  0.99999998245E-14  0.12500000000E+03  0.12500000000E+03 0.  0.
    3000001    1    3    3    0    0  0.31519438291E+02 -0.18908570982E+02  0.18782492513E+02  0.41289115657E+02  0.10000000000E+01 0.  1.
    1000022    2    1    0    0    0  0.46966872826E+02 -0.32878490021E+02  0.22789641591E+02  0.62500000181E+02  0.10000000483E+02 0.  0.
    3000022    2    3    3    0    0  0.15447434535E+02 -0.13969919039E+02  0.40071490786E+01  0.21210884524E+02  0.25001375548E+00 0.  0.
    1000022    2    1    0    0    0 -0.46966872826E+02  0.32878490021E+02 -0.22789641591E+02  0.62499999819E+02  0.99999982204E+01 0.  0.
    3000022    2    5    5    0    0 -0.33612386419E+02  0.26943010389E+02 -0.13458577006E+02  0.45132184990E+02  0.24999463859E+00 0.  0.
        -13    1    4    4    0    0  0.38538237470E+01 -0.34784848119E+01  0.10248948155E+01  0.52927543342E+01  0.10500000000E+00 0.  1.
         13    1    4    4    0    0  0.11593610788E+02 -0.10491434227E+02  0.29822542630E+01  0.15918130190E+02  0.10500000000E+00 0. -1.
    3000001    1    5    5    0    0 -0.13354486407E+02  0.59354796324E+01 -0.93310645849E+01  0.17367814829E+02  0.10000000000E+01 0. -1.
        -13    1    6    6    0    0 -0.23444595455E+02  0.18733922769E+02 -0.93850351061E+01  0.31443581655E+02  0.10500000000E+00 0. -1.
         13    1    6    6    0    0 -0.10167790964E+02  0.82090876204E+01 -0.40735419001E+01  0.13688603335E+02  0.10500000000E+00 0.  1.
</event>
<event>
11    0  0.3462209E-009  0.9118800E+02  0.7816531E-02  0.1126479E+00
         25   -1    0    0    0    0  0.00000000000E+00  0.00000000000E+00  0.99999998245E-14  0.12500000000E+03  0.12500000000E+03 0.  0.
    3000001    1    3    3    0    0 -0.12940457138E+02  0.27137448511E+02 -0.34846146130E+02  0.46034231206E+02  0.10000000000E+01 0.  1.
    1000022    2    1    0    0    0 -0.13468454115E+02  0.33517080159E+02 -0.50014555387E+02  0.62500002391E+02  0.10000031483E+02 0.  0.
    3000022    2    3    3    0    0 -0.52799697647E+00  0.63796316483E+01 -0.15168409257E+02  0.16465771185E+02  0.25000109239E+00 0.  0.
    1000022    2    1    0    0    0  0.13468454115E+02 -0.33517080159E+02  0.50014555387E+02  0.62499997609E+02  0.10000001601E+02 0.  0.
    3000022    2    5    5    0    0  0.12234880537E+02 -0.21551347718E+02  0.38700326591E+02  0.45955746951E+02  0.25001864065E+00 0.  0.
        -13    1    4    4    0    0 -0.36606211926E+00  0.45145939471E+01 -0.10617074854E+02  0.11543347151E+02  0.10500000000E+00 0. -1.
         13    1    4    4    0    0 -0.16193485721E+00  0.18650377012E+01 -0.45513344029E+01  0.49224240342E+01  0.10500000000E+00 0.  1.
    3000001    1    5    5    0    0  0.12335735776E+01 -0.11965732441E+02  0.11314228796E+02  0.16544250659E+02  0.10000000000E+01 0.  1.
        -13    1    6    6    0    0  0.91272460438E+01 -0.16120450692E+02  0.28961272309E+02  0.34379381461E+02  0.10500000000E+00 0. -1.
         13    1    6    6    0    0  0.31076344934E+01 -0.54308970259E+01  0.97390542820E+01  0.11576365490E+02  0.10500000000E+00 0.  1.
</event>
<event>
11    0  0.3462209E-009  0.9118800E+02  0.7816531E-02  0.1126479E+00
         25   -1    0    0    0    0  0.00000000000E+00  0.00000000000E+00  0.99999998245E-14  0.12500000000E+03  0.12500000000E+03 0.  0.
    3000001    1    3    3    0    0  0.34031081115E+02  0.14007106830E+02 -0.27576496706E+02  0.45997572699E+02  0.10000000000E+01 0.  1.
    1000022    2    1    0    0    0  0.41744389227E+02  0.22293495953E+02 -0.39581005193E+02  0.62499999690E+02  0.99999997701E+01 0.  0.
    3000022    2    3    3    0    0  0.77133081122E+01  0.82863891229E+01 -0.12004508487E+02  0.16502426991E+02  0.25001170715E+00 0.  0.
    1000022    2    1    0    0    0 -0.41744389227E+02 -0.22293495953E+02  0.39581005193E+02  0.62500000310E+02  0.10000003644E+02 0.  0.
    3000022    2    5    5    0    0 -0.39738546226E+02 -0.23116046060E+02  0.37872545535E+02  0.59564216049E+02  0.24997324024E+00 0.  0.
        -13    1    4    4    0    0  0.33106174716E+01  0.35115050253E+01 -0.50339224719E+01  0.69744000487E+01  0.10500000000E+00 0.  1.
         13    1    4    4    0    0  0.44026906406E+01  0.47748840976E+01 -0.69705860152E+01  0.95280269425E+01  0.10500000000E+00 0. -1.
    3000001    1    5    5    0    0 -0.20058430020E+01  0.82255010670E+00  0.17084596574E+01  0.29357842611E+01  0.10000000000E+01 0. -1.
        -13    1    6    6    0    0 -0.24341533798E+02 -0.14217387685E+02  0.23269021304E+02  0.36552739400E+02  0.10500000000E+00 0.  1.
         13    1    6    6    0    0 -0.15397012428E+02 -0.88986583754E+01  0.14603524231E+02  0.23011476649E+02  0.10500000000E+00 0. -1.
</event>
<event>
11    0  0.3462209E-009  0.9118800E+02  0.7816531E-02  0.1126479E+00
         25   -1    0    0    0    0  0.00000000000E+00  0.00000000000E+00  0.99999998245E-14  0.12500000000E+03  0.12500000000E+03 0.  0.
    3000001    1    3    3    0    0 -0.12237126638E+02  0.15800317900E+02  0.35591020317E+01  0.20323988815E+02  0.10000000000E+01 0.  1.
    1000022    2    1    0    0    0 -0.28210637360E+02  0.54815717313E+02  0.23763482660E+01  0.62499999086E+02  0.99999964925E+01 0.  0.
    3000022    2    3    3    0    0 -0.15973510723E+02  0.39015399413E+02 -0.11827537656E+01  0.42176010271E+02  0.24999945438E+00 0.  0.
    1000022    2    1    0    0    0  0.28210637360E+02 -0.54815717313E+02 -0.23763482660E+01  0.62500000914E+02  0.10000007914E+02 0.  0.
    3000022    2    5    5    0    0  0.28438982842E+02 -0.52842802028E+02 -0.12868242521E+01  0.60023794348E+02  0.24999986159E+00 0.  0.
        -13    1    4    4    0    0 -0.88862639497E+01  0.21847154735E+02 -0.70000645368E+00  0.23595865973E+02  0.10500000000E+00 0. -1.
         13    1    4    4    0    0 -0.70872467730E+01  0.17168244679E+02 -0.48274731197E+00  0.18580144298E+02  0.10500000000E+00 0.  1.
    3000001    1    5    5    0    0 -0.22834548191E+00 -0.19729152850E+01 -0.10895240139E+01  0.24762065661E+01  0.10000000000E+01 0. -1.
        -13    1    6    6    0    0  0.15824803481E+02 -0.29538967980E+02 -0.73622041071E+00  0.33519070393E+02  0.10500000000E+00 0.  1.
         13    1    6    6    0    0  0.12614179361E+02 -0.23303834048E+02 -0.55060384141E+00  0.26504723954E+02  0.10500000000E+00 0. -1.
</event>
<event>
11    0  0.3462209E-009  0.9118800E+02  0.7816531E-02  0.1126479E+00
         25   -1    0    0    0    0  0.00000000000E+00  0.00000000000E+00  0.99999998245E-14  0.12500000000E+03  0.12500000000E+03 0.  0.
    3000001    1    3    3    0    0  0.10165663621E+02 -0.17453997463E+02 -0.25052105665E+02  0.32196129310E+02  0.10000000000E+01 0.  1.
    1000022    2    1    0    0    0  0.26433956275E+02 -0.27007212487E+02 -0.48765834886E+02  0.62500001519E+02  0.99999983550E+01 0.  0.
    3000022    2    3    3    0    0  0.16268292654E+02 -0.95532150240E+01 -0.23713729221E+02  0.30303872209E+02  0.24990824563E+00 0.  0.
    1000022    2    1    0    0    0 -0.26433956275E+02  0.27007212487E+02  0.48765834886E+02  0.62499998481E+02  0.99999793613E+01 0.  0.
    3000022    2    5    5    0    0 -0.16017256231E+02  0.13068227848E+02  0.33312318842E+02  0.39205920033E+02  0.25000551618E+00 0.  0.
        -13    1    4    4    0    0  0.96388548053E+01 -0.55862054377E+01 -0.13999534949E+02  0.17891652158E+02  0.10500000000E+00 0.  1.
         13    1    4    4    0    0  0.66294378489E+01 -0.39670095863E+01 -0.97141942722E+01  0.12412220052E+02  0.10500000000E+00 0. -1.
    3000001    1    5    5    0    0 -0.10416700044E+02  0.13938984639E+02  0.15453516044E+02  0.23294078447E+02  0.10000000000E+01 0.  1.
        -13    1    6    6    0    0 -0.38023182110E+01  0.30916637367E+01  0.78707968312E+01  0.92723500903E+01  0.10500000000E+00 0.  1.
         13    1    6    6    0    0 -0.12214938020E+02  0.99765641115E+01  0.25441522011E+02  0.29933569943E+02  0.10500000000E+00 0. -1.
</event>
<event>
11    0  0.3462209E-009  0.9118800E+02  0.7816531E-02  0.1126479E+00
         25   -1    0    0    0    0  0.00000000000E+00  0.00000000000E+00  0.99999998245E-14  0.12500000000E+03  0.12500000000E+03 0.  0.
    3000001    1    3    3    0    0  0.12018138460E+02 -0.13870024726E+02  0.11371728055E+02  0.21613177390E+02  0.10000000000E+01 0. -1.
    1000022    2    1    0    0    0  0.24153675920E+02 -0.48093953320E+02  0.30163246115E+02  0.62499999220E+02  0.10000003995E+02 0.  0.
    3000022    2    3    3    0    0  0.12135537460E+02 -0.34223928595E+02  0.18791518060E+02  0.40886821830E+02  0.24998095904E+00 0.  0.
    1000022    2    1    0    0    0 -0.24153675920E+02  0.48093953320E+02 -0.30163246115E+02  0.62500000780E+02  0.10000013744E+02 0.  0.
    3000022    2    5    5    0    0 -0.10901559522E+02  0.11716903414E+02 -0.92054349320E+01  0.18464353873E+02  0.25001207546E+00 0.  0.
        -13    1    4    4    0    0  0.82151208595E+01 -0.23033413860E+02  0.12625370666E+02  0.27521580155E+02  0.10500000000E+00 0. -1.
         13    1    4    4    0    0  0.39204166006E+01 -0.11190514734E+02  0.61661473939E+01  0.13365241675E+02  0.10500000000E+00 0.  1.
    3000001    1    5    5    0    0 -0.13252116398E+02  0.36377049906E+02 -0.20957811183E+02  0.44035646907E+02  0.10000000000E+01 0.  1.
        -13    1    6    6    0    0 -0.60863806797E+01  0.65414635354E+01 -0.50628180915E+01  0.10270244739E+02  0.10500000000E+00 0. -1.
         13    1    6    6    0    0 -0.48151788427E+01  0.51754398786E+01 -0.41426168405E+01  0.81941091347E+01  0.10500000000E+00 0.  1.
</event>
<event>
11    0  0.3462209E-009  0.9118800E+02  0.7816531E-02  0.1126479E+00
         25   -1    0    0    0    0  0.00000000000E+00  0.00000000000E+00  0.99999998245E-14  0.12500000000E+03  0.12500000000E+03 0.  0.
    3000001    1    3    3    0    0  0.10817233414E+02  0.92046199005E+00 -0.13915209908E+02  0.17677467459E+02  0.10000000000E+01 0. -1.
    1000022    2    1    0    0    0  0.33594769619E+02  0.18160501526E+02 -0.48454491845E+02  0.62500001959E+02  0.10000005177E+02 0.  0.
    3000022    2    3    3    0    0  0.22777536205E+02  0.17240039536E+02 -0.34539281937E+02  0.44822534500E+02  0.24996695256E+00 0.  0.
    1000022    2    1    0    0    0 -0.33594769619E+02 -0.18160501526E+02  0.48454491845E+02  0.62499998041E+02  0.99999806896E+01 0.  0.
    3000022    2    5    5    0    0 -0.12404668839E+02 -0.10631340386E+02  0.15018626232E+02  0.22192855401E+02  0.24997909468E+00 0.  0.
        -13    1    4    4    0    0  0.12881701218E+02  0.97201959775E+01 -0.19607874433E+02  0.25394885329E+02  0.10500000000E+00 0.  1.
         13    1    4    4    0    0  0.98958349872E+01  0.75198435586E+01 -0.14931407504E+02  0.19427649171E+02  0.10500000000E+00 0. -1.
    3000001    1    5    5    0    0 -0.21190100780E+02 -0.75291611400E+01  0.33435865613E+02  0.40307142640E+02  0.10000000000E+01 0. -1.
        -13    1    6    6    0    0 -0.48753200330E+01 -0.41023204820E+01  0.58881693325E+01  0.86763668577E+01  0.10500000000E+00 0. -1.
         13    1    6    6    0    0 -0.75293488059E+01 -0.65290199041E+01  0.91304568994E+01  0.13516488543E+02  0.10500000000E+00 0.  1.
</event>
<event>
11    0  0.3462209E-009  0.9118800E+02  0.7816531E-02  0.1126479E+00
         25   -1    0    0    0    0  0.00000000000E+00  0.00000000000E+00  0.99999998245E-14  0.12500000000E+03  0.12500000000E+03 0.  0.
    3000001    1    3    3    0    0  0.30805954728E+02 -0.11262285580E+02 -0.19067277923E+02  0.37952694379E+02  0.10000000000E+01 0. -1.
    1000022    2    1    0    0    0  0.45136040533E+02 -0.20484018811E+02 -0.36734082933E+02  0.62500000170E+02  0.99999995365E+01 0.  0.
    3000022    2    3    3    0    0  0.14330085804E+02 -0.92217332317E+01 -0.17666805010E+02  0.24547305792E+02  0.24999883310E+00 0.  0.
    1000022    2    1    0    0    0 -0.45136040533E+02  0.20484018811E+02  0.36734082933E+02  0.62499999830E+02  0.99999974075E+01 0.  0.
    3000022    2    5    5    0    0 -0.32412066602E+02  0.11530735326E+02  0.20772343602E+02  0.40187718006E+02  0.25000231865E+00 0.  0.
        -13    1    4    4    0    0  0.88528630459E+01 -0.57384021131E+01 -0.11009043864E+02  0.15248361051E+02  0.10500000000E+00 0. -1.
         13    1    4    4    0    0  0.54772227585E+01 -0.34833311186E+01 -0.66577611455E+01  0.92989447411E+01  0.10500000000E+00 0.  1.
    3000001    1    5    5    0    0 -0.12723973931E+02  0.89532834851E+01  0.15961739330E+02  0.22312281824E+02  0.10000000000E+01 0. -1.
        -13    1    6    6    0    0 -0.15227341684E+02  0.54887125618E+01  0.97762162534E+01  0.18909873864E+02  0.10500000000E+00 0.  1.
         13    1    6    6    0    0 -0.17184724919E+02  0.60420227645E+01  0.10996127349E+02  0.21277844141E+02  0.10500000000E+00 0. -1.
</event>
<event>
11    0  0.3462209E-009  0.9118800E+02  0.7816531E-02  0.1126479E+00
         25   -1    0    0    0    0  0.00000000000E+00  0.00000000000E+00  0.99999998245E-14  0.12500000000E+03  0.12500000000E+03 0.  0.
    3000001    1    3    3    0    0  0.66249546537E+00 -0.13287645936E+01 -0.13697857666E+01  0.22540693497E+01  0.10000000000E+01 0.  1.
    1000022    2    1    0    0    0  0.45351276355E+02 -0.23813213581E+01 -0.41759322026E+02  0.62500000082E+02  0.10000003787E+02 0.  0.
    3000022    2    3    3    0    0  0.44688780890E+02 -0.10525567644E+01 -0.40389536259E+02  0.60245930732E+02  0.25003480109E+00 0.  0.
    1000022    2    1    0    0    0 -0.45351276355E+02  0.23813213581E+01  0.41759322026E+02  0.62499999918E+02  0.10000002763E+02 0.  0.
    3000022    2    5    5    0    0 -0.32378918033E+02 -0.31651864959E+00  0.23931322443E+02  0.40264937736E+02  0.24999984038E+00 0.  0.
        -13    1    4    4    0    0  0.25759454786E+02 -0.54161780802E+00 -0.23276950964E+02  0.34722763886E+02  0.10500000000E+00 0. -1.
         13    1    4    4    0    0  0.18929326104E+02 -0.51093895643E+00 -0.17112585295E+02  0.25523166846E+02  0.10500000000E+00 0.  1.
    3000001    1    5    5    0    0 -0.12972358322E+02  0.26978400077E+01  0.17827999583E+02  0.22235062183E+02  0.10000000000E+01 0. -1.
        -13    1    6    6    0    0 -0.93627697796E+01 -0.78423075350E-01  0.68697365387E+01  0.11613436754E+02  0.10500000000E+00 0. -1.
         13    1    6    6    0    0 -0.23016148254E+02 -0.23809557424E+00  0.17061585904E+02  0.28651500982E+02  0.10500000000E+00 0.  1.
</event>
<event>
11    0  0.3462209E-009  0.9118800E+02  0.7816531E-02  0.1126479E+00
         25   -1    0    0    0    0  0.00000000000E+00  0.00000000000E+00  0.99999998245E-14  0.12500000000E+03  0.12500000000E+03 0.  0.
    3000001    1    3    3    0    0 -0.25709692121E+02 -0.38266375940E+02  0.38633827987E+02  0.60157098180E+02  0.10000000000E+01 0.  1.
    1000022    2    1    0    0    0 -0.26182739555E+02 -0.40538768281E+02  0.38435950529E+02  0.62500000830E+02  0.10000011316E+02 0.  0.
    3000022    2    3    3    0    0 -0.47304743383E+00 -0.22723923412E+01 -0.19787745731E+00  0.23429026501E+01  0.24999302479E+00 0.  0.
    1000022    2    1    0    0    0  0.26182739555E+02  0.40538768281E+02 -0.38435950529E+02  0.62499999170E+02  0.10000000939E+02 0.  0.
    3000022    2    5    5    0    0  0.58398913663E+01  0.43531031639E+01 -0.91000629602E+01  0.11658794111E+02  0.24999182146E+00 0.  0.
        -13    1    4    4    0    0 -0.20104015963E+00 -0.96528152711E+00 -0.18804469131E-01  0.99174804281E+00  0.10500000000E+00 0.  1.
         13    1    4    4    0    0 -0.27200727420E+00 -0.13071108141E+01 -0.17907298818E+00  0.13511546072E+01  0.10500000000E+00 0. -1.
    3000001    1    5    5    0    0  0.20342848189E+02  0.36185665117E+02 -0.29335887569E+02  0.50841205059E+02  0.10000000000E+01 0.  1.
        -13    1    6    6    0    0  0.39052914647E+01  0.29632220352E+01 -0.60724914424E+01  0.78050088772E+01  0.10500000000E+00 0.  1.
         13    1    6    6    0    0  0.19345999016E+01  0.13898811287E+01 -0.30275715178E+01  0.38537852335E+01  0.10500000000E+00 0. -1.
</event>
<event>
11    0  0.3462209E-009  0.9118800E+02  0.7816531E-02  0.1126479E+00
         25   -1    0    0    0    0  0.00000000000E+00  0.00000000000E+00  0.99999998245E-14  0.12500000000E+03  0.12500000000E+03 0.  0.
    3000001    1    3    3    0    0  0.34867243792E+02 -0.16549079722E+02  0.10957504434E+02  0.40133074050E+02  0.10000000000E+01 0.  1.
    1000022    2    1    0    0    0  0.54473339723E+02 -0.27250141118E+02  0.98150466226E+01  0.62500001037E+02  0.10000002894E+02 0.  0.
    3000022    2    3    3    0    0  0.19606095931E+02 -0.10701061396E+02 -0.11424578112E+01  0.22366926987E+02  0.25000065167E+00 0.  0.
    1000022    2    1    0    0    0 -0.54473339723E+02  0.27250141118E+02 -0.98150466226E+01  0.62499998963E+02  0.99999899362E+01 0.  0.
    3000022    2    5    5    0    0 -0.24265299122E+02  0.89464685912E+01 -0.13638370906E+00  0.25863587285E+02  0.25000996042E+00 0.  0.
        -13    1    4    4    0    0  0.56519866412E+01 -0.30804121758E+01 -0.37152140916E+00  0.64484839554E+01  0.10500000000E+00 0. -1.
         13    1    4    4    0    0  0.13954109290E+02 -0.76206492205E+01 -0.77093640204E+00  0.15918443032E+02  0.10500000000E+00 0.  1.
    3000001    1    5    5    0    0 -0.30208040601E+02  0.18303672527E+02 -0.96786629135E+01  0.36636411679E+02  0.10000000000E+01 0. -1.
        -13    1    6    6    0    0 -0.94220449739E+01  0.34174622219E+01 -0.21049054475E-01  0.10023245362E+02  0.10500000000E+00 0.  1.
         13    1    6    6    0    0 -0.14843254148E+02  0.55290063693E+01 -0.11533465459E+00  0.15840341922E+02  0.10500000000E+00 0. -1.
</event>
<event>
11    0  0.3462209E-009  0.9118800E+02  0.7816531E-02  0.1126479E+00
         25   -1    0    0    0    0  0.00000000000E+00  0.00000000000E+00  0.99999998245E-14  0.12500000000E+03  0.12500000000E+03 0.  0.
    3000001    1    3    3    0    0 -0.53663849044E+01 -0.85619242348E+00  0.22283084759E+02  0.22957940212E+02  0.10000000000E+01 0. -1.
    1000022    2    1    0    0    0 -0.23480614109E+02 -0.10550776919E+02  0.56067732956E+02  0.62500009069E+02  0.10000116112E+02 0.  0.
    3000022    2    3    3    0    0 -0.18114229204E+02 -0.96945844958E+01  0.33784648197E+02  0.39542068857E+02  0.24997492194E+00 0.  0.
    1000022    2    1    0    0    0  0.23480614109E+02  0.10550776919E+02 -0.56067732956E+02  0.62499990931E+02  0.10000002750E+02 0.  0.
    3000022    2    5    5    0    0  0.20485590525E+02  0.92783084302E+01 -0.38350263062E+02  0.44458425539E+02  0.24999609691E+00 0.  0.
        -13    1    4    4    0    0 -0.13837423261E+02 -0.73890793562E+01  0.25806632951E+02  0.30200432207E+02  0.10500000000E+00 0.  1.
         13    1    4    4    0    0 -0.42768059432E+01 -0.23055051395E+01  0.79780152465E+01  0.93416366498E+01  0.10500000000E+00 0. -1.
    3000001    1    5    5    0    0  0.29950235840E+01  0.12724684890E+01 -0.17717469894E+02  0.18041565392E+02  0.10000000000E+01 0.  1.
        -13    1    6    6    0    0  0.82999233418E+01  0.37418535334E+01 -0.15647815147E+02  0.18104014450E+02  0.10500000000E+00 0.  1.
         13    1    6    6    0    0  0.12185667183E+02  0.55364548968E+01 -0.22702447915E+02  0.26354411089E+02  0.10500000000E+00 0. -1.
</event>
<event>
11    0  0.3462209E-009  0.9118800E+02  0.7816531E-02  0.1126479E+00
         25   -1    0    0    0    0  0.00000000000E+00  0.00000000000E+00  0.99999998245E-14  0.12500000000E+03  0.12500000000E+03 0.  0.
    3000001    1    3    3    0    0 -0.45420743374E+01 -0.26235867850E+01 -0.46165483740E+01  0.70587651749E+01  0.10000000000E+01 0. -1.
    1000022    2    1    0    0    0 -0.18383491809E+02 -0.38155446842E+02 -0.44860436577E+02  0.62500003925E+02  0.10000041297E+02 0.  0.
    3000022    2    3    3    0    0 -0.13841417472E+02 -0.35531860057E+02 -0.40243888203E+02  0.55441238750E+02  0.24999942825E+00 0.  0.
    1000022    2    1    0    0    0  0.18383491809E+02  0.38155446842E+02  0.44860436577E+02  0.62499996075E+02  0.99999922349E+01 0.  0.
    3000022    2    5    5    0    0  0.16032964349E+02  0.29461483235E+02  0.29516726052E+02  0.44680359849E+02  0.24999847040E+00 0.  0.
        -13    1    4    4    0    0 -0.64193934056E+01 -0.16624162134E+02 -0.18868110845E+02  0.25953574132E+02  0.10500000000E+00 0.  1.
         13    1    4    4    0    0 -0.74220240661E+01 -0.18907697923E+02 -0.21375777358E+02  0.29487664618E+02  0.10500000000E+00 0. -1.
    3000001    1    5    5    0    0  0.23505274604E+01  0.86939636074E+01  0.15343710525E+02  0.17819636226E+02  0.10000000000E+01 0.  1.
        -13    1    6    6    0    0  0.59264608874E+01  0.10805055659E+02  0.10902233249E+02  0.16454235967E+02  0.10500000000E+00 0.  1.
         13    1    6    6    0    0  0.10106503461E+02  0.18656427575E+02  0.18614492803E+02  0.28226123882E+02  0.10500000000E+00 0. -1.
</event>
<event>
11    0  0.3462209E-009  0.9118800E+02  0.7816531E-02  0.1126479E+00
         25   -1    0    0    0    0  0.00000000000E+00  0.00000000000E+00  0.99999998245E-14  0.12500000000E+03  0.12500000000E+03 0.  0.
    3000001    1    3    3    0    0 -0.15214168702E+02 -0.49955410784E+02  0.30127885994E+02  0.60296795191E+02  0.10000000000E+01 0.  1.
    1000022    2    1    0    0    0 -0.14608436144E+02 -0.52027459521E+02  0.29765542260E+02  0.62499995858E+02  0.99999512699E+01 0.  0.
    3000022    2    3    3    0    0  0.60573255751E+00 -0.20720487374E+01 -0.36234373482E+00  0.22032006663E+01  0.25000458510E+00 0.  0.
    1000022    2    1    0    0    0  0.14608436144E+02  0.52027459521E+02 -0.29765542260E+02  0.62500004142E+02  0.10000003051E+02 0.  0.
    3000022    2    5    5    0    0  0.87436311016E+01  0.14738220644E+02 -0.79788259770E+01  0.18904771828E+02  0.25000257696E+00 0.  0.
        -13    1    4    4    0    0  0.25872458031E+00 -0.80045162012E+00 -0.19977393716E+00  0.87097406998E+00  0.10500000000E+00 0.  1.
         13    1    4    4    0    0  0.34700797720E+00 -0.12715971172E+01 -0.16256979766E+00  0.13322265963E+01  0.10500000000E+00 0. -1.
    3000001    1    5    5    0    0  0.58648050427E+01  0.37289238877E+02 -0.21786716283E+02  0.43595232315E+02  0.10000000000E+01 0. -1.
        -13    1    6    6    0    0  0.34521552520E+01  0.56979424688E+01 -0.31063181657E+01  0.73514734447E+01  0.10500000000E+00 0. -1.
         13    1    6    6    0    0  0.52914758497E+01  0.90402781754E+01 -0.48725078114E+01  0.11553298383E+02  0.10500000000E+00 0.  1.
</event>
<event>
11    0  0.3462209E-009  0.9118800E+02  0.7816531E-02  0.1126479E+00
         25   -1    0    0    0    0  0.00000000000E+00  0.00000000000E+00  0.99999998245E-14  0.12500000000E+03  0.12500000000E+03 0.  0.
    3000001    1    3    3    0    0 -0.24856813315E+02 -0.25499226623E+01 -0.19034547440E+00  0.25007988827E+02  0.10000000000E+01 0.  1.
    1000022    2    1    0    0    0 -0.61425802694E+02  0.54855937429E+01  0.17404172761E+01  0.62499999374E+02  0.99999947099E+01 0.  0.
    3000022    2    3    3    0    0 -0.36568989379E+02  0.80355164051E+01  0.19307627505E+01  0.37492010548E+02  0.25000402168E+00 0.  0.
    1000022    2    1    0    0    0  0.61425802694E+02 -0.54855937429E+01 -0.17404172761E+01  0.62500000626E+02  0.10000002529E+02 0.  0.
    3000022    2    5    5    0    0  0.58887802259E+02 -0.33135035090E+01 -0.14244590625E+01  0.58998679191E+02  0.25000462377E+00 0.  0.
        -13    1    4    4    0    0 -0.16964233901E+02  0.37303358087E+01  0.96296966903E+00  0.17396521855E+02  0.10500000000E+00 0.  1.
         13    1    4    4    0    0 -0.19604755478E+02  0.43051805965E+01  0.96779308149E+00  0.20095488692E+02  0.10500000000E+00 0. -1.
    3000001    1    5    5    0    0  0.25380004352E+01 -0.21720902339E+01 -0.31595821357E+00  0.35013214343E+01  0.10000000000E+01 0. -1.
        -13    1    6    6    0    0  0.36738351254E+02 -0.20277689961E+01 -0.93437859331E+00  0.36806281914E+02  0.10500000000E+00 0.  1.
         13    1    6    6    0    0  0.22149451005E+02 -0.12857345128E+01 -0.49008046924E+00  0.22192397277E+02  0.10500000000E+00 0. -1.
</event>
<event>
11    0  0.3462209E-009  0.9118800E+02  0.7816531E-02  0.1126479E+00
         25   -1    0    0    0    0  0.00000000000E+00  0.00000000000E+00  0.99999998245E-14  0.12500000000E+03  0.12500000000E+03 0.  0.
    3000001    1    3    3    0    0 -0.89775399702E+01 -0.47160921368E+01  0.32729479796E+01  0.10702800448E+02  0.10000000000E+01 0. -1.
    1000022    2    1    0    0    0 -0.59278141286E+02 -0.16995315951E+02  0.18738148152E+01  0.62500000200E+02  0.10000002218E+02 0.  0.
    3000022    2    3    3    0    0 -0.50300601316E+02 -0.12279223814E+02 -0.13991331644E+01  0.51797199751E+02  0.24999646230E+00 0.  0.
    1000022    2    1    0    0    0  0.59278141286E+02  0.16995315951E+02 -0.18738148152E+01  0.62499999800E+02  0.99999997213E+01 0.  0.
    3000022    2    5    5    0    0  0.77433493191E+01 -0.63488558899E+00 -0.19884739805E+01  0.80236568965E+01  0.25000566304E+00 0.  0.
        -13    1    4    4    0    0 -0.23524365658E+02 -0.57829269160E+01 -0.70945854516E+00  0.24235353923E+02  0.10500000000E+00 0. -1.
         13    1    4    4    0    0 -0.26776235658E+02 -0.64962968982E+01 -0.68967461925E+00  0.27561845829E+02  0.10500000000E+00 0.  1.
    3000001    1    5    5    0    0  0.51534791967E+02  0.17630201540E+02  0.11465916522E+00  0.54476342904E+02  0.10000000000E+01 0. -1.
        -13    1    6    6    0    0  0.41431427602E+01 -0.27652766158E+00 -0.10380731936E+01  0.42814390612E+01  0.10500000000E+00 0.  1.
         13    1    6    6    0    0  0.36002065589E+01 -0.35835792741E+00 -0.95040078688E+00  0.37422178353E+01  0.10500000000E+00 0. -1.
</event>
<event>
11    0  0.3462209E-009  0.9118800E+02  0.7816531E-02  0.1126479E+00
         25   -1    0    0    0    0  0.00000000000E+00  0.00000000000E+00  0.99999998245E-14  0.12500000000E+03  0.12500000000E+03 0.  0.
    3000001    1    3    3    0    0  0.19922942947E+02 -0.28142109499E+01 -0.89586275627E+01  0.22047685746E+02  0.10000000000E+01 0.  1.
    1000022    2    1    0    0    0  0.57687411025E+02 -0.16061898383E+02 -0.14846819597E+02  0.62499998191E+02  0.99999875608E+01 0.  0.
    3000022    2    3    3    0    0  0.37764468078E+02 -0.13247687433E+02 -0.58881920347E+01  0.40452312445E+02  0.25001028495E+00 0.  0.
    1000022    2    1    0    0    0 -0.57687411025E+02  0.16061898383E+02  0.14846819597E+02  0.62500001809E+02  0.10000010176E+02 0.  0.
    3000022    2    5    5    0    0 -0.41671667783E+02  0.12996844449E+02  0.64328874953E+01  0.44123581030E+02  0.24999992999E+00 0.  0.
        -13    1    4    4    0    0  0.22930149116E+02 -0.80249449816E+01 -0.36346667989E+01  0.24564472479E+02  0.10500000000E+00 0. -1.
         13    1    4    4    0    0  0.14834318962E+02 -0.52227424511E+01 -0.22535252358E+01  0.15887839965E+02  0.10500000000E+00 0.  1.
    3000001    1    5    5    0    0 -0.16015743243E+02  0.30650539339E+01  0.84139321021E+01  0.18376420779E+02  0.10000000000E+01 0. -1.
        -13    1    6    6    0    0 -0.12147314743E+02  0.37609025042E+01  0.18393027182E+01  0.12848957258E+02  0.10500000000E+00 0. -1.
         13    1    6    6    0    0 -0.29524353039E+02  0.92359419445E+01  0.45935847771E+01  0.31274623772E+02  0.10500000000E+00 0.  1.
</event>
<event>
11    0  0.3462209E-009  0.9118800E+02  0.7816531E-02  0.1126479E+00
         25   -1    0    0    0    0  0.00000000000E+00  0.00000000000E+00  0.99999998245E-14  0.12500000000E+03  0.12500000000E+03 0.  0.
    3000001    1    3    3    0    0 -0.15642334185E+02 -0.47395278668E+01  0.21275929238E+01  0.16512794881E+02  0.10000000000E+01 0.  1.
    1000022    2    1    0    0    0 -0.60344491140E+02 -0.22726789028E+01  0.12634366614E+02  0.62499999343E+02  0.10000000887E+02 0.  0.
    3000022    2    3    3    0    0 -0.44702156956E+02  0.24668489640E+01  0.10506773691E+02  0.45987204462E+02  0.25000101490E+00 0.  0.
    1000022    2    1    0    0    0  0.60344491140E+02  0.22726789028E+01 -0.12634366614E+02  0.62500000657E+02  0.10000009099E+02 0.  0.
    3000022    2    5    5    0    0  0.36001640033E+02  0.38059975051E+01 -0.32572292686E+01  0.36349356864E+02  0.24999971123E+00 0.  0.
        -13    1    4    4    0    0 -0.15051123192E+02  0.86859805349E+00  0.34984563581E+01  0.15477111934E+02  0.10500000000E+00 0. -1.
         13    1    4    4    0    0 -0.29651033764E+02  0.15982509105E+01  0.70083173326E+01  0.30510092528E+02  0.10500000000E+00 0.  1.
    3000001    1    5    5    0    0  0.24342851108E+02 -0.15333186022E+01 -0.93771373459E+01  0.26150643793E+02  0.10000000000E+01 0.  1.
        -13    1    6    6    0    0  0.20725718642E+02  0.22528673135E+01 -0.18973317605E+01  0.20934223587E+02  0.10500000000E+00 0. -1.
         13    1    6    6    0    0  0.15275921390E+02  0.15531301916E+01 -0.13598975081E+01  0.15415133277E+02  0.10500000000E+00 0.  1.
</event>
<event>
11    0  0.3462209E-009  0.9118800E+02  0.7816531E-02  0.1126479E+00
         25   -1    0    0    0    0  0.00000000000E+00  0.00000000000E+00  0.99999998245E-14  0.12500000000E+03  0.12500000000E+03 0.  0.
    3000001    1    3    3    0    0 -0.86685361731E+01 -0.27459989892E+02  0.53786918955E+02  0.61018253129E+02  0.10000000000E+01 0.  1.
    1000022    2    1    0    0    0 -0.85855610805E+01 -0.26629563006E+02  0.54985493178E+02  0.62500000207E+02  0.10000004045E+02 0.  0.
    3000022    2    3    3    0    0  0.82975092676E-01  0.83042688658E+00  0.11985742232E+01  0.14817470780E+01  0.25000110908E+00 0.  0.
    1000022    2    1    0    0    0  0.85855610805E+01  0.26629563006E+02 -0.54985493178E+02  0.62499999793E+02  0.10000001453E+02 0.  0.
    3000022    2    5    5    0    0 -0.89811346406E+00  0.13248026609E+02 -0.24504494648E+02  0.27872021645E+02  0.25003156463E+00 0.  0.
        -13    1    4    4    0    0  0.27420934463E-01  0.37988623659E+00  0.66368124290E+00  0.77237507247E+00  0.10500000000E+00 0. -1.
         13    1    4    4    0    0  0.55554158212E-01  0.45054064999E+00  0.53489298032E+00  0.70937200550E+00  0.10500000000E+00 0.  1.
    3000001    1    5    5    0    0  0.94836745445E+01  0.13381536396E+02 -0.30480998531E+02  0.34627978148E+02  0.10000000000E+01 0. -1.
        -13    1    6    6    0    0 -0.46941624189E+00  0.65902223821E+01 -0.12326857557E+02  0.13986201232E+02  0.10500000000E+00 0. -1.
         13    1    6    6    0    0 -0.42869722217E+00  0.66578042270E+01 -0.12177637090E+02  0.13885820413E+02  0.10500000000E+00 0.  1.
</event>
<event>
11    0  0.3462209E-009  0.9118800E+02  0.7816531E-02  0.1126479E+00
         25   -1    0    0    0    0  0.00000000000E+00  0.00000000000E+00  0.99999998245E-14  0.12500000000E+03  0.12500000000E+03 0.  0.
    3000001    1    3    3    0    0 -0.42125787147E+01  0.46319712975E+01  0.54016397930E+01  0.83293871312E+01  0.10000000000E+01 0.  1.
    1000022    2    1    0    0    0 -0.83690680708E+01  0.38892410250E+02  0.47154946071E+02  0.62499998761E+02  0.10000001539E+02 0.  0.
    3000022    2    3    3    0    0 -0.41564893561E+01  0.34260438953E+02  0.41753306278E+02  0.54170611630E+02  0.24999651704E+00 0.  0.
    1000022    2    1    0    0    0  0.83690680708E+01 -0.38892410250E+02 -0.47154946071E+02  0.62500001239E+02  0.10000017024E+02 0.  0.
    3000022    2    5    5    0    0  0.92274734979E+01 -0.21808709406E+02 -0.24249401709E+02  0.33894867837E+02  0.25001871593E+00 0.  0.
        -13    1    4    4    0    0 -0.15586310208E+01  0.13029774695E+02  0.15965528186E+02  0.20666723846E+02  0.10500000000E+00 0.  1.
         13    1    4    4    0    0 -0.25978583352E+01  0.21230664258E+02  0.25787778092E+02  0.33503887784E+02  0.10500000000E+00 0. -1.
    3000001    1    5    5    0    0 -0.85840542708E+00 -0.17083700844E+02 -0.22905544362E+02  0.28605133402E+02  0.10000000000E+01 0.  1.
        -13    1    6    6    0    0  0.51390696561E+01 -0.12303410538E+02 -0.13688323496E+02  0.19109295458E+02  0.10500000000E+00 0. -1.
         13    1    6    6    0    0  0.40884038418E+01 -0.95052988681E+01 -0.10561078213E+02  0.14785572379E+02  0.10500000000E+00 0.  1.
</event>
<event>
11    0  0.3462209E-009  0.9118800E+02  0.7816531E-02  0.1126479E+00
         25   -1    0    0    0    0  0.00000000000E+00  0.00000000000E+00  0.99999998245E-14  0.12500000000E+03  0.12500000000E+03 0.  0.
    3000001    1    3    3    0    0  0.27661242513E+01 -0.39592744532E+02 -0.92914294121E+01  0.40774594093E+02  0.10000000000E+01 0.  1.
    1000022    2    1    0    0    0 -0.24029797421E+01 -0.59323877758E+02 -0.16767624935E+02  0.62499999775E+02  0.99999971037E+01 0.  0.
    3000022    2    3    3    0    0 -0.51691039934E+01 -0.19731133226E+02 -0.74761955232E+01  0.21725405682E+02  0.24999615857E+00 0.  0.
    1000022    2    1    0    0    0  0.24029797421E+01  0.59323877758E+02  0.16767624935E+02  0.62500000225E+02  0.99999999128E+01 0.  0.
    3000022    2    5    5    0    0 -0.38876578703E+01  0.23990463987E+02  0.65822619977E+01  0.25180248505E+02  0.24999145352E+00 0.  0.
        -13    1    4    4    0    0 -0.22763968746E+01 -0.86099491904E+01 -0.33312295712E+01  0.95090127378E+01  0.10500000000E+00 0. -1.
         13    1    4    4    0    0 -0.28927071188E+01 -0.11121184036E+02 -0.41449659520E+01  0.12216392945E+02  0.10500000000E+00 0.  1.
    3000001    1    5    5    0    0  0.62906376124E+01  0.35333413771E+02  0.10185362938E+02  0.37319751720E+02  0.10000000000E+01 0.  1.
        -13    1    6    6    0    0 -0.16452600615E+01  0.10276565104E+02  0.28833364221E+01  0.10799968747E+02  0.10500000000E+00 0.  1.
         13    1    6    6    0    0 -0.22423978088E+01  0.13713898883E+02  0.36989255756E+01  0.14380279758E+02  0.10500000000E+00 0. -1.
</event>
<event>
11    0  0.3462209E-009  0.9118800E+02  0.7816531E-02  0.1126479E+00
         25   -1    0    0    0    0  0.00000000000E+00  0.00000000000E+00  0.99999998245E-14  0.12500000000E+03  0.12500000000E+03 0.  0.
    3000001    1    3    3    0    0 -0.69909797738E+01  0.24570169545E+02  0.15811743104E+02  0.30059578335E+02  0.10000000000E+01 0. -1.
    1000022    2    1    0    0    0 -0.21501108031E+02  0.51962110283E+02  0.25375018506E+02  0.62500000208E+02  0.99999955079E+01 0.  0.
    3000022    2    3    3    0    0 -0.14510128257E+02  0.27391940737E+02  0.95632754026E+01  0.32440421873E+02  0.24999092366E+00 0.  0.
    1000022    2    1    0    0    0  0.21501108031E+02 -0.51962110283E+02 -0.25375018506E+02  0.62499999792E+02  0.99999929099E+01 0.  0.
    3000022    2    5    5    0    0  0.66936992537E+01 -0.83924237923E+01 -0.76174279574E+01  0.13165336950E+02  0.25000305181E+00 0.  0.
        -13    1    4    4    0    0 -0.85780339061E+01  0.16284914201E+02  0.57277172279E+01  0.19276899799E+02  0.10500000000E+00 0.  1.
         13    1    4    4    0    0 -0.59320943513E+01  0.11107026536E+02  0.38355581747E+01  0.13163522074E+02  0.10500000000E+00 0. -1.
    3000001    1    5    5    0    0  0.14807408778E+02 -0.43569686491E+02 -0.17757590549E+02  0.49334662842E+02  0.10000000000E+01 0.  1.
        -13    1    6    6    0    0  0.43577016599E+01 -0.55122901227E+01 -0.50427648801E+01  0.86495900937E+01  0.10500000000E+00 0.  1.
         13    1    6    6    0    0  0.23359975938E+01 -0.28801336696E+01 -0.25746630773E+01  0.45157468568E+01  0.10500000000E+00 0. -1.
</event>
<event>
11    0  0.3462209E-009  0.9118800E+02  0.7816531E-02  0.1126479E+00
         25   -1    0    0    0    0  0.00000000000E+00  0.00000000000E+00  0.99999998245E-14  0.12500000000E+03  0.12500000000E+03 0.  0.
    3000001    1    3    3    0    0  0.31259097657E+01 -0.64848231477E+01  0.10705265440E+02  0.12939356679E+02  0.10000000000E+01 0.  1.
    1000022    2    1    0    0    0 -0.29972220322E+01 -0.26644473112E+02  0.55563827927E+02  0.62499999882E+02  0.99999862047E+01 0.  0.
    3000022    2    3    3    0    0 -0.61231317979E+01 -0.20159649964E+02  0.44858562487E+02  0.49560643204E+02  0.24999334327E+00 0.  0.
    1000022    2    1    0    0    0  0.29972220322E+01  0.26644473112E+02 -0.55563827927E+02  0.62500000118E+02  0.99999876738E+01 0.  0.
    3000022    2    5    5    0    0 -0.10747216648E+01  0.30328962252E+00 -0.37600113476E+00  0.12045280243E+01  0.24999931218E+00 0.  0.
        -13    1    4    4    0    0 -0.39499803649E+01 -0.12816559612E+02  0.28602867628E+02  0.31591163428E+02  0.10500000000E+00 0. -1.
         13    1    4    4    0    0 -0.21731514330E+01 -0.73430903518E+01  0.16255694859E+02  0.17969479776E+02  0.10500000000E+00 0.  1.
    3000001    1    5    5    0    0  0.40719436970E+01  0.26341183489E+02 -0.55187826792E+02  0.61295472093E+02  0.10000000000E+01 0.  1.
        -13    1    6    6    0    0 -0.67107297542E+00  0.24588259198E+00 -0.26116287651E+00  0.76813295427E+00  0.10500000000E+00 0.  1.
         13    1    6    6    0    0 -0.40364868935E+00  0.57407030541E-01 -0.11483825825E+00  0.43639507001E+00  0.10500000000E+00 0. -1.
</event>
<event>
11    0  0.3462209E-009  0.9118800E+02  0.7816531E-02  0.1126479E+00
         25   -1    0    0    0    0  0.00000000000E+00  0.00000000000E+00  0.99999998245E-14  0.12500000000E+03  0.12500000000E+03 0.  0.
    3000001    1    3    3    0    0 -0.18658579017E+02 -0.66951713750E+01 -0.16303375429E+02  0.25685948319E+02  0.10000000000E+01 0. -1.
    1000022    2    1    0    0    0 -0.44890631982E+02 -0.47268578837E+01 -0.42056372376E+02  0.62499997398E+02  0.99999596077E+01 0.  0.
    3000022    2    3    3    0    0 -0.26232052965E+02  0.19683134913E+01 -0.25752996947E+02  0.36814049079E+02  0.24999417584E+00 0.  0.
    1000022    2    1    0    0    0  0.44890631982E+02  0.47268578837E+01  0.42056372376E+02  0.62500002602E+02  0.99999921314E+01 0.  0.
    3000022    2    5    5    0    0  0.19832737328E+02 -0.28338635602E+01  0.18669674298E+02  0.27385899449E+02  0.24999528665E+00 0.  0.
        -13    1    4    4    0    0 -0.10923695037E+02  0.88235809453E+00 -0.10706640226E+02  0.15321515558E+02  0.10500000000E+00 0. -1.
         13    1    4    4    0    0 -0.15308357927E+02  0.10859553968E+01 -0.15046356721E+02  0.21492533521E+02  0.10500000000E+00 0.  1.
    3000001    1    5    5    0    0  0.25057894654E+02  0.75607214439E+01  0.23386698078E+02  0.35114103153E+02  0.10000000000E+01 0.  1.
        -13    1    6    6    0    0  0.12907984326E+02 -0.18840085368E+01  0.12211060267E+02  0.17868591589E+02  0.10500000000E+00 0. -1.
         13    1    6    6    0    0  0.69247530014E+01 -0.94985502340E+00  0.64586140312E+01  0.95173078599E+01  0.10500000000E+00 0.  1.
</event>
<event>
11    0  0.3462209E-009  0.9118800E+02  0.7816531E-02  0.1126479E+00
         25   -1    0    0    0    0  0.00000000000E+00  0.00000000000E+00  0.99999998245E-14  0.12500000000E+03  0.12500000000E+03 0.  0.
    3000001    1    3    3    0    0 -0.45752024821E+02 -0.61181535434E+01  0.13192891628E+02  0.48018037939E+02  0.10000000000E+01 0. -1.
    1000022    2    1    0    0    0 -0.60182022399E+02 -0.50790648036E+01  0.12592742868E+02  0.62499999600E+02  0.10000002890E+02 0.  0.
    3000022    2    3    3    0    0 -0.14429997578E+02  0.10390887398E+01 -0.60014875988E+00  0.14481961661E+02  0.24999904141E+00 0.  0.
    1000022    2    1    0    0    0  0.60182022399E+02  0.50790648036E+01 -0.12592742868E+02  0.62500000400E+02  0.10000007886E+02 0.  0.
    3000022    2    5    5    0    0  0.25893239017E+02  0.23893326680E+01 -0.43959721910E+00  0.26008161944E+02  0.25000911538E+00 0.  0.
        -13    1    4    4    0    0 -0.33287776399E+01  0.24516980849E+00 -0.14478080692E+00  0.33425821295E+01  0.10500000000E+00 0. -1.
         13    1    4    4    0    0 -0.11101219938E+02  0.79391893129E+00 -0.45536795296E+00  0.11139379532E+02  0.10500000000E+00 0.  1.
    3000001    1    5    5    0    0  0.34288783381E+02  0.26897321357E+01 -0.12153145649E+02  0.36491838456E+02  0.10000000000E+01 0. -1.
        -13    1    6    6    0    0  0.15265430651E+02  0.13700302343E+01 -0.20787478000E+00  0.15328554815E+02  0.10500000000E+00 0.  1.
         13    1    6    6    0    0  0.10627808366E+02  0.10193024337E+01 -0.23172243910E+00  0.10679607128E+02  0.10500000000E+00 0. -1.
</event>
<event>
11    0  0.3462209E-009  0.9118800E+02  0.7816531E-02  0.1126479E+00
         25   -1    0    0    0    0  0.00000000000E+00  0.00000000000E+00  0.99999998245E-14  0.12500000000E+03  0.12500000000E+03 0.  0.
    3000001    1    3    3    0    0 -0.31044160496E+00 -0.43018972967E+02 -0.21343991259E+02  0.48034304116E+02  0.10000000000E+01 0. -1.
    1000022    2    1    0    0    0  0.49372277666E+01 -0.55251627763E+02 -0.27002426291E+02  0.62499996829E+02  0.99999994767E+01 0.  0.
    3000022    2    3    3    0    0  0.52476693715E+01 -0.12232654796E+02 -0.56584350320E+01  0.14465692712E+02  0.25000287597E+00 0.  0.
    1000022    2    1    0    0    0 -0.49372277666E+01  0.55251627763E+02  0.27002426291E+02  0.62500003171E+02  0.10000039119E+02 0.  0.
    3000022    2    5    5    0    0 -0.42969184963E+01  0.54402875442E+02  0.25011691392E+02  0.60031521472E+02  0.24999803962E+00 0.  0.
        -13    1    4    4    0    0  0.26407521633E+01 -0.61331761744E+01 -0.29116905878E+01  0.72854916823E+01  0.10500000000E+00 0. -1.
         13    1    4    4    0    0  0.26069172082E+01 -0.60994786216E+01 -0.27467444443E+01  0.71802010298E+01  0.10500000000E+00 0.  1.
    3000001    1    5    5    0    0 -0.64030927031E+00  0.84875232055E+00  0.19907348984E+01  0.24684816991E+01  0.10000000000E+01 0. -1.
        -13    1    6    6    0    0 -0.27326335248E+01  0.34227845614E+02  0.15679966020E+02  0.37747649738E+02  0.10500000000E+00 0.  1.
         13    1    6    6    0    0 -0.15642849715E+01  0.20175029828E+02  0.93317253719E+01  0.22283871734E+02  0.10500000000E+00 0. -1.
</event>
<event>
11    0  0.3462209E-009  0.9118800E+02  0.7816531E-02  0.1126479E+00
         25   -1    0    0    0    0  0.00000000000E+00  0.00000000000E+00  0.99999998245E-14  0.12500000000E+03  0.12500000000E+03 0.  0.
    3000001    1    3    3    0    0 -0.97166985017E+01 -0.36476095602E+01  0.53295779677E+02  0.54306163708E+02  0.10000000000E+01 0.  1.
    1000022    2    1    0    0    0 -0.11367458004E+02 -0.78512861955E+01  0.60128096586E+02  0.62500000142E+02  0.10000011111E+02 0.  0.
    3000022    2    3    3    0    0 -0.16507595022E+01 -0.42036766353E+01  0.68323169092E+01  0.81938364337E+01  0.24999393252E+00 0.  0.
    1000022    2    1    0    0    0  0.11367458004E+02  0.78512861955E+01 -0.60128096586E+02  0.62499999858E+02  0.10000009340E+02 0.  0.
    3000022    2    5    5    0    0  0.65824057922E+01 -0.98412802388E+00 -0.29795992714E+02  0.30531299628E+02  0.25000236273E+00 0.  0.
        -13    1    4    4    0    0 -0.59391583489E+00 -0.14696292636E+01  0.23022793650E+01  0.27971523851E+01  0.10500000000E+00 0.  1.
         13    1    4    4    0    0 -0.10568436673E+01 -0.27340473717E+01  0.45300375442E+01  0.53966840486E+01  0.10500000000E+00 0. -1.
    3000001    1    5    5    0    0  0.47850522118E+01  0.88354142194E+01 -0.30332103873E+02  0.31968700231E+02  0.10000000000E+01 0.  1.
        -13    1    6    6    0    0  0.17399286927E+01 -0.29152270135E+00 -0.79699234303E+01  0.81635189610E+01  0.10500000000E+00 0. -1.
         13    1    6    6    0    0  0.48424770995E+01 -0.69260532253E+00 -0.21826069283E+02  0.22367780667E+02  0.10500000000E+00 0.  1.
</event>
<event>
11    0  0.3462209E-009  0.9118800E+02  0.7816531E-02  0.1126479E+00
         25   -1    0    0    0    0  0.00000000000E+00  0.00000000000E+00  0.99999998245E-14  0.12500000000E+03  0.12500000000E+03 0.  0.
    3000001    1    3    3    0    0 -0.22744417748E+02  0.19983475917E+02  0.41726865835E+01  0.30578737085E+02  0.10000000000E+01 0. -1.
    1000022    2    1    0    0    0 -0.41596291929E+02  0.42161981658E+02  0.17273267843E+02  0.62499999694E+02  0.99999990063E+01 0.  0.
    3000022    2    3    3    0    0 -0.18851874181E+02  0.22178505742E+02  0.13100581259E+02  0.31921262608E+02  0.25000021003E+00 0.  0.
    1000022    2    1    0    0    0  0.41596291929E+02 -0.42161981658E+02 -0.17273267843E+02  0.62500000306E+02  0.10000002836E+02 0.  0.
    3000022    2    5    5    0    0  0.28873164815E+02 -0.25000324705E+02 -0.14839757198E+02  0.40975075057E+02  0.25000082855E+00 0.  0.
        -13    1    4    4    0    0 -0.11631548384E+02  0.13609886316E+02  0.80155035216E+01  0.19615841686E+02  0.10500000000E+00 0. -1.
         13    1    4    4    0    0 -0.72203257972E+01  0.85686194263E+01  0.50850777378E+01  0.12305420923E+02  0.10500000000E+00 0.  1.
    3000001    1    5    5    0    0  0.12723127114E+02 -0.17161656953E+02 -0.24335106444E+01  0.21524925250E+02  0.10000000000E+01 0.  1.
        -13    1    6    6    0    0  0.16940450280E+02 -0.14722927450E+02 -0.87732770252E+01  0.24098233611E+02  0.10500000000E+00 0. -1.
         13    1    6    6    0    0  0.11932714535E+02 -0.10277397255E+02 -0.60664801732E+01  0.16876841446E+02  0.10500000000E+00 0.  1.
</event>
<event>
11    0  0.3462209E-009  0.9118800E+02  0.7816531E-02  0.1126479E+00
         25   -1    0    0    0    0  0.00000000000E+00  0.00000000000E+00  0.99999998245E-14  0.12500000000E+03  0.12500000000E+03 0.  0.
    3000001    1    3    3    0    0  0.88163372932E+01  0.51858238350E+01 -0.44845136627E+01  0.11213002939E+02  0.10000000000E+01 0.  1.
    1000022    2    1    0    0    0  0.58373097991E+02  0.16705873160E+02 -0.10942810185E+02  0.62500000906E+02  0.10000012574E+02 0.  0.
    3000022    2    3    3    0    0  0.49556760697E+02  0.11520049325E+02 -0.64582965218E+01  0.51286997967E+02  0.24999853770E+00 0.  0.
    1000022    2    1    0    0    0 -0.58373097991E+02 -0.16705873160E+02  0.10942810185E+02  0.62499999094E+02  0.10000001247E+02 0.  0.
    3000022    2    5    5    0    0 -0.50686927266E+02 -0.14576077183E+02  0.60446763608E+01  0.53086977992E+02  0.24999658367E+00 0.  0.
        -13    1    4    4    0    0  0.24560805308E+02  0.57786750996E+01 -0.32100475378E+01  0.25435048132E+02  0.10500000000E+00 0.  1.
         13    1    4    4    0    0  0.24995955389E+02  0.57413742253E+01 -0.32482489840E+01  0.25851949835E+02  0.10500000000E+00 0. -1.
    3000001    1    5    5    0    0 -0.76861707244E+01 -0.21297959770E+01  0.48981338237E+01  0.94130211019E+01  0.10000000000E+01 0. -1.
        -13    1    6    6    0    0 -0.26193351687E+02 -0.76026142049E+01  0.31317057763E+01  0.27453779729E+02  0.10500000000E+00 0.  1.
         13    1    6    6    0    0 -0.24493575579E+02 -0.69734629779E+01  0.29129705845E+01  0.25633198263E+02  0.10500000000E+00 0. -1.
</event>
<event>
11    0  0.3462209E-009  0.9118800E+02  0.7816531E-02  0.1126479E+00
         25   -1    0    0    0    0  0.00000000000E+00  0.00000000000E+00  0.99999998245E-14  0.12500000000E+03  0.12500000000E+03 0.  0.
    3000001    1    3    3    0    0 -0.65315238338E+01 -0.25012988346E+02  0.17808565874E+02  0.31407887673E+02  0.10000000000E+01 0.  1.
    1000022    2    1    0    0    0 -0.89145477122E+01 -0.44017101992E+02  0.42299827941E+02  0.62500002008E+02  0.10000018923E+02 0.  0.
    3000022    2    3    3    0    0 -0.23830238784E+01 -0.19004113646E+02  0.24491262068E+02  0.31092114335E+02  0.25003579162E+00 0.  0.
    1000022    2    1    0    0    0  0.89145477122E+01  0.44017101992E+02 -0.42299827941E+02  0.62499997992E+02  0.99999938265E+01 0.  0.
    3000022    2    5    5    0    0 -0.19345753889E+01  0.34482611571E+01 -0.44328081240E+01  0.59451970594E+01  0.24998653724E+00 0.  0.
        -13    1    4    4    0    0 -0.14793562441E+01 -0.11333349226E+02  0.14656979889E+02  0.18586860521E+02  0.10500000000E+00 0.  1.
         13    1    4    4    0    0 -0.90366763429E+00 -0.76707644198E+01  0.98342821788E+01  0.12505253814E+02  0.10500000000E+00 0. -1.
    3000001    1    5    5    0    0  0.10849123101E+02  0.40568840834E+02 -0.37867019817E+02  0.56554800933E+02  0.10000000000E+01 0.  1.
        -13    1    6    6    0    0 -0.12617603708E+01  0.21435351558E+01 -0.27407227088E+01  0.37026163944E+01  0.10500000000E+00 0. -1.
         13    1    6    6    0    0 -0.67281501807E+00  0.13047260013E+01 -0.16920854151E+01  0.22425806650E+01  0.10500000000E+00 0.  1.
</event>
<event>
11    0  0.3462209E-009  0.9118800E+02  0.7816531E-02  0.1126479E+00
         25   -1    0    0    0    0  0.00000000000E+00  0.00000000000E+00  0.99999998245E-14  0.12500000000E+03  0.12500000000E+03 0.  0.
    3000001    1    3    3    0    0 -0.41306336457E+01  0.42933204725E+01  0.32796506457E+01  0.68739248870E+01  0.10000000000E+01 0. -1.
    1000022    2    1    0    0    0 -0.43244183069E+02  0.15147858410E+02  0.41312624860E+02  0.62500001231E+02  0.10000009872E+02 0.  0.
    3000022    2    3    3    0    0 -0.39113549423E+02  0.10854537937E+02  0.38032974214E+02  0.55626076344E+02  0.24999920240E+00 0.  0.
    1000022    2    1    0    0    0  0.43244183069E+02 -0.15147858410E+02 -0.41312624860E+02  0.62499998769E+02  0.99999944782E+01 0.  0.
    3000022    2    5    5    0    0  0.42115251643E+02 -0.14191613444E+02 -0.41363900227E+02  0.60713516258E+02  0.25000260253E+00 0.  0.
        -13    1    4    4    0    0 -0.13327832592E+02  0.36785075153E+01  0.13025160580E+02  0.18995482944E+02  0.10500000000E+00 0.  1.
         13    1    4    4    0    0 -0.25785716832E+02  0.71760304220E+01  0.25007813634E+02  0.36630593401E+02  0.10500000000E+00 0. -1.
    3000001    1    5    5    0    0  0.11289314258E+01 -0.95624496545E+00  0.51275366927E-01  0.17864825108E+01  0.10000000000E+01 0.  1.
        -13    1    6    6    0    0  0.20218042449E+02 -0.68745202614E+01 -0.19829043845E+02  0.29141555794E+02  0.10500000000E+00 0.  1.
         13    1    6    6    0    0  0.21897209194E+02 -0.73170931830E+01 -0.21534856381E+02  0.31571960463E+02  0.10500000000E+00 0. -1.
</event>
<event>
11    0  0.3462209E-009  0.9118800E+02  0.7816531E-02  0.1126479E+00
         25   -1    0    0    0    0  0.00000000000E+00  0.00000000000E+00  0.99999998245E-14  0.12500000000E+03  0.12500000000E+03 0.  0.
    3000001    1    3    3    0    0 -0.16688872549E+02 -0.52566456182E+01 -0.14510427804E+02  0.22753094409E+02  0.10000000000E+01 0. -1.
    1000022    2    1    0    0    0 -0.48939402387E+02 -0.22486219526E+02 -0.30092438977E+02  0.62499999469E+02  0.99999937727E+01 0.  0.
    3000022    2    3    3    0    0 -0.32250529838E+02 -0.17229573908E+02 -0.15582011173E+02  0.39746905060E+02  0.24999558478E+00 0.  0.
    1000022    2    1    0    0    0  0.48939402387E+02  0.22486219526E+02  0.30092438977E+02  0.62500000531E+02  0.10000000409E+02 0.  0.
    3000022    2    5    5    0    0  0.51124676264E+01  0.41268215392E+01  0.71871545742E+01  0.97409277704E+01  0.25000341692E+00 0.  0.
        -13    1    4    4    0    0 -0.24148722267E+02 -0.12870814003E+02 -0.11666482579E+02  0.29747881958E+02  0.10500000000E+00 0.  1.
         13    1    4    4    0    0 -0.81018075715E+01 -0.43587599051E+01 -0.39155285934E+01  0.99990231023E+01  0.10500000000E+00 0. -1.
    3000001    1    5    5    0    0  0.43826934761E+02  0.18359397987E+02  0.22905284403E+02  0.52759072761E+02  0.10000000000E+01 0. -1.
        -13    1    6    6    0    0  0.29110484279E+01  0.23542804860E+01  0.41916873559E+01  0.56212193914E+01  0.10500000000E+00 0. -1.
         13    1    6    6    0    0  0.22014191985E+01  0.17725410532E+01  0.29954672183E+01  0.41197083790E+01  0.10500000000E+00 0.  1.
</event>
<event>
11    0  0.3462209E-009  0.9118800E+02  0.7816531E-02  0.1126479E+00
         25   -1    0    0    0    0  0.00000000000E+00  0.00000000000E+00  0.99999998245E-14  0.12500000000E+03  0.12500000000E+03 0.  0.
    3000001    1    3    3    0    0  0.17520840729E+01  0.58256721900E+01  0.89142562644E+01  0.10838460214E+02  0.10000000000E+01 0.  1.
    1000022    2    1    0    0    0  0.23675681454E+02  0.42582967983E+02  0.37847098741E+02  0.62500000969E+02  0.10000009173E+02 0.  0.
    3000022    2    3    3    0    0  0.21923597381E+02  0.36757295793E+02  0.28932842477E+02  0.51661540755E+02  0.25000653807E+00 0.  0.
    1000022    2    1    0    0    0 -0.23675681454E+02 -0.42582967983E+02 -0.37847098741E+02  0.62499999031E+02  0.99999970626E+01 0.  0.
    3000022    2    5    5    0    0 -0.16462532016E+02 -0.19603386542E+02 -0.20607829169E+02  0.32864157498E+02  0.25000137949E+00 0.  0.
        -13    1    4    4    0    0  0.10674082170E+02  0.17887806968E+02  0.14163431966E+02  0.25189749867E+02  0.10500000000E+00 0.  1.
         13    1    4    4    0    0  0.11249515211E+02  0.18869488825E+02  0.14769410510E+02  0.26471790888E+02  0.10500000000E+00 0. -1.
    3000001    1    5    5    0    0 -0.72131494377E+01 -0.22979581441E+02 -0.17239269573E+02  0.29635841534E+02  0.10000000000E+01 0.  1.
        -13    1    6    6    0    0 -0.85226666157E+01 -0.10182107552E+02 -0.10606890396E+02  0.16994949524E+02  0.10500000000E+00 0. -1.
         13    1    6    6    0    0 -0.79398654006E+01 -0.94212789900E+01 -0.10000938772E+02  0.15869207974E+02  0.10500000000E+00 0.  1.
</event>
<event>
11    0  0.3462209E-009  0.9118800E+02  0.7816531E-02  0.1126479E+00
         25   -1    0    0    0    0  0.00000000000E+00  0.00000000000E+00  0.99999998245E-14  0.12500000000E+03  0.12500000000E+03 0.  0.
    3000001    1    3    3    0    0 -0.19854662598E+02  0.64237506674E+00 -0.86635619781E+01  0.21695104949E+02  0.10000000000E+01 0.  1.
    1000022    2    1    0    0    0 -0.60429676432E+02 -0.16558007739E+01 -0.12319215426E+02  0.62500002417E+02  0.99999881707E+01 0.  0.
    3000022    2    3    3    0    0 -0.40575013834E+02 -0.22981758406E+01 -0.36556534483E+01  0.40804897467E+02  0.24999065836E+00 0.  0.
    1000022    2    1    0    0    0  0.60429676432E+02  0.16558007739E+01  0.12319215426E+02  0.62499997583E+02  0.99999579636E+01 0.  0.
    3000022    2    5    5    0    0  0.45665791915E+02  0.23086720289E+01  0.50576260573E+01  0.46003658381E+02  0.24997065812E+00 0.  0.
        -13    1    4    4    0    0 -0.26357200686E+02 -0.14439073068E+01 -0.24030122979E+01  0.26506082122E+02  0.10500000000E+00 0.  1.
         13    1    4    4    0    0 -0.14217813148E+02 -0.85426853386E+00 -0.12526411504E+01  0.14298815346E+02  0.10500000000E+00 0. -1.
    3000001    1    5    5    0    0  0.14763884518E+02 -0.65287125498E+00  0.72615893692E+01  0.16496339203E+02  0.10000000000E+01 0. -1.
        -13    1    6    6    0    0  0.25929302596E+02  0.12596173189E+01  0.29127966418E+01  0.26122993285E+02  0.10500000000E+00 0. -1.
         13    1    6    6    0    0  0.19736489319E+02  0.10490547100E+01  0.21448294154E+01  0.19880665096E+02  0.10500000000E+00 0.  1.
</event>
<event>
11    0  0.3462209E-009  0.9118800E+02  0.7816531E-02  0.1126479E+00
         25   -1    0    0    0    0  0.00000000000E+00  0.00000000000E+00  0.99999998245E-14  0.12500000000E+03  0.12500000000E+03 0.  0.
    3000001    1    3    3    0    0 -0.15314654121E+02  0.51207336732E+01  0.73987310296E+01  0.17790496481E+02  0.10000000000E+01 0. -1.
    1000022    2    1    0    0    0 -0.53383399311E+02  0.31798362998E+01  0.30762821787E+02  0.62499999704E+02  0.10000003890E+02 0.  0.
    3000022    2    3    3    0    0 -0.38068745190E+02 -0.19408973734E+01  0.23364090757E+02  0.44709503223E+02  0.24999711959E+00 0.  0.
    1000022    2    1    0    0    0  0.53383399311E+02 -0.31798362998E+01 -0.30762821787E+02  0.62500000296E+02  0.10000007591E+02 0.  0.
    3000022    2    5    5    0    0  0.34989997033E+01  0.17535245771E+01 -0.42532734487E+01  0.57853855406E+01  0.25000691538E+00 0.  0.
        -13    1    4    4    0    0 -0.17745884516E+02 -0.89404391255E+00  0.10968876260E+02  0.20881642732E+02  0.10500000000E+00 0.  1.
         13    1    4    4    0    0 -0.20322860674E+02 -0.10468534608E+01  0.12395214497E+02  0.23827860491E+02  0.10500000000E+00 0. -1.
    3000001    1    5    5    0    0  0.49884399608E+02 -0.49333608769E+01 -0.26509548338E+02  0.56714614755E+02  0.10000000000E+01 0.  1.
        -13    1    6    6    0    0  0.25985670734E+01  0.12999879524E+01 -0.31082269037E+01  0.42561272298E+01  0.10500000000E+00 0. -1.
         13    1    6    6    0    0  0.90043262993E+00  0.45353662472E+00 -0.11450465450E+01  0.15292583108E+01  0.10500000000E+00 0.  1.
</event>
<event>
11    0  0.3462209E-009  0.9118800E+02  0.7816531E-02  0.1126479E+00
         25   -1    0    0    0    0  0.00000000000E+00  0.00000000000E+00  0.99999998245E-14  0.12500000000E+03  0.12500000000E+03 0.  0.
    3000001    1    3    3    0    0  0.36583627218E+01 -0.24929303221E+02  0.16356814670E+01  0.25269135932E+02  0.10000000000E+01 0. -1.
    1000022    2    1    0    0    0  0.13474631020E+02 -0.58386478778E+02  0.14686852201E+02  0.62500000482E+02  0.99999923684E+01 0.  0.
    3000022    2    3    3    0    0  0.98162682985E+01 -0.33457175557E+02  0.13051170734E+02  0.37230864549E+02  0.24999601233E+00 0.  0.
    1000022    2    1    0    0    0 -0.13474631020E+02  0.58386478778E+02 -0.14686852201E+02  0.62499999518E+02  0.99999863484E+01 0.  0.
    3000022    2    5    5    0    0 -0.91857723243E+01  0.48769533402E+02 -0.88226267997E+01  0.50405823778E+02  0.25005129702E+00 0.  0.
        -13    1    4    4    0    0  0.58197619210E+01 -0.19877551063E+02  0.76858421069E+01  0.22092303161E+02  0.10500000000E+00 0. -1.
         13    1    4    4    0    0  0.39965063774E+01 -0.13579624494E+02  0.53653286268E+01  0.15138561388E+02  0.10500000000E+00 0.  1.
    3000001    1    5    5    0    0 -0.42888586959E+01  0.96169453762E+01 -0.58642254009E+01  0.12094175740E+02  0.10000000000E+01 0. -1.
        -13    1    6    6    0    0 -0.62438812302E+01  0.32915662265E+02 -0.59272173990E+01  0.34023077554E+02  0.10500000000E+00 0.  1.
         13    1    6    6    0    0 -0.29418910942E+01  0.15853871137E+02 -0.28954094008E+01  0.16382746224E+02  0.10500000000E+00 0. -1.
</event>
<event>
11    0  0.3462209E-009  0.9118800E+02  0.7816531E-02  0.1126479E+00
         25   -1    0    0    0    0  0.00000000000E+00  0.00000000000E+00  0.99999998245E-14  0.12500000000E+03  0.12500000000E+03 0.  0.
    3000001    1    3    3    0    0  0.22204967056E+02  0.25066077599E+02 -0.17871145085E+02  0.37970338882E+02  0.10000000000E+01 0.  1.
    1000022    2    1    0    0    0  0.35356988222E+02  0.36116478983E+02 -0.35379847109E+02  0.62499998065E+02  0.99999753221E+01 0.  0.
    3000022    2    3    3    0    0  0.13152021166E+02  0.11050401384E+02 -0.17508702023E+02  0.24529659183E+02  0.25000319966E+00 0.  0.
    1000022    2    1    0    0    0 -0.35356988222E+02 -0.36116478983E+02  0.35379847109E+02  0.62500001935E+02  0.99999995093E+01 0.  0.
    3000022    2    5    5    0    0 -0.11404473978E+02 -0.17057903292E+02  0.17937711464E+02  0.27255423035E+02  0.25000164407E+00 0.  0.
        -13    1    4    4    0    0  0.62351402773E+01  0.52856358331E+01 -0.82496159459E+01  0.11613875696E+02  0.10500000000E+00 0.  1.
         13    1    4    4    0    0  0.69168808885E+01  0.57647655514E+01 -0.92590860774E+01  0.12915783487E+02  0.10500000000E+00 0. -1.
    3000001    1    5    5    0    0 -0.23952514244E+02 -0.19058575691E+02  0.17442135644E+02  0.35244578900E+02  0.10000000000E+01 0. -1.
        -13    1    6    6    0    0 -0.60929460843E+01 -0.90731141926E+01  0.94697102173E+01  0.14461391003E+02  0.10500000000E+00 0. -1.
         13    1    6    6    0    0 -0.53115278932E+01 -0.79847890994E+01  0.84680012469E+01  0.12794032032E+02  0.10500000000E+00 0.  1.
</event>
<event>
11    0  0.3462209E-009  0.9118800E+02  0.7816531E-02  0.1126479E+00
         25   -1    0    0    0    0  0.00000000000E+00  0.00000000000E+00  0.99999998245E-14  0.12500000000E+03  0.12500000000E+03 0.  0.
    3000001    1    3    3    0    0  0.18681547539E+02 -0.10828495514E+02  0.29252587795E+02  0.36372660423E+02  0.10000000000E+01 0.  1.
    1000022    2    1    0    0    0  0.33746139744E+02 -0.10380292372E+02  0.50593453361E+02  0.62499999839E+02  0.10000001978E+02 0.  0.
    3000022    2    3    3    0    0  0.15064592206E+02  0.44820314167E+00  0.21340865566E+02  0.26127339417E+02  0.24999499474E+00 0.  0.
    1000022    2    1    0    0    0 -0.33746139744E+02  0.10380292372E+02 -0.50593453361E+02  0.62500000161E+02  0.10000003986E+02 0.  0.
    3000022    2    5    5    0    0 -0.25565586183E+02  0.11980263947E+02 -0.40519594045E+02  0.49386495399E+02  0.25001025874E+00 0.  0.
        -13    1    4    4    0    0  0.91228805416E+01  0.28037785830E+00  0.13030617222E+02  0.15909543403E+02  0.10500000000E+00 0.  1.
         13    1    4    4    0    0  0.59417116640E+01  0.16782528337E+00  0.83102483443E+01  0.10217796013E+02  0.10500000000E+00 0. -1.
    3000001    1    5    5    0    0 -0.81805535617E+01 -0.15999715744E+01 -0.10073859315E+02  0.13113504761E+02  0.10000000000E+01 0.  1.
        -13    1    6    6    0    0 -0.18789791745E+02  0.88000985031E+01 -0.29835551001E+02  0.36341011763E+02  0.10500000000E+00 0. -1.
         13    1    6    6    0    0 -0.67757944380E+01  0.31801654436E+01 -0.10684043045E+02  0.13045483636E+02  0.10500000000E+00 0.  1.
</event>
<event>
11    0  0.3462209E-009  0.9118800E+02  0.7816531E-02  0.1126479E+00
         25   -1    0    0    0    0  0.00000000000E+00  0.00000000000E+00  0.99999998245E-14  0.12500000000E+03  0.12500000000E+03 0.  0.
    3000001    1    3    3    0    0  0.18182297455E+02  0.16667621095E+02 -0.22234019200E+02  0.33222840690E+02  0.10000000000E+01 0.  1.
    1000022    2    1    0    0    0  0.31116044365E+02  0.38528236757E+02 -0.36791531232E+02  0.62499998733E+02  0.99999913307E+01 0.  0.
    3000022    2    3    3    0    0  0.12933746910E+02  0.21860615662E+02 -0.14557512033E+02  0.29277158043E+02  0.25000048193E+00 0.  0.
    1000022    2    1    0    0    0 -0.31116044365E+02 -0.38528236757E+02  0.36791531232E+02  0.62500001267E+02  0.10000007168E+02 0.  0.
    3000022    2    5    5    0    0 -0.14194129919E+02 -0.24629476726E+02  0.23332015167E+02  0.36776757076E+02  0.24996278473E+00 0.  0.
        -13    1    4    4    0    0  0.73513081669E+01  0.12300491263E+02 -0.82329823370E+01  0.16526852097E+02  0.10500000000E+00 0.  1.
         13    1    4    4    0    0  0.55824387436E+01  0.95601243994E+01 -0.63245296955E+01  0.12750305946E+02  0.10500000000E+00 0. -1.
    3000001    1    5    5    0    0 -0.16921914447E+02 -0.13898760032E+02  0.13459516066E+02  0.25723244191E+02  0.10000000000E+01 0.  1.
        -13    1    6    6    0    0 -0.72191723928E+01 -0.12649302699E+02  0.11916607443E+02  0.18818551134E+02  0.10500000000E+00 0.  1.
         13    1    6    6    0    0 -0.69749575259E+01 -0.11980174026E+02  0.11415407723E+02  0.17958205943E+02  0.10500000000E+00 0. -1.
</event>
<event>
11    0  0.3462209E-009  0.9118800E+02  0.7816531E-02  0.1126479E+00
         25   -1    0    0    0    0  0.00000000000E+00  0.00000000000E+00  0.99999998245E-14  0.12500000000E+03  0.12500000000E+03 0.  0.
    3000001    1    3    3    0    0 -0.21203225134E+02 -0.10906429026E+02 -0.90736707084E+01  0.25531518763E+02  0.10000000000E+01 0.  1.
    1000022    2    1    0    0    0 -0.56203303373E+02 -0.22443460782E+02 -0.11988731275E+02  0.62500000668E+02  0.10000008203E+02 0.  0.
    3000022    2    3    3    0    0 -0.35000078239E+02 -0.11537031756E+02 -0.29150605663E+01  0.36968481906E+02  0.24999572439E+00 0.  0.
    1000022    2    1    0    0    0  0.56203303373E+02  0.22443460782E+02  0.11988731275E+02  0.62499999332E+02  0.99999998476E+01 0.  0.
    3000022    2    5    5    0    0  0.54740535772E+02  0.22911122769E+02  0.12394869078E+02  0.60622941872E+02  0.24999735362E+00 0.  0.
        -13    1    4    4    0    0 -0.19855899115E+02 -0.66101221396E+01 -0.16330223353E+01  0.20991146498E+02  0.10500000000E+00 0. -1.
         13    1    4    4    0    0 -0.15144179124E+02 -0.49269096165E+01 -0.12820382310E+01  0.15977335408E+02  0.10500000000E+00 0.  1.
    3000001    1    5    5    0    0  0.14627676014E+01 -0.46766198709E+00 -0.40613780357E+00  0.18770574592E+01  0.10000000000E+01 0.  1.
        -13    1    6    6    0    0  0.28624273511E+02  0.12049212726E+02  0.65106122012E+01  0.31732186460E+02  0.10500000000E+00 0.  1.
         13    1    6    6    0    0  0.26116262261E+02  0.10861910043E+02  0.58842568771E+01  0.28890755412E+02  0.10500000000E+00 0. -1.
</event>
<event>
11    0  0.3462209E-009  0.9118800E+02  0.7816531E-02  0.1126479E+00
         25   -1    0    0    0    0  0.00000000000E+00  0.00000000000E+00  0.99999998245E-14  0.12500000000E+03  0.12500000000E+03 0.  0.
    3000001    1    3    3    0    0 -0.10516883043E+01  0.14997723667E+01  0.95699461861E+01  0.97948576021E+01  0.10000000000E+01 0.  1.
    1000022    2    1    0    0    0 -0.28060486674E+02  0.90964088127E+01  0.54185923989E+02  0.62500000101E+02  0.10000004417E+02 0.  0.
    3000022    2    3    3    0    0 -0.27008798370E+02  0.75966364461E+01  0.44615977803E+02  0.52705142499E+02  0.24999158373E+00 0.  0.
    1000022    2    1    0    0    0  0.28060486674E+02 -0.90964088127E+01 -0.54185923989E+02  0.62499999899E+02  0.10000003158E+02 0.  0.
    3000022    2    5    5    0    0  0.23565453246E+02 -0.81667699859E+01 -0.36550718630E+02  0.44249793820E+02  0.25000411473E+00 0.  0.
        -13    1    4    4    0    0 -0.13529755519E+02  0.38754399660E+01  0.22394471912E+02  0.26449890672E+02  0.10500000000E+00 0.  1.
         13    1    4    4    0    0 -0.13479042850E+02  0.37211964801E+01  0.22221505892E+02  0.26255251827E+02  0.10500000000E+00 0. -1.
    3000001    1    5    5    0    0  0.44950334279E+01 -0.92963882679E+00 -0.17635205359E+02  0.18250206079E+02  0.10000000000E+01 0. -1.
        -13    1    6    6    0    0  0.10347575307E+02 -0.35341664812E+01 -0.16103336001E+02  0.19465125296E+02  0.10500000000E+00 0.  1.
         13    1    6    6    0    0  0.13217877939E+02 -0.46326035047E+01 -0.20447382629E+02  0.24784668524E+02  0.10500000000E+00 0. -1.
</event>
<event>
11    0  0.3462209E-009  0.9118800E+02  0.7816531E-02  0.1126479E+00
         25   -1    0    0    0    0  0.00000000000E+00  0.00000000000E+00  0.99999998245E-14  0.12500000000E+03  0.12500000000E+03 0.  0.
    3000001    1    3    3    0    0  0.66500403458E+01  0.53097135489E+02  0.20143645194E+02  0.57186495568E+02  0.10000000000E+01 0.  1.
    1000022    2    1    0    0    0  0.93960970636E+01  0.57633119860E+02  0.19909468597E+02  0.62499998963E+02  0.99999892885E+01 0.  0.
    3000022    2    3    3    0    0  0.27460567177E+01  0.45359843709E+01 -0.23417659730E+00  0.53135033943E+01  0.24999586485E+00 0.  0.
    1000022    2    1    0    0    0 -0.93960970636E+01 -0.57633119860E+02 -0.19909468597E+02  0.62500001037E+02  0.10000002253E+02 0.  0.
    3000022    2    5    5    0    0 -0.87896552181E+01 -0.25040559827E+02 -0.10657650265E+02  0.28599575028E+02  0.25001456034E+00 0.  0.
        -13    1    4    4    0    0  0.19830577365E+01  0.31935823882E+01 -0.17437244550E+00  0.37646935076E+01  0.10500000000E+00 0. -1.
         13    1    4    4    0    0  0.76299898124E+00  0.13424019828E+01 -0.59804151800E-01  0.15488098867E+01  0.10500000000E+00 0.  1.
    3000001    1    5    5    0    0 -0.60644184547E+00 -0.32592560033E+02 -0.92518183314E+01  0.33900426010E+02  0.10000000000E+01 0. -1.
        -13    1    6    6    0    0 -0.65457381919E+01 -0.18629556775E+02 -0.79609240230E+01  0.21290711834E+02  0.10500000000E+00 0.  1.
         13    1    6    6    0    0 -0.22439170262E+01 -0.64110030521E+01 -0.26967262422E+01  0.73088631934E+01  0.10500000000E+00 0. -1.
</event>
<event>
11    0  0.3462209E-009  0.9118800E+02  0.7816531E-02  0.1126479E+00
         25   -1    0    0    0    0  0.00000000000E+00  0.00000000000E+00  0.99999998245E-14  0.12500000000E+03  0.12500000000E+03 0.  0.
    3000001    1    3    3    0    0 -0.23790659795E+02  0.33971850838E+02 -0.38500709399E+02  0.56598469653E+02  0.10000000000E+01 0. -1.
    1000022    2    1    0    0    0 -0.27811111199E+02  0.34718137295E+02 -0.42748603375E+02  0.62500000011E+02  0.99999973736E+01 0.  0.
    3000022    2    3    3    0    0 -0.40204514040E+01  0.74628645619E+00 -0.42478939761E+01  0.59015303573E+01  0.24996871645E+00 0.  0.
    1000022    2    1    0    0    0  0.27811111199E+02 -0.34718137295E+02  0.42748603375E+02  0.62499999989E+02  0.99999972416E+01 0.  0.
    3000022    2    5    5    0    0  0.86549588226E+01 -0.13533235078E+02  0.21729078782E+02  0.27023547659E+02  0.24999900192E+00 0.  0.
        -13    1    4    4    0    0 -0.16670631289E+01  0.26089991796E+00 -0.18153633391E+01  0.24806727506E+01  0.10500000000E+00 0. -1.
         13    1    4    4    0    0 -0.23533882751E+01  0.48538653823E+00 -0.24325306370E+01  0.34208576067E+01  0.10500000000E+00 0.  1.
    3000001    1    5    5    0    0  0.19156152376E+02 -0.21184902217E+02  0.21019524593E+02  0.35476452330E+02  0.10000000000E+01 0.  1.
        -13    1    6    6    0    0  0.25840434802E+01 -0.40799138831E+01  0.64647848318E+01  0.80701577384E+01  0.10500000000E+00 0. -1.
         13    1    6    6    0    0  0.60709153424E+01 -0.94533211944E+01  0.15264293950E+02  0.18953389921E+02  0.10500000000E+00 0.  1.
</event>
<event>
11    0  0.3462209E-009  0.9118800E+02  0.7816531E-02  0.1126479E+00
         25   -1    0    0    0    0  0.00000000000E+00  0.00000000000E+00  0.99999998245E-14  0.12500000000E+03  0.12500000000E+03 0.  0.
    3000001    1    3    3    0    0  0.14613331284E+02  0.52190085835E+01 -0.13691001472E+01  0.15609674469E+02  0.10000000000E+01 0.  1.
    1000022    2    1    0    0    0  0.51935438425E+02  0.26579643890E+02 -0.20061998138E+02  0.62500007743E+02  0.99999982436E+01 0.  0.
    3000022    2    3    3    0    0  0.37322107141E+02  0.21360635306E+02 -0.18692897990E+02  0.46890333274E+02  0.24999425674E+00 0.  0.
    1000022    2    1    0    0    0 -0.51935438425E+02 -0.26579643890E+02  0.20061998138E+02  0.62499992257E+02  0.99999014583E+01 0.  0.
    3000022    2    5    5    0    0 -0.35639678287E+02 -0.13400834168E+02  0.10907666352E+02  0.39608189912E+02  0.24999615610E+00 0.  0.
        -13    1    4    4    0    0  0.21234408450E+02  0.12204076629E+02 -0.10593509751E+02  0.26684697159E+02  0.10500000000E+00 0.  1.
         13    1    4    4    0    0  0.16087698691E+02  0.91565586768E+01 -0.80993882393E+01  0.20205636115E+02  0.10500000000E+00 0. -1.
    3000001    1    5    5    0    0 -0.16295760138E+02 -0.13178809722E+02  0.91543317859E+01  0.22891802345E+02  0.10000000000E+01 0.  1.
        -13    1    6    6    0    0 -0.16598662126E+02 -0.61696362778E+01  0.50786580811E+01  0.18422371972E+02  0.10500000000E+00 0.  1.
         13    1    6    6    0    0 -0.19041016161E+02 -0.72311978899E+01  0.58290082705E+01  0.21185817940E+02  0.10500000000E+00 0. -1.
</event>
<event>
11    0  0.3462209E-009  0.9118800E+02  0.7816531E-02  0.1126479E+00
         25   -1    0    0    0    0  0.00000000000E+00  0.00000000000E+00  0.99999998245E-14  0.12500000000E+03  0.12500000000E+03 0.  0.
    3000001    1    3    3    0    0  0.26345219574E+02  0.19366788835E+02 -0.52751995776E+01  0.33135642966E+02  0.10000000000E+01 0. -1.
    1000022    2    1    0    0    0  0.49165122241E+02  0.37263711517E+02 -0.67572398533E+00  0.62500000237E+02  0.99999992844E+01 0.  0.
    3000022    2    3    3    0    0  0.22819902668E+02  0.17896922682E+02  0.45994755923E+01  0.29364357271E+02  0.25000597026E+00 0.  0.
    1000022    2    1    0    0    0 -0.49165122241E+02 -0.37263711517E+02  0.67572398533E+00  0.62499999763E+02  0.99999963257E+01 0.  0.
    3000022    2    5    5    0    0  0.26542010451E+00 -0.12548161180E+01  0.27236165847E+00  0.13347991539E+01  0.24999317240E+00 0.  0.
        -13    1    4    4    0    0  0.11548740838E+02  0.90570766325E+01  0.23963457273E+01  0.14871366780E+02  0.10500000000E+00 0. -1.
         13    1    4    4    0    0  0.11271161830E+02  0.88398460495E+01  0.22031298650E+01  0.14492990491E+02  0.10500000000E+00 0.  1.
    3000001    1    5    5    0    0 -0.49430542346E+02 -0.36008895399E+02  0.40336232686E+00  0.61165200609E+02  0.10000000000E+01 0. -1.
        -13    1    6    6    0    0  0.79214806133E-01 -0.65085232229E+00  0.17576923935E+00  0.68687957929E+00  0.10500000000E+00 0. -1.
         13    1    6    6    0    0  0.18620529837E+00 -0.60396379574E+00  0.96592419119E-01  0.64791957459E+00  0.10500000000E+00 0.  1.
</event>
<event>
11    0  0.3462209E-009  0.9118800E+02  0.7816531E-02  0.1126479E+00
         25   -1    0    0    0    0  0.00000000000E+00  0.00000000000E+00  0.99999998245E-14  0.12500000000E+03  0.12500000000E+03 0.  0.
    3000001    1    3    3    0    0  0.13182063882E+02  0.12140734119E+02  0.26662732670E+02  0.32141337037E+02  0.10000000000E+01 0. -1.
    1000022    2    1    0    0    0  0.28081131841E+02  0.30549013030E+02  0.45655862596E+02  0.62500000435E+02  0.10000005120E+02 0.  0.
    3000022    2    3    3    0    0  0.14899067959E+02  0.18408278912E+02  0.18993129926E+02  0.30358663398E+02  0.25000072794E+00 0.  0.
    1000022    2    1    0    0    0 -0.28081131841E+02 -0.30549013030E+02 -0.45655862596E+02  0.62499999565E+02  0.99999996775E+01 0.  0.
    3000022    2    5    5    0    0 -0.16725278989E+02 -0.15010697103E+02 -0.30993795979E+02  0.38284903996E+02  0.25000017709E+00 0.  0.
        -13    1    4    4    0    0  0.94796398418E+01  0.11722196652E+02  0.12165038145E+02  0.19371955088E+02  0.10500000000E+00 0. -1.
         13    1    4    4    0    0  0.54194281175E+01  0.66860822597E+01  0.68280917817E+01  0.10986708310E+02  0.10500000000E+00 0.  1.
    3000001    1    5    5    0    0 -0.11355852852E+02 -0.15538315928E+02 -0.14662066618E+02  0.24215095568E+02  0.10000000000E+01 0. -1.
        -13    1    6    6    0    0 -0.11124072170E+02 -0.99543236973E+01 -0.20502366638E+02  0.25361222461E+02  0.10500000000E+00 0.  1.
         13    1    6    6    0    0 -0.56012068186E+01 -0.50563734052E+01 -0.10491429340E+02  0.12923681536E+02  0.10500000000E+00 0. -1.
</event>
<event>
11    0  0.3462209E-009  0.9118800E+02  0.7816531E-02  0.1126479E+00
         25   -1    0    0    0    0  0.00000000000E+00  0.00000000000E+00  0.99999998245E-14  0.12500000000E+03  0.12500000000E+03 0.  0.
    3000001    1    3    3    0    0  0.24929244239E+02 -0.24581671190E+01 -0.18923102118E+02  0.31410087515E+02  0.10000000000E+01 0. -1.
    1000022    2    1    0    0    0  0.51219361259E+02  0.41604144444E+01 -0.34139683772E+02  0.62500001101E+02  0.10000005672E+02 0.  0.
    3000022    2    3    3    0    0  0.26290117020E+02  0.66185815633E+01 -0.15216581654E+02  0.31089913586E+02  0.24998947346E+00 0.  0.
    1000022    2    1    0    0    0 -0.51219361259E+02 -0.41604144444E+01  0.34139683772E+02  0.62499998899E+02  0.99999919120E+01 0.  0.
    3000022    2    5    5    0    0 -0.32479269553E+02 -0.65099239450E+01  0.24958027605E+02  0.41475868906E+02  0.24999808197E+00 0.  0.
        -13    1    4    4    0    0  0.18101882298E+02  0.45336158695E+01 -0.10523259661E+02  0.21423861334E+02  0.10500000000E+00 0.  1.
         13    1    4    4    0    0  0.81882347218E+01  0.20849656939E+01 -0.46933219928E+01  0.96660522517E+01  0.10500000000E+00 0. -1.
    3000001    1    5    5    0    0 -0.18740091706E+02  0.23495095006E+01  0.91816561666E+01  0.21024129994E+02  0.10000000000E+01 0. -1.
        -13    1    6    6    0    0 -0.11798385721E+02 -0.23283254187E+01  0.91190691960E+01  0.15092761606E+02  0.10500000000E+00 0.  1.
         13    1    6    6    0    0 -0.20680883832E+02 -0.41815985263E+01  0.15838958409E+02  0.26383107300E+02  0.10500000000E+00 0. -1.
</event>
<event>
11    0  0.3462209E-009  0.9118800E+02  0.7816531E-02  0.1126479E+00
         25   -1    0    0    0    0  0.00000000000E+00  0.00000000000E+00  0.99999998245E-14  0.12500000000E+03  0.12500000000E+03 0.  0.
    3000001    1    3    3    0    0 -0.13902443521E+02 -0.23412165253E+02  0.34427205424E+02  0.43904895980E+02  0.10000000000E+01 0. -1.
    1000022    2    1    0    0    0 -0.19255399963E+02 -0.38020362999E+02  0.44608649108E+02  0.62499999636E+02  0.99999974458E+01 0.  0.
    3000022    2    3    3    0    0 -0.53529564424E+01 -0.14608197746E+02  0.10181443685E+02  0.18595103656E+02  0.25000086977E+00 0.  0.
    1000022    2    1    0    0    0  0.19255399963E+02  0.38020362999E+02 -0.44608649108E+02  0.62500000364E+02  0.10000001994E+02 0.  0.
    3000022    2    5    5    0    0  0.14755521815E+02  0.28539653065E+02 -0.26957867114E+02  0.41940747721E+02  0.24999797800E+00 0.  0.
        -13    1    4    4    0    0 -0.23838857448E+01 -0.67002589084E+01  0.46535432482E+01  0.84995806042E+01  0.10500000000E+00 0.  1.
         13    1    4    4    0    0 -0.29690706975E+01 -0.79079388375E+01  0.55279004364E+01  0.10095523052E+02  0.10500000000E+00 0. -1.
    3000001    1    5    5    0    0  0.44998781490E+01  0.94807099339E+01 -0.17650781995E+02  0.20559252643E+02  0.10000000000E+01 0.  1.
        -13    1    6    6    0    0  0.93340708244E+01  0.17943942138E+02 -0.16929538409E+02  0.26376698682E+02  0.10500000000E+00 0.  1.
         13    1    6    6    0    0  0.54214509901E+01  0.10595710927E+02 -0.10028328705E+02  0.15564049039E+02  0.10500000000E+00 0. -1.
</event>
<event>
11    0  0.3462209E-009  0.9118800E+02  0.7816531E-02  0.1126479E+00
         25   -1    0    0    0    0  0.00000000000E+00  0.00000000000E+00  0.99999998245E-14  0.12500000000E+03  0.12500000000E+03 0.  0.
    3000001    1    3    3    0    0 -0.19435770334E+00 -0.14539956544E+02  0.35323462025E+02  0.38212499011E+02  0.10000000000E+01 0.  1.
    1000022    2    1    0    0    0  0.74818339114E+01 -0.23109386111E+02  0.56711801127E+02  0.62499997735E+02  0.99999882355E+01 0.  0.
    3000022    2    3    3    0    0  0.76761916147E+01 -0.85694295674E+01  0.21388339101E+02  0.24287498724E+02  0.25000785668E+00 0.  0.
    1000022    2    1    0    0    0 -0.74818339114E+01  0.23109386111E+02 -0.56711801127E+02  0.62500002265E+02  0.10000016550E+02 0.  0.
    3000022    2    5    5    0    0 -0.88504958704E+01  0.21868713597E+02 -0.47311712888E+02  0.52868067738E+02  0.24999682693E+00 0.  0.
        -13    1    4    4    0    0  0.56133812983E+01 -0.63095164426E+01  0.15737710158E+02  0.17860755677E+02  0.10500000000E+00 0.  1.
         13    1    4    4    0    0  0.20628103165E+01 -0.22599131248E+01  0.56506289436E+01  0.64267430470E+01  0.10500000000E+00 0. -1.
    3000001    1    5    5    0    0  0.13686619590E+01  0.12406725149E+01 -0.94000882387E+01  0.96319345276E+01  0.10000000000E+01 0. -1.
        -13    1    6    6    0    0 -0.33350133835E+01  0.83498333545E+01 -0.18132782671E+02  0.20239833589E+02  0.10500000000E+00 0. -1.
         13    1    6    6    0    0 -0.55154824869E+01  0.13518880242E+02 -0.29178930217E+02  0.32628234149E+02  0.10500000000E+00 0.  1.
</event>
<event>
11    0  0.3462209E-009  0.9118800E+02  0.7816531E-02  0.1126479E+00
         25   -1    0    0    0    0  0.00000000000E+00  0.00000000000E+00  0.99999998245E-14  0.12500000000E+03  0.12500000000E+03 0.  0.
    3000001    1    3    3    0    0 -0.17870563256E+02 -0.25747720811E+01 -0.12330104342E+02  0.21886478827E+02  0.10000000000E+01 0.  1.
    1000022    2    1    0    0    0 -0.45128040140E+02 -0.19197187216E+02 -0.37432313187E+02  0.62500000305E+02  0.99999981812E+01 0.  0.
    3000022    2    3    3    0    0 -0.27257476884E+02 -0.16622415135E+02 -0.25102208845E+02  0.40613521478E+02  0.25001379815E+00 0.  0.
    1000022    2    1    0    0    0  0.45128040140E+02  0.19197187216E+02  0.37432313187E+02  0.62499999695E+02  0.99999943741E+01 0.  0.
    3000022    2    5    5    0    0  0.81425150282E+01  0.12069840679E+01  0.10429753214E+02  0.13289078933E+02  0.25001055136E+00 0.  0.
        -13    1    4    4    0    0 -0.18449612165E+02 -0.11261356303E+02 -0.16930262886E+02  0.27456350107E+02  0.10500000000E+00 0.  1.
         13    1    4    4    0    0 -0.88078647190E+01 -0.53610588320E+01 -0.81719459590E+01  0.13157171370E+02  0.10500000000E+00 0. -1.
    3000001    1    5    5    0    0  0.36985525112E+02  0.17990203148E+02  0.27002559974E+02  0.49210920762E+02  0.10000000000E+01 0.  1.
        -13    1    6    6    0    0  0.47604411193E+01  0.72316652677E+00  0.62002218105E+01  0.78510219064E+01  0.10500000000E+00 0. -1.
         13    1    6    6    0    0  0.33820739089E+01  0.48381754110E+00  0.42295314031E+01  0.54380570270E+01  0.10500000000E+00 0.  1.
</event>
<event>
11    0  0.3462209E-009  0.9118800E+02  0.7816531E-02  0.1126479E+00
         25   -1    0    0    0    0  0.00000000000E+00  0.00000000000E+00  0.99999998245E-14  0.12500000000E+03  0.12500000000E+03 0.  0.
    3000001    1    3    3    0    0 -0.14552502016E+00 -0.42296374904E+00  0.62390125277E+00  0.12606857807E+01  0.10000000000E+01 0.  1.
    1000022    2    1    0    0    0  0.30617143101E+02 -0.50283120054E+02  0.18451243564E+02  0.62499999659E+02  0.99999977142E+01 0.  0.
    3000022    2    3    3    0    0  0.30762668121E+02 -0.49860156305E+02  0.17827342311E+02  0.61239313878E+02  0.24998742293E+00 0.  0.
    1000022    2    1    0    0    0 -0.30617143101E+02  0.50283120054E+02 -0.18451243564E+02  0.62500000341E+02  0.10000001975E+02 0.  0.
    3000022    2    5    5    0    0 -0.98329231922E+01  0.14989485275E+02 -0.10460365842E+02  0.20756993982E+02  0.24999658258E+00 0.  0.
        -13    1    4    4    0    0  0.21415865281E+02 -0.34650709946E+02  0.12431595112E+02  0.42589512412E+02  0.10500000000E+00 0. -1.
         13    1    4    4    0    0  0.93468028400E+01 -0.15209446359E+02  0.53957471990E+01  0.18649801466E+02  0.10500000000E+00 0.  1.
    3000001    1    5    5    0    0 -0.20784219909E+02  0.35293634779E+02 -0.79908777220E+01  0.41743006359E+02  0.10000000000E+01 0.  1.
        -13    1    6    6    0    0 -0.66251903848E+01  0.10022499584E+02 -0.70466749370E+01  0.13928757956E+02  0.10500000000E+00 0. -1.
         13    1    6    6    0    0 -0.32077328074E+01  0.49669856916E+01 -0.34136909052E+01  0.68282360256E+01  0.10500000000E+00 0.  1.
</event>
<event>
11    0  0.3462209E-009  0.9118800E+02  0.7816531E-02  0.1126479E+00
         25   -1    0    0    0    0  0.00000000000E+00  0.00000000000E+00  0.99999998245E-14  0.12500000000E+03  0.12500000000E+03 0.  0.
    3000001    1    3    3    0    0 -0.17218876478E+02  0.15897067458E+02  0.99609233858E+01  0.25483846955E+02  0.10000000000E+01 0.  1.
    1000022    2    1    0    0    0 -0.47648017212E+02  0.28651537321E+02  0.26739600244E+02  0.62500000291E+02  0.99999840007E+01 0.  0.
    3000022    2    3    3    0    0 -0.30429140734E+02  0.12754469863E+02  0.16778676859E+02  0.37016153336E+02  0.25000670939E+00 0.  0.
    1000022    2    1    0    0    0  0.47648017212E+02 -0.28651537321E+02 -0.26739600244E+02  0.62499999709E+02  0.99999803661E+01 0.  0.
    3000022    2    5    5    0    0  0.14651314749E+02 -0.58257754062E+01 -0.11717931488E+02  0.19646198096E+02  0.24999667033E+00 0.  0.
        -13    1    4    4    0    0 -0.23045151162E+02  0.96438068548E+01  0.12721891352E+02  0.28034613379E+02  0.10500000000E+00 0. -1.
         13    1    4    4    0    0 -0.73839895719E+01  0.31106630087E+01  0.40567855066E+01  0.89815399569E+01  0.10500000000E+00 0.  1.
    3000001    1    5    5    0    0  0.32996702463E+02 -0.22825761915E+02 -0.15021668756E+02  0.42853801613E+02  0.10000000000E+01 0. -1.
        -13    1    6    6    0    0  0.43611787683E+01 -0.17139916254E+01 -0.34320238994E+01  0.58092564573E+01  0.10500000000E+00 0. -1.
         13    1    6    6    0    0  0.10290135980E+02 -0.41117837808E+01 -0.82859075884E+01  0.13836941639E+02  0.10500000000E+00 0.  1.
</event>
<event>
11    0  0.3462209E-009  0.9118800E+02  0.7816531E-02  0.1126479E+00
         25   -1    0    0    0    0  0.00000000000E+00  0.00000000000E+00  0.99999998245E-14  0.12500000000E+03  0.12500000000E+03 0.  0.
    3000001    1    3    3    0    0  0.57941186714E+01  0.17796067127E+02  0.17086348422E+02  0.25361686040E+02  0.10000000000E+01 0. -1.
    1000022    2    1    0    0    0  0.45385811898E+01  0.48884731253E+02  0.37362203008E+02  0.62499997593E+02  0.99999908268E+01 0.  0.
    3000022    2    3    3    0    0 -0.12555374816E+01  0.31088664126E+02  0.20275854586E+02  0.37138311553E+02  0.24998859950E+00 0.  0.
    1000022    2    1    0    0    0 -0.45385811898E+01 -0.48884731253E+02 -0.37362203008E+02  0.62500002407E+02  0.10000020920E+02 0.  0.
    3000022    2    5    5    0    0 -0.18102633741E+00 -0.30478845952E+02 -0.27923860389E+02  0.41337601566E+02  0.25000609071E+00 0.  0.
        -13    1    4    4    0    0 -0.76753932709E+00  0.17424696889E+02  0.11386618978E+02  0.20829673426E+02  0.10500000000E+00 0. -1.
         13    1    4    4    0    0 -0.48799815448E+00  0.13663967237E+02  0.88892356080E+01  0.16308638127E+02  0.10500000000E+00 0.  1.
    3000001    1    5    5    0    0 -0.43575548524E+01 -0.18405885301E+02 -0.94383426191E+01  0.21162400842E+02  0.10000000000E+01 0. -1.
        -13    1    6    6    0    0 -0.12880301315E+00 -0.18856895895E+02 -0.17196506088E+02  0.25521166894E+02  0.10500000000E+00 0. -1.
         13    1    6    6    0    0 -0.52223324254E-01 -0.11621950058E+02 -0.10727354302E+02  0.15816434672E+02  0.10500000000E+00 0.  1.
</event>
<event>
11    0  0.3462209E-009  0.9118800E+02  0.7816531E-02  0.1126479E+00
         25   -1    0    0    0    0  0.00000000000E+00  0.00000000000E+00  0.99999998245E-14  0.12500000000E+03  0.12500000000E+03 0.  0.
    3000001    1    3    3    0    0 -0.57411548509E+01  0.30096262175E+02  0.18451496236E+02  0.35779932494E+02  0.10000000000E+01 0.  1.
    1000022    2    1    0    0    0 -0.42446090587E+01  0.55486971409E+02  0.26635121089E+02  0.62499999493E+02  0.99999779511E+01 0.  0.
    3000022    2    3    3    0    0  0.14965457922E+01  0.25390709233E+02  0.81836248533E+01  0.26720066999E+02  0.25000000042E+00 0.  0.
    1000022    2    1    0    0    0  0.42446090587E+01 -0.55486971409E+02 -0.26635121089E+02  0.62500000507E+02  0.99999842887E+01 0.  0.
    3000022    2    5    5    0    0  0.17969794246E+01 -0.12220644503E+01 -0.69159611521E+00  0.22942075457E+01  0.25001300583E+00 0.  0.
        -13    1    4    4    0    0  0.37962617964E+00  0.68123869080E+01  0.21663872259E+01  0.71593987201E+01  0.10500000000E+00 0. -1.
         13    1    4    4    0    0  0.11169196125E+01  0.18578322325E+02  0.60172376275E+01  0.19560668279E+02  0.10500000000E+00 0.  1.
    3000001    1    5    5    0    0  0.24476296341E+01 -0.54264906958E+02 -0.25943524974E+02  0.60205792961E+02  0.10000000000E+01 0.  1.
        -13    1    6    6    0    0  0.11290080926E+01 -0.69852852492E+00 -0.44614618695E+00  0.14045187053E+01  0.10500000000E+00 0.  1.
         13    1    6    6    0    0  0.66797133199E+00 -0.52353592542E+00 -0.24544992827E+00  0.88968884046E+00  0.10500000000E+00 0. -1.
</event>
<event>
11    0  0.3462209E-009  0.9118800E+02  0.7816531E-02  0.1126479E+00
         25   -1    0    0    0    0  0.00000000000E+00  0.00000000000E+00  0.99999998245E-14  0.12500000000E+03  0.12500000000E+03 0.  0.
    3000001    1    3    3    0    0 -0.34004231837E+02 -0.12471471408E+02  0.89322900653E+01  0.37317706089E+02  0.10000000000E+01 0. -1.
    1000022    2    1    0    0    0 -0.58092189778E+02 -0.19554461883E+02  0.70121594999E+01  0.62499998999E+02  0.10000000062E+02 0.  0.
    3000022    2    3    3    0    0 -0.24087957941E+02 -0.70829904757E+01 -0.19201305654E+01  0.25182292910E+02  0.25000597075E+00 0.  0.
    1000022    2    1    0    0    0  0.58092189778E+02  0.19554461883E+02 -0.70121594999E+01  0.62500001001E+02  0.10000012580E+02 0.  0.
    3000022    2    5    5    0    0  0.50394796190E+02  0.13867860555E+02 -0.40189493350E+01  0.52422967222E+02  0.24999829256E+00 0.  0.
        -13    1    4    4    0    0 -0.65658048764E+01 -0.19006121271E+01 -0.49973240341E+00  0.68544057079E+01  0.10500000000E+00 0.  1.
         13    1    4    4    0    0 -0.17522153064E+02 -0.51823783486E+01 -0.14203981620E+01  0.18327887202E+02  0.10500000000E+00 0. -1.
    3000001    1    5    5    0    0  0.76973935875E+01  0.56866013277E+01 -0.29932101649E+01  0.10077033779E+02  0.10000000000E+01 0.  1.
        -13    1    6    6    0    0  0.19698753252E+02  0.54851808242E+01 -0.15698751907E+01  0.20508623100E+02  0.10500000000E+00 0.  1.
         13    1    6    6    0    0  0.30696042939E+02  0.83826797313E+01 -0.24490741443E+01  0.31914344122E+02  0.10500000000E+00 0. -1.
</event>
<event>
11    0  0.3462209E-009  0.9118800E+02  0.7816531E-02  0.1126479E+00
         25   -1    0    0    0    0  0.00000000000E+00  0.00000000000E+00  0.99999998245E-14  0.12500000000E+03  0.12500000000E+03 0.  0.
    3000001    1    3    3    0    0 -0.19585458270E+01  0.30456293276E+01 -0.73876727489E+00  0.38285162719E+01  0.10000000000E+01 0.  1.
    1000022    2    1    0    0    0 -0.55361600756E+02  0.27080099268E+02  0.28302667545E+01  0.62499996187E+02  0.10000024941E+02 0.  0.
    3000022    2    3    3    0    0 -0.53403054929E+02  0.24034469941E+02  0.35690340294E+01  0.58671479915E+02  0.25006086347E+00 0.  0.
    1000022    2    1    0    0    0  0.55361600756E+02 -0.27080099268E+02 -0.28302667545E+01  0.62500003813E+02  0.10000072600E+02 0.  0.
    3000022    2    5    5    0    0  0.13952916615E+02 -0.95958146148E+01  0.28800215197E+01  0.17179073501E+02  0.25000441268E+00 0.  0.
        -13    1    4    4    0    0 -0.23440628777E+02  0.10504015616E+02  0.16169326439E+01  0.25737577930E+02  0.10500000000E+00 0.  1.
         13    1    4    4    0    0 -0.29962426152E+02  0.13530454325E+02  0.19521013855E+01  0.32933901985E+02  0.10500000000E+00 0. -1.
    3000001    1    5    5    0    0  0.41408684141E+02 -0.17484284653E+02 -0.57102882742E+01  0.45320930312E+02  0.10000000000E+01 0.  1.
        -13    1    6    6    0    0  0.32881178433E+01 -0.22436946587E+01  0.67530661600E+00  0.40389291524E+01  0.10500000000E+00 0. -1.
         13    1    6    6    0    0  0.10664798772E+02 -0.73521199561E+01  0.22047149037E+01  0.13140144349E+02  0.10500000000E+00 0.  1.
</event>
<event>
11    0  0.3462209E-009  0.9118800E+02  0.7816531E-02  0.1126479E+00
         25   -1    0    0    0    0  0.00000000000E+00  0.00000000000E+00  0.99999998245E-14  0.12500000000E+03  0.12500000000E+03 0.  0.
    3000001    1    3    3    0    0 -0.47220072253E+02 -0.11360045064E+02  0.21488616614E+02  0.53118231253E+02  0.10000000000E+01 0. -1.
    1000022    2    1    0    0    0 -0.54299196746E+02 -0.10070284672E+02  0.27503399299E+02  0.62500000435E+02  0.99999840333E+01 0.  0.
    3000022    2    3    3    0    0 -0.70791244933E+01  0.12897603915E+01  0.60147826856E+01  0.93817691823E+01  0.24999355064E+00 0.  0.
    1000022    2    1    0    0    0  0.54299196746E+02  0.10070284672E+02 -0.27503399299E+02  0.62499999565E+02  0.99999785981E+01 0.  0.
    3000022    2    5    5    0    0  0.45767959456E+02  0.12005402449E+02 -0.23034922519E+02  0.52626095816E+02  0.25000929923E+00 0.  0.
        -13    1    4    4    0    0 -0.46718883740E+01  0.86890940916E+00  0.40385366111E+01  0.62371746408E+01  0.10500000000E+00 0. -1.
         13    1    4    4    0    0 -0.24072361193E+01  0.42085098237E+00  0.19762460745E+01  0.31445945415E+01  0.10500000000E+00 0.  1.
    3000001    1    5    5    0    0  0.85312372904E+01 -0.19351177767E+01 -0.44684767803E+01  0.98739037494E+01  0.10000000000E+01 0. -1.
        -13    1    6    6    0    0  0.13037043596E+02  0.34101037348E+01 -0.65157063326E+01  0.14968592694E+02  0.10500000000E+00 0.  1.
         13    1    6    6    0    0  0.32730915860E+02  0.85952987143E+01 -0.16519216186E+02  0.37657503122E+02  0.10500000000E+00 0. -1.
</event>
<event>
11    0  0.3462209E-009  0.9118800E+02  0.7816531E-02  0.1126479E+00
         25   -1    0    0    0    0  0.00000000000E+00  0.00000000000E+00  0.99999998245E-14  0.12500000000E+03  0.12500000000E+03 0.  0.
    3000001    1    3    3    0    0  0.38666281384E+01  0.51582558710E+02  0.18794639825E+02  0.55044978539E+02  0.10000000000E+01 0.  1.
    1000022    2    1    0    0    0  0.73563512410E+01  0.58149470453E+02  0.19255469965E+02  0.62500000974E+02  0.10000009034E+02 0.  0.
    3000022    2    3    3    0    0  0.34897231026E+01  0.65669117423E+01  0.46083014071E+00  0.74550224348E+01  0.24999584224E+00 0.  0.
    1000022    2    1    0    0    0 -0.73563512410E+01 -0.58149470453E+02 -0.19255469965E+02  0.62499999026E+02  0.99999968562E+01 0.  0.
    3000022    2    5    5    0    0 -0.85264821020E+01 -0.50509687847E+02 -0.19204504848E+02  0.54706534973E+02  0.24999774071E+00 0.  0.
        -13    1    4    4    0    0  0.24886707352E+01  0.47179159601E+01  0.29312369365E+00  0.53431413546E+01  0.10500000000E+00 0. -1.
         13    1    4    4    0    0  0.10010523674E+01  0.18489957821E+01  0.16770644706E+00  0.21118810802E+01  0.10500000000E+00 0.  1.
    3000001    1    5    5    0    0  0.11701308609E+01 -0.76397826056E+01 -0.50965116772E-01  0.77934640524E+01  0.10000000000E+01 0.  1.
        -13    1    6    6    0    0 -0.38859770648E+01 -0.23087911323E+02 -0.87071666599E+01  0.24979556506E+02  0.10500000000E+00 0. -1.
         13    1    6    6    0    0 -0.46405050372E+01 -0.27421776524E+02 -0.10497338189E+02  0.29726978467E+02  0.10500000000E+00 0.  1.
</event>
<event>
11    0  0.3462209E-009  0.9118800E+02  0.7816531E-02  0.1126479E+00
         25   -1    0    0    0    0  0.00000000000E+00  0.00000000000E+00  0.99999998245E-14  0.12500000000E+03  0.12500000000E+03 0.  0.
    3000001    1    3    3    0    0 -0.11391869858E+02 -0.16129022411E+02 -0.17446460047E+01  0.19848522677E+02  0.10000000000E+01 0. -1.
    1000022    2    1    0    0    0 -0.30084350585E+02 -0.53342927794E+02  0.74641802682E+01  0.62500000586E+02  0.99999995247E+01 0.  0.
    3000022    2    3    3    0    0 -0.18692480727E+02 -0.37213905383E+02  0.92088262729E+01  0.42651477909E+02  0.24999385582E+00 0.  0.
    1000022    2    1    0    0    0  0.30084350585E+02  0.53342927794E+02 -0.74641802682E+01  0.62499999414E+02  0.99999921987E+01 0.  0.
    3000022    2    5    5    0    0  0.62140663164E+01  0.98007807962E+01  0.24275524684E+01  0.11858559735E+02  0.25000722007E+00 0.  0.
        -13    1    4    4    0    0 -0.11670584496E+02 -0.23346780851E+02  0.57384934283E+01  0.26724820868E+02  0.10500000000E+00 0. -1.
         13    1    4    4    0    0 -0.70218962314E+01 -0.13867124532E+02  0.34703328445E+01  0.15926657041E+02  0.10500000000E+00 0.  1.
    3000001    1    5    5    0    0  0.23870284268E+02  0.43542146997E+02 -0.98917327366E+01  0.50641439679E+02  0.10000000000E+01 0.  1.
        -13    1    6    6    0    0  0.33502076387E+01  0.53458019157E+01  0.12602250785E+01  0.64343361423E+01  0.10500000000E+00 0. -1.
         13    1    6    6    0    0  0.28638586777E+01  0.44549788805E+01  0.11673273899E+01  0.54242235930E+01  0.10500000000E+00 0.  1.
</event>
<event>
11    0  0.3462209E-009  0.9118800E+02  0.7816531E-02  0.1126479E+00
         25   -1    0    0    0    0  0.00000000000E+00  0.00000000000E+00  0.99999998245E-14  0.12500000000E+03  0.12500000000E+03 0.  0.
    3000001    1    3    3    0    0  0.36662288596E+02  0.20337972050E+02 -0.40064661157E+02  0.57999427462E+02  0.10000000000E+01 0. -1.
    1000022    2    1    0    0    0  0.37508916638E+02  0.23784633991E+02 -0.42820815875E+02  0.62499999489E+02  0.10000001121E+02 0.  0.
    3000022    2    3    3    0    0  0.84662804188E+00  0.34466619415E+01 -0.27561547178E+01  0.45005720272E+01  0.25000432709E+00 0.  0.
    1000022    2    1    0    0    0 -0.37508916638E+02 -0.23784633991E+02  0.42820815875E+02  0.62500000511E+02  0.10000007509E+02 0.  0.
    3000022    2    5    5    0    0 -0.33635224870E+01 -0.61336389891E+01  0.79445196933E+01  0.10588329360E+02  0.25002942008E+00 0.  0.
        -13    1    4    4    0    0  0.27426191497E+00  0.13525459200E+01 -0.11048011439E+01  0.17709349596E+01  0.10500000000E+00 0.  1.
         13    1    4    4    0    0  0.57236612691E+00  0.20941160215E+01 -0.16513535739E+01  0.27296370676E+01  0.10500000000E+00 0. -1.
    3000001    1    5    5    0    0 -0.34145394151E+02 -0.17650995002E+02  0.34876296182E+02  0.51911671151E+02  0.10000000000E+01 0. -1.
        -13    1    6    6    0    0 -0.24239005280E+01 -0.43337727460E+01  0.56542267722E+01  0.75258345301E+01  0.10500000000E+00 0.  1.
         13    1    6    6    0    0 -0.93962195900E+00 -0.17998662432E+01  0.22902929211E+01  0.30624948299E+01  0.10500000000E+00 0. -1.
</event>
<event>
11    0  0.3462209E-009  0.9118800E+02  0.7816531E-02  0.1126479E+00
         25   -1    0    0    0    0  0.00000000000E+00  0.00000000000E+00  0.99999998245E-14  0.12500000000E+03  0.12500000000E+03 0.  0.
    3000001    1    3    3    0    0  0.32977181889E+01 -0.67361730351E+01 -0.47106114197E+02  0.47709925248E+02  0.10000000000E+01 0.  1.
    1000022    2    1    0    0    0  0.34312243480E+01 -0.33763310369E+01 -0.61506721624E+02  0.62500001563E+02  0.10000023930E+02 0.  0.
    3000022    2    3    3    0    0  0.13350615914E+00  0.33598419982E+01 -0.14400607426E+02  0.14790076314E+02  0.25000197065E+00 0.  0.
    1000022    2    1    0    0    0 -0.34312243480E+01  0.33763310369E+01  0.61506721624E+02  0.62499998437E+02  0.10000004398E+02 0.  0.
    3000022    2    5    5    0    0  0.12266590284E+01 -0.20306820602E+01  0.50487620700E+01  0.55839825441E+01  0.25000122350E+00 0.  0.
        -13    1    4    4    0    0  0.33734048422E-01  0.21927570788E+01 -0.92991202199E+01  0.95547885092E+01  0.10500000000E+00 0. -1.
         13    1    4    4    0    0  0.99772110721E-01  0.11670849194E+01 -0.51014872066E+01  0.52352878051E+01  0.10500000000E+00 0.  1.
    3000001    1    5    5    0    0 -0.46578833765E+01  0.54070130971E+01  0.56457959554E+02  0.56916015893E+02  0.10000000000E+01 0. -1.
        -13    1    6    6    0    0  0.62258535757E+00 -0.11533192288E+01  0.27354995324E+01  0.30350849185E+01  0.10500000000E+00 0.  1.
         13    1    6    6    0    0  0.60407367086E+00 -0.87736283139E+00  0.23132625377E+01  0.25488976256E+01  0.10500000000E+00 0. -1.
</event>
<event>
11    0  0.3462209E-009  0.9118800E+02  0.7816531E-02  0.1126479E+00
         25   -1    0    0    0    0  0.00000000000E+00  0.00000000000E+00  0.99999998245E-14  0.12500000000E+03  0.12500000000E+03 0.  0.
    3000001    1    3    3    0    0  0.14832742583E+02  0.10116829577E+02  0.37508015469E+02  0.41595813704E+02  0.10000000000E+01 0.  1.
    1000022    2    1    0    0    0  0.17864876020E+02  0.20571443682E+02  0.55352613897E+02  0.62499999504E+02  0.99999991175E+01 0.  0.
    3000022    2    3    3    0    0  0.30321334376E+01  0.10454614104E+02  0.17844598428E+02  0.20904185800E+02  0.25000332075E+00 0.  0.
    1000022    2    1    0    0    0 -0.17864876020E+02 -0.20571443682E+02 -0.55352613897E+02  0.62500000496E+02  0.10000005321E+02 0.  0.
    3000022    2    5    5    0    0 -0.18428137384E+02 -0.19661694614E+02 -0.48418625321E+02  0.55413033281E+02  0.24999385049E+00 0.  0.
        -13    1    4    4    0    0  0.80920738437E+00  0.26821634125E+01  0.46029267253E+01  0.53895061555E+01  0.10500000000E+00 0.  1.
         13    1    4    4    0    0  0.22229260532E+01  0.77724506918E+01  0.13241671702E+02  0.15514679644E+02  0.10500000000E+00 0. -1.
    3000001    1    5    5    0    0  0.56326136366E+00 -0.90974906718E+00 -0.69339885764E+01  0.70869672150E+01  0.10000000000E+01 0. -1.
        -13    1    6    6    0    0 -0.12885974918E+02 -0.13697251949E+02 -0.33726474475E+02  0.38615400633E+02  0.10500000000E+00 0. -1.
         13    1    6    6    0    0 -0.55421624661E+01 -0.59644426659E+01 -0.14692150846E+02  0.16797632648E+02  0.10500000000E+00 0.  1.
</event>
<event>
11    0  0.3462209E-009  0.9118800E+02  0.7816531E-02  0.1126479E+00
         25   -1    0    0    0    0  0.00000000000E+00  0.00000000000E+00  0.99999998245E-14  0.12500000000E+03  0.12500000000E+03 0.  0.
    3000001    1    3    3    0    0  0.11679885591E+02  0.21990252136E+02 -0.44352083866E+02  0.50873355106E+02  0.10000000000E+01 0. -1.
    1000022    2    1    0    0    0  0.10305111358E+02  0.29217964189E+02 -0.53351342471E+02  0.62500003705E+02  0.99999984060E+01 0.  0.
    3000022    2    3    3    0    0 -0.13747742334E+01  0.72277120532E+01 -0.89992586051E+01  0.11626648599E+02  0.24995296485E+00 0.  0.
    1000022    2    1    0    0    0 -0.10305111358E+02 -0.29217964189E+02  0.53351342471E+02  0.62499996295E+02  0.99999520988E+01 0.  0.
    3000022    2    5    5    0    0  0.12494207887E+01 -0.77071688311E+00  0.97784052267E+00  0.17814917125E+01  0.24996762371E+00 0.  0.
        -13    1    4    4    0    0 -0.92264294027E+00  0.45410480871E+01 -0.56441136481E+01  0.73033849410E+01  0.10500000000E+00 0. -1.
         13    1    4    4    0    0 -0.45213129314E+00  0.26866639661E+01 -0.33551449570E+01  0.43232636579E+01  0.10500000000E+00 0.  1.
    3000001    1    5    5    0    0 -0.11554532146E+02 -0.28447247306E+02  0.52373501949E+02  0.60718504583E+02  0.10000000000E+01 0. -1.
        -13    1    6    6    0    0  0.61786248162E+00 -0.36901863819E+00  0.39948741760E+00  0.82978551346E+00  0.10500000000E+00 0.  1.
         13    1    6    6    0    0  0.63155830707E+00 -0.40169824492E+00  0.57835310506E+00  0.95170619906E+00  0.10500000000E+00 0. -1.
</event>
<event>
11    0  0.3462209E-009  0.9118800E+02  0.7816531E-02  0.1126479E+00
         25   -1    0    0    0    0  0.00000000000E+00  0.00000000000E+00  0.99999998245E-14  0.12500000000E+03  0.12500000000E+03 0.  0.
    3000001    1    3    3    0    0 -0.89493178019E+01  0.45219996162E+02  0.17737545953E+02  0.49402012899E+02  0.10000000000E+01 0. -1.
    1000022    2    1    0    0    0 -0.13704380824E+02  0.54294837162E+02  0.25894226672E+02  0.62500001417E+02  0.99999902979E+01 0.  0.
    3000022    2    3    3    0    0 -0.47550630222E+01  0.90748410002E+01  0.81566807185E+01  0.13097988518E+02  0.24999871195E+00 0.  0.
    1000022    2    1    0    0    0  0.13704380824E+02 -0.54294837162E+02 -0.25894226672E+02  0.62499998583E+02  0.99999725855E+01 0.  0.
    3000022    2    5    5    0    0  0.15139976461E+02 -0.50013912880E+02 -0.23965505231E+02  0.57489288659E+02  0.25000160759E+00 0.  0.
        -13    1    4    4    0    0 -0.12932135457E+01  0.24268190110E+01  0.22283751141E+01  0.35409790223E+01  0.10500000000E+00 0.  1.
         13    1    4    4    0    0 -0.34618494764E+01  0.66480219891E+01  0.59283056044E+01  0.95570094959E+01  0.10500000000E+00 0. -1.
    3000001    1    5    5    0    0 -0.14355956366E+01 -0.42809242821E+01 -0.19287214412E+01  0.50107099236E+01  0.10000000000E+01 0.  1.
        -13    1    6    6    0    0  0.80262381192E+01 -0.26714635061E+02 -0.12830332351E+02  0.30703756742E+02  0.10500000000E+00 0. -1.
         13    1    6    6    0    0  0.71137383415E+01 -0.23299277819E+02 -0.11135172879E+02  0.26785531918E+02  0.10500000000E+00 0.  1.
</event>
<event>
11    0  0.3462209E-009  0.9118800E+02  0.7816531E-02  0.1126479E+00
         25   -1    0    0    0    0  0.00000000000E+00  0.00000000000E+00  0.99999998245E-14  0.12500000000E+03  0.12500000000E+03 0.  0.
    3000001    1    3    3    0    0  0.55345300554E+02 -0.57799843835E+01  0.19824567531E+02  0.59080656654E+02  0.10000000000E+01 0. -1.
    1000022    2    1    0    0    0  0.57643181564E+02 -0.40119034977E+01  0.21619847677E+02  0.62499998483E+02  0.10000012320E+02 0.  0.
    3000022    2    3    3    0    0  0.22978810094E+01  0.17680808858E+01  0.17952801456E+01  0.34193418290E+01  0.25000118025E+00 0.  0.
    1000022    2    1    0    0    0 -0.57643181564E+02  0.40119034977E+01 -0.21619847677E+02  0.62500001517E+02  0.10000031276E+02 0.  0.
    3000022    2    5    5    0    0 -0.74598150906E+01  0.19553105980E+01 -0.63564261941E+01  0.99969360795E+01  0.24999258823E+00 0.  0.
        -13    1    4    4    0    0  0.12407558200E+01  0.10071651654E+01  0.10496681842E+01  0.19148589954E+01  0.10500000000E+00 0.  1.
         13    1    4    4    0    0  0.10571251894E+01  0.76091572043E+00  0.74561196142E+00  0.15044828336E+01  0.10500000000E+00 0. -1.
    3000001    1    5    5    0    0 -0.50183366473E+02  0.20565928997E+01 -0.15263421483E+02  0.52503065437E+02  0.10000000000E+01 0. -1.
        -13    1    6    6    0    0 -0.30256659924E+01  0.73315290082E+00 -0.25995578147E+01  0.40572026947E+01  0.10500000000E+00 0. -1.
         13    1    6    6    0    0 -0.44341490982E+01  0.12221576971E+01 -0.37568683794E+01  0.59397333848E+01  0.10500000000E+00 0.  1.
</event>
<event>
11    0  0.3462209E-009  0.9118800E+02  0.7816531E-02  0.1126479E+00
         25   -1    0    0    0    0  0.00000000000E+00  0.00000000000E+00  0.99999998245E-14  0.12500000000E+03  0.12500000000E+03 0.  0.
    3000001    1    3    3    0    0  0.20610754220E+01 -0.34683389144E+01  0.36532608008E+02  0.36768313187E+02  0.10000000000E+01 0. -1.
    1000022    2    1    0    0    0  0.50606594511E+01 -0.13741868121E+02  0.59931633133E+02  0.62500001020E+02  0.10000013201E+02 0.  0.
    3000022    2    3    3    0    0  0.29995840291E+01 -0.10273529207E+02  0.23399025124E+02  0.25731687833E+02  0.24995051952E+00 0.  0.
    1000022    2    1    0    0    0 -0.50606594511E+01  0.13741868121E+02 -0.59931633133E+02  0.62499998980E+02  0.10000000448E+02 0.  0.
    3000022    2    5    5    0    0 -0.20483131932E+01 -0.11472516940E+01 -0.11185134457E+02  0.11431601198E+02  0.24999947671E+00 0.  0.
        -13    1    4    4    0    0  0.13370451292E+01 -0.43560654154E+01  0.99184451411E+01  0.10915565702E+02  0.10500000000E+00 0.  1.
         13    1    4    4    0    0  0.16625388999E+01 -0.59174637915E+01  0.13480579983E+02  0.14816122131E+02  0.10500000000E+00 0. -1.
    3000001    1    5    5    0    0 -0.30123462579E+01  0.14889119815E+02 -0.48746498676E+02  0.51068397782E+02  0.10000000000E+01 0. -1.
        -13    1    6    6    0    0 -0.78733262137E+00 -0.46607506142E+00 -0.46525911488E+01  0.47428628504E+01  0.10500000000E+00 0. -1.
         13    1    6    6    0    0 -0.12609805719E+01 -0.68117663261E+00 -0.65325433083E+01  0.66887383475E+01  0.10500000000E+00 0.  1.
</event>
<event>
11    0  0.3462209E-009  0.9118800E+02  0.7816531E-02  0.1126479E+00
         25   -1    0    0    0    0  0.00000000000E+00  0.00000000000E+00  0.99999998245E-14  0.12500000000E+03  0.12500000000E+03 0.  0.
    3000001    1    3    3    0    0 -0.11138761999E+02  0.21576244121E+02  0.36162502696E+01  0.24569973449E+02  0.10000000000E+01 0. -1.
    1000022    2    1    0    0    0 -0.31183546784E+02  0.49416653408E+02  0.19794716712E+02  0.62500001963E+02  0.10000010578E+02 0.  0.
    3000022    2    3    3    0    0 -0.20044784785E+02  0.27840409287E+02  0.16178466442E+02  0.37930028514E+02  0.25000065777E+00 0.  0.
    1000022    2    1    0    0    0  0.31183546784E+02 -0.49416653408E+02 -0.19794716712E+02  0.62499998037E+02  0.99999860413E+01 0.  0.
    3000022    2    5    5    0    0  0.16950981488E+02 -0.24593261657E+02 -0.50473393128E+01  0.30293603748E+02  0.25000314825E+00 0.  0.
        -13    1    4    4    0    0 -0.83831301547E+01  0.11649734140E+02  0.66972505973E+01  0.15838477430E+02  0.10500000000E+00 0.  1.
         13    1    4    4    0    0 -0.11661654630E+02  0.16190675146E+02  0.94812158449E+01  0.22091551084E+02  0.10500000000E+00 0. -1.
    3000001    1    5    5    0    0  0.14232565296E+02 -0.24823391751E+02 -0.14747377399E+02  0.32206394289E+02  0.10000000000E+01 0.  1.
        -13    1    6    6    0    0  0.89645997714E+01 -0.12919046836E+02 -0.27037217778E+01  0.15955781293E+02  0.10500000000E+00 0. -1.
         13    1    6    6    0    0  0.79863817166E+01 -0.11674214821E+02 -0.23436175350E+01  0.14337822455E+02  0.10500000000E+00 0.  1.
</event>
<event>
11    0  0.3462209E-009  0.9118800E+02  0.7816531E-02  0.1126479E+00
         25   -1    0    0    0    0  0.00000000000E+00  0.00000000000E+00  0.99999998245E-14  0.12500000000E+03  0.12500000000E+03 0.  0.
    3000001    1    3    3    0    0  0.45828447202E+02  0.34870758130E+02 -0.13967071024E+02  0.59264621980E+02  0.10000000000E+01 0. -1.
    1000022    2    1    0    0    0  0.46563247417E+02  0.37098115708E+02 -0.16181592183E+02  0.62499997787E+02  0.99999799363E+01 0.  0.
    3000022    2    3    3    0    0  0.73480021542E+00  0.22273575776E+01 -0.22145211596E+01  0.32353758069E+01  0.24999902150E+00 0.  0.
    1000022    2    1    0    0    0 -0.46563247417E+02 -0.37098115708E+02  0.16181592183E+02  0.62500002213E+02  0.10000007596E+02 0.  0.
    3000022    2    5    5    0    0 -0.15164573562E+02 -0.14251000132E+02  0.11315727780E+01  0.20842223898E+02  0.25008798471E+00 0.  0.
        -13    1    4    4    0    0  0.21955191522E+00  0.73122234380E+00 -0.79061005197E+00  0.11040735545E+01  0.10500000000E+00 0. -1.
         13    1    4    4    0    0  0.51524830020E+00  0.14961352338E+01 -0.14239111076E+01  0.21313022524E+01  0.10500000000E+00 0.  1.
    3000001    1    5    5    0    0 -0.31398673855E+02 -0.22847115576E+02  0.15050019405E+02  0.41657778315E+02  0.10000000000E+01 0. -1.
        -13    1    6    6    0    0 -0.94995068513E+01 -0.89258143261E+01  0.76895683549E+00  0.13058066910E+02  0.10500000000E+00 0.  1.
         13    1    6    6    0    0 -0.56650667105E+01 -0.53251858055E+01  0.36261594256E+00  0.77841569884E+01  0.10500000000E+00 0. -1.
</event>
<event>
11    0  0.3462209E-009  0.9118800E+02  0.7816531E-02  0.1126479E+00
         25   -1    0    0    0    0  0.00000000000E+00  0.00000000000E+00  0.99999998245E-14  0.12500000000E+03  0.12500000000E+03 0.  0.
    3000001    1    3    3    0    0  0.11771665120E+02  0.39633759927E+01  0.70093238644E+01  0.14297239943E+02  0.10000000000E+01 0.  1.
    1000022    2    1    0    0    0  0.48292988772E+02  0.32135334956E+02  0.21008509698E+02  0.62499999857E+02  0.99999992544E+01 0.  0.
    3000022    2    3    3    0    0  0.36521323652E+02  0.28171958963E+02  0.13999185833E+02  0.48202759913E+02  0.25001230380E+00 0.  0.
    1000022    2    1    0    0    0 -0.48292988772E+02 -0.32135334956E+02 -0.21008509698E+02  0.62500000143E+02  0.10000001046E+02 0.  0.
    3000022    2    5    5    0    0 -0.73848862484E+01 -0.68883701588E+01 -0.74217449459E+01  0.12535189927E+02  0.25000022307E+00 0.  0.
        -13    1    4    4    0    0  0.12040972369E+02  0.92633505318E+01  0.45598170398E+01  0.15861829501E+02  0.10500000000E+00 0.  1.
         13    1    4    4    0    0  0.24480351283E+02  0.18908608431E+02  0.94393687936E+01  0.32340930413E+02  0.10500000000E+00 0. -1.
    3000001    1    5    5    0    0 -0.40908102524E+02 -0.25246964797E+02 -0.13586764752E+02  0.49964810217E+02  0.10000000000E+01 0.  1.
        -13    1    6    6    0    0 -0.24327444838E+01 -0.23117734169E+01 -0.25207063860E+01  0.41985149445E+01  0.10500000000E+00 0. -1.
         13    1    6    6    0    0 -0.49521417646E+01 -0.45765967420E+01 -0.49010385598E+01  0.83366749823E+01  0.10500000000E+00 0.  1.
</event>
<event>
11    0  0.3462209E-009  0.9118800E+02  0.7816531E-02  0.1126479E+00
         25   -1    0    0    0    0  0.00000000000E+00  0.00000000000E+00  0.99999998245E-14  0.12500000000E+03  0.12500000000E+03 0.  0.
    3000001    1    3    3    0    0  0.46444496809E+02 -0.23609240360E+02 -0.23678572105E+02  0.57237769795E+02  0.10000000000E+01 0. -1.
    1000022    2    1    0    0    0  0.48395439215E+02 -0.27561976117E+02 -0.26541834102E+02  0.62499999980E+02  0.99999987835E+01 0.  0.
    3000022    2    3    3    0    0  0.19509424064E+01 -0.39527357572E+01 -0.28632619968E+01  0.52622301846E+01  0.25000202751E+00 0.  0.
    1000022    2    1    0    0    0 -0.48395439215E+02  0.27561976117E+02  0.26541834102E+02  0.62500000020E+02  0.99999990393E+01 0.  0.
    3000022    2    5    5    0    0 -0.43879988727E+02  0.21305226228E+02  0.22250033114E+02  0.53614294196E+02  0.24998651297E+00 0.  0.
        -13    1    4    4    0    0  0.44324339065E+00 -0.92598207430E+00 -0.67090103897E+00  0.12308698994E+01  0.10500000000E+00 0. -1.
         13    1    4    4    0    0  0.15076990158E+01 -0.30267536829E+01 -0.21923609578E+01  0.40313602851E+01  0.10500000000E+00 0.  1.
    3000001    1    5    5    0    0 -0.45154504887E+01  0.62567498891E+01  0.42918009870E+01  0.88857058247E+01  0.10000000000E+01 0. -1.
        -13    1    6    6    0    0 -0.28307373177E+02  0.13767394892E+02  0.14299628294E+02  0.34573673982E+02  0.10500000000E+00 0. -1.
         13    1    6    6    0    0 -0.15572615550E+02  0.75378313360E+01  0.79504048208E+01  0.19040620214E+02  0.10500000000E+00 0.  1.
</event>
<event>
11    0  0.3462209E-009  0.9118800E+02  0.7816531E-02  0.1126479E+00
         25   -1    0    0    0    0  0.00000000000E+00  0.00000000000E+00  0.99999998245E-14  0.12500000000E+03  0.12500000000E+03 0.  0.
    3000001    1    3    3    0    0 -0.68301135877E+01  0.81669255942E+01  0.39650503136E+01  0.11404856390E+02  0.10000000000E+01 0. -1.
    1000022    2    1    0    0    0 -0.33906604840E+02  0.51476024518E+02  0.26097955976E+01  0.62499999363E+02  0.99999967653E+01 0.  0.
    3000022    2    3    3    0    0 -0.27076491252E+02  0.43309098924E+02 -0.13552547160E+01  0.51095142973E+02  0.24998387144E+00 0.  0.
    1000022    2    1    0    0    0  0.33906604840E+02 -0.51476024518E+02 -0.26097955976E+01  0.62500000637E+02  0.10000004730E+02 0.  0.
    3000022    2    5    5    0    0  0.12128471919E+02 -0.23558889234E+02 -0.51247133799E+01  0.26989743986E+02  0.25000029335E+00 0.  0.
        -13    1    4    4    0    0 -0.11816441810E+02  0.18815395865E+02 -0.63748952965E+00  0.22227569290E+02  0.10500000000E+00 0.  1.
         13    1    4    4    0    0 -0.15260049443E+02  0.24493703059E+02 -0.71776518639E+00  0.28867573684E+02  0.10500000000E+00 0. -1.
    3000001    1    5    5    0    0  0.21778132921E+02 -0.27917135284E+02  0.25149177823E+01  0.35510256651E+02  0.10000000000E+01 0.  1.
        -13    1    6    6    0    0  0.47845757677E+01 -0.92021877849E+01 -0.19592156599E+01  0.10555660866E+02  0.10500000000E+00 0.  1.
         13    1    6    6    0    0  0.73438961512E+01 -0.14356701449E+02 -0.31654977199E+01  0.16434083120E+02  0.10500000000E+00 0. -1.
</event>
<event>
11    0  0.3462209E-009  0.9118800E+02  0.7816531E-02  0.1126479E+00
         25   -1    0    0    0    0  0.00000000000E+00  0.00000000000E+00  0.99999998245E-14  0.12500000000E+03  0.12500000000E+03 0.  0.
    3000001    1    3    3    0    0 -0.48272352242E+00  0.23676212491E+01 -0.40459496138E+01  0.48175056466E+01  0.10000000000E+01 0. -1.
    1000022    2    1    0    0    0 -0.35856019048E+02  0.19450288465E+02 -0.46284795037E+02  0.62499999453E+02  0.99999928323E+01 0.  0.
    3000022    2    3    3    0    0 -0.35373295525E+02  0.17082667216E+02 -0.42238845423E+02  0.57682493806E+02  0.24994692769E+00 0.  0.
    1000022    2    1    0    0    0  0.35856019048E+02 -0.19450288465E+02  0.46284795037E+02  0.62500000547E+02  0.99999996739E+01 0.  0.
    3000022    2    5    5    0    0  0.32297722954E+02 -0.17847221718E+02  0.36433875534E+02  0.51857072889E+02  0.24998227489E+00 0.  0.
        -13    1    4    4    0    0 -0.11173648920E+02  0.54362516300E+01 -0.13311117466E+02  0.18209891135E+02  0.10500000000E+00 0.  1.
         13    1    4    4    0    0 -0.24199646605E+02  0.11646415586E+02 -0.28927727957E+02  0.39472602671E+02  0.10500000000E+00 0. -1.
    3000001    1    5    5    0    0  0.35582960935E+01 -0.16030667475E+01  0.98509195026E+01  0.10642927658E+02  0.10000000000E+01 0. -1.
        -13    1    6    6    0    0  0.23007310699E+02 -0.12749977088E+02  0.26009183296E+02  0.36991713965E+02  0.10500000000E+00 0. -1.
         13    1    6    6    0    0  0.92904122553E+01 -0.50972446301E+01  0.10424692238E+02  0.14865358925E+02  0.10500000000E+00 0.  1.
</event>
<event>
11    0  0.3462209E-009  0.9118800E+02  0.7816531E-02  0.1126479E+00
         25   -1    0    0    0    0  0.00000000000E+00  0.00000000000E+00  0.99999998245E-14  0.12500000000E+03  0.12500000000E+03 0.  0.
    3000001    1    3    3    0    0  0.19923297884E+02  0.27271803882E+02  0.15378468090E+02  0.37123932528E+02  0.10000000000E+01 0.  1.
    1000022    2    1    0    0    0  0.37919889240E+02  0.39481609068E+02  0.28452319793E+02  0.62499998850E+02  0.99999950026E+01 0.  0.
    3000022    2    3    3    0    0  0.17996591357E+02  0.12209805186E+02  0.13073851703E+02  0.25376066322E+02  0.25000098411E+00 0.  0.
    1000022    2    1    0    0    0 -0.37919889240E+02 -0.39481609068E+02 -0.28452319793E+02  0.62500001150E+02  0.10000009379E+02 0.  0.
    3000022    2    5    5    0    0 -0.58346336735E+01 -0.17734326897E+01 -0.36981367796E+01  0.71362967292E+01  0.25000351661E+00 0.  0.
        -13    1    4    4    0    0  0.78077115575E+01  0.53418050972E+01  0.56236033101E+01  0.11005961142E+02  0.10500000000E+00 0.  1.
         13    1    4    4    0    0  0.10188879799E+02  0.68680000885E+01  0.74502483930E+01  0.14370105181E+02  0.10500000000E+00 0. -1.
    3000001    1    5    5    0    0 -0.32085255567E+02 -0.37708176378E+02 -0.24754183014E+02  0.55363704421E+02  0.10000000000E+01 0. -1.
        -13    1    6    6    0    0 -0.35029484904E+01 -0.10499215163E+01 -0.21451391342E+01  0.42409468544E+01  0.10500000000E+00 0.  1.
         13    1    6    6    0    0 -0.23316851831E+01 -0.72351117347E+00 -0.15529976453E+01  0.28953498748E+01  0.10500000000E+00 0. -1.
</event>
<event>
11    0  0.3462209E-009  0.9118800E+02  0.7816531E-02  0.1126479E+00
         25   -1    0    0    0    0  0.00000000000E+00  0.00000000000E+00  0.99999998245E-14  0.12500000000E+03  0.12500000000E+03 0.  0.
    3000001    1    3    3    0    0 -0.12599679659E+01 -0.80402245232E+01 -0.79576501203E+01  0.11426150931E+02  0.10000000000E+01 0.  1.
    1000022    2    1    0    0    0  0.13090214810E+02 -0.39600286381E+02 -0.45461127265E+02  0.62500004796E+02  0.10000005101E+02 0.  0.
    3000022    2    3    3    0    0  0.14350182776E+02 -0.31560061858E+02 -0.37503477144E+02  0.51073853865E+02  0.25000097372E+00 0.  0.
    1000022    2    1    0    0    0 -0.13090214810E+02  0.39600286381E+02  0.45461127265E+02  0.62499995204E+02  0.99999451547E+01 0.  0.
    3000022    2    5    5    0    0 -0.12602137597E+02  0.23460178261E+02  0.30105023688E+02  0.40194138876E+02  0.25002526789E+00 0.  0.
        -13    1    4    4    0    0  0.53732474783E+01 -0.11788947107E+02 -0.14101786452E+02  0.19149999177E+02  0.10500000000E+00 0.  1.
         13    1    4    4    0    0  0.89769352978E+01 -0.19771114751E+02 -0.23401690693E+02  0.31923854688E+02  0.10500000000E+00 0. -1.
    3000001    1    5    5    0    0 -0.48807721313E+00  0.16140108120E+02  0.15356103577E+02  0.22305856329E+02  0.10000000000E+01 0. -1.
        -13    1    6    6    0    0 -0.55653082777E+01  0.10367138261E+02  0.13401638268E+02  0.17834380988E+02  0.10500000000E+00 0. -1.
         13    1    6    6    0    0 -0.70368293193E+01  0.13093040000E+02  0.16703385420E+02  0.22359757888E+02  0.10500000000E+00 0.  1.
</event>
<event>
11    0  0.3462209E-009  0.9118800E+02  0.7816531E-02  0.1126479E+00
         25   -1    0    0    0    0  0.00000000000E+00  0.00000000000E+00  0.99999998245E-14  0.12500000000E+03  0.12500000000E+03 0.  0.
    3000001    1    3    3    0    0  0.31062124427E+02 -0.24463914634E+02  0.27252742384E+02  0.48031767202E+02  0.10000000000E+01 0.  1.
    1000022    2    1    0    0    0  0.40530949849E+02 -0.26965271272E+02  0.37899420548E+02  0.62499997806E+02  0.99999948726E+01 0.  0.
    3000022    2    3    3    0    0  0.94688254220E+01 -0.25013566380E+01  0.10646678165E+02  0.14468230604E+02  0.25000193693E+00 0.  0.
    1000022    2    1    0    0    0 -0.40530949849E+02  0.26965271272E+02 -0.37899420548E+02  0.62500002194E+02  0.10000022300E+02 0.  0.
    3000022    2    5    5    0    0 -0.29891355481E+02  0.14880613308E+02 -0.23053756083E+02  0.40576642967E+02  0.24999997458E+00 0.  0.
        -13    1    4    4    0    0  0.25677574878E+01 -0.64809658228E+00  0.28489160459E+01  0.38911123516E+01  0.10500000000E+00 0.  1.
         13    1    4    4    0    0  0.69010679342E+01 -0.18532600557E+01  0.77977621186E+01  0.10577118252E+02  0.10500000000E+00 0. -1.
    3000001    1    5    5    0    0 -0.10639594367E+02  0.12084657964E+02 -0.14845664465E+02  0.21923359227E+02  0.10000000000E+01 0. -1.
        -13    1    6    6    0    0 -0.15615357743E+02  0.77006895784E+01 -0.11999806997E+02  0.21145836715E+02  0.10500000000E+00 0. -1.
         13    1    6    6    0    0 -0.14275997738E+02  0.71799237292E+01 -0.11053949086E+02  0.19430806251E+02  0.10500000000E+00 0.  1.
</event>
<event>
11    0  0.3462209E-009  0.9118800E+02  0.7816531E-02  0.1126479E+00
         25   -1    0    0    0    0  0.00000000000E+00  0.00000000000E+00  0.99999998245E-14  0.12500000000E+03  0.12500000000E+03 0.  0.
    3000001    1    3    3    0    0 -0.45808990990E+01  0.42114533817E+01  0.58082641613E+01  0.85707005962E+01  0.10000000000E+01 0.  1.
    1000022    2    1    0    0    0 -0.38197289615E+02  0.76912762603E+01  0.47833690045E+02  0.62500004308E+02  0.99999985371E+01 0.  0.
    3000022    2    3    3    0    0 -0.33616390516E+02  0.34798228786E+01  0.42025425883E+02  0.53929303712E+02  0.24999911290E+00 0.  0.
    1000022    2    1    0    0    0  0.38197289615E+02 -0.76912762603E+01 -0.47833690045E+02  0.62499995692E+02  0.99999446865E+01 0.  0.
    3000022    2    5    5    0    0  0.36725692906E+02 -0.50970285801E+01 -0.43906795535E+02  0.57468473219E+02  0.25000047682E+00 0.  0.
        -13    1    4    4    0    0 -0.18040458025E+02  0.19296216069E+01  0.22603106716E+02  0.28984358256E+02  0.10500000000E+00 0.  1.
         13    1    4    4    0    0 -0.15575932491E+02  0.15502012718E+01  0.19422319167E+02  0.24944945456E+02  0.10500000000E+00 0. -1.
    3000001    1    5    5    0    0  0.14715967091E+01 -0.25942476802E+01 -0.39268945101E+01  0.50315224728E+01  0.10000000000E+01 0. -1.
        -13    1    6    6    0    0  0.24542168618E+02 -0.34065907466E+01 -0.29423184066E+02  0.38466318859E+02  0.10500000000E+00 0. -1.
         13    1    6    6    0    0  0.12183524288E+02 -0.16904378335E+01 -0.14483611468E+02  0.19002154360E+02  0.10500000000E+00 0.  1.
</event>
<event>
11    0  0.3462209E-009  0.9118800E+02  0.7816531E-02  0.1126479E+00
         25   -1    0    0    0    0  0.00000000000E+00  0.00000000000E+00  0.99999998245E-14  0.12500000000E+03  0.12500000000E+03 0.  0.
    3000001    1    3    3    0    0  0.14118120162E+02 -0.17512277305E+02  0.97048360308E+00  0.22537591082E+02  0.10000000000E+01 0. -1.
    1000022    2    1    0    0    0  0.27763378537E+02 -0.54947326665E+02  0.40292898378E+01  0.62500008320E+02  0.10000098402E+02 0.  0.
    3000022    2    3    3    0    0  0.13645258374E+02 -0.37435049359E+02  0.30588062348E+01  0.39962417239E+02  0.24999864809E+00 0.  0.
    1000022    2    1    0    0    0 -0.27763378537E+02  0.54947326665E+02 -0.40292898378E+01  0.62499991680E+02  0.99999943993E+01 0.  0.
    3000022    2    5    5    0    0 -0.61186406563E+01  0.10292232895E+02 -0.46883854221E+01  0.12861231779E+02  0.25000711711E+00 0.  0.
        -13    1    4    4    0    0  0.51669926641E+01 -0.14351504370E+02  0.11811779457E+01  0.15299336496E+02  0.10500000000E+00 0.  1.
         13    1    4    4    0    0  0.84782657103E+01 -0.23083544989E+02  0.18776282891E+01  0.24663080742E+02  0.10500000000E+00 0. -1.
    3000001    1    5    5    0    0 -0.21644737881E+02  0.44655093770E+02  0.65909558432E+00  0.49638759901E+02  0.10000000000E+01 0.  1.
        -13    1    6    6    0    0 -0.34530473697E+01  0.58448100940E+01 -0.25902950731E+01  0.72667733374E+01  0.10500000000E+00 0. -1.
         13    1    6    6    0    0 -0.26655932866E+01  0.44474228011E+01 -0.20980903491E+01  0.55944584416E+01  0.10500000000E+00 0.  1.
</event>
<event>
11    0  0.3462209E-009  0.9118800E+02  0.7816531E-02  0.1126479E+00
         25   -1    0    0    0    0  0.00000000000E+00  0.00000000000E+00  0.99999998245E-14  0.12500000000E+03  0.12500000000E+03 0.  0.
    3000001    1    3    3    0    0  0.11642169035E+02  0.22491018563E+01 -0.17529673365E+02  0.21186977304E+02  0.10000000000E+01 0. -1.
    1000022    2    1    0    0    0  0.26528051828E+02  0.17899863240E+02 -0.52745684856E+02  0.62499999574E+02  0.10000001902E+02 0.  0.
    3000022    2    3    3    0    0  0.14885882792E+02  0.15650761384E+02 -0.35216011491E+02  0.41313022270E+02  0.25001066190E+00 0.  0.
    1000022    2    1    0    0    0 -0.26528051828E+02 -0.17899863240E+02  0.52745684856E+02  0.62500000426E+02  0.10000007224E+02 0.  0.
    3000022    2    5    5    0    0 -0.41265188104E+01 -0.74556970714E+01  0.10281539886E+02  0.13356202276E+02  0.25000101478E+00 0.  0.
        -13    1    4    4    0    0  0.59515425145E+01  0.62668970162E+01 -0.14211475572E+02  0.16633457832E+02  0.10500000000E+00 0. -1.
         13    1    4    4    0    0  0.89343402780E+01  0.93838643675E+01 -0.21004535919E+02  0.24679564438E+02  0.10500000000E+00 0.  1.
    3000001    1    5    5    0    0 -0.22401533017E+02 -0.10444166169E+02  0.42464144970E+02  0.49143798149E+02  0.10000000000E+01 0. -1.
        -13    1    6    6    0    0 -0.24224910034E+01 -0.43104878925E+01  0.58768836200E+01  0.76809865653E+01  0.10500000000E+00 0.  1.
         13    1    6    6    0    0 -0.17040278070E+01 -0.31452091789E+01  0.44046562660E+01  0.56752157112E+01  0.10500000000E+00 0. -1.
</event>
<event>
11    0  0.3462209E-009  0.9118800E+02  0.7816531E-02  0.1126479E+00
         25   -1    0    0    0    0  0.00000000000E+00  0.00000000000E+00  0.99999998245E-14  0.12500000000E+03  0.12500000000E+03 0.  0.
    3000001    1    3    3    0    0 -0.20420643342E+02  0.44429270816E+02 -0.24482314817E+02  0.54693203587E+02  0.10000000000E+01 0. -1.
    1000022    2    1    0    0    0 -0.25978135110E+02  0.48164470749E+02 -0.28488072761E+02  0.62499999434E+02  0.99999946642E+01 0.  0.
    3000022    2    3    3    0    0 -0.55574917678E+01  0.37351999328E+01 -0.40057579430E+01  0.78067958469E+01  0.25006281210E+00 0.  0.
    1000022    2    1    0    0    0  0.25978135110E+02 -0.48164470749E+02  0.28488072761E+02  0.62500000566E+02  0.10000001740E+02 0.  0.
    3000022    2    5    5    0    0  0.16295874496E+02 -0.34103602122E+02  0.24159908734E+02  0.44859501679E+02  0.24999513964E+00 0.  0.
        -13    1    4    4    0    0 -0.31246972429E+01  0.21219627790E+01 -0.23330629605E+01  0.44407957252E+01  0.10500000000E+00 0.  1.
         13    1    4    4    0    0 -0.24327945249E+01  0.16132371538E+01 -0.16726949825E+01  0.33660001217E+01  0.10500000000E+00 0. -1.
    3000001    1    5    5    0    0  0.96822606133E+01 -0.14060868627E+02  0.43281640266E+01  0.17640498887E+02  0.10000000000E+01 0.  1.
        -13    1    6    6    0    0  0.72011606261E+01 -0.15179558628E+02  0.10794864450E+02  0.19970374007E+02  0.10500000000E+00 0. -1.
         13    1    6    6    0    0  0.90947138704E+01 -0.18924043495E+02  0.13365044284E+02  0.24889127672E+02  0.10500000000E+00 0.  1.
</event>
<event>
11    0  0.3462209E-009  0.9118800E+02  0.7816531E-02  0.1126479E+00
         25   -1    0    0    0    0  0.00000000000E+00  0.00000000000E+00  0.99999998245E-14  0.12500000000E+03  0.12500000000E+03 0.  0.
    3000001    1    3    3    0    0  0.45539765301E+01 -0.67072916948E+01  0.66439792544E+01  0.10529431345E+02  0.10000000000E+01 0.  1.
    1000022    2    1    0    0    0  0.17297514458E+02 -0.26275775310E+02  0.53071929064E+02  0.62500003154E+02  0.10000018253E+02 0.  0.
    3000022    2    3    3    0    0  0.12743537928E+02 -0.19568483615E+02  0.46427949810E+02  0.51970571809E+02  0.25000134365E+00 0.  0.
    1000022    2    1    0    0    0 -0.17297514458E+02  0.26275775310E+02 -0.53071929064E+02  0.62499996846E+02  0.99999788323E+01 0.  0.
    3000022    2    5    5    0    0 -0.18400761039E+02  0.23576607099E+02 -0.47480163796E+02  0.56114818629E+02  0.25001321332E+00 0.  0.
        -13    1    4    4    0    0  0.89214237845E+01 -0.13781834032E+02  0.32639711843E+02  0.36536181599E+02  0.10500000000E+00 0. -1.
         13    1    4    4    0    0  0.38221141435E+01 -0.57866495824E+01  0.13788237967E+02  0.15434390210E+02  0.10500000000E+00 0.  1.
    3000001    1    5    5    0    0  0.11032465807E+01  0.26991682110E+01 -0.55917652687E+01  0.63851782175E+01  0.10000000000E+01 0.  1.
        -13    1    6    6    0    0 -0.11623451000E+02  0.14962919700E+02 -0.30003714331E+02  0.35485595356E+02  0.10500000000E+00 0.  1.
         13    1    6    6    0    0 -0.67773100386E+01  0.86136873987E+01 -0.17476449465E+02  0.20629223273E+02  0.10500000000E+00 0. -1.
</event>
<event>
11    0  0.3462209E-009  0.9118800E+02  0.7816531E-02  0.1126479E+00
         25   -1    0    0    0    0  0.00000000000E+00  0.00000000000E+00  0.99999998245E-14  0.12500000000E+03  0.12500000000E+03 0.  0.
    3000001    1    3    3    0    0  0.14285137314E+02  0.46352008855E+02 -0.84109297849E+01  0.49237359929E+02  0.10000000000E+01 0. -1.
    1000022    2    1    0    0    0  0.14204533800E+02  0.59575751475E+02 -0.74304470871E+01  0.62500003575E+02  0.99999979364E+01 0.  0.
    3000022    2    3    3    0    0 -0.80603514689E-01  0.13223742620E+02  0.98048269784E+00  0.13262643646E+02  0.25000869711E+00 0.  0.
    1000022    2    1    0    0    0 -0.14204533800E+02 -0.59575751475E+02  0.74304470871E+01  0.62499996425E+02  0.99999532491E+01 0.  0.
    3000022    2    5    5    0    0 -0.95864866330E+01 -0.50613699333E+02  0.88526270448E+01  0.52269290973E+02  0.24997407927E+00 0.  0.
        -13    1    4    4    0    0  0.24762230011E-01  0.60322367038E+01  0.47368619923E+00  0.60517680420E+01  0.10500000000E+00 0.  1.
         13    1    4    4    0    0 -0.10536574470E+00  0.71915059159E+01  0.50679649861E+00  0.72108756036E+01  0.10500000000E+00 0. -1.
    3000001    1    5    5    0    0 -0.46180471668E+01 -0.89620521411E+01 -0.14221799577E+01  0.10230705452E+02  0.10000000000E+01 0. -1.
        -13    1    6    6    0    0 -0.53953906936E+01 -0.28404775720E+02  0.49034011495E+01  0.29325686561E+02  0.10500000000E+00 0.  1.
         13    1    6    6    0    0 -0.41910959394E+01 -0.22208923614E+02  0.39492258953E+01  0.22943604412E+02  0.10500000000E+00 0. -1.
</event>
<event>
11    0  0.3462209E-009  0.9118800E+02  0.7816531E-02  0.1126479E+00
         25   -1    0    0    0    0  0.00000000000E+00  0.00000000000E+00  0.99999998245E-14  0.12500000000E+03  0.12500000000E+03 0.  0.
    3000001    1    3    3    0    0  0.21668655305E+02  0.34005436132E+02 -0.20409433493E+02  0.45204483016E+02  0.10000000000E+01 0. -1.
    1000022    2    1    0    0    0  0.28703245690E+02  0.43465783858E+02 -0.33062054816E+02  0.62500001680E+02  0.10000003089E+02 0.  0.
    3000022    2    3    3    0    0  0.70345903849E+01  0.94603477255E+01 -0.12652621323E+02  0.17295518663E+02  0.24999701749E+00 0.  0.
    1000022    2    1    0    0    0 -0.28703245690E+02 -0.43465783858E+02  0.33062054816E+02  0.62499998320E+02  0.99999820920E+01 0.  0.
    3000022    2    5    5    0    0 -0.89770513345E+01 -0.12942276868E+02  0.15589533061E+02  0.22162717312E+02  0.25003273419E+00 0.  0.
        -13    1    4    4    0    0  0.29735384102E+01  0.40744890137E+01 -0.54832233145E+01  0.74511847592E+01  0.10500000000E+00 0. -1.
         13    1    4    4    0    0  0.40610519747E+01  0.53858587118E+01 -0.71693980089E+01  0.98443339040E+01  0.10500000000E+00 0.  1.
    3000001    1    5    5    0    0 -0.19726194356E+02 -0.30523506989E+02  0.17472521755E+02  0.40337281009E+02  0.10000000000E+01 0. -1.
        -13    1    6    6    0    0 -0.51126192238E+01 -0.73142798319E+01  0.89129055121E+01  0.12613027965E+02  0.10500000000E+00 0. -1.
         13    1    6    6    0    0 -0.38644321107E+01 -0.56279970366E+01  0.66766275491E+01  0.95496893463E+01  0.10500000000E+00 0.  1.
</event>
<event>
11    0  0.3462209E-009  0.9118800E+02  0.7816531E-02  0.1126479E+00
         25   -1    0    0    0    0  0.00000000000E+00  0.00000000000E+00  0.99999998245E-14  0.12500000000E+03  0.12500000000E+03 0.  0.
    3000001    1    3    3    0    0 -0.10806407833E+01  0.23392523627E+02  0.81677582179E-01  0.23438955126E+02  0.10000000000E+01 0. -1.
    1000022    2    1    0    0    0  0.44610457137E+01  0.60707740276E+02 -0.10045860211E+02  0.62500000008E+02  0.10000001766E+02 0.  0.
    3000022    2    3    3    0    0  0.55416864970E+01  0.37315216649E+02 -0.10127537793E+02  0.39061044882E+02  0.25004551340E+00 0.  0.
    1000022    2    1    0    0    0 -0.44610457137E+01 -0.60707740276E+02  0.10045860211E+02  0.62499999992E+02  0.10000001667E+02 0.  0.
    3000022    2    5    5    0    0  0.24688744527E+01 -0.32025952733E+02  0.63777235151E+01  0.32748967119E+02  0.25000125149E+00 0.  0.
        -13    1    4    4    0    0  0.42459909673E+01  0.28645008513E+02 -0.77656700244E+01  0.29981354338E+02  0.10500000000E+00 0. -1.
         13    1    4    4    0    0  0.12956955297E+01  0.86702081362E+01 -0.23618677690E+01  0.90796905448E+01  0.10500000000E+00 0.  1.
    3000001    1    5    5    0    0 -0.69299201664E+01 -0.28681787543E+02  0.36681366962E+01  0.29751032873E+02  0.10000000000E+01 0.  1.
        -13    1    6    6    0    0  0.11494374366E+01 -0.15525977685E+02  0.30417739376E+01  0.15863183892E+02  0.10500000000E+00 0.  1.
         13    1    6    6    0    0  0.13194370161E+01 -0.16499975047E+02  0.33359495776E+01  0.16885783227E+02  0.10500000000E+00 0. -1.
</event>
<event>
11    0  0.3462209E-009  0.9118800E+02  0.7816531E-02  0.1126479E+00
         25   -1    0    0    0    0  0.00000000000E+00  0.00000000000E+00  0.99999998245E-14  0.12500000000E+03  0.12500000000E+03 0.  0.
    3000001    1    3    3    0    0 -0.91200607989E+01  0.22756321309E+02  0.20441356633E+02  0.31935477599E+02  0.10000000000E+01 0. -1.
    1000022    2    1    0    0    0 -0.13532343127E+02  0.38526326586E+02  0.46247678641E+02  0.62500000783E+02  0.10000008371E+02 0.  0.
    3000022    2    3    3    0    0 -0.44122823286E+01  0.15770005277E+02  0.25806322009E+02  0.30564523184E+02  0.25004011133E+00 0.  0.
    1000022    2    1    0    0    0  0.13532343127E+02 -0.38526326586E+02 -0.46247678641E+02  0.62499999217E+02  0.99999985847E+01 0.  0.
    3000022    2    5    5    0    0  0.17089608692E+01 -0.19659880342E+02 -0.20825342178E+02  0.28691267310E+02  0.25000142429E+00 0.  0.
        -13    1    4    4    0    0 -0.19433882075E+01  0.70359877172E+01  0.11618963391E+02  0.13721997528E+02  0.10500000000E+00 0.  1.
         13    1    4    4    0    0 -0.24688941211E+01  0.87340175595E+01  0.14187358618E+02  0.16842525656E+02  0.10500000000E+00 0. -1.
    3000001    1    5    5    0    0  0.11823382258E+02 -0.18866446244E+02 -0.25422336464E+02  0.33808731907E+02  0.10000000000E+01 0.  1.
        -13    1    6    6    0    0  0.10875919016E+01 -0.11996019733E+02 -0.12648442175E+02  0.17466581235E+02  0.10500000000E+00 0. -1.
         13    1    6    6    0    0  0.62136896761E+00 -0.76638606089E+01 -0.81769000030E+01  0.11224686075E+02  0.10500000000E+00 0.  1.
</event>
<event>
11    0  0.3462209E-009  0.9118800E+02  0.7816531E-02  0.1126479E+00
         25   -1    0    0    0    0  0.00000000000E+00  0.00000000000E+00  0.99999998245E-14  0.12500000000E+03  0.12500000000E+03 0.  0.
    3000001    1    3    3    0    0 -0.16535334258E+02  0.98773181600E+00  0.86672466757E+01  0.18722020674E+02  0.10000000000E+01 0. -1.
    1000022    2    1    0    0    0 -0.52211019877E+02  0.17957006550E+02  0.27528265760E+02  0.62499998813E+02  0.99999877530E+01 0.  0.
    3000022    2    3    3    0    0 -0.35675685618E+02  0.16969274734E+02  0.18861019084E+02  0.43777978139E+02  0.24999941093E+00 0.  0.
    1000022    2    1    0    0    0  0.52211019877E+02 -0.17957006550E+02 -0.27528265760E+02  0.62500001187E+02  0.10000002593E+02 0.  0.
    3000022    2    5    5    0    0  0.11722770041E+02 -0.14353739015E+01 -0.23974704516E+01  0.12053796246E+02  0.25000740571E+00 0.  0.
        -13    1    4    4    0    0 -0.23478025825E+02  0.11146458772E+02  0.12465357095E+02  0.28824597001E+02  0.10500000000E+00 0. -1.
         13    1    4    4    0    0 -0.12197659794E+02  0.58228159623E+01  0.63956619897E+01  0.14953381138E+02  0.10500000000E+00 0.  1.
    3000001    1    5    5    0    0  0.40488249835E+02 -0.16521632649E+02 -0.25130795308E+02  0.50446204941E+02  0.10000000000E+01 0. -1.
        -13    1    6    6    0    0  0.34422470230E+01 -0.42618683101E+00 -0.74903405171E+00  0.35500389847E+01  0.10500000000E+00 0.  1.
         13    1    6    6    0    0  0.82805230185E+01 -0.10091870704E+01 -0.16484363999E+01  0.85037572618E+01  0.10500000000E+00 0. -1.
</event>
<event>
11    0  0.3462209E-009  0.9118800E+02  0.7816531E-02  0.1126479E+00
         25   -1    0    0    0    0  0.00000000000E+00  0.00000000000E+00  0.99999998245E-14  0.12500000000E+03  0.12500000000E+03 0.  0.
    3000001    1    3    3    0    0  0.13844545769E+02  0.83228658821E+01  0.29395572220E+02  0.33556537518E+02  0.10000000000E+01 0. -1.
    1000022    2    1    0    0    0  0.17887274182E+02  0.11939719381E+02  0.57825067914E+02  0.62499999790E+02  0.10000000899E+02 0.  0.
    3000022    2    3    3    0    0  0.40427284131E+01  0.36168534991E+01  0.28429495694E+02  0.28943462272E+02  0.25000131486E+00 0.  0.
    1000022    2    1    0    0    0 -0.17887274182E+02 -0.11939719381E+02 -0.57825067914E+02  0.62500000210E+02  0.10000003518E+02 0.  0.
    3000022    2    5    5    0    0 -0.18412254823E+02 -0.90483582062E+01 -0.48144202101E+02  0.52333647029E+02  0.25000286911E+00 0.  0.
        -13    1    4    4    0    0  0.22566902548E+01  0.20275077466E+01  0.15544750932E+02  0.15838363081E+02  0.10500000000E+00 0. -1.
         13    1    4    4    0    0  0.17860381582E+01  0.15893457526E+01  0.12884744762E+02  0.13105099191E+02  0.10500000000E+00 0.  1.
    3000001    1    5    5    0    0  0.52498064079E+00 -0.28913611751E+01 -0.96808658125E+01  0.10166353181E+02  0.10000000000E+01 0.  1.
        -13    1    6    6    0    0 -0.10992980564E+02 -0.54726886570E+01 -0.28820041436E+02  0.31327332414E+02  0.10500000000E+00 0. -1.
         13    1    6    6    0    0 -0.74192742588E+01 -0.35756695492E+01 -0.19324160666E+02  0.21006314615E+02  0.10500000000E+00 0.  1.
</event>
<event>
11    0  0.3462209E-009  0.9118800E+02  0.7816531E-02  0.1126479E+00
         25   -1    0    0    0    0  0.00000000000E+00  0.00000000000E+00  0.99999998245E-14  0.12500000000E+03  0.12500000000E+03 0.  0.
    3000001    1    3    3    0    0 -0.64848868306E+01 -0.70126682252E+01  0.15143272492E+02  0.17931814593E+02  0.10000000000E+01 0.  1.
    1000022    2    1    0    0    0 -0.29153852930E+02 -0.33950893837E+02  0.42469278963E+02  0.62499999938E+02  0.10000000182E+02 0.  0.
    3000022    2    3    3    0    0 -0.22668966100E+02 -0.26938225612E+02  0.27326006471E+02  0.44568185345E+02  0.24998428944E+00 0.  0.
    1000022    2    1    0    0    0  0.29153852930E+02  0.33950893837E+02 -0.42469278963E+02  0.62500000062E+02  0.10000000960E+02 0.  0.
    3000022    2    5    5    0    0  0.18422782711E+02  0.22825092414E+02 -0.21219591319E+02  0.36203830183E+02  0.24999536901E+00 0.  0.
        -13    1    4    4    0    0 -0.59823769800E+01 -0.71573976584E+01  0.72572249540E+01  0.11819285706E+02  0.10500000000E+00 0.  1.
         13    1    4    4    0    0 -0.16686589120E+02 -0.19780827953E+02  0.20068781517E+02  0.32748899638E+02  0.10500000000E+00 0. -1.
    3000001    1    5    5    0    0  0.10731070219E+02  0.11125801423E+02 -0.21249687644E+02  0.26296169879E+02  0.10000000000E+01 0. -1.
        -13    1    6    6    0    0  0.44918630562E+01  0.55979059844E+01 -0.51799264405E+01  0.88518951674E+01  0.10500000000E+00 0. -1.
         13    1    6    6    0    0  0.13930919655E+02  0.17227186429E+02 -0.16039664878E+02  0.27351935016E+02  0.10500000000E+00 0.  1.
</event>
<event>
11    0  0.3462209E-009  0.9118800E+02  0.7816531E-02  0.1126479E+00
         25   -1    0    0    0    0  0.00000000000E+00  0.00000000000E+00  0.99999998245E-14  0.12500000000E+03  0.12500000000E+03 0.  0.
    3000001    1    3    3    0    0 -0.59251600374E+00 -0.54280473829E+02 -0.13769357279E+02  0.56011749787E+02  0.10000000000E+01 0. -1.
    1000022    2    1    0    0    0 -0.12857282390E+01 -0.60493048533E+02 -0.12049399821E+02  0.62499999484E+02  0.99999940831E+01 0.  0.
    3000022    2    3    3    0    0 -0.69321223523E+00 -0.62125747034E+01  0.17199574589E+01  0.64882496973E+01  0.25000565168E+00 0.  0.
    1000022    2    1    0    0    0  0.12857282390E+01  0.60493048533E+02  0.12049399821E+02  0.62500000516E+02  0.10000000527E+02 0.  0.
    3000022    2    5    5    0    0  0.25709247240E+01  0.41320534445E+02  0.38351057650E+01  0.41578440983E+02  0.24999517968E+00 0.  0.
        -13    1    4    4    0    0 -0.31286748425E+00 -0.26671500138E+01  0.80515468956E+00  0.28055078565E+01  0.10500000000E+00 0.  1.
         13    1    4    4    0    0 -0.38034475098E+00 -0.35454246896E+01  0.91480276937E+00  0.36827418408E+01  0.10500000000E+00 0. -1.
    3000001    1    5    5    0    0 -0.12851964850E+01  0.19172514087E+02  0.82142940555E+01  0.20921559532E+02  0.10000000000E+01 0. -1.
        -13    1    6    6    0    0  0.13598380191E+01  0.22778360062E+02  0.20797089473E+01  0.22913730837E+02  0.10500000000E+00 0.  1.
         13    1    6    6    0    0  0.12110867049E+01  0.18542174383E+02  0.17553968177E+01  0.18664710146E+02  0.10500000000E+00 0. -1.
</event>
<event>
11    0  0.3462209E-009  0.9118800E+02  0.7816531E-02  0.1126479E+00
         25   -1    0    0    0    0  0.00000000000E+00  0.00000000000E+00  0.99999998245E-14  0.12500000000E+03  0.12500000000E+03 0.  0.
    3000001    1    3    3    0    0 -0.45655114407E+02 -0.37387097219E+02 -0.48400180808E+01  0.59216638582E+02  0.10000000000E+01 0.  1.
    1000022    2    1    0    0    0 -0.47015288657E+02 -0.39824839733E+02 -0.31296684171E+01  0.62499999683E+02  0.99999954374E+01 0.  0.
    3000022    2    3    3    0    0 -0.13601742501E+01 -0.24377425140E+01  0.17103496637E+01  0.32833611009E+01  0.25000318332E+00 0.  0.
    1000022    2    1    0    0    0  0.47015288657E+02  0.39824839733E+02  0.31296684171E+01  0.62500000317E+02  0.99999993966E+01 0.  0.
    3000022    2    5    5    0    0  0.32446074255E+02  0.21229717833E+02  0.16772818582E+01  0.38811395599E+02  0.25000014795E+00 0.  0.
        -13    1    4    4    0    0 -0.40683647941E+00 -0.82316176571E+00  0.53369798055E+00  0.10672252564E+01  0.10500000000E+00 0.  1.
         13    1    4    4    0    0 -0.95333777068E+00 -0.16145807483E+01  0.11766516832E+01  0.22161358445E+01  0.10500000000E+00 0. -1.
    3000001    1    5    5    0    0  0.14569214402E+02  0.18595121900E+02  0.14523865588E+01  0.23688604718E+02  0.10000000000E+01 0. -1.
        -13    1    6    6    0    0  0.10468640665E+02  0.68721710902E+01  0.58959337692E+00  0.12537057797E+02  0.10500000000E+00 0. -1.
         13    1    6    6    0    0  0.21977433590E+02  0.14357546743E+02  0.10876884813E+01  0.26274337802E+02  0.10500000000E+00 0.  1.
</event>
<event>
11    0  0.3462209E-009  0.9118800E+02  0.7816531E-02  0.1126479E+00
         25   -1    0    0    0    0  0.00000000000E+00  0.00000000000E+00  0.99999998245E-14  0.12500000000E+03  0.12500000000E+03 0.  0.
    3000001    1    3    3    0    0 -0.11748707416E+02  0.77102556910E+01 -0.18726759129E+02  0.23434412223E+02  0.10000000000E+01 0. -1.
    1000022    2    1    0    0    0 -0.39269326535E+02  0.24491417486E+02 -0.40796325511E+02  0.62499999728E+02  0.10000012691E+02 0.  0.
    3000022    2    3    3    0    0 -0.27520619119E+02  0.16781161795E+02 -0.22069566383E+02  0.39065587505E+02  0.24999787427E+00 0.  0.
    1000022    2    1    0    0    0  0.39269326535E+02 -0.24491417486E+02  0.40796325511E+02  0.62500000272E+02  0.10000016090E+02 0.  0.
    3000022    2    5    5    0    0  0.63950683662E+01 -0.60175222129E+01  0.12795439213E+02  0.15520735802E+02  0.25000434940E+00 0.  0.
        -13    1    4    4    0    0 -0.68167893255E+01  0.41282080503E+01 -0.54618030048E+01  0.96619374598E+01  0.10500000000E+00 0. -1.
         13    1    4    4    0    0 -0.20703829793E+02  0.12652953744E+02 -0.16607763378E+02  0.29403650045E+02  0.10500000000E+00 0.  1.
    3000001    1    5    5    0    0  0.32874258169E+02 -0.18473895273E+02  0.28000886298E+02  0.46979264470E+02  0.10000000000E+01 0. -1.
        -13    1    6    6    0    0  0.34079603981E+01 -0.32255338379E+01  0.67207392798E+01  0.81974156953E+01  0.10500000000E+00 0.  1.
         13    1    6    6    0    0  0.29871079680E+01 -0.27919883750E+01  0.60746999334E+01  0.73233201063E+01  0.10500000000E+00 0. -1.
</event>
<event>
11    0  0.3462209E-009  0.9118800E+02  0.7816531E-02  0.1126479E+00
         25   -1    0    0    0    0  0.00000000000E+00  0.00000000000E+00  0.99999998245E-14  0.12500000000E+03  0.12500000000E+03 0.  0.
    3000001    1    3    3    0    0 -0.94772432747E+01 -0.64077124641E+01 -0.59260773924E+01  0.12922666612E+02  0.10000000000E+01 0.  1.
    1000022    2    1    0    0    0 -0.31269949539E+02 -0.43084881582E+02 -0.31179051663E+02  0.62500000001E+02  0.99999986195E+01 0.  0.
    3000022    2    3    3    0    0 -0.21792706265E+02 -0.36677169118E+02 -0.25252974271E+02  0.49577333389E+02  0.24999117429E+00 0.  0.
    1000022    2    1    0    0    0  0.31269949539E+02  0.43084881582E+02  0.31179051663E+02  0.62499999999E+02  0.99999986091E+01 0.  0.
    3000022    2    5    5    0    0  0.73742722375E+01  0.12795237300E+02  0.40183774632E+01  0.15307117406E+02  0.24999451648E+00 0.  0.
        -13    1    4    4    0    0 -0.11652460741E+02 -0.19661615200E+02 -0.13600455447E+02  0.26595908839E+02  0.10500000000E+00 0. -1.
         13    1    4    4    0    0 -0.10140245523E+02 -0.17015553917E+02 -0.11652518823E+02  0.22981424549E+02  0.10500000000E+00 0.  1.
    3000001    1    5    5    0    0  0.23895677302E+02  0.30289644282E+02  0.27160674200E+02  0.47192882593E+02  0.10000000000E+01 0. -1.
        -13    1    6    6    0    0  0.24507021777E+01  0.42166163284E+01  0.13788562517E+01  0.50693257922E+01  0.10500000000E+00 0. -1.
         13    1    6    6    0    0  0.49235700598E+01  0.85786209715E+01  0.26395212114E+01  0.10237791614E+02  0.10500000000E+00 0.  1.
</event>
<event>
11    0  0.3462209E-009  0.9118800E+02  0.7816531E-02  0.1126479E+00
         25   -1    0    0    0    0  0.00000000000E+00  0.00000000000E+00  0.99999998245E-14  0.12500000000E+03  0.12500000000E+03 0.  0.
    3000001    1    3    3    0    0  0.18990903256E+02  0.92268275296E+01 -0.72610665481E+01  0.22349761523E+02  0.10000000000E+01 0. -1.
    1000022    2    1    0    0    0  0.47856211673E+02  0.22310462188E+02 -0.31910440196E+02  0.62500000021E+02  0.10000004519E+02 0.  0.
    3000022    2    3    3    0    0  0.28865308417E+02  0.13083634658E+02 -0.24649373647E+02  0.40150238497E+02  0.25000857580E+00 0.  0.
    1000022    2    1    0    0    0 -0.47856211673E+02 -0.22310462188E+02  0.31910440196E+02  0.62499999979E+02  0.10000004262E+02 0.  0.
    3000022    2    5    5    0    0 -0.24028883986E+02 -0.14505063644E+02  0.21393581593E+02  0.35292094768E+02  0.24996562328E+00 0.  0.
        -13    1    4    4    0    0  0.77854764002E+01  0.35653132397E+01 -0.66425252795E+01  0.10837862721E+02  0.10500000000E+00 0.  1.
         13    1    4    4    0    0  0.21079832017E+02  0.95183214184E+01 -0.18006848368E+02  0.29312375776E+02  0.10500000000E+00 0. -1.
    3000001    1    5    5    0    0 -0.23827327687E+02 -0.78053985437E+01  0.10516858602E+02  0.27207905211E+02  0.10000000000E+01 0.  1.
        -13    1    6    6    0    0 -0.14993145282E+02 -0.89883406946E+01  0.13288292031E+02  0.21958469983E+02  0.10500000000E+00 0. -1.
         13    1    6    6    0    0 -0.90357387041E+01 -0.55167229494E+01  0.81052895625E+01  0.13333624786E+02  0.10500000000E+00 0.  1.
</event>
<event>
11    0  0.3462209E-009  0.9118800E+02  0.7816531E-02  0.1126479E+00
         25   -1    0    0    0    0  0.00000000000E+00  0.00000000000E+00  0.99999998245E-14  0.12500000000E+03  0.12500000000E+03 0.  0.
    3000001    1    3    3    0    0  0.25924983793E+02  0.14046261731E+02  0.14707312906E+02  0.32965243913E+02  0.10000000000E+01 0.  1.
    1000022    2    1    0    0    0  0.53192430659E+02  0.18658979333E+02  0.25073049072E+02  0.62499999827E+02  0.99999999781E+01 0.  0.
    3000022    2    3    3    0    0  0.27267446866E+02  0.46127176017E+01  0.10365736165E+02  0.29534755915E+02  0.24999692030E+00 0.  0.
    1000022    2    1    0    0    0 -0.53192430659E+02 -0.18658979333E+02 -0.25073049072E+02  0.62500000173E+02  0.10000002135E+02 0.  0.
    3000022    2    5    5    0    0 -0.14520203137E+02 -0.82661200309E+01 -0.37675689770E+01  0.17129567201E+02  0.24991397476E+00 0.  0.
        -13    1    4    4    0    0  0.87940739477E+01  0.15327016384E+01  0.33185137008E+01  0.95240993849E+01  0.10500000000E+00 0.  1.
         13    1    4    4    0    0  0.18473372918E+02  0.30800159632E+01  0.70472224647E+01  0.20010656530E+02  0.10500000000E+00 0. -1.
    3000001    1    5    5    0    0 -0.38672227522E+02 -0.10392859302E+02 -0.21305480094E+02  0.45370432972E+02  0.10000000000E+01 0.  1.
        -13    1    6    6    0    0 -0.46762634284E+01 -0.26111876973E+01 -0.11823192581E+01  0.54858586083E+01  0.10500000000E+00 0.  1.
         13    1    6    6    0    0 -0.98439397085E+01 -0.56549323336E+01 -0.25852497189E+01  0.11643708593E+02  0.10500000000E+00 0. -1.
</event>
<event>
11    0  0.3462209E-009  0.9118800E+02  0.7816531E-02  0.1126479E+00
         25   -1    0    0    0    0  0.00000000000E+00  0.00000000000E+00  0.99999998245E-14  0.12500000000E+03  0.12500000000E+03 0.  0.
    3000001    1    3    3    0    0 -0.18615404983E+02 -0.41578495105E+02  0.69554999732E+01  0.46094289644E+02  0.10000000000E+01 0. -1.
    1000022    2    1    0    0    0 -0.21143870495E+02 -0.56315734149E+02  0.13701273413E+02  0.62499999320E+02  0.99999924792E+01 0.  0.
    3000022    2    3    3    0    0 -0.25284655124E+01 -0.14737239044E+02  0.67457734394E+01  0.16405709676E+02  0.24999639061E+00 0.  0.
    1000022    2    1    0    0    0  0.21143870495E+02  0.56315734149E+02 -0.13701273413E+02  0.62500000680E+02  0.10000000979E+02 0.  0.
    3000022    2    5    5    0    0  0.27156874092E+01  0.90178451173E+01 -0.59447595530E+01  0.11139979788E+02  0.24998975543E+00 0.  0.
        -13    1    4    4    0    0 -0.69393440804E+00 -0.40651366234E+01  0.19026449998E+01  0.45429025660E+01  0.10500000000E+00 0.  1.
         13    1    4    4    0    0 -0.18345311043E+01 -0.10672102421E+02  0.48431284396E+01  0.11862807110E+02  0.10500000000E+00 0. -1.
    3000001    1    5    5    0    0  0.18428183086E+02  0.47297889032E+02 -0.77565138596E+01  0.51360020892E+02  0.10000000000E+01 0. -1.
        -13    1    6    6    0    0  0.13500854077E+01  0.43075566722E+01 -0.27963621162E+01  0.53111619422E+01  0.10500000000E+00 0. -1.
         13    1    6    6    0    0  0.13656020015E+01  0.47102884451E+01 -0.31483974368E+01  0.58288178461E+01  0.10500000000E+00 0.  1.
</event>
<event>
11    0  0.3462209E-009  0.9118800E+02  0.7816531E-02  0.1126479E+00
         25   -1    0    0    0    0  0.00000000000E+00  0.00000000000E+00  0.99999998245E-14  0.12500000000E+03  0.12500000000E+03 0.  0.
    3000001    1    3    3    0    0 -0.30139026777E+02  0.22912521754E+02  0.40951383291E+02  0.55779569572E+02  0.10000000000E+01 0.  1.
    1000022    2    1    0    0    0 -0.31245961356E+02  0.23971391534E+02  0.47490126871E+02  0.62499999386E+02  0.10000002994E+02 0.  0.
    3000022    2    3    3    0    0 -0.11069345791E+01  0.10588697802E+01  0.65387435799E+01  0.67204298140E+01  0.24999981444E+00 0.  0.
    1000022    2    1    0    0    0  0.31245961356E+02 -0.23971391534E+02 -0.47490126871E+02  0.62500000614E+02  0.10000010666E+02 0.  0.
    3000022    2    5    5    0    0  0.38448846574E+01 -0.55519212682E+01 -0.13536824843E+02  0.15129940367E+02  0.25000179244E+00 0.  0.
        -13    1    4    4    0    0 -0.26241906850E+00  0.28081388155E+00  0.17610330826E+01  0.18055422237E+01  0.10500000000E+00 0.  1.
         13    1    4    4    0    0 -0.84451551059E+00  0.77805589865E+00  0.47777104974E+01  0.49148875904E+01  0.10500000000E+00 0. -1.
    3000001    1    5    5    0    0  0.27401076699E+02 -0.18419470266E+02 -0.33953302029E+02  0.47370060247E+02  0.10000000000E+01 0.  1.
        -13    1    6    6    0    0  0.12922304910E+01 -0.19640207845E+01 -0.47283935413E+01  0.52816633521E+01  0.10500000000E+00 0.  1.
         13    1    6    6    0    0  0.25526541664E+01 -0.35879004837E+01 -0.88084313013E+01  0.98482770149E+01  0.10500000000E+00 0.  1.
</event>
<event>
11    0  0.3462209E-009  0.9118800E+02  0.7816531E-02  0.1126479E+00
         25   -1    0    0    0    0  0.00000000000E+00  0.00000000000E+00  0.99999998245E-14  0.12500000000E+03  0.12500000000E+03 0.  0.
    3000001    1    3    3    0    0  0.66307058977E+00  0.95623120419E+01  0.58506152829E+01  0.11274181717E+02  0.10000000000E+01 0. -1.
    1000022    2    1    0    0    0 -0.89676556682E+00  0.39463373021E+02  0.47414006255E+02  0.62500000418E+02  0.10000003220E+02 0.  0.
    3000022    2    3    3    0    0 -0.15598361566E+01  0.29901060979E+02  0.41563390972E+02  0.51225818701E+02  0.24999194661E+00 0.  0.
    1000022    2    1    0    0    0  0.89676556682E+00 -0.39463373021E+02 -0.47414006255E+02  0.62499999582E+02  0.99999979943E+01 0.  0.
    3000022    2    5    5    0    0  0.22641967418E+01 -0.36086456285E+02 -0.45896327254E+02  0.58428539866E+02  0.25000294123E+00 0.  0.
        -13    1    4    4    0    0 -0.10096326041E+01  0.18294245628E+02  0.25385820990E+02  0.31307342803E+02  0.10500000000E+00 0. -1.
         13    1    4    4    0    0 -0.55020355246E+00  0.11606815351E+02  0.16177569983E+02  0.19918475898E+02  0.10500000000E+00 0.  1.
    3000001    1    5    5    0    0 -0.13674311749E+01 -0.33769167365E+01 -0.15176790014E+01  0.40714597155E+01  0.10000000000E+01 0.  1.
        -13    1    6    6    0    0  0.10355071679E+01 -0.17378559368E+02 -0.22034293603E+02  0.28082160180E+02  0.10500000000E+00 0. -1.
         13    1    6    6    0    0  0.12286895739E+01 -0.18707896917E+02 -0.23862033651E+02  0.30346379687E+02  0.10500000000E+00 0.  1.
</event>
<event>
11    0  0.3462209E-009  0.9118800E+02  0.7816531E-02  0.1126479E+00
         25   -1    0    0    0    0  0.00000000000E+00  0.00000000000E+00  0.99999998245E-14  0.12500000000E+03  0.12500000000E+03 0.  0.
    3000001    1    3    3    0    0 -0.72769351206E+01 -0.28757671711E+02 -0.20875249854E+02  0.36286823000E+02  0.10000000000E+01 0.  1.
    1000022    2    1    0    0    0 -0.48215112687E+01 -0.51680293357E+02 -0.33348918429E+02  0.62499998508E+02  0.99999880381E+01 0.  0.
    3000022    2    3    3    0    0  0.24554238520E+01 -0.22922621645E+02 -0.12473668575E+02  0.26213175507E+02  0.24994614261E+00 0.  0.
    1000022    2    1    0    0    0  0.48215112687E+01  0.51680293357E+02  0.33348918429E+02  0.62500001492E+02  0.10000006692E+02 0.  0.
    3000022    2    5    5    0    0  0.33175201608E+01  0.44300420159E+02  0.24135752242E+02  0.50558186352E+02  0.25000924264E+00 0.  0.
        -13    1    4    4    0    0  0.61635767257E+00 -0.60686033759E+01 -0.32973543561E+01  0.69347973629E+01  0.10500000000E+00 0. -1.
         13    1    4    4    0    0  0.18390661794E+01 -0.16854018269E+02 -0.91763142189E+01  0.19278378145E+02  0.10500000000E+00 0.  1.
    3000001    1    5    5    0    0  0.15039911079E+01  0.73798731977E+01  0.92131661868E+01  0.11941815141E+02  0.10000000000E+01 0. -1.
        -13    1    6    6    0    0  0.90492284896E+00  0.11817485554E+02  0.64717020089E+01  0.13504288285E+02  0.10500000000E+00 0. -1.
         13    1    6    6    0    0  0.24125973118E+01  0.32482934605E+02  0.17664050233E+02  0.37053898067E+02  0.10500000000E+00 0.  1.
</event>
<event>
11    0  0.3462209E-009  0.9118800E+02  0.7816531E-02  0.1126479E+00
         25   -1    0    0    0    0  0.00000000000E+00  0.00000000000E+00  0.99999998245E-14  0.12500000000E+03  0.12500000000E+03 0.  0.
    3000001    1    3    3    0    0  0.73421210848E+00 -0.48101423463E+01 -0.12682912482E+02  0.13621042759E+02  0.10000000000E+01 0.  1.
    1000022    2    1    0    0    0 -0.13445409191E+02 -0.14370774201E+02 -0.58471806419E+02  0.62500001916E+02  0.99999957113E+01 0.  0.
    3000022    2    3    3    0    0 -0.14179621299E+02 -0.95606318542E+01 -0.45788893936E+02  0.48878959157E+02  0.24999743591E+00 0.  0.
    1000022    2    1    0    0    0  0.13445409191E+02  0.14370774201E+02  0.58471806419E+02  0.62499998084E+02  0.99999717593E+01 0.  0.
    3000022    2    5    5    0    0  0.97848211446E+01  0.14802944740E+02  0.52433174965E+02  0.55354947626E+02  0.24998383624E+00 0.  0.
        -13    1    4    4    0    0 -0.84872158416E+01 -0.57504109427E+01 -0.27279951457E+02  0.29142869373E+02  0.10500000000E+00 0. -1.
         13    1    4    4    0    0 -0.56924054576E+01 -0.38102209115E+01 -0.18508942479E+02  0.19736089784E+02  0.10500000000E+00 0.  1.
    3000001    1    5    5    0    0  0.36605880462E+01 -0.43217053903E+00  0.60386314536E+01  0.71450504583E+01  0.10000000000E+01 0.  1.
        -13    1    6    6    0    0  0.44148699293E+01  0.67659451352E+01  0.23726852269E+02  0.25064788721E+02  0.10500000000E+00 0. -1.
         13    1    6    6    0    0  0.53699512152E+01  0.80369996043E+01  0.28706322696E+02  0.30290158904E+02  0.10500000000E+00 0.  1.
</event>
<event>
11    0  0.3462209E-009  0.9118800E+02  0.7816531E-02  0.1126479E+00
         25   -1    0    0    0    0  0.00000000000E+00  0.00000000000E+00  0.99999998245E-14  0.12500000000E+03  0.12500000000E+03 0.  0.
    3000001    1    3    3    0    0  0.10164992790E+02 -0.52527865410E+01  0.39506076925E+01  0.12146034168E+02  0.10000000000E+01 0. -1.
    1000022    2    1    0    0    0  0.58404433110E+02 -0.19655980681E+02  0.29689713238E+01  0.62499998308E+02  0.99999807194E+01 0.  0.
    3000022    2    3    3    0    0  0.48239440320E+02 -0.14403194140E+02 -0.98163636865E+00  0.50353964141E+02  0.24998176004E+00 0.  0.
    1000022    2    1    0    0    0 -0.58404433110E+02  0.19655980681E+02 -0.29689713238E+01  0.62500001692E+02  0.10000001867E+02 0.  0.
    3000022    2    5    5    0    0 -0.47165032414E+02  0.18658190073E+02  0.25352273577E+00  0.50722727726E+02  0.24998958223E+00 0.  0.
        -13    1    4    4    0    0  0.21175006770E+02 -0.63681403360E+01 -0.38170965792E+00  0.22115398488E+02  0.10500000000E+00 0.  1.
         13    1    4    4    0    0  0.27064433550E+02 -0.80350538041E+01 -0.59992671072E+00  0.28238565652E+02  0.10500000000E+00 0. -1.
    3000001    1    5    5    0    0 -0.11239400696E+02  0.99779060831E+00 -0.32224940596E+01  0.11777273966E+02  0.10000000000E+01 0.  1.
        -13    1    6    6    0    0 -0.12402724960E+02  0.49392064744E+01  0.53839684821E-01  0.13350553200E+02  0.10500000000E+00 0.  1.
         13    1    6    6    0    0 -0.34762307453E+02  0.13718983598E+02  0.19968305095E+00  0.37372174526E+02  0.10500000000E+00 0. -1.
</event>
<event>
11    0  0.3462209E-009  0.9118800E+02  0.7816531E-02  0.1126479E+00
         25   -1    0    0    0    0  0.00000000000E+00  0.00000000000E+00  0.99999998245E-14  0.12500000000E+03  0.12500000000E+03 0.  0.
    3000001    1    3    3    0    0  0.17155663343E+02  0.13596090043E+02  0.39114059777E+01  0.22259145220E+02  0.10000000000E+01 0.  1.
    1000022    2    1    0    0    0  0.51598308083E+02  0.33804903481E+02 -0.10456130504E+01  0.62499999861E+02  0.99999889779E+01 0.  0.
    3000022    2    3    3    0    0  0.34442644740E+02  0.20208813439E+02 -0.49570190281E+01  0.40240854641E+02  0.24985463503E+00 0.  0.
    1000022    2    1    0    0    0 -0.51598308083E+02 -0.33804903481E+02  0.10456130504E+01  0.62500000139E+02  0.99999907116E+01 0.  0.
    3000022    2    5    5    0    0 -0.34920357722E+02 -0.17506984913E+02  0.22487205940E+01  0.39128572162E+02  0.25002185961E+00 0.  0.
        -13    1    4    4    0    0  0.26453844428E+02  0.15523083288E+02 -0.37975526490E+01  0.30906381718E+02  0.10500000000E+00 0.  1.
         13    1    4    4    0    0  0.79888003118E+01  0.46857301514E+01 -0.11594663791E+01  0.93344729234E+01  0.10500000000E+00 0. -1.
    3000001    1    5    5    0    0 -0.16677950361E+02 -0.16297918568E+02 -0.12031075436E+01  0.23371427977E+02  0.10000000000E+01 0. -1.
        -13    1    6    6    0    0 -0.20646284649E+02 -0.10291849531E+02  0.12917286245E+01  0.23105644861E+02  0.10500000000E+00 0. -1.
         13    1    6    6    0    0 -0.14274073073E+02 -0.72151353818E+01  0.95699196948E+00  0.16022927301E+02  0.10500000000E+00 0.  1.
</event>
<event>
11    0  0.3462209E-009  0.9118800E+02  0.7816531E-02  0.1126479E+00
         25   -1    0    0    0    0  0.00000000000E+00  0.00000000000E+00  0.99999998245E-14  0.12500000000E+03  0.12500000000E+03 0.  0.
    3000001    1    3    3    0    0  0.13789111574E+02 -0.35615733715E+02  0.78913142305E+01  0.39011446094E+02  0.10000000000E+01 0. -1.
    1000022    2    1    0    0    0  0.21597151489E+02 -0.54292960255E+02  0.19801198565E+02  0.62500000380E+02  0.10000004861E+02 0.  0.
    3000022    2    3    3    0    0  0.78080399152E+01 -0.18677226541E+02  0.11909884335E+02  0.23488554287E+02  0.25011807715E+00 0.  0.
    1000022    2    1    0    0    0 -0.21597151489E+02  0.54292960255E+02 -0.19801198565E+02  0.62499999620E+02  0.10000000105E+02 0.  0.
    3000022    2    5    5    0    0 -0.71852663590E+01  0.14653909626E+02 -0.10148559833E+02  0.19220325380E+02  0.25004208447E+00 0.  0.
        -13    1    4    4    0    0  0.36955191090E+01 -0.88619218569E+01  0.57267640806E+01  0.11180222373E+02  0.10500000000E+00 0.  1.
         13    1    4    4    0    0  0.41125208062E+01 -0.98153046836E+01  0.61831202540E+01  0.12308331913E+02  0.10500000000E+00 0. -1.
    3000001    1    5    5    0    0 -0.14411885130E+02  0.39639050629E+02 -0.96526387316E+01  0.43279674239E+02  0.10000000000E+01 0.  1.
        -13    1    6    6    0    0 -0.26094942182E+01  0.53874807438E+01 -0.37833711812E+01  0.70823252773E+01  0.10500000000E+00 0.  1.
         13    1    6    6    0    0 -0.45757721408E+01  0.92664288826E+01 -0.63651886523E+01  0.12138000103E+02  0.10500000000E+00 0. -1.
</event>
<event>
11    0  0.3462209E-009  0.9118800E+02  0.7816531E-02  0.1126479E+00
         25   -1    0    0    0    0  0.00000000000E+00  0.00000000000E+00  0.99999998245E-14  0.12500000000E+03  0.12500000000E+03 0.  0.
    3000001    1    3    3    0    0  0.12325445068E+02 -0.33465735034E+02 -0.15475635125E+02  0.38889166872E+02  0.10000000000E+01 0. -1.
    1000022    2    1    0    0    0  0.25957764299E+02 -0.52068462166E+02 -0.20526090692E+02  0.62499994533E+02  0.99999318884E+01 0.  0.
    3000022    2    3    3    0    0  0.13632319231E+02 -0.18602727132E+02 -0.50504555669E+01  0.23610827661E+02  0.24999404592E+00 0.  0.
    1000022    2    1    0    0    0 -0.25957764299E+02  0.52068462166E+02  0.20526090692E+02  0.62500005467E+02  0.10000000226E+02 0.  0.
    3000022    2    5    5    0    0 -0.24335898496E+01  0.43642559555E+01 -0.10162306620E+01  0.51053220631E+01  0.24999801539E+00 0.  0.
        -13    1    4    4    0    0  0.69869778026E+01 -0.95165499082E+01 -0.26538464382E+01  0.12101095276E+02  0.10500000000E+00 0.  1.
         13    1    4    4    0    0  0.66453414284E+01 -0.90861772242E+01 -0.23966091287E+01  0.11509732385E+02  0.10500000000E+00 0. -1.
    3000001    1    5    5    0    0 -0.23524174450E+02  0.47704206210E+02  0.21542321354E+02  0.57394683404E+02  0.10000000000E+01 0.  1.
        -13    1    6    6    0    0 -0.10405044640E+01  0.18604917989E+01 -0.50028659028E+00  0.21921201941E+01  0.10500000000E+00 0. -1.
         13    1    6    6    0    0 -0.13930853857E+01  0.25037641567E+01 -0.51594407167E+00  0.29132018689E+01  0.10500000000E+00 0.  1.
</event>
<event>
11    0  0.3462209E-009  0.9118800E+02  0.7816531E-02  0.1126479E+00
         25   -1    0    0    0    0  0.00000000000E+00  0.00000000000E+00  0.99999998245E-14  0.12500000000E+03  0.12500000000E+03 0.  0.
    3000001    1    3    3    0    0  0.10447447103E+02  0.16482922124E+02  0.16830767201E+02  0.25789738217E+02  0.10000000000E+01 0. -1.
    1000022    2    1    0    0    0  0.15559045181E+02  0.45965621279E+02  0.38096298518E+02  0.62499999841E+02  0.99999896391E+01 0.  0.
    3000022    2    3    3    0    0  0.51115980775E+01  0.29482699155E+02  0.21265531317E+02  0.36710261624E+02  0.25000382221E+00 0.  0.
    1000022    2    1    0    0    0 -0.15559045181E+02 -0.45965621279E+02 -0.38096298518E+02  0.62500000159E+02  0.99999916304E+01 0.  0.
    3000022    2    5    5    0    0 -0.15877286089E+01 -0.18954265548E+02 -0.12763081643E+02  0.22907287416E+02  0.24999819736E+00 0.  0.
        -13    1    4    4    0    0  0.13986082631E+01  0.80759902452E+01  0.58712232018E+01  0.10082658895E+02  0.10500000000E+00 0.  1.
         13    1    4    4    0    0  0.37129898145E+01  0.21406708910E+02  0.15394308115E+02  0.26627602728E+02  0.10500000000E+00 0. -1.
    3000001    1    5    5    0    0 -0.13971316572E+02 -0.27011355731E+02 -0.25333216875E+02  0.39592712744E+02  0.10000000000E+01 0. -1.
        -13    1    6    6    0    0 -0.11260363918E+01 -0.13857744482E+02 -0.93190738242E+01  0.16738016670E+02  0.10500000000E+00 0. -1.
         13    1    6    6    0    0 -0.46169221716E+00 -0.50965210661E+01 -0.34440078191E+01  0.61692707461E+01  0.10500000000E+00 0. -1.
</event>
<event>
11    0  0.3462209E-009  0.9118800E+02  0.7816531E-02  0.1126479E+00
         25   -1    0    0    0    0  0.00000000000E+00  0.00000000000E+00  0.99999998245E-14  0.12500000000E+03  0.12500000000E+03 0.  0.
    3000001    1    3    3    0    0 -0.11243613024E+01  0.20565624783E+02  0.22094176867E+02  0.30221875563E+02  0.10000000000E+01 0.  1.
    1000022    2    1    0    0    0  0.34203428022E+01  0.47687062726E+02  0.38993528490E+02  0.62500000009E+02  0.10000002035E+02 0.  0.
    3000022    2    3    3    0    0  0.45447041046E+01  0.27121437943E+02  0.16899351622E+02  0.32278124446E+02  0.25000208563E+00 0.  0.
    1000022    2    1    0    0    0 -0.34203428022E+01 -0.47687062726E+02 -0.38993528490E+02  0.62499999991E+02  0.10000001924E+02 0.  0.
    3000022    2    5    5    0    0  0.24512020399E+01 -0.42899044263E+01 -0.28477578772E+01  0.57082301603E+01  0.24999041836E+00 0.  0.
        -13    1    4    4    0    0  0.31054802188E+01  0.18219348755E+02  0.11367365342E+02  0.21698310908E+02  0.10500000000E+00 0. -1.
         13    1    4    4    0    0  0.14392238858E+01  0.89020891879E+01  0.55319862805E+01  0.10579813539E+02  0.10500000000E+00 0.  1.
    3000001    1    5    5    0    0 -0.58715448421E+01 -0.43397158300E+02 -0.36145770612E+02  0.56791769831E+02  0.10000000000E+01 0. -1.
        -13    1    6    6    0    0  0.13733060932E+01 -0.24834626440E+01 -0.16947003492E+01  0.33070516481E+01  0.10500000000E+00 0.  1.
         13    1    6    6    0    0  0.10778959467E+01 -0.18064417823E+01 -0.11530575280E+01  0.24011785122E+01  0.10500000000E+00 0. -1.
</event>
<event>
11    0  0.3462209E-009  0.9118800E+02  0.7816531E-02  0.1126479E+00
         25   -1    0    0    0    0  0.00000000000E+00  0.00000000000E+00  0.99999998245E-14  0.12500000000E+03  0.12500000000E+03 0.  0.
    3000001    1    3    3    0    0  0.13937786801E+02  0.90819872063E+01 -0.36308950542E+02  0.39951023541E+02  0.10000000000E+01 0.  1.
    1000022    2    1    0    0    0  0.22139274139E+02  0.20943183991E+02 -0.53642199596E+02  0.62500000601E+02  0.10000004127E+02 0.  0.
    3000022    2    3    3    0    0  0.82014873383E+01  0.11861196785E+02 -0.17333249054E+02  0.22548977060E+02  0.24991989093E+00 0.  0.
    1000022    2    1    0    0    0 -0.22139274139E+02 -0.20943183991E+02  0.53642199596E+02  0.62499999399E+02  0.99999966135E+01 0.  0.
    3000022    2    5    5    0    0 -0.14524843264E+02 -0.71256529996E+01  0.29411760660E+02  0.33568737911E+02  0.24999459502E+00 0.  0.
        -13    1    4    4    0    0  0.30953760850E+01  0.45674995643E+01 -0.66831596292E+01  0.86671248409E+01  0.10500000000E+00 0. -1.
         13    1    4    4    0    0  0.51061112533E+01  0.72936972208E+01 -0.10650089425E+02  0.13881852219E+02  0.10500000000E+00 0.  1.
    3000001    1    5    5    0    0 -0.76144308757E+01 -0.13817530992E+02  0.24230438936E+02  0.28931261488E+02  0.10000000000E+01 0.  1.
        -13    1    6    6    0    0 -0.87275413610E+01 -0.42780526432E+01  0.17538635000E+02  0.20052093539E+02  0.10500000000E+00 0. -1.
         13    1    6    6    0    0 -0.57973019027E+01 -0.28476003563E+01  0.11873125661E+02  0.13516644373E+02  0.10500000000E+00 0.  1.
</event>
<event>
11    0  0.3462209E-009  0.9118800E+02  0.7816531E-02  0.1126479E+00
         25   -1    0    0    0    0  0.00000000000E+00  0.00000000000E+00  0.99999998245E-14  0.12500000000E+03  0.12500000000E+03 0.  0.
    3000001    1    3    3    0    0 -0.79988825201E+00  0.42290940498E+00  0.37105609450E+01  0.39480293954E+01  0.10000000000E+01 0.  1.
    1000022    2    1    0    0    0 -0.35719432697E+02 -0.17433115618E+02  0.47185366326E+02  0.62500001365E+02  0.99999991531E+01 0.  0.
    3000022    2    3    3    0    0 -0.34919544445E+02 -0.17856025023E+02  0.43474805381E+02  0.58551971970E+02  0.25000968157E+00 0.  0.
    1000022    2    1    0    0    0  0.35719432697E+02  0.17433115618E+02 -0.47185366326E+02  0.62499998635E+02  0.99999820855E+01 0.  0.
    3000022    2    5    5    0    0  0.21500877376E+02  0.15705170956E+02 -0.30583692374E+02  0.40550768895E+02  0.24999207569E+00 0.  0.
        -13    1    4    4    0    0 -0.10010942820E+02 -0.51394882342E+01  0.12530809944E+02  0.16842373298E+02  0.10500000000E+00 0.  1.
         13    1    4    4    0    0 -0.24908601625E+02 -0.12716536788E+02  0.30943995437E+02  0.41709598672E+02  0.10500000000E+00 0. -1.
    3000001    1    5    5    0    0  0.14218555321E+02  0.17279446612E+01 -0.16601673952E+02  0.21949229740E+02  0.10000000000E+01 0. -1.
        -13    1    6    6    0    0  0.15250268115E+02  0.11186048969E+02 -0.21754761534E+02  0.28826707122E+02  0.10500000000E+00 0. -1.
         13    1    6    6    0    0  0.62506092612E+01  0.45191219872E+01 -0.88289308403E+01  0.11724061773E+02  0.10500000000E+00 0.  1.
</event>
<event>
11    0  0.3462209E-009  0.9118800E+02  0.7816531E-02  0.1126479E+00
         25   -1    0    0    0    0  0.00000000000E+00  0.00000000000E+00  0.99999998245E-14  0.12500000000E+03  0.12500000000E+03 0.  0.
    3000001    1    3    3    0    0  0.32445257670E+02 -0.75021584744E+01  0.13172157494E+02  0.35825729024E+02  0.10000000000E+01 0. -1.
    1000022    2    1    0    0    0  0.51981737798E+02 -0.18711617275E+02  0.27459501774E+02  0.62499999930E+02  0.10000003402E+02 0.  0.
    3000022    2    3    3    0    0  0.19536480128E+02 -0.11209458801E+02  0.14287344280E+02  0.26674270907E+02  0.24999882007E+00 0.  0.
    1000022    2    1    0    0    0 -0.51981737798E+02  0.18711617275E+02 -0.27459501774E+02  0.62500000070E+02  0.10000004274E+02 0.  0.
    3000022    2    5    5    0    0 -0.30444017580E+02  0.13451672948E+02 -0.11701488754E+02  0.35281341380E+02  0.24999802030E+00 0.  0.
        -13    1    4    4    0    0  0.94698852414E+01 -0.53559167063E+01  0.69092546546E+01  0.12888498560E+02  0.10500000000E+00 0.  1.
         13    1    4    4    0    0  0.10066594887E+02 -0.58535420947E+01  0.73780896254E+01  0.13785772347E+02  0.10500000000E+00 0. -1.
    3000001    1    5    5    0    0 -0.21537720218E+02  0.52599443273E+01 -0.15758013020E+02  0.27218658690E+02  0.10000000000E+01 0. -1.
        -13    1    6    6    0    0 -0.11455454583E+02  0.51043999887E+01 -0.43604149527E+01  0.13278048897E+02  0.10500000000E+00 0.  1.
         13    1    6    6    0    0 -0.18988562996E+02  0.83472729593E+01 -0.73410738009E+01  0.22003292483E+02  0.10500000000E+00 0. -1.
</event>
<event>
11    0  0.3462209E-009  0.9118800E+02  0.7816531E-02  0.1126479E+00
         25   -1    0    0    0    0  0.00000000000E+00  0.00000000000E+00  0.99999998245E-14  0.12500000000E+03  0.12500000000E+03 0.  0.
    3000001    1    3    3    0    0 -0.18213463124E+02  0.52840223292E+02 -0.17733469944E+02  0.58645506160E+02  0.10000000000E+01 0. -1.
    1000022    2    1    0    0    0 -0.18319800915E+02  0.55101796688E+02 -0.20842901641E+02  0.62499995393E+02  0.99999885762E+01 0.  0.
    3000022    2    3    3    0    0 -0.10633779070E+00  0.22615733957E+01 -0.31094316975E+01  0.38544892329E+01  0.24999963086E+00 0.  0.
    1000022    2    1    0    0    0  0.18319800915E+02 -0.55101796688E+02  0.20842901641E+02  0.62500004607E+02  0.10000046161E+02 0.  0.
    3000022    2    5    5    0    0  0.18020996054E+02 -0.44402700312E+02  0.14730588288E+02  0.50133908936E+02  0.25000029463E+00 0.  0.
        -13    1    4    4    0    0 -0.89759353326E-01  0.16972110795E+01 -0.23669257825E+01  0.29158094673E+01  0.10500000000E+00 0.  1.
         13    1    4    4    0    0 -0.16578437371E-01  0.56436231614E+00 -0.74250591501E+00  0.93867976556E+00  0.10500000000E+00 0.  1.
    3000001    1    5    5    0    0  0.29880486090E+00 -0.10699096376E+02  0.61123133528E+01  0.12366095671E+02  0.10000000000E+01 0. -1.
        -13    1    6    6    0    0  0.75901793093E+01 -0.18785434444E+02  0.61686428799E+01  0.21179389726E+02  0.10500000000E+00 0.  1.
         13    1    6    6    0    0  0.10430816744E+02 -0.25617265868E+02  0.85619454086E+01  0.28954519210E+02  0.10500000000E+00 0. -1.
</event>
<event>
11    0  0.3462209E-009  0.9118800E+02  0.7816531E-02  0.1126479E+00
         25   -1    0    0    0    0  0.00000000000E+00  0.00000000000E+00  0.99999998245E-14  0.12500000000E+03  0.12500000000E+03 0.  0.
    3000001    1    3    3    0    0  0.33674128697E+01 -0.87905548158E+01  0.46030262098E+01  0.10526213645E+02  0.10000000000E+01 0.  1.
    1000022    2    1    0    0    0  0.26845432769E+02 -0.37227374363E+02  0.41227361251E+02  0.62500000733E+02  0.10000005671E+02 0.  0.
    3000022    2    3    3    0    0  0.23478019899E+02 -0.28436819547E+02  0.36624335041E+02  0.51973787088E+02  0.25000553271E+00 0.  0.
    1000022    2    1    0    0    0 -0.26845432769E+02  0.37227374363E+02 -0.41227361251E+02  0.62499999267E+02  0.99999965104E+01 0.  0.
    3000022    2    5    5    0    0 -0.21883759825E+02  0.32878159619E+02 -0.38890535732E+02  0.55429311833E+02  0.25003344030E+00 0.  0.
        -13    1    4    4    0    0  0.99838498875E+01 -0.12142511138E+02  0.15692948506E+02  0.22212552603E+02  0.10500000000E+00 0. -1.
         13    1    4    4    0    0  0.13494170012E+02 -0.16294308409E+02  0.20931386535E+02  0.29761234485E+02  0.10500000000E+00 0.  1.
    3000001    1    5    5    0    0 -0.49616729438E+01  0.43492147437E+01 -0.23368255185E+01  0.70706874342E+01  0.10000000000E+01 0. -1.
        -13    1    6    6    0    0 -0.16157388917E+02  0.24226968585E+02 -0.28701666754E+02  0.40887698919E+02  0.10500000000E+00 0.  1.
         13    1    6    6    0    0 -0.57263709084E+01  0.86511910337E+01 -0.10188868978E+02  0.14541612914E+02  0.10500000000E+00 0. -1.
</event>
<event>
11    0  0.3462209E-009  0.9118800E+02  0.7816531E-02  0.1126479E+00
         25   -1    0    0    0    0  0.00000000000E+00  0.00000000000E+00  0.99999998245E-14  0.12500000000E+03  0.12500000000E+03 0.  0.
    3000001    1    3    3    0    0 -0.20569246568E+02  0.17519528297E+02 -0.30798952232E+02  0.40982962737E+02  0.10000000000E+01 0. -1.
    1000022    2    1    0    0    0 -0.29524177844E+02  0.32592985630E+02 -0.43269738929E+02  0.62500000885E+02  0.10000000702E+02 0.  0.
    3000022    2    3    3    0    0 -0.89549312763E+01  0.15073457333E+02 -0.12470786697E+02  0.21517038148E+02  0.24999940824E+00 0.  0.
    1000022    2    1    0    0    0  0.29524177844E+02 -0.32592985630E+02  0.43269738929E+02  0.62499999115E+02  0.99999896377E+01 0.  0.
    3000022    2    5    5    0    0  0.19160087323E+02 -0.20489501970E+02  0.33844988577E+02  0.43959917987E+02  0.25000089363E+00 0.  0.
        -13    1    4    4    0    0 -0.39937610549E+01  0.67528662944E+01 -0.55010556238E+01  0.95824823783E+01  0.10500000000E+00 0.  1.
         13    1    4    4    0    0 -0.49611702214E+01  0.83205910382E+01 -0.69697310734E+01  0.11934555770E+02  0.10500000000E+00 0. -1.
    3000001    1    5    5    0    0  0.10364090522E+02 -0.12103483660E+02  0.94247503522E+01  0.18540081128E+02  0.10000000000E+01 0.  1.
        -13    1    6    6    0    0  0.76301520939E+01 -0.82438736639E+01  0.13512304270E+02  0.17571968178E+02  0.10500000000E+00 0. -1.
         13    1    6    6    0    0  0.11529935229E+02 -0.12245628306E+02  0.20332684306E+02  0.26387949808E+02  0.10500000000E+00 0.  1.
</event>
<event>
11    0  0.3462209E-009  0.9118800E+02  0.7816531E-02  0.1126479E+00
         25   -1    0    0    0    0  0.00000000000E+00  0.00000000000E+00  0.99999998245E-14  0.12500000000E+03  0.12500000000E+03 0.  0.
    3000001    1    3    3    0    0  0.16732022006E+02  0.22986539234E+02 -0.35319951245E+02  0.45352403490E+02  0.10000000000E+01 0.  1.
    1000022    2    1    0    0    0  0.18538683575E+02  0.35413081081E+02 -0.46994478381E+02  0.62499999736E+02  0.99999934226E+01 0.  0.
    3000022    2    3    3    0    0  0.18066615685E+01  0.12426541847E+02 -0.11674527136E+02  0.17147596247E+02  0.25000978827E+00 0.  0.
    1000022    2    1    0    0    0 -0.18538683575E+02 -0.35413081081E+02  0.46994478381E+02  0.62500000264E+02  0.99999967167E+01 0.  0.
    3000022    2    5    5    0    0 -0.96488710476E+01 -0.27444587745E+02  0.35492768611E+02  0.45892321906E+02  0.24995446322E+00 0.  0.
        -13    1    4    4    0    0  0.60575608641E+00  0.45116769668E+01 -0.41904099055E+01  0.61881119629E+01  0.10500000000E+00 0.  1.
         13    1    4    4    0    0  0.12009054821E+01  0.79148648800E+01 -0.74841172305E+01  0.10959484284E+02  0.10500000000E+00 0. -1.
    3000001    1    5    5    0    0 -0.88898125270E+01 -0.79684933362E+01  0.11501709770E+02  0.16607678358E+02  0.10000000000E+01 0. -1.
        -13    1    6    6    0    0 -0.33655735952E+01 -0.94313876558E+01  0.12264434449E+02  0.15833683592E+02  0.10500000000E+00 0.  1.
         13    1    6    6    0    0 -0.62832974523E+01 -0.18013200089E+02  0.23228334162E+02  0.30058638314E+02  0.10500000000E+00 0. -1.
</event>
<event>
11    0  0.3462209E-009  0.9118800E+02  0.7816531E-02  0.1126479E+00
         25   -1    0    0    0    0  0.00000000000E+00  0.00000000000E+00  0.99999998245E-14  0.12500000000E+03  0.12500000000E+03 0.  0.
    3000001    1    3    3    0    0  0.21478235126E+02 -0.29100156897E+00 -0.20290491368E+02  0.29565238135E+02  0.10000000000E+01 0. -1.
    1000022    2    1    0    0    0  0.43991261967E+02  0.96982381656E+01 -0.42154039726E+02  0.62499999944E+02  0.99999987415E+01 0.  0.
    3000022    2    3    3    0    0  0.22513026841E+02  0.99892397346E+01 -0.21863548357E+02  0.32934761809E+02  0.25000117110E+00 0.  0.
    1000022    2    1    0    0    0 -0.43991261967E+02 -0.96982381656E+01  0.42154039726E+02  0.62500000056E+02  0.99999994446E+01 0.  0.
    3000022    2    5    5    0    0 -0.17890933804E+02 -0.61346340849E+01  0.11787367506E+02  0.22287300745E+02  0.24998801856E+00 0.  0.
        -13    1    4    4    0    0  0.10001007009E+02  0.44905473697E+01 -0.96709448167E+01  0.14619280267E+02  0.10500000000E+00 0. -1.
         13    1    4    4    0    0  0.12512019832E+02  0.54986923649E+01 -0.12192603540E+02  0.18315481542E+02  0.10500000000E+00 0.  1.
    3000001    1    5    5    0    0 -0.26100328162E+02 -0.35636040807E+01  0.30366672220E+02  0.40212699312E+02  0.10000000000E+01 0.  1.
        -13    1    6    6    0    0 -0.74308974675E+01 -0.24816307612E+01  0.48991957074E+01  0.92406640447E+01  0.10500000000E+00 0.  1.
         13    1    6    6    0    0 -0.10460036337E+02 -0.36530033237E+01  0.68881717984E+01  0.13046636700E+02  0.10500000000E+00 0. -1.
</event>
<event>
11    0  0.3462209E-009  0.9118800E+02  0.7816531E-02  0.1126479E+00
         25   -1    0    0    0    0  0.00000000000E+00  0.00000000000E+00  0.99999998245E-14  0.12500000000E+03  0.12500000000E+03 0.  0.
    3000001    1    3    3    0    0  0.58148603106E+02 -0.23165102592E+01 -0.16654288063E+02  0.60539173878E+02  0.10000000000E+01 0.  1.
    1000022    2    1    0    0    0  0.59024536099E+02 -0.38063953588E+01 -0.17546095952E+02  0.62499999851E+02  0.99999995455E+01 0.  0.
    3000022    2    3    3    0    0  0.87593299342E+00 -0.14898850996E+01 -0.89180788846E+00  0.19608259733E+01  0.25000193704E+00 0.  0.
    1000022    2    1    0    0    0 -0.59024536099E+02  0.38063953588E+01  0.17546095952E+02  0.62500000149E+02  0.10000001403E+02 0.  0.
    3000022    2    5    5    0    0 -0.40638221211E+02  0.13438239252E+01  0.73887257952E+01  0.41327069276E+02  0.25000027103E+00 0.  0.
        -13    1    4    4    0    0  0.43795912301E+00 -0.87495242955E+00 -0.50192241477E+00  0.11046723758E+01  0.10500000000E+00 0. -1.
         13    1    4    4    0    0  0.43797387042E+00 -0.61493267009E+00 -0.38988547369E+00  0.85615359750E+00  0.10500000000E+00 0.  1.
    3000001    1    5    5    0    0 -0.18386314888E+02  0.24625714336E+01  0.10157370156E+02  0.21172930873E+02  0.10000000000E+01 0. -1.
        -13    1    6    6    0    0 -0.28970381752E+02  0.99331074929E+00  0.52442698985E+01  0.29458158070E+02  0.10500000000E+00 0.  1.
         13    1    6    6    0    0 -0.11667839459E+02  0.35051317592E+00  0.21444558967E+01  0.11868911207E+02  0.10500000000E+00 0. -1.
</event>
<event>
11    0  0.3462209E-009  0.9118800E+02  0.7816531E-02  0.1126479E+00
         25   -1    0    0    0    0  0.00000000000E+00  0.00000000000E+00  0.99999998245E-14  0.12500000000E+03  0.12500000000E+03 0.  0.
    3000001    1    3    3    0    0 -0.23216305878E+02  0.18261131800E+02 -0.45245463879E+02  0.54042740446E+02  0.10000000000E+01 0. -1.
    1000022    2    1    0    0    0 -0.24513524514E+02  0.18234560048E+02 -0.53598862147E+02  0.62500000414E+02  0.99999982029E+01 0.  0.
    3000022    2    3    3    0    0 -0.12972186366E+01 -0.26571752943E-01 -0.83533982674E+01  0.84572599679E+01  0.25000260355E+00 0.  0.
    1000022    2    1    0    0    0  0.24513524514E+02 -0.18234560048E+02  0.53598862147E+02  0.62499999586E+02  0.99999930309E+01 0.  0.
    3000022    2    5    5    0    0  0.36077604269E+01 -0.56472905268E+01  0.59880988013E+01  0.89904199542E+01  0.24999621378E+00 0.  0.
        -13    1    4    4    0    0 -0.68100297427E+00  0.51005158415E-01 -0.44890464861E+01  0.45419081818E+01  0.10500000000E+00 0.  1.
         13    1    4    4    0    0 -0.61621566231E+00 -0.77576911358E-01 -0.38643517813E+01  0.39153517862E+01  0.10500000000E+00 0. -1.
    3000001    1    5    5    0    0  0.20905764088E+02 -0.12587269521E+02  0.47610763345E+02  0.53509579632E+02  0.10000000000E+01 0. -1.
        -13    1    6    6    0    0  0.22430456391E+01 -0.35583488673E+01  0.36848760767E+01  0.55930704538E+01  0.10500000000E+00 0. -1.
         13    1    6    6    0    0  0.13647147878E+01 -0.20889416595E+01  0.23032227246E+01  0.33973495004E+01  0.10500000000E+00 0.  1.
</event>
<event>
11    0  0.3462209E-009  0.9118800E+02  0.7816531E-02  0.1126479E+00
         25   -1    0    0    0    0  0.00000000000E+00  0.00000000000E+00  0.99999998245E-14  0.12500000000E+03  0.12500000000E+03 0.  0.
    3000001    1    3    3    0    0  0.35197004991E+01  0.84898307783E+01  0.99230258952E+01  0.13562151790E+02  0.10000000000E+01 0.  1.
    1000022    2    1    0    0    0  0.25582823601E+02  0.23934893663E+02  0.50782775195E+02  0.62499999971E+02  0.99999870902E+01 0.  0.
    3000022    2    3    3    0    0  0.22063123101E+02  0.15445062885E+02  0.40859749300E+02  0.48937848182E+02  0.25000651746E+00 0.  0.
    1000022    2    1    0    0    0 -0.25582823601E+02 -0.23934893663E+02 -0.50782775195E+02  0.62500000029E+02  0.99999874507E+01 0.  0.
    3000022    2    5    5    0    0 -0.23905332452E+02 -0.17284177781E+02 -0.40930688306E+02  0.50453854820E+02  0.24999972639E+00 0.  0.
        -13    1    4    4    0    0  0.10661000991E+02  0.74395805172E+01  0.19841089781E+02  0.23720964759E+02  0.10500000000E+00 0. -1.
         13    1    4    4    0    0  0.11402122111E+02  0.80054823676E+01  0.21018659519E+02  0.25216883423E+02  0.10500000000E+00 0.  1.
    3000001    1    5    5    0    0 -0.16774911488E+01 -0.66507158825E+01 -0.98520868899E+01  0.12046145209E+02  0.10000000000E+01 0. -1.
        -13    1    6    6    0    0 -0.95755660723E+01 -0.68708692710E+01 -0.16273428953E+02  0.20093178570E+02  0.10500000000E+00 0.  1.
         13    1    6    6    0    0 -0.14329766379E+02 -0.10413308510E+02 -0.24657259353E+02  0.30360676250E+02  0.10500000000E+00 0. -1.
</event>
<event>
11    0  0.3462209E-009  0.9118800E+02  0.7816531E-02  0.1126479E+00
         25   -1    0    0    0    0  0.00000000000E+00  0.00000000000E+00  0.99999998245E-14  0.12500000000E+03  0.12500000000E+03 0.  0.
    3000001    1    3    3    0    0 -0.20926733757E+02  0.24114692288E+02  0.13749358807E+02  0.34777743421E+02  0.10000000000E+01 0.  1.
    1000022    2    1    0    0    0 -0.30865829600E+02  0.43925997864E+02  0.30398310694E+02  0.62500000701E+02  0.10000003472E+02 0.  0.
    3000022    2    3    3    0    0 -0.99390958431E+01  0.19811305575E+02  0.16648951888E+02  0.27722257280E+02  0.24998995702E+00 0.  0.
    1000022    2    1    0    0    0  0.30865829600E+02 -0.43925997864E+02 -0.30398310694E+02  0.62499999299E+02  0.99999947029E+01 0.  0.
    3000022    2    5    5    0    0  0.14934692568E+02 -0.28833935169E+02 -0.20523595186E+02  0.38415118359E+02  0.24999946998E+00 0.  0.
        -13    1    4    4    0    0 -0.62276812736E+01  0.12331940848E+02  0.10437130052E+02  0.17314892083E+02  0.10500000000E+00 0. -1.
         13    1    4    4    0    0 -0.37114145695E+01  0.74793647270E+01  0.62118218356E+01  0.10407365197E+02  0.10500000000E+00 0.  1.
    3000001    1    5    5    0    0  0.15931137032E+02 -0.15092062694E+02 -0.98747155079E+01  0.24084880939E+02  0.10000000000E+01 0. -1.
        -13    1    6    6    0    0  0.95804791799E+01 -0.18603702858E+02 -0.13190567139E+02  0.24736317991E+02  0.10500000000E+00 0. -1.
         13    1    6    6    0    0  0.53542133878E+01 -0.10230232312E+02 -0.73330280477E+01  0.13678800368E+02  0.10500000000E+00 0.  1.
</event>
<event>
11    0  0.3462209E-009  0.9118800E+02  0.7816531E-02  0.1126479E+00
         25   -1    0    0    0    0  0.00000000000E+00  0.00000000000E+00  0.99999998245E-14  0.12500000000E+03  0.12500000000E+03 0.  0.
    3000001    1    3    3    0    0  0.85006568720E+01  0.43099812646E+01  0.15363272509E+02  0.18107104902E+02  0.10000000000E+01 0. -1.
    1000022    2    1    0    0    0  0.40522631902E+02  0.17936022224E+02  0.42923950133E+02  0.62500002133E+02  0.10000009110E+02 0.  0.
    3000022    2    3    3    0    0  0.32021975030E+02  0.13626040959E+02  0.27560677624E+02  0.44392897231E+02  0.24999288601E+00 0.  0.
    1000022    2    1    0    0    0 -0.40522631902E+02 -0.17936022224E+02 -0.42923950133E+02  0.62499997867E+02  0.99999824435E+01 0.  0.
    3000022    2    5    5    0    0 -0.11033029642E+02 -0.97394574909E+01 -0.12160929613E+02  0.19092812443E+02  0.25000530209E+00 0.  0.
        -13    1    4    4    0    0  0.19791510975E+02  0.84868967363E+01  0.17068170267E+02  0.27478442171E+02  0.10500000000E+00 0.  1.
         13    1    4    4    0    0  0.12230464055E+02  0.51391442228E+01  0.10492507357E+02  0.16914455060E+02  0.10500000000E+00 0. -1.
    3000001    1    5    5    0    0 -0.29489602260E+02 -0.81965647328E+01 -0.30763020520E+02  0.43407185423E+02  0.10000000000E+01 0.  1.
        -13    1    6    6    0    0 -0.34902076954E+01 -0.30662196314E+01 -0.37766258526E+01  0.59880865404E+01  0.10500000000E+00 0.  1.
         13    1    6    6    0    0 -0.75428219464E+01 -0.66732378595E+01 -0.83843037605E+01  0.13104725903E+02  0.10500000000E+00 0. -1.
</event>
<event>
11    0  0.3462209E-009  0.9118800E+02  0.7816531E-02  0.1126479E+00
         25   -1    0    0    0    0  0.00000000000E+00  0.00000000000E+00  0.99999998245E-14  0.12500000000E+03  0.12500000000E+03 0.  0.
    3000001    1    3    3    0    0 -0.10949828728E+02 -0.11906697373E+02  0.27821168204E+02  0.32197602267E+02  0.10000000000E+01 0. -1.
    1000022    2    1    0    0    0 -0.27820544749E+02 -0.16247546536E+02  0.52614489992E+02  0.62500000454E+02  0.10000001051E+02 0.  0.
    3000022    2    3    3    0    0 -0.16870716022E+02 -0.43408491632E+01  0.24793321788E+02  0.30302398187E+02  0.25000011473E+00 0.  0.
    1000022    2    1    0    0    0  0.27820544749E+02  0.16247546536E+02 -0.52614489992E+02  0.62499999546E+02  0.99999953791E+01 0.  0.
    3000022    2    5    5    0    0  0.18783586756E+02  0.54990965455E+01 -0.28434661014E+02  0.34520365589E+02  0.24999839160E+00 0.  0.
        -13    1    4    4    0    0 -0.10578208348E+02 -0.26720640049E+01  0.15589875471E+02  0.19028758764E+02  0.10500000000E+00 0. -1.
         13    1    4    4    0    0 -0.62925076738E+01 -0.16687851584E+01  0.92034463168E+01  0.11273639423E+02  0.10500000000E+00 0.  1.
    3000001    1    5    5    0    0  0.90369579937E+01  0.10748449991E+02 -0.24179828977E+02  0.27979633957E+02  0.10000000000E+01 0.  1.
        -13    1    6    6    0    0  0.12616357869E+02  0.36607346486E+01 -0.19010185512E+02  0.23107826428E+02  0.10500000000E+00 0. -1.
         13    1    6    6    0    0  0.61672288863E+01  0.18383618969E+01 -0.94244755026E+01  0.11412539161E+02  0.10500000000E+00 0.  1.
</event>
<event>
11    0  0.3462209E-009  0.9118800E+02  0.7816531E-02  0.1126479E+00
         25   -1    0    0    0    0  0.00000000000E+00  0.00000000000E+00  0.99999998245E-14  0.12500000000E+03  0.12500000000E+03 0.  0.
    3000001    1    3    3    0    0 -0.20809895108E+01  0.87534422046E+01 -0.10820262746E+02  0.14107847237E+02  0.10000000000E+01 0.  1.
    1000022    2    1    0    0    0 -0.23225297353E+02  0.27522412985E+02 -0.50093434709E+02  0.62500001079E+02  0.10000014013E+02 0.  0.
    3000022    2    3    3    0    0 -0.21144307842E+02  0.18768970781E+02 -0.39273171963E+02  0.48392153842E+02  0.24999824989E+00 0.  0.
    1000022    2    1    0    0    0  0.23225297353E+02 -0.27522412985E+02  0.50093434709E+02  0.62499998921E+02  0.10000000527E+02 0.  0.
    3000022    2    5    5    0    0  0.22661241262E+02 -0.28014259185E+02  0.49104571799E+02  0.60906913295E+02  0.25008470884E+00 0.  0.
        -13    1    4    4    0    0 -0.63770543026E+01  0.57215618870E+01 -0.11884253911E+02  0.14650925159E+02  0.10500000000E+00 0.  1.
         13    1    4    4    0    0 -0.14767253539E+02  0.13047408894E+02 -0.27388918052E+02  0.33741228682E+02  0.10500000000E+00 0. -1.
    3000001    1    5    5    0    0  0.56405609057E+00  0.49184619944E+00  0.98886291016E+00  0.15930856262E+01  0.10000000000E+01 0.  1.
        -13    1    6    6    0    0  0.91493941676E+01 -0.11291666666E+02  0.19700565074E+02  0.24481348798E+02  0.10500000000E+00 0.  1.
         13    1    6    6    0    0  0.13511847094E+02 -0.16722592519E+02  0.29404006725E+02  0.36425564497E+02  0.10500000000E+00 0. -1.
</event>
<event>
11    0  0.3462209E-009  0.9118800E+02  0.7816531E-02  0.1126479E+00
         25   -1    0    0    0    0  0.00000000000E+00  0.00000000000E+00  0.99999998245E-14  0.12500000000E+03  0.12500000000E+03 0.  0.
    3000001    1    3    3    0    0  0.53794903490E+01  0.22891409634E+02  0.54571263445E+01  0.24160624566E+02  0.10000000000E+01 0. -1.
    1000022    2    1    0    0    0  0.63307718931E+01  0.56642724970E+02  0.23617215907E+02  0.62499998293E+02  0.99999967314E+01 0.  0.
    3000022    2    3    3    0    0  0.95128154418E+00  0.33751315336E+02  0.18160089562E+02  0.38339373727E+02  0.25000284452E+00 0.  0.
    1000022    2    1    0    0    0 -0.63307718931E+01 -0.56642724970E+02 -0.23617215907E+02  0.62500001707E+02  0.10000018069E+02 0.  0.
    3000022    2    5    5    0    0 -0.66797728508E+01 -0.17998157900E+02 -0.73614634911E+01  0.20562263901E+02  0.24999772853E+00 0.  0.
        -13    1    4    4    0    0  0.40493232512E+00  0.14842155068E+02  0.79122294560E+01  0.16824622944E+02  0.10500000000E+00 0. -1.
         13    1    4    4    0    0  0.54634921906E+00  0.18909160267E+02  0.10247860106E+02  0.21514750783E+02  0.10500000000E+00 0.  1.
    3000001    1    5    5    0    0  0.34900095763E+00 -0.38644567070E+02 -0.16255752416E+02  0.41937737806E+02  0.10000000000E+01 0. -1.
        -13    1    6    6    0    0 -0.30415323353E+01 -0.82148304305E+01 -0.32877342516E+01  0.93570604068E+01  0.10500000000E+00 0. -1.
         13    1    6    6    0    0 -0.36382405155E+01 -0.97833274699E+01 -0.40737292395E+01  0.11205203494E+02  0.10500000000E+00 0.  1.
</event>
<event>
11    0  0.3462209E-009  0.9118800E+02  0.7816531E-02  0.1126479E+00
         25   -1    0    0    0    0  0.00000000000E+00  0.00000000000E+00  0.99999998245E-14  0.12500000000E+03  0.12500000000E+03 0.  0.
    3000001    1    3    3    0    0 -0.55415468878E+01  0.28904575156E+01  0.69020932897E+01  0.93649547964E+01  0.10000000000E+01 0.  1.
    1000022    2    1    0    0    0 -0.42480445078E+02  0.33914028584E+02  0.29180480243E+02  0.62500001514E+02  0.10000010660E+02 0.  0.
    3000022    2    3    3    0    0 -0.36938898191E+02  0.31023571069E+02  0.22278386953E+02  0.53135046718E+02  0.25000615376E+00 0.  0.
    1000022    2    1    0    0    0  0.42480445078E+02 -0.33914028584E+02 -0.29180480243E+02  0.62499998486E+02  0.99999917302E+01 0.  0.
    3000022    2    5    5    0    0  0.14893508139E+02 -0.15637572083E+02 -0.15946932984E+02  0.26846180667E+02  0.24999898434E+00 0.  0.
        -13    1    4    4    0    0 -0.19746166915E+02  0.16553072403E+02  0.11830618407E+02  0.28352951711E+02  0.10500000000E+00 0.  1.
         13    1    4    4    0    0 -0.17192731275E+02  0.14470498666E+02  0.10447768547E+02  0.24782095007E+02  0.10500000000E+00 0. -1.
    3000001    1    5    5    0    0  0.27586936940E+02 -0.18276456501E+02 -0.13233547259E+02  0.35653817818E+02  0.10000000000E+01 0. -1.
        -13    1    6    6    0    0  0.10048459824E+02 -0.10474766636E+02 -0.10712512318E+02  0.18040543952E+02  0.10500000000E+00 0. -1.
         13    1    6    6    0    0  0.48450483143E+01 -0.51628054473E+01 -0.52344206663E+01  0.88056367156E+01  0.10500000000E+00 0.  1.
</event>
<event>
11    0  0.3462209E-009  0.9118800E+02  0.7816531E-02  0.1126479E+00
         25   -1    0    0    0    0  0.00000000000E+00  0.00000000000E+00  0.99999998245E-14  0.12500000000E+03  0.12500000000E+03 0.  0.
    3000001    1    3    3    0    0 -0.81165594799E+00  0.17970753345E+01 -0.23219724224E+01  0.32062160043E+01  0.10000000000E+01 0. -1.
    1000022    2    1    0    0    0 -0.47972898262E+02  0.16234673063E+02 -0.35231897537E+02  0.62499998827E+02  0.99999836086E+01 0.  0.
    3000022    2    3    3    0    0 -0.47161242314E+02  0.14437597729E+02 -0.32909925114E+02  0.59293782822E+02  0.25001117105E+00 0.  0.
    1000022    2    1    0    0    0  0.47972898262E+02 -0.16234673063E+02  0.35231897537E+02  0.62500001173E+02  0.99999982762E+01 0.  0.
    3000022    2    5    5    0    0  0.25945935619E+02 -0.90580747411E+01  0.25008579753E+02  0.37158200266E+02  0.24998512174E+00 0.  0.
        -13    1    4    4    0    0 -0.35610830213E+02  0.10878838451E+02 -0.24854744787E+02  0.44768847628E+02  0.10500000000E+00 0.  1.
         13    1    4    4    0    0 -0.11550412100E+02  0.35587592772E+01 -0.80551803277E+01  0.14524935194E+02  0.10500000000E+00 0. -1.
    3000001    1    5    5    0    0  0.22026962642E+02 -0.71765983221E+01  0.10223317784E+02  0.25341800908E+02  0.10000000000E+01 0.  1.
        -13    1    6    6    0    0  0.75009943636E+01 -0.25759856504E+01  0.71995338133E+01  0.10711906023E+02  0.10500000000E+00 0.  1.
         13    1    6    6    0    0  0.18444941256E+02 -0.64820890907E+01  0.17809045940E+02  0.26446294243E+02  0.10500000000E+00 0. -1.
</event>
<event>
11    0  0.3462209E-009  0.9118800E+02  0.7816531E-02  0.1126479E+00
         25   -1    0    0    0    0  0.00000000000E+00  0.00000000000E+00  0.99999998245E-14  0.12500000000E+03  0.12500000000E+03 0.  0.
    3000001    1    3    3    0    0  0.11278754970E+02  0.36228171712E+02 -0.44123010942E+02  0.58202498520E+02  0.10000000000E+01 0.  1.
    1000022    2    1    0    0    0  0.12717750270E+02  0.40155339135E+02 -0.45078351241E+02  0.62500002679E+02  0.10000007565E+02 0.  0.
    3000022    2    3    3    0    0  0.14389953001E+01  0.39271674222E+01 -0.95534029858E+00  0.42975041593E+01  0.25003095221E+00 0.  0.
    1000022    2    1    0    0    0 -0.12717750270E+02 -0.40155339135E+02  0.45078351241E+02  0.62499997321E+02  0.99999740796E+01 0.  0.
    3000022    2    5    5    0    0 -0.11072814684E+02 -0.35038807740E+02  0.43209793320E+02  0.56722782135E+02  0.25000313284E+00 0.  0.
        -13    1    4    4    0    0  0.90628648932E+00  0.23315588738E+01 -0.61229512414E+00  0.25774895348E+01  0.10500000000E+00 0. -1.
         13    1    4    4    0    0  0.53270881082E+00  0.15956085484E+01 -0.34304517444E+00  0.17200146245E+01  0.10500000000E+00 0.  1.
    3000001    1    5    5    0    0 -0.16449355863E+01 -0.51165313950E+01  0.18685579207E+01  0.57772151858E+01  0.10000000000E+01 0. -1.
        -13    1    6    6    0    0 -0.80354971410E+01 -0.25418788672E+02  0.31288840742E+02  0.41105797789E+02  0.10500000000E+00 0. -1.
         13    1    6    6    0    0 -0.30373175428E+01 -0.96200190676E+01  0.11920952578E+02  0.15616984347E+02  0.10500000000E+00 0.  1.
</event>
<event>
11    0  0.3462209E-009  0.9118800E+02  0.7816531E-02  0.1126479E+00
         25   -1    0    0    0    0  0.00000000000E+00  0.00000000000E+00  0.99999998245E-14  0.12500000000E+03  0.12500000000E+03 0.  0.
    3000001    1    3    3    0    0 -0.17614454839E+01  0.93462561404E+00  0.27357908039E+00  0.22474565056E+01  0.10000000000E+01 0. -1.
    1000022    2    1    0    0    0 -0.58671305222E+02 -0.16882664815E+02  0.88827788674E+01  0.62499998269E+02  0.99999797725E+01 0.  0.
    3000022    2    3    3    0    0 -0.56909859738E+02 -0.17817290429E+02  0.86091997870E+01  0.60252541763E+02  0.24998856617E+00 0.  0.
    1000022    2    1    0    0    0  0.58671305222E+02  0.16882664815E+02 -0.88827788674E+01  0.62500001731E+02  0.10000001416E+02 0.  0.
    3000022    2    5    5    0    0  0.32360658597E+02  0.13759196582E+02 -0.26622852229E+01  0.35265818784E+02  0.24999299511E+00 0.  0.
        -13    1    4    4    0    0 -0.16016604629E+02 -0.50191802944E+01  0.24635287458E+01  0.16964780976E+02  0.10500000000E+00 0. -1.
         13    1    4    4    0    0 -0.40893255109E+02 -0.12798110135E+02  0.61456710412E+01  0.43287760787E+02  0.10500000000E+00 0.  1.
    3000001    1    5    5    0    0  0.26310646625E+02  0.31234682332E+01 -0.62204936445E+01  0.27234182948E+02  0.10000000000E+01 0.  1.
        -13    1    6    6    0    0  0.21390173851E+02  0.91472026893E+01 -0.17865799484E+01  0.23332675529E+02  0.10500000000E+00 0.  1.
         13    1    6    6    0    0  0.10970484745E+02  0.46119938927E+01 -0.87570527446E+00  0.11933143255E+02  0.10500000000E+00 0. -1.
</event>
<event>
11    0  0.3462209E-009  0.9118800E+02  0.7816531E-02  0.1126479E+00
         25   -1    0    0    0    0  0.00000000000E+00  0.00000000000E+00  0.99999998245E-14  0.12500000000E+03  0.12500000000E+03 0.  0.
    3000001    1    3    3    0    0 -0.47147659629E+02  0.21752469126E+02  0.13492617691E+02  0.53657454782E+02  0.10000000000E+01 0. -1.
    1000022    2    1    0    0    0 -0.54997410541E+02  0.25394191034E+02  0.11690576798E+02  0.62499998036E+02  0.10000003210E+02 0.  0.
    3000022    2    3    3    0    0 -0.78497509115E+01  0.36417219083E+01 -0.18020408924E+01  0.88425432539E+01  0.24998397916E+00 0.  0.
    1000022    2    1    0    0    0  0.54997410541E+02 -0.25394191034E+02 -0.11690576798E+02  0.62500001964E+02  0.10000027756E+02 0.  0.
    3000022    2    5    5    0    0  0.40503806993E+02 -0.21585766653E+02 -0.12135085852E+02  0.47474482725E+02  0.24999706182E+00 0.  0.
        -13    1    4    4    0    0 -0.42863832010E+01  0.19562241747E+01 -0.91970959775E+00  0.48017480892E+01  0.10500000000E+00 0. -1.
         13    1    4    4    0    0 -0.35633677105E+01  0.16854977335E+01 -0.88233129463E+00  0.40407951647E+01  0.10500000000E+00 0.  1.
    3000001    1    5    5    0    0  0.14493603548E+02 -0.38084243813E+01  0.44450905372E+00  0.15025519238E+02  0.10000000000E+01 0.  1.
        -13    1    6    6    0    0  0.16372374774E+02 -0.87707619029E+01 -0.49618534542E+01  0.19225294141E+02  0.10500000000E+00 0. -1.
         13    1    6    6    0    0  0.24131432218E+02 -0.12815004750E+02 -0.71732323977E+01  0.28249188584E+02  0.10500000000E+00 0.  1.
</event>
<event>
11    0  0.3462209E-009  0.9118800E+02  0.7816531E-02  0.1126479E+00
         25   -1    0    0    0    0  0.00000000000E+00  0.00000000000E+00  0.99999998245E-14  0.12500000000E+03  0.12500000000E+03 0.  0.
    3000001    1    3    3    0    0  0.60284880575E+01 -0.42725793415E+00  0.28931967600E+01  0.67746442780E+01  0.10000000000E+01 0.  1.
    1000022    2    1    0    0    0  0.53848460476E+02  0.22487453849E+02  0.20022676370E+02  0.62500000716E+02  0.10000012212E+02 0.  0.
    3000022    2    3    3    0    0  0.47819972419E+02  0.22914711783E+02  0.17129479610E+02  0.55725356438E+02  0.25000045778E+00 0.  0.
    1000022    2    1    0    0    0 -0.53848460476E+02 -0.22487453849E+02 -0.20022676370E+02  0.62499999284E+02  0.10000003260E+02 0.  0.
    3000022    2    5    5    0    0 -0.18776145265E+02 -0.11015700890E+02 -0.11472741836E+02  0.24608446257E+02  0.25004969322E+00 0.  0.
        -13    1    4    4    0    0  0.13091752152E+02  0.62946099730E+01  0.47265088644E+01  0.15276354283E+02  0.10500000000E+00 0.  1.
         13    1    4    4    0    0  0.34728220266E+02  0.16620101810E+02  0.12402970745E+02  0.40449002155E+02  0.10500000000E+00 0. -1.
    3000001    1    5    5    0    0 -0.35072315211E+02 -0.11471752959E+02 -0.85499345337E+01  0.37891553026E+02  0.10000000000E+01 0.  1.
        -13    1    6    6    0    0 -0.12750830122E+02 -0.75311679381E+01 -0.78338111256E+01  0.16753560251E+02  0.10500000000E+00 0.  1.
         13    1    6    6    0    0 -0.60253151427E+01 -0.34845329522E+01 -0.36389307103E+01  0.78548860067E+01  0.10500000000E+00 0. -1.
</event>
<event>
11    0  0.3462209E-009  0.9118800E+02  0.7816531E-02  0.1126479E+00
         25   -1    0    0    0    0  0.00000000000E+00  0.00000000000E+00  0.99999998245E-14  0.12500000000E+03  0.12500000000E+03 0.  0.
    3000001    1    3    3    0    0 -0.14048000004E+02  0.20958927841E+02 -0.25875268937E+02  0.36154564067E+02  0.10000000000E+01 0. -1.
    1000022    2    1    0    0    0 -0.26249649158E+02  0.40925870652E+02 -0.37977350620E+02  0.62499999032E+02  0.99999874714E+01 0.  0.
    3000022    2    3    3    0    0 -0.12201649155E+02  0.19966942810E+02 -0.12102081683E+02  0.26345434965E+02  0.25003029029E+00 0.  0.
    1000022    2    1    0    0    0  0.26249649158E+02 -0.40925870652E+02  0.37977350620E+02  0.62500000968E+02  0.99999995673E+01 0.  0.
    3000022    2    5    5    0    0  0.24133676954E+02 -0.36307577635E+02  0.37104924800E+02  0.57249563312E+02  0.24999611325E+00 0.  0.
        -13    1    4    4    0    0 -0.54120884521E+01  0.89598760335E+01 -0.53697656943E+01  0.11765011201E+02  0.10500000000E+00 0. -1.
         13    1    4    4    0    0 -0.67895607027E+01  0.11007066777E+02 -0.67323159889E+01  0.14580423764E+02  0.10500000000E+00 0.  1.
    3000001    1    5    5    0    0  0.21159722048E+01 -0.46182930170E+01  0.87242581988E+00  0.52504376554E+01  0.10000000000E+01 0.  1.
        -13    1    6    6    0    0  0.13239068112E+02 -0.20036513922E+02  0.20451278167E+02  0.31543630391E+02  0.10500000000E+00 0. -1.
         13    1    6    6    0    0  0.10894608842E+02 -0.16271063713E+02  0.16653646633E+02  0.25705932921E+02  0.10500000000E+00 0.  1.
</event>
<event>
11    0  0.3462209E-009  0.9118800E+02  0.7816531E-02  0.1126479E+00
         25   -1    0    0    0    0  0.00000000000E+00  0.00000000000E+00  0.99999998245E-14  0.12500000000E+03  0.12500000000E+03 0.  0.
    3000001    1    3    3    0    0 -0.33521046394E+02  0.18923444637E+02  0.22662018140E+02  0.44680245909E+02  0.10000000000E+01 0. -1.
    1000022    2    1    0    0    0 -0.42990285291E+02  0.25137035581E+02  0.36417232293E+02  0.62499999761E+02  0.99999987502E+01 0.  0.
    3000022    2    3    3    0    0 -0.94692388964E+01  0.62135909437E+01  0.13755214154E+02  0.17819753852E+02  0.25002646968E+00 0.  0.
    1000022    2    1    0    0    0  0.42990285291E+02 -0.25137035581E+02 -0.36417232293E+02  0.62500000239E+02  0.10000001743E+02 0.  0.
    3000022    2    5    5    0    0  0.99693874171E+01 -0.44118916449E+01 -0.34608332944E+01  0.11440862737E+02  0.24999942580E+00 0.  0.
        -13    1    4    4    0    0 -0.37912873777E+01  0.24348926124E+01  0.54024872946E+01  0.70356560449E+01  0.10500000000E+00 0. -1.
         13    1    4    4    0    0 -0.56779515188E+01  0.37786983312E+01  0.83527268591E+01  0.10784097807E+02  0.10500000000E+00 0.  1.
    3000001    1    5    5    0    0  0.33020897873E+02 -0.20725143936E+02 -0.32956398999E+02  0.51059137503E+02  0.10000000000E+01 0. -1.
        -13    1    6    6    0    0  0.36707630370E+01 -0.15743029755E+01 -0.12291271149E+01  0.41802762585E+01  0.10500000000E+00 0. -1.
         13    1    6    6    0    0  0.62986243800E+01 -0.28375886695E+01 -0.22317061795E+01  0.72605864784E+01  0.10500000000E+00 0.  1.
</event>
<event>
11    0  0.3462209E-009  0.9118800E+02  0.7816531E-02  0.1126479E+00
         25   -1    0    0    0    0  0.00000000000E+00  0.00000000000E+00  0.99999998245E-14  0.12500000000E+03  0.12500000000E+03 0.  0.
    3000001    1    3    3    0    0  0.87019752381E+01 -0.16675542593E+01 -0.20982675160E+01  0.91601220964E+01  0.10000000000E+01 0. -1.
    1000022    2    1    0    0    0  0.59399777695E+02 -0.14158458325E+02  0.88008251194E+01  0.62500000034E+02  0.99999974568E+01 0.  0.
    3000022    2    3    3    0    0  0.50697802457E+02 -0.12490904066E+02  0.10899092635E+02  0.53339877938E+02  0.24999960933E+00 0.  0.
    1000022    2    1    0    0    0 -0.59399777695E+02  0.14158458325E+02 -0.88008251194E+01  0.62499999966E+02  0.99999970272E+01 0.  0.
    3000022    2    5    5    0    0 -0.22843648282E+02  0.56106914263E+00 -0.37787389008E+01  0.23162219903E+02  0.24999550250E+00 0.  0.
        -13    1    4    4    0    0  0.13709559686E+02 -0.33792883371E+01  0.29843222502E+01  0.14432214686E+02  0.10500000000E+00 0. -1.
         13    1    4    4    0    0  0.36988242771E+02 -0.91116157287E+01  0.79147703853E+01  0.38907663252E+02  0.10500000000E+00 0.  1.
    3000001    1    5    5    0    0 -0.36556129413E+02  0.13597389183E+02 -0.50220862186E+01  0.39337780063E+02  0.10000000000E+01 0.  1.
        -13    1    6    6    0    0 -0.53496071546E+01  0.13354966469E+00 -0.87147139453E+00  0.54227870705E+01  0.10500000000E+00 0.  1.
         13    1    6    6    0    0 -0.17494041127E+02  0.42751947795E+00 -0.29072675063E+01  0.17739432832E+02  0.10500000000E+00 0. -1.
</event>
<event>
11    0  0.3462209E-009  0.9118800E+02  0.7816531E-02  0.1126479E+00
         25   -1    0    0    0    0  0.00000000000E+00  0.00000000000E+00  0.99999998245E-14  0.12500000000E+03  0.12500000000E+03 0.  0.
    3000001    1    3    3    0    0  0.44149989576E+02  0.40776122355E+02 -0.11168065986E+02  0.61136236650E+02  0.10000000000E+01 0.  1.
    1000022    2    1    0    0    0  0.43923988712E+02  0.41993288476E+02 -0.10653494786E+02  0.62500000116E+02  0.10000000097E+02 0.  0.
    3000022    2    3    3    0    0 -0.22600086434E+00  0.12171661205E+01  0.51457119982E+00  0.13637634654E+01  0.24999502850E+00 0.  0.
    1000022    2    1    0    0    0 -0.43923988712E+02 -0.41993288476E+02  0.10653494786E+02  0.62499999884E+02  0.99999986526E+01 0.  0.
    3000022    2    5    5    0    0 -0.41426497918E+02 -0.36820367892E+02  0.11507198366E+02  0.56607175652E+02  0.24999927915E+00 0.  0.
        -13    1    4    4    0    0 -0.68672187553E-01  0.40793972627E+00  0.23340445985E+00  0.48644972144E+00  0.10500000000E+00 0. -1.
         13    1    4    4    0    0 -0.15732867678E+00  0.80922639423E+00  0.28116673997E+00  0.87731374395E+00  0.10500000000E+00 0.  1.
    3000001    1    5    5    0    0 -0.24974907940E+01 -0.51729205833E+01 -0.85370358022E+00  0.58928242321E+01  0.10000000000E+01 0.  1.
        -13    1    6    6    0    0 -0.11456740303E+02 -0.10215057318E+02  0.31560262446E+01  0.15670858976E+02  0.10500000000E+00 0. -1.
         13    1    6    6    0    0 -0.29969757614E+02 -0.26605310574E+02  0.83511721218E+01  0.40936316676E+02  0.10500000000E+00 0.  1.
</event>
<event>
11    0  0.3462209E-009  0.9118800E+02  0.7816531E-02  0.1126479E+00
         25   -1    0    0    0    0  0.00000000000E+00  0.00000000000E+00  0.99999998245E-14  0.12500000000E+03  0.12500000000E+03 0.  0.
    3000001    1    3    3    0    0 -0.58142864089E+01  0.56560249017E+01 -0.10012893994E+02  0.12924959972E+02  0.10000000000E+01 0. -1.
    1000022    2    1    0    0    0 -0.24828773680E+02  0.42472202054E+02 -0.37227597713E+02  0.62499996165E+02  0.99999769754E+01 0.  0.
    3000022    2    3    3    0    0 -0.19014487271E+02  0.36816177152E+02 -0.27214703719E+02  0.49575036194E+02  0.24997775158E+00 0.  0.
    1000022    2    1    0    0    0  0.24828773680E+02 -0.42472202054E+02  0.37227597713E+02  0.62500003835E+02  0.10000024907E+02 0.  0.
    3000022    2    5    5    0    0  0.12014943966E+02 -0.15022864069E+02  0.19472234628E+02  0.27372901677E+02  0.25000294533E+00 0.  0.
        -13    1    4    4    0    0 -0.10007586516E+02  0.19497764364E+02 -0.14439819894E+02  0.26245647766E+02  0.10500000000E+00 0.  1.
         13    1    4    4    0    0 -0.90069007548E+01  0.17318412787E+02 -0.12774883825E+02  0.23329388428E+02  0.10500000000E+00 0. -1.
    3000001    1    5    5    0    0  0.12813829714E+02 -0.27449337984E+02  0.17755363085E+02  0.35127102157E+02  0.10000000000E+01 0. -1.
        -13    1    6    6    0    0  0.41033322237E+01 -0.52173868127E+01  0.67011972169E+01  0.94326841159E+01  0.10500000000E+00 0.  1.
         13    1    6    6    0    0  0.79116117424E+01 -0.98054772566E+01  0.12771037411E+02  0.17940217561E+02  0.10500000000E+00 0. -1.
</event>
<event>
11    0  0.3462209E-009  0.9118800E+02  0.7816531E-02  0.1126479E+00
         25   -1    0    0    0    0  0.00000000000E+00  0.00000000000E+00  0.99999998245E-14  0.12500000000E+03  0.12500000000E+03 0.  0.
    3000001    1    3    3    0    0  0.14893560462E+02  0.79431029598E+01  0.13617343072E+02  0.21710436666E+02  0.10000000000E+01 0. -1.
    1000022    2    1    0    0    0  0.33921414639E+02  0.32963476432E+02  0.39610568771E+02  0.62500001458E+02  0.99999937144E+01 0.  0.
    3000022    2    3    3    0    0  0.19027854177E+02  0.25020373472E+02  0.25993225699E+02  0.40789564792E+02  0.24998090212E+00 0.  0.
    1000022    2    1    0    0    0 -0.33921414639E+02 -0.32963476432E+02 -0.39610568771E+02  0.62499998542E+02  0.99999754910E+01 0.  0.
    3000022    2    5    5    0    0 -0.32763652271E+02 -0.32725280855E+02 -0.36282010399E+02  0.58828969848E+02  0.24999531094E+00 0.  0.
        -13    1    4    4    0    0  0.14032055818E+02  0.18499505016E+02  0.19217647860E+02  0.30140658430E+02  0.10500000000E+00 0.  1.
         13    1    4    4    0    0  0.49957983588E+01  0.65208684555E+01  0.67755778388E+01  0.10648906362E+02  0.10500000000E+00 0. -1.
    3000001    1    5    5    0    0 -0.11577623684E+01 -0.23819557639E+00 -0.33285583721E+01  0.36710286938E+01  0.10000000000E+01 0.  1.
        -13    1    6    6    0    0 -0.21514227190E+02 -0.21502410728E+02 -0.23762538687E+02  0.38599027301E+02  0.10500000000E+00 0.  1.
         13    1    6    6    0    0 -0.11249425080E+02 -0.11222870127E+02 -0.12519471712E+02  0.20229942547E+02  0.10500000000E+00 0. -1.
</event>
<event>
11    0  0.3462209E-009  0.9118800E+02  0.7816531E-02  0.1126479E+00
         25   -1    0    0    0    0  0.00000000000E+00  0.00000000000E+00  0.99999998245E-14  0.12500000000E+03  0.12500000000E+03 0.  0.
    3000001    1    3    3    0    0 -0.42909406004E+02 -0.73387228934E+01 -0.32530987284E+02  0.54353832532E+02  0.10000000000E+01 0. -1.
    1000022    2    1    0    0    0 -0.46401427764E+02 -0.80708377396E+01 -0.39849958493E+02  0.62500000222E+02  0.99999957780E+01 0.  0.
    3000022    2    3    3    0    0 -0.34920217600E+01 -0.73211484619E+00 -0.73189712099E+01  0.81461676904E+01  0.25000069553E+00 0.  0.
    1000022    2    1    0    0    0  0.46401427764E+02  0.80708377396E+01  0.39849958493E+02  0.62499999778E+02  0.99999929968E+01 0.  0.
    3000022    2    5    5    0    0  0.23785877395E+02  0.31587512535E+01  0.13966202214E+02  0.27764419297E+02  0.25000346974E+00 0.  0.
        -13    1    4    4    0    0 -0.23012810740E+01 -0.53809419285E+00 -0.48412291198E+01  0.53883173934E+01  0.10500000000E+00 0. -1.
         13    1    4    4    0    0 -0.11907406861E+01 -0.19402065334E+00 -0.24777420901E+01  0.27578502969E+01  0.10500000000E+00 0.  1.
    3000001    1    5    5    0    0  0.22615550369E+02  0.49120864861E+01  0.25883756280E+02  0.34735580480E+02  0.10000000000E+01 0. -1.
        -13    1    6    6    0    0  0.91345158090E+01  0.12673076638E+01  0.53336146173E+01  0.10653821740E+02  0.10500000000E+00 0.  1.
         13    1    6    6    0    0  0.14651361586E+02  0.18914435897E+01  0.86325875964E+01  0.17110597558E+02  0.10500000000E+00 0. -1.
</event>
<event>
11    0  0.3462209E-009  0.9118800E+02  0.7816531E-02  0.1126479E+00
         25   -1    0    0    0    0  0.00000000000E+00  0.00000000000E+00  0.99999998245E-14  0.12500000000E+03  0.12500000000E+03 0.  0.
    3000001    1    3    3    0    0 -0.12764433239E+02 -0.45637091679E+01  0.93957189974E+01  0.16523853448E+02  0.10000000000E+01 0.  1.
    1000022    2    1    0    0    0 -0.52162540019E+02 -0.15941205070E+01  0.32905596673E+02  0.62500000805E+02  0.10000000340E+02 0.  0.
    3000022    2    3    3    0    0 -0.39398106780E+02  0.29695886608E+01  0.23509877676E+02  0.45976147357E+02  0.25000569613E+00 0.  0.
    1000022    2    1    0    0    0  0.52162540019E+02  0.15941205070E+01 -0.32905596673E+02  0.62499999195E+02  0.99999902754E+01 0.  0.
    3000022    2    5    5    0    0  0.31318272528E+01 -0.12634942634E+01 -0.48919457012E+01  0.59496552762E+01  0.25001093275E+00 0.  0.
        -13    1    4    4    0    0 -0.14276947505E+02  0.11306986631E+01  0.84971617096E+01  0.16653002482E+02  0.10500000000E+00 0.  1.
         13    1    4    4    0    0 -0.25121159275E+02  0.18388899977E+01  0.15012715966E+02  0.29323144876E+02  0.10500000000E+00 0. -1.
    3000001    1    5    5    0    0  0.49030712766E+02  0.28576147704E+01 -0.28013650972E+02  0.56550343919E+02  0.10000000000E+01 0. -1.
        -13    1    6    6    0    0  0.20394849426E+01 -0.88235110473E+00 -0.32104139747E+01  0.39058706061E+01  0.10500000000E+00 0. -1.
         13    1    6    6    0    0  0.10923423102E+01 -0.38114315864E+00 -0.16815317266E+01  0.20437846701E+01  0.10500000000E+00 0.  1.
</event>
<event>
11    0  0.3462209E-009  0.9118800E+02  0.7816531E-02  0.1126479E+00
         25   -1    0    0    0    0  0.00000000000E+00  0.00000000000E+00  0.99999998245E-14  0.12500000000E+03  0.12500000000E+03 0.  0.
    3000001    1    3    3    0    0  0.19766338109E+01 -0.15746615691E+01 -0.22308208591E+02  0.22473157562E+02  0.10000000000E+01 0.  1.
    1000022    2    1    0    0    0 -0.83158421167E+00  0.71247956472E+01 -0.61276388125E+02  0.62500000565E+02  0.10000004183E+02 0.  0.
    3000022    2    3    3    0    0 -0.28082180226E+01  0.86994572162E+01 -0.38968179535E+02  0.40026843003E+02  0.25000050781E+00 0.  0.
    1000022    2    1    0    0    0  0.83158421167E+00 -0.71247956472E+01  0.61276388125E+02  0.62499999435E+02  0.99999971160E+01 0.  0.
    3000022    2    5    5    0    0 -0.18228410854E+01  0.20197022737E+01  0.13446680049E+02  0.13721430467E+02  0.25000563172E+00 0.  0.
        -13    1    4    4    0    0 -0.13597043714E+01  0.44129926425E+01 -0.19559213045E+02  0.20097192340E+02  0.10500000000E+00 0.  1.
         13    1    4    4    0    0 -0.14485136512E+01  0.42864645737E+01 -0.19408966490E+02  0.19929650663E+02  0.10500000000E+00 0. -1.
    3000001    1    5    5    0    0  0.26544252970E+01 -0.91444979209E+01  0.47829708077E+02  0.48778568968E+02  0.10000000000E+01 0.  1.
        -13    1    6    6    0    0 -0.58513451049E+00  0.63452306626E+00  0.45346615804E+01  0.46172700339E+01  0.10500000000E+00 0.  1.
         13    1    6    6    0    0 -0.12377065749E+01  0.13851792075E+01  0.89120184684E+01  0.91041604326E+01  0.10500000000E+00 0. -1.
</event>
<event>
11    0  0.3462209E-009  0.9118800E+02  0.7816531E-02  0.1126479E+00
         25   -1    0    0    0    0  0.00000000000E+00  0.00000000000E+00  0.99999998245E-14  0.12500000000E+03  0.12500000000E+03 0.  0.
    3000001    1    3    3    0    0 -0.38721423339E+02 -0.22426801618E+02 -0.20619632418E+02  0.49279603258E+02  0.10000000000E+01 0.  1.
    1000022    2    1    0    0    0 -0.45517908384E+02 -0.32098883832E+02 -0.26533605862E+02  0.62500004401E+02  0.99999991634E+01 0.  0.
    3000022    2    3    3    0    0 -0.67964850448E+01 -0.96720822141E+01 -0.59139734432E+01  0.13220401143E+02  0.25008235390E+00 0.  0.
    1000022    2    1    0    0    0  0.45517908384E+02  0.32098883832E+02  0.26533605862E+02  0.62499995599E+02  0.99999441471E+01 0.  0.
    3000022    2    5    5    0    0  0.45504852926E+02  0.31811388222E+02  0.25781408091E+02  0.61216007415E+02  0.25000034730E+00 0.  0.
        -13    1    4    4    0    0 -0.47777802853E+01 -0.68251951911E+01 -0.42144637810E+01  0.93371946436E+01  0.10500000000E+00 0.  1.
         13    1    4    4    0    0 -0.20187047595E+01 -0.28468870230E+01 -0.16995096622E+01  0.38832064998E+01  0.10500000000E+00 0. -1.
    3000001    1    5    5    0    0  0.13055457297E-01  0.28749560972E+00  0.75219777050E+00  0.12839881839E+01  0.10000000000E+01 0.  1.
        -13    1    6    6    0    0  0.30234500989E+02  0.21148637936E+02  0.17074602194E+02  0.40656401730E+02  0.10500000000E+00 0.  1.
         13    1    6    6    0    0  0.15270351938E+02  0.10662750286E+02  0.87068058967E+01  0.20559605684E+02  0.10500000000E+00 0. -1.
</event>
<event>
11    0  0.3462209E-009  0.9118800E+02  0.7816531E-02  0.1126479E+00
         25   -1    0    0    0    0  0.00000000000E+00  0.00000000000E+00  0.99999998245E-14  0.12500000000E+03  0.12500000000E+03 0.  0.
    3000001    1    3    3    0    0  0.86015499748E+00 -0.68397770324E+00 -0.83801676409E+01  0.85108696270E+01  0.10000000000E+01 0. -1.
    1000022    2    1    0    0    0 -0.15943074705E+02 -0.13908501207E+02 -0.57953619667E+02  0.62499999959E+02  0.99999962745E+01 0.  0.
    3000022    2    3    3    0    0 -0.16803229703E+02 -0.13224523504E+02 -0.49573452026E+02  0.53989130332E+02  0.24999576293E+00 0.  0.
    1000022    2    1    0    0    0  0.15943074705E+02  0.13908501207E+02  0.57953619667E+02  0.62500000041E+02  0.99999967840E+01 0.  0.
    3000022    2    5    5    0    0  0.14979790279E+02  0.87115608823E+01  0.49821999046E+02  0.52750161091E+02  0.24999266545E+00 0.  0.
        -13    1    4    4    0    0 -0.65057337070E+01 -0.50440717500E+01 -0.19049629972E+02  0.20752509678E+02  0.10500000000E+00 0. -1.
         13    1    4    4    0    0 -0.10297495996E+02 -0.81804517540E+01 -0.30523822055E+02  0.33236620654E+02  0.10500000000E+00 0.  1.
    3000001    1    5    5    0    0  0.96328442593E+00  0.51969403249E+01  0.81316206209E+01  0.97498389499E+01  0.10000000000E+01 0.  1.
        -13    1    6    6    0    0  0.96448261872E+01  0.56051568257E+01  0.32245929928E+02  0.34121129482E+02  0.10500000000E+00 0. -1.
         13    1    6    6    0    0  0.53349640919E+01  0.31064040566E+01  0.17576069118E+02  0.18629031608E+02  0.10500000000E+00 0.  1.
</event>
<event>
11    0  0.3462209E-009  0.9118800E+02  0.7816531E-02  0.1126479E+00
         25   -1    0    0    0    0  0.00000000000E+00  0.00000000000E+00  0.99999998245E-14  0.12500000000E+03  0.12500000000E+03 0.  0.
    3000001    1    3    3    0    0  0.27622254372E+02 -0.16160962894E+01 -0.10332590591E+02  0.29552717847E+02  0.10000000000E+01 0.  1.
    1000022    2    1    0    0    0  0.60536352637E+02 -0.16136928296E+01 -0.11789656991E+02  0.62500000176E+02  0.10000000749E+02 0.  0.
    3000022    2    3    3    0    0  0.32914098265E+02  0.24034597935E-02 -0.14570663995E+01  0.32947282330E+02  0.25000009224E+00 0.  0.
    1000022    2    1    0    0    0 -0.60536352637E+02  0.16136928296E+01  0.11789656991E+02  0.62499999824E+02  0.99999985444E+01 0.  0.
    3000022    2    5    5    0    0 -0.29338041792E+02  0.24890429069E+01  0.99862668791E+00  0.29461428845E+02  0.25000707624E+00 0.  0.
        -13    1    4    4    0    0  0.21103506884E+02 -0.10489133499E-01 -0.99092491035E+00  0.21127022271E+02  0.10500000000E+00 0. -1.
         13    1    4    4    0    0  0.11810591381E+02  0.12892593292E-01 -0.46614148912E+00  0.11820260059E+02  0.10500000000E+00 0.  1.
    3000001    1    5    5    0    0 -0.31198310845E+02 -0.87535007727E+00  0.10791030303E+02  0.33038570979E+02  0.10000000000E+01 0. -1.
        -13    1    6    6    0    0 -0.14828775000E+02  0.12675262979E+01  0.57197542212E+00  0.14894205981E+02  0.10500000000E+00 0. -1.
         13    1    6    6    0    0 -0.14509266791E+02  0.12215166090E+01  0.42665126578E+00  0.14567222863E+02  0.10500000000E+00 0.  1.
</event>
<event>
11    0  0.3462209E-009  0.9118800E+02  0.7816531E-02  0.1126479E+00
         25   -1    0    0    0    0  0.00000000000E+00  0.00000000000E+00  0.99999998245E-14  0.12500000000E+03  0.12500000000E+03 0.  0.
    3000001    1    3    3    0    0  0.26751665748E+02  0.23245291370E+02 -0.21295475790E+02  0.41358100540E+02  0.10000000000E+01 0.  1.
    1000022    2    1    0    0    0  0.44986554884E+02  0.31297147403E+02 -0.28336340671E+02  0.62499998667E+02  0.10000003745E+02 0.  0.
    3000022    2    3    3    0    0  0.18234889136E+02  0.80518560331E+01 -0.70408648812E+01  0.21141898127E+02  0.25002154946E+00 0.  0.
    1000022    2    1    0    0    0 -0.44986554884E+02 -0.31297147403E+02  0.28336340671E+02  0.62500001333E+02  0.10000020406E+02 0.  0.
    3000022    2    5    5    0    0 -0.92665574310E+01 -0.29123217013E+01  0.77831577966E+01  0.12449528064E+02  0.24999884648E+00 0.  0.
        -13    1    4    4    0    0  0.67242243077E+01  0.29633096485E+01 -0.26583716649E+01  0.78150087346E+01  0.10500000000E+00 0. -1.
         13    1    4    4    0    0  0.11510664828E+02  0.50885463847E+01 -0.43824932163E+01  0.13326889393E+02  0.10500000000E+00 0.  1.
    3000001    1    5    5    0    0 -0.35719997453E+02 -0.28384825702E+02  0.20553182874E+02  0.50050473269E+02  0.10000000000E+01 0. -1.
        -13    1    6    6    0    0 -0.66181986839E+01 -0.21154484898E+01  0.55964892990E+01  0.89222975519E+01  0.10500000000E+00 0. -1.
         13    1    6    6    0    0 -0.26483587471E+01 -0.79687321151E+00  0.21866684976E+01  0.35272305124E+01  0.10500000000E+00 0.  1.
</event>
<event>
11    0  0.3462209E-009  0.9118800E+02  0.7816531E-02  0.1126479E+00
         25   -1    0    0    0    0  0.00000000000E+00  0.00000000000E+00  0.99999998245E-14  0.12500000000E+03  0.12500000000E+03 0.  0.
    3000001    1    3    3    0    0 -0.95537868440E+00  0.91104960810E+00  0.33015768286E+01  0.36936661157E+01  0.10000000000E+01 0.  1.
    1000022    2    1    0    0    0 -0.54194621685E+01  0.46438416430E+02  0.40253612087E+02  0.62499997258E+02  0.99999640269E+01 0.  0.
    3000022    2    3    3    0    0 -0.44640834841E+01  0.45527366822E+02  0.36952035258E+02  0.58806331143E+02  0.25000330557E+00 0.  0.
    1000022    2    1    0    0    0  0.54194621685E+01 -0.46438416430E+02 -0.40253612087E+02  0.62500002742E+02  0.99999982962E+01 0.  0.
    3000022    2    5    5    0    0  0.98264562214E+00 -0.12009873350E+02 -0.51051187208E+01  0.13089209330E+02  0.25002683718E+00 0.  0.
        -13    1    4    4    0    0 -0.13847829957E+01  0.14640745519E+02  0.11888732215E+02  0.18910897175E+02  0.10500000000E+00 0. -1.
         13    1    4    4    0    0 -0.30793004884E+01  0.30886621303E+02  0.25063303043E+02  0.39895433967E+02  0.10500000000E+00 0.  1.
    3000001    1    5    5    0    0  0.44368165464E+01 -0.34428543080E+02 -0.35148493366E+02  0.49410793412E+02  0.10000000000E+01 0. -1.
        -13    1    6    6    0    0  0.32552255591E+00 -0.43284818225E+01 -0.18942890894E+01  0.47372012810E+01  0.10500000000E+00 0.  1.
         13    1    6    6    0    0  0.65712306624E+00 -0.76813915278E+01 -0.32108296314E+01  0.83520080490E+01  0.10500000000E+00 0. -1.
</event>
<event>
11    0  0.3462209E-009  0.9118800E+02  0.7816531E-02  0.1126479E+00
         25   -1    0    0    0    0  0.00000000000E+00  0.00000000000E+00  0.99999998245E-14  0.12500000000E+03  0.12500000000E+03 0.  0.
    3000001    1    3    3    0    0  0.12005759264E+02 -0.13692425455E+01 -0.11310775410E+02  0.16581517452E+02  0.10000000000E+01 0. -1.
    1000022    2    1    0    0    0  0.40018133671E+02  0.99469879538E+01 -0.45889600880E+02  0.62500008965E+02  0.10000102988E+02 0.  0.
    3000022    2    3    3    0    0  0.28012374407E+02  0.11316230499E+02 -0.34578825470E+02  0.45918491512E+02  0.24999843780E+00 0.  0.
    1000022    2    1    0    0    0 -0.40018133671E+02 -0.99469879538E+01  0.45889600880E+02  0.62499991035E+02  0.99999909319E+01 0.  0.
    3000022    2    5    5    0    0 -0.35042056053E+02 -0.95732089982E+01  0.34835399608E+02  0.50330503580E+02  0.25000361953E+00 0.  0.
        -13    1    4    4    0    0  0.10637814357E+02  0.42440554093E+01 -0.13162419145E+02  0.17448077354E+02  0.10500000000E+00 0. -1.
         13    1    4    4    0    0  0.17374560051E+02  0.70721750899E+01 -0.21416406325E+02  0.28470414158E+02  0.10500000000E+00 0.  1.
    3000001    1    5    5    0    0 -0.49760776180E+01 -0.37377895552E+00  0.11054201272E+02  0.12169487456E+02  0.10000000000E+01 0. -1.
        -13    1    6    6    0    0 -0.24328534176E+02 -0.66605447710E+01  0.24125561531E+02  0.34904071052E+02  0.10500000000E+00 0.  1.
         13    1    6    6    0    0 -0.10713521878E+02 -0.29126642272E+01  0.10709838077E+02  0.15426432528E+02  0.10500000000E+00 0. -1.
</event>
<event>
11    0  0.3462209E-009  0.9118800E+02  0.7816531E-02  0.1126479E+00
         25   -1    0    0    0    0  0.00000000000E+00  0.00000000000E+00  0.99999998245E-14  0.12500000000E+03  0.12500000000E+03 0.  0.
    3000001    1    3    3    0    0  0.21396176359E+02 -0.14280612969E+02  0.67596143195E+01  0.26616247957E+02  0.10000000000E+01 0.  1.
    1000022    2    1    0    0    0  0.45743900549E+02 -0.31966193977E+02  0.26304163469E+02  0.62499995635E+02  0.99999221856E+01 0.  0.
    3000022    2    3    3    0    0  0.24347724190E+02 -0.17685581008E+02  0.19544549150E+02  0.35883747678E+02  0.24999423111E+00 0.  0.
    1000022    2    1    0    0    0 -0.45743900549E+02  0.31966193977E+02 -0.26304163469E+02  0.62500004365E+02  0.99999767492E+01 0.  0.
    3000022    2    5    5    0    0 -0.35769453757E+02  0.22709735373E+02 -0.15574720526E+02  0.45142223385E+02  0.25001967557E+00 0.  0.
        -13    1    4    4    0    0  0.15037706902E+02 -0.10954338706E+02  0.12016741635E+02  0.22148211437E+02  0.10500000000E+00 0. -1.
         13    1    4    4    0    0  0.93100172884E+01 -0.67312423021E+01  0.75278075145E+01  0.13735536241E+02  0.10500000000E+00 0.  1.
    3000001    1    5    5    0    0 -0.99744467922E+01  0.92564586034E+01 -0.10729442944E+02  0.17357780980E+02  0.10000000000E+01 0. -1.
        -13    1    6    6    0    0 -0.24701386707E+02  0.15650238821E+02 -0.10791458783E+02  0.31169778442E+02  0.10500000000E+00 0.  1.
         13    1    6    6    0    0 -0.11068067050E+02  0.70594965520E+01 -0.47832617425E+01  0.13972444943E+02  0.10500000000E+00 0. -1.
</event>
<event>
11    0  0.3462209E-009  0.9118800E+02  0.7816531E-02  0.1126479E+00
         25   -1    0    0    0    0  0.00000000000E+00  0.00000000000E+00  0.99999998245E-14  0.12500000000E+03  0.12500000000E+03 0.  0.
    3000001    1    3    3    0    0 -0.42170122970E+02  0.37667306200E+02  0.65552505042E+01  0.56930804815E+02  0.10000000000E+01 0. -1.
    1000022    2    1    0    0    0 -0.45567437257E+02  0.41380594264E+02  0.41839264826E+01  0.62499999587E+02  0.99999893879E+01 0.  0.
    3000022    2    3    3    0    0 -0.33973142865E+01  0.37132880632E+01 -0.23713240216E+01  0.55691947715E+01  0.25000037247E+00 0.  0.
    1000022    2    1    0    0    0  0.45567437257E+02 -0.41380594264E+02 -0.41839264826E+01  0.62500000413E+02  0.99999945557E+01 0.  0.
    3000022    2    5    5    0    0  0.41512859728E+02 -0.33937712443E+02 -0.18504327076E+01  0.53652329424E+02  0.25000559471E+00 0.  0.
        -13    1    4    4    0    0 -0.26153264054E+01  0.28659056898E+01 -0.18269877711E+01  0.42897851865E+01  0.10500000000E+00 0.  1.
         13    1    4    4    0    0 -0.78198788105E+00  0.84738237333E+00 -0.54433625047E+00  0.12794095851E+01  0.10500000000E+00 0. -1.
    3000001    1    5    5    0    0  0.40545775289E+01 -0.74428818211E+01 -0.23334937750E+01  0.88476709895E+01  0.10000000000E+01 0. -1.
        -13    1    6    6    0    0  0.19098437594E+02 -0.15666223670E+02 -0.90571652362E+00  0.24718661575E+02  0.10500000000E+00 0. -1.
         13    1    6    6    0    0  0.22414422134E+02 -0.18271488772E+02 -0.94471618394E+00  0.28933667849E+02  0.10500000000E+00 0.  1.
</event>
<event>
11    0  0.3462209E-009  0.9118800E+02  0.7816531E-02  0.1126479E+00
         25   -1    0    0    0    0  0.00000000000E+00  0.00000000000E+00  0.99999998245E-14  0.12500000000E+03  0.12500000000E+03 0.  0.
    3000001    1    3    3    0    0  0.25986740385E+02 -0.18363197741E+02 -0.16508833835E+02  0.35861668976E+02  0.10000000000E+01 0. -1.
    1000022    2    1    0    0    0  0.46737950148E+02 -0.34518522510E+02 -0.20743323291E+02  0.62499998959E+02  0.10000001421E+02 0.  0.
    3000022    2    3    3    0    0  0.20751209763E+02 -0.16155324770E+02 -0.42344894562E+01  0.26638329984E+02  0.24999669296E+00 0.  0.
    1000022    2    1    0    0    0 -0.46737950148E+02  0.34518522510E+02  0.20743323291E+02  0.62500001041E+02  0.10000014428E+02 0.  0.
    3000022    2    5    5    0    0 -0.31973861511E+02  0.28978270552E+02  0.15500031995E+02  0.45851733603E+02  0.24999694480E+00 0.  0.
        -13    1    4    4    0    0  0.76741733865E+01 -0.59313932913E+01 -0.15125126038E+01  0.98169793174E+01  0.10500000000E+00 0.  1.
         13    1    4    4    0    0  0.13077036376E+02 -0.10223931478E+02 -0.27219768524E+01  0.16821350667E+02  0.10500000000E+00 0. -1.
    3000001    1    5    5    0    0 -0.14764088637E+02  0.55402519587E+01  0.52432912966E+01  0.16648267438E+02  0.10000000000E+01 0.  1.
        -13    1    6    6    0    0 -0.13506660075E+02  0.12235721906E+02  0.64774494788E+01  0.19341952685E+02  0.10500000000E+00 0. -1.
         13    1    6    6    0    0 -0.18467201436E+02  0.16742548646E+02  0.90225825158E+01  0.26509780917E+02  0.10500000000E+00 0.  1.
</event>
<event>
11    0  0.3462209E-009  0.9118800E+02  0.7816531E-02  0.1126479E+00
         25   -1    0    0    0    0  0.00000000000E+00  0.00000000000E+00  0.99999998245E-14  0.12500000000E+03  0.12500000000E+03 0.  0.
    3000001    1    3    3    0    0  0.44088006673E+01  0.19520469191E+01  0.39201219406E+01  0.62940739213E+01  0.10000000000E+01 0.  1.
    1000022    2    1    0    0    0  0.57169335751E+02 -0.29003315754E-01  0.23193024418E+02  0.62499998201E+02  0.99999801024E+01 0.  0.
    3000022    2    3    3    0    0  0.52760535084E+02 -0.19810502348E+01  0.19272902477E+02  0.56205924280E+02  0.25006370328E+00 0.  0.
    1000022    2    1    0    0    0 -0.57169335751E+02  0.29003315754E-01 -0.23193024418E+02  0.62500001799E+02  0.10000002589E+02 0.  0.
    3000022    2    5    5    0    0 -0.27464563658E+02  0.36164157754E+00 -0.58407703328E+01  0.28082203276E+02  0.25000239759E+00 0.  0.
        -13    1    4    4    0    0  0.12331178787E+02 -0.45328442048E+00  0.44949458344E+01  0.13133126059E+02  0.10500000000E+00 0.  1.
         13    1    4    4    0    0  0.40429356297E+02 -0.15277658143E+01  0.14777956643E+02  0.43072798220E+02  0.10500000000E+00 0. -1.
    3000001    1    5    5    0    0 -0.29704772093E+02 -0.33263826178E+00 -0.17352254085E+02  0.34417798523E+02  0.10000000000E+01 0. -1.
        -13    1    6    6    0    0 -0.18919731793E+02  0.24632848539E+00 -0.39737814229E+01  0.19334396620E+02  0.10500000000E+00 0.  1.
         13    1    6    6    0    0 -0.85448318648E+01  0.11531309214E+00 -0.18669889098E+01  0.87478066563E+01  0.10500000000E+00 0. -1.
</event>
<event>
11    0  0.3462209E-009  0.9118800E+02  0.7816531E-02  0.1126479E+00
         25   -1    0    0    0    0  0.00000000000E+00  0.00000000000E+00  0.99999998245E-14  0.12500000000E+03  0.12500000000E+03 0.  0.
    3000001    1    3    3    0    0  0.71324666039E+01  0.50134356791E+01  0.54292212566E+01  0.10319062972E+02  0.10000000000E+01 0. -1.
    1000022    2    1    0    0    0  0.51962677621E+02  0.10461508685E+02  0.31570346030E+02  0.62500000343E+02  0.10000013249E+02 0.  0.
    3000022    2    3    3    0    0  0.44830211017E+02  0.54480730060E+01  0.26141124773E+02  0.52180937372E+02  0.25000249529E+00 0.  0.
    1000022    2    1    0    0    0 -0.51962677621E+02 -0.10461508685E+02 -0.31570346030E+02  0.62499999657E+02  0.10000008957E+02 0.  0.
    3000022    2    5    5    0    0 -0.48864859969E+02 -0.11930115492E+02 -0.30228936307E+02  0.58685204747E+02  0.24994096341E+00 0.  0.
        -13    1    4    4    0    0  0.16096252749E+02  0.20078445858E+01  0.94207913422E+01  0.18758548104E+02  0.10500000000E+00 0.  1.
         13    1    4    4    0    0  0.28733958268E+02  0.34402284202E+01  0.16720333431E+02  0.33422389268E+02  0.10500000000E+00 0. -1.
    3000001    1    5    5    0    0 -0.30978176522E+01  0.14686068072E+01 -0.13414097228E+01  0.38147949099E+01  0.10000000000E+01 0. -1.
        -13    1    6    6    0    0 -0.28272373567E+02 -0.69604042393E+01 -0.17535875373E+02  0.33989590824E+02  0.10500000000E+00 0. -1.
         13    1    6    6    0    0 -0.20592486402E+02 -0.49697112530E+01 -0.12693060934E+02  0.24695613923E+02  0.10500000000E+00 0.  1.
</event>
<event>
11    0  0.3462209E-009  0.9118800E+02  0.7816531E-02  0.1126479E+00
         25   -1    0    0    0    0  0.00000000000E+00  0.00000000000E+00  0.99999998245E-14  0.12500000000E+03  0.12500000000E+03 0.  0.
    3000001    1    3    3    0    0 -0.26689074675E+01 -0.32116255694E+02 -0.26396505422E+02  0.41669562577E+02  0.10000000000E+01 0.  1.
    1000022    2    1    0    0    0 -0.10745866176E+01 -0.51401482514E+02 -0.34102533501E+02  0.62500001696E+02  0.10000013990E+02 0.  0.
    3000022    2    3    3    0    0  0.15943208499E+01 -0.19285226820E+02 -0.77060280785E+01  0.20830439119E+02  0.24998532598E+00 0.  0.
    1000022    2    1    0    0    0  0.10745866176E+01  0.51401482514E+02  0.34102533501E+02  0.62499998304E+02  0.99999927900E+01 0.  0.
    3000022    2    5    5    0    0 -0.41615507495E+01  0.16738230955E+02  0.12612116529E+02  0.21368548478E+02  0.25000114695E+00 0.  0.
        -13    1    4    4    0    0  0.10082880395E+01 -0.11770724135E+02 -0.47593173298E+01  0.12736903779E+02  0.10500000000E+00 0.  1.
         13    1    4    4    0    0  0.58603281045E+00 -0.75145026853E+01 -0.29467107487E+01  0.80935353400E+01  0.10500000000E+00 0. -1.
    3000001    1    5    5    0    0  0.52361373671E+01  0.34663251559E+02  0.21490416972E+02  0.41131449826E+02  0.10000000000E+01 0.  1.
        -13    1    6    6    0    0 -0.25919997952E+01  0.10255634217E+02  0.77917400361E+01  0.13138444882E+02  0.10500000000E+00 0.  1.
         13    1    6    6    0    0 -0.15695509542E+01  0.64825967375E+01  0.48203764929E+01  0.82301035955E+01  0.10500000000E+00 0. -1.
</event>
<event>
11    0  0.3462209E-009  0.9118800E+02  0.7816531E-02  0.1126479E+00
         25   -1    0    0    0    0  0.00000000000E+00  0.00000000000E+00  0.99999998245E-14  0.12500000000E+03  0.12500000000E+03 0.  0.
    3000001    1    3    3    0    0  0.16924042689E+00  0.35981381477E+02  0.29512832749E+01  0.36116457860E+02  0.10000000000E+01 0. -1.
    1000022    2    1    0    0    0  0.51334946793E+01  0.61454770975E+02 -0.17912318017E+01  0.62500000914E+02  0.99999979828E+01 0.  0.
    3000022    2    3    3    0    0  0.49642542524E+01  0.25473389498E+02 -0.47425150765E+01  0.26383543055E+02  0.25000415210E+00 0.  0.
    1000022    2    1    0    0    0 -0.51334946793E+01 -0.61454770975E+02  0.17912318017E+01  0.62499999086E+02  0.99999865539E+01 0.  0.
    3000022    2    5    5    0    0 -0.39282925559E+01 -0.10957520843E+02 -0.20917067383E+01  0.11829475161E+02  0.25000015155E+00 0.  0.
        -13    1    4    4    0    0  0.16862760382E+01  0.84648532845E+01 -0.16173855540E+01  0.87820401409E+01  0.10500000000E+00 0.  1.
         13    1    4    4    0    0  0.32779782142E+01  0.17008536213E+02 -0.31251295225E+01  0.17601502914E+02  0.10500000000E+00 0. -1.
    3000001    1    5    5    0    0 -0.12052021234E+01 -0.50497250133E+02  0.38829385400E+01  0.50670523925E+02  0.10000000000E+01 0. -1.
        -13    1    6    6    0    0 -0.94035915937E+00 -0.25926599100E+01 -0.48252720210E+00  0.28017884035E+01  0.10500000000E+00 0.  1.
         13    1    6    6    0    0 -0.29879333965E+01 -0.83648609326E+01 -0.16091795362E+01  0.90276867571E+01  0.10500000000E+00 0. -1.
</event>
<event>
11    0  0.3462209E-009  0.9118800E+02  0.7816531E-02  0.1126479E+00
         25   -1    0    0    0    0  0.00000000000E+00  0.00000000000E+00  0.99999998245E-14  0.12500000000E+03  0.12500000000E+03 0.  0.
    3000001    1    3    3    0    0  0.20157036023E+02 -0.24774888219E+02 -0.82435094587E+01  0.33000858105E+02  0.10000000000E+01 0. -1.
    1000022    2    1    0    0    0  0.35668679035E+02 -0.49838293390E+02 -0.70809499029E+01  0.62500000321E+02  0.10000001822E+02 0.  0.
    3000022    2    3    3    0    0  0.15511643012E+02 -0.25063405172E+02  0.11625595557E+01  0.29499142216E+02  0.24999805115E+00 0.  0.
    1000022    2    1    0    0    0 -0.35668679035E+02  0.49838293390E+02  0.70809499029E+01  0.62499999679E+02  0.99999978056E+01 0.  0.
    3000022    2    5    5    0    0 -0.10842583187E+02  0.12077545898E+02  0.59356886735E+01  0.17283623116E+02  0.25000574559E+00 0.  0.
        -13    1    4    4    0    0  0.97868001408E+01 -0.15729285046E+02  0.77084871357E+00  0.18541766307E+02  0.10500000000E+00 0. -1.
         13    1    4    4    0    0  0.57248428712E+01 -0.93341201254E+01  0.39171084214E+00  0.10957375908E+02  0.10500000000E+00 0.  1.
    3000001    1    5    5    0    0 -0.24826095848E+02  0.37760747492E+02  0.11452612295E+01  0.45216376563E+02  0.10000000000E+01 0. -1.
        -13    1    6    6    0    0 -0.60581467103E+01  0.68236097984E+01  0.32915192932E+01  0.97009234871E+01  0.10500000000E+00 0. -1.
         13    1    6    6    0    0 -0.47844364767E+01  0.52539361000E+01  0.26441693802E+01  0.75826996284E+01  0.10500000000E+00 0.  1.
</event>
<event>
11    0  0.3462209E-009  0.9118800E+02  0.7816531E-02  0.1126479E+00
         25   -1    0    0    0    0  0.00000000000E+00  0.00000000000E+00  0.99999998245E-14  0.12500000000E+03  0.12500000000E+03 0.  0.
    3000001    1    3    3    0    0 -0.39935365961E+02 -0.12932255292E+02  0.56420286624E+01  0.42366368369E+02  0.10000000000E+01 0.  1.
    1000022    2    1    0    0    0 -0.56415720696E+02 -0.20277123318E+02  0.14572394930E+02  0.62499999995E+02  0.10000001678E+02 0.  0.
    3000022    2    3    3    0    0 -0.16480354736E+02 -0.73448680260E+01  0.89303662679E+01  0.20133631626E+02  0.25000443970E+00 0.  0.
    1000022    2    1    0    0    0  0.56415720696E+02  0.20277123318E+02 -0.14572394930E+02  0.62500000005E+02  0.10000001746E+02 0.  0.
    3000022    2    5    5    0    0  0.51774826552E+02  0.16615513981E+02 -0.15229531943E+02  0.56468656004E+02  0.24999693516E+00 0.  0.
        -13    1    4    4    0    0 -0.98837617722E+01 -0.43376838928E+01  0.53253783864E+01  0.12036400138E+02  0.10500000000E+00 0. -1.
         13    1    4    4    0    0 -0.65965929635E+01 -0.30071841332E+01  0.36049878815E+01  0.80972314875E+01  0.10500000000E+00 0.  1.
    3000001    1    5    5    0    0  0.46408941447E+01  0.36616093378E+01  0.65713701242E+00  0.60313440010E+01  0.10000000000E+01 0. -1.
        -13    1    6    6    0    0  0.19345712786E+02  0.62321103412E+01 -0.57503668236E+01  0.21122820505E+02  0.10500000000E+00 0. -1.
         13    1    6    6    0    0  0.32429113766E+02  0.10383403639E+02 -0.94791651191E+01  0.35345835499E+02  0.10500000000E+00 0.  1.
</event>
<event>
11    0  0.3462209E-009  0.9118800E+02  0.7816531E-02  0.1126479E+00
         25   -1    0    0    0    0  0.00000000000E+00  0.00000000000E+00  0.99999998245E-14  0.12500000000E+03  0.12500000000E+03 0.  0.
    3000001    1    3    3    0    0  0.22868191302E+02 -0.32666388717E+02  0.20495048483E+02  0.44845224245E+02  0.10000000000E+01 0. -1.
    1000022    2    1    0    0    0  0.27644654352E+02 -0.44233810885E+02  0.32945304557E+02  0.62500003793E+02  0.10000022105E+02 0.  0.
    3000022    2    3    3    0    0  0.47764630494E+01 -0.11567422168E+02  0.12450256074E+02  0.17654779548E+02  0.25001941217E+00 0.  0.
    1000022    2    1    0    0    0 -0.27644654352E+02  0.44233810885E+02 -0.32945304557E+02  0.62499996207E+02  0.99999746936E+01 0.  0.
    3000022    2    5    5    0    0 -0.20170304502E+02  0.36494239399E+02 -0.22109760090E+02  0.47197189394E+02  0.25000484303E+00 0.  0.
        -13    1    4    4    0    0  0.12935487523E+01 -0.30639751319E+01  0.32786464903E+01  0.46713766485E+01  0.10500000000E+00 0. -1.
         13    1    4    4    0    0  0.34829142972E+01 -0.85034470364E+01  0.91716095832E+01  0.12983402899E+02  0.10500000000E+00 0.  1.
    3000001    1    5    5    0    0 -0.74743498497E+01  0.77395714859E+01 -0.10835544467E+02  0.15302806813E+02  0.10000000000E+01 0.  1.
        -13    1    6    6    0    0 -0.87675653839E+01  0.15727498188E+02 -0.95465776717E+01  0.20380691163E+02  0.10500000000E+00 0.  1.
         13    1    6    6    0    0 -0.11402739118E+02  0.20766741211E+02 -0.12563182418E+02  0.26816498231E+02  0.10500000000E+00 0. -1.
</event>
<event>
11    0  0.3462209E-009  0.9118800E+02  0.7816531E-02  0.1126479E+00
         25   -1    0    0    0    0  0.00000000000E+00  0.00000000000E+00  0.99999998245E-14  0.12500000000E+03  0.12500000000E+03 0.  0.
    3000001    1    3    3    0    0  0.27773237982E+01 -0.60797442903E+01 -0.51418780226E+01  0.84920979572E+01  0.10000000000E+01 0.  1.
    1000022    2    1    0    0    0  0.30971219462E+02 -0.50645335872E+02 -0.16795340656E+02  0.62499999113E+02  0.99999970383E+01 0.  0.
    3000022    2    3    3    0    0  0.28193895664E+02 -0.44565591582E+02 -0.11653462634E+02  0.54007901156E+02  0.24998025737E+00 0.  0.
    1000022    2    1    0    0    0 -0.30971219462E+02  0.50645335872E+02  0.16795340656E+02  0.62500000887E+02  0.10000008128E+02 0.  0.
    3000022    2    5    5    0    0 -0.20800480526E+02  0.24885742107E+02  0.77447643904E+01  0.33346724361E+02  0.24999966009E+00 0.  0.
        -13    1    4    4    0    0  0.20458754528E+02 -0.32310665051E+02 -0.84864766268E+01  0.39173601103E+02  0.10500000000E+00 0.  1.
         13    1    4    4    0    0  0.77351411351E+01 -0.12254926531E+02 -0.31669860067E+01  0.14834300052E+02  0.10500000000E+00 0. -1.
    3000001    1    5    5    0    0 -0.10170738936E+02  0.25759593765E+02  0.90505762657E+01  0.29153276526E+02  0.10000000000E+01 0. -1.
        -13    1    6    6    0    0 -0.13113439781E+02  0.15598574717E+02  0.48809553869E+01  0.20955013400E+02  0.10500000000E+00 0.  1.
         13    1    6    6    0    0 -0.76870407446E+01  0.92871673903E+01  0.28638090035E+01  0.12391710961E+02  0.10500000000E+00 0. -1.
</event>
<event>
11    0  0.3462209E-009  0.9118800E+02  0.7816531E-02  0.1126479E+00
         25   -1    0    0    0    0  0.00000000000E+00  0.00000000000E+00  0.99999998245E-14  0.12500000000E+03  0.12500000000E+03 0.  0.
    3000001    1    3    3    0    0 -0.18867063547E+01 -0.37561769144E+02  0.59947428524E+01  0.38097022246E+02  0.10000000000E+01 0.  1.
    1000022    2    1    0    0    0 -0.10180870803E+02 -0.60506083436E+02  0.64508805940E+01  0.62499999574E+02  0.99999911615E+01 0.  0.
    3000022    2    3    3    0    0 -0.82941644484E+01 -0.22944314291E+02  0.45613774157E+00  0.24402977328E+02  0.25003725971E+00 0.  0.
    1000022    2    1    0    0    0  0.10180870803E+02  0.60506083436E+02 -0.64508805940E+01  0.62500000426E+02  0.99999964887E+01 0.  0.
    3000022    2    5    5    0    0  0.15191228151E+01  0.31050229500E+02 -0.65959393673E+01  0.31780393473E+02  0.25001408541E+00 0.  0.
        -13    1    4    4    0    0 -0.53453730081E+01 -0.14662022677E+02  0.33151921698E+00  0.15609895950E+02  0.10500000000E+00 0. -1.
         13    1    4    4    0    0 -0.29487914404E+01 -0.82822916144E+01  0.12461852459E+00  0.87930813781E+01  0.10500000000E+00 0.  1.
    3000001    1    5    5    0    0  0.86617479880E+01  0.29455853936E+02  0.14505877327E+00  0.30719606953E+02  0.10000000000E+01 0.  1.
        -13    1    6    6    0    0  0.64034451921E+00  0.14353803814E+02 -0.30753490640E+01  0.14693894035E+02  0.10500000000E+00 0.  1.
         13    1    6    6    0    0  0.87877829590E+00  0.16696425686E+02 -0.35205903032E+01  0.17086499438E+02  0.10500000000E+00 0. -1.
</event>
<event>
11    0  0.3462209E-009  0.9118800E+02  0.7816531E-02  0.1126479E+00
         25   -1    0    0    0    0  0.00000000000E+00  0.00000000000E+00  0.99999998245E-14  0.12500000000E+03  0.12500000000E+03 0.  0.
    3000001    1    3    3    0    0  0.10197168855E+02 -0.13610852931E+00  0.16451128643E+02  0.19381445039E+02  0.10000000000E+01 0. -1.
    1000022    2    1    0    0    0  0.19396289139E+02 -0.22410189325E+01  0.58523600238E+02  0.62500000542E+02  0.10000004236E+02 0.  0.
    3000022    2    3    3    0    0  0.91991202843E+01 -0.21049104032E+01  0.42072471595E+02  0.43118555503E+02  0.25000142989E+00 0.  0.
    1000022    2    1    0    0    0 -0.19396289139E+02  0.22410189325E+01 -0.58523600238E+02  0.62499999458E+02  0.99999974632E+01 0.  0.
    3000022    2    5    5    0    0 -0.95736824120E+01  0.56053486792E+01 -0.24125950994E+02  0.26555589725E+02  0.25001109020E+00 0.  0.
        -13    1    4    4    0    0  0.47566923686E+01 -0.11169587032E+01  0.21500966350E+02  0.22049405843E+02  0.10500000000E+00 0.  1.
         13    1    4    4    0    0  0.44424279157E+01 -0.98795169999E+00  0.20571505244E+02  0.21069149659E+02  0.10500000000E+00 0. -1.
    3000001    1    5    5    0    0 -0.98226067273E+01 -0.33643297467E+01 -0.34397649244E+02  0.35944409733E+02  0.10000000000E+01 0.  1.
        -13    1    6    6    0    0 -0.54901831882E+01  0.31818836077E+01 -0.13940025696E+02  0.15316717538E+02  0.10500000000E+00 0.  1.
         13    1    6    6    0    0 -0.40834992237E+01  0.24234650715E+01 -0.10185925297E+02  0.11238872187E+02  0.10500000000E+00 0. -1.
</event>
<event>
11    0  0.3462209E-009  0.9118800E+02  0.7816531E-02  0.1126479E+00
         25   -1    0    0    0    0  0.00000000000E+00  0.00000000000E+00  0.99999998245E-14  0.12500000000E+03  0.12500000000E+03 0.  0.
    3000001    1    3    3    0    0  0.24230991130E+02  0.35013948444E+02  0.34419298647E+02  0.54761351664E+02  0.10000000000E+01 0.  1.
    1000022    2    1    0    0    0  0.26765198348E+02  0.42065554232E+02  0.36336804071E+02  0.62500000075E+02  0.99999991910E+01 0.  0.
    3000022    2    3    3    0    0  0.25342072185E+01  0.70516057879E+01  0.19175054244E+01  0.77386484107E+01  0.25000351663E+00 0.  0.
    1000022    2    1    0    0    0 -0.26765198348E+02 -0.42065554232E+02 -0.36336804071E+02  0.62499999925E+02  0.99999982523E+01 0.  0.
    3000022    2    5    5    0    0 -0.17888418539E+02 -0.22555351600E+02 -0.16001700112E+02  0.32937157038E+02  0.25000730996E+00 0.  0.
        -13    1    4    4    0    0  0.72238006759E+00  0.19226536157E+01  0.54999456414E+00  0.21288374547E+01  0.10500000000E+00 0.  1.
         13    1    4    4    0    0  0.18118271509E+01  0.51289521722E+01  0.13675108602E+01  0.56098109560E+01  0.10500000000E+00 0. -1.
    3000001    1    5    5    0    0 -0.88767798094E+01 -0.19510202632E+02 -0.20335103959E+02  0.29562842887E+02  0.10000000000E+01 0. -1.
        -13    1    6    6    0    0 -0.74791282651E+01 -0.95285669854E+01 -0.67079547297E+01  0.13846971873E+02  0.10500000000E+00 0. -1.
         13    1    6    6    0    0 -0.10409290273E+02 -0.13026784614E+02 -0.92937453823E+01  0.19090185165E+02  0.10500000000E+00 0.  1.
</event>
<event>
11    0  0.3462209E-009  0.9118800E+02  0.7816531E-02  0.1126479E+00
         25   -1    0    0    0    0  0.00000000000E+00  0.00000000000E+00  0.99999998245E-14  0.12500000000E+03  0.12500000000E+03 0.  0.
    3000001    1    3    3    0    0 -0.75433350817E+01 -0.35363546328E+01  0.38770320539E+00  0.83998822622E+01  0.10000000000E+01 0. -1.
    1000022    2    1    0    0    0 -0.45936556901E+02 -0.37951395264E+02 -0.15992949584E+02  0.62500000418E+02  0.99999976738E+01 0.  0.
    3000022    2    3    3    0    0 -0.38393221819E+02 -0.34415040631E+02 -0.16380652790E+02  0.54100118156E+02  0.24999074338E+00 0.  0.
    1000022    2    1    0    0    0  0.45936556901E+02  0.37951395264E+02  0.15992949584E+02  0.62499999582E+02  0.99999924483E+01 0.  0.
    3000022    2    5    5    0    0  0.11420699494E+02  0.48404077151E+01  0.14096396883E+01  0.12486453052E+02  0.25000397380E+00 0.  0.
        -13    1    4    4    0    0 -0.29455928367E+02 -0.26406513075E+02 -0.12580005236E+02  0.41511723711E+02  0.10500000000E+00 0.  1.
         13    1    4    4    0    0 -0.89372934523E+01 -0.80085275562E+01 -0.38006475535E+01  0.12588394445E+02  0.10500000000E+00 0. -1.
    3000001    1    5    5    0    0  0.34515857406E+02  0.33110987549E+02  0.14583309896E+02  0.50013546530E+02  0.10000000000E+01 0.  1.
        -13    1    6    6    0    0  0.55678770093E+01  0.23352480813E+01  0.75042024219E+00  0.60851288837E+01  0.10500000000E+00 0.  1.
         13    1    6    6    0    0  0.58528224851E+01  0.25051596338E+01  0.65921944614E+00  0.64013241686E+01  0.10500000000E+00 0. -1.
</event>
<event>
11    0  0.3462209E-009  0.9118800E+02  0.7816531E-02  0.1126479E+00
         25   -1    0    0    0    0  0.00000000000E+00  0.00000000000E+00  0.99999998245E-14  0.12500000000E+03  0.12500000000E+03 0.  0.
    3000001    1    3    3    0    0  0.37924009035E+01  0.44977027132E+00  0.20695055103E+01  0.44572918872E+01  0.10000000000E+01 0.  1.
    1000022    2    1    0    0    0  0.35572321430E+02  0.33360305543E+02  0.37788224021E+02  0.62500000584E+02  0.10000008024E+02 0.  0.
    3000022    2    3    3    0    0  0.31779920526E+02  0.32910535272E+02  0.35718718511E+02  0.58042708697E+02  0.25000052959E+00 0.  0.
    1000022    2    1    0    0    0 -0.35572321430E+02 -0.33360305543E+02 -0.37788224021E+02  0.62499999416E+02  0.10000000725E+02 0.  0.
    3000022    2    5    5    0    0 -0.99063006914E+00 -0.48376292267E+01 -0.38177438180E+01  0.62467331389E+01  0.25000516055E+00 0.  0.
        -13    1    4    4    0    0  0.23381101806E+02  0.24233876889E+02  0.26328652656E+02  0.42745358653E+02  0.10500000000E+00 0.  1.
         13    1    4    4    0    0  0.83988187205E+01  0.86766583830E+01  0.93900658545E+01  0.15297350043E+02  0.10500000000E+00 0. -1.
    3000001    1    5    5    0    0 -0.34581691361E+02 -0.28522676317E+02 -0.33970480203E+02  0.56253266277E+02  0.10000000000E+01 0. -1.
        -13    1    6    6    0    0 -0.42864410007E+00 -0.24278120141E+01 -0.18930133512E+01  0.31100693703E+01  0.10500000000E+00 0.  1.
         13    1    6    6    0    0 -0.56198596907E+00 -0.24098172127E+01 -0.19247304667E+01  0.31366637686E+01  0.10500000000E+00 0. -1.
</event>
<event>
11    0  0.3462209E-009  0.9118800E+02  0.7816531E-02  0.1126479E+00
         25   -1    0    0    0    0  0.00000000000E+00  0.00000000000E+00  0.99999998245E-14  0.12500000000E+03  0.12500000000E+03 0.  0.
    3000001    1    3    3    0    0 -0.30644023781E+02  0.16193704715E+02 -0.86549508133E+01  0.35737941176E+02  0.10000000000E+01 0.  1.
    1000022    2    1    0    0    0 -0.56185227679E+02  0.20163269943E+02 -0.15585659910E+02  0.62499999622E+02  0.99999946885E+01 0.  0.
    3000022    2    3    3    0    0 -0.25541203898E+02  0.39695652281E+01 -0.69307090968E+01  0.26762058446E+02  0.24999809484E+00 0.  0.
    1000022    2    1    0    0    0  0.56185227679E+02 -0.20163269943E+02  0.15585659910E+02  0.62500000378E+02  0.99999994151E+01 0.  0.
    3000022    2    5    5    0    0  0.53622039333E+02 -0.18558455756E+02  0.16660094588E+02  0.59138486888E+02  0.24999473494E+00 0.  0.
        -13    1    4    4    0    0 -0.15610828313E+02  0.24518681766E+01 -0.42954459104E+01  0.16375942682E+02  0.10500000000E+00 0.  1.
         13    1    4    4    0    0 -0.99303755852E+01  0.15176970515E+01 -0.26352631865E+01  0.10386115764E+02  0.10500000000E+00 0. -1.
    3000001    1    5    5    0    0  0.25631883457E+01 -0.16048141870E+01 -0.10744346778E+01  0.33615134905E+01  0.10000000000E+01 0. -1.
        -13    1    6    6    0    0  0.31983113747E+02 -0.11023784878E+02  0.98840087381E+01  0.35244120811E+02  0.10500000000E+00 0.  1.
         13    1    6    6    0    0  0.21638925586E+02 -0.75346708776E+01  0.67760858499E+01  0.23894366077E+02  0.10500000000E+00 0. -1.
</event>
<event>
11    0  0.3462209E-009  0.9118800E+02  0.7816531E-02  0.1126479E+00
         25   -1    0    0    0    0  0.00000000000E+00  0.00000000000E+00  0.99999998245E-14  0.12500000000E+03  0.12500000000E+03 0.  0.
    3000001    1    3    3    0    0 -0.21367130844E+02  0.53759669491E+00 -0.60874059561E+01  0.22246343565E+02  0.10000000000E+01 0.  1.
    1000022    2    1    0    0    0 -0.59838858432E+02  0.12011131912E+02 -0.90163125946E+01  0.62499999600E+02  0.99999894461E+01 0.  0.
    3000022    2    3    3    0    0 -0.38471727588E+02  0.11473535217E+02 -0.29289066384E+01  0.40253656036E+02  0.24999227878E+00 0.  0.
    1000022    2    1    0    0    0  0.59838858432E+02 -0.12011131912E+02  0.90163125946E+01  0.62500000400E+02  0.99999944446E+01 0.  0.
    3000022    2    5    5    0    0  0.59136134177E+02 -0.12598372803E+02  0.85456084841E+01  0.61064648316E+02  0.24997397729E+00 0.  0.
        -13    1    4    4    0    0 -0.29090755992E+02  0.86956751279E+01 -0.22035930690E+01  0.30442629610E+02  0.10500000000E+00 0.  1.
         13    1    4    4    0    0 -0.93809715958E+01  0.27778600889E+01 -0.72531356946E+00  0.98110264259E+01  0.10500000000E+00 0. -1.
    3000001    1    5    5    0    0  0.70272425576E+00  0.58724089142E+00  0.47070411051E+00  0.14353520836E+01  0.10000000000E+01 0. -1.
        -13    1    6    6    0    0  0.17323076094E+02 -0.36650129669E+01  0.25389133068E+01  0.17887939825E+02  0.10500000000E+00 0.  1.
         13    1    6    6    0    0  0.41813058082E+02 -0.89333598362E+01  0.60066951772E+01  0.43176708491E+02  0.10500000000E+00 0. -1.
</event>
<event>
11    0  0.3462209E-009  0.9118800E+02  0.7816531E-02  0.1126479E+00
         25   -1    0    0    0    0  0.00000000000E+00  0.00000000000E+00  0.99999998245E-14  0.12500000000E+03  0.12500000000E+03 0.  0.
    3000001    1    3    3    0    0  0.44115694774E+02 -0.29225700389E+02 -0.29979576881E+02  0.60828538685E+02  0.10000000000E+01 0. -1.
    1000022    2    1    0    0    0  0.44753771380E+02 -0.28615615217E+02 -0.31376693149E+02  0.62499997846E+02  0.99999685405E+01 0.  0.
    3000022    2    3    3    0    0  0.63807660659E+00  0.61008517142E+00 -0.13971162675E+01  0.16714591612E+01  0.24999238095E+00 0.  0.
    1000022    2    1    0    0    0 -0.44753771380E+02  0.28615615217E+02  0.31376693149E+02  0.62500002154E+02  0.99999954621E+01 0.  0.
    3000022    2    5    5    0    0 -0.19926922047E+02  0.18480671576E+02  0.14584770070E+02  0.30844699105E+02  0.25000141144E+00 0.  0.
        -13    1    4    4    0    0  0.17206637640E+00  0.23075416007E+00 -0.50694529975E+00  0.59234521794E+00  0.10500000000E+00 0.  1.
         13    1    4    4    0    0  0.46601023018E+00  0.37933101136E+00 -0.89017096776E+00  0.10791139433E+01  0.10500000000E+00 0.  1.
    3000001    1    5    5    0    0 -0.24826849334E+02  0.10134943641E+02  0.16791923079E+02  0.31655303049E+02  0.10000000000E+01 0. -1.
        -13    1    6    6    0    0 -0.12313173179E+02  0.11399825583E+02  0.90722701257E+01  0.19075832021E+02  0.10500000000E+00 0. -1.
         13    1    6    6    0    0 -0.76137488675E+01  0.70808459933E+01  0.55124999445E+01  0.11768867084E+02  0.10500000000E+00 0.  1.
</event>
<event>
11    0  0.3462209E-009  0.9118800E+02  0.7816531E-02  0.1126479E+00
         25   -1    0    0    0    0  0.00000000000E+00  0.00000000000E+00  0.99999998245E-14  0.12500000000E+03  0.12500000000E+03 0.  0.
    3000001    1    3    3    0    0 -0.58547799720E+02 -0.19708862235E+02  0.14653718051E+01  0.61801548663E+02  0.10000000000E+01 0. -1.
    1000022    2    1    0    0    0 -0.58564920487E+02 -0.19380037566E+02  0.90242055354E+00  0.62499999534E+02  0.99999905551E+01 0.  0.
    3000022    2    3    3    0    0 -0.17120767500E-01  0.32882466880E+00 -0.56295125154E+00  0.69845087059E+00  0.25000144704E+00 0.  0.
    1000022    2    1    0    0    0  0.58564920487E+02  0.19380037566E+02 -0.90242055354E+00  0.62500000466E+02  0.99999963834E+01 0.  0.
    3000022    2    5    5    0    0  0.27434677608E+02  0.64096321929E+01  0.38188478376E+01  0.28432217849E+02  0.24998533342E+00 0.  0.
        -13    1    4    4    0    0  0.45525082716E-01  0.21242249416E+00 -0.28695192118E+00  0.37491632967E+00  0.10500000000E+00 0. -1.
         13    1    4    4    0    0 -0.62645850216E-01  0.11640217464E+00 -0.27599933036E+00  0.32353454092E+00  0.10500000000E+00 0.  1.
    3000001    1    5    5    0    0  0.31130242879E+02  0.12970405373E+02 -0.47212683912E+01  0.34067782618E+02  0.10000000000E+01 0. -1.
        -13    1    6    6    0    0  0.15068172115E+02  0.35114193415E+01  0.20304513852E+01  0.15604923406E+02  0.10500000000E+00 0.  1.
         13    1    6    6    0    0  0.12366505493E+02  0.28982128513E+01  0.17883964524E+01  0.12827294442E+02  0.10500000000E+00 0. -1.
</event>
<event>
11    0  0.3462209E-009  0.9118800E+02  0.7816531E-02  0.1126479E+00
         25   -1    0    0    0    0  0.00000000000E+00  0.00000000000E+00  0.99999998245E-14  0.12500000000E+03  0.12500000000E+03 0.  0.
    3000001    1    3    3    0    0  0.85019410988E+01  0.70655841775E+01  0.78939567242E+01  0.13620573959E+02  0.10000000000E+01 0.  1.
    1000022    2    1    0    0    0  0.36861485436E+02  0.17134265676E+02  0.46410104976E+02  0.62499999744E+02  0.99999977603E+01 0.  0.
    3000022    2    3    3    0    0  0.28359544338E+02  0.10068681499E+02  0.38516148252E+02  0.48879425784E+02  0.24997334938E+00 0.  0.
    1000022    2    1    0    0    0 -0.36861485436E+02 -0.17134265676E+02 -0.46410104976E+02  0.62500000256E+02  0.10000000966E+02 0.  0.
    3000022    2    5    5    0    0 -0.14435183319E+02 -0.47955927252E+01 -0.10900397938E+02  0.18715057973E+02  0.24998534747E+00 0.  0.
        -13    1    4    4    0    0  0.77723902766E+01  0.27919423180E+01  0.10534819530E+02  0.13386502159E+02  0.10500000000E+00 0. -1.
         13    1    4    4    0    0  0.20587154061E+02  0.72767391807E+01  0.27981328722E+02  0.35492923625E+02  0.10500000000E+00 0.  1.
    3000001    1    5    5    0    0 -0.22426302117E+02 -0.12338672951E+02 -0.35509707038E+02  0.43784942284E+02  0.10000000000E+01 0. -1.
        -13    1    6    6    0    0 -0.50715657485E+01 -0.16253004989E+01 -0.38173603338E+01  0.65532927427E+01  0.10500000000E+00 0. -1.
         13    1    6    6    0    0 -0.93636175709E+01 -0.31702922264E+01 -0.70830376041E+01  0.12161765230E+02  0.10500000000E+00 0.  1.
</event>
<event>
11    0  0.3462209E-009  0.9118800E+02  0.7816531E-02  0.1126479E+00
         25   -1    0    0    0    0  0.00000000000E+00  0.00000000000E+00  0.99999998245E-14  0.12500000000E+03  0.12500000000E+03 0.  0.
    3000001    1    3    3    0    0  0.37780207717E+02  0.63026145228E+01  0.29140558743E+01  0.38426016793E+02  0.10000000000E+01 0. -1.
    1000022    2    1    0    0    0  0.60873578964E+02  0.38652820731E+01  0.92583247910E+01  0.62499998722E+02  0.10000012043E+02 0.  0.
    3000022    2    3    3    0    0  0.23093371248E+02 -0.24373324497E+01  0.63442689168E+01  0.24073981929E+02  0.24994553248E+00 0.  0.
    1000022    2    1    0    0    0 -0.60873578964E+02 -0.38652820731E+01 -0.92583247910E+01  0.62500001278E+02  0.10000028019E+02 0.  0.
    3000022    2    5    5    0    0 -0.18026962355E+02 -0.70084711208E+00 -0.73521687674E+01  0.19482799669E+02  0.25007785525E+00 0.  0.
        -13    1    4    4    0    0  0.95463524149E+01 -0.95324425262E+00  0.25851095873E+01  0.99365655844E+01  0.10500000000E+00 0.  1.
         13    1    4    4    0    0  0.13547018833E+02 -0.14840881971E+01  0.37591593294E+01  0.14137416345E+02  0.10500000000E+00 0. -1.
    3000001    1    5    5    0    0 -0.42846616610E+02 -0.31644349610E+01 -0.19061560237E+01  0.43017201609E+02  0.10000000000E+01 0. -1.
        -13    1    6    6    0    0 -0.10809503475E+02 -0.43600739590E+00 -0.43426436914E+01  0.11657832005E+02  0.10500000000E+00 0. -1.
         13    1    6    6    0    0 -0.72174588799E+01 -0.26483971618E+00 -0.30095250760E+01  0.78249676639E+01  0.10500000000E+00 0.  1.
</event>
<event>
11    0  0.3462209E-009  0.9118800E+02  0.7816531E-02  0.1126479E+00
         25   -1    0    0    0    0  0.00000000000E+00  0.00000000000E+00  0.99999998245E-14  0.12500000000E+03  0.12500000000E+03 0.  0.
    3000001    1    3    3    0    0 -0.33667054732E+01  0.14265851006E+02 -0.80101995849E+01  0.16733574276E+02  0.10000000000E+01 0. -1.
    1000022    2    1    0    0    0  0.36309938727E+01  0.53481656595E+02 -0.30541425132E+02  0.62500001100E+02  0.99999889886E+01 0.  0.
    3000022    2    3    3    0    0  0.69976993459E+01  0.39215805589E+02 -0.22531225547E+02  0.45766426824E+02  0.24999088279E+00 0.  0.
    1000022    2    1    0    0    0 -0.36309938727E+01 -0.53481656595E+02  0.30541425132E+02  0.62499998900E+02  0.99999752410E+01 0.  0.
    3000022    2    5    5    0    0  0.34477992305E+01 -0.19410446522E+02  0.10912525580E+02  0.22534384114E+02  0.24999829712E+00 0.  0.
        -13    1    4    4    0    0  0.32364885176E+01  0.17777200496E+02 -0.10195688866E+02  0.20747694133E+02  0.10500000000E+00 0.  1.
         13    1    4    4    0    0  0.37612108283E+01  0.21438605093E+02 -0.12335536681E+02  0.25018732690E+02  0.10500000000E+00 0. -1.
    3000001    1    5    5    0    0 -0.70787931032E+01 -0.34071210072E+02  0.19628899552E+02  0.39965614786E+02  0.10000000000E+01 0. -1.
        -13    1    6    6    0    0  0.21592654875E+01 -0.11825072775E+02  0.66789119376E+01  0.13751860356E+02  0.10500000000E+00 0. -1.
         13    1    6    6    0    0  0.12885337430E+01 -0.75853737469E+01  0.42336136427E+01  0.87825237581E+01  0.10500000000E+00 0.  1.
</event>
<event>
11    0  0.3462209E-009  0.9118800E+02  0.7816531E-02  0.1126479E+00
         25   -1    0    0    0    0  0.00000000000E+00  0.00000000000E+00  0.99999998245E-14  0.12500000000E+03  0.12500000000E+03 0.  0.
    3000001    1    3    3    0    0  0.32064978800E+02 -0.23494552292E+02 -0.21792420346E+01  0.39823434668E+02  0.10000000000E+01 0. -1.
    1000022    2    1    0    0    0  0.53601479310E+02 -0.30224949351E+02 -0.44253588653E+01  0.62500000670E+02  0.10000006758E+02 0.  0.
    3000022    2    3    3    0    0  0.21536500509E+02 -0.67303970594E+01 -0.22461168307E+01  0.22676566002E+02  0.25001215510E+00 0.  0.
    1000022    2    1    0    0    0 -0.53601479310E+02  0.30224949351E+02  0.44253588653E+01  0.62499999330E+02  0.99999983835E+01 0.  0.
    3000022    2    5    5    0    0 -0.89949345114E+01  0.40702412318E+01 -0.28332948918E+01  0.10274520395E+02  0.24999768870E+00 0.  0.
        -13    1    4    4    0    0  0.13768554437E+02 -0.43568470409E+01 -0.14106161266E+01  0.14510550310E+02  0.10500000000E+00 0. -1.
         13    1    4    4    0    0  0.77679460721E+01 -0.23735500186E+01 -0.83550070411E+00  0.81660156929E+01  0.10500000000E+00 0.  1.
    3000001    1    5    5    0    0 -0.44606544798E+02  0.26154708120E+02  0.72586537572E+01  0.52225478935E+02  0.10000000000E+01 0. -1.
        -13    1    6    6    0    0 -0.36541645043E+01  0.15992821627E+01 -0.11033978795E+01  0.41399436640E+01  0.10500000000E+00 0. -1.
         13    1    6    6    0    0 -0.53407700071E+01  0.24709590691E+01 -0.17298970123E+01  0.61345767306E+01  0.10500000000E+00 0.  1.
</event>
<event>
11    0  0.3462209E-009  0.9118800E+02  0.7816531E-02  0.1126479E+00
         25   -1    0    0    0    0  0.00000000000E+00  0.00000000000E+00  0.99999998245E-14  0.12500000000E+03  0.12500000000E+03 0.  0.
    3000001    1    3    3    0    0  0.25071571637E+02 -0.12691927903E+02  0.20279004883E+02  0.34668527187E+02  0.10000000000E+01 0. -1.
    1000022    2    1    0    0    0  0.49285761222E+02 -0.23514637800E+02  0.28709330212E+02  0.62500000600E+02  0.99999991863E+01 0.  0.
    3000022    2    3    3    0    0  0.24214189585E+02 -0.10822709897E+02  0.84303253282E+01  0.27831473413E+02  0.25000088806E+00 0.  0.
    1000022    2    1    0    0    0 -0.49285761222E+02  0.23514637800E+02 -0.28709330212E+02  0.62499999400E+02  0.99999916833E+01 0.  0.
    3000022    2    5    5    0    0 -0.48044777891E+02  0.23642179827E+02 -0.26427363963E+02  0.59713661919E+02  0.25000838027E+00 0.  0.
        -13    1    4    4    0    0  0.10919919112E+02 -0.49162813796E+01  0.38676722792E+01  0.12585085215E+02  0.10500000000E+00 0.  1.
         13    1    4    4    0    0  0.13294270473E+02 -0.59064285172E+01  0.45626530490E+01  0.15246388198E+02  0.10500000000E+00 0. -1.
    3000001    1    5    5    0    0 -0.12409833308E+01 -0.12754202688E+00 -0.22819662483E+01  0.27863374803E+01  0.10000000000E+01 0.  1.
        -13    1    6    6    0    0 -0.15415050346E+02  0.76022807739E+01 -0.85372231748E+01  0.19191499542E+02  0.10500000000E+00 0.  1.
         13    1    6    6    0    0 -0.32629727545E+02  0.16039899053E+02 -0.17890140789E+02  0.40522162377E+02  0.10500000000E+00 0. -1.
</event>
<event>
11    0  0.3462209E-009  0.9118800E+02  0.7816531E-02  0.1126479E+00
         25   -1    0    0    0    0  0.00000000000E+00  0.00000000000E+00  0.99999998245E-14  0.12500000000E+03  0.12500000000E+03 0.  0.
    3000001    1    3    3    0    0 -0.26977258410E+02 -0.41404735900E+02  0.33296915845E+00  0.49429095629E+02  0.10000000000E+01 0.  1.
    1000022    2    1    0    0    0 -0.37429571564E+02 -0.49019022700E+02 -0.15532540482E+01  0.62500000230E+02  0.10000000840E+02 0.  0.
    3000022    2    3    3    0    0 -0.10452313154E+02 -0.76142867993E+01 -0.18862232066E+01  0.13070904601E+02  0.24999075438E+00 0.  0.
    1000022    2    1    0    0    0  0.37429571564E+02  0.49019022700E+02  0.15532540482E+01  0.62499999770E+02  0.99999979595E+01 0.  0.
    3000022    2    5    5    0    0  0.31862884676E+02  0.37966785814E+02  0.44052674694E+01  0.49761321516E+02  0.24998531737E+00 0.  0.
        -13    1    4    4    0    0 -0.26789867198E+01 -0.19675562084E+01 -0.51256257395E+00  0.33648168851E+01  0.10500000000E+00 0.  1.
         13    1    4    4    0    0 -0.77733264339E+01 -0.56467305909E+01 -0.13736606327E+01  0.97060877159E+01  0.10500000000E+00 0. -1.
    3000001    1    5    5    0    0  0.55666868875E+01  0.11052236886E+02 -0.28520134212E+01  0.12738678253E+02  0.10000000000E+01 0. -1.
        -13    1    6    6    0    0  0.23548903334E+02  0.28109393585E+02  0.32595137385E+01  0.36814729535E+02  0.10500000000E+00 0. -1.
         13    1    6    6    0    0  0.83139813418E+01  0.98573922292E+01  0.11457537309E+01  0.12946591981E+02  0.10500000000E+00 0.  1.
</event>
<event>
11    0  0.3462209E-009  0.9118800E+02  0.7816531E-02  0.1126479E+00
         25   -1    0    0    0    0  0.00000000000E+00  0.00000000000E+00  0.99999998245E-14  0.12500000000E+03  0.12500000000E+03 0.  0.
    3000001    1    3    3    0    0 -0.35146867102E+02  0.23114874106E+02 -0.50797803046E+01  0.42384004530E+02  0.10000000000E+01 0.  1.
    1000022    2    1    0    0    0 -0.47567021912E+02  0.37552350794E+02 -0.11552019335E+02  0.62500002053E+02  0.10000024110E+02 0.  0.
    3000022    2    3    3    0    0 -0.12420154810E+02  0.14437476688E+02 -0.64722390302E+01  0.20115997523E+02  0.24999936657E+00 0.  0.
    1000022    2    1    0    0    0  0.47567021912E+02 -0.37552350794E+02  0.11552019335E+02  0.62499997947E+02  0.99999984435E+01 0.  0.
    3000022    2    5    5    0    0  0.95988221629E+01 -0.54176073028E+01 -0.13373894010E+01  0.11105807720E+02  0.24999782364E+00 0.  0.
        -13    1    4    4    0    0 -0.54462537709E+01  0.64189566574E+01 -0.28260056207E+01  0.88804289015E+01  0.10500000000E+00 0. -1.
         13    1    4    4    0    0 -0.69739010394E+01  0.80185200302E+01 -0.36462334095E+01  0.11235568622E+02  0.10500000000E+00 0.  1.
    3000001    1    5    5    0    0  0.37968199749E+02 -0.32134743491E+02  0.12889408736E+02  0.51394190226E+02  0.10000000000E+01 0.  1.
        -13    1    6    6    0    0  0.32305356967E+01 -0.18150742237E+01 -0.50370853327E+00  0.37410697149E+01  0.10500000000E+00 0. -1.
         13    1    6    6    0    0  0.63682864662E+01 -0.36025330791E+01 -0.83368086772E+00  0.73647380055E+01  0.10500000000E+00 0.  1.
</event>
<event>
11    0  0.3462209E-009  0.9118800E+02  0.7816531E-02  0.1126479E+00
         25   -1    0    0    0    0  0.00000000000E+00  0.00000000000E+00  0.99999998245E-14  0.12500000000E+03  0.12500000000E+03 0.  0.
    3000001    1    3    3    0    0  0.20297921568E+02  0.21023353317E+02 -0.76750981052E+01  0.30230682023E+02  0.10000000000E+01 0.  1.
    1000022    2    1    0    0    0  0.47498644322E+02  0.38334314254E+02 -0.89782168260E+01  0.62500006915E+02  0.10000081263E+02 0.  0.
    3000022    2    3    3    0    0  0.27200722754E+02  0.17310960938E+02 -0.13031187208E+01  0.32269324892E+02  0.25004735560E+00 0.  0.
    1000022    2    1    0    0    0 -0.47498644322E+02 -0.38334314254E+02  0.89782168260E+01  0.62499993085E+02  0.99999948206E+01 0.  0.
    3000022    2    5    5    0    0  0.23304573039E+00  0.17709842020E+00 -0.26691849234E+00  0.46842315032E+00  0.25000120663E+00 0.  0.
        -13    1    4    4    0    0  0.16837003685E+02  0.10642859949E+02 -0.80584633632E+00  0.19935284656E+02  0.10500000000E+00 0.  1.
         13    1    4    4    0    0  0.10363719069E+02  0.66681009881E+01 -0.49727238447E+00  0.12334040236E+02  0.10500000000E+00 0. -1.
    3000001    1    5    5    0    0 -0.47731690053E+02 -0.38511412674E+02  0.92451353184E+01  0.62031569934E+02  0.10000000000E+01 0. -1.
        -13    1    6    6    0    0  0.18475858126E+00  0.10007879331E+00 -0.21998730561E+00  0.32182435092E+00  0.10500000000E+00 0. -1.
         13    1    6    6    0    0  0.48287149133E-01  0.77019626891E-01 -0.46931186731E-01  0.14659879940E+00  0.10500000000E+00 0.  1.
</event>
<event>
11    0  0.3462209E-009  0.9118800E+02  0.7816531E-02  0.1126479E+00
         25   -1    0    0    0    0  0.00000000000E+00  0.00000000000E+00  0.99999998245E-14  0.12500000000E+03  0.12500000000E+03 0.  0.
    3000001    1    3    3    0    0  0.18557301183E+01  0.14876345803E+01 -0.33050902005E+00  0.26011588050E+01  0.10000000000E+01 0.  1.
    1000022    2    1    0    0    0  0.57488183056E+02 -0.13218014815E+01 -0.22351997071E+02  0.62500000059E+02  0.99999942058E+01 0.  0.
    3000022    2    3    3    0    0  0.55632452938E+02 -0.28094360618E+01 -0.22021488051E+02  0.59898841254E+02  0.24999356592E+00 0.  0.
    1000022    2    1    0    0    0 -0.57488183056E+02  0.13218014815E+01  0.22351997071E+02  0.62499999941E+02  0.99999934646E+01 0.  0.
    3000022    2    5    5    0    0 -0.42180038509E+02  0.27282653491E+01  0.11998247269E+02  0.43938815575E+02  0.24999242870E+00 0.  0.
        -13    1    4    4    0    0  0.14194275691E+02 -0.69574334614E+00 -0.56400825341E+01  0.15289966553E+02  0.10500000000E+00 0. -1.
         13    1    4    4    0    0  0.41438177247E+02 -0.21136927157E+01 -0.16381405516E+02  0.44608874702E+02  0.10500000000E+00 0.  1.
    3000001    1    5    5    0    0 -0.15308144547E+02 -0.14064638676E+01  0.10353749802E+02  0.18561184365E+02  0.10000000000E+01 0.  1.
        -13    1    6    6    0    0 -0.22738727380E+02  0.14144049638E+01  0.65051044457E+01  0.23693409909E+02  0.10500000000E+00 0.  1.
         13    1    6    6    0    0 -0.19441311129E+02  0.13138603853E+01  0.54931428233E+01  0.20245405666E+02  0.10500000000E+00 0. -1.
</event>
<event>
11    0  0.3462209E-009  0.9118800E+02  0.7816531E-02  0.1126479E+00
         25   -1    0    0    0    0  0.00000000000E+00  0.00000000000E+00  0.99999998245E-14  0.12500000000E+03  0.12500000000E+03 0.  0.
    3000001    1    3    3    0    0 -0.69034159748E+01 -0.47812638174E+02 -0.13388808527E+02  0.50139462653E+02  0.10000000000E+01 0.  1.
    1000022    2    1    0    0    0 -0.10954562160E+02 -0.59442562046E+02 -0.12362413806E+02  0.62500000611E+02  0.10000009332E+02 0.  0.
    3000022    2    3    3    0    0 -0.40511461849E+01 -0.11629923871E+02  0.10263947215E+01  0.12360537959E+02  0.24999568113E+00 0.  0.
    1000022    2    1    0    0    0  0.10954562160E+02  0.59442562046E+02  0.12362413806E+02  0.62499999389E+02  0.10000001691E+02 0.  0.
    3000022    2    5    5    0    0  0.29399877272E+01  0.37644181047E+02  0.48507507351E+01  0.38069937997E+02  0.25000377275E+00 0.  0.
        -13    1    4    4    0    0 -0.10044979025E+01 -0.29572152123E+01  0.27531829178E+00  0.31370309226E+01  0.10500000000E+00 0. -1.
         13    1    4    4    0    0 -0.30466482824E+01 -0.86727086591E+01  0.75107642973E+00  0.92235070362E+01  0.10500000000E+00 0.  1.
    3000001    1    5    5    0    0  0.80145744326E+01  0.21798380998E+02  0.75116630707E+01  0.24430061391E+02  0.10000000000E+01 0.  1.
        -13    1    6    6    0    0  0.12116108848E+01  0.15994412836E+02  0.20068593229E+01  0.16165634917E+02  0.10500000000E+00 0.  1.
         13    1    6    6    0    0  0.17283768424E+01  0.21649768211E+02  0.28438914122E+01  0.21904303081E+02  0.10500000000E+00 0. -1.
</event>
<event>
11    0  0.3462209E-009  0.9118800E+02  0.7816531E-02  0.1126479E+00
         25   -1    0    0    0    0  0.00000000000E+00  0.00000000000E+00  0.99999998245E-14  0.12500000000E+03  0.12500000000E+03 0.  0.
    3000001    1    3    3    0    0 -0.10195144578E+02  0.30008435579E+01 -0.12354443286E+02  0.16327225849E+02  0.10000000000E+01 0. -1.
    1000022    2    1    0    0    0 -0.36058273944E+02 -0.45237739382E+01 -0.49855657540E+02  0.62499998116E+02  0.99999762671E+01 0.  0.
    3000022    2    3    3    0    0 -0.25863129366E+02 -0.75246174961E+01 -0.37501214253E+02  0.46172772267E+02  0.24999850655E+00 0.  0.
    1000022    2    1    0    0    0  0.36058273944E+02  0.45237739382E+01  0.49855657540E+02  0.62500001884E+02  0.99999998171E+01 0.  0.
    3000022    2    5    5    0    0  0.17363443285E+02  0.62629483996E+01  0.20000747362E+02  0.27217753048E+02  0.25000121283E+00 0.  0.
        -13    1    4    4    0    0 -0.12916201768E+02 -0.37914675833E+01 -0.18843645291E+02  0.23158097663E+02  0.10500000000E+00 0.  1.
         13    1    4    4    0    0 -0.12946927599E+02 -0.37331499128E+01 -0.18657568962E+02  0.23014674603E+02  0.10500000000E+00 0. -1.
    3000001    1    5    5    0    0  0.18694830659E+02 -0.17391744614E+01  0.29854910178E+02  0.35282248836E+02  0.10000000000E+01 0. -1.
        -13    1    6    6    0    0  0.52908568167E+01  0.19580816248E+01  0.61243856713E+01  0.83274470491E+01  0.10500000000E+00 0.  1.
         13    1    6    6    0    0  0.12072586468E+02  0.43048667748E+01  0.13876361690E+02  0.18890305999E+02  0.10500000000E+00 0. -1.
</event>
<event>
11    0  0.3462209E-009  0.9118800E+02  0.7816531E-02  0.1126479E+00
         25   -1    0    0    0    0  0.00000000000E+00  0.00000000000E+00  0.99999998245E-14  0.12500000000E+03  0.12500000000E+03 0.  0.
    3000001    1    3    3    0    0  0.16565611460E+02  0.19371949646E+02  0.32884342632E+01  0.25719753420E+02  0.10000000000E+01 0. -1.
    1000022    2    1    0    0    0  0.47507821681E+02  0.39251045699E+02  0.29347037671E+01  0.62499998955E+02  0.99999836933E+01 0.  0.
    3000022    2    3    3    0    0  0.30942210222E+02  0.19879096053E+02 -0.35373049607E+00  0.36780245535E+02  0.25000609769E+00 0.  0.
    1000022    2    1    0    0    0 -0.47507821681E+02 -0.39251045699E+02 -0.29347037671E+01  0.62500001045E+02  0.99999967513E+01 0.  0.
    3000022    2    5    5    0    0 -0.27728738389E+02 -0.24756718293E+02  0.28614364431E+01  0.37283084021E+02  0.25000466171E+00 0.  0.
        -13    1    4    4    0    0  0.11366993951E+02  0.72329135137E+01 -0.13452670724E+00  0.13474149762E+02  0.10500000000E+00 0. -1.
         13    1    4    4    0    0  0.19575216271E+02  0.12646182539E+02 -0.21920378883E+00  0.23306095773E+02  0.10500000000E+00 0.  1.
    3000001    1    5    5    0    0 -0.19779083292E+02 -0.14494327406E+02 -0.57961402103E+01  0.25216917024E+02  0.10000000000E+01 0. -1.
        -13    1    6    6    0    0 -0.16608927140E+02 -0.14913038121E+02  0.17142099395E+01  0.22387601646E+02  0.10500000000E+00 0. -1.
         13    1    6    6    0    0 -0.11119811249E+02 -0.98436801721E+01  0.11472265036E+01  0.14895482375E+02  0.10500000000E+00 0.  1.
</event>
<event>
11    0  0.3462209E-009  0.9118800E+02  0.7816531E-02  0.1126479E+00
         25   -1    0    0    0    0  0.00000000000E+00  0.00000000000E+00  0.99999998245E-14  0.12500000000E+03  0.12500000000E+03 0.  0.
    3000001    1    3    3    0    0  0.22729095009E+01  0.48000208124E+02 -0.32864098938E+02  0.58225725385E+02  0.10000000000E+01 0. -1.
    1000022    2    1    0    0    0  0.39335081058E+01  0.51924559386E+02 -0.33085002831E+02  0.62499998172E+02  0.10000000287E+02 0.  0.
    3000022    2    3    3    0    0  0.16605986049E+01  0.39243512624E+01 -0.22090389283E+00  0.42742727878E+01  0.24997755449E+00 0.  0.
    1000022    2    1    0    0    0 -0.39335081058E+01 -0.51924559386E+02  0.33085002831E+02  0.62500001828E+02  0.10000023133E+02 0.  0.
    3000022    2    5    5    0    0  0.25941434731E-01 -0.42681707311E+02  0.24329095326E+02  0.49129382119E+02  0.24999222499E+00 0.  0.
        -13    1    4    4    0    0  0.11105483868E+01  0.27151524753E+01 -0.18570862377E+00  0.29412384087E+01  0.10500000000E+00 0. -1.
         13    1    4    4    0    0  0.55005021813E+00  0.12091987870E+01 -0.35195269052E-01  0.13330343791E+01  0.10500000000E+00 0.  1.
    3000001    1    5    5    0    0 -0.39594495406E+01 -0.92428520755E+01  0.87559075048E+01  0.13370619708E+02  0.10000000000E+01 0.  1.
        -13    1    6    6    0    0  0.52403551198E-01 -0.31403905059E+02  0.17895945545E+02  0.36145316308E+02  0.10500000000E+00 0.  1.
         13    1    6    6    0    0 -0.26462116467E-01 -0.11277802252E+02  0.64331497812E+01  0.12984065811E+02  0.10500000000E+00 0. -1.
</event>
<event>
11    0  0.3462209E-009  0.9118800E+02  0.7816531E-02  0.1126479E+00
         25   -1    0    0    0    0  0.00000000000E+00  0.00000000000E+00  0.99999998245E-14  0.12500000000E+03  0.12500000000E+03 0.  0.
    3000001    1    3    3    0    0 -0.23021013930E+02  0.13730306239E+02 -0.37871862195E+02  0.46408688172E+02  0.10000000000E+01 0.  1.
    1000022    2    1    0    0    0 -0.33411505528E+02  0.13238674641E+02 -0.50146377081E+02  0.62499997310E+02  0.99999660757E+01 0.  0.
    3000022    2    3    3    0    0 -0.10390491597E+02 -0.49163159810E+00 -0.12274514887E+02  0.16091309138E+02  0.24999359967E+00 0.  0.
    1000022    2    1    0    0    0  0.33411505528E+02 -0.13238674641E+02  0.50146377081E+02  0.62500002690E+02  0.99999996975E+01 0.  0.
    3000022    2    5    5    0    0 -0.69558122841E+00 -0.34954284369E+00  0.88687949608E+00  0.12062739091E+01  0.25005611036E+00 0.  0.
        -13    1    4    4    0    0 -0.65439313639E+01 -0.27933405342E+00 -0.78072399111E+01  0.10191422140E+02  0.10500000000E+00 0.  1.
         13    1    4    4    0    0 -0.38465602336E+01 -0.21229754467E+00 -0.44672749756E+01  0.58998869977E+01  0.10500000000E+00 0. -1.
    3000001    1    5    5    0    0  0.34107086756E+02 -0.12889131797E+02  0.49259497585E+02  0.61293728781E+02  0.10000000000E+01 0.  1.
        -13    1    6    6    0    0 -0.36642403422E+00 -0.12352273343E+00  0.37657920486E+00  0.54987392743E+00  0.10500000000E+00 0.  1.
         13    1    6    6    0    0 -0.32915719419E+00 -0.22602011026E+00  0.51030029122E+00  0.65639998168E+00  0.10500000000E+00 0. -1.
</event>
<event>
11    0  0.3462209E-009  0.9118800E+02  0.7816531E-02  0.1126479E+00
         25   -1    0    0    0    0  0.00000000000E+00  0.00000000000E+00  0.99999998245E-14  0.12500000000E+03  0.12500000000E+03 0.  0.
    3000001    1    3    3    0    0 -0.43965223619E+02  0.31800238416E+02 -0.27935363185E+02  0.61037534087E+02  0.10000000000E+01 0. -1.
    1000022    2    1    0    0    0 -0.43901212041E+02  0.31877451949E+02 -0.29372805044E+02  0.62499998976E+02  0.99999917228E+01 0.  0.
    3000022    2    3    3    0    0  0.64011577899E-01  0.77213532528E-01 -0.14374418591E+01  0.14624648889E+01  0.25001008199E+00 0.  0.
    1000022    2    1    0    0    0  0.43901212041E+02 -0.31877451949E+02  0.29372805044E+02  0.62500001024E+02  0.10000004522E+02 0.  0.
    3000022    2    5    5    0    0  0.43991089283E+02 -0.31230020333E+02  0.28989900634E+02  0.61245464694E+02  0.25000105896E+00 0.  0.
        -13    1    4    4    0    0  0.28132421714E-01  0.40885060954E-01 -0.10847542638E+01  0.10909536352E+01  0.10500000000E+00 0.  1.
         13    1    4    4    0    0  0.35879156186E-01  0.36328471575E-01 -0.35268759537E+00  0.37151125370E+00  0.10500000000E+00 0. -1.
    3000001    1    5    5    0    0 -0.89877241914E-01 -0.64743161573E+00  0.38290440948E+00  0.12545363297E+01  0.10000000000E+01 0. -1.
        -13    1    6    6    0    0  0.28972838987E+02 -0.20597434773E+02  0.19045633121E+02  0.40328983178E+02  0.10500000000E+00 0.  1.
         13    1    6    6    0    0  0.15018250295E+02 -0.10632585560E+02  0.99442675135E+01  0.20916481516E+02  0.10500000000E+00 0. -1.
</event>
