<event>
11    0  0.3482687E-009  0.9118800E+02  0.7816531E-02  0.1126479E+00
         25   -1    0    0    0    0  0.00000000000E+00  0.00000000000E+00  0.99999998245E-14  0.12500000000E+03  0.12500000000E+03 0.  0.
    3000001    1    3    3    0    0  0.49262177755E+02  0.11878346944E+02  0.78651295566E+01  0.51290521018E+02  0.10000000000E+01 0.  1.
    1000022    2    1    0    0    0  0.59087487459E+02  0.11799695651E+02  0.13254658931E+02  0.62500000526E+02  0.10000004537E+02 0.  0.
    3000022    2    3    3    0    0  0.98253097037E+01 -0.78651292904E-01  0.53895293744E+01  0.11209479509E+02  0.25001435566E+00 0.  0.
    1000022    2    1    0    0    0 -0.59087487459E+02 -0.11799695651E+02 -0.13254658931E+02  0.62499999474E+02  0.99999979559E+01 0.  0.
    3000022    2    5    5    0    0 -0.26204189101E+02 -0.22791754043E+01 -0.17164782301E+01  0.26360253617E+02  0.25001255834E+00 0.  0.
        -13    1    4    4    0    0  0.55688398721E+01  0.20491173905E-01  0.30649969242E+01  0.63574860247E+01  0.10500000000E+00 0.  1.
         13    1    4    4    0    0  0.42564698316E+01 -0.99142466809E-01  0.23245324501E+01  0.48519934839E+01  0.10500000000E+00 0. -1.
    3000001    1    5    5    0    0 -0.32883298358E+02 -0.95205202468E+01 -0.11538180701E+02  0.36139745856E+02  0.10000000000E+01 0.  1.
        -13    1    6    6    0    0 -0.10664575509E+02 -0.86414473005E+00 -0.69016550916E+00  0.10722279158E+02  0.10500000000E+00 0. -1.
         13    1    6    6    0    0 -0.15539613592E+02 -0.14150306742E+01 -0.10263127210E+01  0.15637974459E+02  0.10500000000E+00 0.  1.
</event>
<event>
11    0  0.3482687E-009  0.9118800E+02  0.7816531E-02  0.1126479E+00
         25   -1    0    0    0    0  0.00000000000E+00  0.00000000000E+00  0.99999998245E-14  0.12500000000E+03  0.12500000000E+03 0.  0.
    3000001    1    3    3    0    0  0.10788944336E+01  0.21265950549E+02 -0.45384883637E+02  0.50141722435E+02  0.10000000000E+01 0. -1.
    1000022    2    1    0    0    0 -0.33684369491E+01  0.25112607765E+02 -0.56251761754E+02  0.62500001887E+02  0.10000004960E+02 0.  0.
    3000022    2    3    3    0    0 -0.44473313827E+01  0.38466572158E+01 -0.10866878117E+02  0.12358279452E+02  0.25000570043E+00 0.  0.
    1000022    2    1    0    0    0  0.33684369491E+01 -0.25112607765E+02  0.56251761754E+02  0.62499998113E+02  0.99999813740E+01 0.  0.
    3000022    2    5    5    0    0 -0.28575548679E+01 -0.97938464852E+01  0.27281755885E+02  0.29128023923E+02  0.25004946554E+00 0.  0.
        -13    1    4    4    0    0 -0.27329036609E+01  0.22867599957E+01 -0.66297999153E+01  0.75275032789E+01  0.10500000000E+00 0. -1.
         13    1    4    4    0    0 -0.17144277218E+01  0.15598972202E+01 -0.42370782016E+01  0.48307761734E+01  0.10500000000E+00 0.  1.
    3000001    1    5    5    0    0  0.62259918170E+01 -0.15318761280E+02  0.28970005869E+02  0.33371974190E+02  0.10000000000E+01 0. -1.
        -13    1    6    6    0    0 -0.10683812054E+01 -0.35838637657E+01  0.98456194490E+01  0.10532462448E+02  0.10500000000E+00 0. -1.
         13    1    6    6    0    0 -0.17891736625E+01 -0.62099827196E+01  0.17436136436E+02  0.18595561475E+02  0.10500000000E+00 0.  1.
</event>
<event>
11    0  0.3482687E-009  0.9118800E+02  0.7816531E-02  0.1126479E+00
         25   -1    0    0    0    0  0.00000000000E+00  0.00000000000E+00  0.99999998245E-14  0.12500000000E+03  0.12500000000E+03 0.  0.
    3000001    1    3    3    0    0 -0.14742726223E+02  0.15249237008E+02 -0.11985689969E+02  0.24383272337E+02  0.10000000000E+01 0. -1.
    1000022    2    1    0    0    0 -0.27120244156E+02  0.41942107512E+02 -0.36216044757E+02  0.62499999416E+02  0.10000000176E+02 0.  0.
    3000022    2    3    3    0    0 -0.12377517933E+02  0.26692870503E+02 -0.24230354788E+02  0.38116727079E+02  0.25000830906E+00 0.  0.
    1000022    2    1    0    0    0  0.27120244156E+02 -0.41942107512E+02  0.36216044757E+02  0.62500000584E+02  0.10000007479E+02 0.  0.
    3000022    2    5    5    0    0 -0.45035488925E+00 -0.12416917909E+01  0.26321660178E+01  0.29555744578E+01  0.25000880043E+00 0.  0.
        -13    1    4    4    0    0 -0.59086636822E+01  0.12588100707E+02 -0.11427704618E+02  0.17999334536E+02  0.10500000000E+00 0.  1.
         13    1    4    4    0    0 -0.64688542506E+01  0.14104769797E+02 -0.12802650169E+02  0.20117392542E+02  0.10500000000E+00 0. -1.
    3000001    1    5    5    0    0  0.27570599045E+02 -0.40700415721E+02  0.33583878739E+02  0.59544426126E+02  0.10000000000E+01 0. -1.
        -13    1    6    6    0    0 -0.33208903271E+00 -0.73218617913E+00  0.15894422375E+01  0.17843013627E+01  0.10500000000E+00 0. -1.
         13    1    6    6    0    0 -0.11826585654E+00 -0.50950561177E+00  0.10427237803E+01  0.11712730951E+01  0.10500000000E+00 0.  1.
</event>
<event>
11    0  0.3482687E-009  0.9118800E+02  0.7816531E-02  0.1126479E+00
         25   -1    0    0    0    0  0.00000000000E+00  0.00000000000E+00  0.99999998245E-14  0.12500000000E+03  0.12500000000E+03 0.  0.
    3000001    1    3    3    0    0  0.15884945974E+02  0.39002199284E+02 -0.91344080986E+01  0.43103833576E+02  0.10000000000E+01 0.  1.
    1000022    2    1    0    0    0  0.17556637346E+02  0.58309355703E+02 -0.99011852438E+01  0.62500000151E+02  0.10000003609E+02 0.  0.
    3000022    2    3    3    0    0  0.16716913720E+01  0.19307156419E+02 -0.76677714516E+00  0.19396166575E+02  0.24997917458E+00 0.  0.
    1000022    2    1    0    0    0 -0.17556637346E+02 -0.58309355703E+02  0.99011852438E+01  0.62499999849E+02  0.10000001724E+02 0.  0.
    3000022    2    5    5    0    0 -0.99683845534E+01 -0.47041990167E+02  0.79444726693E+01  0.48739046733E+02  0.25000186139E+00 0.  0.
        -13    1    4    4    0    0  0.61668684195E+00  0.68402816545E+01 -0.32357578761E+00  0.68764439985E+01  0.10500000000E+00 0.  1.
         13    1    4    4    0    0  0.10550045301E+01  0.12466874765E+02 -0.44320135755E+00  0.12519722577E+02  0.10500000000E+00 0. -1.
    3000001    1    5    5    0    0 -0.75882527929E+01 -0.11267365536E+02  0.19567125745E+01  0.13760953117E+02  0.10000000000E+01 0. -1.
        -13    1    6    6    0    0 -0.66386110300E+01 -0.31252838855E+02  0.52261820476E+01  0.32374914621E+02  0.10500000000E+00 0.  1.
         13    1    6    6    0    0 -0.33297735234E+01 -0.15789151312E+02  0.27182906217E+01  0.16364132112E+02  0.10500000000E+00 0. -1.
</event>
<event>
11    0  0.3482687E-009  0.9118800E+02  0.7816531E-02  0.1126479E+00
         25   -1    0    0    0    0  0.00000000000E+00  0.00000000000E+00  0.99999998245E-14  0.12500000000E+03  0.12500000000E+03 0.  0.
    3000001    1    3    3    0    0  0.73831867588E+01  0.13862940518E+02 -0.40887619290E+02  0.43811984408E+02  0.10000000000E+01 0. -1.
    1000022    2    1    0    0    0  0.95857279310E+01  0.25461489088E+02 -0.55372167098E+02  0.62500005776E+02  0.10000011317E+02 0.  0.
    3000022    2    3    3    0    0  0.22025411722E+01  0.11598548571E+02 -0.14484547808E+02  0.18688021368E+02  0.25000184081E+00 0.  0.
    1000022    2    1    0    0    0 -0.95857279310E+01 -0.25461489088E+02  0.55372167098E+02  0.62499994224E+02  0.99999391153E+01 0.  0.
    3000022    2    5    5    0    0 -0.39313569846E+01 -0.72348231327E+01  0.27489247881E+02  0.28697029165E+02  0.25000077253E+00 0.  0.
        -13    1    4    4    0    0  0.14670440978E+01  0.75962216850E+01 -0.94116324731E+01  0.12183786484E+02  0.10500000000E+00 0.  1.
         13    1    4    4    0    0  0.73549707444E+00  0.40023268855E+01 -0.50729153344E+01  0.65042348847E+01  0.10500000000E+00 0. -1.
    3000001    1    5    5    0    0 -0.56543709464E+01 -0.18226665956E+02  0.27882919217E+02  0.33802965058E+02  0.10000000000E+01 0. -1.
        -13    1    6    6    0    0 -0.13927967651E+01 -0.26766453088E+01  0.10156785914E+02  0.10596019916E+02  0.10500000000E+00 0.  1.
         13    1    6    6    0    0 -0.25385602195E+01 -0.45581778239E+01  0.17332461966E+02  0.18101009250E+02  0.10500000000E+00 0. -1.
</event>
<event>
11    0  0.3482687E-009  0.9118800E+02  0.7816531E-02  0.1126479E+00
         25   -1    0    0    0    0  0.00000000000E+00  0.00000000000E+00  0.99999998245E-14  0.12500000000E+03  0.12500000000E+03 0.  0.
    3000001    1    3    3    0    0 -0.48304323152E+01  0.49200432086E+01  0.30302961486E+02  0.31093558438E+02  0.10000000000E+01 0.  1.
    1000022    2    1    0    0    0 -0.13843805459E+02  0.88269939410E+00  0.60115054514E+02  0.62499997778E+02  0.99999917619E+01 0.  0.
    3000022    2    3    3    0    0 -0.90133731434E+01 -0.40373438145E+01  0.29812093028E+02  0.31406439339E+02  0.25000159934E+00 0.  0.
    1000022    2    1    0    0    0  0.13843805459E+02 -0.88269939410E+00 -0.60115054514E+02  0.62500002222E+02  0.10000019541E+02 0.  0.
    3000022    2    5    5    0    0  0.83354776135E+01  0.35822284830E+01 -0.23509648885E+02  0.25200766603E+02  0.24999740547E+00 0.  0.
        -13    1    4    4    0    0 -0.60435719216E+01 -0.27390169901E+01  0.20164291054E+02  0.21228203747E+02  0.10500000000E+00 0. -1.
         13    1    4    4    0    0 -0.29698012218E+01 -0.12983268244E+01  0.96478019740E+01  0.10178235592E+02  0.10500000000E+00 0.  1.
    3000001    1    5    5    0    0  0.55083278451E+01 -0.44649278771E+01 -0.36605405628E+02  0.37299235619E+02  0.10000000000E+01 0. -1.
        -13    1    6    6    0    0  0.47770678530E+01  0.19861801654E+01 -0.13467462042E+02  0.14427364547E+02  0.10500000000E+00 0. -1.
         13    1    6    6    0    0  0.35584097606E+01  0.15960483176E+01 -0.10042186843E+02  0.10773402056E+02  0.10500000000E+00 0.  1.
</event>
<event>
11    0  0.3482687E-009  0.9118800E+02  0.7816531E-02  0.1126479E+00
         25   -1    0    0    0    0  0.00000000000E+00  0.00000000000E+00  0.99999998245E-14  0.12500000000E+03  0.12500000000E+03 0.  0.
    3000001    1    3    3    0    0 -0.34828211556E+02  0.41399227017E+02 -0.49958406103E+01  0.54340212929E+02  0.10000000000E+01 0.  1.
    1000022    2    1    0    0    0 -0.36651901563E+02  0.49189561858E+02 -0.65783896949E+01  0.62499999862E+02  0.99999943890E+01 0.  0.
    3000022    2    3    3    0    0 -0.18236900066E+01  0.77903348414E+01 -0.15825490846E+01  0.81597869326E+01  0.24999799780E+00 0.  0.
    1000022    2    1    0    0    0  0.36651901563E+02 -0.49189561858E+02  0.65783896949E+01  0.62500000138E+02  0.99999961174E+01 0.  0.
    3000022    2    5    5    0    0  0.39097194936E+01 -0.58715011533E+01 -0.23961033680E+01  0.74541429316E+01  0.25000636659E+00 0.  0.
        -13    1    4    4    0    0 -0.44998383411E+00  0.20685102199E+01 -0.41378738944E+00  0.21595057269E+01  0.10500000000E+00 0. -1.
         13    1    4    4    0    0 -0.13737061724E+01  0.57218246215E+01 -0.11687616952E+01  0.60002812057E+01  0.10500000000E+00 0.  1.
    3000001    1    5    5    0    0  0.32742182069E+02 -0.43318060705E+02  0.89744930630E+01  0.55045857207E+02  0.10000000000E+01 0.  1.
        -13    1    6    6    0    0  0.13770939014E+01 -0.19694443401E+01 -0.82191939725E+00  0.25419825172E+01  0.10500000000E+00 0. -1.
         13    1    6    6    0    0  0.25326255921E+01 -0.39020568132E+01 -0.15741839708E+01  0.49121604144E+01  0.10500000000E+00 0.  1.
</event>
<event>
11    0  0.3482687E-009  0.9118800E+02  0.7816531E-02  0.1126479E+00
         25   -1    0    0    0    0  0.00000000000E+00  0.00000000000E+00  0.99999998245E-14  0.12500000000E+03  0.12500000000E+03 0.  0.
    3000001    1    3    3    0    0 -0.12060057610E+02  0.13810658637E+02  0.19672052801E+02  0.26910387269E+02  0.10000000000E+01 0. -1.
    1000022    2    1    0    0    0 -0.21722325884E+02  0.25051868063E+02  0.52026863368E+02  0.62499999250E+02  0.99999929509E+01 0.  0.
    3000022    2    3    3    0    0 -0.96622682737E+01  0.11241209426E+02  0.32354810567E+02  0.35589611980E+02  0.24999312039E+00 0.  0.
    1000022    2    1    0    0    0  0.21722325884E+02 -0.25051868063E+02 -0.52026863368E+02  0.62500000750E+02  0.10000002332E+02 0.  0.
    3000022    2    5    5    0    0 -0.75725080194E+00 -0.18270482133E+01 -0.54052216046E+01  0.57611154446E+01  0.24999324153E+00 0.  0.
        -13    1    4    4    0    0 -0.48693333549E+01  0.57688016439E+01  0.16487638025E+02  0.18134020855E+02  0.10500000000E+00 0. -1.
         13    1    4    4    0    0 -0.47929349188E+01  0.54724077821E+01  0.15867172542E+02  0.17455591126E+02  0.10500000000E+00 0.  1.
    3000001    1    5    5    0    0  0.22479576686E+02 -0.23224819850E+02 -0.46621641763E+02  0.56738885306E+02  0.10000000000E+01 0.  1.
        -13    1    6    6    0    0 -0.33331739511E+00 -0.69260325193E+00 -0.22362590489E+01  0.23669979477E+01  0.10500000000E+00 0.  1.
         13    1    6    6    0    0 -0.42393340684E+00 -0.11344449613E+01 -0.31689625557E+01  0.33941174969E+01  0.10500000000E+00 0. -1.
</event>
<event>
11    0  0.3482687E-009  0.9118800E+02  0.7816531E-02  0.1126479E+00
         25   -1    0    0    0    0  0.00000000000E+00  0.00000000000E+00  0.99999998245E-14  0.12500000000E+03  0.12500000000E+03 0.  0.
    3000001    1    3    3    0    0  0.25281827787E+02  0.27881660682E+02 -0.96502590091E+01  0.38867535522E+02  0.10000000000E+01 0. -1.
    1000022    2    1    0    0    0  0.35506990622E+02  0.45780652959E+02 -0.21204608721E+02  0.62499999943E+02  0.99999996783E+01 0.  0.
    3000022    2    3    3    0    0  0.10225162835E+02  0.17898992277E+02 -0.11554349712E+02  0.23632464421E+02  0.24999565596E+00 0.  0.
    1000022    2    1    0    0    0 -0.35506990622E+02 -0.45780652959E+02  0.21204608721E+02  0.62500000057E+02  0.10000000385E+02 0.  0.
    3000022    2    5    5    0    0 -0.93461879722E+01 -0.14102897237E+02  0.10914918827E+02  0.20135563073E+02  0.25001431224E+00 0.  0.
        -13    1    4    4    0    0  0.44379277961E+01  0.78775400801E+01 -0.51114821119E+01  0.10386968529E+02  0.10500000000E+00 0. -1.
         13    1    4    4    0    0  0.57872350388E+01  0.10021452197E+02 -0.64428675997E+01  0.13245495892E+02  0.10500000000E+00 0.  1.
    3000001    1    5    5    0    0 -0.26160802649E+02 -0.31677755722E+02  0.10289689893E+02  0.42364436984E+02  0.10000000000E+01 0.  1.
        -13    1    6    6    0    0 -0.59766920683E+01 -0.90869593042E+01  0.70681583382E+01  0.12971644644E+02  0.10500000000E+00 0. -1.
         13    1    6    6    0    0 -0.33694959038E+01 -0.50159379326E+01  0.38467604893E+01  0.71639184286E+01  0.10500000000E+00 0.  1.
</event>
<event>
11    0  0.3482687E-009  0.9118800E+02  0.7816531E-02  0.1126479E+00
         25   -1    0    0    0    0  0.00000000000E+00  0.00000000000E+00  0.99999998245E-14  0.12500000000E+03  0.12500000000E+03 0.  0.
    3000001    1    3    3    0    0  0.11208029934E+02  0.18375124460E+02  0.22299282068E+02  0.31008436185E+02  0.10000000000E+01 0. -1.
    1000022    2    1    0    0    0  0.24412001282E+02  0.28183739371E+02  0.49152631494E+02  0.62500001133E+02  0.99999993611E+01 0.  0.
    3000022    2    3    3    0    0  0.13203971349E+02  0.98086149113E+01  0.26853349426E+02  0.31491564947E+02  0.25000313928E+00 0.  0.
    1000022    2    1    0    0    0 -0.24412001282E+02 -0.28183739371E+02 -0.49152631494E+02  0.62499998867E+02  0.99999852034E+01 0.  0.
    3000022    2    5    5    0    0 -0.47318108969E+01 -0.15596631795E+01 -0.10299460517E+02  0.11443949062E+02  0.24999922753E+00 0.  0.
        -13    1    4    4    0    0  0.38215431085E+01  0.27863117763E+01  0.77205069811E+01  0.90545556539E+01  0.10500000000E+00 0. -1.
         13    1    4    4    0    0  0.93824282402E+01  0.70223031350E+01  0.19132842445E+02  0.22437009293E+02  0.10500000000E+00 0.  1.
    3000001    1    5    5    0    0 -0.19680190385E+02 -0.26624076192E+02 -0.38853170978E+02  0.51056049805E+02  0.10000000000E+01 0.  1.
        -13    1    6    6    0    0 -0.35860865860E+01 -0.11722947922E+01 -0.78379111772E+01  0.86993200139E+01  0.10500000000E+00 0. -1.
         13    1    6    6    0    0 -0.11457243109E+01 -0.38736838728E+00 -0.24615493393E+01  0.27446290485E+01  0.10500000000E+00 0.  1.
</event>
<event>
11    0  0.3482687E-009  0.9118800E+02  0.7816531E-02  0.1126479E+00
         25   -1    0    0    0    0  0.00000000000E+00  0.00000000000E+00  0.99999998245E-14  0.12500000000E+03  0.12500000000E+03 0.  0.
    3000001    1    3    3    0    0  0.48707971943E+01  0.17826820738E+02  0.30510386016E+01  0.18757106373E+02  0.10000000000E+01 0.  1.
    1000022    2    1    0    0    0  0.13859512434E+02  0.59938343768E+02 -0.46431683944E+01  0.62499999436E+02  0.99999889100E+01 0.  0.
    3000022    2    3    3    0    0  0.89887152398E+01  0.42111523030E+02 -0.76942069960E+01  0.43742893063E+02  0.24999734465E+00 0.  0.
    1000022    2    1    0    0    0 -0.13859512434E+02 -0.59938343768E+02  0.46431683944E+01  0.62500000564E+02  0.99999959540E+01 0.  0.
    3000022    2    5    5    0    0 -0.97070382693E+01 -0.20884379997E+02  0.22298674932E+01  0.23139117073E+02  0.25002007490E+00 0.  0.
        -13    1    4    4    0    0  0.26048591463E+01  0.12121508458E+02 -0.21761503489E+01  0.12588205345E+02  0.10500000000E+00 0.  1.
         13    1    4    4    0    0  0.63838560936E+01  0.29990014572E+02 -0.55180566470E+01  0.31154687718E+02  0.10500000000E+00 0. -1.
    3000001    1    5    5    0    0 -0.41524741649E+01 -0.39053963771E+02  0.24133009012E+01  0.39360883491E+02  0.10000000000E+01 0.  1.
        -13    1    6    6    0    0 -0.43232602467E+01 -0.94115254975E+01  0.10508690703E+01  0.10410703250E+02  0.10500000000E+00 0. -1.
         13    1    6    6    0    0 -0.53837780225E+01 -0.11472854500E+02  0.11789984229E+01  0.12728413823E+02  0.10500000000E+00 0.  1.
</event>
<event>
11    0  0.3482687E-009  0.9118800E+02  0.7816531E-02  0.1126479E+00
         25   -1    0    0    0    0  0.00000000000E+00  0.00000000000E+00  0.99999998245E-14  0.12500000000E+03  0.12500000000E+03 0.  0.
    3000001    1    3    3    0    0  0.23004980357E+01 -0.10987113528E+02 -0.20270730122E+02  0.23192918198E+02  0.10000000000E+01 0. -1.
    1000022    2    1    0    0    0  0.18445119622E+02 -0.29782414879E+02 -0.50784201458E+02  0.62499998792E+02  0.10000002866E+02 0.  0.
    3000022    2    3    3    0    0  0.16144621586E+02 -0.18795301350E+02 -0.30513471337E+02  0.39307080593E+02  0.24998546792E+00 0.  0.
    1000022    2    1    0    0    0 -0.18445119622E+02  0.29782414879E+02  0.50784201458E+02  0.62500001208E+02  0.10000017971E+02 0.  0.
    3000022    2    5    5    0    0 -0.27165371634E+01  0.31541390260E+00  0.21308520774E+01  0.34759310450E+01  0.25001192681E+00 0.  0.
        -13    1    4    4    0    0  0.52828670242E+01 -0.62135859699E+01 -0.99924919866E+01  0.12898769542E+02  0.10500000000E+00 0.  1.
         13    1    4    4    0    0  0.10861754562E+02 -0.12581715381E+02 -0.20520979350E+02  0.26408311051E+02  0.10500000000E+00 0. -1.
    3000001    1    5    5    0    0 -0.15728582458E+02  0.29467000976E+02  0.48653349381E+02  0.59024070163E+02  0.10000000000E+01 0.  1.
        -13    1    6    6    0    0 -0.81463351794E+00  0.12025723035E+00  0.59587237494E+00  0.10218505063E+01  0.10500000000E+00 0.  1.
         13    1    6    6    0    0 -0.19019036455E+01  0.19515667226E+00  0.15349797025E+01  0.24540805387E+01  0.10500000000E+00 0. -1.
</event>
<event>
11    0  0.3482687E-009  0.9118800E+02  0.7816531E-02  0.1126479E+00
         25   -1    0    0    0    0  0.00000000000E+00  0.00000000000E+00  0.99999998245E-14  0.12500000000E+03  0.12500000000E+03 0.  0.
    3000001    1    3    3    0    0  0.17176824142E+01 -0.10730923750E+02 -0.81363358583E+01  0.13612608810E+02  0.10000000000E+01 0. -1.
    1000022    2    1    0    0    0  0.11246733566E+02 -0.56959259373E+02 -0.20866333848E+02  0.62500001574E+02  0.10000003215E+02 0.  0.
    3000022    2    3    3    0    0  0.95290511520E+01 -0.46228335623E+02 -0.12729997989E+02  0.48887392764E+02  0.24998436684E+00 0.  0.
    1000022    2    1    0    0    0 -0.11246733566E+02  0.56959259373E+02  0.20866333848E+02  0.62499998426E+02  0.99999835373E+01 0.  0.
    3000022    2    5    5    0    0 -0.54650885162E+01  0.33636962044E+02  0.71727214946E+01  0.34825606084E+02  0.24999493940E+00 0.  0.
        -13    1    4    4    0    0  0.69781637772E+01 -0.34018425372E+02 -0.93694995477E+01  0.35968688901E+02  0.10500000000E+00 0. -1.
         13    1    4    4    0    0  0.25508873749E+01 -0.12209910251E+02 -0.33604984417E+01  0.12918703863E+02  0.10500000000E+00 0.  1.
    3000001    1    5    5    0    0 -0.57816450501E+01  0.23322297329E+02  0.13693612353E+02  0.27674392342E+02  0.10000000000E+01 0.  1.
        -13    1    6    6    0    0 -0.13728292219E+01  0.86079784820E+01  0.18193847997E+01  0.89052310284E+01  0.10500000000E+00 0. -1.
         13    1    6    6    0    0 -0.40922592942E+01  0.25028983562E+02  0.53533366949E+01  0.25920375056E+02  0.10500000000E+00 0.  1.
</event>
<event>
11    0  0.3482687E-009  0.9118800E+02  0.7816531E-02  0.1126479E+00
         25   -1    0    0    0    0  0.00000000000E+00  0.00000000000E+00  0.99999998245E-14  0.12500000000E+03  0.12500000000E+03 0.  0.
    3000001    1    3    3    0    0  0.18831833737E+02  0.23354426413E+02  0.33883009354E+02  0.45267267620E+02  0.10000000000E+01 0. -1.
    1000022    2    1    0    0    0  0.24944723908E+02  0.26913478367E+02  0.49595115108E+02  0.62499999624E+02  0.99999970886E+01 0.  0.
    3000022    2    3    3    0    0  0.61128901712E+01  0.35590519547E+01  0.15712105754E+02  0.17232732004E+02  0.25001603677E+00 0.  0.
    1000022    2    1    0    0    0 -0.24944723908E+02 -0.26913478367E+02 -0.49595115108E+02  0.62500000376E+02  0.10000001785E+02 0.  0.
    3000022    2    5    5    0    0 -0.57375290778E+00 -0.54951536780E+00  0.41361354415E+00  0.92991255737E+00  0.25000332359E+00 0.  0.
        -13    1    4    4    0    0  0.36070310815E+01  0.20259214647E+01  0.92030078189E+01  0.10090659489E+02  0.10500000000E+00 0.  1.
         13    1    4    4    0    0  0.25058590897E+01  0.15331304901E+01  0.65090979355E+01  0.71420725151E+01  0.10500000000E+00 0. -1.
    3000001    1    5    5    0    0 -0.24370971000E+02 -0.26363963000E+02 -0.50008728652E+02  0.61570087818E+02  0.10000000000E+01 0. -1.
        -13    1    6    6    0    0 -0.27729105006E+00 -0.22497578641E+00  0.25408170684E+00  0.45065168886E+00  0.10500000000E+00 0. -1.
         13    1    6    6    0    0 -0.29646185772E+00 -0.32453958139E+00  0.15953183731E+00  0.47926086851E+00  0.10500000000E+00 0. -1.
</event>
<event>
11    0  0.3482687E-009  0.9118800E+02  0.7816531E-02  0.1126479E+00
         25   -1    0    0    0    0  0.00000000000E+00  0.00000000000E+00  0.99999998245E-14  0.12500000000E+03  0.12500000000E+03 0.  0.
    3000001    1    3    3    0    0  0.41406913368E+02  0.60554198765E+01 -0.44037828454E+02  0.60757970008E+02  0.10000000000E+01 0. -1.
    1000022    2    1    0    0    0  0.41258068171E+02  0.52709418837E+01 -0.45565766362E+02  0.62499998542E+02  0.99999868037E+01 0.  0.
    3000022    2    3    3    0    0 -0.14884519740E+00 -0.78447799287E+00 -0.15279379079E+01  0.17420285339E+01  0.25001709608E+00 0.  0.
    1000022    2    1    0    0    0 -0.41258068171E+02 -0.52709418837E+01  0.45565766362E+02  0.62500001458E+02  0.10000005028E+02 0.  0.
    3000022    2    5    5    0    0 -0.74039980223E+01 -0.24591997898E+00  0.14421483885E+02  0.16214850040E+02  0.25000205200E+00 0.  0.
        -13    1    4    4    0    0 -0.97554332498E-01 -0.51210763847E+00 -0.10957997302E+01  0.12180201681E+01  0.10500000000E+00 0. -1.
         13    1    4    4    0    0 -0.51290864903E-01 -0.27237035440E+00 -0.43213817768E+00  0.52400836576E+00  0.10500000000E+00 0.  1.
    3000001    1    5    5    0    0 -0.33854070149E+02 -0.50250219047E+01  0.31144282477E+02  0.46285151418E+02  0.10000000000E+01 0. -1.
        -13    1    6    6    0    0 -0.51636529686E+01 -0.13236885871E+00  0.10107381349E+02  0.11351256152E+02  0.10500000000E+00 0.  1.
         13    1    6    6    0    0 -0.22403450537E+01 -0.11355112027E+00  0.43141025360E+01  0.48635938880E+01  0.10500000000E+00 0. -1.
</event>
<event>
11    0  0.3482687E-009  0.9118800E+02  0.7816531E-02  0.1126479E+00
         25   -1    0    0    0    0  0.00000000000E+00  0.00000000000E+00  0.99999998245E-14  0.12500000000E+03  0.12500000000E+03 0.  0.
    3000001    1    3    3    0    0 -0.31248514968E+02 -0.11855553625E+01  0.23612333386E+02  0.39197162106E+02  0.10000000000E+01 0.  1.
    1000022    2    1    0    0    0 -0.53319614238E+02 -0.27808115330E+01  0.30911745991E+02  0.62499998576E+02  0.99999803263E+01 0.  0.
    3000022    2    3    3    0    0 -0.22071099270E+02 -0.15952561706E+01  0.72994126050E+01  0.23302836470E+02  0.24999588992E+00 0.  0.
    1000022    2    1    0    0    0  0.53319614238E+02  0.27808115330E+01 -0.30911745991E+02  0.62500001424E+02  0.99999981258E+01 0.  0.
    3000022    2    5    5    0    0  0.35265996764E+02 -0.21747550620E+01 -0.22939898958E+02  0.42127444165E+02  0.25000058213E+00 0.  0.
        -13    1    4    4    0    0 -0.87054948082E+01 -0.58834952564E+00  0.29280662422E+01  0.92041507994E+01  0.10500000000E+00 0.  1.
         13    1    4    4    0    0 -0.13365604461E+02 -0.10069066449E+01  0.43713463628E+01  0.14098685670E+02  0.10500000000E+00 0. -1.
    3000001    1    5    5    0    0  0.18053617474E+02  0.49555665950E+01 -0.79718470332E+01  0.20372557259E+02  0.10000000000E+01 0.  1.
        -13    1    6    6    0    0  0.11524838688E+02 -0.76298752645E+00 -0.74965982342E+01  0.13770042369E+02  0.10500000000E+00 0. -1.
         13    1    6    6    0    0  0.23741158076E+02 -0.14117675356E+01 -0.15443300724E+02  0.28357401796E+02  0.10500000000E+00 0.  1.
</event>
<event>
11    0  0.3482687E-009  0.9118800E+02  0.7816531E-02  0.1126479E+00
         25   -1    0    0    0    0  0.00000000000E+00  0.00000000000E+00  0.99999998245E-14  0.12500000000E+03  0.12500000000E+03 0.  0.
    3000001    1    3    3    0    0  0.99844164495E+01  0.37426314724E+02  0.18823082563E+02  0.43078138804E+02  0.10000000000E+01 0. -1.
    1000022    2    1    0    0    0  0.14757465636E+02  0.56134387517E+02  0.20914058466E+02  0.62499999309E+02  0.99999909118E+01 0.  0.
    3000022    2    3    3    0    0  0.47730491869E+01  0.18708072793E+02  0.20909759027E+01  0.19421860505E+02  0.24999816863E+00 0.  0.
    1000022    2    1    0    0    0 -0.14757465636E+02 -0.56134387517E+02 -0.20914058466E+02  0.62500000691E+02  0.99999995447E+01 0.  0.
    3000022    2    5    5    0    0 -0.24551456406E+01 -0.91088842371E+01 -0.75294738871E+01  0.12072903408E+02  0.25001504100E+00 0.  0.
        -13    1    4    4    0    0  0.18138840961E+01  0.68766964577E+01  0.75591824729E+00  0.71527314421E+01  0.10500000000E+00 0.  1.
         13    1    4    4    0    0  0.29591650908E+01  0.11831376336E+02  0.13350576554E+01  0.12269129063E+02  0.10500000000E+00 0. -1.
    3000001    1    5    5    0    0 -0.12302319996E+02 -0.47025503280E+02 -0.13384584579E+02  0.50427097283E+02  0.10000000000E+01 0.  1.
        -13    1    6    6    0    0 -0.14069655907E+01 -0.54427376991E+01 -0.45190984086E+01  0.72136136063E+01  0.10500000000E+00 0.  1.
         13    1    6    6    0    0 -0.10481800500E+01 -0.36661465380E+01 -0.30103754785E+01  0.48592898017E+01  0.10500000000E+00 0. -1.
</event>
<event>
11    0  0.3482687E-009  0.9118800E+02  0.7816531E-02  0.1126479E+00
         25   -1    0    0    0    0  0.00000000000E+00  0.00000000000E+00  0.99999998245E-14  0.12500000000E+03  0.12500000000E+03 0.  0.
    3000001    1    3    3    0    0 -0.66439761686E+00  0.84468377760E+01  0.17934832142E+02  0.19860732528E+02  0.10000000000E+01 0.  1.
    1000022    2    1    0    0    0  0.12124795477E+02  0.24486237410E+02  0.55314224439E+02  0.62500001599E+02  0.10000014338E+02 0.  0.
    3000022    2    3    3    0    0  0.12789193094E+02  0.16039399634E+02  0.37379392297E+02  0.42639269071E+02  0.24999557104E+00 0.  0.
    1000022    2    1    0    0    0 -0.12124795477E+02 -0.24486237410E+02 -0.55314224439E+02  0.62499998401E+02  0.99999943533E+01 0.  0.
    3000022    2    5    5    0    0 -0.81298634802E+01 -0.11352910638E+02 -0.37304009900E+02  0.39832586077E+02  0.24999757865E+00 0.  0.
        -13    1    4    4    0    0  0.42488723768E+01  0.52451859777E+01  0.12283657053E+02  0.14016566913E+02  0.10500000000E+00 0.  1.
         13    1    4    4    0    0  0.85403207168E+01  0.10794213656E+02  0.25095735244E+02  0.28622702158E+02  0.10500000000E+00 0. -1.
    3000001    1    5    5    0    0 -0.39949319965E+01 -0.13133326772E+02 -0.18010214539E+02  0.22667412324E+02  0.10000000000E+01 0. -1.
        -13    1    6    6    0    0 -0.49546161042E+01 -0.70114119054E+01 -0.23018219564E+02  0.24567408788E+02  0.10500000000E+00 0.  1.
         13    1    6    6    0    0 -0.31752473760E+01 -0.43414987322E+01 -0.14285790336E+02  0.15265177289E+02  0.10500000000E+00 0. -1.
</event>
<event>
11    0  0.3482687E-009  0.9118800E+02  0.7816531E-02  0.1126479E+00
         25   -1    0    0    0    0  0.00000000000E+00  0.00000000000E+00  0.99999998245E-14  0.12500000000E+03  0.12500000000E+03 0.  0.
    3000001    1    3    3    0    0  0.19144638953E+02  0.10280219503E+02 -0.95714733537E+01  0.23765799289E+02  0.10000000000E+01 0. -1.
    1000022    2    1    0    0    0  0.43892119113E+02  0.37366397733E+02 -0.21988276995E+02  0.62500000440E+02  0.99999965009E+01 0.  0.
    3000022    2    3    3    0    0  0.24747480160E+02  0.27086178230E+02 -0.12416803641E+02  0.38734201151E+02  0.25000156034E+00 0.  0.
    1000022    2    1    0    0    0 -0.43892119113E+02 -0.37366397733E+02  0.21988276995E+02  0.62499999560E+02  0.99999910035E+01 0.  0.
    3000022    2    5    5    0    0 -0.18421152088E+02 -0.21294709600E+02  0.13282656388E+02  0.31133502294E+02  0.25000628703E+00 0.  0.
        -13    1    4    4    0    0  0.92054807830E+01  0.10020487981E+02 -0.46544579372E+01  0.14381448450E+02  0.10500000000E+00 0. -1.
         13    1    4    4    0    0  0.15541999377E+02  0.17065690249E+02 -0.77623457041E+01  0.24352752702E+02  0.10500000000E+00 0.  1.
    3000001    1    5    5    0    0 -0.25470967025E+02 -0.16071688133E+02  0.87056206066E+01  0.31366497267E+02  0.10000000000E+01 0.  1.
        -13    1    6    6    0    0 -0.47933170081E+01 -0.55155248680E+01  0.34768116959E+01  0.80929689903E+01  0.10500000000E+00 0. -1.
         13    1    6    6    0    0 -0.13627835080E+02 -0.15779184732E+02  0.98058446925E+01  0.23040533303E+02  0.10500000000E+00 0.  1.
</event>
<event>
11    0  0.3482687E-009  0.9118800E+02  0.7816531E-02  0.1126479E+00
         25   -1    0    0    0    0  0.00000000000E+00  0.00000000000E+00  0.99999998245E-14  0.12500000000E+03  0.12500000000E+03 0.  0.
    3000001    1    3    3    0    0 -0.58025307631E+01 -0.82663177538E+01  0.72633582149E+01  0.12480294268E+02  0.10000000000E+01 0.  1.
    1000022    2    1    0    0    0 -0.43255520429E+02 -0.28297026217E+02  0.33682160641E+02  0.62500003748E+02  0.10000039136E+02 0.  0.
    3000022    2    3    3    0    0 -0.37452989666E+02 -0.20030708464E+02  0.26418802426E+02  0.50019709480E+02  0.24999669329E+00 0.  0.
    1000022    2    1    0    0    0  0.43255520429E+02  0.28297026217E+02 -0.33682160641E+02  0.62499996252E+02  0.99999922837E+01 0.  0.
    3000022    2    5    5    0    0  0.30896128691E+02  0.18951771403E+02 -0.18145677990E+02  0.40534781824E+02  0.25000083516E+00 0.  0.
        -13    1    4    4    0    0 -0.14380546568E+02 -0.76221160040E+01  0.10132273415E+02  0.19172135028E+02  0.10500000000E+00 0.  1.
         13    1    4    4    0    0 -0.23072443097E+02 -0.12408592460E+02  0.16286529011E+02  0.30847574452E+02  0.10500000000E+00 0. -1.
    3000001    1    5    5    0    0  0.12359391738E+02  0.93452548148E+01 -0.15536482651E+02  0.21965214428E+02  0.10000000000E+01 0.  1.
        -13    1    6    6    0    0  0.19623716349E+02  0.11984408753E+02 -0.11553788147E+02  0.25733583933E+02  0.10500000000E+00 0.  1.
         13    1    6    6    0    0  0.11272412342E+02  0.69673626498E+01 -0.65918898437E+01  0.14801197891E+02  0.10500000000E+00 0. -1.
</event>
<event>
11    0  0.3482687E-009  0.9118800E+02  0.7816531E-02  0.1126479E+00
         25   -1    0    0    0    0  0.00000000000E+00  0.00000000000E+00  0.99999998245E-14  0.12500000000E+03  0.12500000000E+03 0.  0.
    3000001    1    3    3    0    0 -0.21141643645E+01  0.11364743070E+02  0.16902604335E+02  0.20501831852E+02  0.10000000000E+01 0. -1.
    1000022    2    1    0    0    0 -0.12995342994E+02  0.43010106228E+02  0.42278859455E+02  0.62499996969E+02  0.99999743510E+01 0.  0.
    3000022    2    3    3    0    0 -0.10881178630E+02  0.31645363158E+02  0.25376255121E+02  0.41998165117E+02  0.24998291751E+00 0.  0.
    1000022    2    1    0    0    0  0.12995342994E+02 -0.43010106228E+02 -0.42278859455E+02  0.62500003031E+02  0.10000012236E+02 0.  0.
    3000022    2    5    5    0    0  0.47414562830E+01 -0.21806128557E+02 -0.14659960942E+02  0.26701415489E+02  0.24996787667E+00 0.  0.
        -13    1    4    4    0    0 -0.77864062049E+01  0.22546650421E+02  0.18122365358E+02  0.29956814216E+02  0.10500000000E+00 0. -1.
         13    1    4    4    0    0 -0.30947724249E+01  0.90987127367E+01  0.72538897630E+01  0.12041350901E+02  0.10500000000E+00 0.  1.
    3000001    1    5    5    0    0  0.82538867113E+01 -0.21203977671E+02 -0.27618898514E+02  0.35798587542E+02  0.10000000000E+01 0.  1.
        -13    1    6    6    0    0  0.24324723063E+01 -0.10953933631E+02 -0.74266311475E+01  0.13456279527E+02  0.10500000000E+00 0.  1.
         13    1    6    6    0    0  0.23089839766E+01 -0.10852194926E+02 -0.72333297940E+01  0.13245135961E+02  0.10500000000E+00 0. -1.
</event>
<event>
11    0  0.3482687E-009  0.9118800E+02  0.7816531E-02  0.1126479E+00
         25   -1    0    0    0    0  0.00000000000E+00  0.00000000000E+00  0.99999998245E-14  0.12500000000E+03  0.12500000000E+03 0.  0.
    3000001    1    3    3    0    0  0.17622805240E+02  0.32192850513E+02  0.61773077145E+01  0.37230391071E+02  0.10000000000E+01 0.  1.
    1000022    2    1    0    0    0  0.24137821067E+02  0.54343810294E+02  0.16442797513E+02  0.62500001937E+02  0.10000026446E+02 0.  0.
    3000022    2    3    3    0    0  0.65150158263E+01  0.22150959781E+02  0.10265489798E+02  0.25269610866E+02  0.25000414455E+00 0.  0.
    1000022    2    1    0    0    0 -0.24137821067E+02 -0.54343810294E+02 -0.16442797513E+02  0.62499998063E+02  0.10000002239E+02 0.  0.
    3000022    2    5    5    0    0 -0.20332419133E+01 -0.16911094178E+01 -0.26345196270E+01  0.37412721816E+01  0.25000026183E+00 0.  0.
        -13    1    4    4    0    0  0.34725298810E+01  0.12020454517E+02  0.55946019779E+01  0.13706217088E+02  0.10500000000E+00 0. -1.
         13    1    4    4    0    0  0.30424859453E+01  0.10130505263E+02  0.46708878203E+01  0.11563393777E+02  0.10500000000E+00 0.  1.
    3000001    1    5    5    0    0 -0.22104579153E+02 -0.52652700876E+02 -0.13808277886E+02  0.58758725882E+02  0.10000000000E+01 0. -1.
        -13    1    6    6    0    0 -0.10736583691E+01 -0.91327086213E+00 -0.13110670940E+01  0.19278817096E+01  0.10500000000E+00 0. -1.
         13    1    6    6    0    0 -0.95958354418E+00 -0.77783855569E+00 -0.13234525329E+01  0.18133904720E+01  0.10500000000E+00 0.  1.
</event>
<event>
11    0  0.3482687E-009  0.9118800E+02  0.7816531E-02  0.1126479E+00
         25   -1    0    0    0    0  0.00000000000E+00  0.00000000000E+00  0.99999998245E-14  0.12500000000E+03  0.12500000000E+03 0.  0.
    3000001    1    3    3    0    0  0.23986185444E+02  0.62170532611E+01 -0.37191357914E+01  0.25076299856E+02  0.10000000000E+01 0.  1.
    1000022    2    1    0    0    0  0.54671075346E+02  0.26193810482E+02 -0.11454603550E+02  0.62499999029E+02  0.99999874536E+01 0.  0.
    3000022    2    3    3    0    0  0.30684889901E+02  0.19976757221E+02 -0.77354677583E+01  0.37423699173E+02  0.25000202716E+00 0.  0.
    1000022    2    1    0    0    0 -0.54671075346E+02 -0.26193810482E+02  0.11454603550E+02  0.62500000971E+02  0.99999995964E+01 0.  0.
    3000022    2    5    5    0    0 -0.46048792220E+02 -0.17971174529E+02  0.10246253209E+02  0.50482695996E+02  0.25002272130E+00 0.  0.
        -13    1    4    4    0    0  0.20100704036E+02  0.13129276962E+02 -0.50290763355E+01  0.24529958216E+02  0.10500000000E+00 0.  1.
         13    1    4    4    0    0  0.10584185865E+02  0.68474802589E+01 -0.27063914228E+01  0.12893740956E+02  0.10500000000E+00 0. -1.
    3000001    1    5    5    0    0 -0.86222831257E+01 -0.82226359537E+01  0.12083503410E+01  0.12017304975E+02  0.10000000000E+01 0.  1.
        -13    1    6    6    0    0 -0.25431302203E+02 -0.99209711071E+01  0.57262597096E+01  0.27892254744E+02  0.10500000000E+00 0. -1.
         13    1    6    6    0    0 -0.20617490016E+02 -0.80502034215E+01  0.45199934991E+01  0.22590441252E+02  0.10500000000E+00 0.  1.
</event>
<event>
11    0  0.3482687E-009  0.9118800E+02  0.7816531E-02  0.1126479E+00
         25   -1    0    0    0    0  0.00000000000E+00  0.00000000000E+00  0.99999998245E-14  0.12500000000E+03  0.12500000000E+03 0.  0.
    3000001    1    3    3    0    0 -0.17069540808E+02 -0.62073854457E+01  0.51979704095E+02  0.55070777144E+02  0.10000000000E+01 0.  1.
    1000022    2    1    0    0    0 -0.16205460645E+02 -0.88398508319E+01  0.58868413573E+02  0.62499999970E+02  0.99999981063E+01 0.  0.
    3000022    2    3    3    0    0  0.86408016364E+00 -0.26324653862E+01  0.68887094784E+01  0.74292228254E+01  0.25004993945E+00 0.  0.
    1000022    2    1    0    0    0  0.16205460645E+02  0.88398508319E+01 -0.58868413573E+02  0.62500000030E+02  0.99999984857E+01 0.  0.
    3000022    2    5    5    0    0  0.14676612229E+02  0.32783631298E+01 -0.44992498821E+02  0.47439836248E+02  0.25000348874E+00 0.  0.
        -13    1    4    4    0    0  0.39184772191E+00 -0.12435819462E+01  0.30678547108E+01  0.33350859390E+01  0.10500000000E+00 0.  1.
         13    1    4    4    0    0  0.47223244174E+00 -0.13888834400E+01  0.38208547676E+01  0.40941368864E+01  0.10500000000E+00 0. -1.
    3000001    1    5    5    0    0  0.15288484159E+01  0.55614877022E+01 -0.13875914752E+02  0.15060163782E+02  0.10000000000E+01 0. -1.
        -13    1    6    6    0    0  0.10878559640E+02  0.24164579129E+01 -0.33426422383E+02  0.35235196423E+02  0.10500000000E+00 0. -1.
         13    1    6    6    0    0  0.37980525888E+01  0.86190521690E+00 -0.11566076438E+02  0.12204639825E+02  0.10500000000E+00 0.  1.
</event>
<event>
11    0  0.3482687E-009  0.9118800E+02  0.7816531E-02  0.1126479E+00
         25   -1    0    0    0    0  0.00000000000E+00  0.00000000000E+00  0.99999998245E-14  0.12500000000E+03  0.12500000000E+03 0.  0.
    3000001    1    3    3    0    0 -0.95850804450E+01 -0.94717163983E+01 -0.18683174734E+02  0.23057497627E+02  0.10000000000E+01 0. -1.
    1000022    2    1    0    0    0 -0.17678866139E+02 -0.17667047263E+02 -0.56405523597E+02  0.62499999060E+02  0.99999961633E+01 0.  0.
    3000022    2    3    3    0    0 -0.80937856945E+01 -0.81953308644E+01 -0.37722348862E+02  0.39442501433E+02  0.25000143128E+00 0.  0.
    1000022    2    1    0    0    0  0.17678866139E+02  0.17667047263E+02  0.56405523597E+02  0.62500000940E+02  0.10000007919E+02 0.  0.
    3000022    2    5    5    0    0  0.14092065401E+01  0.75348464765E+01  0.17997351658E+02  0.19563408296E+02  0.25000590323E+00 0.  0.
        -13    1    4    4    0    0 -0.55954290073E+01 -0.57051059406E+01 -0.26034972420E+02  0.27233947079E+02  0.10500000000E+00 0.  1.
         13    1    4    4    0    0 -0.24983566871E+01 -0.24902249238E+01 -0.11687376442E+02  0.12208554354E+02  0.10500000000E+00 0. -1.
    3000001    1    5    5    0    0  0.16269659599E+02  0.10132200786E+02  0.38408171939E+02  0.42936592645E+02  0.10000000000E+01 0. -1.
        -13    1    6    6    0    0  0.99575654364E+00  0.50956151132E+01  0.12110845048E+02  0.13177268961E+02  0.10500000000E+00 0.  1.
         13    1    6    6    0    0  0.41344999642E+00  0.24392313633E+01  0.58865066097E+01  0.63861393353E+01  0.10500000000E+00 0.  1.
</event>
<event>
11    0  0.3482687E-009  0.9118800E+02  0.7816531E-02  0.1126479E+00
         25   -1    0    0    0    0  0.00000000000E+00  0.00000000000E+00  0.99999998245E-14  0.12500000000E+03  0.12500000000E+03 0.  0.
    3000001    1    3    3    0    0 -0.27512381286E+01  0.84692258943E+01  0.31714349769E+01  0.95055298801E+01  0.10000000000E+01 0.  1.
    1000022    2    1    0    0    0 -0.21256594085E+02  0.42582912935E+02  0.39256883049E+02  0.62500000285E+02  0.99999951387E+01 0.  0.
    3000022    2    3    3    0    0 -0.18505355957E+02  0.34113687041E+02  0.36085448072E+02  0.52994470405E+02  0.24997669718E+00 0.  0.
    1000022    2    1    0    0    0  0.21256594085E+02 -0.42582912935E+02 -0.39256883049E+02  0.62499999715E+02  0.99999915720E+01 0.  0.
    3000022    2    5    5    0    0  0.91322144385E+01 -0.23593483038E+02 -0.15153668268E+02  0.29491455481E+02  0.25000401544E+00 0.  0.
        -13    1    4    4    0    0 -0.77739252376E+01  0.14299308067E+02  0.15047527485E+02  0.22166263402E+02  0.10500000000E+00 0. -1.
         13    1    4    4    0    0 -0.10731430719E+02  0.19814378974E+02  0.21037920587E+02  0.30828207003E+02  0.10500000000E+00 0.  1.
    3000001    1    5    5    0    0  0.12124379647E+02 -0.18989429898E+02 -0.24103214780E+02  0.33008544234E+02  0.10000000000E+01 0.  1.
        -13    1    6    6    0    0  0.48692797812E+01 -0.12399401861E+02 -0.79993989436E+01  0.15538869346E+02  0.10500000000E+00 0.  1.
         13    1    6    6    0    0  0.42629346573E+01 -0.11194081176E+02 -0.71542693248E+01  0.13952586135E+02  0.10500000000E+00 0. -1.
</event>
<event>
11    0  0.3482687E-009  0.9118800E+02  0.7816531E-02  0.1126479E+00
         25   -1    0    0    0    0  0.00000000000E+00  0.00000000000E+00  0.99999998245E-14  0.12500000000E+03  0.12500000000E+03 0.  0.
    3000001    1    3    3    0    0 -0.41906420911E+01 -0.16675576525E+02 -0.10294858893E+01  0.17253874196E+02  0.10000000000E+01 0. -1.
    1000022    2    1    0    0    0 -0.34693686557E+01 -0.61200138269E+02  0.69824897795E+01  0.62499991030E+02  0.10000013611E+02 0.  0.
    3000022    2    3    3    0    0  0.72127343542E+00 -0.44524561744E+02  0.80119756688E+01  0.45246116834E+02  0.25000113961E+00 0.  0.
    1000022    2    1    0    0    0  0.34693686557E+01  0.61200138269E+02 -0.69824897795E+01  0.62500008970E+02  0.10000125738E+02 0.  0.
    3000022    2    5    5    0    0  0.22442545220E+01  0.25104211398E+01 -0.11700938584E-01  0.33766151369E+01  0.25000042440E+00 0.  0.
        -13    1    4    4    0    0  0.53447667439E+00 -0.29970090401E+02  0.53746509957E+01  0.30453076730E+02  0.10500000000E+00 0. -1.
         13    1    4    4    0    0  0.18679676103E+00 -0.14554471343E+02  0.26373246732E+01  0.14793040104E+02  0.10500000000E+00 0.  1.
    3000001    1    5    5    0    0  0.12251141337E+01  0.58689717129E+02 -0.69707888410E+01  0.59123393833E+02  0.10000000000E+01 0. -1.
        -13    1    6    6    0    0  0.11676758458E+01  0.12056185358E+01 -0.16293122634E-01  0.16817471274E+01  0.10500000000E+00 0.  1.
         13    1    6    6    0    0  0.10765786762E+01  0.13048026040E+01  0.45921840506E-02  0.16948680095E+01  0.10500000000E+00 0. -1.
</event>
<event>
11    0  0.3482687E-009  0.9118800E+02  0.7816531E-02  0.1126479E+00
         25   -1    0    0    0    0  0.00000000000E+00  0.00000000000E+00  0.99999998245E-14  0.12500000000E+03  0.12500000000E+03 0.  0.
    3000001    1    3    3    0    0  0.14566357973E+01 -0.11856477299E+01 -0.93275999449E+00  0.23232713128E+01  0.10000000000E+01 0. -1.
    1000022    2    1    0    0    0  0.11892951150E+02 -0.20470883161E+02 -0.56971488665E+02  0.62499999313E+02  0.10000002449E+02 0.  0.
    3000022    2    3    3    0    0  0.10436315352E+02 -0.19285235431E+02 -0.56038728670E+02  0.60176728000E+02  0.24999609615E+00 0.  0.
    1000022    2    1    0    0    0 -0.11892951150E+02  0.20470883161E+02  0.56971488665E+02  0.62500000687E+02  0.10000011040E+02 0.  0.
    3000022    2    5    5    0    0  0.28808699410E+00 -0.35953472413E+00 -0.95560021480E-01  0.53281545766E+00  0.25000252038E+00 0.  0.
        -13    1    4    4    0    0  0.72684166518E+01 -0.13403152612E+02 -0.39087584027E+02  0.41956222788E+02  0.10500000000E+00 0.  1.
         13    1    4    4    0    0  0.31678987005E+01 -0.58820828199E+01 -0.16951144643E+02  0.18220505212E+02  0.10500000000E+00 0. -1.
    3000001    1    5    5    0    0 -0.12181038144E+02  0.20830417885E+02  0.57067048686E+02  0.61967185230E+02  0.10000000000E+01 0.  1.
        -13    1    6    6    0    0  0.11829119354E+00 -0.25102374958E+00 -0.62320938058E-01  0.30317425458E+00  0.10500000000E+00 0.  1.
         13    1    6    6    0    0  0.16979580056E+00 -0.10851097455E+00 -0.33239083423E-01  0.22964120308E+00  0.10500000000E+00 0. -1.
</event>
<event>
11    0  0.3482687E-009  0.9118800E+02  0.7816531E-02  0.1126479E+00
         25   -1    0    0    0    0  0.00000000000E+00  0.00000000000E+00  0.99999998245E-14  0.12500000000E+03  0.12500000000E+03 0.  0.
    3000001    1    3    3    0    0 -0.40204552288E+01 -0.22407637170E+02 -0.73554349822E+01  0.23945118241E+02  0.10000000000E+01 0. -1.
    1000022    2    1    0    0    0  0.19443440100E+01 -0.58140374098E+02 -0.20546687625E+02  0.62500000638E+02  0.10000006676E+02 0.  0.
    3000022    2    3    3    0    0  0.59647992388E+01 -0.35732736927E+02 -0.13191252643E+02  0.38554882397E+02  0.24998410989E+00 0.  0.
    1000022    2    1    0    0    0 -0.19443440100E+01  0.58140374098E+02  0.20546687625E+02  0.62499999362E+02  0.99999987067E+01 0.  0.
    3000022    2    5    5    0    0  0.13789788519E+00  0.29319041343E+02  0.52414366271E+01  0.29785237233E+02  0.24999608277E+00 0.  0.
        -13    1    4    4    0    0  0.22171530781E+01 -0.13505144301E+02 -0.49322500995E+01  0.14547948529E+02  0.10500000000E+00 0. -1.
         13    1    4    4    0    0  0.37476461607E+01 -0.22227592626E+02 -0.82590025430E+01  0.24006933867E+02  0.10500000000E+00 0.  1.
    3000001    1    5    5    0    0 -0.20822418952E+01  0.28821332755E+02  0.15305250998E+02  0.32714762129E+02  0.10000000000E+01 0.  1.
        -13    1    6    6    0    0  0.13418410671E+00  0.14681152542E+02  0.26054404530E+01  0.14911525418E+02  0.10500000000E+00 0.  1.
         13    1    6    6    0    0  0.37137784793E-02  0.14637888801E+02  0.26359961741E+01  0.14873711816E+02  0.10500000000E+00 0. -1.
</event>
<event>
11    0  0.3482687E-009  0.9118800E+02  0.7816531E-02  0.1126479E+00
         25   -1    0    0    0    0  0.00000000000E+00  0.00000000000E+00  0.99999998245E-14  0.12500000000E+03  0.12500000000E+03 0.  0.
    3000001    1    3    3    0    0  0.58453777510E+01 -0.39184172928E+02  0.32000168512E+02  0.50937006527E+02  0.10000000000E+01 0. -1.
    1000022    2    1    0    0    0  0.50442780317E+01 -0.50145728695E+02  0.35583859503E+02  0.62499999348E+02  0.10000000707E+02 0.  0.
    3000022    2    3    3    0    0 -0.80109971927E+00 -0.10961555767E+02  0.35836909906E+01  0.11562992821E+02  0.24999253759E+00 0.  0.
    1000022    2    1    0    0    0 -0.50442780317E+01  0.50145728695E+02 -0.35583859503E+02  0.62500000652E+02  0.10000008859E+02 0.  0.
    3000022    2    5    5    0    0 -0.72371055869E+01  0.22682953381E+02 -0.16777801006E+02  0.29128150886E+02  0.24999215001E+00 0.  0.
        -13    1    4    4    0    0 -0.36158254881E+00 -0.41203921877E+01  0.13457798749E+01  0.43509219932E+01  0.10500000000E+00 0. -1.
         13    1    4    4    0    0 -0.43951717046E+00 -0.68411635794E+01  0.22379111157E+01  0.72120708278E+01  0.10500000000E+00 0.  1.
    3000001    1    5    5    0    0  0.21928275552E+01  0.27462775314E+02 -0.18806058497E+02  0.33371849766E+02  0.10000000000E+01 0.  1.
        -13    1    6    6    0    0 -0.33018031885E+01  0.10541656720E+02 -0.78243458890E+01  0.13537349973E+02  0.10500000000E+00 0. -1.
         13    1    6    6    0    0 -0.39353023984E+01  0.12141296661E+02 -0.89534551168E+01  0.15590800913E+02  0.10500000000E+00 0.  1.
</event>
<event>
11    0  0.3482687E-009  0.9118800E+02  0.7816531E-02  0.1126479E+00
         25   -1    0    0    0    0  0.00000000000E+00  0.00000000000E+00  0.99999998245E-14  0.12500000000E+03  0.12500000000E+03 0.  0.
    3000001    1    3    3    0    0  0.28198028950E+02 -0.50099136441E+01  0.10501306971E+02  0.30520575346E+02  0.10000000000E+01 0. -1.
    1000022    2    1    0    0    0  0.57377992727E+02 -0.17489577685E+02  0.14426727502E+02  0.62500001978E+02  0.10000020189E+02 0.  0.
    3000022    2    3    3    0    0  0.29179963778E+02 -0.12479664041E+02  0.39254205312E+01  0.31979426631E+02  0.25000138869E+00 0.  0.
    1000022    2    1    0    0    0 -0.57377992727E+02  0.17489577685E+02 -0.14426727502E+02  0.62499998022E+02  0.99999954667E+01 0.  0.
    3000022    2    5    5    0    0 -0.46165327906E+02  0.17380465801E+02 -0.13807589517E+02  0.51225287842E+02  0.24998826296E+00 0.  0.
        -13    1    4    4    0    0  0.20822656381E+02 -0.89427465981E+01  0.27791075987E+01  0.22831780472E+02  0.10500000000E+00 0.  1.
         13    1    4    4    0    0  0.83573073960E+01 -0.35369174429E+01  0.11463129325E+01  0.91476461589E+01  0.10500000000E+00 0. -1.
    3000001    1    5    5    0    0 -0.11212664821E+02  0.10911188459E+00 -0.61913798494E+00  0.11274710180E+02  0.10000000000E+01 0. -1.
        -13    1    6    6    0    0 -0.23641869250E+02  0.88566919646E+01 -0.71225081680E+01  0.26232043798E+02  0.10500000000E+00 0.  1.
         13    1    6    6    0    0 -0.22523458656E+02  0.85237738359E+01 -0.66850813490E+01  0.24993244045E+02  0.10500000000E+00 0. -1.
</event>
<event>
11    0  0.3482687E-009  0.9118800E+02  0.7816531E-02  0.1126479E+00
         25   -1    0    0    0    0  0.00000000000E+00  0.00000000000E+00  0.99999998245E-14  0.12500000000E+03  0.12500000000E+03 0.  0.
    3000001    1    3    3    0    0  0.13367135781E+02 -0.27105768312E+01  0.41125292398E+02  0.43339557226E+02  0.10000000000E+01 0.  1.
    1000022    2    1    0    0    0  0.24898120839E+02 -0.20392606418E+01  0.56410769383E+02  0.62500000668E+02  0.10000008791E+02 0.  0.
    3000022    2    3    3    0    0  0.11530985059E+02  0.67131618934E+00  0.15285476985E+02  0.19160443442E+02  0.25000876040E+00 0.  0.
    1000022    2    1    0    0    0 -0.24898120839E+02  0.20392606418E+01 -0.56410769383E+02  0.62499999332E+02  0.10000000444E+02 0.  0.
    3000022    2    5    5    0    0 -0.11904839288E+02  0.24590654072E+01 -0.38302919378E+02  0.40186419760E+02  0.24999829102E+00 0.  0.
        -13    1    4    4    0    0  0.84820929359E+01  0.48422327001E+00  0.11187873794E+02  0.14048484537E+02  0.10500000000E+00 0.  1.
         13    1    4    4    0    0  0.30488921227E+01  0.18709291933E+00  0.40976031907E+01  0.51119589048E+01  0.10500000000E+00 0. -1.
    3000001    1    5    5    0    0 -0.12993281551E+02 -0.41980476540E+00 -0.18107850005E+02  0.22313579572E+02  0.10000000000E+01 0.  1.
        -13    1    6    6    0    0 -0.58719147913E+01  0.11469012739E+01 -0.18918063570E+02  0.19841847699E+02  0.10500000000E+00 0.  1.
         13    1    6    6    0    0 -0.60329244971E+01  0.13121641333E+01 -0.19384855807E+02  0.20344572062E+02  0.10500000000E+00 0. -1.
</event>
<event>
11    0  0.3482687E-009  0.9118800E+02  0.7816531E-02  0.1126479E+00
         25   -1    0    0    0    0  0.00000000000E+00  0.00000000000E+00  0.99999998245E-14  0.12500000000E+03  0.12500000000E+03 0.  0.
    3000001    1    3    3    0    0 -0.39939085485E+01 -0.54404530776E+00  0.19404285419E+01  0.45839452131E+01  0.10000000000E+01 0.  1.
    1000022    2    1    0    0    0 -0.61003040786E+02  0.91107245972E+01 -0.13688309220E+01  0.62500000326E+02  0.10000002742E+02 0.  0.
    3000022    2    3    3    0    0 -0.57009132237E+02  0.96547699049E+01 -0.33092594639E+01  0.57916055112E+02  0.25000250432E+00 0.  0.
    1000022    2    1    0    0    0  0.61003040786E+02 -0.91107245972E+01  0.13688309220E+01  0.62499999674E+02  0.99999986718E+01 0.  0.
    3000022    2    5    5    0    0  0.38139424550E+02 -0.87903695649E+00  0.14750840754E+01  0.38178878843E+02  0.25001134722E+00 0.  0.
        -13    1    4    4    0    0 -0.38457141291E+02  0.64633137539E+01 -0.22494557239E+01  0.39061454364E+02  0.10500000000E+00 0. -1.
         13    1    4    4    0    0 -0.18551990946E+02  0.31914561510E+01 -0.10598037400E+01  0.18854600748E+02  0.10500000000E+00 0.  1.
    3000001    1    5    5    0    0  0.22863616235E+02 -0.82316876407E+01 -0.10625315340E+00  0.24321120832E+02  0.10000000000E+01 0. -1.
        -13    1    6    6    0    0  0.10479133432E+02 -0.25147339878E+00  0.36879647511E+00  0.10489161654E+02  0.10500000000E+00 0.  1.
         13    1    6    6    0    0  0.27660291118E+02 -0.62756355770E+00  0.11062876003E+01  0.27689717189E+02  0.10500000000E+00 0. -1.
</event>
<event>
11    0  0.3482687E-009  0.9118800E+02  0.7816531E-02  0.1126479E+00
         25   -1    0    0    0    0  0.00000000000E+00  0.00000000000E+00  0.99999998245E-14  0.12500000000E+03  0.12500000000E+03 0.  0.
    3000001    1    3    3    0    0 -0.11716903626E+02  0.21886598616E+02 -0.10205946844E+02  0.26860200680E+02  0.10000000000E+01 0.  1.
    1000022    2    1    0    0    0 -0.28915800083E+02  0.43785330126E+02 -0.32449516546E+02  0.62500001107E+02  0.10000019285E+02 0.  0.
    3000022    2    3    3    0    0 -0.17198896457E+02  0.21898731510E+02 -0.22243569702E+02  0.35639800428E+02  0.25000076679E+00 0.  0.
    1000022    2    1    0    0    0  0.28915800083E+02 -0.43785330126E+02  0.32449516546E+02  0.62499998893E+02  0.10000005444E+02 0.  0.
    3000022    2    5    5    0    0  0.26058740339E+02 -0.38204415219E+02  0.24527714520E+02  0.52347937580E+02  0.24999791311E+00 0.  0.
        -13    1    4    4    0    0 -0.72362484583E+01  0.91980766262E+01 -0.94311544202E+01  0.15030821803E+02  0.10500000000E+00 0.  1.
         13    1    4    4    0    0 -0.99626479982E+01  0.12700654884E+02 -0.12812415281E+02  0.20608978625E+02  0.10500000000E+00 0. -1.
    3000001    1    5    5    0    0  0.28570597441E+01 -0.55809149068E+01  0.79218020253E+01  0.10152061313E+02  0.10000000000E+01 0.  1.
        -13    1    6    6    0    0  0.10063824111E+02 -0.14767011950E+02  0.94088721896E+01  0.20196115927E+02  0.10500000000E+00 0. -1.
         13    1    6    6    0    0  0.15994916228E+02 -0.23437403270E+02  0.15118842331E+02  0.32151821652E+02  0.10500000000E+00 0.  1.
</event>
<event>
11    0  0.3482687E-009  0.9118800E+02  0.7816531E-02  0.1126479E+00
         25   -1    0    0    0    0  0.00000000000E+00  0.00000000000E+00  0.99999998245E-14  0.12500000000E+03  0.12500000000E+03 0.  0.
    3000001    1    3    3    0    0 -0.24691984848E+02  0.86625141526E+01 -0.32696971389E+02  0.41890633860E+02  0.10000000000E+01 0.  1.
    1000022    2    1    0    0    0 -0.30841653401E+02  0.11790103721E+02 -0.52115601554E+02  0.62499999118E+02  0.99999917058E+01 0.  0.
    3000022    2    3    3    0    0 -0.61496685526E+01  0.31275895689E+01 -0.19418630165E+02  0.20609365258E+02  0.24999802806E+00 0.  0.
    1000022    2    1    0    0    0  0.30841653401E+02 -0.11790103721E+02  0.52115601554E+02  0.62500000882E+02  0.10000002733E+02 0.  0.
    3000022    2    5    5    0    0  0.29048975842E+02 -0.84162028976E+01  0.48429466462E+02  0.57097733625E+02  0.24998930560E+00 0.  0.
        -13    1    4    4    0    0 -0.22383872540E+01  0.12015127629E+01 -0.72077703955E+01  0.76431007773E+01  0.10500000000E+00 0. -1.
         13    1    4    4    0    0 -0.39112812986E+01  0.19260768060E+01 -0.12210859770E+02  0.12966264481E+02  0.10500000000E+00 0.  1.
    3000001    1    5    5    0    0  0.17926775595E+01 -0.33739008239E+01  0.36861350917E+01  0.54022672570E+01  0.10000000000E+01 0. -1.
        -13    1    6    6    0    0  0.19590299918E+02 -0.56362754627E+01  0.32709257969E+02  0.38541588367E+02  0.10500000000E+00 0.  1.
         13    1    6    6    0    0  0.94586759233E+01 -0.27799274349E+01  0.15720208493E+02  0.18556145258E+02  0.10500000000E+00 0. -1.
</event>
<event>
11    0  0.3482687E-009  0.9118800E+02  0.7816531E-02  0.1126479E+00
         25   -1    0    0    0    0  0.00000000000E+00  0.00000000000E+00  0.99999998245E-14  0.12500000000E+03  0.12500000000E+03 0.  0.
    3000001    1    3    3    0    0  0.38893971598E+02  0.28326319035E+02 -0.26699734880E+02  0.55036326362E+02  0.10000000000E+01 0. -1.
    1000022    2    1    0    0    0  0.46034308727E+02  0.30039818780E+02 -0.28012527354E+02  0.62499999944E+02  0.10000000599E+02 0.  0.
    3000022    2    3    3    0    0  0.71403371285E+01  0.17134997446E+01 -0.13127924739E+01  0.74636735820E+01  0.25000714984E+00 0.  0.
    1000022    2    1    0    0    0 -0.46034308727E+02 -0.30039818780E+02  0.28012527354E+02  0.62500000056E+02  0.10000001301E+02 0.  0.
    3000022    2    5    5    0    0 -0.45153916836E+02 -0.27933830909E+02  0.27957924149E+02  0.60007359628E+02  0.25014384078E+00 0.  0.
        -13    1    4    4    0    0  0.25891209088E+01  0.66007849437E+00 -0.52354114507E+00  0.27247699040E+01  0.10500000000E+00 0. -1.
         13    1    4    4    0    0  0.45512162198E+01  0.10534212503E+01 -0.78925132881E+00  0.47389036780E+01  0.10500000000E+00 0.  1.
    3000001    1    5    5    0    0 -0.88039189053E+00 -0.21059878712E+01  0.54603204942E-01  0.24926404282E+01  0.10000000000E+01 0.  1.
        -13    1    6    6    0    0 -0.10643299875E+02 -0.65926156056E+01  0.65764607091E+01  0.14142251348E+02  0.10500000000E+00 0.  1.
         13    1    6    6    0    0 -0.34510616962E+02 -0.21341215303E+02  0.21381463440E+02  0.45865108280E+02  0.10500000000E+00 0. -1.
</event>
<event>
11    0  0.3482687E-009  0.9118800E+02  0.7816531E-02  0.1126479E+00
         25   -1    0    0    0    0  0.00000000000E+00  0.00000000000E+00  0.99999998245E-14  0.12500000000E+03  0.12500000000E+03 0.  0.
    3000001    1    3    3    0    0  0.37476738702E+02 -0.36722957802E+02 -0.28526057422E+01  0.52556816237E+02  0.10000000000E+01 0. -1.
    1000022    2    1    0    0    0  0.43582990619E+02 -0.43659112967E+02  0.80906923023E+00  0.62500001105E+02  0.10000016438E+02 0.  0.
    3000022    2    3    3    0    0  0.61062519166E+01 -0.69361551650E+01  0.36616749725E+01  0.99431848677E+01  0.25000153571E+00 0.  0.
    1000022    2    1    0    0    0 -0.43582990619E+02  0.43659112967E+02 -0.80906923023E+00  0.62499998895E+02  0.10000002629E+02 0.  0.
    3000022    2    5    5    0    0 -0.24097351887E+02  0.20199310573E+02 -0.44983019330E+01  0.31764630294E+02  0.25000366310E+00 0.  0.
        -13    1    4    4    0    0  0.33989567077E+01 -0.37612711964E+01  0.19967594657E+01  0.54496000842E+01  0.10500000000E+00 0. -1.
         13    1    4    4    0    0  0.27072952089E+01 -0.31748839686E+01  0.16649155068E+01  0.44935847835E+01  0.10500000000E+00 0.  1.
    3000001    1    5    5    0    0 -0.19485638731E+02  0.23459802394E+02  0.36892327028E+01  0.30735368601E+02  0.10000000000E+01 0.  1.
        -13    1    6    6    0    0 -0.15215633055E+02  0.12827295191E+02 -0.28276103919E+01  0.20101278485E+02  0.10500000000E+00 0. -1.
         13    1    6    6    0    0 -0.88817188319E+01  0.73720153819E+01 -0.16706915411E+01  0.11663351809E+02  0.10500000000E+00 0.  1.
</event>
<event>
11    0  0.3482687E-009  0.9118800E+02  0.7816531E-02  0.1126479E+00
         25   -1    0    0    0    0  0.00000000000E+00  0.00000000000E+00  0.99999998245E-14  0.12500000000E+03  0.12500000000E+03 0.  0.
    3000001    1    3    3    0    0  0.30933093207E+01 -0.21926300761E+02  0.80798777051E+01  0.23592703350E+02  0.10000000000E+01 0.  1.
    1000022    2    1    0    0    0  0.63925042466E+00 -0.60599329585E+02  0.11556924000E+02  0.62500002351E+02  0.10000020715E+02 0.  0.
    3000022    2    3    3    0    0 -0.24540588961E+01 -0.38673028823E+02  0.34770462945E+01  0.38907299001E+02  0.25000235280E+00 0.  0.
    1000022    2    1    0    0    0 -0.63925042466E+00  0.60599329585E+02 -0.11556924000E+02  0.62499997649E+02  0.99999913297E+01 0.  0.
    3000022    2    5    5    0    0 -0.13304113836E+01  0.11080593603E+01 -0.11489026371E+01  0.20929132545E+01  0.25003724886E+00 0.  0.
        -13    1    4    4    0    0 -0.15735254237E+01 -0.25318209117E+02  0.22310385235E+01  0.25465196898E+02  0.10500000000E+00 0. -1.
         13    1    4    4    0    0 -0.88053347232E+00 -0.13354819706E+02  0.12460077710E+01  0.13442102103E+02  0.10500000000E+00 0.  1.
    3000001    1    5    5    0    0  0.69116095890E+00  0.59491270224E+02 -0.10408021362E+02  0.60407084395E+02  0.10000000000E+01 0. -1.
        -13    1    6    6    0    0 -0.69164260142E+00  0.54738169358E+00 -0.66162815707E+00  0.11075978624E+01  0.10500000000E+00 0.  1.
         13    1    6    6    0    0 -0.63876878214E+00  0.56067766669E+00 -0.48727448002E+00  0.98531539207E+00  0.10500000000E+00 0. -1.
</event>
<event>
11    0  0.3482687E-009  0.9118800E+02  0.7816531E-02  0.1126479E+00
         25   -1    0    0    0    0  0.00000000000E+00  0.00000000000E+00  0.99999998245E-14  0.12500000000E+03  0.12500000000E+03 0.  0.
    3000001    1    3    3    0    0 -0.12650906432E+02 -0.11656776722E+01  0.17449782666E+02  0.21607849340E+02  0.10000000000E+01 0.  1.
    1000022    2    1    0    0    0 -0.32549851364E+02 -0.16287444383E+02  0.49814418983E+02  0.62500000413E+02  0.10000002233E+02 0.  0.
    3000022    2    3    3    0    0 -0.19898944932E+02 -0.15121766711E+02  0.32364636317E+02  0.40892151074E+02  0.24999525323E+00 0.  0.
    1000022    2    1    0    0    0  0.32549851364E+02  0.16287444383E+02 -0.49814418983E+02  0.62499999587E+02  0.99999970694E+01 0.  0.
    3000022    2    5    5    0    0  0.15481757360E+02  0.12998930350E+02 -0.29221593866E+02  0.35533379410E+02  0.25000603098E+00 0.  0.
        -13    1    4    4    0    0 -0.10123395426E+02 -0.77706485485E+01  0.16480399379E+02  0.20844200693E+02  0.10500000000E+00 0.  1.
         13    1    4    4    0    0 -0.97755495066E+01 -0.73511181626E+01  0.15884236937E+02  0.20047950381E+02  0.10500000000E+00 0. -1.
    3000001    1    5    5    0    0  0.17068094004E+02  0.32885140337E+01 -0.20592825116E+02  0.26966620177E+02  0.10000000000E+01 0. -1.
        -13    1    6    6    0    0  0.70659628076E+01  0.58455594055E+01 -0.13259477672E+02  0.16122132871E+02  0.10500000000E+00 0.  1.
         13    1    6    6    0    0  0.84157945526E+01  0.71533709441E+01 -0.15962116194E+02  0.19411246539E+02  0.10500000000E+00 0. -1.
</event>
<event>
11    0  0.3482687E-009  0.9118800E+02  0.7816531E-02  0.1126479E+00
         25   -1    0    0    0    0  0.00000000000E+00  0.00000000000E+00  0.99999998245E-14  0.12500000000E+03  0.12500000000E+03 0.  0.
    3000001    1    3    3    0    0  0.23433451300E+02  0.21907244635E+02  0.18999844904E+02  0.37296757416E+02  0.10000000000E+01 0.  1.
    1000022    2    1    0    0    0  0.33128959613E+02  0.41959474095E+02  0.30791630105E+02  0.62500000939E+02  0.10000010077E+02 0.  0.
    3000022    2    3    3    0    0  0.96955083122E+01  0.20052229460E+02  0.11791785201E+02  0.25203243524E+02  0.24999626029E+00 0.  0.
    1000022    2    1    0    0    0 -0.33128959613E+02 -0.41959474095E+02 -0.30791630105E+02  0.62499999061E+02  0.99999983354E+01 0.  0.
    3000022    2    5    5    0    0 -0.90687245241E+01 -0.17691635464E+02 -0.14627964198E+02  0.24683507951E+02  0.24999654304E+00 0.  0.
        -13    1    4    4    0    0  0.41204225999E+01  0.84244755699E+01  0.50205954022E+01  0.10638001420E+02  0.10500000000E+00 0. -1.
         13    1    4    4    0    0  0.55750857123E+01  0.11627753891E+02  0.67711897986E+01  0.14565242103E+02  0.10500000000E+00 0.  1.
    3000001    1    5    5    0    0 -0.24060235089E+02 -0.24267838631E+02 -0.16163665907E+02  0.37816491110E+02  0.10000000000E+01 0.  1.
        -13    1    6    6    0    0 -0.61147556158E+01 -0.11930572557E+02 -0.99283648728E+01  0.16682693183E+02  0.10500000000E+00 0.  1.
         13    1    6    6    0    0 -0.29539689083E+01 -0.57610629069E+01 -0.46995993254E+01  0.80008147678E+01  0.10500000000E+00 0. -1.
</event>
<event>
11    0  0.3482687E-009  0.9118800E+02  0.7816531E-02  0.1126479E+00
         25   -1    0    0    0    0  0.00000000000E+00  0.00000000000E+00  0.99999998245E-14  0.12500000000E+03  0.12500000000E+03 0.  0.
    3000001    1    3    3    0    0  0.13144617887E+02 -0.31572143796E+02 -0.92921595544E+01  0.35453144747E+02  0.10000000000E+01 0.  1.
    1000022    2    1    0    0    0  0.15641841743E+02 -0.58245757005E+02 -0.13000581178E+02  0.62500005213E+02  0.10000005926E+02 0.  0.
    3000022    2    3    3    0    0  0.24972238563E+01 -0.26673613209E+02 -0.37084216232E+01  0.27046860466E+02  0.25000309658E+00 0.  0.
    1000022    2    1    0    0    0 -0.15641841743E+02  0.58245757005E+02  0.13000581178E+02  0.62499994787E+02  0.99999407606E+01 0.  0.
    3000022    2    5    5    0    0 -0.98993650289E+01  0.48845578951E+02  0.12714942820E+02  0.51435593514E+02  0.24999636356E+00 0.  0.
        -13    1    4    4    0    0  0.18390191301E+01 -0.19343626724E+02 -0.27153408017E+01  0.19619938503E+02  0.10500000000E+00 0. -1.
         13    1    4    4    0    0  0.65820472621E+00 -0.73299864850E+01 -0.99308082151E+00  0.74269219633E+01  0.10500000000E+00 0.  1.
    3000001    1    5    5    0    0 -0.57424767142E+01  0.94001780537E+01  0.28563835789E+00  0.11064401273E+02  0.10000000000E+01 0. -1.
        -13    1    6    6    0    0 -0.35354022840E+01  0.17174279634E+02  0.44926931661E+01  0.18101112318E+02  0.10500000000E+00 0. -1.
         13    1    6    6    0    0 -0.63639627449E+01  0.31671299317E+02  0.82222496536E+01  0.33334481196E+02  0.10500000000E+00 0.  1.
</event>
<event>
11    0  0.3482687E-009  0.9118800E+02  0.7816531E-02  0.1126479E+00
         25   -1    0    0    0    0  0.00000000000E+00  0.00000000000E+00  0.99999998245E-14  0.12500000000E+03  0.12500000000E+03 0.  0.
    3000001    1    3    3    0    0 -0.16839356785E+02 -0.24477742739E+00  0.69010208362E+00  0.16884907279E+02  0.10000000000E+01 0. -1.
    1000022    2    1    0    0    0 -0.58876856185E+02 -0.39248979166E+01  0.18010020851E+02  0.62500000639E+02  0.10000010548E+02 0.  0.
    3000022    2    3    3    0    0 -0.42037499400E+02 -0.36801204892E+01  0.17319918768E+02  0.45615093360E+02  0.25002713009E+00 0.  0.
    1000022    2    1    0    0    0  0.58876856185E+02  0.39248979166E+01 -0.18010020851E+02  0.62499999361E+02  0.10000002558E+02 0.  0.
    3000022    2    5    5    0    0  0.23252870932E+01  0.20991078666E+00 -0.31011227678E+01  0.38897925861E+01  0.25000267496E+00 0.  0.
        -13    1    4    4    0    0 -0.28307073830E+02 -0.24260086362E+01  0.11654648808E+02  0.30708595060E+02  0.10500000000E+00 0.  1.
         13    1    4    4    0    0 -0.13730425570E+02 -0.12541118530E+01  0.56652699602E+01  0.14906498301E+02  0.10500000000E+00 0. -1.
    3000001    1    5    5    0    0  0.56551569092E+02  0.37149871299E+01 -0.14908898084E+02  0.58610206775E+02  0.10000000000E+01 0.  1.
        -13    1    6    6    0    0  0.17826102600E+01  0.17150971562E+00 -0.23541579304E+01  0.29597634167E+01  0.10500000000E+00 0. -1.
         13    1    6    6    0    0  0.54267683324E+00  0.38401071046E-01 -0.74696483736E+00  0.93002916935E+00  0.10500000000E+00 0.  1.
</event>
<event>
11    0  0.3482687E-009  0.9118800E+02  0.7816531E-02  0.1126479E+00
         25   -1    0    0    0    0  0.00000000000E+00  0.00000000000E+00  0.99999998245E-14  0.12500000000E+03  0.12500000000E+03 0.  0.
    3000001    1    3    3    0    0 -0.15088583708E+02  0.20568535482E+02 -0.19431598177E+02  0.32082970840E+02  0.10000000000E+01 0. -1.
    1000022    2    1    0    0    0 -0.33317401398E+02  0.42750179609E+02 -0.29472401090E+02  0.62499995033E+02  0.99999930294E+01 0.  0.
    3000022    2    3    3    0    0 -0.18228817690E+02  0.22181644126E+02 -0.10040802912E+02  0.30417024193E+02  0.25001414900E+00 0.  0.
    1000022    2    1    0    0    0  0.33317401398E+02 -0.42750179609E+02  0.29472401090E+02  0.62500004967E+02  0.10000055120E+02 0.  0.
    3000022    2    5    5    0    0  0.12191636164E+02 -0.23426852532E+02  0.15551967813E+02  0.30649300286E+02  0.24998655465E+00 0.  0.
        -13    1    4    4    0    0 -0.11952738945E+02  0.14543260287E+02 -0.66421773920E+01  0.19962563302E+02  0.10500000000E+00 0. -1.
         13    1    4    4    0    0 -0.62760787453E+01  0.76383838393E+01 -0.33986255204E+01  0.10454460891E+02  0.10500000000E+00 0.  1.
    3000001    1    5    5    0    0  0.21125765235E+02 -0.19323327077E+02  0.13920433277E+02  0.31850704681E+02  0.10000000000E+01 0.  1.
        -13    1    6    6    0    0  0.76034528548E+01 -0.14526384352E+02  0.96009000409E+01  0.19000438001E+02  0.10500000000E+00 0. -1.
         13    1    6    6    0    0  0.45881833088E+01 -0.89004681804E+01  0.59510677718E+01  0.11648862285E+02  0.10500000000E+00 0.  1.
</event>
<event>
11    0  0.3482687E-009  0.9118800E+02  0.7816531E-02  0.1126479E+00
         25   -1    0    0    0    0  0.00000000000E+00  0.00000000000E+00  0.99999998245E-14  0.12500000000E+03  0.12500000000E+03 0.  0.
    3000001    1    3    3    0    0 -0.24176129822E+02  0.21882242336E+02 -0.78813127145E+01  0.33562372874E+02  0.10000000000E+01 0. -1.
    1000022    2    1    0    0    0 -0.37688688406E+02  0.46079289241E+02 -0.16202218011E+02  0.62500000961E+02  0.10000006042E+02 0.  0.
    3000022    2    3    3    0    0 -0.13512558585E+02  0.24197046905E+02 -0.83209052962E+01  0.28937628087E+02  0.25007182628E+00 0.  0.
    1000022    2    1    0    0    0  0.37688688406E+02 -0.46079289241E+02  0.16202218011E+02  0.62499999039E+02  0.99999940322E+01 0.  0.
    3000022    2    5    5    0    0  0.10886973561E+02 -0.17922786375E+02  0.95714843715E+01  0.23052727892E+02  0.24997091292E+00 0.  0.
        -13    1    4    4    0    0 -0.47593048860E+01  0.84099428227E+01 -0.29146907006E+01  0.10093788593E+02  0.10500000000E+00 0. -1.
         13    1    4    4    0    0 -0.87532536987E+01  0.15787104082E+02 -0.54062145955E+01  0.18843839494E+02  0.10500000000E+00 0.  1.
    3000001    1    5    5    0    0  0.26801714845E+02 -0.28156502867E+02  0.66307336392E+01  0.39447271147E+02  0.10000000000E+01 0. -1.
        -13    1    6    6    0    0  0.76074957242E+01 -0.12514848373E+02  0.66339125210E+01  0.16078409167E+02  0.10500000000E+00 0. -1.
         13    1    6    6    0    0  0.32794778371E+01 -0.54079380013E+01  0.29375718505E+01  0.69743187256E+01  0.10500000000E+00 0.  1.
</event>
<event>
11    0  0.3482687E-009  0.9118800E+02  0.7816531E-02  0.1126479E+00
         25   -1    0    0    0    0  0.00000000000E+00  0.00000000000E+00  0.99999998245E-14  0.12500000000E+03  0.12500000000E+03 0.  0.
    3000001    1    3    3    0    0 -0.83086984798E+01 -0.10810345377E+02  0.26896434242E+00  0.13673711253E+02  0.10000000000E+01 0. -1.
    1000022    2    1    0    0    0 -0.49144985335E+02 -0.36769220988E+02 -0.62485894342E+01  0.62500000838E+02  0.10000001956E+02 0.  0.
    3000022    2    3    3    0    0 -0.40836286856E+02 -0.25958875611E+02 -0.65175537767E+01  0.48826289585E+02  0.25000056885E+00 0.  0.
    1000022    2    1    0    0    0  0.49144985335E+02  0.36769220988E+02  0.62485894342E+01  0.62499999162E+02  0.99999914826E+01 0.  0.
    3000022    2    5    5    0    0  0.21054868147E+02  0.19882005766E+02  0.66219039949E+01  0.29707132783E+02  0.24999937239E+00 0.  0.
        -13    1    4    4    0    0 -0.14512026325E+02 -0.92549034387E+01 -0.22662617234E+01  0.17360850006E+02  0.10500000000E+00 0. -1.
         13    1    4    4    0    0 -0.26324260531E+02 -0.16703972172E+02 -0.42512920533E+01  0.31465439580E+02  0.10500000000E+00 0.  1.
    3000001    1    5    5    0    0  0.28090117188E+02  0.16887215222E+02 -0.37331456064E+00  0.32792866379E+02  0.10000000000E+01 0. -1.
        -13    1    6    6    0    0  0.14878242090E+02  0.14041757104E+02  0.47227723565E+01  0.20996395738E+02  0.10500000000E+00 0. -1.
         13    1    6    6    0    0  0.61766260574E+01  0.58402486624E+01  0.18991316384E+01  0.87107370452E+01  0.10500000000E+00 0.  1.
</event>
<event>
11    0  0.3482687E-009  0.9118800E+02  0.7816531E-02  0.1126479E+00
         25   -1    0    0    0    0  0.00000000000E+00  0.00000000000E+00  0.99999998245E-14  0.12500000000E+03  0.12500000000E+03 0.  0.
    3000001    1    3    3    0    0 -0.40642253772E+02  0.15205001838E+02  0.35447039071E+02  0.56039962986E+02  0.10000000000E+01 0.  1.
    1000022    2    1    0    0    0 -0.45611378727E+02  0.13615968108E+02  0.39248663487E+02  0.62500000638E+02  0.10000001864E+02 0.  0.
    3000022    2    3    3    0    0 -0.49691249554E+01 -0.15890337292E+01  0.38016244160E+01  0.64600376522E+01  0.25001450451E+00 0.  0.
    1000022    2    1    0    0    0  0.45611378727E+02 -0.13615968108E+02 -0.39248663487E+02  0.62499999362E+02  0.99999938894E+01 0.  0.
    3000022    2    5    5    0    0  0.35988649547E+02 -0.74863362128E+01 -0.26218556101E+02  0.45152002286E+02  0.25000061207E+00 0.  0.
        -13    1    4    4    0    0 -0.35911322515E+01 -0.11839737431E+01  0.27318550721E+01  0.46660563442E+01  0.10500000000E+00 0. -1.
         13    1    4    4    0    0 -0.13779927039E+01 -0.40505998614E+00  0.10697693439E+01  0.17939813080E+01  0.10500000000E+00 0.  1.
    3000001    1    5    5    0    0  0.96227291802E+01 -0.61296318955E+01 -0.13030107386E+02  0.17347997076E+02  0.10000000000E+01 0. -1.
        -13    1    6    6    0    0  0.14758458140E+02 -0.31138069870E+01 -0.10816757385E+02  0.18561280827E+02  0.10500000000E+00 0. -1.
         13    1    6    6    0    0  0.21230191407E+02 -0.43725292258E+01 -0.15401798716E+02  0.26590721459E+02  0.10500000000E+00 0.  1.
</event>
<event>
11    0  0.3482687E-009  0.9118800E+02  0.7816531E-02  0.1126479E+00
         25   -1    0    0    0    0  0.00000000000E+00  0.00000000000E+00  0.99999998245E-14  0.12500000000E+03  0.12500000000E+03 0.  0.
    3000001    1    3    3    0    0 -0.12820612781E+02 -0.84097643924E+01  0.26234619812E+02  0.30403084151E+02  0.10000000000E+01 0. -1.
    1000022    2    1    0    0    0 -0.34007908903E+02 -0.11804984062E+02  0.50103437790E+02  0.62499999865E+02  0.99999994019E+01 0.  0.
    3000022    2    3    3    0    0 -0.21187296122E+02 -0.33952196698E+01  0.23868817978E+02  0.32096915714E+02  0.24998617390E+00 0.  0.
    1000022    2    1    0    0    0  0.34007908903E+02  0.11804984062E+02 -0.50103437790E+02  0.62500000135E+02  0.10000001092E+02 0.  0.
    3000022    2    5    5    0    0  0.35570058188E+01  0.49749690670E+01 -0.89323723292E+01  0.10828313162E+02  0.24996577875E+00 0.  0.
        -13    1    4    4    0    0 -0.59874231069E+01 -0.92691321190E+00  0.67769684417E+01  0.90910246850E+01  0.10500000000E+00 0. -1.
         13    1    4    4    0    0 -0.15199873015E+02 -0.24683064579E+01  0.17091849537E+02  0.23005891029E+02  0.10500000000E+00 0.  1.
    3000001    1    5    5    0    0  0.30450903084E+02  0.68300149952E+01 -0.41171065461E+02  0.51671686973E+02  0.10000000000E+01 0. -1.
        -13    1    6    6    0    0  0.91275775334E+00  0.13056307257E+01 -0.22822969775E+01  0.27852653019E+01  0.10500000000E+00 0. -1.
         13    1    6    6    0    0  0.26442480655E+01  0.36693383413E+01 -0.66500753517E+01  0.80430478600E+01  0.10500000000E+00 0.  1.
</event>
<event>
11    0  0.3482687E-009  0.9118800E+02  0.7816531E-02  0.1126479E+00
         25   -1    0    0    0    0  0.00000000000E+00  0.00000000000E+00  0.99999998245E-14  0.12500000000E+03  0.12500000000E+03 0.  0.
    3000001    1    3    3    0    0  0.13176934708E+02  0.77251808179E+01 -0.14865216061E+02  0.21337400862E+02  0.10000000000E+01 0. -1.
    1000022    2    1    0    0    0  0.30087317492E+02  0.33270423579E+02 -0.42356620732E+02  0.62500008902E+02  0.10000001699E+02 0.  0.
    3000022    2    3    3    0    0  0.16910382783E+02  0.25545242761E+02 -0.27491404671E+02  0.41162608041E+02  0.24999268230E+00 0.  0.
    1000022    2    1    0    0    0 -0.30087317492E+02 -0.33270423579E+02  0.42356620732E+02  0.62499991098E+02  0.99998904175E+01 0.  0.
    3000022    2    5    5    0    0 -0.27936334523E+02 -0.26937698520E+02  0.32921349779E+02  0.50891611695E+02  0.24996291602E+00 0.  0.
        -13    1    4    4    0    0  0.12314865359E+02  0.18573648136E+02 -0.20042524434E+02  0.29972489462E+02  0.10500000000E+00 0. -1.
         13    1    4    4    0    0  0.45955174248E+01  0.69715946254E+01 -0.74488802373E+01  0.11190118579E+02  0.10500000000E+00 0.  1.
    3000001    1    5    5    0    0 -0.21509829688E+01 -0.63327250588E+01  0.94352709529E+01  0.11608379403E+02  0.10000000000E+01 0. -1.
        -13    1    6    6    0    0 -0.12174276307E+02 -0.11800624471E+02  0.14447028909E+02  0.22275444121E+02  0.10500000000E+00 0.  1.
         13    1    6    6    0    0 -0.15762058217E+02 -0.15137074049E+02  0.18474320870E+02  0.28616167574E+02  0.10500000000E+00 0. -1.
</event>
<event>
11    0  0.3482687E-009  0.9118800E+02  0.7816531E-02  0.1126479E+00
         25   -1    0    0    0    0  0.00000000000E+00  0.00000000000E+00  0.99999998245E-14  0.12500000000E+03  0.12500000000E+03 0.  0.
    3000001    1    3    3    0    0  0.51571870856E+00 -0.68421683606E+01  0.39320158996E+01  0.79713225186E+01  0.10000000000E+01 0.  1.
    1000022    2    1    0    0    0  0.27581704719E+02 -0.45005725824E+02  0.31937186264E+02  0.62500001075E+02  0.10000023792E+02 0.  0.
    3000022    2    3    3    0    0  0.27065986010E+02 -0.38163557463E+02  0.28005170365E+02  0.54528678557E+02  0.25000210581E+00 0.  0.
    1000022    2    1    0    0    0 -0.27581704719E+02  0.45005725824E+02 -0.31937186264E+02  0.62499998925E+02  0.10000010349E+02 0.  0.
    3000022    2    5    5    0    0 -0.54295485166E+00  0.52554425259E+01 -0.11795437768E+01  0.54192527134E+01  0.25000067191E+00 0.  0.
        -13    1    4    4    0    0  0.12046597624E+02 -0.17084403350E+02  0.12552739815E+02  0.24384004060E+02  0.10500000000E+00 0.  1.
         13    1    4    4    0    0  0.15019388386E+02 -0.21079154113E+02  0.15452430549E+02  0.30144674497E+02  0.10500000000E+00 0. -1.
    3000001    1    5    5    0    0 -0.27038749867E+02  0.39750283298E+02 -0.30757642488E+02  0.57080746211E+02  0.10000000000E+01 0. -1.
        -13    1    6    6    0    0 -0.40510279014E+00  0.33550537989E+01 -0.75259439879E+00  0.34638010326E+01  0.10500000000E+00 0. -1.
         13    1    6    6    0    0 -0.13785206153E+00  0.19003887270E+01 -0.42694937799E+00  0.19554516808E+01  0.10500000000E+00 0.  1.
</event>
<event>
11    0  0.3482687E-009  0.9118800E+02  0.7816531E-02  0.1126479E+00
         25   -1    0    0    0    0  0.00000000000E+00  0.00000000000E+00  0.99999998245E-14  0.12500000000E+03  0.12500000000E+03 0.  0.
    3000001    1    3    3    0    0  0.25681142481E+01 -0.42633931222E+00 -0.84713966057E+01  0.89186061944E+01  0.10000000000E+01 0.  1.
    1000022    2    1    0    0    0  0.38107713360E+02  0.28673805958E+01 -0.48433773210E+02  0.62499999711E+02  0.99999943752E+01 0.  0.
    3000022    2    3    3    0    0  0.35539599112E+02  0.32937199080E+01 -0.39962376605E+02  0.53581393517E+02  0.24998288452E+00 0.  0.
    1000022    2    1    0    0    0 -0.38107713360E+02 -0.28673805958E+01  0.48433773210E+02  0.62500000289E+02  0.99999979826E+01 0.  0.
    3000022    2    5    5    0    0 -0.32236834405E+02 -0.32916230325E+01  0.34455506674E+02  0.47300028686E+02  0.24999782432E+00 0.  0.
        -13    1    4    4    0    0  0.16276916267E+02  0.15756165573E+01 -0.18302388454E+02  0.24544022059E+02  0.10500000000E+00 0.  1.
         13    1    4    4    0    0  0.19262682845E+02  0.17181033507E+01 -0.21659988151E+02  0.29037371458E+02  0.10500000000E+00 0. -1.
    3000001    1    5    5    0    0 -0.58708789555E+01  0.42424243673E+00  0.13978266537E+02  0.15199971603E+02  0.10000000000E+01 0.  1.
        -13    1    6    6    0    0 -0.15040700134E+02 -0.15003631519E+01  0.16155815313E+02  0.22124537137E+02  0.10500000000E+00 0. -1.
         13    1    6    6    0    0 -0.17196134271E+02 -0.17912598807E+01  0.18299691361E+02  0.25175491549E+02  0.10500000000E+00 0.  1.
</event>
<event>
11    0  0.3482687E-009  0.9118800E+02  0.7816531E-02  0.1126479E+00
         25   -1    0    0    0    0  0.00000000000E+00  0.00000000000E+00  0.99999998245E-14  0.12500000000E+03  0.12500000000E+03 0.  0.
    3000001    1    3    3    0    0  0.40329054327E+02  0.37494863564E+02  0.28232148605E+01  0.55147692234E+02  0.10000000000E+01 0. -1.
    1000022    2    1    0    0    0  0.42662009278E+02  0.44454436317E+02  0.31632225444E+01  0.62500000522E+02  0.10000007227E+02 0.  0.
    3000022    2    3    3    0    0  0.23329549507E+01  0.69595727529E+01  0.34000768391E+00  0.73523082881E+01  0.25000046640E+00 0.  0.
    1000022    2    1    0    0    0 -0.42662009278E+02 -0.44454436317E+02 -0.31632225444E+01  0.62499999478E+02  0.10000000697E+02 0.  0.
    3000022    2    5    5    0    0 -0.11787160231E+02 -0.18974571080E+02 -0.21698940473E+01  0.22444206667E+02  0.24995753694E+00 0.  0.
        -13    1    4    4    0    0  0.13816949762E+01  0.41781804207E+01  0.26437445657E+00  0.44098969929E+01  0.10500000000E+00 0.  1.
         13    1    4    4    0    0  0.95125997454E+00  0.27813923322E+01  0.75633227335E-01  0.29424112952E+01  0.10500000000E+00 0. -1.
    3000001    1    5    5    0    0 -0.30874849047E+02 -0.25479865237E+02 -0.99332849708E+00  0.40055792810E+02  0.10000000000E+01 0. -1.
        -13    1    6    6    0    0 -0.42749312036E+01 -0.67784618114E+01 -0.79818639940E+00  0.80542353984E+01  0.10500000000E+00 0.  1.
         13    1    6    6    0    0 -0.75122290277E+01 -0.12196109268E+02 -0.13717076479E+01  0.14389971269E+02  0.10500000000E+00 0. -1.
</event>
<event>
11    0  0.3482687E-009  0.9118800E+02  0.7816531E-02  0.1126479E+00
         25   -1    0    0    0    0  0.00000000000E+00  0.00000000000E+00  0.99999998245E-14  0.12500000000E+03  0.12500000000E+03 0.  0.
    3000001    1    3    3    0    0 -0.17634996229E+02  0.15116351249E+02 -0.20246338760E+02  0.30828743086E+02  0.10000000000E+01 0. -1.
    1000022    2    1    0    0    0 -0.37641073313E+02  0.21258153058E+02 -0.44016933865E+02  0.62499999751E+02  0.10000001520E+02 0.  0.
    3000022    2    3    3    0    0 -0.20006077084E+02  0.61418018091E+01 -0.23770595105E+02  0.31671256665E+02  0.24991466677E+00 0.  0.
    1000022    2    1    0    0    0  0.37641073313E+02 -0.21258153058E+02  0.44016933865E+02  0.62500000249E+02  0.10000004635E+02 0.  0.
    3000022    2    5    5    0    0  0.33920123474E+02 -0.16440214803E+02  0.34154016330E+02  0.50866637062E+02  0.24999066850E+00 0.  0.
        -13    1    4    4    0    0 -0.56762557411E+01  0.17036640920E+01 -0.67569135320E+01  0.89882843778E+01  0.10500000000E+00 0.  1.
         13    1    4    4    0    0 -0.14329821343E+02  0.44381377172E+01 -0.17013681573E+02  0.22682972287E+02  0.10500000000E+00 0. -1.
    3000001    1    5    5    0    0  0.37209498392E+01 -0.48179382546E+01  0.98629175351E+01  0.11633363187E+02  0.10000000000E+01 0. -1.
        -13    1    6    6    0    0  0.11150563424E+02 -0.53461042717E+01  0.11204448895E+02  0.16687318407E+02  0.10500000000E+00 0.  1.
         13    1    6    6    0    0  0.22769560050E+02 -0.11094110532E+02  0.22949567434E+02  0.34179318656E+02  0.10500000000E+00 0. -1.
</event>
<event>
11    0  0.3482687E-009  0.9118800E+02  0.7816531E-02  0.1126479E+00
         25   -1    0    0    0    0  0.00000000000E+00  0.00000000000E+00  0.99999998245E-14  0.12500000000E+03  0.12500000000E+03 0.  0.
    3000001    1    3    3    0    0  0.22310658269E+02  0.20575329693E+01 -0.20842411347E+02  0.30617070811E+02  0.10000000000E+01 0. -1.
    1000022    2    1    0    0    0  0.50691353074E+02 -0.36932354152E+00 -0.35163905956E+02  0.62499999943E+02  0.10000001719E+02 0.  0.
    3000022    2    3    3    0    0  0.28380694806E+02 -0.24268565108E+01 -0.14321494609E+02  0.31882929131E+02  0.24998398896E+00 0.  0.
    1000022    2    1    0    0    0 -0.50691353074E+02  0.36932354152E+00  0.35163905956E+02  0.62500000057E+02  0.10000002435E+02 0.  0.
    3000022    2    5    5    0    0 -0.13664507703E+02  0.37776146406E+01  0.68161439293E+01  0.15732497042E+02  0.25000394271E+00 0.  0.
        -13    1    4    4    0    0  0.18513136786E+02 -0.16349860633E+01 -0.93684387501E+01  0.20813170895E+02  0.10500000000E+00 0.  1.
         13    1    4    4    0    0  0.98675580196E+01 -0.79187044754E+00 -0.49530558587E+01  0.11069758237E+02  0.10500000000E+00 0. -1.
    3000001    1    5    5    0    0 -0.37026845372E+02 -0.34082910991E+01  0.28347762027E+02  0.46767503015E+02  0.10000000000E+01 0.  1.
        -13    1    6    6    0    0 -0.74367825823E+01  0.20786117971E+01  0.37825903624E+01  0.85991497852E+01  0.10500000000E+00 0. -1.
         13    1    6    6    0    0 -0.62277251207E+01  0.16990028435E+01  0.30335535669E+01  0.71333472566E+01  0.10500000000E+00 0.  1.
</event>
<event>
11    0  0.3482687E-009  0.9118800E+02  0.7816531E-02  0.1126479E+00
         25   -1    0    0    0    0  0.00000000000E+00  0.00000000000E+00  0.99999998245E-14  0.12500000000E+03  0.12500000000E+03 0.  0.
    3000001    1    3    3    0    0 -0.88965147767E+01 -0.31716082387E+02  0.13901262214E+02  0.35767344720E+02  0.10000000000E+01 0. -1.
    1000022    2    1    0    0    0 -0.21097414164E+02 -0.55183023743E+02  0.17775919147E+02  0.62499997811E+02  0.99999715492E+01 0.  0.
    3000022    2    3    3    0    0 -0.12200899387E+02 -0.23466941356E+02  0.38746569335E+01  0.26732653091E+02  0.24998495604E+00 0.  0.
    1000022    2    1    0    0    0  0.21097414164E+02  0.55183023743E+02 -0.17775919147E+02  0.62500002189E+02  0.99999989117E+01 0.  0.
    3000022    2    5    5    0    0  0.82548742814E+01  0.11369501379E+02 -0.20547957325E+01  0.14201872887E+02  0.24999400124E+00 0.  0.
        -13    1    4    4    0    0 -0.55750315397E+01 -0.10724709620E+02  0.18383828847E+01  0.12226653252E+02  0.10500000000E+00 0.  1.
         13    1    4    4    0    0 -0.66258678475E+01 -0.12742231736E+02  0.20362740488E+01  0.14505999840E+02  0.10500000000E+00 0. -1.
    3000001    1    5    5    0    0  0.12842539882E+02  0.43813522364E+02 -0.15721123415E+02  0.48298129302E+02  0.10000000000E+01 0. -1.
        -13    1    6    6    0    0  0.46226636776E+01  0.62933420206E+01 -0.10909935243E+01  0.78852054593E+01  0.10500000000E+00 0. -1.
         13    1    6    6    0    0  0.36322106038E+01  0.50761593583E+01 -0.96380220813E+00  0.63166674282E+01  0.10500000000E+00 0.  1.
</event>
<event>
11    0  0.3482687E-009  0.9118800E+02  0.7816531E-02  0.1126479E+00
         25   -1    0    0    0    0  0.00000000000E+00  0.00000000000E+00  0.99999998245E-14  0.12500000000E+03  0.12500000000E+03 0.  0.
    3000001    1    3    3    0    0  0.46056604882E+02  0.24737444654E+00 -0.10525889131E+02  0.47255331862E+02  0.10000000000E+01 0.  1.
    1000022    2    1    0    0    0  0.60752759379E+02  0.42384101240E+01 -0.98685327597E+01  0.62500000831E+02  0.10000013625E+02 0.  0.
    3000022    2    3    3    0    0  0.14696154497E+02  0.39910356775E+01  0.65735637086E+00  0.15244668969E+02  0.24998361135E+00 0.  0.
    1000022    2    1    0    0    0 -0.60752759379E+02 -0.42384101240E+01  0.98685327597E+01  0.62499999169E+02  0.10000003239E+02 0.  0.
    3000022    2    5    5    0    0 -0.31362783612E+02  0.24614001908E+01  0.33031232296E+01  0.31633144193E+02  0.25000331842E+00 0.  0.
        -13    1    4    4    0    0  0.42739043738E+01  0.11166670831E+01  0.18425594985E+00  0.44224630271E+01  0.10500000000E+00 0. -1.
         13    1    4    4    0    0  0.10422250123E+02  0.28743685944E+01  0.47310042101E+00  0.10822205942E+02  0.10500000000E+00 0.  1.
    3000001    1    5    5    0    0 -0.29389975767E+02 -0.66998103148E+01  0.65654095301E+01  0.30866854976E+02  0.10000000000E+01 0. -1.
        -13    1    6    6    0    0 -0.18176278758E+02  0.14203734274E+01  0.18493428859E+01  0.18325546766E+02  0.10500000000E+00 0. -1.
         13    1    6    6    0    0 -0.13186504854E+02  0.10410267634E+01  0.14537803438E+01  0.13307597427E+02  0.10500000000E+00 0.  1.
</event>
<event>
11    0  0.3482687E-009  0.9118800E+02  0.7816531E-02  0.1126479E+00
         25   -1    0    0    0    0  0.00000000000E+00  0.00000000000E+00  0.99999998245E-14  0.12500000000E+03  0.12500000000E+03 0.  0.
    3000001    1    3    3    0    0 -0.12950136790E+02  0.14490754336E+02 -0.36294262810E+01  0.19795472696E+02  0.10000000000E+01 0.  1.
    1000022    2    1    0    0    0 -0.50084298231E+02  0.34899521082E+02 -0.89351285352E+01  0.62500000279E+02  0.10000000592E+02 0.  0.
    3000022    2    3    3    0    0 -0.37134161440E+02  0.20408766746E+02 -0.53057022542E+01  0.42704527583E+02  0.24998737097E+00 0.  0.
    1000022    2    1    0    0    0  0.50084298231E+02 -0.34899521082E+02  0.89351285352E+01  0.62499999721E+02  0.99999971098E+01 0.  0.
    3000022    2    5    5    0    0  0.42745347703E+02 -0.30717962730E+02  0.10935091606E+02  0.53762409814E+02  0.24999212565E+00 0.  0.
        -13    1    4    4    0    0 -0.12993801094E+02  0.71475854021E+01 -0.19136212055E+01  0.14953254331E+02  0.10500000000E+00 0. -1.
         13    1    4    4    0    0 -0.24140360346E+02  0.13261181344E+02 -0.33920810486E+01  0.27751273252E+02  0.10500000000E+00 0.  1.
    3000001    1    5    5    0    0  0.73389505282E+01 -0.41815583525E+01 -0.19999630708E+01  0.87375899077E+01  0.10000000000E+01 0. -1.
        -13    1    6    6    0    0  0.32554458905E+02 -0.23375748344E+02  0.83156606457E+01  0.40931401664E+02  0.10500000000E+00 0.  1.
         13    1    6    6    0    0  0.10190888797E+02 -0.73422143860E+01  0.26194309604E+01  0.12831008149E+02  0.10500000000E+00 0. -1.
</event>
<event>
11    0  0.3482687E-009  0.9118800E+02  0.7816531E-02  0.1126479E+00
         25   -1    0    0    0    0  0.00000000000E+00  0.00000000000E+00  0.99999998245E-14  0.12500000000E+03  0.12500000000E+03 0.  0.
    3000001    1    3    3    0    0 -0.20625908779E+01  0.45164757501E+02  0.33047628576E+02  0.56011207412E+02  0.10000000000E+01 0. -1.
    1000022    2    1    0    0    0 -0.22049252244E+01  0.51611221512E+02  0.33729365121E+02  0.62499999514E+02  0.99999993273E+01 0.  0.
    3000022    2    3    3    0    0 -0.14233434650E+00  0.64464640114E+01  0.68173654561E+00  0.64887921024E+01  0.25000182792E+00 0.  0.
    1000022    2    1    0    0    0  0.22049252244E+01 -0.51611221512E+02 -0.33729365121E+02  0.62500000486E+02  0.10000005403E+02 0.  0.
    3000022    2    5    5    0    0 -0.16057537951E+01 -0.42338077208E+02 -0.25184112260E+02  0.49288875388E+02  0.24999968199E+00 0.  0.
        -13    1    4    4    0    0 -0.55455144585E-01  0.21759160966E+01  0.28443296161E+00  0.21976381053E+01  0.10500000000E+00 0.  1.
         13    1    4    4    0    0 -0.86879201913E-01  0.42705479149E+01  0.39730358400E+00  0.42911539971E+01  0.10500000000E+00 0. -1.
    3000001    1    5    5    0    0  0.38106790195E+01 -0.92731443044E+01 -0.85452528615E+01  0.13211125098E+02  0.10000000000E+01 0.  1.
        -13    1    6    6    0    0 -0.53265834812E+00 -0.15610105791E+02 -0.92846130369E+01  0.18170695968E+02  0.10500000000E+00 0.  1.
         13    1    6    6    0    0 -0.10730954470E+01 -0.26727971417E+02 -0.15899499223E+02  0.31118179420E+02  0.10500000000E+00 0. -1.
</event>
<event>
11    0  0.3482687E-009  0.9118800E+02  0.7816531E-02  0.1126479E+00
         25   -1    0    0    0    0  0.00000000000E+00  0.00000000000E+00  0.99999998245E-14  0.12500000000E+03  0.12500000000E+03 0.  0.
    3000001    1    3    3    0    0 -0.46967244700E+00 -0.27880817476E+02 -0.48446172171E+01  0.28320149917E+02  0.10000000000E+01 0. -1.
    1000022    2    1    0    0    0  0.97097279677E+01 -0.60072926774E+02 -0.10159460945E+02  0.62500000092E+02  0.10000000817E+02 0.  0.
    3000022    2    3    3    0    0  0.10179400415E+02 -0.32192109298E+02 -0.53148437277E+01  0.34179850175E+02  0.25000049996E+00 0.  0.
    1000022    2    1    0    0    0 -0.97097279677E+01  0.60072926774E+02  0.10159460945E+02  0.62499999908E+02  0.99999996708E+01 0.  0.
    3000022    2    5    5    0    0 -0.86094911023E+01  0.43136450755E+02  0.11437001069E+02  0.45450458862E+02  0.24999309447E+00 0.  0.
        -13    1    4    4    0    0  0.50486127745E+01 -0.16184678295E+02 -0.26525246982E+01  0.17160396695E+02  0.10500000000E+00 0.  1.
         13    1    4    4    0    0  0.51307876402E+01 -0.16007431003E+02 -0.26623190295E+01  0.17019453480E+02  0.10500000000E+00 0. -1.
    3000001    1    5    5    0    0 -0.11002368654E+01  0.16936476019E+02 -0.12775401247E+01  0.17049541046E+02  0.10000000000E+01 0.  1.
        -13    1    6    6    0    0 -0.28718217781E+01  0.14132846444E+02  0.37657099096E+01  0.14905579662E+02  0.10500000000E+00 0.  1.
         13    1    6    6    0    0 -0.57376693242E+01  0.29003604312E+02  0.76712911599E+01  0.30544879201E+02  0.10500000000E+00 0. -1.
</event>
<event>
11    0  0.3482687E-009  0.9118800E+02  0.7816531E-02  0.1126479E+00
         25   -1    0    0    0    0  0.00000000000E+00  0.00000000000E+00  0.99999998245E-14  0.12500000000E+03  0.12500000000E+03 0.  0.
    3000001    1    3    3    0    0  0.23724868813E+02  0.25269874573E+02 -0.12764872327E+02  0.36951020644E+02  0.10000000000E+01 0. -1.
    1000022    2    1    0    0    0  0.44312122639E+02  0.35911494794E+02 -0.23517022455E+02  0.62499999707E+02  0.99999973535E+01 0.  0.
    3000022    2    3    3    0    0  0.20587253827E+02  0.10641620221E+02 -0.10752150128E+02  0.25548979063E+02  0.24999546456E+00 0.  0.
    1000022    2    1    0    0    0 -0.44312122639E+02 -0.35911494794E+02  0.23517022455E+02  0.62500000293E+02  0.10000001017E+02 0.  0.
    3000022    2    5    5    0    0 -0.13355091735E+02 -0.13398639618E+02  0.12427349550E+02  0.22635890423E+02  0.24999908849E+00 0.  0.
        -13    1    4    4    0    0  0.15548280847E+02  0.80462205499E+01 -0.81455986544E+01  0.19309389034E+02  0.10500000000E+00 0. -1.
         13    1    4    4    0    0  0.50389729797E+01  0.25953996715E+01 -0.26065514737E+01  0.62395900290E+01  0.10500000000E+00 0.  1.
    3000001    1    5    5    0    0 -0.30957030905E+02 -0.22512855176E+02  0.11089672905E+02  0.39864109870E+02  0.10000000000E+01 0.  1.
        -13    1    6    6    0    0 -0.47993047871E+01 -0.48429512907E+01  0.45446789371E+01  0.81946711517E+01  0.10500000000E+00 0.  1.
         13    1    6    6    0    0 -0.85557869476E+01 -0.85556883275E+01  0.78826706127E+01  0.14441219271E+02  0.10500000000E+00 0. -1.
</event>
<event>
11    0  0.3482687E-009  0.9118800E+02  0.7816531E-02  0.1126479E+00
         25   -1    0    0    0    0  0.00000000000E+00  0.00000000000E+00  0.99999998245E-14  0.12500000000E+03  0.12500000000E+03 0.  0.
    3000001    1    3    3    0    0 -0.11998754118E+02  0.22552585221E+01 -0.41136881563E+02  0.42922014353E+02  0.10000000000E+01 0.  1.
    1000022    2    1    0    0    0 -0.21602883748E+02  0.78433373622E+01 -0.57254234800E+02  0.62499999695E+02  0.10000001609E+02 0.  0.
    3000022    2    3    3    0    0 -0.96041296297E+01  0.55880788402E+01 -0.16117353237E+02  0.19577985342E+02  0.25000726481E+00 0.  0.
    1000022    2    1    0    0    0  0.21602883748E+02 -0.78433373622E+01  0.57254234800E+02  0.62500000305E+02  0.10000005419E+02 0.  0.
    3000022    2    5    5    0    0  0.16820087249E+02 -0.54068121119E+01  0.30982470137E+02  0.35666860046E+02  0.24999494505E+00 0.  0.
        -13    1    4    4    0    0 -0.51180717865E+01  0.29948906179E+01 -0.84854005091E+01  0.10352636158E+02  0.10500000000E+00 0. -1.
         13    1    4    4    0    0 -0.44860578432E+01  0.25931882223E+01 -0.76319527278E+01  0.92253491841E+01  0.10500000000E+00 0.  1.
    3000001    1    5    5    0    0  0.47827964988E+01 -0.24365252503E+01  0.26271764663E+02  0.26833140259E+02  0.10000000000E+01 0. -1.
        -13    1    6    6    0    0  0.91175405586E+01 -0.29833324018E+01  0.16732398386E+02  0.19287664421E+02  0.10500000000E+00 0. -1.
         13    1    6    6    0    0  0.77025466904E+01 -0.24234797101E+01  0.14250071751E+02  0.16379195626E+02  0.10500000000E+00 0.  1.
</event>
<event>
11    0  0.3482687E-009  0.9118800E+02  0.7816531E-02  0.1126479E+00
         25   -1    0    0    0    0  0.00000000000E+00  0.00000000000E+00  0.99999998245E-14  0.12500000000E+03  0.12500000000E+03 0.  0.
    3000001    1    3    3    0    0 -0.37479832808E+01 -0.50952175172E+01  0.59005717061E+00  0.64309243259E+01  0.10000000000E+01 0. -1.
    1000022    2    1    0    0    0 -0.34007501960E+02 -0.46516542315E+02 -0.22044301609E+02  0.62500000628E+02  0.99999973278E+01 0.  0.
    3000022    2    3    3    0    0 -0.30259518680E+02 -0.41421324798E+02 -0.22634358780E+02  0.56069076302E+02  0.25000259141E+00 0.  0.
    1000022    2    1    0    0    0  0.34007501960E+02  0.46516542315E+02  0.22044301609E+02  0.62499999372E+02  0.99999894742E+01 0.  0.
    3000022    2    5    5    0    0  0.29716686377E+02  0.44613192175E+02  0.19312690077E+02  0.56977722515E+02  0.24999926469E+00 0.  0.
        -13    1    4    4    0    0 -0.21785448313E+02 -0.29753805942E+02 -0.16275639026E+02  0.40308834974E+02  0.10500000000E+00 0.  1.
         13    1    4    4    0    0 -0.84740703664E+01 -0.11667518856E+02 -0.63587197536E+01  0.15760241329E+02  0.10500000000E+00 0. -1.
    3000001    1    5    5    0    0  0.42908155834E+01  0.19033501398E+01  0.27316115316E+01  0.55222768570E+01  0.10000000000E+01 0.  1.
        -13    1    6    6    0    0  0.10431427654E+02  0.15600388522E+02  0.67128286625E+01  0.19931379746E+02  0.10500000000E+00 0.  1.
         13    1    6    6    0    0  0.19285258723E+02  0.29012803653E+02  0.12599861415E+02  0.37046342768E+02  0.10500000000E+00 0. -1.
</event>
<event>
11    0  0.3482687E-009  0.9118800E+02  0.7816531E-02  0.1126479E+00
         25   -1    0    0    0    0  0.00000000000E+00  0.00000000000E+00  0.99999998245E-14  0.12500000000E+03  0.12500000000E+03 0.  0.
    3000001    1    3    3    0    0  0.59019221311E+01  0.94412992992E+01  0.28338765446E+01  0.11532635153E+02  0.10000000000E+01 0. -1.
    1000022    2    1    0    0    0  0.43840618043E+02  0.36577358069E+02  0.23374070337E+02  0.62500001320E+02  0.10000004360E+02 0.  0.
    3000022    2    3    3    0    0  0.37938695912E+02  0.27136058769E+02  0.20540193792E+02  0.50967366167E+02  0.25003990178E+00 0.  0.
    1000022    2    1    0    0    0 -0.43840618043E+02 -0.36577358069E+02 -0.23374070337E+02  0.62499998680E+02  0.99999878630E+01 0.  0.
    3000022    2    5    5    0    0 -0.17576365243E+02 -0.11088499851E+02 -0.43263126144E+01  0.21228822993E+02  0.25000144737E+00 0.  0.
        -13    1    4    4    0    0  0.28612299112E+02  0.20494056839E+02  0.15495426401E+02  0.38455029457E+02  0.10500000000E+00 0. -1.
         13    1    4    4    0    0  0.93263967999E+01  0.66420019300E+01  0.50447673913E+01  0.12512336710E+02  0.10500000000E+00 0.  1.
    3000001    1    5    5    0    0 -0.26264252800E+02 -0.25488858217E+02 -0.19047757722E+02  0.41271175687E+02  0.10000000000E+01 0.  1.
        -13    1    6    6    0    0 -0.50744864182E+01 -0.31846109053E+01 -0.12064911940E+01  0.61121849635E+01  0.10500000000E+00 0.  1.
         13    1    6    6    0    0 -0.12501878825E+02 -0.79038889460E+01 -0.31198214205E+01  0.15116638030E+02  0.10500000000E+00 0. -1.
</event>
<event>
11    0  0.3482687E-009  0.9118800E+02  0.7816531E-02  0.1126479E+00
         25   -1    0    0    0    0  0.00000000000E+00  0.00000000000E+00  0.99999998245E-14  0.12500000000E+03  0.12500000000E+03 0.  0.
    3000001    1    3    3    0    0  0.10419501176E+02  0.14515654746E+02  0.18146054378E+01  0.17987857859E+02  0.10000000000E+01 0.  1.
    1000022    2    1    0    0    0  0.24868640037E+02  0.54104895567E+02  0.16138803693E+02  0.62499999583E+02  0.99999990797E+01 0.  0.
    3000022    2    3    3    0    0  0.14449138862E+02  0.39589240821E+02  0.14324198256E+02  0.44512141724E+02  0.25000514115E+00 0.  0.
    1000022    2    1    0    0    0 -0.24868640037E+02 -0.54104895567E+02 -0.16138803693E+02  0.62500000417E+02  0.10000004291E+02 0.  0.
    3000022    2    5    5    0    0 -0.14340117771E+02 -0.32272681072E+02 -0.14528288098E+02  0.38187675737E+02  0.25000370864E+00 0.  0.
        -13    1    4    4    0    0  0.52188582364E+01  0.14214796080E+02  0.50937729423E+01  0.15976684784E+02  0.10500000000E+00 0. -1.
         13    1    4    4    0    0  0.92302806252E+01  0.25374444742E+02  0.92304253133E+01  0.28535456941E+02  0.10500000000E+00 0.  1.
    3000001    1    5    5    0    0 -0.10528522267E+02 -0.21832214495E+02 -0.16105155955E+01  0.24312324680E+02  0.10000000000E+01 0. -1.
        -13    1    6    6    0    0 -0.10970017700E+02 -0.24649954364E+02 -0.11097434075E+02  0.29174057080E+02  0.10500000000E+00 0. -1.
         13    1    6    6    0    0 -0.33701000710E+01 -0.76227267084E+01 -0.34308540232E+01  0.90136186567E+01  0.10500000000E+00 0.  1.
</event>
<event>
11    0  0.3482687E-009  0.9118800E+02  0.7816531E-02  0.1126479E+00
         25   -1    0    0    0    0  0.00000000000E+00  0.00000000000E+00  0.99999998245E-14  0.12500000000E+03  0.12500000000E+03 0.  0.
    3000001    1    3    3    0    0 -0.40422466177E+01  0.27486254190E+01 -0.83644074235E+00  0.50590841590E+01  0.10000000000E+01 0.  1.
    1000022    2    1    0    0    0 -0.60953911398E+02  0.44718070176E+01 -0.84186257644E+01  0.62500001357E+02  0.10000026857E+02 0.  0.
    3000022    2    3    3    0    0 -0.56911664780E+02  0.17231815986E+01 -0.75821850220E+01  0.57440917198E+02  0.24999189044E+00 0.  0.
    1000022    2    1    0    0    0  0.60953911398E+02 -0.44718070176E+01  0.84186257644E+01  0.62499998643E+02  0.10000009897E+02 0.  0.
    3000022    2    5    5    0    0  0.55804884159E+02 -0.47701764344E+01  0.10244311087E+02  0.56938107534E+02  0.25000128921E+00 0.  0.
        -13    1    4    4    0    0 -0.30603937731E+02  0.93090938622E+00 -0.40096789607E+01  0.30879704456E+02  0.10500000000E+00 0.  1.
         13    1    4    4    0    0 -0.26307727050E+02  0.79227221242E+00 -0.35725060613E+01  0.26561212742E+02  0.10500000000E+00 0. -1.
    3000001    1    5    5    0    0  0.51490272386E+01  0.29836941685E+00 -0.18256853230E+01  0.55618911093E+01  0.10000000000E+01 0.  1.
        -13    1    6    6    0    0  0.30976117537E+02 -0.26735120874E+01  0.57490870607E+01  0.31618515961E+02  0.10500000000E+00 0. -1.
         13    1    6    6    0    0  0.24828766622E+02 -0.20966643471E+01  0.44952240266E+01  0.25319591573E+02  0.10500000000E+00 0.  1.
</event>
<event>
11    0  0.3482687E-009  0.9118800E+02  0.7816531E-02  0.1126479E+00
         25   -1    0    0    0    0  0.00000000000E+00  0.00000000000E+00  0.99999998245E-14  0.12500000000E+03  0.12500000000E+03 0.  0.
    3000001    1    3    3    0    0 -0.22429371246E+00  0.18102187201E+01 -0.16262195586E+02  0.16394700509E+02  0.10000000000E+01 0. -1.
    1000022    2    1    0    0    0 -0.11439435746E+02  0.18711362959E+02 -0.57665191664E+02  0.62500000333E+02  0.99999959021E+01 0.  0.
    3000022    2    3    3    0    0 -0.11215142034E+02  0.16901144239E+02 -0.41402996078E+02  0.46105299824E+02  0.25000056598E+00 0.  0.
    1000022    2    1    0    0    0  0.11439435746E+02 -0.18711362959E+02  0.57665191664E+02  0.62499999667E+02  0.99999917382E+01 0.  0.
    3000022    2    5    5    0    0  0.92538489682E+01 -0.19483722826E+02  0.51121354098E+02  0.55486074987E+02  0.24999348723E+00 0.  0.
        -13    1    4    4    0    0 -0.33121999311E+01  0.50426916339E+01 -0.12236237646E+02  0.13643164737E+02  0.10500000000E+00 0. -1.
         13    1    4    4    0    0 -0.79029421024E+01  0.11858452605E+02 -0.29166758431E+02  0.32462135088E+02  0.10500000000E+00 0.  1.
    3000001    1    5    5    0    0  0.21855867778E+01  0.77235986734E+00  0.65438375663E+01  0.70139246804E+01  0.10000000000E+01 0.  1.
        -13    1    6    6    0    0  0.22233475920E+01 -0.46404182244E+01  0.12185001386E+02  0.13227321708E+02  0.10500000000E+00 0. -1.
         13    1    6    6    0    0  0.70305013762E+01 -0.14843304602E+02  0.38936352712E+02  0.42258753278E+02  0.10500000000E+00 0.  1.
</event>
<event>
11    0  0.3482687E-009  0.9118800E+02  0.7816531E-02  0.1126479E+00
         25   -1    0    0    0    0  0.00000000000E+00  0.00000000000E+00  0.99999998245E-14  0.12500000000E+03  0.12500000000E+03 0.  0.
    3000001    1    3    3    0    0 -0.18023390945E+02  0.18103025542E+02 -0.15961093853E+02  0.30138325633E+02  0.10000000000E+01 0. -1.
    1000022    2    1    0    0    0 -0.40006288996E+02  0.28562869868E+02 -0.37281489935E+02  0.62499999553E+02  0.99999879022E+01 0.  0.
    3000022    2    3    3    0    0 -0.21982898050E+02  0.10459844326E+02 -0.21320396082E+02  0.32361673920E+02  0.24999966037E+00 0.  0.
    1000022    2    1    0    0    0  0.40006288996E+02 -0.28562869868E+02  0.37281489935E+02  0.62500000447E+02  0.99999934878E+01 0.  0.
    3000022    2    5    5    0    0  0.16391928125E+02 -0.17777534684E+02  0.17832024353E+02  0.30046291787E+02  0.25002099770E+00 0.  0.
        -13    1    4    4    0    0 -0.10211404831E+02  0.47894941690E+01 -0.98450305559E+01  0.14971562867E+02  0.10500000000E+00 0.  1.
         13    1    4    4    0    0 -0.11771493219E+02  0.56703501569E+01 -0.11475365526E+02  0.17390111054E+02  0.10500000000E+00 0. -1.
    3000001    1    5    5    0    0  0.23614360871E+02 -0.10785335184E+02  0.19449465582E+02  0.32453708660E+02  0.10000000000E+01 0. -1.
        -13    1    6    6    0    0  0.61147331623E+01 -0.66512228673E+01  0.65900676180E+01  0.11183413767E+02  0.10500000000E+00 0.  1.
         13    1    6    6    0    0  0.10277194962E+02 -0.11126311817E+02  0.11241956735E+02  0.18862878020E+02  0.10500000000E+00 0. -1.
</event>
<event>
11    0  0.3482687E-009  0.9118800E+02  0.7816531E-02  0.1126479E+00
         25   -1    0    0    0    0  0.00000000000E+00  0.00000000000E+00  0.99999998245E-14  0.12500000000E+03  0.12500000000E+03 0.  0.
    3000001    1    3    3    0    0  0.13945228797E+02 -0.33963675088E+02 -0.10813424832E+01  0.36744658568E+02  0.10000000000E+01 0. -1.
    1000022    2    1    0    0    0  0.29625885461E+02 -0.54051577428E+02  0.26426747909E+01  0.62500000215E+02  0.10000009248E+02 0.  0.
    3000022    2    3    3    0    0  0.15680656665E+02 -0.20087902340E+02  0.37240172741E+01  0.25755341647E+02  0.25000969881E+00 0.  0.
    1000022    2    1    0    0    0 -0.29625885461E+02  0.54051577428E+02 -0.26426747909E+01  0.62499999785E+02  0.10000006562E+02 0.  0.
    3000022    2    5    5    0    0 -0.32680834358E+01  0.14982372101E+01 -0.67056968738E+00  0.36656858668E+01  0.25001017347E+00 0.  0.
        -13    1    4    4    0    0  0.84615923739E+01 -0.10834670117E+02  0.19411970282E+01  0.13884087761E+02  0.10500000000E+00 0. -1.
         13    1    4    4    0    0  0.72190642906E+01 -0.92532322232E+01  0.17828202459E+01  0.11871253887E+02  0.10500000000E+00 0.  1.
    3000001    1    5    5    0    0 -0.26357802026E+02  0.52553340218E+02 -0.19721051035E+01  0.58834313918E+02  0.10000000000E+01 0.  1.
        -13    1    6    6    0    0 -0.10977876858E+01  0.44795339607E+00 -0.20497697451E+00  0.12078247423E+01  0.10500000000E+00 0.  1.
         13    1    6    6    0    0 -0.21702957500E+01  0.10502838141E+01 -0.46559271286E+00  0.24578611244E+01  0.10500000000E+00 0. -1.
</event>
<event>
11    0  0.3482687E-009  0.9118800E+02  0.7816531E-02  0.1126479E+00
         25   -1    0    0    0    0  0.00000000000E+00  0.00000000000E+00  0.99999998245E-14  0.12500000000E+03  0.12500000000E+03 0.  0.
    3000001    1    3    3    0    0 -0.14137841852E+02  0.56381263754E+01  0.42375606350E+02  0.45037307366E+02  0.10000000000E+01 0.  1.
    1000022    2    1    0    0    0 -0.14982388731E+02  0.38489904095E+01  0.59724059792E+02  0.62499999035E+02  0.99999931013E+01 0.  0.
    3000022    2    3    3    0    0 -0.84454687955E+00 -0.17891359658E+01  0.17348453442E+02  0.17462691669E+02  0.24999309882E+00 0.  0.
    1000022    2    1    0    0    0  0.14982388731E+02 -0.38489904095E+01 -0.59724059792E+02  0.62500000965E+02  0.10000005164E+02 0.  0.
    3000022    2    5    5    0    0 -0.32134366882E+00 -0.18507809030E+01 -0.16185697878E+02  0.16296256259E+02  0.25000115793E+00 0.  0.
        -13    1    4    4    0    0 -0.64283342083E+00 -0.13576139032E+01  0.12912720767E+02  0.13000220495E+02  0.10500000000E+00 0. -1.
         13    1    4    4    0    0 -0.20171345872E+00 -0.43152206258E+00  0.44357326751E+01  0.44624711736E+01  0.10500000000E+00 0.  1.
    3000001    1    5    5    0    0  0.15303732400E+02 -0.19982095065E+01 -0.43538361915E+02  0.46203744706E+02  0.10000000000E+01 0.  1.
        -13    1    6    6    0    0 -0.89006616270E-01 -0.71099315694E+00 -0.57638786371E+01  0.58091957611E+01  0.10500000000E+00 0.  1.
         13    1    6    6    0    0 -0.23233705255E+00 -0.11397877461E+01 -0.10421819240E+02  0.10487060498E+02  0.10500000000E+00 0. -1.
</event>
<event>
11    0  0.3482687E-009  0.9118800E+02  0.7816531E-02  0.1126479E+00
         25   -1    0    0    0    0  0.00000000000E+00  0.00000000000E+00  0.99999998245E-14  0.12500000000E+03  0.12500000000E+03 0.  0.
    3000001    1    3    3    0    0  0.36816079556E+02  0.90612331276E+01  0.22575342512E+02  0.44138143926E+02  0.10000000000E+01 0. -1.
    1000022    2    1    0    0    0  0.54485837965E+02  0.88380182635E+01  0.27557812714E+02  0.62499998320E+02  0.99999821432E+01 0.  0.
    3000022    2    3    3    0    0  0.17669758408E+02 -0.22321486404E+00  0.49824702017E+01  0.18361854394E+02  0.25000076660E+00 0.  0.
    1000022    2    1    0    0    0 -0.54485837965E+02 -0.88380182635E+01 -0.27557812714E+02  0.62500001680E+02  0.10000003142E+02 0.  0.
    3000022    2    5    5    0    0 -0.35034380889E+02 -0.10311259721E+02 -0.16788202007E+02  0.40194976740E+02  0.25001444282E+00 0.  0.
        -13    1    4    4    0    0  0.92296806901E+01 -0.86990717519E-01  0.26655688355E+01  0.96078538313E+01  0.10500000000E+00 0.  1.
         13    1    4    4    0    0  0.84400777184E+01 -0.13622414652E+00  0.23169013663E+01  0.87540005627E+01  0.10500000000E+00 0. -1.
    3000001    1    5    5    0    0 -0.19451457076E+02  0.14732414578E+01 -0.10769610708E+02  0.22305024940E+02  0.10000000000E+01 0.  1.
        -13    1    6    6    0    0 -0.12243348555E+02 -0.36478141807E+01 -0.58319103010E+01  0.14043800586E+02  0.10500000000E+00 0.  1.
         13    1    6    6    0    0 -0.22791032334E+02 -0.66634455407E+01 -0.10956291706E+02  0.26151176154E+02  0.10500000000E+00 0. -1.
</event>
<event>
11    0  0.3482687E-009  0.9118800E+02  0.7816531E-02  0.1126479E+00
         25   -1    0    0    0    0  0.00000000000E+00  0.00000000000E+00  0.99999998245E-14  0.12500000000E+03  0.12500000000E+03 0.  0.
    3000001    1    3    3    0    0 -0.28519352262E+02 -0.32383892528E+02 -0.60893112132E+01  0.43590706117E+02  0.10000000000E+01 0.  1.
    1000022    2    1    0    0    0 -0.35704478119E+02 -0.48900075377E+02 -0.11841575309E+02  0.62499999358E+02  0.99999942124E+01 0.  0.
    3000022    2    3    3    0    0 -0.71851258568E+01 -0.16516182849E+02 -0.57522640962E+01  0.18909293240E+02  0.24999829218E+00 0.  0.
    1000022    2    1    0    0    0  0.35704478119E+02  0.48900075377E+02  0.11841575309E+02  0.62500000642E+02  0.10000002242E+02 0.  0.
    3000022    2    5    5    0    0  0.27325208816E+02  0.43416224280E+02  0.96396566808E+01  0.52197902673E+02  0.24999006596E+00 0.  0.
        -13    1    4    4    0    0 -0.28337730760E+01 -0.63661123313E+01 -0.22065896116E+01  0.73101107225E+01  0.10500000000E+00 0.  1.
         13    1    4    4    0    0 -0.43513527808E+01 -0.10150070517E+02 -0.35456744846E+01  0.11599182518E+02  0.10500000000E+00 0. -1.
    3000001    1    5    5    0    0  0.83792693033E+01  0.54838510973E+01  0.22019186286E+01  0.10302097969E+02  0.10000000000E+01 0. -1.
        -13    1    6    6    0    0  0.16174788888E+02  0.25618658823E+02  0.56451715324E+01  0.30819124940E+02  0.10500000000E+00 0. -1.
         13    1    6    6    0    0  0.11150419928E+02  0.17797565457E+02  0.39944851485E+01  0.21378777734E+02  0.10500000000E+00 0.  1.
</event>
<event>
11    0  0.3482687E-009  0.9118800E+02  0.7816531E-02  0.1126479E+00
         25   -1    0    0    0    0  0.00000000000E+00  0.00000000000E+00  0.99999998245E-14  0.12500000000E+03  0.12500000000E+03 0.  0.
    3000001    1    3    3    0    0 -0.27053943135E+01 -0.11660338577E+02  0.17350207488E+01  0.12136430741E+02  0.10000000000E+01 0.  1.
    1000022    2    1    0    0    0 -0.12201252122E+02 -0.59501706641E+02 -0.10813233766E+02  0.62499998494E+02  0.10000007040E+02 0.  0.
    3000022    2    3    3    0    0 -0.94958578081E+01 -0.47841368063E+02 -0.12548254515E+02  0.50363567753E+02  0.24990354970E+00 0.  0.
    1000022    2    1    0    0    0  0.12201252122E+02  0.59501706641E+02  0.10813233766E+02  0.62500001506E+02  0.10000025861E+02 0.  0.
    3000022    2    5    5    0    0  0.17261761239E+01  0.14243879295E+02 -0.15074973127E+01  0.14429235259E+02  0.25000126090E+00 0.  0.
        -13    1    4    4    0    0 -0.47322988012E+01 -0.24015385963E+02 -0.62366147921E+01  0.25259449795E+02  0.10500000000E+00 0. -1.
         13    1    4    4    0    0 -0.47635590069E+01 -0.23825982101E+02 -0.63116397229E+01  0.25104117958E+02  0.10500000000E+00 0.  1.
    3000001    1    5    5    0    0  0.10475075998E+02  0.45257827345E+02  0.12320731079E+02  0.48070766246E+02  0.10000000000E+01 0. -1.
        -13    1    6    6    0    0  0.99071190168E+00  0.85039345626E+01 -0.84968885570E+00  0.86041507001E+01  0.10500000000E+00 0.  1.
         13    1    6    6    0    0  0.73546422224E+00  0.57399447327E+01 -0.65780845700E+00  0.58250845593E+01  0.10500000000E+00 0. -1.
</event>
<event>
11    0  0.3482687E-009  0.9118800E+02  0.7816531E-02  0.1126479E+00
         25   -1    0    0    0    0  0.00000000000E+00  0.00000000000E+00  0.99999998245E-14  0.12500000000E+03  0.12500000000E+03 0.  0.
    3000001    1    3    3    0    0 -0.89981761953E+01  0.18784068420E+02  0.47854658857E+02  0.52200352256E+02  0.10000000000E+01 0. -1.
    1000022    2    1    0    0    0 -0.14849997844E+02  0.21797821318E+02  0.55772596468E+02  0.62500000914E+02  0.10000007369E+02 0.  0.
    3000022    2    3    3    0    0 -0.58518216491E+01  0.30137528972E+01  0.79179376106E+01  0.10299648659E+02  0.25000670544E+00 0.  0.
    1000022    2    1    0    0    0  0.14849997844E+02 -0.21797821318E+02 -0.55772596468E+02  0.62499999086E+02  0.99999959374E+01 0.  0.
    3000022    2    5    5    0    0  0.11647313793E+02 -0.90042585107E+01 -0.25148538855E+02  0.29141861561E+02  0.24999757763E+00 0.  0.
        -13    1    4    4    0    0 -0.21559391967E+01  0.10915271248E+01  0.28195831258E+01  0.37149130928E+01  0.10500000000E+00 0. -1.
         13    1    4    4    0    0 -0.36958824524E+01  0.19222257723E+01  0.50983544847E+01  0.65847355660E+01  0.10500000000E+00 0.  1.
    3000001    1    5    5    0    0  0.32026840519E+01 -0.12793562807E+02 -0.30624057612E+02  0.33358137524E+02  0.10000000000E+01 0.  1.
        -13    1    6    6    0    0  0.83969288760E+01 -0.65328592035E+01 -0.18213065854E+02  0.21092971738E+02  0.10500000000E+00 0. -1.
         13    1    6    6    0    0  0.32503849165E+01 -0.24713993072E+01 -0.69354730013E+01  0.80488898236E+01  0.10500000000E+00 0.  1.
</event>
<event>
11    0  0.3482687E-009  0.9118800E+02  0.7816531E-02  0.1126479E+00
         25   -1    0    0    0    0  0.00000000000E+00  0.00000000000E+00  0.99999998245E-14  0.12500000000E+03  0.12500000000E+03 0.  0.
    3000001    1    3    3    0    0 -0.22048007561E+01 -0.97487532572E+01 -0.48468053602E+01  0.11153064989E+02  0.10000000000E+01 0.  1.
    1000022    2    1    0    0    0 -0.25113639386E+01 -0.60847050966E+02 -0.98782280659E+01  0.62499999874E+02  0.10000001719E+02 0.  0.
    3000022    2    3    3    0    0 -0.30656318244E+00 -0.51098297709E+02 -0.50314227058E+01  0.51346934885E+02  0.24999580609E+00 0.  0.
    1000022    2    1    0    0    0  0.25113639386E+01  0.60847050966E+02  0.98782280659E+01  0.62500000126E+02  0.10000003296E+02 0.  0.
    3000022    2    5    5    0    0  0.52641670613E+00  0.10172000817E+02  0.55236743445E+01  0.11589658728E+02  0.24999199931E+00 0.  0.
        -13    1    4    4    0    0 -0.16251895295E+00 -0.24901631620E+02 -0.23851786251E+01  0.25016350089E+02  0.10500000000E+00 0. -1.
         13    1    4    4    0    0 -0.14404422950E+00 -0.26196666090E+02 -0.26462440807E+01  0.26330584796E+02  0.10500000000E+00 0.  1.
    3000001    1    5    5    0    0  0.19849472324E+01  0.50675050149E+02  0.43545537214E+01  0.50910341398E+02  0.10000000000E+01 0.  1.
        -13    1    6    6    0    0  0.39265255188E+00  0.67620613916E+01  0.37100131132E+01  0.77236566852E+01  0.10500000000E+00 0. -1.
         13    1    6    6    0    0  0.13376415425E+00  0.34099394252E+01  0.18136612313E+01  0.38660020428E+01  0.10500000000E+00 0.  1.
</event>
<event>
11    0  0.3482687E-009  0.9118800E+02  0.7816531E-02  0.1126479E+00
         25   -1    0    0    0    0  0.00000000000E+00  0.00000000000E+00  0.99999998245E-14  0.12500000000E+03  0.12500000000E+03 0.  0.
    3000001    1    3    3    0    0 -0.12041598018E+02 -0.14758493366E+02  0.47972130093E+02  0.51624979176E+02  0.10000000000E+01 0.  1.
    1000022    2    1    0    0    0 -0.10437466292E+02 -0.16060297772E+02  0.58646194638E+02  0.62500000471E+02  0.10000002315E+02 0.  0.
    3000022    2    3    3    0    0  0.16041317263E+01 -0.13018044064E+01  0.10674064545E+02  0.10875021295E+02  0.25000192267E+00 0.  0.
    1000022    2    1    0    0    0  0.10437466292E+02  0.16060297772E+02 -0.58646194638E+02  0.62499999529E+02  0.99999964249E+01 0.  0.
    3000022    2    5    5    0    0  0.11697868069E+02  0.10280110794E+02 -0.43828002050E+02  0.46513192289E+02  0.24999594453E+00 0.  0.
        -13    1    4    4    0    0  0.41984223334E+00 -0.34351678892E+00  0.26642225191E+01  0.27209149043E+01  0.10500000000E+00 0.  1.
         13    1    4    4    0    0  0.11842894929E+01 -0.95828761746E+00  0.80098420256E+01  0.81541063911E+01  0.10500000000E+00 0. -1.
    3000001    1    5    5    0    0 -0.12604017773E+01  0.57801869776E+01 -0.14818192588E+02  0.15986807240E+02  0.10000000000E+01 0. -1.
        -13    1    6    6    0    0  0.88530219320E+01  0.78042787013E+01 -0.33179422850E+02  0.35216017507E+02  0.10500000000E+00 0.  1.
         13    1    6    6    0    0  0.28448461370E+01  0.24758320931E+01 -0.10648579199E+02  0.11297174782E+02  0.10500000000E+00 0. -1.
</event>
<event>
11    0  0.3482687E-009  0.9118800E+02  0.7816531E-02  0.1126479E+00
         25   -1    0    0    0    0  0.00000000000E+00  0.00000000000E+00  0.99999998245E-14  0.12500000000E+03  0.12500000000E+03 0.  0.
    3000001    1    3    3    0    0 -0.12418276934E+02 -0.51483050880E+02  0.95019684350E+01  0.53814547607E+02  0.10000000000E+01 0. -1.
    1000022    2    1    0    0    0 -0.13268560574E+02 -0.59816769140E+02  0.72214544095E+01  0.62500000213E+02  0.10000002638E+02 0.  0.
    3000022    2    3    3    0    0 -0.85028363964E+00 -0.83337182597E+01 -0.22805140255E+01  0.86854526063E+01  0.25000091021E+00 0.  0.
    1000022    2    1    0    0    0  0.13268560574E+02  0.59816769140E+02 -0.72214544095E+01  0.62499999787E+02  0.99999999751E+01 0.  0.
    3000022    2    5    5    0    0 -0.66382347546E+00  0.17582037810E+02 -0.19440036234E+01  0.17703400110E+02  0.25002040005E+00 0.  0.
        -13    1    4    4    0    0 -0.26735745698E+00 -0.25761047397E+01 -0.75522743965E+00  0.26998498338E+01  0.10500000000E+00 0.  1.
         13    1    4    4    0    0 -0.58292618266E+00 -0.57576135200E+01 -0.15252865858E+01  0.59856027725E+01  0.10500000000E+00 0. -1.
    3000001    1    5    5    0    0  0.13932384050E+02  0.42234731330E+02 -0.52774507861E+01  0.44796599677E+02  0.10000000000E+01 0. -1.
        -13    1    6    6    0    0 -0.26727624827E+00  0.57991472204E+01 -0.61981619411E+00  0.58392415767E+01  0.10500000000E+00 0.  1.
         13    1    6    6    0    0 -0.39654722720E+00  0.11782890589E+02 -0.13241874293E+01  0.11864158533E+02  0.10500000000E+00 0. -1.
</event>
<event>
11    0  0.3482687E-009  0.9118800E+02  0.7816531E-02  0.1126479E+00
         25   -1    0    0    0    0  0.00000000000E+00  0.00000000000E+00  0.99999998245E-14  0.12500000000E+03  0.12500000000E+03 0.  0.
    3000001    1    3    3    0    0  0.21171526206E+02 -0.96819741585E+01 -0.32815781206E+02  0.40247355710E+02  0.10000000000E+01 0.  1.
    1000022    2    1    0    0    0  0.35717579918E+02 -0.83698345815E+01 -0.49602927967E+02  0.62500000205E+02  0.99999958303E+01 0.  0.
    3000022    2    3    3    0    0  0.14546053712E+02  0.13121395770E+01 -0.16787146761E+02  0.22252644495E+02  0.25000355152E+00 0.  0.
    1000022    2    1    0    0    0 -0.35717579918E+02  0.83698345815E+01  0.49602927967E+02  0.62499999795E+02  0.99999932645E+01 0.  0.
    3000022    2    5    5    0    0 -0.19820365059E+02  0.29100170393E+01  0.19219720258E+02  0.27762838734E+02  0.24999505160E+00 0.  0.
        -13    1    4    4    0    0  0.47275018782E+01  0.40959312656E+00 -0.55296582964E+01  0.72873305409E+01  0.10500000000E+00 0.  1.
         13    1    4    4    0    0  0.98185518343E+01  0.90254645044E+00 -0.11257488464E+02  0.14965313954E+02  0.10500000000E+00 0. -1.
    3000001    1    5    5    0    0 -0.15897214859E+02  0.54598175423E+01  0.30383207709E+02  0.34737161061E+02  0.10000000000E+01 0. -1.
        -13    1    6    6    0    0 -0.59349872389E+01  0.85323223654E+00  0.56950607474E+01  0.82702370397E+01  0.10500000000E+00 0.  1.
         13    1    6    6    0    0 -0.13885377820E+02  0.20567848027E+01  0.13524659511E+02  0.19492601694E+02  0.10500000000E+00 0. -1.
</event>
<event>
11    0  0.3482687E-009  0.9118800E+02  0.7816531E-02  0.1126479E+00
         25   -1    0    0    0    0  0.00000000000E+00  0.00000000000E+00  0.99999998245E-14  0.12500000000E+03  0.12500000000E+03 0.  0.
    3000001    1    3    3    0    0  0.35497252304E+00  0.17918729235E+01 -0.99279416071E+01  0.10144005058E+02  0.10000000000E+01 0.  1.
    1000022    2    1    0    0    0  0.20339361588E+02  0.21329502042E+02 -0.54199752414E+02  0.62500002711E+02  0.99999944958E+01 0.  0.
    3000022    2    3    3    0    0  0.19984389065E+02  0.19537629119E+02 -0.44271810807E+02  0.52355997653E+02  0.25000037230E+00 0.  0.
    1000022    2    1    0    0    0 -0.20339361588E+02 -0.21329502042E+02  0.54199752414E+02  0.62499997289E+02  0.99999606110E+01 0.  0.
    3000022    2    5    5    0    0 -0.75197674601E+01 -0.11271419335E+02  0.16063064701E+02  0.21016097146E+02  0.24999036383E+00 0.  0.
        -13    1    4    4    0    0  0.11806663752E+02  0.11589100149E+02 -0.26104450365E+02  0.30905629019E+02  0.10500000000E+00 0.  1.
         13    1    4    4    0    0  0.81777253131E+01  0.79485289702E+01 -0.18167360442E+02  0.21450368634E+02  0.10500000000E+00 0. -1.
    3000001    1    5    5    0    0 -0.12819594128E+02 -0.10058082707E+02  0.38136687713E+02  0.41483900143E+02  0.10000000000E+01 0. -1.
        -13    1    6    6    0    0 -0.36440736336E+01 -0.55461173696E+01  0.77907643445E+01  0.10234535876E+02  0.10500000000E+00 0.  1.
         13    1    6    6    0    0 -0.38756938264E+01 -0.57253019659E+01  0.82723003562E+01  0.10781561270E+02  0.10500000000E+00 0. -1.
</event>
<event>
11    0  0.3482687E-009  0.9118800E+02  0.7816531E-02  0.1126479E+00
         25   -1    0    0    0    0  0.00000000000E+00  0.00000000000E+00  0.99999998245E-14  0.12500000000E+03  0.12500000000E+03 0.  0.
    3000001    1    3    3    0    0 -0.51404163921E+02  0.31690075889E+01 -0.28034292571E+02  0.58645990805E+02  0.10000000000E+01 0. -1.
    1000022    2    1    0    0    0 -0.52910509012E+02  0.39831460318E+01 -0.31477974194E+02  0.62499994281E+02  0.99999504771E+01 0.  0.
    3000022    2    3    3    0    0 -0.15063450910E+01  0.81413844287E+00 -0.34436816225E+01  0.38540034760E+01  0.25000547671E+00 0.  0.
    1000022    2    1    0    0    0  0.52910509012E+02 -0.39831460318E+01  0.31477974194E+02  0.62500005719E+02  0.10000021968E+02 0.  0.
    3000022    2    5    5    0    0  0.32225776965E+02 -0.38789502933E+01  0.13797556469E+02  0.35270129342E+02  0.25000581790E+00 0.  0.
        -13    1    4    4    0    0 -0.68734177164E+00  0.32660493096E+00 -0.14135930477E+01  0.16088442425E+01  0.10500000000E+00 0.  1.
         13    1    4    4    0    0 -0.81900331937E+00  0.48753351191E+00 -0.20300885748E+01  0.22451592335E+01  0.10500000000E+00 0. -1.
    3000001    1    5    5    0    0  0.20684732047E+02 -0.10419573844E+00  0.17680417724E+02  0.27229876377E+02  0.10000000000E+01 0. -1.
        -13    1    6    6    0    0  0.17092446170E+02 -0.21251019814E+01  0.73165444302E+01  0.18713915194E+02  0.10500000000E+00 0. -1.
         13    1    6    6    0    0  0.15133330795E+02 -0.17538483119E+01  0.64810120393E+01  0.16556214148E+02  0.10500000000E+00 0.  1.
</event>
<event>
11    0  0.3482687E-009  0.9118800E+02  0.7816531E-02  0.1126479E+00
         25   -1    0    0    0    0  0.00000000000E+00  0.00000000000E+00  0.99999998245E-14  0.12500000000E+03  0.12500000000E+03 0.  0.
    3000001    1    3    3    0    0 -0.42114003540E+02 -0.11489904656E+02  0.42431532174E+02  0.60885483703E+02  0.10000000000E+01 0.  1.
    1000022    2    1    0    0    0 -0.43664025745E+02 -0.11353674751E+02  0.42080825481E+02  0.62499990536E+02  0.99999934638E+01 0.  0.
    3000022    2    3    3    0    0 -0.15500222053E+01  0.13622990481E+00 -0.35070669305E+00  0.16145068332E+01  0.25001941097E+00 0.  0.
    1000022    2    1    0    0    0  0.43664025745E+02  0.11353674751E+02 -0.42080825481E+02  0.62500009464E+02  0.10000111761E+02 0.  0.
    3000022    2    5    5    0    0  0.36611234855E+02  0.10602504464E+02 -0.39485864997E+02  0.54881614879E+02  0.24999725135E+00 0.  0.
        -13    1    4    4    0    0 -0.63237667299E+00  0.18311902959E-01 -0.19625549636E+00  0.67065401079E+00  0.10500000000E+00 0.  1.
         13    1    4    4    0    0 -0.91764553236E+00  0.11791800185E+00 -0.15445119668E+00  0.94385282241E+00  0.10500000000E+00 0. -1.
    3000001    1    5    5    0    0  0.70527908905E+01  0.75117028720E+00 -0.25949604831E+01  0.76183945851E+01  0.10000000000E+01 0.  1.
        -13    1    6    6    0    0  0.91111307262E+01  0.26653427625E+01 -0.98325521514E+01  0.13667730681E+02  0.10500000000E+00 0.  1.
         13    1    6    6    0    0  0.27500104128E+02  0.79371617011E+01 -0.29653312846E+02  0.41213884198E+02  0.10500000000E+00 0. -1.
</event>
<event>
11    0  0.3482687E-009  0.9118800E+02  0.7816531E-02  0.1126479E+00
         25   -1    0    0    0    0  0.00000000000E+00  0.00000000000E+00  0.99999998245E-14  0.12500000000E+03  0.12500000000E+03 0.  0.
    3000001    1    3    3    0    0  0.55617451405E+02  0.12692438645E+02  0.10228591464E+02  0.57965705230E+02  0.10000000000E+01 0.  1.
    1000022    2    1    0    0    0  0.58766713501E+02  0.15932547694E+02  0.99437081518E+01  0.62499998725E+02  0.99999908552E+01 0.  0.
    3000022    2    3    3    0    0  0.31492620961E+01  0.32401090489E+01 -0.28488331205E+00  0.45342934947E+01  0.25000119055E+00 0.  0.
    1000022    2    1    0    0    0 -0.58766713501E+02 -0.15932547694E+02 -0.99437081518E+01  0.62500001275E+02  0.10000006796E+02 0.  0.
    3000022    2    5    5    0    0 -0.40298405205E+02 -0.11110792328E+02 -0.11404987582E+02  0.43330674900E+02  0.24995465621E+00 0.  0.
        -13    1    4    4    0    0  0.10877735179E+01  0.11759560274E+01 -0.59635092526E-01  0.16064573287E+01  0.10500000000E+00 0.  1.
         13    1    4    4    0    0  0.20614885783E+01  0.20641530215E+01 -0.22524821953E+00  0.29278361660E+01  0.10500000000E+00 0. -1.
    3000001    1    5    5    0    0 -0.18468308296E+02 -0.48217553652E+01  0.14612794297E+01  0.19169326375E+02  0.10000000000E+01 0. -1.
        -13    1    6    6    0    0 -0.16564921353E+02 -0.46292832629E+01 -0.46690387768E+01  0.17822396895E+02  0.10500000000E+00 0.  1.
         13    1    6    6    0    0 -0.23733483851E+02 -0.64815090654E+01 -0.67359488047E+01  0.25508278005E+02  0.10500000000E+00 0. -1.
</event>
<event>
11    0  0.3482687E-009  0.9118800E+02  0.7816531E-02  0.1126479E+00
         25   -1    0    0    0    0  0.00000000000E+00  0.00000000000E+00  0.99999998245E-14  0.12500000000E+03  0.12500000000E+03 0.  0.
    3000001    1    3    3    0    0 -0.54060812522E+02 -0.70345802394E+01 -0.10599462549E+01  0.54536045472E+02  0.10000000000E+01 0. -1.
    1000022    2    1    0    0    0 -0.61135952383E+02 -0.68222588380E+01 -0.47012901309E+01  0.62499999036E+02  0.99999930584E+01 0.  0.
    3000022    2    3    3    0    0 -0.70751398605E+01  0.21232140137E+00 -0.36413438761E+01  0.79639535633E+01  0.24997342010E+00 0.  0.
    1000022    2    1    0    0    0  0.61135952383E+02  0.68222588380E+01  0.47012901309E+01  0.62500000964E+02  0.10000005112E+02 0.  0.
    3000022    2    5    5    0    0  0.93570590043E+01  0.31357251435E+01 -0.22282212383E+01  0.10120019502E+02  0.24999889139E+00 0.  0.
        -13    1    4    4    0    0 -0.22298647431E+01  0.49046969864E-01 -0.12002638858E+01  0.25350267796E+01  0.10500000000E+00 0. -1.
         13    1    4    4    0    0 -0.48452751175E+01  0.16327443150E+00 -0.24410799902E+01  0.54289267837E+01  0.10500000000E+00 0.  1.
    3000001    1    5    5    0    0  0.51778893378E+02  0.36865336945E+01  0.69295113692E+01  0.52379981462E+02  0.10000000000E+01 0. -1.
        -13    1    6    6    0    0  0.69885017297E+01  0.23579309343E+01 -0.16409693953E+01  0.75566394828E+01  0.10500000000E+00 0. -1.
         13    1    6    6    0    0  0.23685572746E+01  0.77779420920E+00 -0.58725184301E+00  0.25633800191E+01  0.10500000000E+00 0.  1.
</event>
<event>
11    0  0.3482687E-009  0.9118800E+02  0.7816531E-02  0.1126479E+00
         25   -1    0    0    0    0  0.00000000000E+00  0.00000000000E+00  0.99999998245E-14  0.12500000000E+03  0.12500000000E+03 0.  0.
    3000001    1    3    3    0    0  0.44186680783E+02 -0.28344235694E+02  0.26967383653E+02  0.59026250404E+02  0.10000000000E+01 0.  1.
    1000022    2    1    0    0    0  0.47354472334E+02 -0.29560593140E+02  0.26267379710E+02  0.62499999724E+02  0.10000000594E+02 0.  0.
    3000022    2    3    3    0    0  0.31677915510E+01 -0.12163574458E+01 -0.70000394309E+00  0.34737493198E+01  0.25000014043E+00 0.  0.
    1000022    2    1    0    0    0 -0.47354472334E+02  0.29560593140E+02 -0.26267379710E+02  0.62500000276E+02  0.10000004049E+02 0.  0.
    3000022    2    5    5    0    0 -0.34698330511E+02  0.25934906824E+02 -0.22243225413E+02  0.48697198209E+02  0.25000891335E+00 0.  0.
        -13    1    4    4    0    0  0.10613826179E+01 -0.45413796329E+00 -0.27270036653E+00  0.11908672643E+01  0.10500000000E+00 0.  1.
         13    1    4    4    0    0  0.21064089331E+01 -0.76221948253E+00 -0.42730357656E+00  0.22828820555E+01  0.10500000000E+00 0. -1.
    3000001    1    5    5    0    0 -0.12656141823E+02  0.36256863154E+01 -0.40241542967E+01  0.13802802067E+02  0.10000000000E+01 0. -1.
        -13    1    6    6    0    0 -0.12671565438E+02  0.95368116691E+01 -0.81131294173E+01  0.17814411060E+02  0.10500000000E+00 0.  1.
         13    1    6    6    0    0 -0.22026765073E+02  0.16398095155E+02 -0.14130095996E+02  0.30882787150E+02  0.10500000000E+00 0. -1.
</event>
<event>
11    0  0.3482687E-009  0.9118800E+02  0.7816531E-02  0.1126479E+00
         25   -1    0    0    0    0  0.00000000000E+00  0.00000000000E+00  0.99999998245E-14  0.12500000000E+03  0.12500000000E+03 0.  0.
    3000001    1    3    3    0    0 -0.33188550956E+02 -0.60862101550E-01 -0.18739842111E+01  0.33256509672E+02  0.10000000000E+01 0.  1.
    1000022    2    1    0    0    0 -0.60841681824E+02 -0.92270658518E+01 -0.44046335842E+01  0.62499998399E+02  0.10000000570E+02 0.  0.
    3000022    2    3    3    0    0 -0.27653130869E+02 -0.91662037502E+01 -0.25306493731E+01  0.29243488727E+02  0.25001728065E+00 0.  0.
    1000022    2    1    0    0    0  0.60841681824E+02  0.92270658518E+01  0.44046335842E+01  0.62500001601E+02  0.10000020587E+02 0.  0.
    3000022    2    5    5    0    0  0.10047291708E+02 -0.12013442281E+01 -0.17516956680E+01  0.10272401677E+02  0.24999973653E+00 0.  0.
        -13    1    4    4    0    0 -0.14173060627E+02 -0.47355294732E+01 -0.12402253169E+01  0.14995001526E+02  0.10500000000E+00 0. -1.
         13    1    4    4    0    0 -0.13480070241E+02 -0.44306742771E+01 -0.12904240562E+01  0.14248487201E+02  0.10500000000E+00 0.  1.
    3000001    1    5    5    0    0  0.50794390116E+02  0.10428410080E+02  0.61563292522E+01  0.52227599925E+02  0.10000000000E+01 0.  1.
        -13    1    6    6    0    0  0.45664946445E+01 -0.55634898880E+00 -0.86346444717E+00  0.46817724622E+01  0.10500000000E+00 0.  1.
         13    1    6    6    0    0  0.54807970639E+01 -0.64499523929E+00 -0.88823122080E+00  0.55906292147E+01  0.10500000000E+00 0. -1.
</event>
<event>
11    0  0.3482687E-009  0.9118800E+02  0.7816531E-02  0.1126479E+00
         25   -1    0    0    0    0  0.00000000000E+00  0.00000000000E+00  0.99999998245E-14  0.12500000000E+03  0.12500000000E+03 0.  0.
    3000001    1    3    3    0    0 -0.22409661397E+02  0.16633778496E+02 -0.17858794844E+02  0.33148334260E+02  0.10000000000E+01 0. -1.
    1000022    2    1    0    0    0 -0.38115364991E+02  0.38556417392E+02 -0.29442684873E+02  0.62499999167E+02  0.99999916412E+01 0.  0.
    3000022    2    3    3    0    0 -0.15705703594E+02  0.21922638896E+02 -0.11583890029E+02  0.29351664906E+02  0.25000601515E+00 0.  0.
    1000022    2    1    0    0    0  0.38115364991E+02 -0.38556417392E+02  0.29442684873E+02  0.62500000833E+02  0.10000002056E+02 0.  0.
    3000022    2    5    5    0    0  0.11753420075E+02 -0.12662772973E+02  0.14762956106E+02  0.22726549918E+02  0.24999072267E+00 0.  0.
        -13    1    4    4    0    0 -0.63080125819E+01  0.87133514111E+01 -0.45843087301E+01  0.11693606248E+02  0.10500000000E+00 0. -1.
         13    1    4    4    0    0 -0.93976910120E+01  0.13209287485E+02 -0.69995812993E+01  0.17658058659E+02  0.10500000000E+00 0.  1.
    3000001    1    5    5    0    0  0.26361944916E+02 -0.25893644419E+02  0.14679728768E+02  0.39773450915E+02  0.10000000000E+01 0.  1.
        -13    1    6    6    0    0  0.36605354126E+01 -0.39204448701E+01  0.45235159334E+01  0.70173092340E+01  0.10500000000E+00 0.  1.
         13    1    6    6    0    0  0.80928846623E+01 -0.87423281034E+01  0.10239440172E+02  0.15709240684E+02  0.10500000000E+00 0. -1.
</event>
<event>
11    0  0.3482687E-009  0.9118800E+02  0.7816531E-02  0.1126479E+00
         25   -1    0    0    0    0  0.00000000000E+00  0.00000000000E+00  0.99999998245E-14  0.12500000000E+03  0.12500000000E+03 0.  0.
    3000001    1    3    3    0    0 -0.62090664087E+00 -0.40739190357E+02  0.13228152393E+02  0.42849167690E+02  0.10000000000E+01 0.  1.
    1000022    2    1    0    0    0  0.35919035268E+01 -0.56892383082E+02  0.23592479498E+02  0.62499999368E+02  0.99999904184E+01 0.  0.
    3000022    2    3    3    0    0  0.42128101677E+01 -0.16153192725E+02  0.10364327105E+02  0.19650831678E+02  0.25000910766E+00 0.  0.
    1000022    2    1    0    0    0 -0.35919035268E+01  0.56892383082E+02 -0.23592479498E+02  0.62500000632E+02  0.99999983196E+01 0.  0.
    3000022    2    5    5    0    0 -0.62883840208E+01  0.49874961429E+02 -0.21072306251E+02  0.54508349556E+02  0.25005902113E+00 0.  0.
        -13    1    4    4    0    0  0.16769403982E+01 -0.64475357770E+01  0.42103544709E+01  0.78816848748E+01  0.10500000000E+00 0.  1.
         13    1    4    4    0    0  0.25358697695E+01 -0.97056569483E+01  0.61539726339E+01  0.11769146803E+02  0.10500000000E+00 0. -1.
    3000001    1    5    5    0    0  0.26964804940E+01  0.70174216537E+01 -0.25201732475E+01  0.79916510758E+01  0.10000000000E+01 0. -1.
        -13    1    6    6    0    0 -0.46581804695E+01  0.36687316542E+02 -0.15491631480E+02  0.40095629578E+02  0.10500000000E+00 0. -1.
         13    1    6    6    0    0 -0.16302035513E+01  0.13187644886E+02 -0.55806747710E+01  0.14412719978E+02  0.10500000000E+00 0.  1.
</event>
<event>
11    0  0.3482687E-009  0.9118800E+02  0.7816531E-02  0.1126479E+00
         25   -1    0    0    0    0  0.00000000000E+00  0.00000000000E+00  0.99999998245E-14  0.12500000000E+03  0.12500000000E+03 0.  0.
    3000001    1    3    3    0    0  0.42179561522E+02 -0.29420611364E+02  0.12636357763E+02  0.52965699474E+02  0.10000000000E+01 0. -1.
    1000022    2    1    0    0    0  0.51509558277E+02 -0.31281975822E+02  0.13208078472E+02  0.62500000124E+02  0.10000003668E+02 0.  0.
    3000022    2    3    3    0    0  0.93299967550E+01 -0.18613644584E+01  0.57172070884E+00  0.95343006504E+01  0.25001445886E+00 0.  0.
    1000022    2    1    0    0    0 -0.51509558277E+02  0.31281975822E+02 -0.13208078472E+02  0.62499999876E+02  0.10000002112E+02 0.  0.
    3000022    2    5    5    0    0 -0.10971124060E+02  0.80110665057E+01 -0.71562565925E+01  0.15356342643E+02  0.25000249076E+00 0.  0.
        -13    1    4    4    0    0  0.36695851571E+01 -0.67315368441E+00  0.24735386971E+00  0.37404812585E+01  0.10500000000E+00 0.  1.
         13    1    4    4    0    0  0.56604115978E+01 -0.11882107740E+01  0.32436683913E+00  0.57938193920E+01  0.10500000000E+00 0. -1.
    3000001    1    5    5    0    0 -0.40538434217E+02  0.23270909317E+02 -0.60518218793E+01  0.47143657233E+02  0.10000000000E+01 0. -1.
        -13    1    6    6    0    0 -0.82388800371E+01  0.59843451774E+01 -0.53552543914E+01  0.11505707543E+02  0.10500000000E+00 0. -1.
         13    1    6    6    0    0 -0.27322440229E+01  0.20267213283E+01 -0.18010022011E+01  0.38506350998E+01  0.10500000000E+00 0.  1.
</event>
<event>
11    0  0.3482687E-009  0.9118800E+02  0.7816531E-02  0.1126479E+00
         25   -1    0    0    0    0  0.00000000000E+00  0.00000000000E+00  0.99999998245E-14  0.12500000000E+03  0.12500000000E+03 0.  0.
    3000001    1    3    3    0    0 -0.15304242972E+02  0.21320958528E+02 -0.54372362340E+02  0.60383415868E+02  0.10000000000E+01 0. -1.
    1000022    2    1    0    0    0 -0.16666900358E+02  0.20505677223E+02 -0.55749275996E+02  0.62499999441E+02  0.99999895062E+01 0.  0.
    3000022    2    3    3    0    0 -0.13626573857E+01 -0.81528130423E+00 -0.13769136564E+01  0.21165835731E+01  0.25003209609E+00 0.  0.
    1000022    2    1    0    0    0  0.16666900358E+02 -0.20505677223E+02  0.55749275996E+02  0.62500000559E+02  0.99999964913E+01 0.  0.
    3000022    2    5    5    0    0  0.69097047279E+01 -0.12416260864E+02  0.19827411216E+02  0.24394595524E+02  0.25000392669E+00 0.  0.
        -13    1    4    4    0    0 -0.91079870631E+00 -0.55882196930E+00 -0.98838571386E+00  0.14593723295E+01  0.10500000000E+00 0. -1.
         13    1    4    4    0    0 -0.45185867938E+00 -0.25645933492E+00 -0.38852794252E+00  0.65721124361E+00  0.10500000000E+00 0.  1.
    3000001    1    5    5    0    0  0.97571956297E+01 -0.80894163590E+01  0.35921864781E+02  0.38105405035E+02  0.10000000000E+01 0. -1.
        -13    1    6    6    0    0  0.41381162616E+01 -0.73526738615E+01  0.11856589203E+02  0.14552510149E+02  0.10500000000E+00 0. -1.
         13    1    6    6    0    0  0.27715884662E+01 -0.50635870029E+01  0.79708220124E+01  0.98420853744E+01  0.10500000000E+00 0.  1.
</event>
<event>
11    0  0.3482687E-009  0.9118800E+02  0.7816531E-02  0.1126479E+00
         25   -1    0    0    0    0  0.00000000000E+00  0.00000000000E+00  0.99999998245E-14  0.12500000000E+03  0.12500000000E+03 0.  0.
    3000001    1    3    3    0    0  0.69775593688E+01 -0.29151433896E+02  0.11416269768E+02  0.32090865497E+02  0.10000000000E+01 0. -1.
    1000022    2    1    0    0    0  0.13349375432E+02 -0.58850797200E+02  0.12830737454E+02  0.62499999666E+02  0.99999989597E+01 0.  0.
    3000022    2    3    3    0    0  0.63718160637E+01 -0.29699363304E+02  0.14144676854E+01  0.30409134170E+02  0.25000295620E+00 0.  0.
    1000022    2    1    0    0    0 -0.13349375432E+02  0.58850797200E+02 -0.12830737454E+02  0.62500000334E+02  0.10000003130E+02 0.  0.
    3000022    2    5    5    0    0  0.37186790724E+00  0.18897365217E+02 -0.44981852893E+01  0.19430513785E+02  0.24999432949E+00 0.  0.
        -13    1    4    4    0    0  0.46040739940E+01 -0.21454490496E+02  0.10606604522E+01  0.21968811652E+02  0.10500000000E+00 0. -1.
         13    1    4    4    0    0  0.17677420697E+01 -0.82448728080E+01  0.35380723314E+00  0.84403225177E+01  0.10500000000E+00 0.  1.
    3000001    1    5    5    0    0 -0.13721243340E+02  0.39953431983E+02 -0.83325521644E+01  0.43069486549E+02  0.10000000000E+01 0. -1.
        -13    1    6    6    0    0  0.84800458019E-01  0.45302711340E+01 -0.10976952485E+01  0.46633150788E+01  0.10500000000E+00 0. -1.
         13    1    6    6    0    0  0.28706744922E+00  0.14367094083E+02 -0.34004900408E+01  0.14767198706E+02  0.10500000000E+00 0.  1.
</event>
<event>
11    0  0.3482687E-009  0.9118800E+02  0.7816531E-02  0.1126479E+00
         25   -1    0    0    0    0  0.00000000000E+00  0.00000000000E+00  0.99999998245E-14  0.12500000000E+03  0.12500000000E+03 0.  0.
    3000001    1    3    3    0    0  0.21015102622E+01 -0.10645624270E+01 -0.89413662255E+00  0.27109258276E+01  0.10000000000E+01 0.  1.
    1000022    2    1    0    0    0  0.47499284637E+02 -0.34266355860E+02  0.19387735146E+02  0.62500003669E+02  0.10000049978E+02 0.  0.
    3000022    2    3    3    0    0  0.45397774375E+02 -0.33201793433E+02  0.20281871769E+02  0.59789077841E+02  0.25000261047E+00 0.  0.
    1000022    2    1    0    0    0 -0.47499284637E+02  0.34266355860E+02 -0.19387735146E+02  0.62499996331E+02  0.10000004116E+02 0.  0.
    3000022    2    5    5    0    0 -0.15619401492E+02  0.86806320865E+01 -0.17104618332E+01  0.17952917839E+02  0.25000575381E+00 0.  0.
        -13    1    4    4    0    0  0.22045694519E+02 -0.16185400279E+02  0.99106899866E+01  0.29089734101E+02  0.10500000000E+00 0. -1.
         13    1    4    4    0    0  0.23352079856E+02 -0.17016393154E+02  0.10371181782E+02  0.30699343741E+02  0.10500000000E+00 0.  1.
    3000001    1    5    5    0    0 -0.31879883146E+02  0.25585723774E+02 -0.17677273313E+02  0.44547078492E+02  0.10000000000E+01 0. -1.
        -13    1    6    6    0    0 -0.64163551926E+01  0.36013113255E+01 -0.64786105885E+00  0.73871378877E+01  0.10500000000E+00 0. -1.
         13    1    6    6    0    0 -0.92030462990E+01  0.50793207609E+01 -0.10626007743E+01  0.10565779951E+02  0.10500000000E+00 0.  1.
</event>
<event>
11    0  0.3482687E-009  0.9118800E+02  0.7816531E-02  0.1126479E+00
         25   -1    0    0    0    0  0.00000000000E+00  0.00000000000E+00  0.99999998245E-14  0.12500000000E+03  0.12500000000E+03 0.  0.
    3000001    1    3    3    0    0  0.41657997274E+01 -0.31188369653E+01 -0.21665615091E+00  0.53035809858E+01  0.10000000000E+01 0. -1.
    1000022    2    1    0    0    0  0.28947135026E+02 -0.52457279082E+02  0.14715557630E+02  0.62499996645E+02  0.99999594658E+01 0.  0.
    3000022    2    3    3    0    0  0.24781335299E+02 -0.49338442117E+02  0.14932213780E+02  0.57196415659E+02  0.25001228380E+00 0.  0.
    1000022    2    1    0    0    0 -0.28947135026E+02  0.52457279082E+02 -0.14715557630E+02  0.62500003355E+02  0.10000001408E+02 0.  0.
    3000022    2    5    5    0    0 -0.11859430097E+02  0.16796407015E+02 -0.83695551005E+00  0.20579804726E+02  0.24999440502E+00 0.  0.
        -13    1    4    4    0    0  0.56935862638E+01 -0.11333561493E+02  0.34242075127E+01  0.13137837065E+02  0.10500000000E+00 0. -1.
         13    1    4    4    0    0  0.19087749035E+02 -0.38004880623E+02  0.11508006268E+02  0.44058578593E+02  0.10500000000E+00 0.  1.
    3000001    1    5    5    0    0 -0.17087704930E+02  0.35660872067E+02 -0.13878602119E+02  0.41920198630E+02  0.10000000000E+01 0. -1.
        -13    1    6    6    0    0 -0.31992624339E+01  0.45920553753E+01 -0.21688908539E+00  0.56018138640E+01  0.10500000000E+00 0.  1.
         13    1    6    6    0    0 -0.86601676628E+01  0.12204351639E+02 -0.62006642466E+00  0.14977990862E+02  0.10500000000E+00 0. -1.
</event>
<event>
11    0  0.3482687E-009  0.9118800E+02  0.7816531E-02  0.1126479E+00
         25   -1    0    0    0    0  0.00000000000E+00  0.00000000000E+00  0.99999998245E-14  0.12500000000E+03  0.12500000000E+03 0.  0.
    3000001    1    3    3    0    0 -0.59880896763E+01  0.28103355273E+02 -0.92312836506E+01  0.30197224929E+02  0.10000000000E+01 0. -1.
    1000022    2    1    0    0    0 -0.11369593929E+02  0.59953398726E+02 -0.90869172174E+01  0.62499998953E+02  0.10000005982E+02 0.  0.
    3000022    2    3    3    0    0 -0.53815042528E+01  0.31850043453E+02  0.14436643322E+00  0.32302774023E+02  0.25002394422E+00 0.  0.
    1000022    2    1    0    0    0  0.11369593929E+02 -0.59953398726E+02  0.90869172174E+01  0.62500001047E+02  0.10000019076E+02 0.  0.
    3000022    2    5    5    0    0  0.21756138270E+01 -0.34457421595E+02  0.75000672373E+01  0.35332148485E+02  0.25001904373E+00 0.  0.
        -13    1    4    4    0    0 -0.30591466925E+01  0.18427712217E+02  0.46944876042E-01  0.18680261906E+02  0.10500000000E+00 0. -1.
         13    1    4    4    0    0 -0.23223575603E+01  0.13422331236E+02  0.97421557179E-01  0.13622512118E+02  0.10500000000E+00 0.  1.
    3000001    1    5    5    0    0  0.91939801021E+01 -0.25495977131E+02  0.15868499801E+01  0.27167852562E+02  0.10000000000E+01 0. -1.
        -13    1    6    6    0    0  0.93426043254E+00 -0.15341398017E+02  0.32805676261E+01  0.15716376320E+02  0.10500000000E+00 0.  1.
         13    1    6    6    0    0  0.12413533945E+01 -0.19116023578E+02  0.42194996113E+01  0.19615772166E+02  0.10500000000E+00 0. -1.
</event>
<event>
11    0  0.3482687E-009  0.9118800E+02  0.7816531E-02  0.1126479E+00
         25   -1    0    0    0    0  0.00000000000E+00  0.00000000000E+00  0.99999998245E-14  0.12500000000E+03  0.12500000000E+03 0.  0.
    3000001    1    3    3    0    0  0.10062559690E+02 -0.18778872167E+02 -0.34014095427E+02  0.40147974234E+02  0.10000000000E+01 0. -1.
    1000022    2    1    0    0    0  0.22133701071E+02 -0.26010095712E+02 -0.51379220487E+02  0.62500001344E+02  0.10000003404E+02 0.  0.
    3000022    2    3    3    0    0  0.12071141381E+02 -0.72312235446E+01 -0.17365125060E+02  0.22352027110E+02  0.24999872465E+00 0.  0.
    1000022    2    1    0    0    0 -0.22133701071E+02  0.26010095712E+02  0.51379220487E+02  0.62499998656E+02  0.99999866048E+01 0.  0.
    3000022    2    5    5    0    0 -0.98034964509E+01  0.15927616797E+02  0.34671315680E+02  0.39394925402E+02  0.24999385254E+00 0.  0.
        -13    1    4    4    0    0  0.68739414476E+01 -0.41930083094E+01 -0.99187936586E+01  0.12775988508E+02  0.10500000000E+00 0. -1.
         13    1    4    4    0    0  0.51971999339E+01 -0.30382152353E+01 -0.74463314011E+01  0.95760386018E+01  0.10500000000E+00 0.  1.
    3000001    1    5    5    0    0 -0.12330204620E+02  0.10082478914E+02  0.16707904807E+02  0.23105073254E+02  0.10000000000E+01 0. -1.
        -13    1    6    6    0    0 -0.62148670096E+01  0.10052433734E+02  0.22022762764E+02  0.24993781240E+02  0.10500000000E+00 0. -1.
         13    1    6    6    0    0 -0.35886294412E+01  0.58751830632E+01  0.12648552916E+02  0.14401144162E+02  0.10500000000E+00 0.  1.
</event>
<event>
11    0  0.3482687E-009  0.9118800E+02  0.7816531E-02  0.1126479E+00
         25   -1    0    0    0    0  0.00000000000E+00  0.00000000000E+00  0.99999998245E-14  0.12500000000E+03  0.12500000000E+03 0.  0.
    3000001    1    3    3    0    0  0.39786910087E+02 -0.14857124145E+01  0.26020861300E+02  0.47574055729E+02  0.10000000000E+01 0.  1.
    1000022    2    1    0    0    0  0.53310603910E+02 -0.59565216319E+01  0.30475391564E+02  0.62499998739E+02  0.99999856094E+01 0.  0.
    3000022    2    3    3    0    0  0.13523693823E+02 -0.44708092173E+01  0.44545302633E+01  0.14925943010E+02  0.25001040414E+00 0.  0.
    1000022    2    1    0    0    0 -0.53310603910E+02  0.59565216319E+01 -0.30475391564E+02  0.62500001261E+02  0.10000001373E+02 0.  0.
    3000022    2    5    5    0    0 -0.90249485701E+01  0.43899822249E+01 -0.36054430265E+01  0.10666928335E+02  0.25000010254E+00 0.  0.
        -13    1    4    4    0    0  0.38344495652E+01 -0.12734019892E+01  0.12213621181E+01  0.42222395145E+01  0.10500000000E+00 0. -1.
         13    1    4    4    0    0  0.96892442578E+01 -0.31974072282E+01  0.32331681452E+01  0.10703703496E+02  0.10500000000E+00 0.  1.
    3000001    1    5    5    0    0 -0.44285655340E+02  0.15665394070E+01 -0.26869948537E+02  0.51833072927E+02  0.10000000000E+01 0. -1.
        -13    1    6    6    0    0 -0.35935290050E+01  0.18144213983E+01 -0.14680437909E+01  0.42862283295E+01  0.10500000000E+00 0.  1.
         13    1    6    6    0    0 -0.54314195650E+01  0.25755608265E+01 -0.21373992356E+01  0.63807000051E+01  0.10500000000E+00 0. -1.
</event>
<event>
11    0  0.3482687E-009  0.9118800E+02  0.7816531E-02  0.1126479E+00
         25   -1    0    0    0    0  0.00000000000E+00  0.00000000000E+00  0.99999998245E-14  0.12500000000E+03  0.12500000000E+03 0.  0.
    3000001    1    3    3    0    0 -0.59191662735E+01 -0.68303222020E+01  0.16220708740E+01  0.92369337270E+01  0.10000000000E+01 0. -1.
    1000022    2    1    0    0    0 -0.20214495426E+02 -0.57768432690E+02  0.77738255691E+01  0.62499998995E+02  0.99999934804E+01 0.  0.
    3000022    2    3    3    0    0 -0.14295329153E+02 -0.50938110488E+02  0.61517546951E+01  0.53263065268E+02  0.25000050171E+00 0.  0.
    1000022    2    1    0    0    0  0.20214495426E+02  0.57768432690E+02 -0.77738255691E+01  0.62500001005E+02  0.10000006042E+02 0.  0.
    3000022    2    5    5    0    0  0.17695996346E+02  0.54228912720E+02 -0.50288986700E+01  0.57264959179E+02  0.24993300968E+00 0.  0.
        -13    1    4    4    0    0 -0.70655818922E+01 -0.25414563070E+02  0.30454953187E+01  0.26553879759E+02  0.10500000000E+00 0. -1.
         13    1    4    4    0    0 -0.72297472604E+01 -0.25523547418E+02  0.31062593764E+01  0.26709185509E+02  0.10500000000E+00 0.  1.
    3000001    1    5    5    0    0  0.25184990802E+01  0.35395199702E+01 -0.27449268991E+01  0.52350418258E+01  0.10000000000E+01 0.  1.
        -13    1    6    6    0    0  0.87032543486E+01  0.26492671716E+02 -0.24191501909E+01  0.27990562758E+02  0.10500000000E+00 0. -1.
         13    1    6    6    0    0  0.89927419973E+01  0.27736241004E+02 -0.26097484791E+01  0.29274396421E+02  0.10500000000E+00 0.  1.
</event>
<event>
11    0  0.3482687E-009  0.9118800E+02  0.7816531E-02  0.1126479E+00
         25   -1    0    0    0    0  0.00000000000E+00  0.00000000000E+00  0.99999998245E-14  0.12500000000E+03  0.12500000000E+03 0.  0.
    3000001    1    3    3    0    0  0.69775974952E+01  0.21753585462E+02 -0.13895375043E+02  0.26757929570E+02  0.10000000000E+01 0. -1.
    1000022    2    1    0    0    0  0.26611554483E+02  0.46074972814E+02 -0.31227742847E+02  0.62500000304E+02  0.10000008145E+02 0.  0.
    3000022    2    3    3    0    0  0.19633956988E+02  0.24321387352E+02 -0.17332367804E+02  0.35742070735E+02  0.24999397518E+00 0.  0.
    1000022    2    1    0    0    0 -0.26611554483E+02 -0.46074972814E+02  0.31227742847E+02  0.62499999696E+02  0.10000004341E+02 0.  0.
    3000022    2    5    5    0    0 -0.65514625679E+01 -0.14654596046E+02  0.14483011287E+02  0.21621724305E+02  0.24999786020E+00 0.  0.
        -13    1    4    4    0    0  0.99424429357E+01  0.12208578075E+02 -0.87373934777E+01  0.18007071387E+02  0.10500000000E+00 0.  1.
         13    1    4    4    0    0  0.96915140525E+01  0.12112809277E+02 -0.85949743263E+01  0.17734999348E+02  0.10500000000E+00 0. -1.
    3000001    1    5    5    0    0 -0.20060091915E+02 -0.31420376768E+02  0.16744731560E+02  0.40878275391E+02  0.10000000000E+01 0. -1.
        -13    1    6    6    0    0 -0.33807870316E+01 -0.76802074378E+01  0.75068884525E+01  0.11259649483E+02  0.10500000000E+00 0. -1.
         13    1    6    6    0    0 -0.31706755363E+01 -0.69743886077E+01  0.69761228348E+01  0.10362074822E+02  0.10500000000E+00 0.  1.
</event>
<event>
11    0  0.3482687E-009  0.9118800E+02  0.7816531E-02  0.1126479E+00
         25   -1    0    0    0    0  0.00000000000E+00  0.00000000000E+00  0.99999998245E-14  0.12500000000E+03  0.12500000000E+03 0.  0.
    3000001    1    3    3    0    0 -0.24147896963E+02 -0.10263358950E+02  0.50176926214E+02  0.56631982033E+02  0.10000000000E+01 0. -1.
    1000022    2    1    0    0    0 -0.27326699168E+02 -0.13853659699E+02  0.53549769509E+02  0.62500001497E+02  0.99999999098E+01 0.  0.
    3000022    2    3    3    0    0 -0.31788022048E+01 -0.35903007497E+01  0.33728432947E+01  0.58680194642E+01  0.25007520986E+00 0.  0.
    1000022    2    1    0    0    0  0.27326699168E+02  0.13853659699E+02 -0.53549769509E+02  0.62499998503E+02  0.99999811987E+01 0.  0.
    3000022    2    5    5    0    0  0.24374775547E+02  0.11730802417E+02 -0.38960566162E+02  0.47431314739E+02  0.24998770190E+00 0.  0.
        -13    1    4    4    0    0 -0.17675964498E+01 -0.20671549592E+01  0.19685267105E+01  0.33591143542E+01  0.10500000000E+00 0. -1.
         13    1    4    4    0    0 -0.14112057551E+01 -0.15231457905E+01  0.14043165842E+01  0.25089051100E+01  0.10500000000E+00 0.  1.
    3000001    1    5    5    0    0  0.29519236208E+01  0.21228572826E+01 -0.14589203346E+02  0.15068683764E+02  0.10000000000E+01 0.  1.
        -13    1    6    6    0    0  0.13856750619E+02  0.66520617048E+01 -0.22025905691E+02  0.26859095464E+02  0.10500000000E+00 0.  1.
         13    1    6    6    0    0  0.10518024929E+02  0.50787407119E+01 -0.16934660471E+02  0.20572219275E+02  0.10500000000E+00 0. -1.
</event>
<event>
11    0  0.3482687E-009  0.9118800E+02  0.7816531E-02  0.1126479E+00
         25   -1    0    0    0    0  0.00000000000E+00  0.00000000000E+00  0.99999998245E-14  0.12500000000E+03  0.12500000000E+03 0.  0.
    3000001    1    3    3    0    0  0.15970901359E+02 -0.27409696074E+01  0.48122209749E+02  0.50787101470E+02  0.10000000000E+01 0.  1.
    1000022    2    1    0    0    0  0.15809325098E+02 -0.61856058847E+01  0.59313183342E+02  0.62500001364E+02  0.99999986075E+01 0.  0.
    3000022    2    3    3    0    0 -0.16157626086E+00 -0.34446362773E+01  0.11190973593E+02  0.11712899894E+02  0.25001599935E+00 0.  0.
    1000022    2    1    0    0    0 -0.15809325098E+02  0.61856058847E+01 -0.59313183342E+02  0.62499998636E+02  0.99999815574E+01 0.  0.
    3000022    2    5    5    0    0 -0.36452137619E+01  0.65023917105E+01 -0.24320421748E+02  0.25438437392E+02  0.25000327305E+00 0.  0.
        -13    1    4    4    0    0 -0.15076753371E+00 -0.21050427289E+01  0.69538165630E+01  0.72677730793E+01  0.10500000000E+00 0.  1.
         13    1    4    4    0    0 -0.10808727148E-01 -0.13395935485E+01  0.42371570299E+01  0.44451268148E+01  0.10500000000E+00 0. -1.
    3000001    1    5    5    0    0 -0.12164111336E+02 -0.31678582580E+00 -0.34992761594E+02  0.37061561244E+02  0.10000000000E+01 0. -1.
        -13    1    6    6    0    0 -0.21423560622E+01  0.39495807673E+01 -0.14671584016E+02  0.15344552137E+02  0.10500000000E+00 0.  1.
         13    1    6    6    0    0 -0.15028576997E+01  0.25528109432E+01 -0.96488377316E+01  0.10093885255E+02  0.10500000000E+00 0. -1.
</event>
<event>
11    0  0.3482687E-009  0.9118800E+02  0.7816531E-02  0.1126479E+00
         25   -1    0    0    0    0  0.00000000000E+00  0.00000000000E+00  0.99999998245E-14  0.12500000000E+03  0.12500000000E+03 0.  0.
    3000001    1    3    3    0    0  0.21437315539E+02  0.18048122757E+02 -0.45892063818E+02  0.53780802840E+02  0.10000000000E+01 0.  1.
    1000022    2    1    0    0    0  0.25305365896E+02  0.24080574606E+02 -0.50852866388E+02  0.62499997350E+02  0.10000001620E+02 0.  0.
    3000022    2    3    3    0    0  0.38680503567E+01  0.60324518490E+01 -0.49608025692E+01  0.87191945099E+01  0.25000379761E+00 0.  0.
    1000022    2    1    0    0    0 -0.25305365896E+02 -0.24080574606E+02  0.50852866388E+02  0.62500002650E+02  0.10000034750E+02 0.  0.
    3000022    2    5    5    0    0 -0.11509690804E+02 -0.17510296782E+02  0.31230654619E+02  0.37609835986E+02  0.24999824776E+00 0.  0.
        -13    1    4    4    0    0  0.27739938576E+01  0.42570641580E+01 -0.34894750794E+01  0.61648275319E+01  0.10500000000E+00 0.  1.
         13    1    4    4    0    0  0.10940564990E+01  0.17753876910E+01 -0.14713274897E+01  0.25543669780E+01  0.10500000000E+00 0. -1.
    3000001    1    5    5    0    0 -0.13795675092E+02 -0.65702778237E+01  0.19622211768E+02  0.24890166665E+02  0.10000000000E+01 0.  1.
        -13    1    6    6    0    0 -0.64230532446E+01 -0.96986247411E+01  0.17242241259E+02  0.20799635658E+02  0.10500000000E+00 0. -1.
         13    1    6    6    0    0 -0.50866375597E+01 -0.78116720411E+01  0.13988413360E+02  0.16810200328E+02  0.10500000000E+00 0.  1.
</event>
<event>
11    0  0.3482687E-009  0.9118800E+02  0.7816531E-02  0.1126479E+00
         25   -1    0    0    0    0  0.00000000000E+00  0.00000000000E+00  0.99999998245E-14  0.12500000000E+03  0.12500000000E+03 0.  0.
    3000001    1    3    3    0    0 -0.27210301903E+02 -0.14083416585E+02 -0.93070148372E+01  0.32036911174E+02  0.10000000000E+01 0. -1.
    1000022    2    1    0    0    0 -0.51165419569E+02 -0.32869515798E+02 -0.10389649327E+02  0.62499999906E+02  0.99999973341E+01 0.  0.
    3000022    2    3    3    0    0 -0.23955117666E+02 -0.18786099213E+02 -0.10826344895E+01  0.30463088732E+02  0.24998333828E+00 0.  0.
    1000022    2    1    0    0    0  0.51165419569E+02  0.32869515798E+02  0.10389649327E+02  0.62500000094E+02  0.99999985072E+01 0.  0.
    3000022    2    5    5    0    0  0.37973717242E+02  0.19787341190E+02  0.95670229283E+01  0.43876331901E+02  0.25000170766E+00 0.  0.
        -13    1    4    4    0    0 -0.12242127305E+02 -0.96794967887E+01 -0.52803091768E+00  0.15615767054E+02  0.10500000000E+00 0.  1.
         13    1    4    4    0    0 -0.11712990360E+02 -0.91066024240E+01 -0.55460357177E+00  0.14847321678E+02  0.10500000000E+00 0. -1.
    3000001    1    5    5    0    0  0.13191702327E+02  0.13082174608E+02  0.82262639826E+00  0.18623668193E+02  0.10000000000E+01 0. -1.
        -13    1    6    6    0    0  0.14645429816E+02  0.76129867881E+01  0.36271436363E+01  0.16900099949E+02  0.10500000000E+00 0. -1.
         13    1    6    6    0    0  0.23328287426E+02  0.12174354402E+02  0.59398792920E+01  0.26976231952E+02  0.10500000000E+00 0.  1.
</event>
<event>
11    0  0.3482687E-009  0.9118800E+02  0.7816531E-02  0.1126479E+00
         25   -1    0    0    0    0  0.00000000000E+00  0.00000000000E+00  0.99999998245E-14  0.12500000000E+03  0.12500000000E+03 0.  0.
    3000001    1    3    3    0    0  0.53064128005E+02 -0.21475650689E+01  0.90009339711E+01  0.53874210240E+02  0.10000000000E+01 0.  1.
    1000022    2    1    0    0    0  0.61021287425E+02 -0.51168299382E+01  0.75147077145E+01  0.62500002467E+02  0.10000000436E+02 0.  0.
    3000022    2    3    3    0    0  0.79571594196E+01 -0.29692648694E+01 -0.14862262566E+01  0.86257922264E+01  0.25000630808E+00 0.  0.
    1000022    2    1    0    0    0 -0.61021287425E+02  0.51168299382E+01 -0.75147077145E+01  0.62499997533E+02  0.99999696039E+01 0.  0.
    3000022    2    5    5    0    0 -0.26542674442E+02  0.23241559680E+01  0.16644193426E+01  0.26697341841E+02  0.25000425340E+00 0.  0.
        -13    1    4    4    0    0  0.42300725759E+01 -0.16425842822E+01 -0.82476162604E+00  0.46133343540E+01  0.10500000000E+00 0.  1.
         13    1    4    4    0    0  0.37270868437E+01 -0.13266805872E+01 -0.66146463051E+00  0.40124578725E+01  0.10500000000E+00 0. -1.
    3000001    1    5    5    0    0 -0.34478612983E+02  0.27926739702E+01 -0.91791270572E+01  0.35802655693E+02  0.10000000000E+01 0.  1.
        -13    1    6    6    0    0 -0.11554270718E+02  0.99396908437E+00  0.66087857752E+00  0.11616235701E+02  0.10500000000E+00 0.  1.
         13    1    6    6    0    0 -0.14988403723E+02  0.13301868837E+01  0.10035407651E+01  0.15081106139E+02  0.10500000000E+00 0. -1.
</event>
<event>
11    0  0.3482687E-009  0.9118800E+02  0.7816531E-02  0.1126479E+00
         25   -1    0    0    0    0  0.00000000000E+00  0.00000000000E+00  0.99999998245E-14  0.12500000000E+03  0.12500000000E+03 0.  0.
    3000001    1    3    3    0    0 -0.19707578116E+02 -0.42376861888E+02 -0.11954875021E+02  0.48250451764E+02  0.10000000000E+01 0.  1.
    1000022    2    1    0    0    0 -0.27885478435E+02 -0.53978282901E+02 -0.10723578005E+02  0.62499999773E+02  0.99999956955E+01 0.  0.
    3000022    2    3    3    0    0 -0.81779003185E+01 -0.11601421014E+02  0.12312970160E+01  0.14249548009E+02  0.25000594174E+00 0.  0.
    1000022    2    1    0    0    0  0.27885478435E+02  0.53978282901E+02  0.10723578005E+02  0.62500000227E+02  0.99999985303E+01 0.  0.
    3000022    2    5    5    0    0  0.16464584085E+02  0.31512638886E+02  0.11187097054E+02  0.37273886006E+02  0.24999767209E+00 0.  0.
        -13    1    4    4    0    0 -0.22032668450E+01 -0.31902107007E+01  0.33673156354E+00  0.38931018804E+01  0.10500000000E+00 0. -1.
         13    1    4    4    0    0 -0.59746334735E+01 -0.84112103128E+01  0.89456545249E+00  0.10356446129E+02  0.10500000000E+00 0.  1.
    3000001    1    5    5    0    0  0.11420894350E+02  0.22465644016E+02 -0.46351904900E+00  0.25226114221E+02  0.10000000000E+01 0.  1.
        -13    1    6    6    0    0  0.42442970613E+01  0.80592450305E+01  0.28670954749E+01  0.95496989203E+01  0.10500000000E+00 0. -1.
         13    1    6    6    0    0  0.12220287023E+02  0.23453393855E+02  0.83200015792E+01  0.27724187085E+02  0.10500000000E+00 0.  1.
</event>
<event>
11    0  0.3482687E-009  0.9118800E+02  0.7816531E-02  0.1126479E+00
         25   -1    0    0    0    0  0.00000000000E+00  0.00000000000E+00  0.99999998245E-14  0.12500000000E+03  0.12500000000E+03 0.  0.
    3000001    1    3    3    0    0  0.11901405240E+02 -0.29156516249E+02  0.33088189729E+02  0.45689979055E+02  0.10000000000E+01 0. -1.
    1000022    2    1    0    0    0  0.10809607304E+02 -0.38263764173E+02  0.47172943288E+02  0.62499998879E+02  0.10000001135E+02 0.  0.
    3000022    2    3    3    0    0 -0.10917979358E+01 -0.91072479242E+01  0.14084753559E+02  0.16810019825E+02  0.24999242302E+00 0.  0.
    1000022    2    1    0    0    0 -0.10809607304E+02  0.38263764173E+02 -0.47172943288E+02  0.62500001121E+02  0.10000015143E+02 0.  0.
    3000022    2    5    5    0    0 -0.33197299258E+01  0.20180889412E+02 -0.17388397574E+02  0.26846000137E+02  0.24989783807E+00 0.  0.
        -13    1    4    4    0    0 -0.25641820776E+00 -0.22412325515E+01  0.35041053411E+01  0.41687711485E+01  0.10500000000E+00 0.  1.
         13    1    4    4    0    0 -0.83537972801E+00 -0.68660153727E+01  0.10580648218E+02  0.12641248676E+02  0.10500000000E+00 0.  1.
    3000001    1    5    5    0    0 -0.74898773781E+01  0.18082874762E+02 -0.29784545713E+02  0.35654000984E+02  0.10000000000E+01 0.  1.
        -13    1    6    6    0    0 -0.10465863974E+01  0.65357738018E+01 -0.55714338512E+01  0.86523743813E+01  0.10500000000E+00 0.  1.
         13    1    6    6    0    0 -0.22731435285E+01  0.13645115610E+02 -0.11816963723E+02  0.18193625756E+02  0.10500000000E+00 0. -1.
</event>
<event>
11    0  0.3482687E-009  0.9118800E+02  0.7816531E-02  0.1126479E+00
         25   -1    0    0    0    0  0.00000000000E+00  0.00000000000E+00  0.99999998245E-14  0.12500000000E+03  0.12500000000E+03 0.  0.
    3000001    1    3    3    0    0  0.62105614998E+01 -0.82923382290E+01  0.17945539723E+02  0.20745513814E+02  0.10000000000E+01 0.  1.
    1000022    2    1    0    0    0  0.58911017259E+01 -0.30471040345E+02  0.53320357924E+02  0.62500000308E+02  0.10000004506E+02 0.  0.
    3000022    2    3    3    0    0 -0.31945977382E+00 -0.22178702116E+02  0.35374818200E+02  0.41754486494E+02  0.24999510784E+00 0.  0.
    1000022    2    1    0    0    0 -0.58911017259E+01  0.30471040345E+02 -0.53320357924E+02  0.62499999692E+02  0.10000000657E+02 0.  0.
    3000022    2    5    5    0    0 -0.33234770908E+01  0.18028976049E+01 -0.55724085653E+01  0.67387069132E+01  0.24998779469E+00 0.  0.
        -13    1    4    4    0    0 -0.24435674794E+00 -0.12370880720E+02  0.19725866759E+02  0.23285601654E+02  0.10500000000E+00 0. -1.
         13    1    4    4    0    0 -0.75103025881E-01 -0.98078213963E+01  0.15648951441E+02  0.18468884839E+02  0.10500000000E+00 0.  1.
    3000001    1    5    5    0    0 -0.25676246352E+01  0.28668142740E+02 -0.47747949359E+02  0.55761292779E+02  0.10000000000E+01 0.  1.
        -13    1    6    6    0    0 -0.24067143064E+01  0.13469827311E+01 -0.40596058709E+01  0.49089775980E+01  0.10500000000E+00 0.  1.
         13    1    6    6    0    0 -0.91676278438E+00  0.45591487379E+00 -0.15128026944E+01  0.18297293153E+01  0.10500000000E+00 0. -1.
</event>
<event>
11    0  0.3482687E-009  0.9118800E+02  0.7816531E-02  0.1126479E+00
         25   -1    0    0    0    0  0.00000000000E+00  0.00000000000E+00  0.99999998245E-14  0.12500000000E+03  0.12500000000E+03 0.  0.
    3000001    1    3    3    0    0 -0.24127231533E+01  0.19849804247E+02 -0.20119376332E+01  0.20121725938E+02  0.10000000000E+01 0.  1.
    1000022    2    1    0    0    0  0.38053323377E+01  0.61527434220E+02  0.24787702667E+01  0.62499998830E+02  0.99999917949E+01 0.  0.
    3000022    2    3    3    0    0  0.62180554910E+01  0.41677629972E+02  0.44907078999E+01  0.42378272893E+02  0.25000343857E+00 0.  0.
    1000022    2    1    0    0    0 -0.38053323377E+01 -0.61527434220E+02 -0.24787702667E+01  0.62500001170E+02  0.10000006415E+02 0.  0.
    3000022    2    5    5    0    0  0.48663303595E+00 -0.12344439117E+02 -0.43082662395E+01  0.13086085826E+02  0.24999087148E+00 0.  0.
        -13    1    4    4    0    0  0.26302962768E+01  0.17893483976E+02  0.19803757745E+01  0.18194178754E+02  0.10500000000E+00 0. -1.
         13    1    4    4    0    0  0.35877592142E+01  0.23784145996E+02  0.25103321254E+01  0.24184094139E+02  0.10500000000E+00 0.  1.
    3000001    1    5    5    0    0 -0.42919653736E+01 -0.49182995103E+02  0.18294959728E+01  0.49413915344E+02  0.10000000000E+01 0. -1.
        -13    1    6    6    0    0  0.19925653868E+00 -0.67342219082E+01 -0.23390731802E+01  0.71324425143E+01  0.10500000000E+00 0.  1.
         13    1    6    6    0    0  0.28737649727E+00 -0.56102172083E+01 -0.19691930593E+01  0.59536433115E+01  0.10500000000E+00 0. -1.
</event>
<event>
11    0  0.3482687E-009  0.9118800E+02  0.7816531E-02  0.1126479E+00
         25   -1    0    0    0    0  0.00000000000E+00  0.00000000000E+00  0.99999998245E-14  0.12500000000E+03  0.12500000000E+03 0.  0.
    3000001    1    3    3    0    0  0.12780707418E+02  0.33606864479E+01 -0.22720364948E+01  0.13446294856E+02  0.10000000000E+01 0. -1.
    1000022    2    1    0    0    0  0.51640731416E+02  0.32506559334E+02 -0.90999209687E+01  0.62499998831E+02  0.99999875632E+01 0.  0.
    3000022    2    3    3    0    0  0.38860023998E+02  0.29145872886E+02 -0.68278844740E+01  0.49053703975E+02  0.24999173398E+00 0.  0.
    1000022    2    1    0    0    0 -0.51640731416E+02 -0.32506559334E+02  0.90999209687E+01  0.62500001169E+02  0.10000002179E+02 0.  0.
    3000022    2    5    5    0    0 -0.10795677077E+02 -0.77393597777E+01  0.61250436359E+01  0.14629524537E+02  0.24999065017E+00 0.  0.
        -13    1    4    4    0    0  0.19402689193E+02  0.14481598933E+02 -0.33655619464E+01  0.24444203562E+02  0.10500000000E+00 0. -1.
         13    1    4    4    0    0  0.19457334805E+02  0.14664273953E+02 -0.34623225276E+01  0.24609500413E+02  0.10500000000E+00 0.  1.
    3000001    1    5    5    0    0 -0.40845054339E+02 -0.24767199556E+02  0.29748773329E+01  0.47870476632E+02  0.10000000000E+01 0.  1.
        -13    1    6    6    0    0 -0.75910311170E+01 -0.54531818786E+01  0.43577360453E+01  0.10313187405E+02  0.10500000000E+00 0.  1.
         13    1    6    6    0    0 -0.32046459602E+01 -0.22861778991E+01  0.17673075905E+01  0.43163371319E+01  0.10500000000E+00 0. -1.
</event>
<event>
11    0  0.3482687E-009  0.9118800E+02  0.7816531E-02  0.1126479E+00
         25   -1    0    0    0    0  0.00000000000E+00  0.00000000000E+00  0.99999998245E-14  0.12500000000E+03  0.12500000000E+03 0.  0.
    3000001    1    3    3    0    0 -0.33862549676E+02 -0.48921820945E+02  0.13845076239E+02  0.61095850688E+02  0.10000000000E+01 0.  1.
    1000022    2    1    0    0    0 -0.35220778776E+02 -0.48784422812E+02  0.13631830372E+02  0.62500000235E+02  0.10000003174E+02 0.  0.
    3000022    2    3    3    0    0 -0.13582290992E+01  0.13739813332E+00 -0.21324586683E+00  0.14041495479E+01  0.24999523993E+00 0.  0.
    1000022    2    1    0    0    0  0.35220778776E+02  0.48784422812E+02 -0.13631830372E+02  0.62499999765E+02  0.10000000232E+02 0.  0.
    3000022    2    5    5    0    0  0.44334897924E+00  0.51700799854E+01 -0.86645030586E+00  0.52668323558E+01  0.25000311651E+00 0.  0.
        -13    1    4    4    0    0 -0.61590542984E+00  0.12965028279E+00 -0.10040274733E+00  0.64595232487E+00  0.10500000000E+00 0.  1.
         13    1    4    4    0    0 -0.74232366939E+00  0.77478505324E-02 -0.11284311950E+00  0.75819722298E+00  0.10500000000E+00 0. -1.
    3000001    1    5    5    0    0  0.34777429796E+02  0.43614342826E+02 -0.12765380066E+02  0.57233167409E+02  0.10000000000E+01 0.  1.
        -13    1    6    6    0    0  0.25350351063E+00  0.30711257738E+01 -0.57811397469E+00  0.31370875532E+01  0.10500000000E+00 0. -1.
         13    1    6    6    0    0  0.18984546860E+00  0.20989542116E+01 -0.28833633117E+00  0.21297448026E+01  0.10500000000E+00 0.  1.
</event>
<event>
11    0  0.3482687E-009  0.9118800E+02  0.7816531E-02  0.1126479E+00
         25   -1    0    0    0    0  0.00000000000E+00  0.00000000000E+00  0.99999998245E-14  0.12500000000E+03  0.12500000000E+03 0.  0.
    3000001    1    3    3    0    0 -0.30673953834E+01  0.25319233985E+01  0.26568092247E+01  0.48865310590E+01  0.10000000000E+01 0.  1.
    1000022    2    1    0    0    0 -0.30502636042E+02  0.52558068281E+02  0.10653128446E+02  0.62499994935E+02  0.99999437112E+01 0.  0.
    3000022    2    3    3    0    0 -0.27435240659E+02  0.50026144882E+02  0.79963192216E+01  0.57613463876E+02  0.24999376753E+00 0.  0.
    1000022    2    1    0    0    0  0.30502636042E+02 -0.52558068281E+02 -0.10653128446E+02  0.62500005065E+02  0.10000007027E+02 0.  0.
    3000022    2    5    5    0    0  0.24309082799E+01 -0.12762262198E+01 -0.19686788047E+01  0.33876637963E+01  0.25000266204E+00 0.  0.
        -13    1    4    4    0    0 -0.12365689971E+02  0.22414180897E+02  0.35702508638E+01  0.25846924574E+02  0.10500000000E+00 0. -1.
         13    1    4    4    0    0 -0.15069550688E+02  0.27611963985E+02  0.44260683578E+01  0.31766539301E+02  0.10500000000E+00 0.  1.
    3000001    1    5    5    0    0  0.28071727762E+02 -0.51281842061E+02 -0.86844496416E+01  0.59112341269E+02  0.10000000000E+01 0.  1.
        -13    1    6    6    0    0  0.14872103273E+01 -0.70975793744E+00 -0.11856976660E+01  0.20328440280E+01  0.10500000000E+00 0.  1.
         13    1    6    6    0    0  0.94369795261E+00 -0.56646828240E+00 -0.78298113876E+00  0.13548197682E+01  0.10500000000E+00 0. -1.
</event>
<event>
11    0  0.3482687E-009  0.9118800E+02  0.7816531E-02  0.1126479E+00
         25   -1    0    0    0    0  0.00000000000E+00  0.00000000000E+00  0.99999998245E-14  0.12500000000E+03  0.12500000000E+03 0.  0.
    3000001    1    3    3    0    0 -0.22393470944E+02 -0.21466264887E+02 -0.30040032805E+01  0.31181598818E+02  0.10000000000E+01 0.  1.
    1000022    2    1    0    0    0 -0.40059371552E+02 -0.46888156680E+02  0.17313046029E+01  0.62500000220E+02  0.10000006296E+02 0.  0.
    3000022    2    3    3    0    0 -0.17665900607E+02 -0.25421891793E+02  0.47353078835E+01  0.31318401402E+02  0.24999806719E+00 0.  0.
    1000022    2    1    0    0    0  0.40059371552E+02  0.46888156680E+02 -0.17313046029E+01  0.62499999780E+02  0.10000003544E+02 0.  0.
    3000022    2    5    5    0    0  0.45103998511E+01  0.10080047040E+02 -0.24449499531E+01  0.11313325597E+02  0.25000127688E+00 0.  0.
        -13    1    4    4    0    0 -0.10801715584E+02 -0.15471720001E+02  0.28393985257E+01  0.19082043610E+02  0.10500000000E+00 0.  1.
         13    1    4    4    0    0 -0.68641850235E+01 -0.99501717920E+01  0.18959093578E+01  0.12236357792E+02  0.10500000000E+00 0. -1.
    3000001    1    5    5    0    0  0.35548971701E+02  0.36808109640E+02  0.71364535021E+00  0.51186674183E+02  0.10000000000E+01 0. -1.
        -13    1    6    6    0    0  0.22527342391E+01  0.51996559096E+01 -0.12609679283E+01  0.58062292623E+01  0.10500000000E+00 0.  1.
         13    1    6    6    0    0  0.22576656120E+01  0.48803911307E+01 -0.11839820248E+01  0.55070963347E+01  0.10500000000E+00 0. -1.
</event>
<event>
11    0  0.3482687E-009  0.9118800E+02  0.7816531E-02  0.1126479E+00
         25   -1    0    0    0    0  0.00000000000E+00  0.00000000000E+00  0.99999998245E-14  0.12500000000E+03  0.12500000000E+03 0.  0.
    3000001    1    3    3    0    0  0.11748715814E+02 -0.44731342033E+02  0.10903357404E+01  0.46272174310E+02  0.10000000000E+01 0.  1.
    1000022    2    1    0    0    0  0.12130885748E+02 -0.60192221985E+02  0.59989988168E+01  0.62500000282E+02  0.10000003598E+02 0.  0.
    3000022    2    3    3    0    0  0.38216993393E+00 -0.15460879951E+02  0.49086630764E+01  0.16227825972E+02  0.24999967846E+00 0.  0.
    1000022    2    1    0    0    0 -0.12130885748E+02  0.60192221985E+02 -0.59989988168E+01  0.62499999718E+02  0.10000000075E+02 0.  0.
    3000022    2    5    5    0    0 -0.23893003504E+01  0.15742754057E+02  0.27238472955E+01  0.16156265197E+02  0.24999910677E+00 0.  0.
        -13    1    4    4    0    0  0.24812564707E+00 -0.99983107836E+01  0.32340282308E+01  0.10511790925E+02  0.10500000000E+00 0.  1.
         13    1    4    4    0    0  0.13404428687E+00 -0.54625691678E+01  0.16746348456E+01  0.57160350463E+01  0.10500000000E+00 0. -1.
    3000001    1    5    5    0    0 -0.97415853973E+01  0.44449467927E+02 -0.87228461123E+01  0.46343734521E+02  0.10000000000E+01 0.  1.
        -13    1    6    6    0    0 -0.13650712472E+01  0.94142816436E+01  0.16211976538E+01  0.96504624349E+01  0.10500000000E+00 0. -1.
         13    1    6    6    0    0 -0.10242291032E+01  0.63284724139E+01  0.11026496417E+01  0.65058027622E+01  0.10500000000E+00 0.  1.
</event>
<event>
11    0  0.3482687E-009  0.9118800E+02  0.7816531E-02  0.1126479E+00
         25   -1    0    0    0    0  0.00000000000E+00  0.00000000000E+00  0.99999998245E-14  0.12500000000E+03  0.12500000000E+03 0.  0.
    3000001    1    3    3    0    0 -0.26619602296E+02 -0.12862775897E+01  0.13873523382E+02  0.30062142097E+02  0.10000000000E+01 0.  1.
    1000022    2    1    0    0    0 -0.58291172661E+02  0.18814378934E+01  0.20120868204E+02  0.62499999747E+02  0.10000000622E+02 0.  0.
    3000022    2    3    3    0    0 -0.31671570365E+02  0.31677154832E+01  0.62473448216E+01  0.32437857650E+02  0.25000173643E+00 0.  0.
    1000022    2    1    0    0    0  0.58291172661E+02 -0.18814378934E+01 -0.20120868204E+02  0.62500000253E+02  0.10000003780E+02 0.  0.
    3000022    2    5    5    0    0  0.40931003105E+02  0.14931401500E+01 -0.10250204776E+02  0.42222099462E+02  0.25000467701E+00 0.  0.
        -13    1    4    4    0    0 -0.13482158533E+02  0.14073133089E+01  0.26312886686E+01  0.13808831758E+02  0.10500000000E+00 0.  1.
         13    1    4    4    0    0 -0.18189411831E+02  0.17604021742E+01  0.36160561530E+01  0.18629025892E+02  0.10500000000E+00 0. -1.
    3000001    1    5    5    0    0  0.17360169556E+02 -0.33745780434E+01 -0.98706634276E+01  0.20277900791E+02  0.10000000000E+01 0. -1.
        -13    1    6    6    0    0  0.25033815946E+02  0.96320160446E+00 -0.62319975754E+01  0.25816051536E+02  0.10500000000E+00 0.  1.
         13    1    6    6    0    0  0.15897187159E+02  0.52993854555E+00 -0.40182072007E+01  0.16406047926E+02  0.10500000000E+00 0. -1.
</event>
<event>
11    0  0.3482687E-009  0.9118800E+02  0.7816531E-02  0.1126479E+00
         25   -1    0    0    0    0  0.00000000000E+00  0.00000000000E+00  0.99999998245E-14  0.12500000000E+03  0.12500000000E+03 0.  0.
    3000001    1    3    3    0    0  0.34406011449E+01  0.20741923978E+02  0.41575542918E+01  0.21455777875E+02  0.10000000000E+01 0.  1.
    1000022    2    1    0    0    0  0.26955821659E+01  0.61632013817E+02  0.69183205638E+00  0.62500000720E+02  0.10000008403E+02 0.  0.
    3000022    2    3    3    0    0 -0.74501897901E+00  0.40890089839E+02 -0.34657222354E+01  0.41044222845E+02  0.24999598424E+00 0.  0.
    1000022    2    1    0    0    0 -0.26955821659E+01 -0.61632013817E+02 -0.69183205638E+00  0.62499999280E+02  0.99999993994E+01 0.  0.
    3000022    2    5    5    0    0 -0.53798979034E+01 -0.55081157331E+02 -0.43243169868E+00  0.55345520946E+02  0.24999447766E+00 0.  0.
        -13    1    4    4    0    0 -0.54738605907E+00  0.28729378089E+02 -0.23966638610E+01  0.28834559465E+02  0.10500000000E+00 0. -1.
         13    1    4    4    0    0 -0.19763291994E+00  0.12160711750E+02 -0.10690583744E+01  0.12209663380E+02  0.10500000000E+00 0.  1.
    3000001    1    5    5    0    0  0.26843157375E+01 -0.65508564866E+01 -0.25940035770E+00  0.71544783340E+01  0.10000000000E+01 0.  1.
        -13    1    6    6    0    0 -0.40007157450E+01 -0.40734916437E+02 -0.34285205184E+00  0.40932477523E+02  0.10500000000E+00 0. -1.
         13    1    6    6    0    0 -0.13791821584E+01 -0.14346240893E+02 -0.89579646837E-01  0.14413043423E+02  0.10500000000E+00 0.  1.
</event>
<event>
11    0  0.3482687E-009  0.9118800E+02  0.7816531E-02  0.1126479E+00
         25   -1    0    0    0    0  0.00000000000E+00  0.00000000000E+00  0.99999998245E-14  0.12500000000E+03  0.12500000000E+03 0.  0.
    3000001    1    3    3    0    0  0.66675217573E+00  0.11543381050E+01 -0.36015131825E+00  0.17049234283E+01  0.10000000000E+01 0. -1.
    1000022    2    1    0    0    0 -0.17852562530E+02  0.48299615269E+02 -0.33980629554E+02  0.62499999138E+02  0.99999941685E+01 0.  0.
    3000022    2    3    3    0    0 -0.18519314706E+02  0.47145277164E+02 -0.33620478235E+02  0.60795075710E+02  0.24999545676E+00 0.  0.
    1000022    2    1    0    0    0  0.17852562530E+02 -0.48299615269E+02  0.33980629554E+02  0.62500000862E+02  0.10000004940E+02 0.  0.
    3000022    2    5    5    0    0  0.81076293639E+01 -0.12306326956E+02  0.62035301381E+01  0.15991423395E+02  0.24999796528E+00 0.  0.
        -13    1    4    4    0    0 -0.11277004266E+02  0.28868280893E+02 -0.20547504073E+02  0.37185473179E+02  0.10500000000E+00 0.  1.
         13    1    4    4    0    0 -0.72423104393E+01  0.18276996271E+02 -0.13072974163E+02  0.23609602531E+02  0.10500000000E+00 0. -1.
    3000001    1    5    5    0    0  0.97449331662E+01 -0.35993288314E+02  0.27777099416E+02  0.46508577467E+02  0.10000000000E+01 0.  1.
        -13    1    6    6    0    0  0.44467004671E+01 -0.68195127731E+01  0.34857713972E+01  0.88566656671E+01  0.10500000000E+00 0. -1.
         13    1    6    6    0    0  0.36609288968E+01 -0.54868141824E+01  0.27177587409E+01  0.71347577278E+01  0.10500000000E+00 0.  1.
</event>
<event>
11    0  0.3482687E-009  0.9118800E+02  0.7816531E-02  0.1126479E+00
         25   -1    0    0    0    0  0.00000000000E+00  0.00000000000E+00  0.99999998245E-14  0.12500000000E+03  0.12500000000E+03 0.  0.
    3000001    1    3    3    0    0 -0.13867510212E+02 -0.21959630439E+01 -0.16113527538E+02  0.21395697298E+02  0.10000000000E+01 0.  1.
    1000022    2    1    0    0    0 -0.28858561923E+02 -0.61757578686E+01 -0.54178349619E+02  0.62499998495E+02  0.99999831484E+01 0.  0.
    3000022    2    3    3    0    0 -0.14991051712E+02 -0.39797948247E+01 -0.38064822081E+02  0.41104301197E+02  0.24999718510E+00 0.  0.
    1000022    2    1    0    0    0  0.28858561923E+02  0.61757578686E+01  0.54178349619E+02  0.62500001505E+02  0.10000001955E+02 0.  0.
    3000022    2    5    5    0    0  0.81857022644E+01 -0.25268420155E+01  0.17699427065E+02  0.19665270713E+02  0.25000336999E+00 0.  0.
        -13    1    4    4    0    0 -0.60442468197E+01 -0.15441979104E+01 -0.15374763053E+02  0.16592523339E+02  0.10500000000E+00 0.  1.
         13    1    4    4    0    0 -0.89468048918E+01 -0.24355969143E+01 -0.22690059028E+02  0.24511777858E+02  0.10500000000E+00 0. -1.
    3000001    1    5    5    0    0  0.20672859659E+02  0.87025998841E+01  0.36478922554E+02  0.42834730791E+02  0.10000000000E+01 0. -1.
        -13    1    6    6    0    0  0.38819468274E+01 -0.11598712474E+01  0.85005700286E+01  0.94172994161E+01  0.10500000000E+00 0. -1.
         13    1    6    6    0    0  0.43037554369E+01 -0.13669707680E+01  0.91988570359E+01  0.10247971297E+02  0.10500000000E+00 0.  1.
</event>
<event>
11    0  0.3482687E-009  0.9118800E+02  0.7816531E-02  0.1126479E+00
         25   -1    0    0    0    0  0.00000000000E+00  0.00000000000E+00  0.99999998245E-14  0.12500000000E+03  0.12500000000E+03 0.  0.
    3000001    1    3    3    0    0 -0.21875558400E+02  0.40441269350E+02  0.11836919321E+02  0.47488408911E+02  0.10000000000E+01 0.  1.
    1000022    2    1    0    0    0 -0.23454119020E+02  0.54834241420E+02  0.15791141595E+02  0.62499999861E+02  0.10000004934E+02 0.  0.
    3000022    2    3    3    0    0 -0.15785606197E+01  0.14392972070E+02  0.39542222742E+01  0.15011590950E+02  0.24998081191E+00 0.  0.
    1000022    2    1    0    0    0  0.23454119020E+02 -0.54834241420E+02 -0.15791141595E+02  0.62500000139E+02  0.10000006670E+02 0.  0.
    3000022    2    5    5    0    0  0.17294875655E+02 -0.33066659796E+02 -0.13726655480E+02  0.39761794592E+02  0.25004903366E+00 0.  0.
        -13    1    4    4    0    0 -0.11202642939E+01  0.10126445823E+02  0.28274785001E+01  0.10573814674E+02  0.10500000000E+00 0. -1.
         13    1    4    4    0    0 -0.45829632583E+00  0.42665262475E+01  0.11267437741E+01  0.44377762760E+01  0.10500000000E+00 0.  1.
    3000001    1    5    5    0    0  0.61592433643E+01 -0.21767581624E+02 -0.20644861157E+01  0.22738205547E+02  0.10000000000E+01 0. -1.
        -13    1    6    6    0    0  0.65363802434E+01 -0.12411886182E+02 -0.52087344703E+01  0.14963994289E+02  0.10500000000E+00 0. -1.
         13    1    6    6    0    0  0.10758495412E+02 -0.20654773614E+02 -0.85179210094E+01  0.24797800304E+02  0.10500000000E+00 0.  1.
</event>
<event>
11    0  0.3482687E-009  0.9118800E+02  0.7816531E-02  0.1126479E+00
         25   -1    0    0    0    0  0.00000000000E+00  0.00000000000E+00  0.99999998245E-14  0.12500000000E+03  0.12500000000E+03 0.  0.
    3000001    1    3    3    0    0  0.24000287482E+02  0.39194893916E+01  0.56917331505E+01  0.24995440035E+02  0.10000000000E+01 0.  1.
    1000022    2    1    0    0    0  0.61392991382E+02  0.10527872324E+01  0.60035248224E+01  0.62499999788E+02  0.99999955651E+01 0.  0.
    3000022    2    3    3    0    0  0.37392703901E+02 -0.28667021592E+01  0.31179167189E+00  0.37504559752E+02  0.25000377933E+00 0.  0.
    1000022    2    1    0    0    0 -0.61392991382E+02 -0.10527872324E+01 -0.60035248224E+01  0.62500000212E+02  0.99999982211E+01 0.  0.
    3000022    2    5    5    0    0 -0.46159837464E+02 -0.15877094352E+01 -0.86677739161E+01  0.46994087040E+02  0.24999229634E+00 0.  0.
        -13    1    4    4    0    0  0.26597031385E+02 -0.20242102151E+01  0.26166351083E+00  0.26675438109E+02  0.10500000000E+00 0.  1.
         13    1    4    4    0    0  0.10795672516E+02 -0.84249194419E+00  0.50128161057E-01  0.10829121644E+02  0.10500000000E+00 0. -1.
    3000001    1    5    5    0    0 -0.15233153919E+02  0.53492220287E+00  0.26642490936E+01  0.15505913172E+02  0.10000000000E+01 0.  1.
        -13    1    6    6    0    0 -0.31686625779E+02 -0.10625470067E+01 -0.59915129375E+01  0.32265779267E+02  0.10500000000E+00 0.  1.
         13    1    6    6    0    0 -0.14473211685E+02 -0.52516242859E+00 -0.26762609785E+01  0.14728307774E+02  0.10500000000E+00 0. -1.
</event>
<event>
11    0  0.3482687E-009  0.9118800E+02  0.7816531E-02  0.1126479E+00
         25   -1    0    0    0    0  0.00000000000E+00  0.00000000000E+00  0.99999998245E-14  0.12500000000E+03  0.12500000000E+03 0.  0.
    3000001    1    3    3    0    0  0.11112884495E+02  0.62252307097E+01 -0.28083157785E+01  0.13081908756E+02  0.10000000000E+01 0.  1.
    1000022    2    1    0    0    0  0.48761996093E+02  0.22478556212E+02 -0.30384738221E+02  0.62500000212E+02  0.99999978676E+01 0.  0.
    3000022    2    3    3    0    0  0.37649111598E+02  0.16253325502E+02 -0.27576422442E+02  0.49418091456E+02  0.24998878927E+00 0.  0.
    1000022    2    1    0    0    0 -0.48761996093E+02 -0.22478556212E+02  0.30384738221E+02  0.62499999788E+02  0.99999952215E+01 0.  0.
    3000022    2    5    5    0    0 -0.26687663171E+02 -0.13327007345E+02  0.11292604815E+02  0.31897114653E+02  0.25001873916E+00 0.  0.
        -13    1    4    4    0    0  0.16200478137E+02  0.70652576093E+01 -0.11886541212E+02  0.21299630136E+02  0.10500000000E+00 0. -1.
         13    1    4    4    0    0  0.21448633461E+02  0.91880678926E+01 -0.15689881231E+02  0.28118461320E+02  0.10500000000E+00 0.  1.
    3000001    1    5    5    0    0 -0.22074332922E+02 -0.91515488667E+01  0.19092133406E+02  0.30602885135E+02  0.10000000000E+01 0. -1.
        -13    1    6    6    0    0 -0.10013450767E+02 -0.49332967767E+01  0.42288134212E+01  0.11937357383E+02  0.10500000000E+00 0. -1.
         13    1    6    6    0    0 -0.16674212404E+02 -0.83937105682E+01  0.70637913937E+01  0.19959757269E+02  0.10500000000E+00 0.  1.
</event>
<event>
11    0  0.3482687E-009  0.9118800E+02  0.7816531E-02  0.1126479E+00
         25   -1    0    0    0    0  0.00000000000E+00  0.00000000000E+00  0.99999998245E-14  0.12500000000E+03  0.12500000000E+03 0.  0.
    3000001    1    3    3    0    0 -0.11587259328E+01  0.87617283483E+00  0.95323426681E+00  0.20047394323E+01  0.10000000000E+01 0. -1.
    1000022    2    1    0    0    0 -0.71407595076E+00  0.21583751738E+02  0.57791710682E+02  0.62499999160E+02  0.99999913917E+01 0.  0.
    3000022    2    3    3    0    0  0.44464998204E+00  0.20707578904E+02  0.56838476415E+02  0.60495259727E+02  0.25002125504E+00 0.  0.
    1000022    2    1    0    0    0  0.71407595076E+00 -0.21583751738E+02 -0.57791710682E+02  0.62500000840E+02  0.10000001896E+02 0.  0.
    3000022    2    5    5    0    0 -0.12819587736E+00 -0.20097385694E+02 -0.56868141353E+02  0.60315581888E+02  0.25014340197E+00 0.  0.
        -13    1    4    4    0    0  0.23441697373E+00  0.10474685364E+02  0.28947726593E+02  0.30785644133E+02  0.10500000000E+00 0.  1.
         13    1    4    4    0    0  0.21023300831E+00  0.10232893540E+02  0.27890749822E+02  0.29709615594E+02  0.10500000000E+00 0. -1.
    3000001    1    5    5    0    0  0.84227182813E+00 -0.14863660448E+01 -0.92356932933E+00  0.21844189520E+01  0.10000000000E+01 0.  1.
        -13    1    6    6    0    0 -0.92448963507E-01 -0.13614092809E+02 -0.38674894716E+02  0.41001348467E+02  0.10500000000E+00 0. -1.
         13    1    6    6    0    0 -0.35746913857E-01 -0.64832928843E+01 -0.18193246636E+02  0.19314233421E+02  0.10500000000E+00 0.  1.
</event>
<event>
11    0  0.3482687E-009  0.9118800E+02  0.7816531E-02  0.1126479E+00
         25   -1    0    0    0    0  0.00000000000E+00  0.00000000000E+00  0.99999998245E-14  0.12500000000E+03  0.12500000000E+03 0.  0.
    3000001    1    3    3    0    0  0.63262546399E+01  0.43925346533E+00  0.64928962713E+01  0.91308347573E+01  0.10000000000E+01 0. -1.
    1000022    2    1    0    0    0  0.51908934934E+02 -0.13560301658E+02  0.30460313009E+02  0.62500000480E+02  0.10000004218E+02 0.  0.
    3000022    2    3    3    0    0  0.45582680294E+02 -0.13999555123E+02  0.23967416738E+02  0.53369165722E+02  0.24999682168E+00 0.  0.
    1000022    2    1    0    0    0 -0.51908934934E+02  0.13560301658E+02 -0.30460313009E+02  0.62499999520E+02  0.99999982213E+01 0.  0.
    3000022    2    5    5    0    0 -0.10534560681E+01  0.18362261490E+01 -0.24957064094E+01  0.32821567746E+01  0.25001290655E+00 0.  0.
        -13    1    4    4    0    0  0.23063638064E+02 -0.70834644543E+01  0.12202774194E+02  0.27037484951E+02  0.10500000000E+00 0. -1.
         13    1    4    4    0    0  0.22519042229E+02 -0.69160906687E+01  0.11764642544E+02  0.26331680771E+02  0.10500000000E+00 0.  1.
    3000001    1    5    5    0    0 -0.50855478866E+02  0.11724075509E+02 -0.27964606600E+02  0.59217842746E+02  0.10000000000E+01 0.  1.
        -13    1    6    6    0    0 -0.31952851307E+00  0.63216289377E+00 -0.77985643100E+00  0.10587395562E+01  0.10500000000E+00 0. -1.
         13    1    6    6    0    0 -0.73392755507E+00  0.12040632552E+01 -0.17158499784E+01  0.22234172184E+01  0.10500000000E+00 0.  1.
</event>
<event>
11    0  0.3482687E-009  0.9118800E+02  0.7816531E-02  0.1126479E+00
         25   -1    0    0    0    0  0.00000000000E+00  0.00000000000E+00  0.99999998245E-14  0.12500000000E+03  0.12500000000E+03 0.  0.
    3000001    1    3    3    0    0 -0.44459014321E+02 -0.27906472191E+02 -0.16469966674E+02  0.55023948847E+02  0.10000000000E+01 0. -1.
    1000022    2    1    0    0    0 -0.50513315198E+02 -0.28686144793E+02 -0.20778839389E+02  0.62499999466E+02  0.99999925786E+01 0.  0.
    3000022    2    3    3    0    0 -0.60543008772E+01 -0.77967260158E+00 -0.43088727154E+01  0.74760506189E+01  0.25000060371E+00 0.  0.
    1000022    2    1    0    0    0  0.50513315198E+02  0.28686144793E+02  0.20778839389E+02  0.62500000534E+02  0.99999992500E+01 0.  0.
    3000022    2    5    5    0    0  0.33664347588E+02  0.14786581684E+02  0.99050056545E+01  0.38080217074E+02  0.24999791656E+00 0.  0.
        -13    1    4    4    0    0 -0.15221946806E+01 -0.22386621924E+00 -0.10869077121E+01  0.18866865411E+01  0.10500000000E+00 0.  1.
         13    1    4    4    0    0 -0.45321061966E+01 -0.55580638234E+00 -0.32219650033E+01  0.55893640778E+01  0.10500000000E+00 0. -1.
    3000001    1    5    5    0    0  0.16848967610E+02  0.13899563109E+02  0.10873833735E+02  0.24419783460E+02  0.10000000000E+01 0.  1.
        -13    1    6    6    0    0  0.18193944191E+02  0.79410848457E+01  0.53981797428E+01  0.20572598360E+02  0.10500000000E+00 0. -1.
         13    1    6    6    0    0  0.15470403397E+02  0.68454968384E+01  0.45068259117E+01  0.17507618714E+02  0.10500000000E+00 0.  1.
</event>
<event>
11    0  0.3482687E-009  0.9118800E+02  0.7816531E-02  0.1126479E+00
         25   -1    0    0    0    0  0.00000000000E+00  0.00000000000E+00  0.99999998245E-14  0.12500000000E+03  0.12500000000E+03 0.  0.
    3000001    1    3    3    0    0  0.50589444869E+01 -0.76395715636E+01  0.53478299601E+01  0.10656230960E+02  0.10000000000E+01 0.  1.
    1000022    2    1    0    0    0  0.20336715327E+02 -0.56073929565E+02  0.15760157463E+02  0.62499999841E+02  0.99999924836E+01 0.  0.
    3000022    2    3    3    0    0  0.15277770840E+02 -0.48434358001E+02  0.10412327503E+02  0.51843768880E+02  0.24998168824E+00 0.  0.
    1000022    2    1    0    0    0 -0.20336715327E+02  0.56073929565E+02 -0.15760157463E+02  0.62500000159E+02  0.99999944759E+01 0.  0.
    3000022    2    5    5    0    0 -0.57476051886E+01  0.85623922597E+01 -0.56843515208E+01  0.11778109647E+02  0.24997607530E+00 0.  0.
        -13    1    4    4    0    0  0.59460231432E+01 -0.18709763388E+02  0.40706523119E+01  0.20049729986E+02  0.10500000000E+00 0. -1.
         13    1    4    4    0    0  0.93317476971E+01 -0.29724594613E+02  0.63416751910E+01  0.31794038894E+02  0.10500000000E+00 0.  1.
    3000001    1    5    5    0    0 -0.14589110139E+02  0.47511537305E+02 -0.10075805942E+02  0.50721890512E+02  0.10000000000E+01 0.  1.
        -13    1    6    6    0    0 -0.37121668383E+01  0.54371777661E+01 -0.36588835628E+01  0.75326979644E+01  0.10500000000E+00 0. -1.
         13    1    6    6    0    0 -0.20354383503E+01  0.31252144936E+01 -0.20254679580E+01  0.42454116829E+01  0.10500000000E+00 0.  1.
</event>
<event>
11    0  0.3482687E-009  0.9118800E+02  0.7816531E-02  0.1126479E+00
         25   -1    0    0    0    0  0.00000000000E+00  0.00000000000E+00  0.99999998245E-14  0.12500000000E+03  0.12500000000E+03 0.  0.
    3000001    1    3    3    0    0 -0.66101199384E+01 -0.86100599090E+00 -0.23875820230E+02  0.24809067064E+02  0.10000000000E+01 0.  1.
    1000022    2    1    0    0    0 -0.26809421847E+02 -0.66369104977E+01 -0.55167530067E+02  0.62500000725E+02  0.10000001812E+02 0.  0.
    3000022    2    3    3    0    0 -0.20199301908E+02 -0.57759045068E+01 -0.31291709837E+02  0.37690933662E+02  0.25001058390E+00 0.  0.
    1000022    2    1    0    0    0  0.26809421847E+02  0.66369104977E+01  0.55167530067E+02  0.62499999275E+02  0.99999927450E+01 0.  0.
    3000022    2    5    5    0    0  0.25630952062E+01  0.63320148767E+00  0.98567292405E+00  0.28292147908E+01  0.25000811795E+00 0.  0.
        -13    1    4    4    0    0 -0.11623614960E+02 -0.33851912801E+01 -0.17982561600E+02  0.21678364593E+02  0.10500000000E+00 0. -1.
         13    1    4    4    0    0 -0.85756869481E+01 -0.23907132267E+01 -0.13309148238E+02  0.16012569069E+02  0.10500000000E+00 0.  1.
    3000001    1    5    5    0    0  0.24246326641E+02  0.60037090100E+01  0.54181857143E+02  0.59670784484E+02  0.10000000000E+01 0.  1.
        -13    1    6    6    0    0  0.69197684113E+00  0.20860982630E+00  0.26172564853E+00  0.77580624088E+00  0.10500000000E+00 0.  1.
         13    1    6    6    0    0  0.18711183651E+01  0.42459166137E+00  0.72394727552E+00  0.20534085499E+01  0.10500000000E+00 0. -1.
</event>
<event>
11    0  0.3482687E-009  0.9118800E+02  0.7816531E-02  0.1126479E+00
         25   -1    0    0    0    0  0.00000000000E+00  0.00000000000E+00  0.99999998245E-14  0.12500000000E+03  0.12500000000E+03 0.  0.
    3000001    1    3    3    0    0 -0.11301101112E+02  0.30103406604E+01  0.74565656742E+01  0.13906020598E+02  0.10000000000E+01 0. -1.
    1000022    2    1    0    0    0 -0.57795654766E+02  0.13736489128E+02  0.16649960148E+02  0.62499999452E+02  0.99999957612E+01 0.  0.
    3000022    2    3    3    0    0 -0.46494553654E+02  0.10726148468E+02  0.91933944736E+01  0.48593978853E+02  0.24999690573E+00 0.  0.
    1000022    2    1    0    0    0  0.57795654766E+02 -0.13736489128E+02 -0.16649960148E+02  0.62500000548E+02  0.10000002612E+02 0.  0.
    3000022    2    5    5    0    0  0.39289461371E+02 -0.10943616018E+02 -0.68735801855E+01  0.41361009576E+02  0.25000435211E+00 0.  0.
        -13    1    4    4    0    0 -0.11354151031E+02  0.26074580056E+01  0.22643034033E+01  0.11868179211E+02  0.10500000000E+00 0. -1.
         13    1    4    4    0    0 -0.35140402623E+02  0.81186904622E+01  0.69290910702E+01  0.36725799642E+02  0.10500000000E+00 0.  1.
    3000001    1    5    5    0    0  0.18506193394E+02 -0.27928731100E+01 -0.97763799623E+01  0.21138990972E+02  0.10000000000E+01 0.  1.
        -13    1    6    6    0    0  0.26863661203E+02 -0.74717827819E+01 -0.47487070659E+01  0.28285068056E+02  0.10500000000E+00 0. -1.
         13    1    6    6    0    0  0.12425800168E+02 -0.34718332362E+01 -0.21248731197E+01  0.13075941519E+02  0.10500000000E+00 0.  1.
</event>
<event>
11    0  0.3482687E-009  0.9118800E+02  0.7816531E-02  0.1126479E+00
         25   -1    0    0    0    0  0.00000000000E+00  0.00000000000E+00  0.99999998245E-14  0.12500000000E+03  0.12500000000E+03 0.  0.
    3000001    1    3    3    0    0  0.15530075443E+02 -0.94785673480E+01 -0.45288095781E+02  0.48816371247E+02  0.10000000000E+01 0.  1.
    1000022    2    1    0    0    0  0.21590489876E+02 -0.16391318701E+02 -0.55420442343E+02  0.62499999919E+02  0.99999989218E+01 0.  0.
    3000022    2    3    3    0    0  0.60604144330E+01 -0.69127513528E+01 -0.10132346563E+02  0.13683628672E+02  0.24998479970E+00 0.  0.
    1000022    2    1    0    0    0 -0.21590489876E+02  0.16391318701E+02  0.55420442343E+02  0.62500000081E+02  0.99999999401E+01 0.  0.
    3000022    2    5    5    0    0 -0.16585611978E+02  0.16639729667E+02  0.48563631210E+02  0.53948604306E+02  0.25000443879E+00 0.  0.
        -13    1    4    4    0    0  0.23813044841E+01 -0.26447003170E+01 -0.38637264686E+01  0.52539944839E+01  0.10500000000E+00 0.  1.
         13    1    4    4    0    0  0.36791099489E+01 -0.42680510358E+01 -0.62686200940E+01  0.84296341879E+01  0.10500000000E+00 0. -1.
    3000001    1    5    5    0    0 -0.50048778983E+01 -0.24841096629E+00  0.68568111333E+01  0.85513957751E+01  0.10000000000E+01 0. -1.
        -13    1    6    6    0    0 -0.11618954360E+02  0.11718926000E+02  0.34085500977E+02  0.37870380627E+02  0.10500000000E+00 0. -1.
         13    1    6    6    0    0 -0.49666576182E+01  0.49208036674E+01  0.14478130234E+02  0.16078223680E+02  0.10500000000E+00 0.  1.
</event>
<event>
11    0  0.3482687E-009  0.9118800E+02  0.7816531E-02  0.1126479E+00
         25   -1    0    0    0    0  0.00000000000E+00  0.00000000000E+00  0.99999998245E-14  0.12500000000E+03  0.12500000000E+03 0.  0.
    3000001    1    3    3    0    0  0.25980991160E+00  0.11576869472E+02 -0.19211817617E+02  0.22454071883E+02  0.10000000000E+01 0.  1.
    1000022    2    1    0    0    0  0.17810906056E+01  0.42205874139E+02 -0.44963782745E+02  0.62500000971E+02  0.10000013350E+02 0.  0.
    3000022    2    3    3    0    0  0.15212806940E+01  0.30629004667E+02 -0.25751965128E+02  0.40045929088E+02  0.25001343086E+00 0.  0.
    1000022    2    1    0    0    0 -0.17810906056E+01 -0.42205874139E+02  0.44963782745E+02  0.62499999029E+02  0.10000001218E+02 0.  0.
    3000022    2    5    5    0    0 -0.36413819516E+01 -0.55788626582E+01  0.58053894997E+01  0.88401591540E+01  0.24999109470E+00 0.  0.
        -13    1    4    4    0    0  0.10995185782E+01  0.22061723348E+02 -0.18497145179E+02  0.28811178090E+02  0.10500000000E+00 0. -1.
         13    1    4    4    0    0  0.42176211579E+00  0.85672813195E+01 -0.72548199490E+01  0.11234750998E+02  0.10500000000E+00 0.  1.
    3000001    1    5    5    0    0  0.18602913460E+01 -0.36627011481E+02  0.39158393245E+02  0.53659839875E+02  0.10000000000E+01 0. -1.
        -13    1    6    6    0    0 -0.19189029448E+01 -0.29563865252E+01  0.31596710688E+01  0.47346547985E+01  0.10500000000E+00 0.  1.
         13    1    6    6    0    0 -0.17224790068E+01 -0.26224761330E+01  0.26457184310E+01  0.41055043555E+01  0.10500000000E+00 0. -1.
</event>
<event>
11    0  0.3482687E-009  0.9118800E+02  0.7816531E-02  0.1126479E+00
         25   -1    0    0    0    0  0.00000000000E+00  0.00000000000E+00  0.99999998245E-14  0.12500000000E+03  0.12500000000E+03 0.  0.
    3000001    1    3    3    0    0 -0.85398082573E+00 -0.37100626897E+01  0.17722421834E+01  0.43167917217E+01  0.10000000000E+01 0.  1.
    1000022    2    1    0    0    0 -0.19768148450E+02 -0.57998893961E+02 -0.71832192824E+01  0.62500000028E+02  0.99999985184E+01 0.  0.
    3000022    2    3    3    0    0 -0.18914167625E+02 -0.54288831272E+02 -0.89554614658E+01  0.58183208306E+02  0.25000197760E+00 0.  0.
    1000022    2    1    0    0    0  0.19768148450E+02  0.57998893961E+02  0.71832192824E+01  0.62499999972E+02  0.99999981658E+01 0.  0.
    3000022    2    5    5    0    0  0.32697315251E+01  0.21760933804E+02 -0.11745859389E+00  0.22006946063E+02  0.24998845741E+00 0.  0.
        -13    1    4    4    0    0 -0.11342349043E+02 -0.32618707601E+02 -0.54398042975E+01  0.34960427102E+02  0.10500000000E+00 0. -1.
         13    1    4    4    0    0 -0.75718185819E+01 -0.21670123671E+02 -0.35156571683E+01  0.23222781204E+02  0.10500000000E+00 0.  1.
    3000001    1    5    5    0    0  0.16498416925E+02  0.36237960157E+02  0.73006778763E+01  0.40493053909E+02  0.10000000000E+01 0. -1.
        -13    1    6    6    0    0  0.19148837367E+01  0.12587989848E+02 -0.73450981271E-02  0.12733237887E+02  0.10500000000E+00 0.  1.
         13    1    6    6    0    0  0.13548477885E+01  0.91729439566E+01 -0.11011349577E+00  0.92737081765E+01  0.10500000000E+00 0. -1.
</event>
<event>
11    0  0.3482687E-009  0.9118800E+02  0.7816531E-02  0.1126479E+00
         25   -1    0    0    0    0  0.00000000000E+00  0.00000000000E+00  0.99999998245E-14  0.12500000000E+03  0.12500000000E+03 0.  0.
    3000001    1    3    3    0    0  0.15190544358E-01 -0.36630272907E+01 -0.56188796263E+01  0.67815785728E+01  0.10000000000E+01 0. -1.
    1000022    2    1    0    0    0 -0.80996690485E+01 -0.51600137943E+02 -0.32833993685E+02  0.62499999693E+02  0.99999972905E+01 0.  0.
    3000022    2    3    3    0    0 -0.81148595929E+01 -0.47937110653E+02 -0.27215114059E+02  0.55718421120E+02  0.24998984510E+00 0.  0.
    1000022    2    1    0    0    0  0.80996690485E+01  0.51600137943E+02  0.32833993685E+02  0.62500000307E+02  0.10000001134E+02 0.  0.
    3000022    2    5    5    0    0  0.17083757863E+01  0.27073706709E+01 -0.70934220500E-01  0.32118429607E+01  0.24999952730E+00 0.  0.
        -13    1    4    4    0    0 -0.43260619436E+01 -0.25235271439E+02 -0.14284517152E+02  0.29318802701E+02  0.10500000000E+00 0.  1.
         13    1    4    4    0    0 -0.37887976493E+01 -0.22701839213E+02 -0.12930596907E+02  0.26399618419E+02  0.10500000000E+00 0. -1.
    3000001    1    5    5    0    0  0.63912932622E+01  0.48892767272E+02  0.32904927905E+02  0.59288157347E+02  0.10000000000E+01 0.  1.
        -13    1    6    6    0    0  0.11109247783E+01  0.17574001745E+01  0.10663719703E-01  0.20817655851E+01  0.10500000000E+00 0.  1.
         13    1    6    6    0    0  0.59745100809E+00  0.94997049631E+00 -0.81597940204E-01  0.11300773756E+01  0.10500000000E+00 0. -1.
</event>
<event>
11    0  0.3482687E-009  0.9118800E+02  0.7816531E-02  0.1126479E+00
         25   -1    0    0    0    0  0.00000000000E+00  0.00000000000E+00  0.99999998245E-14  0.12500000000E+03  0.12500000000E+03 0.  0.
    3000001    1    3    3    0    0  0.15376439234E+02 -0.16416012554E+02 -0.76448690467E+01  0.23777392086E+02  0.10000000000E+01 0.  1.
    1000022    2    1    0    0    0  0.45730284588E+02 -0.40418927230E+02 -0.90167290168E+01  0.62499999791E+02  0.99999982363E+01 0.  0.
    3000022    2    3    3    0    0  0.30353845354E+02 -0.24002914677E+02 -0.13718599701E+01  0.38722607705E+02  0.25001381632E+00 0.  0.
    1000022    2    1    0    0    0 -0.45730284588E+02  0.40418927230E+02  0.90167290168E+01  0.62500000209E+02  0.10000000851E+02 0.  0.
    3000022    2    5    5    0    0 -0.34112863995E+02  0.35049357662E+02  0.85669193779E+01  0.49654803935E+02  0.24996762688E+00 0.  0.
        -13    1    4    4    0    0  0.22892101526E+02 -0.18088166241E+02 -0.10554363617E+01  0.29195120159E+02  0.10500000000E+00 0.  1.
         13    1    4    4    0    0  0.74617438285E+01 -0.59147484360E+01 -0.31642360837E+00  0.95274875452E+01  0.10500000000E+00 0. -1.
    3000001    1    5    5    0    0 -0.11617420594E+02  0.53695695684E+01  0.44980963891E+00  0.12845196274E+02  0.10000000000E+01 0.  1.
        -13    1    6    6    0    0 -0.13152279667E+02  0.13592349484E+02  0.33408808300E+01  0.19206950165E+02  0.10500000000E+00 0.  1.
         13    1    6    6    0    0 -0.20960584327E+02  0.21457008178E+02  0.52260385479E+01  0.30447853770E+02  0.10500000000E+00 0. -1.
</event>
<event>
11    0  0.3482687E-009  0.9118800E+02  0.7816531E-02  0.1126479E+00
         25   -1    0    0    0    0  0.00000000000E+00  0.00000000000E+00  0.99999998245E-14  0.12500000000E+03  0.12500000000E+03 0.  0.
    3000001    1    3    3    0    0  0.34537332937E+02 -0.18324916673E+02  0.31497365400E+02  0.50216670187E+02  0.10000000000E+01 0. -1.
    1000022    2    1    0    0    0  0.44044641397E+02 -0.25229883768E+02  0.35068111048E+02  0.62500000738E+02  0.10000010453E+02 0.  0.
    3000022    2    3    3    0    0  0.95073084593E+01 -0.69049670949E+01  0.35707456479E+01  0.12283330551E+02  0.25000044457E+00 0.  0.
    1000022    2    1    0    0    0 -0.44044641397E+02  0.25229883768E+02 -0.35068111048E+02  0.62499999262E+02  0.10000001231E+02 0.  0.
    3000022    2    5    5    0    0 -0.41473577370E+00 -0.74927952886E+00 -0.10174026565E+01  0.13531568891E+01  0.24999965343E+00 0.  0.
        -13    1    4    4    0    0  0.61367895265E+01 -0.44429511660E+01  0.23608613729E+01  0.79362895725E+01  0.10500000000E+00 0.  1.
         13    1    4    4    0    0  0.33705189328E+01 -0.24620159289E+01  0.12098842750E+01  0.43470409786E+01  0.10500000000E+00 0. -1.
    3000001    1    5    5    0    0 -0.43629905623E+02  0.25979163296E+02 -0.34050708391E+02  0.61146842373E+02  0.10000000000E+01 0. -1.
        -13    1    6    6    0    0 -0.28295662357E+00 -0.37267839319E+00 -0.54380040991E+00  0.72505001303E+00  0.10500000000E+00 0. -1.
         13    1    6    6    0    0 -0.13177915013E+00 -0.37660113567E+00 -0.47360224656E+00  0.62810687605E+00  0.10500000000E+00 0.  1.
</event>
<event>
11    0  0.3482687E-009  0.9118800E+02  0.7816531E-02  0.1126479E+00
         25   -1    0    0    0    0  0.00000000000E+00  0.00000000000E+00  0.99999998245E-14  0.12500000000E+03  0.12500000000E+03 0.  0.
    3000001    1    3    3    0    0  0.13848131115E+02 -0.14397976845E+02 -0.33643990480E+02  0.39140651094E+02  0.10000000000E+01 0. -1.
    1000022    2    1    0    0    0  0.16585909668E+02 -0.18466175120E+02 -0.56481482216E+02  0.62499999981E+02  0.10000007062E+02 0.  0.
    3000022    2    3    3    0    0  0.27377785532E+01 -0.40681982755E+01 -0.22837491735E+02  0.23359348887E+02  0.24996610596E+00 0.  0.
    1000022    2    1    0    0    0 -0.16585909668E+02  0.18466175120E+02  0.56481482216E+02  0.62500000019E+02  0.10000007299E+02 0.  0.
    3000022    2    5    5    0    0 -0.16114556506E+02  0.12255338430E+02  0.39545613200E+02  0.44427359771E+02  0.25004293992E+00 0.  0.
        -13    1    4    4    0    0  0.10886019629E+01 -0.15933107543E+01 -0.92827113725E+01  0.94817429209E+01  0.10500000000E+00 0. -1.
         13    1    4    4    0    0  0.16491765903E+01 -0.24748875212E+01 -0.13554780363E+02  0.13877605966E+02  0.10500000000E+00 0.  1.
    3000001    1    5    5    0    0 -0.47135316209E+00  0.62108366906E+01  0.16935869016E+02  0.18072640248E+02  0.10000000000E+01 0. -1.
        -13    1    6    6    0    0 -0.51645639316E+01  0.38756878308E+01  0.12549944382E+02  0.14114028687E+02  0.10500000000E+00 0.  1.
         13    1    6    6    0    0 -0.10949992574E+02  0.83796505990E+01  0.26995668818E+02  0.30313331085E+02  0.10500000000E+00 0. -1.
</event>
<event>
11    0  0.3482687E-009  0.9118800E+02  0.7816531E-02  0.1126479E+00
         25   -1    0    0    0    0  0.00000000000E+00  0.00000000000E+00  0.99999998245E-14  0.12500000000E+03  0.12500000000E+03 0.  0.
    3000001    1    3    3    0    0  0.99100979005E+01  0.95520402569E+01  0.43880161371E+01  0.14481236104E+02  0.10000000000E+01 0. -1.
    1000022    2    1    0    0    0  0.28604207685E+02  0.51875031179E+02  0.17234563423E+02  0.62499998977E+02  0.10000006935E+02 0.  0.
    3000022    2    3    3    0    0  0.18694109785E+02  0.42322990922E+02  0.12846547286E+02  0.48018762874E+02  0.25001909364E+00 0.  0.
    1000022    2    1    0    0    0 -0.28604207685E+02 -0.51875031179E+02 -0.17234563423E+02  0.62500001023E+02  0.10000019719E+02 0.  0.
    3000022    2    5    5    0    0 -0.17163099141E+01 -0.94701127658E+01 -0.48231677922E+01  0.10768203319E+02  0.24999930326E+00 0.  0.
        -13    1    4    4    0    0  0.99148473485E+01  0.22402838892E+02  0.68697413613E+01  0.25443972955E+02  0.10500000000E+00 0.  1.
         13    1    4    4    0    0  0.87792624360E+01  0.19920152030E+02  0.59768059244E+01  0.22574789919E+02  0.10500000000E+00 0. -1.
    3000001    1    5    5    0    0 -0.26887897771E+02 -0.42404918413E+02 -0.12411395631E+02  0.51731797704E+02  0.10000000000E+01 0.  1.
        -13    1    6    6    0    0 -0.13035428353E+01 -0.71488392425E+01 -0.36163906501E+01  0.81175385908E+01  0.10500000000E+00 0. -1.
         13    1    6    6    0    0 -0.41276707878E+00 -0.23212735233E+01 -0.12067771421E+01  0.26506647283E+01  0.10500000000E+00 0.  1.
</event>
<event>
11    0  0.3482687E-009  0.9118800E+02  0.7816531E-02  0.1126479E+00
         25   -1    0    0    0    0  0.00000000000E+00  0.00000000000E+00  0.99999998245E-14  0.12500000000E+03  0.12500000000E+03 0.  0.
    3000001    1    3    3    0    0 -0.13128520607E+02  0.72036439931E+01 -0.15888930751E+01  0.15092220556E+02  0.10000000000E+01 0. -1.
    1000022    2    1    0    0    0 -0.44845491109E+02  0.42363054480E+02  0.71005013911E+00  0.62500004830E+02  0.99999987441E+01 0.  0.
    3000022    2    3    3    0    0 -0.31716970502E+02  0.35159410487E+02  0.22989432142E+01  0.47407784274E+02  0.25001254475E+00 0.  0.
    1000022    2    1    0    0    0  0.44845491109E+02 -0.42363054480E+02 -0.71005013911E+00  0.62499995170E+02  0.99999383716E+01 0.  0.
    3000022    2    5    5    0    0  0.37868485341E+02 -0.30208891880E+02 -0.83098532335E+00  0.48449482606E+02  0.24999519165E+00 0.  0.
        -13    1    4    4    0    0 -0.20973091746E+02  0.23255369932E+02  0.14659415387E+01  0.31350324044E+02  0.10500000000E+00 0. -1.
         13    1    4    4    0    0 -0.10743878756E+02  0.11904040554E+02  0.83300167551E+00  0.16057460230E+02  0.10500000000E+00 0.  1.
    3000001    1    5    5    0    0  0.69770057680E+01 -0.12154162600E+02  0.12093518424E+00  0.14050512564E+02  0.10000000000E+01 0. -1.
        -13    1    6    6    0    0  0.26414651439E+02 -0.21013499533E+02 -0.58910408611E+00  0.33758836501E+02  0.10500000000E+00 0.  1.
         13    1    6    6    0    0  0.11453833902E+02 -0.91953923469E+01 -0.24188123724E+00  0.14690646106E+02  0.10500000000E+00 0. -1.
</event>
<event>
11    0  0.3482687E-009  0.9118800E+02  0.7816531E-02  0.1126479E+00
         25   -1    0    0    0    0  0.00000000000E+00  0.00000000000E+00  0.99999998245E-14  0.12500000000E+03  0.12500000000E+03 0.  0.
    3000001    1    3    3    0    0 -0.14772108979E+02  0.54167566028E+02  0.74526785093E+01  0.56647001951E+02  0.10000000000E+01 0. -1.
    1000022    2    1    0    0    0 -0.18343326237E+02  0.58590094689E+02  0.60805466488E+01  0.62500000920E+02  0.10000012714E+02 0.  0.
    3000022    2    3    3    0    0 -0.35712172584E+01  0.44225286615E+01 -0.13721318605E+01  0.58529989688E+01  0.24999723671E+00 0.  0.
    1000022    2    1    0    0    0  0.18343326237E+02 -0.58590094689E+02 -0.60805466488E+01  0.62499999080E+02  0.10000001218E+02 0.  0.
    3000022    2    5    5    0    0  0.11090662867E+02 -0.22624482150E+02 -0.55053382933E+01  0.25792271339E+02  0.25003144664E+00 0.  0.
        -13    1    4    4    0    0 -0.15499062432E+01  0.18169341210E+01 -0.58432718653E+00  0.24608783439E+01  0.10500000000E+00 0. -1.
         13    1    4    4    0    0 -0.20213110152E+01  0.26055945405E+01 -0.78780467399E+00  0.33921206249E+01  0.10500000000E+00 0.  1.
    3000001    1    5    5    0    0  0.72526633708E+01 -0.35965612539E+02 -0.57520835553E+00  0.36707727742E+02  0.10000000000E+01 0.  1.
        -13    1    6    6    0    0  0.38564917123E+01 -0.79286118522E+01 -0.19772852786E+01  0.90363762816E+01  0.10500000000E+00 0. -1.
         13    1    6    6    0    0  0.72341711542E+01 -0.14695870298E+02 -0.35280530146E+01  0.16755895057E+02  0.10500000000E+00 0.  1.
</event>
<event>
11    0  0.3482687E-009  0.9118800E+02  0.7816531E-02  0.1126479E+00
         25   -1    0    0    0    0  0.00000000000E+00  0.00000000000E+00  0.99999998245E-14  0.12500000000E+03  0.12500000000E+03 0.  0.
    3000001    1    3    3    0    0  0.36928984361E+02  0.13838494130E+02 -0.22114812026E+01  0.39511320591E+02  0.10000000000E+01 0. -1.
    1000022    2    1    0    0    0  0.59407501503E+02  0.15176711796E+02 -0.68312589947E+01  0.62500000536E+02  0.10000007592E+02 0.  0.
    3000022    2    3    3    0    0  0.22478517142E+02  0.13382176653E+01 -0.46197777920E+01  0.22988679945E+02  0.24999872883E+00 0.  0.
    1000022    2    1    0    0    0 -0.59407501503E+02 -0.15176711796E+02  0.68312589947E+01  0.62499999464E+02  0.10000000890E+02 0.  0.
    3000022    2    5    5    0    0 -0.38189795441E+02 -0.56208732328E+01  0.16405676387E+01  0.38636881941E+02  0.24998443832E+00 0.  0.
        -13    1    4    4    0    0  0.97397437866E+01  0.51431335494E+00 -0.20075637454E+01  0.99583364297E+01  0.10500000000E+00 0.  1.
         13    1    4    4    0    0  0.12738773355E+02  0.82390431033E+00 -0.26122140466E+01  0.13030343515E+02  0.10500000000E+00 0. -1.
    3000001    1    5    5    0    0 -0.21217706062E+02 -0.95558385628E+01  0.51906913560E+01  0.23863117523E+02  0.10000000000E+01 0.  1.
        -13    1    6    6    0    0 -0.19794897930E+02 -0.29758837132E+01  0.87838641582E+00  0.20036877392E+02  0.10500000000E+00 0. -1.
         13    1    6    6    0    0 -0.18394897511E+02 -0.26449895196E+01  0.76218122289E+00  0.18600004548E+02  0.10500000000E+00 0.  1.
</event>
<event>
11    0  0.3482687E-009  0.9118800E+02  0.7816531E-02  0.1126479E+00
         25   -1    0    0    0    0  0.00000000000E+00  0.00000000000E+00  0.99999998245E-14  0.12500000000E+03  0.12500000000E+03 0.  0.
    3000001    1    3    3    0    0  0.14171312972E+02 -0.17767887475E+02  0.45465449262E+02  0.50839266451E+02  0.10000000000E+01 0. -1.
    1000022    2    1    0    0    0  0.12688753974E+02 -0.21782374296E+02  0.56309623279E+02  0.62499999543E+02  0.99999980843E+01 0.  0.
    3000022    2    3    3    0    0 -0.14825589978E+01 -0.40144868205E+01  0.10844174017E+02  0.11660733092E+02  0.25000103867E+00 0.  0.
    1000022    2    1    0    0    0 -0.12688753974E+02  0.21782374296E+02 -0.56309623279E+02  0.62500000457E+02  0.10000003798E+02 0.  0.
    3000022    2    5    5    0    0 -0.89935169357E+01  0.21270492888E+02 -0.45594412921E+02  0.51109981478E+02  0.25000487949E+00 0.  0.
        -13    1    4    4    0    0 -0.10536274266E+01 -0.27136622855E+01  0.73259935207E+01  0.78838632547E+01  0.10500000000E+00 0.  1.
         13    1    4    4    0    0 -0.42893157117E+00 -0.13008245351E+01  0.35181804962E+01  0.37768698372E+01  0.10500000000E+00 0. -1.
    3000001    1    5    5    0    0 -0.36952370384E+01  0.51188140795E+00 -0.10715210358E+02  0.11390018979E+02  0.10000000000E+01 0. -1.
        -13    1    6    6    0    0 -0.68609264663E+01  0.16227564675E+02 -0.34820037011E+02  0.39023738541E+02  0.10500000000E+00 0. -1.
         13    1    6    6    0    0 -0.21325904694E+01  0.50429282128E+01 -0.10774375910E+02  0.12086242937E+02  0.10500000000E+00 0.  1.
</event>
<event>
11    0  0.3482687E-009  0.9118800E+02  0.7816531E-02  0.1126479E+00
         25   -1    0    0    0    0  0.00000000000E+00  0.00000000000E+00  0.99999998245E-14  0.12500000000E+03  0.12500000000E+03 0.  0.
    3000001    1    3    3    0    0  0.37964488339E+02  0.80839072571E+01  0.40372180067E+01  0.39037815776E+02  0.10000000000E+01 0.  1.
    1000022    2    1    0    0    0  0.61078780805E+02  0.86964432100E+01  0.66593527178E-01  0.62499999733E+02  0.99999971392E+01 0.  0.
    3000022    2    3    3    0    0  0.23114292467E+02  0.61253595283E+00 -0.39706244795E+01  0.23462183957E+02  0.25000147582E+00 0.  0.
    1000022    2    1    0    0    0 -0.61078780805E+02 -0.86964432100E+01 -0.66593527178E-01  0.62500000267E+02  0.10000000473E+02 0.  0.
    3000022    2    5    5    0    0 -0.58327880242E+02 -0.62202954557E+01 -0.28569354552E+00  0.58659848391E+02  0.25000671841E+00 0.  0.
        -13    1    4    4    0    0  0.83456883281E+01  0.16639582635E+00 -0.14536308290E+01  0.84736219427E+01  0.10500000000E+00 0.  1.
         13    1    4    4    0    0  0.14768604139E+02  0.44614012648E+00 -0.25169936505E+01  0.14988562014E+02  0.10500000000E+00 0. -1.
    3000001    1    5    5    0    0 -0.27509005631E+01 -0.24761477542E+01  0.21910001835E+00  0.38401518755E+01  0.10000000000E+01 0. -1.
        -13    1    6    6    0    0 -0.32325094783E+02 -0.34975142518E+01 -0.20217443690E+00  0.32514554559E+02  0.10500000000E+00 0. -1.
         13    1    6    6    0    0 -0.26002785459E+02 -0.27227812039E+01 -0.83519108619E-01  0.26145293832E+02  0.10500000000E+00 0.  1.
</event>
<event>
11    0  0.3482687E-009  0.9118800E+02  0.7816531E-02  0.1126479E+00
         25   -1    0    0    0    0  0.00000000000E+00  0.00000000000E+00  0.99999998245E-14  0.12500000000E+03  0.12500000000E+03 0.  0.
    3000001    1    3    3    0    0 -0.81687865433E+01  0.14430789536E+02  0.17882999612E+02  0.24408572988E+02  0.10000000000E+01 0.  1.
    1000022    2    1    0    0    0 -0.15382192445E+02  0.28307952664E+02  0.52614619658E+02  0.62499999996E+02  0.99999884672E+01 0.  0.
    3000022    2    3    3    0    0 -0.72134059015E+01  0.13877163128E+02  0.34731620046E+02  0.38091427008E+02  0.24999855238E+00 0.  0.
    1000022    2    1    0    0    0  0.15382192445E+02 -0.28307952664E+02 -0.52614619658E+02  0.62500000004E+02  0.99999885153E+01 0.  0.
    3000022    2    5    5    0    0  0.11229078583E+02 -0.12970205399E+02 -0.33374275054E+02  0.37526299709E+02  0.25000117779E+00 0.  0.
        -13    1    4    4    0    0 -0.32936293200E+01  0.64727261618E+01  0.16069891860E+02  0.17635096469E+02  0.10500000000E+00 0. -1.
         13    1    4    4    0    0 -0.39197765815E+01  0.74044369666E+01  0.18661728186E+02  0.20456330539E+02  0.10500000000E+00 0.  1.
    3000001    1    5    5    0    0  0.41531138613E+01 -0.15337747265E+02 -0.19240344604E+02  0.24973700295E+02  0.10000000000E+01 0. -1.
        -13    1    6    6    0    0  0.34565561753E+01 -0.39878472330E+01 -0.10163441816E+02  0.11452391920E+02  0.10500000000E+00 0.  1.
         13    1    6    6    0    0  0.77725224082E+01 -0.89823581657E+01 -0.23210833238E+02  0.26073907789E+02  0.10500000000E+00 0. -1.
</event>
<event>
11    0  0.3482687E-009  0.9118800E+02  0.7816531E-02  0.1126479E+00
         25   -1    0    0    0    0  0.00000000000E+00  0.00000000000E+00  0.99999998245E-14  0.12500000000E+03  0.12500000000E+03 0.  0.
    3000001    1    3    3    0    0 -0.22550054915E+02 -0.20044393752E+02 -0.33010516261E+01  0.30367410811E+02  0.10000000000E+01 0. -1.
    1000022    2    1    0    0    0 -0.49451392659E+02 -0.36842501251E+02  0.18547500812E+01  0.62499998358E+02  0.99999781228E+01 0.  0.
    3000022    2    3    3    0    0 -0.26901337745E+02 -0.16798107499E+02  0.51558017073E+01  0.32132587546E+02  0.25000635378E+00 0.  0.
    1000022    2    1    0    0    0  0.49451392659E+02  0.36842501251E+02 -0.18547500812E+01  0.62500001642E+02  0.99999986528E+01 0.  0.
    3000022    2    5    5    0    0  0.44848408342E+02  0.35050795163E+02  0.53266669186E+00  0.56923494297E+02  0.24999352469E+00 0.  0.
        -13    1    4    4    0    0 -0.13105815100E+02 -0.81773910733E+01  0.24428411466E+01  0.15640032355E+02  0.10500000000E+00 0. -1.
         13    1    4    4    0    0 -0.13795522645E+02 -0.86207164256E+01  0.27129605606E+01  0.16492555192E+02  0.10500000000E+00 0.  1.
    3000001    1    5    5    0    0  0.46029843168E+01  0.17917060886E+01 -0.23874167730E+01  0.55765073457E+01  0.10000000000E+01 0. -1.
        -13    1    6    6    0    0  0.25346007164E+02  0.19775058850E+02  0.36105800081E+00  0.32149874332E+02  0.10500000000E+00 0. -1.
         13    1    6    6    0    0  0.19502401178E+02  0.15275736313E+02  0.17160869105E+00  0.24773619964E+02  0.10500000000E+00 0.  1.
</event>
<event>
11    0  0.3482687E-009  0.9118800E+02  0.7816531E-02  0.1126479E+00
         25   -1    0    0    0    0  0.00000000000E+00  0.00000000000E+00  0.99999998245E-14  0.12500000000E+03  0.12500000000E+03 0.  0.
    3000001    1    3    3    0    0  0.16033333520E+02  0.17575678884E+01  0.42481274279E+01  0.16709381057E+02  0.10000000000E+01 0. -1.
    1000022    2    1    0    0    0  0.60965622449E+02 -0.67321534114E+01  0.66423523282E+01  0.62499999642E+02  0.10000005031E+02 0.  0.
    3000022    2    3    3    0    0  0.44932288929E+02 -0.84897212999E+01  0.23942249003E+01  0.45790618585E+02  0.24996279425E+00 0.  0.
    1000022    2    1    0    0    0 -0.60965622449E+02  0.67321534114E+01 -0.66423523282E+01  0.62500000358E+02  0.10000009504E+02 0.  0.
    3000022    2    5    5    0    0 -0.27679790270E+02  0.79330680942E+01 -0.40194272310E+01  0.29074432958E+02  0.24999554728E+00 0.  0.
        -13    1    4    4    0    0  0.24956007726E+02 -0.46974040921E+01  0.13936833519E+01  0.25432681831E+02  0.10500000000E+00 0.  1.
         13    1    4    4    0    0  0.19976281203E+02 -0.37923172077E+01  0.10005415484E+01  0.20357936755E+02  0.10500000000E+00 0. -1.
    3000001    1    5    5    0    0 -0.33285832179E+02 -0.12009146828E+01 -0.26229250972E+01  0.33425567400E+02  0.10000000000E+01 0.  1.
        -13    1    6    6    0    0 -0.20746006309E+02  0.59561058995E+01 -0.29879697070E+01  0.21790157485E+02  0.10500000000E+00 0. -1.
         13    1    6    6    0    0 -0.69337839609E+01  0.19769621948E+01 -0.10314575240E+01  0.72842754725E+01  0.10500000000E+00 0.  1.
</event>
<event>
11    0  0.3482687E-009  0.9118800E+02  0.7816531E-02  0.1126479E+00
         25   -1    0    0    0    0  0.00000000000E+00  0.00000000000E+00  0.99999998245E-14  0.12500000000E+03  0.12500000000E+03 0.  0.
    3000001    1    3    3    0    0  0.82082663226E-01  0.11951057880E+01 -0.82864328831E+00  0.17668234511E+01  0.10000000000E+01 0. -1.
    1000022    2    1    0    0    0  0.42849989925E+02  0.44166138493E+02 -0.44137062400E+01  0.62499999958E+02  0.99999883037E+01 0.  0.
    3000022    2    3    3    0    0  0.42767907262E+02  0.42971032705E+02 -0.35850629516E+01  0.60733176507E+02  0.25001803145E+00 0.  0.
    1000022    2    1    0    0    0 -0.42849989925E+02 -0.44166138493E+02  0.44137062400E+01  0.62500000042E+02  0.99999888260E+01 0.  0.
    3000022    2    5    5    0    0 -0.28463588681E+02 -0.23149294292E+02  0.36319363928E+00  0.36691417492E+02  0.25000223630E+00 0.  0.
        -13    1    4    4    0    0  0.21919131087E+02  0.22101590397E+02 -0.18799341110E+01  0.31184511908E+02  0.10500000000E+00 0.  1.
         13    1    4    4    0    0  0.20848776175E+02  0.20869442307E+02 -0.17051288407E+01  0.29548664599E+02  0.10500000000E+00 0. -1.
    3000001    1    5    5    0    0 -0.14386401244E+02 -0.21016844201E+02  0.40505126007E+01  0.25808582550E+02  0.10000000000E+01 0.  1.
        -13    1    6    6    0    0 -0.85325789786E+01 -0.68850024457E+01  0.12537024144E+00  0.10965167824E+02  0.10500000000E+00 0.  1.
         13    1    6    6    0    0 -0.19931009702E+02 -0.16264291846E+02  0.23782339784E+00  0.25726249668E+02  0.10500000000E+00 0. -1.
</event>
<event>
11    0  0.3482687E-009  0.9118800E+02  0.7816531E-02  0.1126479E+00
         25   -1    0    0    0    0  0.00000000000E+00  0.00000000000E+00  0.99999998245E-14  0.12500000000E+03  0.12500000000E+03 0.  0.
    3000001    1    3    3    0    0  0.46146930251E+00  0.12181447191E+00 -0.13192549701E+00  0.11158839633E+01  0.10000000000E+01 0.  1.
    1000022    2    1    0    0    0  0.31180821930E+02  0.52074810591E+02  0.11055331697E+02  0.62499999615E+02  0.10000001930E+02 0.  0.
    3000022    2    3    3    0    0  0.30719352628E+02  0.51952996119E+02  0.11187257194E+02  0.61384115652E+02  0.24999839715E+00 0.  0.
    1000022    2    1    0    0    0 -0.31180821930E+02 -0.52074810591E+02 -0.11055331697E+02  0.62500000385E+02  0.10000006742E+02 0.  0.
    3000022    2    5    5    0    0 -0.50975223428E+01 -0.29785672202E+01 -0.93552195958E+00  0.59828332619E+01  0.24999156265E+00 0.  0.
        -13    1    4    4    0    0  0.23200347924E+02  0.39221160183E+02  0.84685847572E+01  0.46349579315E+02  0.10500000000E+00 0. -1.
         13    1    4    4    0    0  0.75190047033E+01  0.12731835936E+02  0.27186724369E+01  0.15034536336E+02  0.10500000000E+00 0.  1.
    3000001    1    5    5    0    0 -0.26083299587E+02 -0.49096243371E+02 -0.10119809737E+02  0.56517167123E+02  0.10000000000E+01 0.  1.
        -13    1    6    6    0    0 -0.16743547245E+01 -0.91964782512E+00 -0.31223561357E+00  0.19384870245E+01  0.10500000000E+00 0.  1.
         13    1    6    6    0    0 -0.34231676183E+01 -0.20589193951E+01 -0.62328634601E+00  0.40443462374E+01  0.10500000000E+00 0. -1.
</event>
<event>
11    0  0.3482687E-009  0.9118800E+02  0.7816531E-02  0.1126479E+00
         25   -1    0    0    0    0  0.00000000000E+00  0.00000000000E+00  0.99999998245E-14  0.12500000000E+03  0.12500000000E+03 0.  0.
    3000001    1    3    3    0    0 -0.45401110448E+01 -0.61673424748E+01 -0.62925621335E+01  0.99621814731E+01  0.10000000000E+01 0.  1.
    1000022    2    1    0    0    0 -0.39998350954E+02 -0.19931471264E+02 -0.42533728443E+02  0.62500002666E+02  0.10000032604E+02 0.  0.
    3000022    2    3    3    0    0 -0.35458239910E+02 -0.13764128789E+02 -0.36241166310E+02  0.52537821192E+02  0.25000266202E+00 0.  0.
    1000022    2    1    0    0    0  0.39998350954E+02  0.19931471264E+02  0.42533728443E+02  0.62499997334E+02  0.99999992843E+01 0.  0.
    3000022    2    5    5    0    0  0.38352821877E+02  0.16307331088E+02  0.39152392807E+02  0.57182517795E+02  0.24997159304E+00 0.  0.
        -13    1    4    4    0    0 -0.23356107254E+02 -0.91248791473E+01 -0.23883318223E+02  0.34629396181E+02  0.10500000000E+00 0.  1.
         13    1    4    4    0    0 -0.12102132655E+02 -0.46392496420E+01 -0.12357848087E+02  0.17908425011E+02  0.10500000000E+00 0. -1.
    3000001    1    5    5    0    0  0.16455290779E+01  0.36241401763E+01  0.33813356368E+01  0.53174795394E+01  0.10000000000E+01 0. -1.
        -13    1    6    6    0    0  0.20107799864E+02  0.86059234295E+01  0.20488158286E+02  0.29969337470E+02  0.10500000000E+00 0. -1.
         13    1    6    6    0    0  0.18245022012E+02  0.77014076583E+01  0.18664234521E+02  0.27213180325E+02  0.10500000000E+00 0.  1.
</event>
<event>
11    0  0.3482687E-009  0.9118800E+02  0.7816531E-02  0.1126479E+00
         25   -1    0    0    0    0  0.00000000000E+00  0.00000000000E+00  0.99999998245E-14  0.12500000000E+03  0.12500000000E+03 0.  0.
    3000001    1    3    3    0    0  0.80292050257E+01 -0.14933990832E+02 -0.93220118881E+01  0.19375038611E+02  0.10000000000E+01 0. -1.
    1000022    2    1    0    0    0  0.37872481720E+02 -0.40018026590E+02 -0.27757570276E+02  0.62500000329E+02  0.10000000488E+02 0.  0.
    3000022    2    3    3    0    0  0.29843276694E+02 -0.25084035758E+02 -0.18435558388E+02  0.43124961719E+02  0.24999284707E+00 0.  0.
    1000022    2    1    0    0    0 -0.37872481720E+02  0.40018026590E+02  0.27757570276E+02  0.62499999671E+02  0.99999963703E+01 0.  0.
    3000022    2    5    5    0    0 -0.16428439049E+02  0.23506638185E+02  0.17135547433E+02  0.33408759023E+02  0.25009055932E+00 0.  0.
        -13    1    4    4    0    0  0.15963953385E+02 -0.13482647185E+02 -0.98308559998E+01  0.23092993255E+02  0.10500000000E+00 0. -1.
         13    1    4    4    0    0  0.13879323309E+02 -0.11601388573E+02 -0.86047023879E+01  0.20031968463E+02  0.10500000000E+00 0.  1.
    3000001    1    5    5    0    0 -0.21444042670E+02  0.16511388405E+02  0.10622022843E+02  0.29091240647E+02  0.10000000000E+01 0. -1.
        -13    1    6    6    0    0 -0.12422930312E+02  0.17813152894E+02  0.12973719576E+02  0.25297550043E+02  0.10500000000E+00 0.  1.
         13    1    6    6    0    0 -0.40055087374E+01  0.56934852912E+01  0.41618278573E+01  0.81112089802E+01  0.10500000000E+00 0. -1.
</event>
<event>
11    0  0.3482687E-009  0.9118800E+02  0.7816531E-02  0.1126479E+00
         25   -1    0    0    0    0  0.00000000000E+00  0.00000000000E+00  0.99999998245E-14  0.12500000000E+03  0.12500000000E+03 0.  0.
    3000001    1    3    3    0    0  0.74051860808E+01 -0.32066574427E+02 -0.40983594844E+02  0.52571446839E+02  0.10000000000E+01 0.  1.
    1000022    2    1    0    0    0  0.12826895006E+02 -0.36947237411E+02 -0.47713964075E+02  0.62499999797E+02  0.10000000953E+02 0.  0.
    3000022    2    3    3    0    0  0.54217089255E+01 -0.48806629838E+01 -0.67303692303E+01  0.99285529577E+01  0.24999004472E+00 0.  0.
    1000022    2    1    0    0    0 -0.12826895006E+02  0.36947237411E+02  0.47713964075E+02  0.62500000203E+02  0.10000003496E+02 0.  0.
    3000022    2    5    5    0    0 -0.32865337851E+01  0.64979691535E+01  0.15600464470E+02  0.17218069078E+02  0.25000727313E+00 0.  0.
        -13    1    4    4    0    0  0.27381955997E+01 -0.25261923496E+01 -0.35051242187E+01  0.51162763528E+01  0.10500000000E+00 0. -1.
         13    1    4    4    0    0  0.26835133258E+01 -0.23544706342E+01 -0.32252450116E+01  0.48122766049E+01  0.10500000000E+00 0.  1.
    3000001    1    5    5    0    0 -0.95403612212E+01  0.30449268257E+02  0.32113499604E+02  0.45281931126E+02  0.10000000000E+01 0.  1.
        -13    1    6    6    0    0 -0.18581831541E+01  0.38158208678E+01  0.91100284749E+01  0.10050720240E+02  0.10500000000E+00 0.  1.
         13    1    6    6    0    0 -0.14283506310E+01  0.26821482857E+01  0.64904359954E+01  0.71673488377E+01  0.10500000000E+00 0. -1.
</event>
<event>
11    0  0.3482687E-009  0.9118800E+02  0.7816531E-02  0.1126479E+00
         25   -1    0    0    0    0  0.00000000000E+00  0.00000000000E+00  0.99999998245E-14  0.12500000000E+03  0.12500000000E+03 0.  0.
    3000001    1    3    3    0    0  0.34443497902E+02  0.43462411951E+02 -0.12430672672E+02  0.56840631800E+02  0.10000000000E+01 0. -1.
    1000022    2    1    0    0    0  0.37659355316E+02  0.46077260876E+02 -0.16276031409E+02  0.62499999079E+02  0.99999836869E+01 0.  0.
    3000022    2    3    3    0    0  0.32158574141E+01  0.26148489248E+01 -0.38453587371E+01  0.56593672786E+01  0.24996073710E+00 0.  0.
    1000022    2    1    0    0    0 -0.37659355316E+02 -0.46077260876E+02  0.16276031409E+02  0.62500000921E+02  0.99999952027E+01 0.  0.
    3000022    2    5    5    0    0 -0.24538194476E+02 -0.28723173002E+02  0.15115181580E+02  0.40689984872E+02  0.24999851041E+00 0.  0.
        -13    1    4    4    0    0  0.10688806541E+01  0.89300946632E+00 -0.13635758681E+01  0.19520081730E+01  0.10500000000E+00 0. -1.
         13    1    4    4    0    0  0.21469767600E+01  0.17218394585E+01 -0.24817828690E+01  0.37073591056E+01  0.10500000000E+00 0.  1.
    3000001    1    5    5    0    0 -0.13121160840E+02 -0.17354087875E+02  0.11608498292E+01  0.21810016050E+02  0.10000000000E+01 0. -1.
        -13    1    6    6    0    0 -0.17417140242E+02 -0.20327520204E+02  0.10730624278E+02  0.28839593864E+02  0.10500000000E+00 0. -1.
         13    1    6    6    0    0 -0.71210542335E+01 -0.83956527976E+01  0.43845573020E+01  0.11850391007E+02  0.10500000000E+00 0.  1.
</event>
<event>
11    0  0.3482687E-009  0.9118800E+02  0.7816531E-02  0.1126479E+00
         25   -1    0    0    0    0  0.00000000000E+00  0.00000000000E+00  0.99999998245E-14  0.12500000000E+03  0.12500000000E+03 0.  0.
    3000001    1    3    3    0    0  0.32557654439E+02 -0.31456266355E+02 -0.10479168806E+02  0.46479140853E+02  0.10000000000E+01 0. -1.
    1000022    2    1    0    0    0  0.45155121198E+02 -0.38063390908E+02 -0.17844977965E+02  0.62499999384E+02  0.99999993270E+01 0.  0.
    3000022    2    3    3    0    0  0.12597466759E+02 -0.66071245536E+01 -0.73658091594E+01  0.16020858531E+02  0.24999977017E+00 0.  0.
    1000022    2    1    0    0    0 -0.45155121198E+02  0.38063390908E+02  0.17844977965E+02  0.62500000616E+02  0.10000007032E+02 0.  0.
    3000022    2    5    5    0    0 -0.35622892979E+02  0.26139082867E+02  0.16411178323E+02  0.47134185360E+02  0.24999659863E+00 0.  0.
        -13    1    4    4    0    0  0.51914491749E+01 -0.26562528740E+01 -0.30476721039E+01  0.65807411527E+01  0.10500000000E+00 0. -1.
         13    1    4    4    0    0  0.74060175840E+01 -0.39508716796E+01 -0.43181370555E+01  0.94401173782E+01  0.10500000000E+00 0.  1.
    3000001    1    5    5    0    0 -0.95322282190E+01  0.11924308041E+02  0.14337996425E+01  0.15365815256E+02  0.10000000000E+01 0.  1.
        -13    1    6    6    0    0 -0.18058304276E+02  0.13334219959E+02  0.83294750587E+01  0.23943578576E+02  0.10500000000E+00 0.  1.
         13    1    6    6    0    0 -0.17564588703E+02  0.12804862908E+02  0.80817032638E+01  0.23190606784E+02  0.10500000000E+00 0. -1.
</event>
<event>
11    0  0.3482687E-009  0.9118800E+02  0.7816531E-02  0.1126479E+00
         25   -1    0    0    0    0  0.00000000000E+00  0.00000000000E+00  0.99999998245E-14  0.12500000000E+03  0.12500000000E+03 0.  0.
    3000001    1    3    3    0    0 -0.12527545851E+02  0.17595714506E+01 -0.29798947328E+02  0.32388466444E+02  0.10000000000E+01 0. -1.
    1000022    2    1    0    0    0 -0.32065974355E+02  0.51972121022E+01 -0.52450087989E+02  0.62499996415E+02  0.10000004841E+02 0.  0.
    3000022    2    3    3    0    0 -0.19538428504E+02  0.34376406515E+01 -0.22651140662E+02  0.30111529972E+02  0.25000457571E+00 0.  0.
    1000022    2    1    0    0    0  0.32065974355E+02 -0.51972121022E+01  0.52450087989E+02  0.62500003585E+02  0.10000049652E+02 0.  0.
    3000022    2    5    5    0    0  0.13200957384E+02  0.27367776704E+01  0.21727006410E+02  0.25571088074E+02  0.25001982222E+00 0.  0.
        -13    1    4    4    0    0 -0.59351744238E+01  0.10136684166E+01 -0.69296874225E+01  0.91807086803E+01  0.10500000000E+00 0.  1.
         13    1    4    4    0    0 -0.13603254080E+02  0.24239722350E+01 -0.15721453239E+02  0.20930821291E+02  0.10500000000E+00 0. -1.
    3000001    1    5    5    0    0  0.18865016971E+02 -0.79339897725E+01  0.30723081580E+02  0.36928915510E+02  0.10000000000E+01 0.  1.
        -13    1    6    6    0    0  0.98707943358E+01  0.20220563044E+01  0.16263781515E+02  0.19132247821E+02  0.10500000000E+00 0.  1.
         13    1    6    6    0    0  0.33301630484E+01  0.71472136595E+00  0.54632248944E+01  0.64388402532E+01  0.10500000000E+00 0. -1.
</event>
<event>
11    0  0.3482687E-009  0.9118800E+02  0.7816531E-02  0.1126479E+00
         25   -1    0    0    0    0  0.00000000000E+00  0.00000000000E+00  0.99999998245E-14  0.12500000000E+03  0.12500000000E+03 0.  0.
    3000001    1    3    3    0    0  0.22366056092E+02 -0.17623479078E+02 -0.22314210208E+02  0.36190488490E+02  0.10000000000E+01 0. -1.
    1000022    2    1    0    0    0  0.42077573323E+02 -0.32640596650E+02 -0.31149951056E+02  0.62500002928E+02  0.10000009439E+02 0.  0.
    3000022    2    3    3    0    0  0.19711517231E+02 -0.15017117572E+02 -0.88357408481E+01  0.26309514438E+02  0.25000383692E+00 0.  0.
    1000022    2    1    0    0    0 -0.42077573323E+02  0.32640596650E+02  0.31149951056E+02  0.62499997072E+02  0.99999728345E+01 0.  0.
    3000022    2    5    5    0    0 -0.55833245416E+01  0.87641013790E+01  0.79914726750E+01  0.13111411938E+02  0.25000314515E+00 0.  0.
        -13    1    4    4    0    0  0.64350398953E+01 -0.49664038331E+01 -0.29122605828E+01  0.86352297126E+01  0.10500000000E+00 0.  1.
         13    1    4    4    0    0  0.13276477336E+02 -0.10050713739E+02 -0.59234802653E+01  0.17674284726E+02  0.10500000000E+00 0. -1.
    3000001    1    5    5    0    0 -0.36494248782E+02  0.23876495271E+02  0.23158478381E+02  0.49388585134E+02  0.10000000000E+01 0. -1.
        -13    1    6    6    0    0 -0.26598456177E+01  0.40608933830E+01  0.36982327367E+01  0.61035714260E+01  0.10500000000E+00 0.  1.
         13    1    6    6    0    0 -0.29234789239E+01  0.47032079960E+01  0.42932399383E+01  0.70078405119E+01  0.10500000000E+00 0. -1.
</event>
<event>
11    0  0.3482687E-009  0.9118800E+02  0.7816531E-02  0.1126479E+00
         25   -1    0    0    0    0  0.00000000000E+00  0.00000000000E+00  0.99999998245E-14  0.12500000000E+03  0.12500000000E+03 0.  0.
    3000001    1    3    3    0    0 -0.16464539559E+02 -0.14642370203E+02  0.94052747022E+01  0.23977891073E+02  0.10000000000E+01 0.  1.
    1000022    2    1    0    0    0 -0.37716768151E+02 -0.33958935458E+02  0.35078281108E+02  0.62499997331E+02  0.99999981865E+01 0.  0.
    3000022    2    3    3    0    0 -0.21252228591E+02 -0.19316565255E+02  0.25673006406E+02  0.38522106259E+02  0.24999867373E+00 0.  0.
    1000022    2    1    0    0    0  0.37716768151E+02  0.33958935458E+02 -0.35078281108E+02  0.62500002669E+02  0.10000031545E+02 0.  0.
    3000022    2    5    5    0    0  0.15942094644E+01  0.47277026914E+01 -0.16974955096E+01  0.52760473502E+01  0.25001616388E+00 0.  0.
        -13    1    4    4    0    0 -0.57765426090E+01 -0.52027659253E+01  0.69612169570E+01  0.10435841332E+02  0.10500000000E+00 0. -1.
         13    1    4    4    0    0 -0.15475685982E+02 -0.14113799330E+02  0.18711789449E+02  0.28086264927E+02  0.10500000000E+00 0.  1.
    3000001    1    5    5    0    0  0.36122558686E+02  0.29231232767E+02 -0.33380785599E+02  0.57223955318E+02  0.10000000000E+01 0.  1.
        -13    1    6    6    0    0  0.71810895324E+00  0.19771745360E+01 -0.67045153449E+00  0.22103008561E+01  0.10500000000E+00 0.  1.
         13    1    6    6    0    0  0.87610051116E+00  0.27505281554E+01 -0.10270439751E+01  0.30657464941E+01  0.10500000000E+00 0. -1.
</event>
<event>
11    0  0.3482687E-009  0.9118800E+02  0.7816531E-02  0.1126479E+00
         25   -1    0    0    0    0  0.00000000000E+00  0.00000000000E+00  0.99999998245E-14  0.12500000000E+03  0.12500000000E+03 0.  0.
    3000001    1    3    3    0    0  0.79997743708E+01  0.16924415615E+01 -0.14235987200E+02  0.16447616240E+02  0.10000000000E+01 0. -1.
    1000022    2    1    0    0    0  0.18620462287E+02 -0.40274078862E+01 -0.58679706183E+02  0.62500003229E+02  0.10000042791E+02 0.  0.
    3000022    2    3    3    0    0  0.10620687916E+02 -0.57198494477E+01 -0.44443718982E+02  0.46052386988E+02  0.25000162304E+00 0.  0.
    1000022    2    1    0    0    0 -0.18620462287E+02  0.40274078862E+01  0.58679706183E+02  0.62499996771E+02  0.10000002434E+02 0.  0.
    3000022    2    5    5    0    0 -0.11602134267E+02  0.67300953567E+01  0.30561525885E+02  0.33376234806E+02  0.24996469399E+00 0.  0.
        -13    1    4    4    0    0  0.59390436445E+01 -0.31641784838E+01 -0.24566578827E+02  0.25471789987E+02  0.10500000000E+00 0.  1.
         13    1    4    4    0    0  0.46816442719E+01 -0.25556709639E+01 -0.19877140156E+02  0.20580597002E+02  0.10500000000E+00 0. -1.
    3000001    1    5    5    0    0 -0.70183280199E+01 -0.27026874706E+01  0.28118180298E+02  0.29123761966E+02  0.10000000000E+01 0.  1.
        -13    1    6    6    0    0 -0.64039304292E+01  0.36518831792E+01  0.16892233930E+02  0.18431092421E+02  0.10500000000E+00 0. -1.
         13    1    6    6    0    0 -0.51982038381E+01  0.30782121775E+01  0.13669291955E+02  0.14945142385E+02  0.10500000000E+00 0.  1.
</event>
<event>
11    0  0.3482687E-009  0.9118800E+02  0.7816531E-02  0.1126479E+00
         25   -1    0    0    0    0  0.00000000000E+00  0.00000000000E+00  0.99999998245E-14  0.12500000000E+03  0.12500000000E+03 0.  0.
    3000001    1    3    3    0    0  0.17051509814E+02 -0.34424087286E+01  0.89117168842E+01  0.19570969894E+02  0.10000000000E+01 0. -1.
    1000022    2    1    0    0    0  0.51129682268E+02 -0.24544517936E+02  0.24281114386E+02  0.62500001184E+02  0.99999931294E+01 0.  0.
    3000022    2    3    3    0    0  0.34078172455E+02 -0.21102109207E+02  0.15369397502E+02  0.42929031290E+02  0.24999408131E+00 0.  0.
    1000022    2    1    0    0    0 -0.51129682268E+02  0.24544517936E+02 -0.24281114386E+02  0.62499998816E+02  0.99999783283E+01 0.  0.
    3000022    2    5    5    0    0 -0.92076085967E+01  0.38099043473E+01 -0.85896469111E+01  0.13158265839E+02  0.24999726815E+00 0.  0.
        -13    1    4    4    0    0  0.14383202785E+02 -0.88306243591E+01  0.64638446933E+01  0.18073426962E+02  0.10500000000E+00 0.  1.
         13    1    4    4    0    0  0.19694969670E+02 -0.12271484848E+02  0.89055528087E+01  0.24855604328E+02  0.10500000000E+00 0. -1.
    3000001    1    5    5    0    0 -0.41922073672E+02  0.20734613589E+02 -0.15691467475E+02  0.49341732977E+02  0.10000000000E+01 0.  1.
        -13    1    6    6    0    0 -0.34539377193E+01  0.14917016609E+01 -0.32671375546E+01  0.49839815825E+01  0.10500000000E+00 0. -1.
         13    1    6    6    0    0 -0.57536708774E+01  0.23182026864E+01 -0.53225093565E+01  0.81742842568E+01  0.10500000000E+00 0.  1.
</event>
<event>
11    0  0.3482687E-009  0.9118800E+02  0.7816531E-02  0.1126479E+00
         25   -1    0    0    0    0  0.00000000000E+00  0.00000000000E+00  0.99999998245E-14  0.12500000000E+03  0.12500000000E+03 0.  0.
    3000001    1    3    3    0    0  0.31561690795E+02 -0.11905273331E+02 -0.77658977172E+01  0.34629251021E+02  0.10000000000E+01 0. -1.
    1000022    2    1    0    0    0  0.55762956566E+02 -0.16061255636E+02 -0.20947046855E+02  0.62499999758E+02  0.99999970110E+01 0.  0.
    3000022    2    3    3    0    0  0.24201265771E+02 -0.41559823045E+01 -0.13181149137E+02  0.27870748736E+02  0.24997745173E+00 0.  0.
    1000022    2    1    0    0    0 -0.55762956566E+02  0.16061255636E+02  0.20947046855E+02  0.62500000242E+02  0.10000000041E+02 0.  0.
    3000022    2    5    5    0    0 -0.54532409313E+01  0.41357059710E+01  0.42023434168E+00  0.68615580108E+01  0.24996179660E+00 0.  0.
        -13    1    4    4    0    0  0.92753723519E+01 -0.15642617950E+01 -0.49877206796E+01  0.10647433015E+02  0.10500000000E+00 0.  1.
         13    1    4    4    0    0  0.14925893419E+02 -0.25917205096E+01 -0.81934284578E+01  0.17223315722E+02  0.10500000000E+00 0. -1.
    3000001    1    5    5    0    0 -0.50309715634E+02  0.11925549665E+02  0.20526812513E+02  0.55638442232E+02  0.10000000000E+01 0. -1.
        -13    1    6    6    0    0 -0.22213740093E+01  0.16817856044E+01  0.10735712835E+00  0.27902429753E+01  0.10500000000E+00 0. -1.
         13    1    6    6    0    0 -0.32318669220E+01  0.24539203666E+01  0.31287721333E+00  0.40713150355E+01  0.10500000000E+00 0. -1.
</event>
<event>
11    0  0.3482687E-009  0.9118800E+02  0.7816531E-02  0.1126479E+00
         25   -1    0    0    0    0  0.00000000000E+00  0.00000000000E+00  0.99999998245E-14  0.12500000000E+03  0.12500000000E+03 0.  0.
    3000001    1    3    3    0    0  0.10149594074E+02 -0.84563161772E+01  0.10802276437E+02  0.17094230587E+02  0.10000000000E+01 0.  1.
    1000022    2    1    0    0    0  0.30704114651E+02 -0.43224928161E+02  0.31545399281E+02  0.62500004906E+02  0.10000066324E+02 0.  0.
    3000022    2    3    3    0    0  0.20554520577E+02 -0.34768611984E+02  0.20743122844E+02  0.45405774319E+02  0.25000151325E+00 0.  0.
    1000022    2    1    0    0    0 -0.30704114651E+02  0.43224928161E+02 -0.31545399281E+02  0.62499995094E+02  0.10000004997E+02 0.  0.
    3000022    2    5    5    0    0 -0.74017284635E+01  0.12042527773E+02 -0.13623812784E+02  0.19633614811E+02  0.24999273845E+00 0.  0.
        -13    1    4    4    0    0  0.11215758481E+02 -0.18856538091E+02  0.11231379338E+02  0.24647863476E+02  0.10500000000E+00 0.  1.
         13    1    4    4    0    0  0.93387620960E+01 -0.15912073893E+02  0.95117435063E+01  0.20757910843E+02  0.10500000000E+00 0. -1.
    3000001    1    5    5    0    0 -0.23302386187E+02  0.31182400388E+02 -0.17921586497E+02  0.42866380283E+02  0.10000000000E+01 0.  1.
        -13    1    6    6    0    0 -0.50974478373E+01  0.81979876124E+01 -0.92994498828E+01  0.13404542830E+02  0.10500000000E+00 0. -1.
         13    1    6    6    0    0 -0.23042806261E+01  0.38445401606E+01 -0.43243629014E+01  0.62290719817E+01  0.10500000000E+00 0.  1.
</event>
<event>
11    0  0.3482687E-009  0.9118800E+02  0.7816531E-02  0.1126479E+00
         25   -1    0    0    0    0  0.00000000000E+00  0.00000000000E+00  0.99999998245E-14  0.12500000000E+03  0.12500000000E+03 0.  0.
    3000001    1    3    3    0    0 -0.52503735733E+01  0.19292583520E+01 -0.60903107336E+01  0.83294864955E+01  0.10000000000E+01 0.  1.
    1000022    2    1    0    0    0 -0.39143270567E+02 -0.10022087116E+02 -0.46622010144E+02  0.62499997657E+02  0.10000000822E+02 0.  0.
    3000022    2    3    3    0    0 -0.33892896994E+02 -0.11951345468E+02 -0.40531699411E+02  0.54170511162E+02  0.24999458753E+00 0.  0.
    1000022    2    1    0    0    0  0.39143270567E+02  0.10022087116E+02  0.46622010144E+02  0.62500002343E+02  0.10000030107E+02 0.  0.
    3000022    2    5    5    0    0  0.35561418154E+02  0.65711205400E+01  0.37732723865E+02  0.52264854686E+02  0.24999748932E+00 0.  0.
        -13    1    4    4    0    0 -0.18068737510E+02 -0.63408328023E+01 -0.21504747801E+02  0.28794975930E+02  0.10500000000E+00 0.  1.
         13    1    4    4    0    0 -0.15824159483E+02 -0.56105126653E+01 -0.19026951610E+02  0.25375535231E+02  0.10500000000E+00 0. -1.
    3000001    1    5    5    0    0  0.35818524128E+01  0.34509665755E+01  0.88892862792E+01  0.10235147657E+02  0.10000000000E+01 0.  1.
        -13    1    6    6    0    0  0.83113423007E+01  0.15228720182E+01  0.88200315779E+01  0.12214807901E+02  0.10500000000E+00 0.  1.
         13    1    6    6    0    0  0.27250075853E+02  0.50482485218E+01  0.28912692287E+02  0.40050046785E+02  0.10500000000E+00 0. -1.
</event>
<event>
11    0  0.3482687E-009  0.9118800E+02  0.7816531E-02  0.1126479E+00
         25   -1    0    0    0    0  0.00000000000E+00  0.00000000000E+00  0.99999998245E-14  0.12500000000E+03  0.12500000000E+03 0.  0.
    3000001    1    3    3    0    0 -0.20164926891E+00  0.64108015898E+01  0.26608696530E+02  0.27389081227E+02  0.10000000000E+01 0.  1.
    1000022    2    1    0    0    0 -0.11035030845E+02  0.17259923632E+02  0.58194270589E+02  0.62499999668E+02  0.99999979792E+01 0.  0.
    3000022    2    3    3    0    0 -0.10833381576E+02  0.10849122042E+02  0.31585574059E+02  0.35110918441E+02  0.24999931172E+00 0.  0.
    1000022    2    1    0    0    0  0.11035030845E+02 -0.17259923632E+02 -0.58194270589E+02  0.62500000332E+02  0.10000002129E+02 0.  0.
    3000022    2    5    5    0    0  0.95020421907E+01 -0.11297426328E+02 -0.27851576850E+02  0.31522904088E+02  0.25000345106E+00 0.  0.
        -13    1    4    4    0    0 -0.46722358259E+01  0.46545831222E+01  0.13731986177E+02  0.15233955528E+02  0.10500000000E+00 0. -1.
         13    1    4    4    0    0 -0.61611457501E+01  0.61945389198E+01  0.17853587883E+02  0.19876962913E+02  0.10500000000E+00 0.  1.
    3000001    1    5    5    0    0  0.15329886542E+01 -0.59624973035E+01 -0.30342693740E+02  0.30977096243E+02  0.10000000000E+01 0. -1.
        -13    1    6    6    0    0  0.51865629823E+01 -0.62693273125E+01 -0.15366978996E+02  0.17388501057E+02  0.10500000000E+00 0.  1.
         13    1    6    6    0    0  0.43154792084E+01 -0.50280990158E+01 -0.12484597853E+02  0.14134403032E+02  0.10500000000E+00 0. -1.
</event>
<event>
11    0  0.3482687E-009  0.9118800E+02  0.7816531E-02  0.1126479E+00
         25   -1    0    0    0    0  0.00000000000E+00  0.00000000000E+00  0.99999998245E-14  0.12500000000E+03  0.12500000000E+03 0.  0.
    3000001    1    3    3    0    0 -0.38733723876E+01  0.19222309130E+01  0.74685590538E+01  0.86877706966E+01  0.10000000000E+01 0.  1.
    1000022    2    1    0    0    0 -0.12235840871E+02  0.31848168266E+02  0.51402612893E+02  0.62500001582E+02  0.99999980883E+01 0.  0.
    3000022    2    3    3    0    0 -0.83624684831E+01  0.29925937353E+02  0.43934053839E+02  0.53812230885E+02  0.25000099767E+00 0.  0.
    1000022    2    1    0    0    0  0.12235840871E+02 -0.31848168266E+02 -0.51402612893E+02  0.62499998418E+02  0.99999783174E+01 0.  0.
    3000022    2    5    5    0    0 -0.10234610568E+01 -0.85230055808E+01 -0.10377979454E+02  0.13470488420E+02  0.25000810716E+00 0.  0.
        -13    1    4    4    0    0 -0.53917250801E+01  0.19355069174E+02  0.28313460512E+02  0.34718186491E+02  0.10500000000E+00 0.  1.
         13    1    4    4    0    0 -0.29707434029E+01  0.10570868179E+02  0.15620593328E+02  0.19094044394E+02  0.10500000000E+00 0. -1.
    3000001    1    5    5    0    0  0.13259301927E+02 -0.23325162685E+02 -0.41024633439E+02  0.49029509998E+02  0.10000000000E+01 0.  1.
        -13    1    6    6    0    0 -0.48593771359E+00 -0.42794168489E+01 -0.51096736134E+01  0.66835120605E+01  0.10500000000E+00 0. -1.
         13    1    6    6    0    0 -0.53752334325E+00 -0.42435887319E+01 -0.52683058411E+01  0.67869763596E+01  0.10500000000E+00 0.  1.
</event>
<event>
11    0  0.3482687E-009  0.9118800E+02  0.7816531E-02  0.1126479E+00
         25   -1    0    0    0    0  0.00000000000E+00  0.00000000000E+00  0.99999998245E-14  0.12500000000E+03  0.12500000000E+03 0.  0.
    3000001    1    3    3    0    0  0.21379262874E+02 -0.19504105155E+02  0.29380663021E+01  0.29105244072E+02  0.10000000000E+01 0.  1.
    1000022    2    1    0    0    0  0.42213791734E+02 -0.41961259446E+02  0.16232646141E+02  0.62499999843E+02  0.99999836382E+01 0.  0.
    3000022    2    3    3    0    0  0.20834528861E+02 -0.22457154291E+02  0.13294579839E+02  0.33394755771E+02  0.24997638814E+00 0.  0.
    1000022    2    1    0    0    0 -0.42213791734E+02  0.41961259446E+02 -0.16232646141E+02  0.62500000157E+02  0.99999855990E+01 0.  0.
    3000022    2    5    5    0    0  0.32554549476E-01  0.15335386514E+01 -0.15672117572E+01  0.22071369917E+01  0.25000082876E+00 0.  0.
        -13    1    4    4    0    0  0.62772421181E+01 -0.67449438906E+01  0.40466045589E+01  0.10063998716E+02  0.10500000000E+00 0. -1.
         13    1    4    4    0    0  0.14557286743E+02 -0.15712210401E+02  0.92479752801E+01  0.23330757055E+02  0.10500000000E+00 0.  1.
    3000001    1    5    5    0    0 -0.42246346284E+02  0.40427720795E+02 -0.14665434384E+02  0.60292863165E+02  0.10000000000E+01 0.  1.
        -13    1    6    6    0    0  0.69348748213E-01  0.99862465384E+00 -0.97333752070E+00  0.14001683389E+01  0.10500000000E+00 0. -1.
         13    1    6    6    0    0 -0.36794198737E-01  0.53491399757E+00 -0.59387423649E+00  0.80696865281E+00  0.10500000000E+00 0.  1.
</event>
<event>
11    0  0.3482687E-009  0.9118800E+02  0.7816531E-02  0.1126479E+00
         25   -1    0    0    0    0  0.00000000000E+00  0.00000000000E+00  0.99999998245E-14  0.12500000000E+03  0.12500000000E+03 0.  0.
    3000001    1    3    3    0    0 -0.18049687882E+02 -0.83076322484E+00  0.47488543795E+01  0.18709169359E+02  0.10000000000E+01 0.  1.
    1000022    2    1    0    0    0 -0.61375077663E+02  0.53564897957E+01  0.32646356076E+01  0.62500000614E+02  0.10000004501E+02 0.  0.
    3000022    2    3    3    0    0 -0.43325389781E+02  0.61872530206E+01 -0.14842187719E+01  0.43790831255E+02  0.24999409494E+00 0.  0.
    1000022    2    1    0    0    0  0.61375077663E+02 -0.53564897957E+01 -0.32646356076E+01  0.62499999386E+02  0.99999968264E+01 0.  0.
    3000022    2    5    5    0    0  0.51754535113E+01 -0.33487861900E+01 -0.42048961784E+00  0.61837690881E+01  0.25000124330E+00 0.  0.
        -13    1    4    4    0    0 -0.13173836725E+02  0.18351214606E+01 -0.44094373463E+00  0.13308760318E+02  0.10500000000E+00 0.  1.
         13    1    4    4    0    0 -0.30151553057E+02  0.43521315599E+01 -0.10432750373E+01  0.30482070938E+02  0.10500000000E+00 0. -1.
    3000001    1    5    5    0    0  0.56199624152E+02 -0.20077036057E+01 -0.28441459898E+01  0.56316230298E+02  0.10000000000E+01 0. -1.
        -13    1    6    6    0    0  0.21798001262E+01 -0.13812988960E+01 -0.23611795734E+00  0.25935095759E+01  0.10500000000E+00 0. -1.
         13    1    6    6    0    0  0.29956533851E+01 -0.19674872940E+01 -0.18437166050E+00  0.35902595122E+01  0.10500000000E+00 0.  1.
</event>
<event>
11    0  0.3482687E-009  0.9118800E+02  0.7816531E-02  0.1126479E+00
         25   -1    0    0    0    0  0.00000000000E+00  0.00000000000E+00  0.99999998245E-14  0.12500000000E+03  0.12500000000E+03 0.  0.
    3000001    1    3    3    0    0 -0.25049762546E+01 -0.22887268057E+02  0.55365040412E+02  0.59969906161E+02  0.10000000000E+01 0.  1.
    1000022    2    1    0    0    0 -0.22673638646E+01 -0.21855539064E+02  0.57649323459E+02  0.62499999942E+02  0.99999985344E+01 0.  0.
    3000022    2    3    3    0    0  0.23761239003E+00  0.10317289929E+01  0.22842830478E+01  0.25300937808E+01  0.25000226907E+00 0.  0.
    1000022    2    1    0    0    0  0.22673638646E+01  0.21855539064E+02 -0.57649323459E+02  0.62500000058E+02  0.99999992637E+01 0.  0.
    3000022    2    5    5    0    0 -0.29922793598E+01  0.12490069615E+02 -0.24878684426E+02  0.27999410969E+02  0.25000216379E+00 0.  0.
        -13    1    4    4    0    0  0.20169094911E+00  0.78584126829E+00  0.17213307674E+01  0.19058411132E+01  0.10500000000E+00 0.  1.
         13    1    4    4    0    0  0.35921440918E-01  0.24588772459E+00  0.56295228039E+00  0.62425266761E+00  0.10500000000E+00 0. -1.
    3000001    1    5    5    0    0  0.52596432244E+01  0.93654694492E+01 -0.32770639034E+02  0.34500589090E+02  0.10000000000E+01 0. -1.
        -13    1    6    6    0    0 -0.18211601724E+01  0.73536378264E+01 -0.14613591893E+02  0.16460884140E+02  0.10500000000E+00 0. -1.
         13    1    6    6    0    0 -0.11711191874E+01  0.51364317889E+01 -0.10265092533E+02  0.11538526829E+02  0.10500000000E+00 0.  1.
</event>
<event>
11    0  0.3482687E-009  0.9118800E+02  0.7816531E-02  0.1126479E+00
         25   -1    0    0    0    0  0.00000000000E+00  0.00000000000E+00  0.99999998245E-14  0.12500000000E+03  0.12500000000E+03 0.  0.
    3000001    1    3    3    0    0 -0.68009225796E+01  0.12074763157E+01  0.70911693373E+01  0.99496346444E+01  0.10000000000E+01 0.  1.
    1000022    2    1    0    0    0 -0.25484458912E+02 -0.28892349781E+00  0.56184597715E+02  0.62500000414E+02  0.99999954245E+01 0.  0.
    3000022    2    3    3    0    0 -0.18683536333E+02 -0.14963998135E+01  0.49093428377E+02  0.52550365769E+02  0.24998065877E+00 0.  0.
    1000022    2    1    0    0    0  0.25484458912E+02  0.28892349781E+00 -0.56184597715E+02  0.62499999586E+02  0.99999902540E+01 0.  0.
    3000022    2    5    5    0    0  0.21157676843E+02  0.14231174125E+01 -0.35828812574E+02  0.41634587354E+02  0.25000229171E+00 0.  0.
        -13    1    4    4    0    0 -0.78002466275E+01 -0.57359672801E+00  0.20375063178E+02  0.21824918904E+02  0.10500000000E+00 0.  1.
         13    1    4    4    0    0 -0.10883289705E+02 -0.92280308552E+00  0.28718365200E+02  0.30725446866E+02  0.10500000000E+00 0. -1.
    3000001    1    5    5    0    0  0.43267820694E+01 -0.11341939147E+01 -0.20355785141E+02  0.20865412232E+02  0.10000000000E+01 0.  1.
        -13    1    6    6    0    0  0.60650382801E+01  0.39986482357E+00 -0.10190082886E+02  0.11865639276E+02  0.10500000000E+00 0.  1.
         13    1    6    6    0    0  0.15092638563E+02  0.10232525889E+01 -0.25638729688E+02  0.29768948078E+02  0.10500000000E+00 0. -1.
</event>
<event>
11    0  0.3482687E-009  0.9118800E+02  0.7816531E-02  0.1126479E+00
         25   -1    0    0    0    0  0.00000000000E+00  0.00000000000E+00  0.99999998245E-14  0.12500000000E+03  0.12500000000E+03 0.  0.
    3000001    1    3    3    0    0 -0.15270817141E+02  0.16969811188E+01  0.11896923034E+02  0.19458015797E+02  0.10000000000E+01 0.  1.
    1000022    2    1    0    0    0 -0.38594424921E+02  0.10860835934E+02  0.46890964956E+02  0.62499999832E+02  0.99999996149E+01 0.  0.
    3000022    2    3    3    0    0 -0.23323607779E+02  0.91638548151E+01  0.34994041922E+02  0.43041984034E+02  0.25000935049E+00 0.  0.
    1000022    2    1    0    0    0  0.38594424921E+02 -0.10860835934E+02 -0.46890964956E+02  0.62500000168E+02  0.10000001718E+02 0.  0.
    3000022    2    5    5    0    0  0.10450727230E+02 -0.70519312802E+01 -0.11102149477E+02  0.16800823066E+02  0.24999656616E+00 0.  0.
        -13    1    4    4    0    0 -0.13799713479E+02  0.54256870863E+01  0.20596805511E+02  0.25379314307E+02  0.10500000000E+00 0.  1.
         13    1    4    4    0    0 -0.95238943003E+01  0.37381677288E+01  0.14397236411E+02  0.17662669727E+02  0.10500000000E+00 0. -1.
    3000001    1    5    5    0    0  0.28143697691E+02 -0.38089046537E+01 -0.35788815480E+02  0.45699177102E+02  0.10000000000E+01 0.  1.
        -13    1    6    6    0    0  0.47333067527E+01 -0.32245395295E+01 -0.51260259261E+01  0.76869379331E+01  0.10500000000E+00 0. -1.
         13    1    6    6    0    0  0.57174204769E+01 -0.38273917507E+01 -0.59761235504E+01  0.91138851328E+01  0.10500000000E+00 0.  1.
</event>
<event>
11    0  0.3482687E-009  0.9118800E+02  0.7816531E-02  0.1126479E+00
         25   -1    0    0    0    0  0.00000000000E+00  0.00000000000E+00  0.99999998245E-14  0.12500000000E+03  0.12500000000E+03 0.  0.
    3000001    1    3    3    0    0  0.14979487244E+02 -0.86032753935E+01 -0.15491940311E+02  0.23225020995E+02  0.10000000000E+01 0. -1.
    1000022    2    1    0    0    0  0.29326352961E+02 -0.25861384041E+02 -0.47722153374E+02  0.62500000368E+02  0.99999980424E+01 0.  0.
    3000022    2    3    3    0    0  0.14346865716E+02 -0.17258108647E+02 -0.32230213062E+02  0.39274979373E+02  0.25000144903E+00 0.  0.
    1000022    2    1    0    0    0 -0.29326352961E+02  0.25861384041E+02  0.47722153374E+02  0.62499999632E+02  0.99999934481E+01 0.  0.
    3000022    2    5    5    0    0 -0.27771935217E+02  0.20972293208E+02  0.38489256771E+02  0.51890296367E+02  0.25000449486E+00 0.  0.
        -13    1    4    4    0    0  0.54282632137E+01 -0.64516289415E+01 -0.12049721862E+02  0.14707018035E+02  0.10500000000E+00 0.  1.
         13    1    4    4    0    0  0.89186025027E+01 -0.10806479706E+02 -0.20180491200E+02  0.24567961338E+02  0.10500000000E+00 0. -1.
    3000001    1    5    5    0    0 -0.15544177441E+01  0.48890908324E+01  0.92328966031E+01  0.10609703265E+02  0.10000000000E+01 0. -1.
        -13    1    6    6    0    0 -0.96185385264E+01  0.72418162699E+01  0.13395333558E+02  0.18011279033E+02  0.10500000000E+00 0.  1.
         13    1    6    6    0    0 -0.18153396690E+02  0.13730476938E+02  0.25093923213E+02  0.33879017335E+02  0.10500000000E+00 0. -1.
</event>
<event>
11    0  0.3482687E-009  0.9118800E+02  0.7816531E-02  0.1126479E+00
         25   -1    0    0    0    0  0.00000000000E+00  0.00000000000E+00  0.99999998245E-14  0.12500000000E+03  0.12500000000E+03 0.  0.
    3000001    1    3    3    0    0 -0.26587521418E+01 -0.10768806003E+02 -0.24334294030E+02  0.26761801352E+02  0.10000000000E+01 0.  1.
    1000022    2    1    0    0    0 -0.16690328515E+02 -0.27196893210E+02 -0.52801628704E+02  0.62499999756E+02  0.99999954774E+01 0.  0.
    3000022    2    3    3    0    0 -0.14031576373E+02 -0.16428087207E+02 -0.28467334674E+02  0.35738198404E+02  0.24999387614E+00 0.  0.
    1000022    2    1    0    0    0  0.16690328515E+02  0.27196893210E+02  0.52801628704E+02  0.62500000244E+02  0.99999985244E+01 0.  0.
    3000022    2    5    5    0    0  0.85620777273E+01  0.13227357966E+02  0.35291524030E+02  0.38650049688E+02  0.24999760896E+00 0.  0.
        -13    1    4    4    0    0 -0.93627689861E+01 -0.10901329816E+02 -0.18994695500E+02  0.23818268556E+02  0.10500000000E+00 0. -1.
         13    1    4    4    0    0 -0.46688073868E+01 -0.55267573915E+01 -0.94726391738E+01  0.11919929849E+02  0.10500000000E+00 0.  1.
    3000001    1    5    5    0    0  0.81282507874E+01  0.13969535244E+02  0.17510104674E+02  0.23849950555E+02  0.10000000000E+01 0.  1.
        -13    1    6    6    0    0  0.34479746651E+01  0.52861663756E+01  0.14281707534E+02  0.15614425360E+02  0.10500000000E+00 0. -1.
         13    1    6    6    0    0  0.51141030622E+01  0.79411915903E+01  0.21009816496E+02  0.23035624328E+02  0.10500000000E+00 0.  1.
</event>
<event>
11    0  0.3482687E-009  0.9118800E+02  0.7816531E-02  0.1126479E+00
         25   -1    0    0    0    0  0.00000000000E+00  0.00000000000E+00  0.99999998245E-14  0.12500000000E+03  0.12500000000E+03 0.  0.
    3000001    1    3    3    0    0 -0.10909174552E+02  0.26329432795E+01 -0.43170661773E+01  0.12065634674E+02  0.10000000000E+01 0. -1.
    1000022    2    1    0    0    0 -0.56698036752E+02  0.23754436127E+02 -0.52257953568E+01  0.62500004376E+02  0.10000050133E+02 0.  0.
    3000022    2    3    3    0    0 -0.45788862200E+02  0.21121492847E+02 -0.90872917950E+00  0.50434369702E+02  0.24999361801E+00 0.  0.
    1000022    2    1    0    0    0  0.56698036752E+02 -0.23754436127E+02  0.52257953568E+01  0.62499995624E+02  0.99999954361E+01 0.  0.
    3000022    2    5    5    0    0  0.11475966703E+02 -0.80895533722E+01  0.40561233039E+01  0.14616884782E+02  0.24999789529E+00 0.  0.
        -13    1    4    4    0    0 -0.14354565176E+02  0.66370371537E+01 -0.33222013051E+00  0.15818508108E+02  0.10500000000E+00 0. -1.
         13    1    4    4    0    0 -0.31434297025E+02  0.14484455693E+02 -0.57650904900E+00  0.34615861593E+02  0.10500000000E+00 0.  1.
    3000001    1    5    5    0    0  0.45222070049E+02 -0.15664882754E+02  0.11696720528E+01  0.47883110842E+02  0.10000000000E+01 0.  1.
        -13    1    6    6    0    0  0.39648504340E+01 -0.27333614518E+01  0.14153145140E+01  0.50205023617E+01  0.10500000000E+00 0.  1.
         13    1    6    6    0    0  0.75111162688E+01 -0.53561919203E+01  0.26408087899E+01  0.95963824202E+01  0.10500000000E+00 0. -1.
</event>
<event>
11    0  0.3482687E-009  0.9118800E+02  0.7816531E-02  0.1126479E+00
         25   -1    0    0    0    0  0.00000000000E+00  0.00000000000E+00  0.99999998245E-14  0.12500000000E+03  0.12500000000E+03 0.  0.
    3000001    1    3    3    0    0  0.73637828616E+01 -0.39272614787E+02  0.21292832624E+02  0.45287396606E+02  0.10000000000E+01 0.  1.
    1000022    2    1    0    0    0  0.76436542184E+01 -0.50962247078E+02  0.33921584970E+02  0.62500000030E+02  0.99999999912E+01 0.  0.
    3000022    2    3    3    0    0  0.27987135683E+00 -0.11689632291E+02  0.12628752347E+02  0.17212603424E+02  0.24999943551E+00 0.  0.
    1000022    2    1    0    0    0 -0.76436542184E+01  0.50962247078E+02 -0.33921584970E+02  0.62499999970E+02  0.99999996157E+01 0.  0.
    3000022    2    5    5    0    0 -0.84630141323E+00  0.55885874592E+00 -0.24976808482E+01  0.27072971478E+01  0.24999809485E+00 0.  0.
        -13    1    4    4    0    0  0.46971824273E-01 -0.31884307280E+01  0.34118846946E+01  0.46712181526E+01  0.10500000000E+00 0. -1.
         13    1    4    4    0    0  0.23289953255E+00 -0.85012015628E+01  0.92168676519E+01  0.12541385271E+02  0.10500000000E+00 0.  1.
    3000001    1    5    5    0    0 -0.67973528052E+01  0.50403388332E+02 -0.31423904122E+02  0.59792702822E+02  0.10000000000E+01 0.  1.
        -13    1    6    6    0    0 -0.36803369488E+00  0.16925966247E+00 -0.96855727883E+00  0.10550951788E+01  0.10500000000E+00 0.  1.
         13    1    6    6    0    0 -0.47826771835E+00  0.38959908345E+00 -0.15291235693E+01  0.16522019691E+01  0.10500000000E+00 0. -1.
</event>
<event>
11    0  0.3482687E-009  0.9118800E+02  0.7816531E-02  0.1126479E+00
         25   -1    0    0    0    0  0.00000000000E+00  0.00000000000E+00  0.99999998245E-14  0.12500000000E+03  0.12500000000E+03 0.  0.
    3000001    1    3    3    0    0  0.68503417900E+01 -0.10216653866E+01 -0.85211142270E+01  0.11026348918E+02  0.10000000000E+01 0.  1.
    1000022    2    1    0    0    0  0.24069841874E+02 -0.19860021923E+02 -0.53220976847E+02  0.62499983697E+02  0.99998913497E+01 0.  0.
    3000022    2    3    3    0    0  0.17219500084E+02 -0.18838356536E+02 -0.44699862620E+02  0.51473634779E+02  0.24999794611E+00 0.  0.
    1000022    2    1    0    0    0 -0.24069841874E+02  0.19860021923E+02  0.53220976847E+02  0.62500016303E+02  0.10000095135E+02 0.  0.
    3000022    2    5    5    0    0 -0.24732416029E+02  0.19270511543E+02  0.51790659513E+02  0.60542381332E+02  0.25001377204E+00 0.  0.
        -13    1    4    4    0    0  0.11628387892E+02 -0.12646160642E+02 -0.30111191300E+02  0.34667559050E+02  0.10500000000E+00 0. -1.
         13    1    4    4    0    0  0.55911121913E+01 -0.61921958949E+01 -0.14588671319E+02  0.16806075729E+02  0.10500000000E+00 0.  1.
    3000001    1    5    5    0    0  0.66257415571E+00  0.58951038035E+00  0.14303173344E+01  0.19576349704E+01  0.10000000000E+01 0.  1.
        -13    1    6    6    0    0 -0.80591318118E+01  0.62934395519E+01  0.16989257668E+02  0.19829344115E+02  0.10500000000E+00 0.  1.
         13    1    6    6    0    0 -0.16673284217E+02  0.12977071991E+02  0.34801401845E+02  0.40713037217E+02  0.10500000000E+00 0. -1.
</event>
<event>
11    0  0.3482687E-009  0.9118800E+02  0.7816531E-02  0.1126479E+00
         25   -1    0    0    0    0  0.00000000000E+00  0.00000000000E+00  0.99999998245E-14  0.12500000000E+03  0.12500000000E+03 0.  0.
    3000001    1    3    3    0    0 -0.99068627547E+01  0.10442764676E+02  0.12849590342E+02  0.19321212066E+02  0.10000000000E+01 0. -1.
    1000022    2    1    0    0    0 -0.18352670713E+02  0.37191279329E+02  0.45675354042E+02  0.62500002929E+02  0.10000030938E+02 0.  0.
    3000022    2    3    3    0    0 -0.84458079585E+01  0.26748514652E+02  0.32825763700E+02  0.43178790863E+02  0.25001940568E+00 0.  0.
    1000022    2    1    0    0    0  0.18352670713E+02 -0.37191279329E+02 -0.45675354042E+02  0.62499997071E+02  0.99999943306E+01 0.  0.
    3000022    2    5    5    0    0  0.90707695451E+01 -0.25287137610E+02 -0.34316433487E+02  0.43582086099E+02  0.24986571440E+00 0.  0.
        -13    1    4    4    0    0 -0.34283414244E+01  0.11045646464E+02  0.13487769763E+02  0.17767689464E+02  0.10500000000E+00 0.  1.
         13    1    4    4    0    0 -0.50174665341E+01  0.15702868189E+02  0.19337993937E+02  0.25411101399E+02  0.10500000000E+00 0. -1.
    3000001    1    5    5    0    0  0.92819011681E+01 -0.11904141719E+02 -0.11358920555E+02  0.18917910972E+02  0.10000000000E+01 0.  1.
        -13    1    6    6    0    0  0.22428287692E+01 -0.61868323579E+01 -0.83977910455E+01  0.10669634247E+02  0.10500000000E+00 0.  1.
         13    1    6    6    0    0  0.68279407759E+01 -0.19100305252E+02 -0.25918642441E+02  0.32912451853E+02  0.10500000000E+00 0. -1.
</event>
<event>
11    0  0.3482687E-009  0.9118800E+02  0.7816531E-02  0.1126479E+00
         25   -1    0    0    0    0  0.00000000000E+00  0.00000000000E+00  0.99999998245E-14  0.12500000000E+03  0.12500000000E+03 0.  0.
    3000001    1    3    3    0    0 -0.26254637433E+02  0.19624173323E+02  0.30550820353E+02  0.44819268062E+02  0.10000000000E+01 0. -1.
    1000022    2    1    0    0    0 -0.31375898471E+02  0.30649301366E+02  0.43386902812E+02  0.62499999827E+02  0.99999981800E+01 0.  0.
    3000022    2    3    3    0    0 -0.51212610378E+01  0.11025128043E+02  0.12836082459E+02  0.17680731765E+02  0.24999970899E+00 0.  0.
    1000022    2    1    0    0    0  0.31375898471E+02 -0.30649301366E+02 -0.43386902812E+02  0.62500000173E+02  0.10000000347E+02 0.  0.
    3000022    2    5    5    0    0  0.20962624118E+02 -0.25262120659E+02 -0.28122174692E+02  0.43226445148E+02  0.25000125238E+00 0.  0.
        -13    1    4    4    0    0 -0.36466956482E+01  0.79121026413E+01  0.91519226595E+01  0.12635999000E+02  0.10500000000E+00 0. -1.
         13    1    4    4    0    0 -0.14745653896E+01  0.31130254017E+01  0.36841597993E+01  0.50447327647E+01  0.10500000000E+00 0.  1.
    3000001    1    5    5    0    0  0.10413274353E+02 -0.53871807068E+01 -0.15264728121E+02  0.19273555025E+02  0.10000000000E+01 0.  1.
        -13    1    6    6    0    0  0.97314267250E+01 -0.11624240844E+02 -0.13004420930E+02  0.19973723489E+02  0.10500000000E+00 0.  1.
         13    1    6    6    0    0  0.11231197393E+02 -0.13637879816E+02 -0.15117753762E+02  0.23252721659E+02  0.10500000000E+00 0. -1.
</event>
<event>
11    0  0.3482687E-009  0.9118800E+02  0.7816531E-02  0.1126479E+00
         25   -1    0    0    0    0  0.00000000000E+00  0.00000000000E+00  0.99999998245E-14  0.12500000000E+03  0.12500000000E+03 0.  0.
    3000001    1    3    3    0    0  0.47152656697E+02 -0.99183521503E+01 -0.29388100639E+02  0.56448270142E+02  0.10000000000E+01 0. -1.
    1000022    2    1    0    0    0  0.50010921304E+02 -0.99983934837E+01 -0.34715844314E+02  0.62499999994E+02  0.10000001547E+02 0.  0.
    3000022    2    3    3    0    0  0.28582646074E+01 -0.80041333432E-01 -0.53277436750E+01  0.60517298518E+01  0.24999670437E+00 0.  0.
    1000022    2    1    0    0    0 -0.50010921304E+02  0.99983934837E+01  0.34715844314E+02  0.62500000006E+02  0.10000001621E+02 0.  0.
    3000022    2    5    5    0    0 -0.44895544108E+02  0.11677442249E+02  0.29766418143E+02  0.55118732633E+02  0.24999956810E+00 0.  0.
        -13    1    4    4    0    0  0.19403376129E+01 -0.83833538949E-01 -0.36989875725E+01  0.41791712307E+01  0.10500000000E+00 0.  1.
         13    1    4    4    0    0  0.91792699448E+00  0.37922055167E-02 -0.16287561025E+01  0.18725586211E+01  0.10500000000E+00 0. -1.
    3000001    1    5    5    0    0 -0.51153771958E+01 -0.16790487649E+01  0.49494261707E+01  0.73812673728E+01  0.10000000000E+01 0. -1.
        -13    1    6    6    0    0 -0.20764424111E+02  0.53489159618E+01  0.13705870177E+02  0.25448656407E+02  0.10500000000E+00 0. -1.
         13    1    6    6    0    0 -0.24131119997E+02  0.63285262869E+01  0.16060547965E+02  0.29670076226E+02  0.10500000000E+00 0.  1.
</event>
<event>
11    0  0.3482687E-009  0.9118800E+02  0.7816531E-02  0.1126479E+00
         25   -1    0    0    0    0  0.00000000000E+00  0.00000000000E+00  0.99999998245E-14  0.12500000000E+03  0.12500000000E+03 0.  0.
    3000001    1    3    3    0    0  0.35633113472E+02 -0.14548721635E+02  0.11125788701E+02  0.40077016495E+02  0.10000000000E+01 0. -1.
    1000022    2    1    0    0    0  0.51237221597E+02 -0.26202904014E+02  0.22235220092E+02  0.62499998603E+02  0.99999878525E+01 0.  0.
    3000022    2    3    3    0    0  0.15604108125E+02 -0.11654182379E+02  0.11109431391E+02  0.22422982107E+02  0.25000693229E+00 0.  0.
    1000022    2    1    0    0    0 -0.51237221597E+02  0.26202904014E+02 -0.22235220092E+02  0.62500001397E+02  0.10000005321E+02 0.  0.
    3000022    2    5    5    0    0 -0.30650528507E+02  0.12197755233E+02 -0.16691809066E+02  0.36971869257E+02  0.24999203607E+00 0.  0.
        -13    1    4    4    0    0  0.40405125975E+01 -0.29987809087E+01  0.28397194973E+01  0.57787075382E+01  0.10500000000E+00 0. -1.
         13    1    4    4    0    0  0.11563595527E+02 -0.86554014703E+01  0.82697118938E+01  0.16644274569E+02  0.10500000000E+00 0.  1.
    3000001    1    5    5    0    0 -0.20586693090E+02  0.14005148781E+02 -0.55434110258E+01  0.25528132140E+02  0.10000000000E+01 0.  1.
        -13    1    6    6    0    0 -0.16117391833E+02  0.64720731660E+01 -0.88336990282E+01  0.19485977371E+02  0.10500000000E+00 0.  1.
         13    1    6    6    0    0 -0.14533136674E+02  0.57256820672E+01 -0.78581100376E+01  0.17485891887E+02  0.10500000000E+00 0. -1.
</event>
<event>
11    0  0.3482687E-009  0.9118800E+02  0.7816531E-02  0.1126479E+00
         25   -1    0    0    0    0  0.00000000000E+00  0.00000000000E+00  0.99999998245E-14  0.12500000000E+03  0.12500000000E+03 0.  0.
    3000001    1    3    3    0    0  0.21341752385E+02 -0.44069497667E+01  0.37137197275E+02  0.43070442563E+02  0.10000000000E+01 0. -1.
    1000022    2    1    0    0    0  0.35032889723E+02 -0.97717310887E+01  0.49834325427E+02  0.62499999521E+02  0.99999929312E+01 0.  0.
    3000022    2    3    3    0    0  0.13691137338E+02 -0.53647813220E+01  0.12697128152E+02  0.19429556958E+02  0.25000013793E+00 0.  0.
    1000022    2    1    0    0    0 -0.35032889723E+02  0.97717310887E+01 -0.49834325427E+02  0.62500000479E+02  0.99999989138E+01 0.  0.
    3000022    2    5    5    0    0 -0.21740376777E+02  0.25679450916E+01 -0.35080570051E+02  0.41351508079E+02  0.25000171407E+00 0.  0.
        -13    1    4    4    0    0  0.87666121537E+01 -0.34932145763E+01  0.81208150693E+01  0.12450489915E+02  0.10500000000E+00 0. -1.
         13    1    4    4    0    0  0.49245251838E+01 -0.18715667457E+01  0.45763130823E+01  0.69790670435E+01  0.10500000000E+00 0.  1.
    3000001    1    5    5    0    0 -0.13292512946E+02  0.72037859971E+01 -0.14753755375E+02  0.21148492400E+02  0.10000000000E+01 0. -1.
        -13    1    6    6    0    0 -0.73731994931E+01  0.82721386065E+00 -0.11952528536E+02  0.14068486662E+02  0.10500000000E+00 0. -1.
         13    1    6    6    0    0 -0.14367177284E+02  0.17407312310E+01 -0.23128041515E+02  0.27283021417E+02  0.10500000000E+00 0.  1.
</event>
<event>
11    0  0.3482687E-009  0.9118800E+02  0.7816531E-02  0.1126479E+00
         25   -1    0    0    0    0  0.00000000000E+00  0.00000000000E+00  0.99999998245E-14  0.12500000000E+03  0.12500000000E+03 0.  0.
    3000001    1    3    3    0    0 -0.84255861420E+01  0.26496666731E+01  0.33401203701E+01  0.94956642422E+01  0.10000000000E+01 0.  1.
    1000022    2    1    0    0    0 -0.45625726354E+02  0.37582980357E+02  0.17665288461E+02  0.62500001574E+02  0.10000023127E+02 0.  0.
    3000022    2    3    3    0    0 -0.37200140212E+02  0.34933313684E+02  0.14325168091E+02  0.53004337332E+02  0.24999691946E+00 0.  0.
    1000022    2    1    0    0    0  0.45625726354E+02 -0.37582980357E+02 -0.17665288461E+02  0.62499998426E+02  0.10000003449E+02 0.  0.
    3000022    2    5    5    0    0  0.83943328068E+01 -0.79969066558E+01  0.44017698631E+00  0.11604809050E+02  0.24999595743E+00 0.  0.
        -13    1    4    4    0    0 -0.20449647147E+02  0.19138029770E+02  0.79106160347E+01  0.29103970914E+02  0.10500000000E+00 0. -1.
         13    1    4    4    0    0 -0.16750493065E+02  0.15795283914E+02  0.64145520565E+01  0.23900366418E+02  0.10500000000E+00 0.  1.
    3000001    1    5    5    0    0  0.37231393547E+02 -0.29586073701E+02 -0.18105465448E+02  0.50895189376E+02  0.10000000000E+01 0. -1.
        -13    1    6    6    0    0  0.40374145178E+01 -0.38812501117E+01  0.27544503437E+00  0.56081827168E+01  0.10500000000E+00 0.  1.
         13    1    6    6    0    0  0.43569182890E+01 -0.41156565441E+01  0.16473195194E+00  0.59966263333E+01  0.10500000000E+00 0. -1.
</event>
<event>
11    0  0.3482687E-009  0.9118800E+02  0.7816531E-02  0.1126479E+00
         25   -1    0    0    0    0  0.00000000000E+00  0.00000000000E+00  0.99999998245E-14  0.12500000000E+03  0.12500000000E+03 0.  0.
    3000001    1    3    3    0    0 -0.62005169452E+01 -0.18372417240E+02 -0.53908183396E+01  0.20150758001E+02  0.10000000000E+01 0. -1.
    1000022    2    1    0    0    0 -0.29773065857E+02 -0.53472866603E+02 -0.77760382408E+01  0.62500000967E+02  0.10000021847E+02 0.  0.
    3000022    2    3    3    0    0 -0.23572548912E+02 -0.35100449362E+02 -0.23852199012E+01  0.42349242966E+02  0.24999638604E+00 0.  0.
    1000022    2    1    0    0    0  0.29773065857E+02  0.53472866603E+02  0.77760382408E+01  0.62499999033E+02  0.10000009755E+02 0.  0.
    3000022    2    5    5    0    0  0.13058174630E+02  0.17733078426E+02  0.66891899933E+01  0.23017075043E+02  0.24997127022E+00 0.  0.
        -13    1    4    4    0    0 -0.64467557353E+01 -0.95338857003E+01 -0.64486410157E+00  0.11527467665E+02  0.10500000000E+00 0.  1.
         13    1    4    4    0    0 -0.17125793177E+02 -0.25566563662E+02 -0.17403557997E+01  0.30821775302E+02  0.10500000000E+00 0. -1.
    3000001    1    5    5    0    0  0.16714891228E+02  0.35739788177E+02  0.10868482476E+01  0.39482923990E+02  0.10000000000E+01 0.  1.
        -13    1    6    6    0    0  0.55407767448E+01  0.76343569807E+01  0.28600355819E+01  0.98577097733E+01  0.10500000000E+00 0.  1.
         13    1    6    6    0    0  0.75173978851E+01  0.10098721445E+02  0.38291544113E+01  0.13159365269E+02  0.10500000000E+00 0. -1.
</event>
<event>
11    0  0.3482687E-009  0.9118800E+02  0.7816531E-02  0.1126479E+00
         25   -1    0    0    0    0  0.00000000000E+00  0.00000000000E+00  0.99999998245E-14  0.12500000000E+03  0.12500000000E+03 0.  0.
    3000001    1    3    3    0    0 -0.60062807719E+00  0.12756085499E+01 -0.22959629401E+01  0.28739132002E+01  0.10000000000E+01 0. -1.
    1000022    2    1    0    0    0 -0.35963828100E+02  0.45163713883E+02 -0.21750678439E+02  0.62499999065E+02  0.99999943612E+01 0.  0.
    3000022    2    3    3    0    0 -0.35363200023E+02  0.43888105333E+02 -0.19454715499E+02  0.59626085865E+02  0.24990958952E+00 0.  0.
    1000022    2    1    0    0    0  0.35963828100E+02 -0.45163713883E+02  0.21750678439E+02  0.62500000935E+02  0.10000006050E+02 0.  0.
    3000022    2    5    5    0    0  0.99051106559E+01 -0.19111411872E+02  0.55223198896E+01  0.22224216447E+02  0.24999774917E+00 0.  0.
        -13    1    4    4    0    0 -0.21570166004E+02  0.26724233383E+02 -0.11796159462E+02  0.36312767925E+02  0.10500000000E+00 0.  1.
         13    1    4    4    0    0 -0.13793034019E+02  0.17163871951E+02 -0.76585560367E+01  0.23313317939E+02  0.10500000000E+00 0. -1.
    3000001    1    5    5    0    0  0.26058717444E+02 -0.26052302011E+02  0.16228358549E+02  0.40275784488E+02  0.10000000000E+01 0.  1.
        -13    1    6    6    0    0  0.54084804405E+01 -0.10522359845E+02  0.30901797945E+01  0.12228325868E+02  0.10500000000E+00 0.  1.
         13    1    6    6    0    0  0.44966302154E+01 -0.85890520272E+01  0.24321400951E+01  0.99958905787E+01  0.10500000000E+00 0. -1.
</event>
<event>
11    0  0.3482687E-009  0.9118800E+02  0.7816531E-02  0.1126479E+00
         25   -1    0    0    0    0  0.00000000000E+00  0.00000000000E+00  0.99999998245E-14  0.12500000000E+03  0.12500000000E+03 0.  0.
    3000001    1    3    3    0    0  0.18471713458E+02 -0.80727542399E+01  0.14826849806E+02  0.25044141716E+02  0.10000000000E+01 0.  1.
    1000022    2    1    0    0    0  0.50315332457E+02 -0.91136445417E+01  0.34518962357E+02  0.62499999816E+02  0.10000000885E+02 0.  0.
    3000022    2    3    3    0    0  0.31843618998E+02 -0.10408903018E+01  0.19692112551E+02  0.37455858100E+02  0.24997149973E+00 0.  0.
    1000022    2    1    0    0    0 -0.50315332457E+02  0.91136445417E+01 -0.34518962357E+02  0.62500000184E+02  0.10000003189E+02 0.  0.
    3000022    2    5    5    0    0 -0.76239082657E+00  0.10773665180E+00  0.67091927890E+00  0.10514186655E+01  0.25000314567E+00 0.  0.
        -13    1    4    4    0    0  0.19834023994E+02 -0.62572477828E+00  0.12330677187E+02  0.23363147566E+02  0.10500000000E+00 0. -1.
         13    1    4    4    0    0  0.12009595005E+02 -0.41516552348E+00  0.73614353638E+01  0.14092710534E+02  0.10500000000E+00 0.  1.
    3000001    1    5    5    0    0 -0.49552941630E+02  0.90059078899E+01 -0.35189881636E+02  0.61448581519E+02  0.10000000000E+01 0. -1.
        -13    1    6    6    0    0 -0.46043427981E+00  0.12764278349E+00  0.40145021635E+00  0.63283464065E+00  0.10500000000E+00 0. -1.
         13    1    6    6    0    0 -0.30195654676E+00 -0.19906131696E-01  0.26946906254E+00  0.41858402487E+00  0.10500000000E+00 0.  1.
</event>
<event>
11    0  0.3482687E-009  0.9118800E+02  0.7816531E-02  0.1126479E+00
         25   -1    0    0    0    0  0.00000000000E+00  0.00000000000E+00  0.99999998245E-14  0.12500000000E+03  0.12500000000E+03 0.  0.
    3000001    1    3    3    0    0 -0.25074581529E+02  0.39186490553E+01 -0.10167040871E+02  0.27357981821E+02  0.10000000000E+01 0.  1.
    1000022    2    1    0    0    0 -0.55550890524E+02 -0.15182879765E+01 -0.26796330025E+02  0.62500000154E+02  0.10000003999E+02 0.  0.
    3000022    2    3    3    0    0 -0.30476308996E+02 -0.54369370319E+01 -0.16629289154E+02  0.35142018333E+02  0.25000084315E+00 0.  0.
    1000022    2    1    0    0    0  0.55550890524E+02  0.15182879765E+01  0.26796330025E+02  0.62499999846E+02  0.10000002075E+02 0.  0.
    3000022    2    5    5    0    0  0.19158172704E+02  0.44610153283E+01  0.65224763200E+01  0.20725381970E+02  0.25004269003E+00 0.  0.
        -13    1    4    4    0    0 -0.11346458648E+02 -0.19868933374E+01 -0.61341799683E+01  0.13051017503E+02  0.10500000000E+00 0.  1.
         13    1    4    4    0    0 -0.19129850348E+02 -0.34500436944E+01 -0.10495109186E+02  0.22091000830E+02  0.10500000000E+00 0. -1.
    3000001    1    5    5    0    0  0.36392717820E+02 -0.29427273517E+01  0.20273853705E+02  0.41774617876E+02  0.10000000000E+01 0.  1.
        -13    1    6    6    0    0  0.73284862246E+01  0.16618585710E+01  0.24464833299E+01  0.79034669568E+01  0.10500000000E+00 0. -1.
         13    1    6    6    0    0  0.11829686479E+02  0.27991567572E+01  0.40759929901E+01  0.12821915013E+02  0.10500000000E+00 0.  1.
</event>
<event>
11    0  0.3482687E-009  0.9118800E+02  0.7816531E-02  0.1126479E+00
         25   -1    0    0    0    0  0.00000000000E+00  0.00000000000E+00  0.99999998245E-14  0.12500000000E+03  0.12500000000E+03 0.  0.
    3000001    1    3    3    0    0  0.31337185937E+02 -0.25061919028E+02  0.94006471510E+01  0.41224885381E+02  0.10000000000E+01 0. -1.
    1000022    2    1    0    0    0  0.42046585907E+02 -0.42333517595E+02  0.15691012124E+02  0.62500001211E+02  0.10000009577E+02 0.  0.
    3000022    2    3    3    0    0  0.10709399970E+02 -0.17271598566E+02  0.62903649732E+01  0.21275115830E+02  0.24999465585E+00 0.  0.
    1000022    2    1    0    0    0 -0.42046585907E+02  0.42333517595E+02 -0.15691012124E+02  0.62499998789E+02  0.99999944371E+01 0.  0.
    3000022    2    5    5    0    0 -0.11527219911E+02  0.61850119584E+01 -0.19727217729E+01  0.13231980251E+02  0.24999670199E+00 0.  0.
        -13    1    4    4    0    0  0.58639001312E+01 -0.95705654896E+01  0.35045694889E+01  0.11758999993E+02  0.10500000000E+00 0.  1.
         13    1    4    4    0    0  0.48454998384E+01 -0.77010330768E+01  0.27857954843E+01  0.95161158365E+01  0.10500000000E+00 0.  1.
    3000001    1    5    5    0    0 -0.30519365996E+02  0.36148505636E+02 -0.13718290351E+02  0.49268018538E+02  0.10000000000E+01 0. -1.
        -13    1    6    6    0    0 -0.53541312177E+01  0.29218326599E+01 -0.86763254681E+00  0.61617885735E+01  0.10500000000E+00 0. -1.
         13    1    6    6    0    0 -0.61730886935E+01  0.32631792986E+01 -0.11050892261E+01  0.70701916770E+01  0.10500000000E+00 0.  1.
</event>
<event>
11    0  0.3482687E-009  0.9118800E+02  0.7816531E-02  0.1126479E+00
         25   -1    0    0    0    0  0.00000000000E+00  0.00000000000E+00  0.99999998245E-14  0.12500000000E+03  0.12500000000E+03 0.  0.
    3000001    1    3    3    0    0 -0.99622531504E+00 -0.22765159316E+01 -0.68248959278E+00  0.27641963948E+01  0.10000000000E+01 0. -1.
    1000022    2    1    0    0    0 -0.53373152688E+02 -0.30893751486E+02  0.17700206999E+01  0.62499998036E+02  0.99999736226E+01 0.  0.
    3000022    2    3    3    0    0 -0.52376927373E+02 -0.28617235555E+02  0.24525102927E+01  0.59735801641E+02  0.24999826457E+00 0.  0.
    1000022    2    1    0    0    0  0.53373152688E+02  0.30893751486E+02 -0.17700206999E+01  0.62500001964E+02  0.99999981706E+01 0.  0.
    3000022    2    5    5    0    0  0.26188500908E+01  0.39616534149E+01 -0.16506686874E+01  0.50339129757E+01  0.24999830659E+00 0.  0.
        -13    1    4    4    0    0 -0.13020172984E+02 -0.70849801793E+01  0.60974081589E+00  0.14835924560E+02  0.10500000000E+00 0. -1.
         13    1    4    4    0    0 -0.39356754389E+02 -0.21532255375E+02  0.18427694768E+01  0.44899877081E+02  0.10500000000E+00 0.  1.
    3000001    1    5    5    0    0  0.50754302598E+02  0.26932098071E+02 -0.11935201250E+00  0.57466088988E+02  0.10000000000E+01 0. -1.
        -13    1    6    6    0    0  0.10667374592E+01  0.15091808656E+01 -0.61868015975E+00  0.19517545522E+01  0.10500000000E+00 0.  1.
         13    1    6    6    0    0  0.15521126315E+01  0.24524725493E+01 -0.10319885276E+01  0.30821584234E+01  0.10500000000E+00 0. -1.
</event>
<event>
11    0  0.3482687E-009  0.9118800E+02  0.7816531E-02  0.1126479E+00
         25   -1    0    0    0    0  0.00000000000E+00  0.00000000000E+00  0.99999998245E-14  0.12500000000E+03  0.12500000000E+03 0.  0.
    3000001    1    3    3    0    0 -0.39367803892E+01  0.45301215592E+01  0.59647356946E+02  0.59956879771E+02  0.10000000000E+01 0.  1.
    1000022    2    1    0    0    0 -0.51961703745E+01  0.61102643835E+01  0.61171187327E+02  0.62499997337E+02  0.99999995337E+01 0.  0.
    3000022    2    3    3    0    0 -0.12593899853E+01  0.15801428243E+01  0.15238303809E+01  0.25431175659E+01  0.24994688225E+00 0.  0.
    1000022    2    1    0    0    0  0.51961703745E+01 -0.61102643835E+01 -0.61171187327E+02  0.62500002663E+02  0.10000032827E+02 0.  0.
    3000022    2    5    5    0    0  0.39074184730E+01 -0.71319555953E+01 -0.59157582771E+02  0.59714443886E+02  0.24999910590E+00 0.  0.
        -13    1    4    4    0    0 -0.57992823211E+00  0.62414821544E+00  0.63421276107E+00  0.10672996653E+01  0.10500000000E+00 0. -1.
         13    1    4    4    0    0 -0.67946175318E+00  0.95599460886E+00  0.88961761982E+00  0.14758179006E+01  0.10500000000E+00 0.  1.
    3000001    1    5    5    0    0  0.12887519014E+01  0.10216912118E+01 -0.20136045559E+01  0.27855587775E+01  0.10000000000E+01 0. -1.
        -13    1    6    6    0    0  0.12445302525E+01 -0.23803958219E+01 -0.19605311622E+02  0.19788744493E+02  0.10500000000E+00 0.  1.
         13    1    6    6    0    0  0.26628882205E+01 -0.47515597734E+01 -0.39552271149E+02  0.39925699393E+02  0.10500000000E+00 0. -1.
</event>
<event>
11    0  0.3482687E-009  0.9118800E+02  0.7816531E-02  0.1126479E+00
         25   -1    0    0    0    0  0.00000000000E+00  0.00000000000E+00  0.99999998245E-14  0.12500000000E+03  0.12500000000E+03 0.  0.
    3000001    1    3    3    0    0 -0.35143795688E+01 -0.38583470239E+02 -0.10750079233E+02  0.40219388894E+02  0.10000000000E+01 0.  1.
    1000022    2    1    0    0    0 -0.79763669322E+00 -0.60694575893E+02 -0.11035496073E+02  0.62500000483E+02  0.10000005984E+02 0.  0.
    3000022    2    3    3    0    0  0.27167428756E+01 -0.22111105654E+02 -0.28541684004E+00  0.22280611590E+02  0.25000989183E+00 0.  0.
    1000022    2    1    0    0    0  0.79763669322E+00  0.60694575893E+02  0.11035496073E+02  0.62499999517E+02  0.99999999439E+01 0.  0.
    3000022    2    5    5    0    0 -0.42279819123E+01  0.32939893780E+02  0.75840991903E+01  0.34066016996E+02  0.25004026314E+00 0.  0.
        -13    1    4    4    0    0  0.64282881839E+00 -0.52135996982E+01 -0.52014051095E-01  0.52543868495E+01  0.10500000000E+00 0.  1.
         13    1    4    4    0    0  0.20739140572E+01 -0.16897505956E+02 -0.23340278894E+00  0.17026224740E+02  0.10500000000E+00 0. -1.
    3000001    1    5    5    0    0  0.50256186056E+01  0.27754682113E+02  0.34513968831E+01  0.28433982521E+02  0.10000000000E+01 0.  1.
        -13    1    6    6    0    0 -0.30772268644E+01  0.24111379243E+02  0.55193789364E+01  0.24925940363E+02  0.10500000000E+00 0.  1.
         13    1    6    6    0    0 -0.11507550480E+01  0.88285145377E+01  0.20647202538E+01  0.91400766326E+01  0.10500000000E+00 0. -1.
</event>
<event>
11    0  0.3482687E-009  0.9118800E+02  0.7816531E-02  0.1126479E+00
         25   -1    0    0    0    0  0.00000000000E+00  0.00000000000E+00  0.99999998245E-14  0.12500000000E+03  0.12500000000E+03 0.  0.
    3000001    1    3    3    0    0 -0.25340545034E+02  0.17799558971E+02 -0.23029797030E+02  0.38604909965E+02  0.10000000000E+01 0. -1.
    1000022    2    1    0    0    0 -0.45656654590E+02  0.27378655329E+02 -0.31178963108E+02  0.62499989067E+02  0.10000000848E+02 0.  0.
    3000022    2    3    3    0    0 -0.20316109556E+02  0.95790963573E+01 -0.81491660779E+01  0.23895079102E+02  0.25000599454E+00 0.  0.
    1000022    2    1    0    0    0  0.45656654590E+02 -0.27378655329E+02  0.31178963108E+02  0.62500010933E+02  0.10000137509E+02 0.  0.
    3000022    2    5    5    0    0  0.39873671395E+01 -0.19054839458E+01  0.62477142894E+01  0.76567876089E+01  0.24999374736E+00 0.  0.
        -13    1    4    4    0    0 -0.12171147611E+02  0.57741596649E+01 -0.48296599622E+01  0.14311337965E+02  0.10500000000E+00 0.  1.
         13    1    4    4    0    0 -0.81449619453E+01  0.38049366924E+01 -0.33195061157E+01  0.95837411367E+01  0.10500000000E+00 0. -1.
    3000001    1    5    5    0    0  0.41669287450E+02 -0.25473171383E+02  0.24931248819E+02  0.54843223324E+02  0.10000000000E+01 0. -1.
        -13    1    6    6    0    0  0.22880399202E+01 -0.10260295220E+01  0.35857899510E+01  0.43768456483E+01  0.10500000000E+00 0.  1.
         13    1    6    6    0    0  0.16993272193E+01 -0.87945442378E+00  0.26619243384E+01  0.32799419606E+01  0.10500000000E+00 0. -1.
</event>
<event>
11    0  0.3482687E-009  0.9118800E+02  0.7816531E-02  0.1126479E+00
         25   -1    0    0    0    0  0.00000000000E+00  0.00000000000E+00  0.99999998245E-14  0.12500000000E+03  0.12500000000E+03 0.  0.
    3000001    1    3    3    0    0 -0.38656598049E+02  0.26277614243E+02 -0.86389110687E+01  0.47544467265E+02  0.10000000000E+01 0. -1.
    1000022    2    1    0    0    0 -0.48356226813E+02  0.37591249146E+02 -0.74042788069E+01  0.62499999625E+02  0.99999962234E+01 0.  0.
    3000022    2    3    3    0    0 -0.96996287644E+01  0.11313634904E+02  0.12346322617E+01  0.14955532361E+02  0.24999693366E+00 0.  0.
    1000022    2    1    0    0    0  0.48356226813E+02 -0.37591249146E+02  0.74042788069E+01  0.62500000375E+02  0.10000000909E+02 0.  0.
    3000022    2    5    5    0    0  0.36190978253E+02 -0.23995829797E+02  0.21007154321E+01  0.43474846386E+02  0.25001683461E+00 0.  0.
        -13    1    4    4    0    0 -0.65319590944E+01  0.76591613857E+01  0.78916484180E+00  0.10097675420E+02  0.10500000000E+00 0.  1.
         13    1    4    4    0    0 -0.31676696700E+01  0.36544735179E+01  0.44546741995E+00  0.48578569404E+01  0.10500000000E+00 0. -1.
    3000001    1    5    5    0    0  0.12165248561E+02 -0.13595419349E+02  0.53035633748E+01  0.19025153989E+02  0.10000000000E+01 0.  1.
        -13    1    6    6    0    0  0.98313359612E+01 -0.65257112623E+01  0.60709884178E+00  0.11816076687E+02  0.10500000000E+00 0. -1.
         13    1    6    6    0    0  0.26359642292E+02 -0.17470118535E+02  0.14936165904E+01  0.31658769700E+02  0.10500000000E+00 0.  1.
</event>
<event>
11    0  0.3482687E-009  0.9118800E+02  0.7816531E-02  0.1126479E+00
         25   -1    0    0    0    0  0.00000000000E+00  0.00000000000E+00  0.99999998245E-14  0.12500000000E+03  0.12500000000E+03 0.  0.
    3000001    1    3    3    0    0  0.28905276484E+02 -0.95578479552E+01 -0.89675798960E+01  0.31753503040E+02  0.10000000000E+01 0.  1.
    1000022    2    1    0    0    0  0.51567754279E+02 -0.23789959761E+02 -0.24105073503E+02  0.62500000524E+02  0.10000001501E+02 0.  0.
    3000022    2    3    3    0    0  0.22662477795E+02 -0.14232111806E+02 -0.15137493607E+02  0.30746497483E+02  0.24997699200E+00 0.  0.
    1000022    2    1    0    0    0 -0.51567754279E+02  0.23789959761E+02  0.24105073503E+02  0.62499999476E+02  0.99999949565E+01 0.  0.
    3000022    2    5    5    0    0 -0.37809541521E+02  0.21856429209E+02  0.17019530106E+02  0.46872079464E+02  0.25000086465E+00 0.  0.
        -13    1    4    4    0    0  0.16981911920E+02 -0.10694944415E+02 -0.11344856912E+02  0.23053936146E+02  0.10500000000E+00 0.  1.
         13    1    4    4    0    0  0.56805658754E+01 -0.35371673912E+01 -0.37926366953E+01  0.76925613368E+01  0.10500000000E+00 0. -1.
    3000001    1    5    5    0    0 -0.13758212758E+02  0.19335305526E+01  0.70855433964E+01  0.15627920013E+02  0.10000000000E+01 0. -1.
        -13    1    6    6    0    0 -0.12843543291E+02  0.73675192602E+01  0.57956244050E+01  0.15900856315E+02  0.10500000000E+00 0. -1.
         13    1    6    6    0    0 -0.24965998230E+02  0.14488909949E+02  0.11223905701E+02  0.30971223148E+02  0.10500000000E+00 0.  1.
</event>
<event>
11    0  0.3482687E-009  0.9118800E+02  0.7816531E-02  0.1126479E+00
         25   -1    0    0    0    0  0.00000000000E+00  0.00000000000E+00  0.99999998245E-14  0.12500000000E+03  0.12500000000E+03 0.  0.
    3000001    1    3    3    0    0 -0.28554232147E+01 -0.10929863133E+02 -0.54610066665E+01  0.12587213499E+02  0.10000000000E+01 0. -1.
    1000022    2    1    0    0    0 -0.31027570834E+02 -0.44813346643E+02 -0.28901633087E+02  0.62499995601E+02  0.99999432901E+01 0.  0.
    3000022    2    3    3    0    0 -0.28172147619E+02 -0.33883483510E+02 -0.23440626421E+02  0.49912782102E+02  0.24998793069E+00 0.  0.
    1000022    2    1    0    0    0  0.31027570834E+02  0.44813346643E+02  0.28901633087E+02  0.62500004399E+02  0.99999982761E+01 0.  0.
    3000022    2    5    5    0    0  0.24528713060E+02  0.32032338520E+02  0.16773973305E+02  0.43693902921E+02  0.24999310144E+00 0.  0.
        -13    1    4    4    0    0 -0.96935474849E+01 -0.11592806977E+02 -0.79981300798E+01  0.17097928126E+02  0.10500000000E+00 0.  1.
         13    1    4    4    0    0 -0.18478600134E+02 -0.22290676533E+02 -0.15442496341E+02  0.32814853976E+02  0.10500000000E+00 0. -1.
    3000001    1    5    5    0    0  0.64988577734E+01  0.12781008123E+02  0.12127659783E+02  0.18806101478E+02  0.10000000000E+01 0.  1.
        -13    1    6    6    0    0  0.95643492990E+01  0.12506169641E+02  0.66122643723E+01  0.17076712849E+02  0.10500000000E+00 0.  1.
         13    1    6    6    0    0  0.14964363761E+02  0.19526168879E+02  0.10161708932E+02  0.26617190072E+02  0.10500000000E+00 0. -1.
</event>
<event>
11    0  0.3482687E-009  0.9118800E+02  0.7816531E-02  0.1126479E+00
         25   -1    0    0    0    0  0.00000000000E+00  0.00000000000E+00  0.99999998245E-14  0.12500000000E+03  0.12500000000E+03 0.  0.
    3000001    1    3    3    0    0 -0.13822615159E+02 -0.11129604869E+01  0.51104361577E+02  0.52961864989E+02  0.10000000000E+01 0. -1.
    1000022    2    1    0    0    0 -0.17677272326E+02 -0.50359552751E+01  0.58893150601E+02  0.62499999585E+02  0.99999979005E+01 0.  0.
    3000022    2    3    3    0    0 -0.38546571664E+01 -0.39229947882E+01  0.77887890239E+01  0.95381345962E+01  0.25001427655E+00 0.  0.
    1000022    2    1    0    0    0  0.17677272326E+02  0.50359552751E+01 -0.58893150601E+02  0.62500000415E+02  0.10000003090E+02 0.  0.
    3000022    2    5    5    0    0  0.77306525637E+01  0.37664588629E+00 -0.11667175523E+02  0.14003225979E+02  0.25000389873E+00 0.  0.
        -13    1    4    4    0    0 -0.22449519857E+01 -0.22934983582E+01  0.44323609286E+01  0.54732798703E+01  0.10500000000E+00 0. -1.
         13    1    4    4    0    0 -0.16097051807E+01 -0.16294964300E+01  0.33564280953E+01  0.40648547260E+01  0.10500000000E+00 0.  1.
    3000001    1    5    5    0    0  0.99466197619E+01  0.46593093888E+01 -0.47225975078E+02  0.48496774436E+02  0.10000000000E+01 0. -1.
        -13    1    6    6    0    0  0.38992806147E+01  0.16205050012E+00 -0.57709486585E+01  0.69674617399E+01  0.10500000000E+00 0.  1.
         13    1    6    6    0    0  0.38313719490E+01  0.21459538616E+00 -0.58962268643E+01  0.70357642389E+01  0.10500000000E+00 0. -1.
</event>
<event>
11    0  0.3482687E-009  0.9118800E+02  0.7816531E-02  0.1126479E+00
         25   -1    0    0    0    0  0.00000000000E+00  0.00000000000E+00  0.99999998245E-14  0.12500000000E+03  0.12500000000E+03 0.  0.
    3000001    1    3    3    0    0 -0.21056428882E+02 -0.25811924348E+02 -0.18809788339E+02  0.38267960139E+02  0.10000000000E+01 0. -1.
    1000022    2    1    0    0    0 -0.34067116753E+02 -0.45667878261E+02 -0.23666989338E+02  0.62500000929E+02  0.10000009156E+02 0.  0.
    3000022    2    3    3    0    0 -0.13010687871E+02 -0.19855953912E+02 -0.48572009989E+01  0.24232040790E+02  0.24998934459E+00 0.  0.
    1000022    2    1    0    0    0  0.34067116753E+02  0.45667878261E+02  0.23666989338E+02  0.62499999071E+02  0.99999975412E+01 0.  0.
    3000022    2    5    5    0    0  0.31977984888E+02  0.37381472481E+02  0.19224251218E+02  0.52816667273E+02  0.25000923509E+00 0.  0.
        -13    1    4    4    0    0 -0.98328861149E+01 -0.15030432098E+02 -0.36927700309E+01  0.18337042125E+02  0.10500000000E+00 0.  1.
         13    1    4    4    0    0 -0.31778017558E+01 -0.48255218147E+01 -0.11644309680E+01  0.58949986652E+01  0.10500000000E+00 0. -1.
    3000001    1    5    5    0    0  0.20891318648E+01  0.82864057800E+01  0.44427381198E+01  0.96833317975E+01  0.10000000000E+01 0. -1.
        -13    1    6    6    0    0  0.73401892896E+01  0.85756692214E+01  0.44070213123E+01  0.12118306121E+02  0.10500000000E+00 0.  1.
         13    1    6    6    0    0  0.24637795599E+02  0.28805803259E+02  0.14817229906E+02  0.40698361152E+02  0.10500000000E+00 0. -1.
</event>
<event>
11    0  0.3482687E-009  0.9118800E+02  0.7816531E-02  0.1126479E+00
         25   -1    0    0    0    0  0.00000000000E+00  0.00000000000E+00  0.99999998245E-14  0.12500000000E+03  0.12500000000E+03 0.  0.
    3000001    1    3    3    0    0  0.15131413513E+02  0.32464369943E+02  0.44179412364E+02  0.56883349651E+02  0.10000000000E+01 0.  1.
    1000022    2    1    0    0    0  0.14765479476E+02  0.33452457781E+02  0.49690679351E+02  0.62499999817E+02  0.10000002354E+02 0.  0.
    3000022    2    3    3    0    0 -0.36593403689E+00  0.98808783731E+00  0.55112669864E+01  0.56166501657E+01  0.24993998230E+00 0.  0.
    1000022    2    1    0    0    0 -0.14765479476E+02 -0.33452457781E+02 -0.49690679351E+02  0.62500000183E+02  0.10000004641E+02 0.  0.
    3000022    2    5    5    0    0 -0.64474887832E+01 -0.10217030536E+02 -0.96955000961E+01  0.15492677222E+02  0.25000157835E+00 0.  0.
        -13    1    4    4    0    0 -0.79631163374E-01  0.22014261121E+00  0.12804904395E+01  0.13059420573E+01  0.10500000000E+00 0. -1.
         13    1    4    4    0    0 -0.28630287352E+00  0.76794522610E+00  0.42307765469E+01  0.43107081083E+01  0.10500000000E+00 0.  1.
    3000001    1    5    5    0    0 -0.83179906932E+01 -0.23235427244E+02 -0.39995179254E+02  0.47007322961E+02  0.10000000000E+01 0.  1.
        -13    1    6    6    0    0 -0.35912065714E+01 -0.55727711030E+01 -0.53481922354E+01  0.85186106609E+01  0.10500000000E+00 0. -1.
         13    1    6    6    0    0 -0.28562822118E+01 -0.46442594333E+01 -0.43473078607E+01  0.69740665607E+01  0.10500000000E+00 0.  1.
</event>
<event>
11    0  0.3482687E-009  0.9118800E+02  0.7816531E-02  0.1126479E+00
         25   -1    0    0    0    0  0.00000000000E+00  0.00000000000E+00  0.99999998245E-14  0.12500000000E+03  0.12500000000E+03 0.  0.
    3000001    1    3    3    0    0  0.16722935244E+02  0.17063042710E+01 -0.28728546756E+02  0.33300111653E+02  0.10000000000E+01 0.  1.
    1000022    2    1    0    0    0  0.22813770117E+02  0.46534118974E+01 -0.57132545555E+02  0.62499997978E+02  0.99999818225E+01 0.  0.
    3000022    2    3    3    0    0  0.60908348726E+01  0.29471076265E+01 -0.28403998800E+02  0.29199886325E+02  0.25000154047E+00 0.  0.
    1000022    2    1    0    0    0 -0.22813770117E+02 -0.46534118974E+01  0.57132545555E+02  0.62500002022E+02  0.10000007094E+02 0.  0.
    3000022    2    5    5    0    0 -0.62154069136E+01 -0.12070944938E+01  0.64229706321E+01  0.90224950347E+01  0.25000938213E+00 0.  0.
        -13    1    4    4    0    0  0.46372255203E+01  0.22318259358E+01 -0.21661049235E+02  0.22264253558E+02  0.10500000000E+00 0. -1.
         13    1    4    4    0    0  0.14536093522E+01  0.71528169069E+00 -0.67429495642E+01  0.69356327665E+01  0.10500000000E+00 0.  1.
    3000001    1    5    5    0    0 -0.16598363203E+02 -0.34463174036E+01  0.50709574923E+02  0.53477506987E+02  0.10000000000E+01 0.  1.
        -13    1    6    6    0    0 -0.31451853234E+01 -0.55403416643E+00  0.32941894882E+01  0.45893195531E+01  0.10500000000E+00 0.  1.
         13    1    6    6    0    0 -0.30702215902E+01 -0.65306032738E+00  0.31287811439E+01  0.44331754816E+01  0.10500000000E+00 0. -1.
</event>
<event>
11    0  0.3482687E-009  0.9118800E+02  0.7816531E-02  0.1126479E+00
         25   -1    0    0    0    0  0.00000000000E+00  0.00000000000E+00  0.99999998245E-14  0.12500000000E+03  0.12500000000E+03 0.  0.
    3000001    1    3    3    0    0 -0.21262982433E+02  0.11051368759E+02  0.29916087047E+02  0.38343440607E+02  0.10000000000E+01 0.  1.
    1000022    2    1    0    0    0 -0.38723211668E+02  0.11637149254E+02  0.46597636743E+02  0.62499999668E+02  0.99999921907E+01 0.  0.
    3000022    2    3    3    0    0 -0.17460229235E+02  0.58578049451E+00  0.16681549696E+02  0.24156559061E+02  0.25000332970E+00 0.  0.
    1000022    2    1    0    0    0  0.38723211668E+02 -0.11637149254E+02 -0.46597636743E+02  0.62500000332E+02  0.99999963428E+01 0.  0.
    3000022    2    5    5    0    0  0.47849637238E+01  0.12814339214E+01 -0.86215208973E+01  0.99464101647E+01  0.25000369574E+00 0.  0.
        -13    1    4    4    0    0 -0.58386631547E+01  0.23124644451E+00  0.55239979308E+01  0.80417063172E+01  0.10500000000E+00 0.  1.
         13    1    4    4    0    0 -0.11621566080E+02  0.35453405000E+00  0.11157551765E+02  0.16114852743E+02  0.10500000000E+00 0. -1.
    3000001    1    5    5    0    0  0.33938247944E+02 -0.12918583175E+02 -0.37976115846E+02  0.52553590167E+02  0.10000000000E+01 0.  1.
        -13    1    6    6    0    0  0.20317192980E+01  0.55590983396E+00 -0.37964413265E+01  0.43429150112E+01  0.10500000000E+00 0.  1.
         13    1    6    6    0    0  0.27532444259E+01  0.72552408749E+00 -0.48250795709E+01  0.56034951535E+01  0.10500000000E+00 0. -1.
</event>
<event>
11    0  0.3482687E-009  0.9118800E+02  0.7816531E-02  0.1126479E+00
         25   -1    0    0    0    0  0.00000000000E+00  0.00000000000E+00  0.99999998245E-14  0.12500000000E+03  0.12500000000E+03 0.  0.
    3000001    1    3    3    0    0 -0.12045242768E+02 -0.56072373781E+01  0.12665490801E+01  0.13384062572E+02  0.10000000000E+01 0.  1.
    1000022    2    1    0    0    0 -0.60412935888E+02 -0.11512137191E+02 -0.48987678171E+01  0.62499999241E+02  0.99999926841E+01 0.  0.
    3000022    2    3    3    0    0 -0.48367693120E+02 -0.59048998133E+01 -0.61653168971E+01  0.49115936669E+02  0.25004578756E+00 0.  0.
    1000022    2    1    0    0    0  0.60412935888E+02  0.11512137191E+02  0.48987678171E+01  0.62500000759E+02  0.10000002176E+02 0.  0.
    3000022    2    5    5    0    0  0.40946169163E+02  0.11637515815E+02  0.59314764618E+01  0.42979826230E+02  0.25001254417E+00 0.  0.
        -13    1    4    4    0    0 -0.35581793246E+02 -0.43774206819E+01 -0.45307049643E+01  0.36135358513E+02  0.10500000000E+00 0. -1.
         13    1    4    4    0    0 -0.12785899874E+02 -0.15274791313E+01 -0.16346119328E+01  0.12980578155E+02  0.10500000000E+00 0.  1.
    3000001    1    5    5    0    0  0.19466766724E+02 -0.12537862403E+00 -0.10327086447E+01  0.19520174529E+02  0.10000000000E+01 0. -1.
        -13    1    6    6    0    0  0.22895497626E+02  0.64771227424E+01  0.32553773232E+01  0.24015941311E+02  0.10500000000E+00 0.  1.
         13    1    6    6    0    0  0.18050671537E+02  0.51603930730E+01  0.26760991386E+01  0.18963884919E+02  0.10500000000E+00 0. -1.
</event>
<event>
11    0  0.3482687E-009  0.9118800E+02  0.7816531E-02  0.1126479E+00
         25   -1    0    0    0    0  0.00000000000E+00  0.00000000000E+00  0.99999998245E-14  0.12500000000E+03  0.12500000000E+03 0.  0.
    3000001    1    3    3    0    0 -0.10436928726E+02 -0.13641324280E+02 -0.19978603604E+02  0.26365883473E+02  0.10000000000E+01 0.  1.
    1000022    2    1    0    0    0 -0.34399199773E+02 -0.30165456782E+02 -0.41388286530E+02  0.62500000566E+02  0.10000004053E+02 0.  0.
    3000022    2    3    3    0    0 -0.23962271046E+02 -0.16524132502E+02 -0.21409682926E+02  0.36134117093E+02  0.25001296449E+00 0.  0.
    1000022    2    1    0    0    0  0.34399199773E+02  0.30165456782E+02  0.41388286530E+02  0.62499999434E+02  0.99999969747E+01 0.  0.
    3000022    2    5    5    0    0  0.29843998629E+02  0.24985883616E+02  0.29978083856E+02  0.49129488572E+02  0.25000288140E+00 0.  0.
        -13    1    4    4    0    0 -0.18441665931E+02 -0.12725647319E+02 -0.16477741900E+02  0.27813021143E+02  0.10500000000E+00 0.  1.
         13    1    4    4    0    0 -0.55206051152E+01 -0.37984851824E+01 -0.49319410259E+01  0.83210959496E+01  0.10500000000E+00 0. -1.
    3000001    1    5    5    0    0  0.45552011435E+01  0.51795731654E+01  0.11410202674E+02  0.13370510862E+02  0.10000000000E+01 0. -1.
        -13    1    6    6    0    0  0.16591383193E+02  0.13873759207E+02  0.16739735823E+02  0.27349313907E+02  0.10500000000E+00 0. -1.
         13    1    6    6    0    0  0.13252615436E+02  0.11112124410E+02  0.13238348033E+02  0.21780174665E+02  0.10500000000E+00 0.  1.
</event>
<event>
11    0  0.3482687E-009  0.9118800E+02  0.7816531E-02  0.1126479E+00
         25   -1    0    0    0    0  0.00000000000E+00  0.00000000000E+00  0.99999998245E-14  0.12500000000E+03  0.12500000000E+03 0.  0.
    3000001    1    3    3    0    0 -0.18714751902E+02 -0.11300447623E+02 -0.12418935773E+02  0.25162909628E+02  0.10000000000E+01 0.  1.
    1000022    2    1    0    0    0 -0.37139035497E+02 -0.33374060477E+02 -0.36236925191E+02  0.62499992165E+02  0.99999201457E+01 0.  0.
    3000022    2    3    3    0    0 -0.18424283595E+02 -0.22073612855E+02 -0.23817989418E+02  0.37337082537E+02  0.25000397948E+00 0.  0.
    1000022    2    1    0    0    0  0.37139035497E+02  0.33374060477E+02  0.36236925191E+02  0.62500007835E+02  0.10000018087E+02 0.  0.
    3000022    2    5    5    0    0  0.16071914530E+02  0.15631006640E+02  0.10375875087E+02  0.24705385760E+02  0.24999303446E+00 0.  0.
        -13    1    4    4    0    0 -0.10571566301E+02 -0.12606579879E+02 -0.13698107938E+02  0.21408714496E+02  0.10500000000E+00 0.  1.
         13    1    4    4    0    0 -0.78527172945E+01 -0.94670329757E+01 -0.10119881480E+02  0.15928368040E+02  0.10500000000E+00 0. -1.
    3000001    1    5    5    0    0  0.21067120967E+02  0.17743053838E+02  0.25861050104E+02  0.37794622075E+02  0.10000000000E+01 0.  1.
        -13    1    6    6    0    0  0.65224748329E+01  0.62700124807E+01  0.42260381835E+01  0.99862985226E+01  0.10500000000E+00 0. -1.
         13    1    6    6    0    0  0.95494396968E+01  0.93609941588E+01  0.61498369034E+01  0.14719087237E+02  0.10500000000E+00 0.  1.
</event>
<event>
11    0  0.3482687E-009  0.9118800E+02  0.7816531E-02  0.1126479E+00
         25   -1    0    0    0    0  0.00000000000E+00  0.00000000000E+00  0.99999998245E-14  0.12500000000E+03  0.12500000000E+03 0.  0.
    3000001    1    3    3    0    0  0.13062255288E+01  0.59311660434E+01  0.10639880322E+02  0.12291948952E+02  0.10000000000E+01 0.  1.
    1000022    2    1    0    0    0  0.98926892157E+01  0.44751388743E+02  0.41300094359E+02  0.62499998933E+02  0.99999989079E+01 0.  0.
    3000022    2    3    3    0    0  0.85864636869E+01  0.38820222699E+02  0.30660214038E+02  0.50208049981E+02  0.25001797949E+00 0.  0.
    1000022    2    1    0    0    0 -0.98926892157E+01 -0.44751388743E+02 -0.41300094359E+02  0.62500001067E+02  0.10000012251E+02 0.  0.
    3000022    2    5    5    0    0 -0.92151977942E+01 -0.36047957172E+02 -0.28030259574E+02  0.46584686714E+02  0.24999562590E+00 0.  0.
        -13    1    4    4    0    0  0.59882140796E+01  0.26920113501E+02  0.21310001428E+02  0.34852236723E+02  0.10500000000E+00 0.  1.
         13    1    4    4    0    0  0.25982496073E+01  0.11900109199E+02  0.93502126097E+01  0.15355813258E+02  0.10500000000E+00 0. -1.
    3000001    1    5    5    0    0 -0.67749142152E+00 -0.87034315708E+01 -0.13269834786E+02  0.15915314353E+02  0.10000000000E+01 0. -1.
        -13    1    6    6    0    0 -0.50797674705E+01 -0.19602676289E+02 -0.15245704728E+02  0.25347810416E+02  0.10500000000E+00 0.  1.
         13    1    6    6    0    0 -0.41354303237E+01 -0.16445280883E+02 -0.12784554846E+02  0.21236876298E+02  0.10500000000E+00 0. -1.
</event>
<event>
11    0  0.3482687E-009  0.9118800E+02  0.7816531E-02  0.1126479E+00
         25   -1    0    0    0    0  0.00000000000E+00  0.00000000000E+00  0.99999998245E-14  0.12500000000E+03  0.12500000000E+03 0.  0.
    3000001    1    3    3    0    0  0.15293697747E+02  0.29526508037E+01  0.32216316530E+02  0.35798133867E+02  0.10000000000E+01 0. -1.
    1000022    2    1    0    0    0  0.22153159539E+02  0.12400244498E+02  0.56229188014E+02  0.62500001537E+02  0.10000003307E+02 0.  0.
    3000022    2    3    3    0    0  0.68594617919E+01  0.94475936945E+01  0.24012871484E+02  0.26701867670E+02  0.24999492447E+00 0.  0.
    1000022    2    1    0    0    0 -0.22153159539E+02 -0.12400244498E+02 -0.56229188014E+02  0.62499998463E+02  0.99999840985E+01 0.  0.
    3000022    2    5    5    0    0 -0.20469840269E+00 -0.10601319812E+00  0.40072818270E+00  0.52556439561E+00  0.24998924634E+00 0.  0.
        -13    1    4    4    0    0  0.42930378733E+01  0.58507178015E+01  0.15034597054E+02  0.16694646045E+02  0.10500000000E+00 0.  1.
         13    1    4    4    0    0  0.25664239186E+01  0.35968758930E+01  0.89782744298E+01  0.10007221625E+02  0.10500000000E+00 0. -1.
    3000001    1    5    5    0    0 -0.21948461137E+02 -0.12294231300E+02 -0.56629916197E+02  0.61974434068E+02  0.10000000000E+01 0.  1.
        -13    1    6    6    0    0 -0.16608910614E+00 -0.11471034896E+00  0.25765997609E+00  0.34374077241E+00  0.10500000000E+00 0.  1.
         13    1    6    6    0    0 -0.38609296550E-01  0.86971508356E-02  0.14306820661E+00  0.18182362320E+00  0.10500000000E+00 0. -1.
</event>
<event>
11    0  0.3482687E-009  0.9118800E+02  0.7816531E-02  0.1126479E+00
         25   -1    0    0    0    0  0.00000000000E+00  0.00000000000E+00  0.99999998245E-14  0.12500000000E+03  0.12500000000E+03 0.  0.
    3000001    1    3    3    0    0  0.44931383575E+01  0.18622761760E+02 -0.81827176450E+01  0.20855512843E+02  0.10000000000E+01 0. -1.
    1000022    2    1    0    0    0  0.11544053772E+02  0.59549561124E+02 -0.11262085119E+02  0.62499999866E+02  0.10000000724E+02 0.  0.
    3000022    2    3    3    0    0  0.70509154140E+01  0.40926799364E+02 -0.30793674737E+01  0.41644487023E+02  0.24996208704E+00 0.  0.
    1000022    2    1    0    0    0 -0.11544053772E+02 -0.59549561124E+02  0.11262085119E+02  0.62500000134E+02  0.10000002395E+02 0.  0.
    3000022    2    5    5    0    0 -0.11621696603E+02 -0.59062246509E+02  0.11663428307E+02  0.61314850228E+02  0.25000794181E+00 0.  0.
        -13    1    4    4    0    0  0.39119084681E+01  0.22968335600E+02 -0.17765739792E+01  0.23366957616E+02  0.10500000000E+00 0.  1.
         13    1    4    4    0    0  0.31390069459E+01  0.17958463764E+02 -0.13027934945E+01  0.18277529408E+02  0.10500000000E+00 0. -1.
    3000001    1    5    5    0    0  0.77642831087E-01 -0.48731461503E+00 -0.40134318873E+00  0.11851499054E+01  0.10000000000E+01 0.  1.
        -13    1    6    6    0    0 -0.49773126204E+01 -0.25197167933E+02  0.49129169996E+01  0.26149927174E+02  0.10500000000E+00 0. -1.
         13    1    6    6    0    0 -0.66443839823E+01 -0.33865078577E+02  0.67505113079E+01  0.35164923055E+02  0.10500000000E+00 0.  1.
</event>
<event>
11    0  0.3482687E-009  0.9118800E+02  0.7816531E-02  0.1126479E+00
         25   -1    0    0    0    0  0.00000000000E+00  0.00000000000E+00  0.99999998245E-14  0.12500000000E+03  0.12500000000E+03 0.  0.
    3000001    1    3    3    0    0  0.19640585215E+02  0.17618827446E+02  0.35842761290E+02  0.44518301911E+02  0.10000000000E+01 0. -1.
    1000022    2    1    0    0    0  0.31374465308E+02  0.26924463327E+02  0.45792643003E+02  0.62499999508E+02  0.99999993281E+01 0.  0.
    3000022    2    3    3    0    0  0.11733880093E+02  0.93056358810E+01  0.99498817127E+01  0.17981697597E+02  0.25000239500E+00 0.  0.
    1000022    2    1    0    0    0 -0.31374465308E+02 -0.26924463327E+02 -0.45792643003E+02  0.62500000492E+02  0.10000005472E+02 0.  0.
    3000022    2    5    5    0    0 -0.10611854133E+02 -0.13232075517E+02 -0.24169361512E+02  0.29528288234E+02  0.24999904307E+00 0.  0.
        -13    1    4    4    0    0  0.46686414340E+01  0.36716909209E+01  0.40158792328E+01  0.71704838100E+01  0.10500000000E+00 0.  1.
         13    1    4    4    0    0  0.70652386587E+01  0.56339449601E+01  0.59340024799E+01  0.10811213787E+02  0.10500000000E+00 0. -1.
    3000001    1    5    5    0    0 -0.20762611175E+02 -0.13692387811E+02 -0.21623281491E+02  0.32971712258E+02  0.10000000000E+01 0. -1.
        -13    1    6    6    0    0 -0.60085553255E+01 -0.74846882094E+01 -0.13790564659E+02  0.16802202038E+02  0.10500000000E+00 0. -1.
         13    1    6    6    0    0 -0.46032988074E+01 -0.57473873071E+01 -0.10378796853E+02  0.12726086196E+02  0.10500000000E+00 0.  1.
</event>
<event>
11    0  0.3482687E-009  0.9118800E+02  0.7816531E-02  0.1126479E+00
         25   -1    0    0    0    0  0.00000000000E+00  0.00000000000E+00  0.99999998245E-14  0.12500000000E+03  0.12500000000E+03 0.  0.
    3000001    1    3    3    0    0  0.66377937793E+00  0.32150479624E+02  0.16451030046E+02  0.36134890794E+02  0.10000000000E+01 0.  1.
    1000022    2    1    0    0    0  0.48240687494E+01  0.50935912549E+02  0.34474800002E+02  0.62500005713E+02  0.10000002620E+02 0.  0.
    3000022    2    3    3    0    0  0.41602893715E+01  0.18785432925E+02  0.18023769956E+02  0.26365114919E+02  0.25000682834E+00 0.  0.
    1000022    2    1    0    0    0 -0.48240687494E+01 -0.50935912549E+02 -0.34474800002E+02  0.62499994287E+02  0.99999312091E+01 0.  0.
    3000022    2    5    5    0    0 -0.52495530995E+00 -0.49328508632E-02 -0.16441395871E+01  0.17439301233E+01  0.24998976477E+00 0.  0.
        -13    1    4    4    0    0  0.18623458364E+01  0.82158606127E+01  0.79616167582E+01  0.11591680811E+02  0.10500000000E+00 0.  1.
         13    1    4    4    0    0  0.22979435351E+01  0.10569572313E+02  0.10062153198E+02  0.14773434108E+02  0.10500000000E+00 0. -1.
    3000001    1    5    5    0    0 -0.42991134395E+01 -0.50930979698E+02 -0.32830660415E+02  0.60756064164E+02  0.10000000000E+01 0.  1.
        -13    1    6    6    0    0 -0.36138369542E+00  0.38408682850E-01 -0.11710977395E+01  0.12306779910E+01  0.10500000000E+00 0.  1.
         13    1    6    6    0    0 -0.16357161453E+00 -0.43341533713E-01 -0.47304184764E+00  0.51325213224E+00  0.10500000000E+00 0. -1.
</event>
<event>
11    0  0.3482687E-009  0.9118800E+02  0.7816531E-02  0.1126479E+00
         25   -1    0    0    0    0  0.00000000000E+00  0.00000000000E+00  0.99999998245E-14  0.12500000000E+03  0.12500000000E+03 0.  0.
    3000001    1    3    3    0    0  0.45276391918E+01 -0.12748479555E+02 -0.10890279855E+02  0.17396018020E+02  0.10000000000E+01 0.  1.
    1000022    2    1    0    0    0  0.20921726247E+02 -0.33271700457E+02 -0.47555496475E+02  0.62500001102E+02  0.10000010618E+02 0.  0.
    3000022    2    3    3    0    0  0.16394087056E+02 -0.20523220902E+02 -0.36665216619E+02  0.45103983082E+02  0.24998715571E+00 0.  0.
    1000022    2    1    0    0    0 -0.20921726247E+02  0.33271700457E+02  0.47555496475E+02  0.62499998898E+02  0.99999968412E+01 0.  0.
    3000022    2    5    5    0    0 -0.52919760639E+01  0.17620354123E+02  0.20768273764E+02  0.27746451836E+02  0.25000849299E+00 0.  0.
        -13    1    4    4    0    0  0.98980894669E+01 -0.12416053003E+02 -0.22059788103E+02  0.27180430891E+02  0.10500000000E+00 0.  1.
         13    1    4    4    0    0  0.64959975887E+01 -0.81071678988E+01 -0.14605428516E+02  0.17923552191E+02  0.10500000000E+00 0. -1.
    3000001    1    5    5    0    0 -0.15629750184E+02  0.15651346334E+02  0.26787222711E+02  0.34753547062E+02  0.10000000000E+01 0.  1.
        -13    1    6    6    0    0 -0.13474702930E+01  0.45946033616E+01  0.53958731792E+01  0.72147438351E+01  0.10500000000E+00 0.  1.
         13    1    6    6    0    0 -0.39445057710E+01  0.13025750762E+02  0.15372400585E+02  0.20531708001E+02  0.10500000000E+00 0. -1.
</event>
<event>
11    0  0.3482687E-009  0.9118800E+02  0.7816531E-02  0.1126479E+00
         25   -1    0    0    0    0  0.00000000000E+00  0.00000000000E+00  0.99999998245E-14  0.12500000000E+03  0.12500000000E+03 0.  0.
    3000001    1    3    3    0    0 -0.80434405970E+01 -0.35985659909E+02 -0.10591231890E+02  0.38377582632E+02  0.10000000000E+01 0.  1.
    1000022    2    1    0    0    0 -0.19610298097E+02 -0.55035931969E+02 -0.19817479502E+02  0.62500003895E+02  0.10000019699E+02 0.  0.
    3000022    2    3    3    0    0 -0.11566857500E+02 -0.19050272060E+02 -0.92262476118E+01  0.24122421264E+02  0.25000925664E+00 0.  0.
    1000022    2    1    0    0    0  0.19610298097E+02  0.55035931969E+02  0.19817479502E+02  0.62499996105E+02  0.99999710057E+01 0.  0.
    3000022    2    5    5    0    0  0.16065229785E+02  0.30601877205E+02  0.11766988694E+02  0.36511518970E+02  0.24999605941E+00 0.  0.
        -13    1    4    4    0    0 -0.76763392141E+01 -0.12674637955E+02 -0.60786252522E+01  0.16016658234E+02  0.10500000000E+00 0. -1.
         13    1    4    4    0    0 -0.38905182864E+01 -0.63756341048E+01 -0.31476223595E+01  0.81057630297E+01  0.10500000000E+00 0.  1.
    3000001    1    5    5    0    0  0.35450683122E+01  0.24434054764E+02  0.80504908081E+01  0.25988477135E+02  0.10000000000E+01 0. -1.
        -13    1    6    6    0    0  0.10939098310E+02  0.20832329303E+02  0.79573643359E+01  0.24839091936E+02  0.10500000000E+00 0. -1.
         13    1    6    6    0    0  0.51261314753E+01  0.97695479023E+01  0.38096243579E+01  0.11672427034E+02  0.10500000000E+00 0.  1.
</event>
<event>
11    0  0.3482687E-009  0.9118800E+02  0.7816531E-02  0.1126479E+00
         25   -1    0    0    0    0  0.00000000000E+00  0.00000000000E+00  0.99999998245E-14  0.12500000000E+03  0.12500000000E+03 0.  0.
    3000001    1    3    3    0    0 -0.71625064539E+00 -0.61770096014E+01 -0.93124399342E+01  0.11242330725E+02  0.10000000000E+01 0. -1.
    1000022    2    1    0    0    0  0.10483770723E+02 -0.44748409865E+02 -0.41157262465E+02  0.62499999648E+02  0.10000003416E+02 0.  0.
    3000022    2    3    3    0    0  0.11200021368E+02 -0.38571400264E+02 -0.31844822531E+02  0.51257668923E+02  0.25000883476E+00 0.  0.
    1000022    2    1    0    0    0 -0.10483770723E+02  0.44748409865E+02  0.41157262465E+02  0.62500000352E+02  0.10000007819E+02 0.  0.
    3000022    2    5    5    0    0  0.19424167468E+01  0.54981659520E+01  0.45746783075E+01  0.74157263176E+01  0.25000709287E+00 0.  0.
        -13    1    4    4    0    0  0.69249966185E+01 -0.23992248323E+02 -0.19856932656E+02  0.31904425356E+02  0.10500000000E+00 0.  1.
         13    1    4    4    0    0  0.42750247498E+01 -0.14579151940E+02 -0.11987889875E+02  0.19353243567E+02  0.10500000000E+00 0. -1.
    3000001    1    5    5    0    0 -0.12426187470E+02  0.39250243913E+02  0.36582584158E+02  0.55084274035E+02  0.10000000000E+01 0. -1.
        -13    1    6    6    0    0  0.80773508687E+00  0.21704957465E+01  0.18803936617E+01  0.29850281538E+01  0.10500000000E+00 0. -1.
         13    1    6    6    0    0  0.11346816600E+01  0.33276702055E+01  0.26942846458E+01  0.44306981638E+01  0.10500000000E+00 0.  1.
</event>
<event>
11    0  0.3482687E-009  0.9118800E+02  0.7816531E-02  0.1126479E+00
         25   -1    0    0    0    0  0.00000000000E+00  0.00000000000E+00  0.99999998245E-14  0.12500000000E+03  0.12500000000E+03 0.  0.
    3000001    1    3    3    0    0  0.28296683013E+02  0.21425474745E+02 -0.31544608054E+02  0.47495426462E+02  0.10000000000E+01 0. -1.
    1000022    2    1    0    0    0  0.32555256952E+02  0.27683720392E+02 -0.44497366200E+02  0.62500010228E+02  0.10000127487E+02 0.  0.
    3000022    2    3    3    0    0  0.42585739399E+01  0.62582456469E+01 -0.12952758146E+02  0.15004583765E+02  0.24999961248E+00 0.  0.
    1000022    2    1    0    0    0 -0.32555256952E+02 -0.27683720392E+02  0.44497366200E+02  0.62499989772E+02  0.99999996425E+01 0.  0.
    3000022    2    5    5    0    0 -0.47225692506E+01 -0.69458179197E+01  0.13778742571E+02  0.16138875233E+02  0.25000012101E+00 0.  0.
        -13    1    4    4    0    0  0.18984886695E+01  0.28446793020E+01 -0.59698104050E+01  0.68808517519E+01  0.10500000000E+00 0. -1.
         13    1    4    4    0    0  0.23600852704E+01  0.34135663449E+01 -0.69829477410E+01  0.81237320136E+01  0.10500000000E+00 0.  1.
    3000001    1    5    5    0    0 -0.27832687702E+02 -0.20737902472E+02  0.30718623629E+02  0.46361114539E+02  0.10000000000E+01 0. -1.
        -13    1    6    6    0    0 -0.30301918117E+01 -0.44122197172E+01  0.86773732153E+01  0.10195958815E+02  0.10500000000E+00 0. -1.
         13    1    6    6    0    0 -0.16923774389E+01 -0.25335982025E+01  0.51013693554E+01  0.59429164177E+01  0.10500000000E+00 0.  1.
</event>
<event>
11    0  0.3482687E-009  0.9118800E+02  0.7816531E-02  0.1126479E+00
         25   -1    0    0    0    0  0.00000000000E+00  0.00000000000E+00  0.99999998245E-14  0.12500000000E+03  0.12500000000E+03 0.  0.
    3000001    1    3    3    0    0 -0.70798448654E+01  0.13003500340E+02  0.10678221557E+02  0.18282221967E+02  0.10000000000E+01 0. -1.
    1000022    2    1    0    0    0 -0.12327671646E+02  0.40218202578E+02  0.45130644895E+02  0.62499997425E+02  0.99999631317E+01 0.  0.
    3000022    2    3    3    0    0 -0.52478267807E+01  0.27214702238E+02  0.34452423338E+02  0.44217775458E+02  0.24997758790E+00 0.  0.
    1000022    2    1    0    0    0  0.12327671646E+02 -0.40218202578E+02 -0.45130644895E+02  0.62500002575E+02  0.99999953232E+01 0.  0.
    3000022    2    5    5    0    0  0.13493948746E+02 -0.33824306128E+02 -0.35652131476E+02  0.50963784360E+02  0.24999938081E+00 0.  0.
        -13    1    4    4    0    0 -0.13044715188E+01  0.68038704116E+01  0.85720495247E+01  0.11022039583E+02  0.10500000000E+00 0.  1.
         13    1    4    4    0    0 -0.39433552619E+01  0.20410831826E+02  0.25880373813E+02  0.33195735875E+02  0.10500000000E+00 0. -1.
    3000001    1    5    5    0    0 -0.11662770994E+01 -0.63938964501E+01 -0.94785134191E+01  0.11536218216E+02  0.10000000000E+01 0. -1.
        -13    1    6    6    0    0  0.43393624670E+01 -0.10777362328E+02 -0.11422691332E+02  0.16293265715E+02  0.10500000000E+00 0.  1.
         13    1    6    6    0    0  0.91545862785E+01 -0.23046943800E+02 -0.24229440143E+02  0.34670518645E+02  0.10500000000E+00 0. -1.
</event>
<event>
11    0  0.3482687E-009  0.9118800E+02  0.7816531E-02  0.1126479E+00
         25   -1    0    0    0    0  0.00000000000E+00  0.00000000000E+00  0.99999998245E-14  0.12500000000E+03  0.12500000000E+03 0.  0.
    3000001    1    3    3    0    0  0.11526737620E+00 -0.16752879466E+02 -0.18528084027E+01  0.16885057179E+02  0.10000000000E+01 0.  1.
    1000022    2    1    0    0    0  0.11990120304E+02 -0.60368683417E+02  0.42554187613E+01  0.62500004562E+02  0.10000052947E+02 0.  0.
    3000022    2    3    3    0    0  0.11874852928E+02 -0.43615803952E+02  0.61082271640E+01  0.45614947383E+02  0.24999848855E+00 0.  0.
    1000022    2    1    0    0    0 -0.11990120304E+02  0.60368683417E+02 -0.42554187613E+01  0.62499995438E+02  0.99999959234E+01 0.  0.
    3000022    2    5    5    0    0 -0.43274196601E+00  0.12658496016E+02 -0.43660545680E+01  0.13399616455E+02  0.25000334850E+00 0.  0.
        -13    1    4    4    0    0  0.76306504672E+01 -0.28063833975E+02  0.39871261737E+01  0.29354962171E+02  0.10500000000E+00 0.  1.
         13    1    4    4    0    0  0.42442024607E+01 -0.15551969977E+02  0.21211009902E+01  0.16259985212E+02  0.10500000000E+00 0. -1.
    3000001    1    5    5    0    0 -0.11557378338E+02  0.47710187402E+02  0.11063580671E+00  0.49100378983E+02  0.10000000000E+01 0. -1.
        -13    1    6    6    0    0 -0.35018332658E+00  0.95143850638E+01 -0.32765064986E+01  0.10069392799E+02  0.10500000000E+00 0. -1.
         13    1    6    6    0    0 -0.82558639423E-01  0.31441109519E+01 -0.10895480694E+01  0.33302236565E+01  0.10500000000E+00 0.  1.
</event>
<event>
11    0  0.3482687E-009  0.9118800E+02  0.7816531E-02  0.1126479E+00
         25   -1    0    0    0    0  0.00000000000E+00  0.00000000000E+00  0.99999998245E-14  0.12500000000E+03  0.12500000000E+03 0.  0.
    3000001    1    3    3    0    0 -0.22220171642E+02 -0.13937214115E+02 -0.53396103725E+02  0.59498956781E+02  0.10000000000E+01 0.  1.
    1000022    2    1    0    0    0 -0.21515319374E+02 -0.15810757992E+02 -0.55617990722E+02  0.62499999651E+02  0.10000001420E+02 0.  0.
    3000022    2    3    3    0    0  0.70485226793E+00 -0.18735438763E+01 -0.22218869979E+01  0.30010428703E+01  0.24998620398E+00 0.  0.
    1000022    2    1    0    0    0  0.21515319374E+02  0.15810757992E+02  0.55617990722E+02  0.62500000349E+02  0.10000005777E+02 0.  0.
    3000022    2    5    5    0    0  0.11248782061E+02  0.96229627345E+01  0.19848363894E+02  0.24761998256E+02  0.24999737379E+00 0.  0.
        -13    1    4    4    0    0  0.47864565553E+00 -0.13115966077E+01 -0.14762866524E+01  0.20346583509E+01  0.10500000000E+00 0. -1.
         13    1    4    4    0    0  0.22620661240E+00 -0.56194726858E+00 -0.74560034554E+00  0.96638451945E+00  0.10500000000E+00 0.  1.
    3000001    1    5    5    0    0  0.10266537313E+02  0.61877952570E+01  0.35769626828E+02  0.37738002093E+02  0.10000000000E+01 0. -1.
        -13    1    6    6    0    0  0.34527921557E+01  0.29589424405E+01  0.60185069639E+01  0.75439091399E+01  0.10500000000E+00 0.  1.
         13    1    6    6    0    0  0.77959899051E+01  0.66640202940E+01  0.13829856931E+02  0.17218089116E+02  0.10500000000E+00 0. -1.
</event>
<event>
11    0  0.3482687E-009  0.9118800E+02  0.7816531E-02  0.1126479E+00
         25   -1    0    0    0    0  0.00000000000E+00  0.00000000000E+00  0.99999998245E-14  0.12500000000E+03  0.12500000000E+03 0.  0.
    3000001    1    3    3    0    0 -0.10905022602E+02  0.18097159982E+01  0.14783209415E+01  0.11197322124E+02  0.10000000000E+01 0. -1.
    1000022    2    1    0    0    0 -0.53077692189E+02  0.17812888757E+02  0.25917362026E+02  0.62500000683E+02  0.10000000856E+02 0.  0.
    3000022    2    3    3    0    0 -0.42172669587E+02  0.16003172758E+02  0.24439041084E+02  0.51302678560E+02  0.24999970299E+00 0.  0.
    1000022    2    1    0    0    0  0.53077692189E+02 -0.17812888757E+02 -0.25917362026E+02  0.62499999317E+02  0.99999923132E+01 0.  0.
    3000022    2    5    5    0    0  0.16326651032E+01 -0.27886718970E+01 -0.10291129653E+01  0.34005674634E+01  0.24999857883E+00 0.  0.
        -13    1    4    4    0    0 -0.19382423832E+02  0.72835717216E+01  0.11211732478E+02  0.23546607841E+02  0.10500000000E+00 0. -1.
         13    1    4    4    0    0 -0.22790245755E+02  0.87196010367E+01  0.13227308606E+02  0.27756070719E+02  0.10500000000E+00 0.  1.
    3000001    1    5    5    0    0  0.51445027086E+02 -0.15024216860E+02 -0.24888249060E+02  0.59099431853E+02  0.10000000000E+01 0.  1.
        -13    1    6    6    0    0  0.53766997836E+00 -0.89317760712E+00 -0.38534763362E+00  0.11164107856E+01  0.10500000000E+00 0.  1.
         13    1    6    6    0    0  0.10949951248E+01 -0.18954942899E+01 -0.64376533167E+00  0.22841566777E+01  0.10500000000E+00 0. -1.
</event>
<event>
11    0  0.3482687E-009  0.9118800E+02  0.7816531E-02  0.1126479E+00
         25   -1    0    0    0    0  0.00000000000E+00  0.00000000000E+00  0.99999998245E-14  0.12500000000E+03  0.12500000000E+03 0.  0.
    3000001    1    3    3    0    0  0.39042470760E+01 -0.36820720087E+01  0.22382653237E+01  0.59000534885E+01  0.10000000000E+01 0. -1.
    1000022    2    1    0    0    0  0.41969912849E+02 -0.16299163051E+02  0.42179541674E+02  0.62500000099E+02  0.99999987942E+01 0.  0.
    3000022    2    3    3    0    0  0.38065665773E+02 -0.12617091042E+02  0.39941276350E+02  0.56599946611E+02  0.25000551481E+00 0.  0.
    1000022    2    1    0    0    0 -0.41969912849E+02  0.16299163051E+02 -0.42179541674E+02  0.62499999901E+02  0.99999975511E+01 0.  0.
    3000022    2    5    5    0    0 -0.26126536950E+02  0.14582793988E+02 -0.30420086256E+02  0.42669637464E+02  0.24999998253E+00 0.  0.
        -13    1    4    4    0    0  0.15625526113E+02 -0.51725786665E+01  0.16483446835E+02  0.23294370155E+02  0.10500000000E+00 0.  1.
         13    1    4    4    0    0  0.22440139660E+02 -0.74445123755E+01  0.23457829515E+02  0.33305576456E+02  0.10500000000E+00 0. -1.
    3000001    1    5    5    0    0 -0.15843375899E+02  0.17163690633E+01 -0.11759455418E+02  0.19830362437E+02  0.10000000000E+01 0. -1.
        -13    1    6    6    0    0 -0.13069465563E+02  0.73715373581E+01 -0.15239856018E+02  0.21387256242E+02  0.10500000000E+00 0.  1.
         13    1    6    6    0    0 -0.13057071387E+02  0.72112566294E+01 -0.15180230238E+02  0.21282381221E+02  0.10500000000E+00 0. -1.
</event>
<event>
11    0  0.3482687E-009  0.9118800E+02  0.7816531E-02  0.1126479E+00
         25   -1    0    0    0    0  0.00000000000E+00  0.00000000000E+00  0.99999998245E-14  0.12500000000E+03  0.12500000000E+03 0.  0.
    3000001    1    3    3    0    0 -0.35398712042E+02  0.27336046343E+02 -0.14005706177E+02  0.46877372467E+02  0.10000000000E+01 0.  1.
    1000022    2    1    0    0    0 -0.43117327735E+02  0.38038898970E+02 -0.22364886628E+02  0.62499999415E+02  0.99999993630E+01 0.  0.
    3000022    2    3    3    0    0 -0.77186156922E+01  0.10702852627E+02 -0.83591804511E+01  0.15622626948E+02  0.24998478982E+00 0.  0.
    1000022    2    1    0    0    0  0.43117327735E+02 -0.38038898970E+02  0.22364886628E+02  0.62500000585E+02  0.10000006671E+02 0.  0.
    3000022    2    5    5    0    0  0.57896461204E+01 -0.10175472397E+02  0.33655932970E+01  0.12184004101E+02  0.24999399637E+00 0.  0.
        -13    1    4    4    0    0 -0.19112420565E+01  0.26147397281E+01 -0.20653783874E+01  0.38427233738E+01  0.10500000000E+00 0.  1.
         13    1    4    4    0    0 -0.58073736357E+01  0.80881128987E+01 -0.62938020636E+01  0.11779903574E+02  0.10500000000E+00 0. -1.
    3000001    1    5    5    0    0  0.37327681614E+02 -0.27863426573E+02  0.18999293331E+02  0.50315996484E+02  0.10000000000E+01 0. -1.
        -13    1    6    6    0    0  0.27462890307E+01 -0.48185111460E+01  0.15243443143E+01  0.57528083310E+01  0.10500000000E+00 0.  1.
         13    1    6    6    0    0  0.30433570897E+01 -0.53569612506E+01  0.18412489827E+01  0.64311957700E+01  0.10500000000E+00 0. -1.
</event>
<event>
11    0  0.3482687E-009  0.9118800E+02  0.7816531E-02  0.1126479E+00
         25   -1    0    0    0    0  0.00000000000E+00  0.00000000000E+00  0.99999998245E-14  0.12500000000E+03  0.12500000000E+03 0.  0.
    3000001    1    3    3    0    0 -0.91092768734E+01  0.36992251417E+01 -0.14281407060E+02  0.17367261713E+02  0.10000000000E+01 0. -1.
    1000022    2    1    0    0    0 -0.23160617929E+02  0.25865245821E+02 -0.50998283716E+02  0.62500001246E+02  0.10000002473E+02 0.  0.
    3000022    2    3    3    0    0 -0.14051341055E+02  0.22166020679E+02 -0.36716876656E+02  0.45132739532E+02  0.24997616780E+00 0.  0.
    1000022    2    1    0    0    0  0.23160617929E+02 -0.25865245821E+02  0.50998283716E+02  0.62499998754E+02  0.99999869014E+01 0.  0.
    3000022    2    5    5    0    0  0.17676344757E+02 -0.14629470799E+02  0.38325622035E+02  0.44669792735E+02  0.24999770365E+00 0.  0.
        -13    1    4    4    0    0 -0.77364668359E+01  0.12326620280E+02 -0.20341170946E+02  0.25011452319E+02  0.10500000000E+00 0. -1.
         13    1    4    4    0    0 -0.63148742195E+01  0.98394003994E+01 -0.16375705710E+02  0.20121287214E+02  0.10500000000E+00 0.  1.
    3000001    1    5    5    0    0  0.54842731720E+01 -0.11235775022E+02  0.12672661682E+02  0.17830206019E+02  0.10000000000E+01 0. -1.
        -13    1    6    6    0    0  0.82768451062E+01 -0.67656838651E+01  0.17889164885E+02  0.20840198856E+02  0.10500000000E+00 0.  1.
         13    1    6    6    0    0  0.93994996506E+01 -0.78637869336E+01  0.20436457150E+02  0.23829593879E+02  0.10500000000E+00 0. -1.
</event>
<event>
11    0  0.3482687E-009  0.9118800E+02  0.7816531E-02  0.1126479E+00
         25   -1    0    0    0    0  0.00000000000E+00  0.00000000000E+00  0.99999998245E-14  0.12500000000E+03  0.12500000000E+03 0.  0.
    3000001    1    3    3    0    0  0.14876470348E+02 -0.11587662353E+02 -0.20114410695E+02  0.27589360384E+02  0.10000000000E+01 0.  1.
    1000022    2    1    0    0    0  0.23770941418E+02 -0.26172437451E+02 -0.50558835318E+02  0.62500000233E+02  0.10000003118E+02 0.  0.
    3000022    2    3    3    0    0  0.88944710698E+01 -0.14584775098E+02 -0.30444424624E+02  0.34910639849E+02  0.25000741343E+00 0.  0.
    1000022    2    1    0    0    0 -0.23770941418E+02  0.26172437451E+02  0.50558835318E+02  0.62499999767E+02  0.10000000208E+02 0.  0.
    3000022    2    5    5    0    0 -0.24137393495E+02  0.25072292926E+02  0.45946004604E+02  0.57639669296E+02  0.25000021606E+00 0.  0.
        -13    1    4    4    0    0  0.23445360845E+01 -0.38987739269E+01 -0.80688468472E+01  0.92636171136E+01  0.10500000000E+00 0.  1.
         13    1    4    4    0    0  0.65499349853E+01 -0.10686001171E+02 -0.22375577776E+02  0.25647022735E+02  0.10500000000E+00 0. -1.
    3000001    1    5    5    0    0  0.36645207673E+00  0.11001445246E+01  0.46128307137E+01  0.48603304716E+01  0.10000000000E+01 0.  1.
        -13    1    6    6    0    0 -0.16497790366E+02  0.17189596133E+02  0.31398000729E+02  0.39414524949E+02  0.10500000000E+00 0.  1.
         13    1    6    6    0    0 -0.76396031291E+01  0.78826967929E+01  0.14548003876E+02  0.18225144347E+02  0.10500000000E+00 0. -1.
</event>
<event>
11    0  0.3482687E-009  0.9118800E+02  0.7816531E-02  0.1126479E+00
         25   -1    0    0    0    0  0.00000000000E+00  0.00000000000E+00  0.99999998245E-14  0.12500000000E+03  0.12500000000E+03 0.  0.
    3000001    1    3    3    0    0 -0.80406598859E+01 -0.18941552188E+02 -0.80681579804E+01  0.22125319973E+02  0.10000000000E+01 0.  1.
    1000022    2    1    0    0    0 -0.34086137470E+02 -0.46713578301E+02 -0.21499462802E+02  0.62500000004E+02  0.99999967184E+01 0.  0.
    3000022    2    3    3    0    0 -0.26045477584E+02 -0.27772026113E+02 -0.13431304822E+02  0.40374680031E+02  0.25000277931E+00 0.  0.
    1000022    2    1    0    0    0  0.34086137470E+02  0.46713578301E+02  0.21499462802E+02  0.62499999996E+02  0.99999966728E+01 0.  0.
    3000022    2    5    5    0    0  0.19725158097E+02  0.24152254770E+02  0.16477067567E+02  0.35269952220E+02  0.25000307638E+00 0.  0.
        -13    1    4    4    0    0 -0.74482497920E+01 -0.79974714093E+01 -0.38744909226E+01  0.11595631885E+02  0.10500000000E+00 0. -1.
         13    1    4    4    0    0 -0.18597227792E+02 -0.19774554703E+02 -0.95568138994E+01  0.28779048146E+02  0.10500000000E+00 0.  1.
    3000001    1    5    5    0    0  0.14360979373E+02  0.22561323531E+02  0.50223952349E+01  0.27230047776E+02  0.10000000000E+01 0. -1.
        -13    1    6    6    0    0  0.94917464660E+01  0.11573791478E+02  0.79772944982E+01  0.16961549241E+02  0.10500000000E+00 0.  1.
         13    1    6    6    0    0  0.10233411631E+02  0.12578463292E+02  0.84997730693E+01  0.18308402979E+02  0.10500000000E+00 0. -1.
</event>
<event>
11    0  0.3482687E-009  0.9118800E+02  0.7816531E-02  0.1126479E+00
         25   -1    0    0    0    0  0.00000000000E+00  0.00000000000E+00  0.99999998245E-14  0.12500000000E+03  0.12500000000E+03 0.  0.
    3000001    1    3    3    0    0  0.23238041974E+02  0.25444682172E+02 -0.15556590481E+02  0.37821236799E+02  0.10000000000E+01 0. -1.
    1000022    2    1    0    0    0  0.31615424172E+02  0.46292711805E+02 -0.25762371714E+02  0.62499999847E+02  0.99999986348E+01 0.  0.
    3000022    2    3    3    0    0  0.83773821984E+01  0.20848029632E+02 -0.10205781233E+02  0.24678763047E+02  0.25000586643E+00 0.  0.
    1000022    2    1    0    0    0 -0.31615424172E+02 -0.46292711805E+02  0.25762371714E+02  0.62500000153E+02  0.10000000552E+02 0.  0.
    3000022    2    5    5    0    0 -0.16307421253E+02 -0.28154241391E+02  0.10190906659E+02  0.34095606369E+02  0.24999778002E+00 0.  0.
        -13    1    4    4    0    0  0.26299068583E+01  0.64877657775E+01 -0.32283349570E+01  0.77097786259E+01  0.10500000000E+00 0.  1.
         13    1    4    4    0    0  0.57474753401E+01  0.14360263855E+02 -0.69774462759E+01  0.16968984422E+02  0.10500000000E+00 0. -1.
    3000001    1    5    5    0    0 -0.15308002919E+02 -0.18138470413E+02  0.15571465055E+02  0.28404393784E+02  0.10000000000E+01 0.  1.
        -13    1    6    6    0    0 -0.71735901673E+01 -0.12477615950E+02  0.44585438657E+01  0.15067877558E+02  0.10500000000E+00 0.  1.
         13    1    6    6    0    0 -0.91338310860E+01 -0.15676625441E+02  0.57323627932E+01  0.19027728812E+02  0.10500000000E+00 0. -1.
</event>
<event>
11    0  0.3482687E-009  0.9118800E+02  0.7816531E-02  0.1126479E+00
         25   -1    0    0    0    0  0.00000000000E+00  0.00000000000E+00  0.99999998245E-14  0.12500000000E+03  0.12500000000E+03 0.  0.
    3000001    1    3    3    0    0 -0.86149671142E+01  0.13452917226E+02 -0.26149405094E+01  0.16218401713E+02  0.10000000000E+01 0. -1.
    1000022    2    1    0    0    0 -0.37800508250E+02  0.48451432499E+02  0.54616899128E+01  0.62500000014E+02  0.10000010497E+02 0.  0.
    3000022    2    3    3    0    0 -0.29185541136E+02  0.34998515273E+02  0.80766304222E+01  0.46281598301E+02  0.24999924378E+00 0.  0.
    1000022    2    1    0    0    0  0.37800508250E+02 -0.48451432499E+02 -0.54616899128E+01  0.62499999986E+02  0.10000010316E+02 0.  0.
    3000022    2    5    5    0    0  0.22127011926E+02 -0.21035485494E+02 -0.63648638176E+00  0.30537909529E+02  0.24999354711E+00 0.  0.
        -13    1    4    4    0    0 -0.20161229235E+02  0.24251503776E+02  0.55918814632E+01  0.32029529547E+02  0.10500000000E+00 0.  1.
         13    1    4    4    0    0 -0.90243119012E+01  0.10747011497E+02  0.24847489590E+01  0.14252068755E+02  0.10500000000E+00 0. -1.
    3000001    1    5    5    0    0  0.15673496324E+02 -0.27415947005E+02 -0.48252035310E+01  0.31962090456E+02  0.10000000000E+01 0. -1.
        -13    1    6    6    0    0  0.14622566584E+02 -0.13969725652E+02 -0.39952122366E+00  0.20227291725E+02  0.10500000000E+00 0. -1.
         13    1    6    6    0    0  0.75044453419E+01 -0.70657598413E+01 -0.23696515810E+00  0.10310617805E+02  0.10500000000E+00 0.  1.
</event>
<event>
11    0  0.3482687E-009  0.9118800E+02  0.7816531E-02  0.1126479E+00
         25   -1    0    0    0    0  0.00000000000E+00  0.00000000000E+00  0.99999998245E-14  0.12500000000E+03  0.12500000000E+03 0.  0.
    3000001    1    3    3    0    0 -0.41163565145E+01  0.39472641505E+02 -0.80424617511E+01  0.40505740449E+02  0.10000000000E+01 0.  1.
    1000022    2    1    0    0    0 -0.13113076917E+02  0.58638785106E+02 -0.13992499055E+02  0.62500000684E+02  0.10000007540E+02 0.  0.
    3000022    2    3    3    0    0 -0.89967204020E+01  0.19166143601E+02 -0.59500373034E+01  0.21994260235E+02  0.25000167146E+00 0.  0.
    1000022    2    1    0    0    0  0.13113076917E+02 -0.58638785106E+02  0.13992499055E+02  0.62499999316E+02  0.99999989913E+01 0.  0.
    3000022    2    5    5    0    0  0.50076071402E+01 -0.30510220294E+02  0.11916593501E+02  0.33136345209E+02  0.25000294932E+00 0.  0.
        -13    1    4    4    0    0 -0.68972539896E+01  0.14707605585E+02 -0.45753590045E+01  0.16876928325E+02  0.10500000000E+00 0.  1.
         13    1    4    4    0    0 -0.20994664124E+01  0.44585380156E+01 -0.13746782989E+01  0.51173319102E+01  0.10500000000E+00 0. -1.
    3000001    1    5    5    0    0  0.81054697763E+01 -0.28128564811E+02  0.20759055536E+01  0.29363654107E+02  0.10000000000E+01 0.  1.
        -13    1    6    6    0    0  0.19035030988E+01 -0.11389047794E+02  0.45036766625E+01  0.12394670717E+02  0.10500000000E+00 0. -1.
         13    1    6    6    0    0  0.31041040414E+01 -0.19121172501E+02  0.74129168384E+01  0.20741674492E+02  0.10500000000E+00 0.  1.
</event>
<event>
11    0  0.3482687E-009  0.9118800E+02  0.7816531E-02  0.1126479E+00
         25   -1    0    0    0    0  0.00000000000E+00  0.00000000000E+00  0.99999998245E-14  0.12500000000E+03  0.12500000000E+03 0.  0.
    3000001    1    3    3    0    0 -0.18894883020E+02  0.64944800757E+01  0.37474547578E+02  0.42479837476E+02  0.10000000000E+01 0.  1.
    1000022    2    1    0    0    0 -0.23568152227E+02  0.45016511957E+01  0.56837739211E+02  0.62499989627E+02  0.99998720897E+01 0.  0.
    3000022    2    3    3    0    0 -0.46732692067E+01 -0.19928288800E+01  0.19363191633E+02  0.20020152151E+02  0.24997978523E+00 0.  0.
    1000022    2    1    0    0    0  0.23568152227E+02 -0.45016511957E+01 -0.56837739211E+02  0.62500010373E+02  0.10000001754E+02 0.  0.
    3000022    2    5    5    0    0  0.54826322778E+01  0.28251510946E+01 -0.10021196105E+02  0.11769775088E+02  0.24999769660E+00 0.  0.
        -13    1    4    4    0    0 -0.29201147054E+01 -0.12238746012E+01  0.12286405372E+02  0.12688251294E+02  0.10500000000E+00 0.  1.
         13    1    4    4    0    0 -0.17531545013E+01 -0.76895427880E+00  0.70767862611E+01  0.73319008568E+01  0.10500000000E+00 0. -1.
    3000001    1    5    5    0    0  0.18085519949E+02 -0.73268022904E+01 -0.46816543107E+02  0.50730235285E+02  0.10000000000E+01 0. -1.
        -13    1    6    6    0    0  0.35128459289E+01  0.18251989903E+01 -0.63224124287E+01  0.74602521266E+01  0.10500000000E+00 0.  1.
         13    1    6    6    0    0  0.19697863489E+01  0.99995210434E+00 -0.36987836760E+01  0.43095229612E+01  0.10500000000E+00 0. -1.
</event>
<event>
11    0  0.3482687E-009  0.9118800E+02  0.7816531E-02  0.1126479E+00
         25   -1    0    0    0    0  0.00000000000E+00  0.00000000000E+00  0.99999998245E-14  0.12500000000E+03  0.12500000000E+03 0.  0.
    3000001    1    3    3    0    0  0.12712752983E+01  0.76538068175E+01  0.27038676275E+01  0.82769438702E+01  0.10000000000E+01 0.  1.
    1000022    2    1    0    0    0 -0.12825319286E+02  0.52804287858E+02  0.29214183971E+02  0.62499995167E+02  0.99999609894E+01 0.  0.
    3000022    2    3    3    0    0 -0.14096594584E+02  0.45150481040E+02  0.26510316344E+02  0.54223051297E+02  0.25000445350E+00 0.  0.
    1000022    2    1    0    0    0  0.12825319286E+02 -0.52804287858E+02 -0.29214183971E+02  0.62500004833E+02  0.10000021405E+02 0.  0.
    3000022    2    5    5    0    0  0.97175739769E+01 -0.30218488826E+02 -0.12085241324E+02  0.33966216529E+02  0.24999294702E+00 0.  0.
        -13    1    4    4    0    0 -0.10460708901E+02  0.33554158530E+02  0.19728915957E+02  0.40305696064E+02  0.10500000000E+00 0. -1.
         13    1    4    4    0    0 -0.36358856834E+01  0.11596322510E+02  0.67814003869E+01  0.13917355233E+02  0.10500000000E+00 0.  1.
    3000001    1    5    5    0    0  0.31077453089E+01 -0.22585799031E+02 -0.17128942647E+02  0.28533788304E+02  0.10000000000E+01 0. -1.
        -13    1    6    6    0    0  0.39800415475E+01 -0.12519280274E+02 -0.50520472119E+01  0.14075060047E+02  0.10500000000E+00 0.  1.
         13    1    6    6    0    0  0.57375324295E+01 -0.17699208553E+02 -0.70331941121E+01  0.19891156482E+02  0.10500000000E+00 0. -1.
</event>
<event>
11    0  0.3482687E-009  0.9118800E+02  0.7816531E-02  0.1126479E+00
         25   -1    0    0    0    0  0.00000000000E+00  0.00000000000E+00  0.99999998245E-14  0.12500000000E+03  0.12500000000E+03 0.  0.
    3000001    1    3    3    0    0 -0.23449324148E+02  0.14999988569E+02  0.17319106352E+02  0.32799724159E+02  0.10000000000E+01 0. -1.
    1000022    2    1    0    0    0 -0.48882507667E+02  0.20248922936E+02  0.31729029710E+02  0.62500002316E+02  0.10000026360E+02 0.  0.
    3000022    2    3    3    0    0 -0.25433183519E+02  0.52489343672E+01  0.14409923358E+02  0.29700278157E+02  0.24999099547E+00 0.  0.
    1000022    2    1    0    0    0  0.48882507667E+02 -0.20248922936E+02 -0.31729029710E+02  0.62499997684E+02  0.99999974123E+01 0.  0.
    3000022    2    5    5    0    0  0.18515245125E+02 -0.30031563824E+01 -0.88780415448E+01  0.20753683374E+02  0.25000325176E+00 0.  0.
        -13    1    4    4    0    0 -0.17875065457E+02  0.36698555009E+01  0.10078381391E+02  0.20846357018E+02  0.10500000000E+00 0. -1.
         13    1    4    4    0    0 -0.75581180626E+01  0.15790788662E+01  0.43315419676E+01  0.88539211387E+01  0.10500000000E+00 0.  1.
    3000001    1    5    5    0    0  0.30367262543E+02 -0.17245766553E+02 -0.22850988165E+02  0.41746314310E+02  0.10000000000E+01 0.  1.
        -13    1    6    6    0    0  0.46079122715E+01 -0.72747513731E+00 -0.22264624426E+01  0.51701291653E+01  0.10500000000E+00 0. -1.
         13    1    6    6    0    0  0.13907332853E+02 -0.22756812451E+01 -0.66515791022E+01  0.15583554209E+02  0.10500000000E+00 0.  1.
</event>
<event>
11    0  0.3482687E-009  0.9118800E+02  0.7816531E-02  0.1126479E+00
         25   -1    0    0    0    0  0.00000000000E+00  0.00000000000E+00  0.99999998245E-14  0.12500000000E+03  0.12500000000E+03 0.  0.
    3000001    1    3    3    0    0 -0.31808470952E+02  0.82640053922E+01 -0.28620037260E+02  0.43591044288E+02  0.10000000000E+01 0. -1.
    1000022    2    1    0    0    0 -0.45723737334E+02  0.53180018754E+01 -0.41076863061E+02  0.62499999476E+02  0.99999977895E+01 0.  0.
    3000022    2    3    3    0    0 -0.13915266383E+02 -0.29460035169E+01 -0.12456825801E+02  0.18908955188E+02  0.25000403428E+00 0.  0.
    1000022    2    1    0    0    0  0.45723737334E+02 -0.53180018754E+01  0.41076863061E+02  0.62500000524E+02  0.10000004339E+02 0.  0.
    3000022    2    5    5    0    0  0.89826578891E+01 -0.67092908341E+00  0.13851857051E+02  0.16524972992E+02  0.25000005351E+00 0.  0.
        -13    1    4    4    0    0 -0.90920263646E+01 -0.19417002488E+01 -0.80705447600E+01  0.12311777329E+02  0.10500000000E+00 0. -1.
         13    1    4    4    0    0 -0.48232400182E+01 -0.10043032681E+01 -0.43862810414E+01  0.65971778589E+01  0.10500000000E+00 0.  1.
    3000001    1    5    5    0    0  0.36741079445E+02 -0.46470727920E+01  0.27225006010E+02  0.45975027532E+02  0.10000000000E+01 0. -1.
        -13    1    6    6    0    0  0.40097775301E+01 -0.36536724243E+00  0.62106265618E+01  0.74023453279E+01  0.10500000000E+00 0.  1.
         13    1    6    6    0    0  0.49728803590E+01 -0.30556184098E+00  0.76412304891E+01  0.91226276638E+01  0.10500000000E+00 0. -1.
</event>
<event>
11    0  0.3482687E-009  0.9118800E+02  0.7816531E-02  0.1126479E+00
         25   -1    0    0    0    0  0.00000000000E+00  0.00000000000E+00  0.99999998245E-14  0.12500000000E+03  0.12500000000E+03 0.  0.
    3000001    1    3    3    0    0 -0.35400449660E+02 -0.31014577581E+01 -0.67963913064E+01  0.36193947161E+02  0.10000000000E+01 0. -1.
    1000022    2    1    0    0    0 -0.59455245289E+02  0.14789355805E+01 -0.16405383377E+02  0.62500000131E+02  0.99999984872E+01 0.  0.
    3000022    2    3    3    0    0 -0.24054795629E+02  0.45803933387E+01 -0.96089920710E+01  0.26306052969E+02  0.24999658830E+00 0.  0.
    1000022    2    1    0    0    0  0.59455245289E+02 -0.14789355805E+01  0.16405383377E+02  0.62499999869E+02  0.99999968550E+01 0.  0.
    3000022    2    5    5    0    0  0.41376902484E+01  0.16903536157E+01  0.32797497341E+01  0.55495077890E+01  0.25000488645E+00 0.  0.
        -13    1    4    4    0    0 -0.10674632103E+02  0.20987635422E+01 -0.42545249071E+01  0.11681805773E+02  0.10500000000E+00 0.  1.
         13    1    4    4    0    0 -0.13380163526E+02  0.24816297965E+01 -0.53544671640E+01  0.14624247196E+02  0.10500000000E+00 0. -1.
    3000001    1    5    5    0    0  0.55317555040E+02 -0.31692891962E+01  0.13125633643E+02  0.56950492080E+02  0.10000000000E+01 0. -1.
        -13    1    6    6    0    0  0.12691970083E+01  0.49887167913E+00  0.10566590380E+01  0.17283770772E+01  0.10500000000E+00 0.  1.
         13    1    6    6    0    0  0.28684932401E+01  0.11914819365E+01  0.22230906961E+01  0.38211307118E+01  0.10500000000E+00 0. -1.
</event>
<event>
11    0  0.3482687E-009  0.9118800E+02  0.7816531E-02  0.1126479E+00
         25   -1    0    0    0    0  0.00000000000E+00  0.00000000000E+00  0.99999998245E-14  0.12500000000E+03  0.12500000000E+03 0.  0.
    3000001    1    3    3    0    0  0.32712786801E+02 -0.11283739446E+02 -0.49862707969E+02  0.60702049736E+02  0.10000000000E+01 0. -1.
    1000022    2    1    0    0    0  0.33513819780E+02 -0.12841603325E+02 -0.50181342043E+02  0.62499999233E+02  0.99999961350E+01 0.  0.
    3000022    2    3    3    0    0  0.80103297882E+00 -0.15578638785E+01 -0.31863407354E+00  0.17979494964E+01  0.25000204321E+00 0.  0.
    1000022    2    1    0    0    0 -0.33513819780E+02  0.12841603325E+02  0.50181342043E+02  0.62500000767E+02  0.10000005725E+02 0.  0.
    3000022    2    5    5    0    0 -0.15665832924E+02  0.91614153699E+01  0.31685821389E+02  0.36515799751E+02  0.25000316431E+00 0.  0.
        -13    1    4    4    0    0  0.29266153692E+00 -0.71235105377E+00 -0.13096420128E+00  0.78820772708E+00  0.10500000000E+00 0.  1.
         13    1    4    4    0    0  0.50837144190E+00 -0.84551282472E+00 -0.18766987226E+00  0.10097417693E+01  0.10500000000E+00 0. -1.
    3000001    1    5    5    0    0 -0.17847986856E+02  0.36801879550E+01  0.18495520653E+02  0.25984201016E+02  0.10000000000E+01 0.  1.
        -13    1    6    6    0    0 -0.10097190301E+02  0.59110395173E+01  0.20542156041E+02  0.23640745334E+02  0.10500000000E+00 0.  1.
         13    1    6    6    0    0 -0.55686426235E+01  0.32503758526E+01  0.11143665348E+02  0.12875054417E+02  0.10500000000E+00 0. -1.
</event>
<event>
11    0  0.3482687E-009  0.9118800E+02  0.7816531E-02  0.1126479E+00
         25   -1    0    0    0    0  0.00000000000E+00  0.00000000000E+00  0.99999998245E-14  0.12500000000E+03  0.12500000000E+03 0.  0.
    3000001    1    3    3    0    0  0.25704839701E+02  0.41289833614E+02 -0.32749724106E+02  0.58644126500E+02  0.10000000000E+01 0.  1.
    1000022    2    1    0    0    0  0.25580552297E+02  0.42861763673E+02 -0.36259543871E+02  0.62499999727E+02  0.10000000159E+02 0.  0.
    3000022    2    3    3    0    0 -0.12428740390E+00  0.15719300584E+01 -0.35098197653E+01  0.38558732269E+01  0.25002417901E+00 0.  0.
    1000022    2    1    0    0    0 -0.25580552297E+02 -0.42861763673E+02  0.36259543871E+02  0.62500000273E+02  0.10000003571E+02 0.  0.
    3000022    2    5    5    0    0 -0.97049426512E+01 -0.17132715189E+02  0.20366542658E+02  0.28329744127E+02  0.25000172115E+00 0.  0.
        -13    1    4    4    0    0 -0.84266814749E-01  0.64265511454E+00 -0.13161633479E+01  0.14708560265E+01  0.10500000000E+00 0. -1.
         13    1    4    4    0    0 -0.40020589149E-01  0.92927494384E+00 -0.21936564174E+01  0.23850172004E+01  0.10500000000E+00 0.  1.
    3000001    1    5    5    0    0 -0.15875609646E+02 -0.25729048484E+02  0.15893001213E+02  0.34170256146E+02  0.10000000000E+01 0.  1.
        -13    1    6    6    0    0 -0.41877825149E+01 -0.73107288953E+01  0.86407957712E+01  0.12068912790E+02  0.10500000000E+00 0.  1.
         13    1    6    6    0    0 -0.55171601363E+01 -0.98219862933E+01  0.11725746887E+02  0.16260831337E+02  0.10500000000E+00 0. -1.
</event>
<event>
11    0  0.3482687E-009  0.9118800E+02  0.7816531E-02  0.1126479E+00
         25   -1    0    0    0    0  0.00000000000E+00  0.00000000000E+00  0.99999998245E-14  0.12500000000E+03  0.12500000000E+03 0.  0.
    3000001    1    3    3    0    0 -0.63430594779E+01  0.36863683249E+01 -0.55692152789E+01  0.92649810464E+01  0.10000000000E+01 0.  1.
    1000022    2    1    0    0    0 -0.35265120580E+02  0.43437760150E+02 -0.25995806575E+02  0.62499996800E+02  0.99999952082E+01 0.  0.
    3000022    2    3    3    0    0 -0.28922061102E+02  0.39751391825E+02 -0.20426591296E+02  0.53235015754E+02  0.24999980329E+00 0.  0.
    1000022    2    1    0    0    0  0.35265120580E+02 -0.43437760150E+02  0.25995806575E+02  0.62500003200E+02  0.10000035205E+02 0.  0.
    3000022    2    5    5    0    0  0.34651881553E+02 -0.42458658841E+02  0.26520786247E+02  0.60884359324E+02  0.25000282678E+00 0.  0.
        -13    1    4    4    0    0 -0.15347166589E+02  0.21024492659E+02 -0.10874121873E+02  0.28210323738E+02  0.10500000000E+00 0.  1.
         13    1    4    4    0    0 -0.13574894512E+02  0.18726899166E+02 -0.95524694236E+01  0.25024692016E+02  0.10500000000E+00 0. -1.
    3000001    1    5    5    0    0  0.61323902633E+00 -0.97910130966E+00 -0.52497967142E+00  0.16156438758E+01  0.10000000000E+01 0.  1.
        -13    1    6    6    0    0  0.11032003795E+02 -0.13456901109E+02  0.84568234532E+01  0.19347407659E+02  0.10500000000E+00 0. -1.
         13    1    6    6    0    0  0.23619877758E+02 -0.29001757732E+02  0.18063962794E+02  0.41536951665E+02  0.10500000000E+00 0.  1.
</event>
<event>
11    0  0.3482687E-009  0.9118800E+02  0.7816531E-02  0.1126479E+00
         25   -1    0    0    0    0  0.00000000000E+00  0.00000000000E+00  0.99999998245E-14  0.12500000000E+03  0.12500000000E+03 0.  0.
    3000001    1    3    3    0    0  0.52689103819E+01 -0.17444374841E+02  0.13490055412E+02  0.22694695971E+02  0.10000000000E+01 0.  1.
    1000022    2    1    0    0    0  0.26429852447E+02 -0.42982093544E+02  0.35500034615E+02  0.62499999998E+02  0.10000003816E+02 0.  0.
    3000022    2    3    3    0    0  0.21160942065E+02 -0.25537718703E+02  0.22009979203E+02  0.39805304027E+02  0.24999705697E+00 0.  0.
    1000022    2    1    0    0    0 -0.26429852447E+02  0.42982093544E+02 -0.35500034615E+02  0.62500000002E+02  0.10000003842E+02 0.  0.
    3000022    2    5    5    0    0 -0.71834914798E+01  0.14111314383E+02 -0.59637473264E+01  0.16922192172E+02  0.25012451595E+00 0.  0.
        -13    1    4    4    0    0  0.11098906207E+02 -0.13377844592E+02  0.11455611286E+02  0.20818129115E+02  0.10500000000E+00 0.  1.
         13    1    4    4    0    0  0.10062035859E+02 -0.12159874111E+02  0.10554367917E+02  0.18987174912E+02  0.10500000000E+00 0. -1.
    3000001    1    5    5    0    0 -0.19246360967E+02  0.28870779161E+02 -0.29536287288E+02  0.45577807830E+02  0.10000000000E+01 0. -1.
        -13    1    6    6    0    0 -0.40219789025E+01  0.77754603847E+01 -0.32597764883E+01  0.93419091325E+01  0.10500000000E+00 0. -1.
         13    1    6    6    0    0 -0.31615125773E+01  0.63358539979E+01 -0.27039708381E+01  0.75802830391E+01  0.10500000000E+00 0.  1.
</event>
<event>
11    0  0.3482687E-009  0.9118800E+02  0.7816531E-02  0.1126479E+00
         25   -1    0    0    0    0  0.00000000000E+00  0.00000000000E+00  0.99999998245E-14  0.12500000000E+03  0.12500000000E+03 0.  0.
    3000001    1    3    3    0    0 -0.20526447214E+01  0.71929839444E+00 -0.31750825985E+01  0.39764167337E+01  0.10000000000E+01 0.  1.
    1000022    2    1    0    0    0 -0.86160973790E+01  0.37341491814E+02 -0.48349003494E+02  0.62499998631E+02  0.99999772549E+01 0.  0.
    3000022    2    3    3    0    0 -0.65634526576E+01  0.36622193420E+02 -0.45173920895E+02  0.58523581897E+02  0.25009476803E+00 0.  0.
    1000022    2    1    0    0    0  0.86160973790E+01 -0.37341491814E+02  0.48349003494E+02  0.62500001369E+02  0.99999943689E+01 0.  0.
    3000022    2    5    5    0    0 -0.13326833180E+01 -0.93405238423E+00  0.94699090401E+00  0.18994181976E+01  0.24999806898E+00 0.  0.
        -13    1    4    4    0    0 -0.22984894979E+01  0.13137673319E+02 -0.16165849945E+02  0.20957749012E+02  0.10500000000E+00 0.  1.
         13    1    4    4    0    0 -0.42649631597E+01  0.23484520101E+02 -0.29008070950E+02  0.37565832885E+02  0.10500000000E+00 0. -1.
    3000001    1    5    5    0    0  0.99487806970E+01 -0.36407439430E+02  0.47402012590E+02  0.60600583172E+02  0.10000000000E+01 0.  1.
        -13    1    6    6    0    0 -0.53286051206E+00 -0.30186640847E+00  0.37382760019E+00  0.72514531546E+00  0.10500000000E+00 0. -1.
         13    1    6    6    0    0 -0.79982280593E+00 -0.63218597576E+00  0.57316330382E+00  0.11742728821E+01  0.10500000000E+00 0.  1.
</event>
<event>
11    0  0.3482687E-009  0.9118800E+02  0.7816531E-02  0.1126479E+00
         25   -1    0    0    0    0  0.00000000000E+00  0.00000000000E+00  0.99999998245E-14  0.12500000000E+03  0.12500000000E+03 0.  0.
    3000001    1    3    3    0    0  0.29641926831E+02 -0.18571170230E+02 -0.25518530843E+02  0.43309671048E+02  0.10000000000E+01 0.  1.
    1000022    2    1    0    0    0  0.46641498426E+02 -0.22674478692E+02 -0.33416878838E+02  0.62500006507E+02  0.10000083138E+02 0.  0.
    3000022    2    3    3    0    0  0.16999571595E+02 -0.41033084622E+01 -0.78983479954E+01  0.19190335459E+02  0.24999843374E+00 0.  0.
    1000022    2    1    0    0    0 -0.46641498426E+02  0.22674478692E+02  0.33416878838E+02  0.62499993493E+02  0.10000001795E+02 0.  0.
    3000022    2    5    5    0    0 -0.44096455929E+02  0.20346687830E+02  0.33340934664E+02  0.58908111099E+02  0.24999573650E+00 0.  0.
        -13    1    4    4    0    0  0.12690755840E+02 -0.30869737070E+01 -0.59162152566E+01  0.14338665155E+02  0.10500000000E+00 0. -1.
         13    1    4    4    0    0  0.43088157552E+01 -0.10163347552E+01 -0.19821327388E+01  0.48516703042E+01  0.10500000000E+00 0.  1.
    3000001    1    5    5    0    0 -0.25450424974E+01  0.23277908620E+01  0.75944174170E-01  0.35918823935E+01  0.10000000000E+01 0. -1.
        -13    1    6    6    0    0 -0.20034814669E+02  0.92633300229E+01  0.15232000754E+02  0.26818425642E+02  0.10500000000E+00 0. -1.
         13    1    6    6    0    0 -0.24061641260E+02  0.11083357807E+02  0.18108933910E+02  0.32089685457E+02  0.10500000000E+00 0.  1.
</event>
<event>
11    0  0.3482687E-009  0.9118800E+02  0.7816531E-02  0.1126479E+00
         25   -1    0    0    0    0  0.00000000000E+00  0.00000000000E+00  0.99999998245E-14  0.12500000000E+03  0.12500000000E+03 0.  0.
    3000001    1    3    3    0    0  0.20982462671E+01 -0.81623971099E+01  0.35284206747E+02  0.36290530580E+02  0.10000000000E+01 0. -1.
    1000022    2    1    0    0    0  0.10566535841E+02 -0.17962004386E+02  0.58068619173E+02  0.62499998510E+02  0.99999999937E+01 0.  0.
    3000022    2    3    3    0    0  0.84682895740E+01 -0.97996072765E+01  0.22784412426E+02  0.26209467931E+02  0.25005706212E+00 0.  0.
    1000022    2    1    0    0    0 -0.10566535841E+02  0.17962004386E+02 -0.58068619173E+02  0.62500001490E+02  0.10000018613E+02 0.  0.
    3000022    2    5    5    0    0 -0.88672843854E+01  0.56204626304E+01 -0.29642071021E+02  0.31447308398E+02  0.24999696600E+00 0.  0.
        -13    1    4    4    0    0  0.35730028960E+01 -0.42270291524E+01  0.96858913754E+01  0.11156237802E+02  0.10500000000E+00 0. -1.
         13    1    4    4    0    0  0.48952866780E+01 -0.55725781241E+01  0.13098521050E+02  0.15053230129E+02  0.10500000000E+00 0.  1.
    3000001    1    5    5    0    0 -0.16992514557E+01  0.12341541756E+02 -0.28426548152E+02  0.31052693092E+02  0.10000000000E+01 0.  1.
        -13    1    6    6    0    0 -0.53725655437E+01  0.34052880277E+01 -0.18144828382E+02  0.19227747374E+02  0.10500000000E+00 0. -1.
         13    1    6    6    0    0 -0.34947188417E+01  0.22151746026E+01 -0.11497242639E+02  0.12219561023E+02  0.10500000000E+00 0.  1.
</event>
<event>
11    0  0.3482687E-009  0.9118800E+02  0.7816531E-02  0.1126479E+00
         25   -1    0    0    0    0  0.00000000000E+00  0.00000000000E+00  0.99999998245E-14  0.12500000000E+03  0.12500000000E+03 0.  0.
    3000001    1    3    3    0    0  0.39247364413E+01  0.15989029697E+02  0.48255799566E+01  0.17185425474E+02  0.10000000000E+01 0. -1.
    1000022    2    1    0    0    0  0.13199264565E+02  0.51172515940E+02  0.31833983033E+02  0.62500002632E+02  0.10000044027E+02 0.  0.
    3000022    2    3    3    0    0  0.92745281237E+01  0.35183486243E+02  0.27008403076E+02  0.45314577158E+02  0.24998034127E+00 0.  0.
    1000022    2    1    0    0    0 -0.13199264565E+02 -0.51172515940E+02 -0.31833983033E+02  0.62499997368E+02  0.10000011128E+02 0.  0.
    3000022    2    5    5    0    0 -0.12380973954E+02 -0.28480319584E+02 -0.18458479303E+02  0.36127483740E+02  0.25000719854E+00 0.  0.
        -13    1    4    4    0    0  0.31573605306E+01  0.12085442297E+02  0.93319748532E+01  0.15592421900E+02  0.10500000000E+00 0. -1.
         13    1    4    4    0    0  0.61171675931E+01  0.23098043946E+02  0.17676428223E+02  0.29722155258E+02  0.10500000000E+00 0.  1.
    3000001    1    5    5    0    0 -0.81829061088E+00 -0.22692196357E+02 -0.13375503730E+02  0.26372513628E+02  0.10000000000E+01 0.  1.
        -13    1    6    6    0    0 -0.38555872454E+01 -0.87499659178E+01 -0.56763348076E+01  0.11120218452E+02  0.10500000000E+00 0.  1.
         13    1    6    6    0    0 -0.85253867087E+01 -0.19730353666E+02 -0.12782144495E+02  0.25007265289E+02  0.10500000000E+00 0. -1.
</event>
<event>
11    0  0.3482687E-009  0.9118800E+02  0.7816531E-02  0.1126479E+00
         25   -1    0    0    0    0  0.00000000000E+00  0.00000000000E+00  0.99999998245E-14  0.12500000000E+03  0.12500000000E+03 0.  0.
    3000001    1    3    3    0    0 -0.77150015608E+01  0.29685885497E+01  0.36934003362E+01  0.91090599462E+01  0.10000000000E+01 0.  1.
    1000022    2    1    0    0    0 -0.60690249141E+02  0.90070786731E+01  0.64665128054E+01  0.62500003677E+02  0.10000043238E+02 0.  0.
    3000022    2    3    3    0    0 -0.52975247580E+02  0.60384901234E+01  0.27731124692E+01  0.53390943731E+02  0.25000112879E+00 0.  0.
    1000022    2    1    0    0    0  0.60690249141E+02 -0.90070786731E+01 -0.64665128054E+01  0.62499996323E+02  0.99999972779E+01 0.  0.
    3000022    2    5    5    0    0  0.55899852885E+02 -0.89556250065E+01 -0.84095992854E+01  0.57234435685E+02  0.24999241720E+00 0.  0.
        -13    1    4    4    0    0 -0.12161905448E+02  0.13904087130E+01  0.64033455736E+00  0.12258312847E+02  0.10500000000E+00 0. -1.
         13    1    4    4    0    0 -0.40813342132E+02  0.46480814104E+01  0.21327779118E+01  0.41132630883E+02  0.10500000000E+00 0.  1.
    3000001    1    5    5    0    0  0.47903962553E+01 -0.51453666607E-01  0.19430864800E+01  0.52655606379E+01  0.10000000000E+01 0.  1.
        -13    1    6    6    0    0  0.42126191045E+02 -0.67685989537E+01 -0.63235221288E+01  0.43132677413E+02  0.10500000000E+00 0. -1.
         13    1    6    6    0    0  0.13773661841E+02 -0.21870260528E+01 -0.20860771566E+01  0.14101758272E+02  0.10500000000E+00 0.  1.
</event>
<event>
11    0  0.3482687E-009  0.9118800E+02  0.7816531E-02  0.1126479E+00
         25   -1    0    0    0    0  0.00000000000E+00  0.00000000000E+00  0.99999998245E-14  0.12500000000E+03  0.12500000000E+03 0.  0.
    3000001    1    3    3    0    0  0.25803759639E+02 -0.96979594477E+01 -0.74469376421E+01  0.28571687196E+02  0.10000000000E+01 0.  1.
    1000022    2    1    0    0    0  0.55256679444E+02 -0.13611014846E+02 -0.23826235647E+02  0.62499999649E+02  0.10000005137E+02 0.  0.
    3000022    2    3    3    0    0  0.29452919805E+02 -0.39130553985E+01 -0.16379298005E+02  0.33928312453E+02  0.24999048329E+00 0.  0.
    1000022    2    1    0    0    0 -0.55256679444E+02  0.13611014846E+02  0.23826235647E+02  0.62500000351E+02  0.10000009527E+02 0.  0.
    3000022    2    5    5    0    0 -0.50939029996E+02  0.99071532165E+01  0.22566279824E+02  0.56588302084E+02  0.24997179120E+00 0.  0.
        -13    1    4    4    0    0  0.12208680896E+02 -0.16278341984E+01 -0.68631858750E+01  0.14100215557E+02  0.10500000000E+00 0.  1.
         13    1    4    4    0    0  0.17244238909E+02 -0.22852212001E+01 -0.95161121296E+01  0.19828096896E+02  0.10500000000E+00 0. -1.
    3000001    1    5    5    0    0 -0.43176494479E+01  0.37038616298E+01  0.12599558223E+01  0.59116982671E+01  0.10000000000E+01 0. -1.
        -13    1    6    6    0    0 -0.20379833880E+02  0.39312191228E+01  0.89664551613E+01  0.22609742501E+02  0.10500000000E+00 0.  1.
         13    1    6    6    0    0 -0.30559196115E+02  0.59759340937E+01  0.13599824663E+02  0.33978559583E+02  0.10500000000E+00 0. -1.
</event>
<event>
11    0  0.3482687E-009  0.9118800E+02  0.7816531E-02  0.1126479E+00
         25   -1    0    0    0    0  0.00000000000E+00  0.00000000000E+00  0.99999998245E-14  0.12500000000E+03  0.12500000000E+03 0.  0.
    3000001    1    3    3    0    0  0.16093034480E+02  0.10429630357E+02  0.19888517866E+02  0.27646267217E+02  0.10000000000E+01 0.  1.
    1000022    2    1    0    0    0  0.31124945562E+02  0.15798403844E+02  0.50871388989E+02  0.62500002790E+02  0.10000016537E+02 0.  0.
    3000022    2    3    3    0    0  0.15031911082E+02  0.53687734876E+01  0.30982871124E+02  0.34853735573E+02  0.25000150129E+00 0.  0.
    1000022    2    1    0    0    0 -0.31124945562E+02 -0.15798403844E+02 -0.50871388989E+02  0.62499997210E+02  0.99999816620E+01 0.  0.
    3000022    2    5    5    0    0 -0.22788853452E+02 -0.10053205983E+02 -0.28048697792E+02  0.37512541084E+02  0.24999716932E+00 0.  0.
        -13    1    4    4    0    0  0.41247024350E+01  0.14968717547E+01  0.84519829678E+01  0.95236986678E+01  0.10500000000E+00 0. -1.
         13    1    4    4    0    0  0.10907208647E+02  0.38719017328E+01  0.22530888156E+02  0.25330036905E+02  0.10500000000E+00 0.  1.
    3000001    1    5    5    0    0 -0.83360921105E+01 -0.57451978615E+01 -0.22822691197E+02  0.24987456126E+02  0.10000000000E+01 0.  1.
        -13    1    6    6    0    0 -0.87201371924E+01 -0.38047696971E+01 -0.10785400691E+02  0.14382383605E+02  0.10500000000E+00 0. -1.
         13    1    6    6    0    0 -0.14068716260E+02 -0.62484362855E+01 -0.17263297102E+02  0.23130157480E+02  0.10500000000E+00 0.  1.
</event>
<event>
11    0  0.3482687E-009  0.9118800E+02  0.7816531E-02  0.1126479E+00
         25   -1    0    0    0    0  0.00000000000E+00  0.00000000000E+00  0.99999998245E-14  0.12500000000E+03  0.12500000000E+03 0.  0.
    3000001    1    3    3    0    0  0.21497364398E+02 -0.42977998405E+02  0.38985006027E+02  0.61887605527E+02  0.10000000000E+01 0.  1.
    1000022    2    1    0    0    0  0.21377170775E+02 -0.43215053172E+02  0.38493190762E+02  0.62499999005E+02  0.99999944812E+01 0.  0.
    3000022    2    3    3    0    0 -0.12019362372E+00 -0.23705476691E+00 -0.49181526476E+00  0.61239347802E+00  0.25000409511E+00 0.  0.
    1000022    2    1    0    0    0 -0.21377170775E+02  0.43215053172E+02 -0.38493190762E+02  0.62500000995E+02  0.10000006921E+02 0.  0.
    3000022    2    5    5    0    0 -0.12465758424E+02  0.26565031436E+02 -0.29314692667E+02  0.41479027631E+02  0.24999763151E+00 0.  0.
        -13    1    4    4    0    0 -0.37628965110E-01 -0.32585655213E-01 -0.11601191264E+00  0.16419965839E+00  0.10500000000E+00 0.  1.
         13    1    4    4    0    0 -0.82564658609E-01 -0.20446911170E+00 -0.37580335211E+00  0.44819381963E+00  0.10500000000E+00 0. -1.
    3000001    1    5    5    0    0 -0.89114123506E+01  0.16650021736E+02 -0.91784980951E+01  0.21020973364E+02  0.10000000000E+01 0.  1.
        -13    1    6    6    0    0 -0.80790095083E+01  0.17170682245E+02 -0.19032579821E+02  0.26876622612E+02  0.10500000000E+00 0. -1.
         13    1    6    6    0    0 -0.43867489159E+01  0.93943491909E+01 -0.10282112846E+02  0.14602405019E+02  0.10500000000E+00 0.  1.
</event>
<event>
11    0  0.3482687E-009  0.9118800E+02  0.7816531E-02  0.1126479E+00
         25   -1    0    0    0    0  0.00000000000E+00  0.00000000000E+00  0.99999998245E-14  0.12500000000E+03  0.12500000000E+03 0.  0.
    3000001    1    3    3    0    0 -0.90700078051E+01 -0.56199465377E+01  0.30382445533E+02  0.32217104730E+02  0.10000000000E+01 0. -1.
    1000022    2    1    0    0    0 -0.10125081367E+02 -0.51274392536E+01  0.60641916482E+02  0.62500001270E+02  0.10000010905E+02 0.  0.
    3000022    2    3    3    0    0 -0.10550735622E+01  0.49250728409E+00  0.30259470950E+02  0.30282896540E+02  0.24999404469E+00 0.  0.
    1000022    2    1    0    0    0  0.10125081367E+02  0.51274392536E+01 -0.60641916482E+02  0.62499998730E+02  0.99999950300E+01 0.  0.
    3000022    2    5    5    0    0  0.91499223147E+01  0.71388251221E+01 -0.38196906254E+02  0.39921799235E+02  0.25000856608E+00 0.  0.
        -13    1    4    4    0    0 -0.70216116226E+00  0.38315966238E+00  0.20616672839E+02  0.20632451759E+02  0.10500000000E+00 0. -1.
         13    1    4    4    0    0 -0.35291239997E+00  0.10934762171E+00  0.96427981106E+01  0.96504447807E+01  0.10500000000E+00 0.  1.
    3000001    1    5    5    0    0  0.97515905261E+00 -0.20113858684E+01 -0.22445010229E+02  0.22578199495E+02  0.10000000000E+01 0. -1.
        -13    1    6    6    0    0  0.57015324420E+01  0.43771879481E+01 -0.23573670629E+02  0.24645409683E+02  0.10500000000E+00 0.  1.
         13    1    6    6    0    0  0.34483898727E+01  0.27616371740E+01 -0.14623235625E+02  0.15276389552E+02  0.10500000000E+00 0. -1.
</event>
<event>
11    0  0.3482687E-009  0.9118800E+02  0.7816531E-02  0.1126479E+00
         25   -1    0    0    0    0  0.00000000000E+00  0.00000000000E+00  0.99999998245E-14  0.12500000000E+03  0.12500000000E+03 0.  0.
    3000001    1    3    3    0    0  0.18419205026E+02  0.15029366265E+02 -0.12072824852E+02  0.26681492912E+02  0.10000000000E+01 0. -1.
    1000022    2    1    0    0    0  0.49056011240E+02  0.25443149466E+02 -0.27429981765E+02  0.62500001260E+02  0.10000008214E+02 0.  0.
    3000022    2    3    3    0    0  0.30636806214E+02  0.10413783201E+02 -0.15357156913E+02  0.35818508348E+02  0.24999246315E+00 0.  0.
    1000022    2    1    0    0    0 -0.49056011240E+02 -0.25443149466E+02  0.27429981765E+02  0.62499998740E+02  0.99999924701E+01 0.  0.
    3000022    2    5    5    0    0  0.35664665726E+00 -0.44883370091E+00 -0.12912682096E+00  0.63861298903E+00  0.25000856917E+00 0.  0.
        -13    1    4    4    0    0  0.11497208603E+02  0.38617159959E+01 -0.58017901362E+01  0.13445090178E+02  0.10500000000E+00 0. -1.
         13    1    4    4    0    0  0.19139597611E+02  0.65520672055E+01 -0.95553667768E+01  0.22373418170E+02  0.10500000000E+00 0.  1.
    3000001    1    5    5    0    0 -0.49412657897E+02 -0.24994315765E+02  0.27559108585E+02  0.61861385751E+02  0.10000000000E+01 0. -1.
        -13    1    6    6    0    0  0.27198045588E+00 -0.34866176943E+00 -0.66611135438E-01  0.45934784337E+00  0.10500000000E+00 0. -1.
         13    1    6    6    0    0  0.84666201375E-01 -0.10017193149E+00 -0.62515685522E-01  0.17926514566E+00  0.10500000000E+00 0.  1.
</event>
<event>
11    0  0.3482687E-009  0.9118800E+02  0.7816531E-02  0.1126479E+00
         25   -1    0    0    0    0  0.00000000000E+00  0.00000000000E+00  0.99999998245E-14  0.12500000000E+03  0.12500000000E+03 0.  0.
    3000001    1    3    3    0    0 -0.13195249339E+02 -0.34907788597E+01  0.39566254154E+00  0.13691482426E+02  0.10000000000E+01 0. -1.
    1000022    2    1    0    0    0 -0.52858361863E+02 -0.29530729723E+02  0.11839751606E+02  0.62499998197E+02  0.99999819826E+01 0.  0.
    3000022    2    3    3    0    0 -0.39663112524E+02 -0.26039950863E+02  0.11444089064E+02  0.48808515771E+02  0.25000235114E+00 0.  0.
    1000022    2    1    0    0    0  0.52858361863E+02  0.29530729723E+02 -0.11839751606E+02  0.62500001803E+02  0.10000004522E+02 0.  0.
    3000022    2    5    5    0    0  0.14666356554E+02  0.37611720373E+01 -0.11092558507E+01  0.15183589090E+02  0.24999891057E+00 0.  0.
        -13    1    4    4    0    0 -0.22239943547E+02 -0.14594652872E+02  0.64838378744E+01  0.27380105186E+02  0.10500000000E+00 0. -1.
         13    1    4    4    0    0 -0.17423168977E+02 -0.11445297992E+02  0.49602511899E+01  0.21428410585E+02  0.10500000000E+00 0.  1.
    3000001    1    5    5    0    0  0.38192005310E+02  0.25769557686E+02 -0.10730495755E+02  0.47316412713E+02  0.10000000000E+01 0. -1.
        -13    1    6    6    0    0  0.73354089428E+01  0.19119098817E+01 -0.61644978419E+00  0.76062250223E+01  0.10500000000E+00 0.  1.
         13    1    6    6    0    0  0.73309476108E+01  0.18492621555E+01 -0.49280606651E+00  0.75773640675E+01  0.10500000000E+00 0. -1.
</event>
<event>
11    0  0.3482687E-009  0.9118800E+02  0.7816531E-02  0.1126479E+00
         25   -1    0    0    0    0  0.00000000000E+00  0.00000000000E+00  0.99999998245E-14  0.12500000000E+03  0.12500000000E+03 0.  0.
    3000001    1    3    3    0    0 -0.29969931092E+01 -0.11887277096E+02 -0.21465221376E+02  0.24739544320E+02  0.10000000000E+01 0.  1.
    1000022    2    1    0    0    0 -0.39228134189E+01 -0.39390371314E+02 -0.47320822488E+02  0.62499999100E+02  0.99999914574E+01 0.  0.
    3000022    2    3    3    0    0 -0.92582030961E+00 -0.27503094218E+02 -0.25855601112E+02  0.37760454779E+02  0.25000294059E+00 0.  0.
    1000022    2    1    0    0    0  0.39228134189E+01  0.39390371314E+02  0.47320822488E+02  0.62500000900E+02  0.10000002711E+02 0.  0.
    3000022    2    5    5    0    0  0.27847208301E+01  0.39082986235E+02  0.46265144374E+02  0.60628050952E+02  0.24999025831E+00 0.  0.
        -13    1    4    4    0    0 -0.36381500691E+00 -0.12778600653E+02 -0.11995753267E+02  0.17530947420E+02  0.10500000000E+00 0. -1.
         13    1    4    4    0    0 -0.56200530270E+00 -0.14724493565E+02 -0.13859847845E+02  0.20229507359E+02  0.10500000000E+00 0.  1.
    3000001    1    5    5    0    0  0.11380925888E+01  0.30738507812E+00  0.10556781142E+01  0.18719499480E+01  0.10000000000E+01 0. -1.
        -13    1    6    6    0    0  0.13960427335E+01  0.20414389619E+02  0.24108193646E+02  0.31621389355E+02  0.10500000000E+00 0. -1.
         13    1    6    6    0    0  0.13886780966E+01  0.18668596616E+02  0.22156950728E+02  0.29006661598E+02  0.10500000000E+00 0.  1.
</event>
<event>
11    0  0.3482687E-009  0.9118800E+02  0.7816531E-02  0.1126479E+00
         25   -1    0    0    0    0  0.00000000000E+00  0.00000000000E+00  0.99999998245E-14  0.12500000000E+03  0.12500000000E+03 0.  0.
    3000001    1    3    3    0    0  0.64543443874E+01  0.11895727882E+02  0.28113834078E+02  0.31217856587E+02  0.10000000000E+01 0.  1.
    1000022    2    1    0    0    0  0.32197990922E+01  0.22218386148E+02  0.57464995883E+02  0.62500004129E+02  0.10000048749E+02 0.  0.
    3000022    2    3    3    0    0 -0.32345452951E+01  0.10322658266E+02  0.29351161806E+02  0.31282147542E+02  0.24999711224E+00 0.  0.
    1000022    2    1    0    0    0 -0.32197990922E+01 -0.22218386148E+02 -0.57464995883E+02  0.62499995871E+02  0.99999971424E+01 0.  0.
    3000022    2    5    5    0    0  0.17161697370E+01 -0.11793932164E+00 -0.25033135636E+01  0.30476615050E+01  0.25002720143E+00 0.  0.
        -13    1    4    4    0    0 -0.18471706839E+01  0.59909195725E+01  0.17176924144E+02  0.18285538136E+02  0.10500000000E+00 0. -1.
         13    1    4    4    0    0 -0.13873746112E+01  0.43317386938E+01  0.12174237661E+02  0.12996609406E+02  0.10500000000E+00 0.  1.
    3000001    1    5    5    0    0 -0.49359688293E+01 -0.22100446826E+02 -0.54961682320E+02  0.59452334366E+02  0.10000000000E+01 0. -1.
        -13    1    6    6    0    0  0.80362557830E+00 -0.12038975536E+00 -0.11486116700E+01  0.14109009645E+01  0.10500000000E+00 0.  1.
         13    1    6    6    0    0  0.91254415874E+00  0.24504337180E-02 -0.13547018937E+01  0.16367605405E+01  0.10500000000E+00 0. -1.
</event>
<event>
11    0  0.3482687E-009  0.9118800E+02  0.7816531E-02  0.1126479E+00
         25   -1    0    0    0    0  0.00000000000E+00  0.00000000000E+00  0.99999998245E-14  0.12500000000E+03  0.12500000000E+03 0.  0.
    3000001    1    3    3    0    0 -0.12914950176E+02  0.24864535828E+01  0.31777475340E+02  0.34406196076E+02  0.10000000000E+01 0.  1.
    1000022    2    1    0    0    0 -0.16099130057E+02  0.94885487101E+01  0.58796560415E+02  0.62499999521E+02  0.99999939109E+01 0.  0.
    3000022    2    3    3    0    0 -0.31841798814E+01  0.70020951272E+01  0.27019085076E+02  0.28093803445E+02  0.24999196733E+00 0.  0.
    1000022    2    1    0    0    0  0.16099130057E+02 -0.94885487101E+01 -0.58796560415E+02  0.62500000479E+02  0.99999998986E+01 0.  0.
    3000022    2    5    5    0    0 -0.39102547854E+00 -0.38600255181E+00  0.13914339197E+00  0.61948044705E+00  0.24999249166E+00 0.  0.
        -13    1    4    4    0    0 -0.14806316939E+01  0.34016073916E+01  0.12917890140E+02  0.13440465533E+02  0.10500000000E+00 0. -1.
         13    1    4    4    0    0 -0.17035481875E+01  0.36004877356E+01  0.14101194936E+02  0.14653337912E+02  0.10500000000E+00 0.  1.
    3000001    1    5    5    0    0  0.16490155535E+02 -0.91025461583E+01 -0.58935703807E+02  0.61880520032E+02  0.10000000000E+01 0.  1.
        -13    1    6    6    0    0 -0.26849160566E+00 -0.17909466496E+00  0.10254758323E+00  0.35454710287E+00  0.10500000000E+00 0.  1.
         13    1    6    6    0    0 -0.12253387287E+00 -0.20690788684E+00  0.36595808734E-01  0.26493334418E+00  0.10500000000E+00 0. -1.
</event>
<event>
11    0  0.3482687E-009  0.9118800E+02  0.7816531E-02  0.1126479E+00
         25   -1    0    0    0    0  0.00000000000E+00  0.00000000000E+00  0.99999998245E-14  0.12500000000E+03  0.12500000000E+03 0.  0.
    3000001    1    3    3    0    0  0.43164360161E+02  0.18484630204E+02  0.51887319821E+01  0.47252158484E+02  0.10000000000E+01 0.  1.
    1000022    2    1    0    0    0  0.54792961064E+02  0.28161748733E+02  0.33010903130E+01  0.62499999836E+02  0.10000005418E+02 0.  0.
    3000022    2    3    3    0    0  0.11628600903E+02  0.96771185291E+01 -0.18876416691E+01  0.15247841351E+02  0.24998561808E+00 0.  0.
    1000022    2    1    0    0    0 -0.54792961064E+02 -0.28161748733E+02 -0.33010903130E+01  0.62500000164E+02  0.10000007473E+02 0.  0.
    3000022    2    5    5    0    0 -0.48645614958E+02 -0.21658743684E+02 -0.12483817202E+01  0.53264603509E+02  0.24999488804E+00 0.  0.
        -13    1    4    4    0    0  0.71098111384E+01  0.59960451391E+01 -0.11531287032E+01  0.93724437870E+01  0.10500000000E+00 0.  1.
         13    1    4    4    0    0  0.45187897647E+01  0.36810733901E+01 -0.73451296587E+00  0.58753975642E+01  0.10500000000E+00 0. -1.
    3000001    1    5    5    0    0 -0.61473461054E+01 -0.65030050493E+01 -0.20527085928E+01  0.92353966552E+01  0.10000000000E+01 0.  1.
        -13    1    6    6    0    0 -0.15165718704E+02 -0.67428708354E+01 -0.43717217517E+00  0.16603236896E+02  0.10500000000E+00 0. -1.
         13    1    6    6    0    0 -0.33479896254E+02 -0.14915872849E+02 -0.81120954501E+00  0.36661366613E+02  0.10500000000E+00 0.  1.
</event>
<event>
11    0  0.3482687E-009  0.9118800E+02  0.7816531E-02  0.1126479E+00
         25   -1    0    0    0    0  0.00000000000E+00  0.00000000000E+00  0.99999998245E-14  0.12500000000E+03  0.12500000000E+03 0.  0.
    3000001    1    3    3    0    0 -0.16433136563E+02  0.38615610945E+02 -0.33348696993E+02  0.53612955310E+02  0.10000000000E+01 0. -1.
    1000022    2    1    0    0    0 -0.16084056233E+02  0.46747029703E+02 -0.36908922416E+02  0.62499998512E+02  0.99999804593E+01 0.  0.
    3000022    2    3    3    0    0  0.34908033075E+00  0.81314187581E+01 -0.35602254235E+01  0.88870432025E+01  0.25000743959E+00 0.  0.
    1000022    2    1    0    0    0  0.16084056233E+02 -0.46747029703E+02  0.36908922416E+02  0.62500001488E+02  0.99999990546E+01 0.  0.
    3000022    2    5    5    0    0  0.15887195727E+02 -0.46664329507E+02  0.36699299424E+02  0.61456193469E+02  0.25000215007E+00 0.  0.
        -13    1    4    4    0    0  0.16525784990E+00  0.50598944956E+01 -0.21799126621E+01  0.55129743948E+01  0.10500000000E+00 0.  1.
         13    1    4    4    0    0  0.18382248085E+00  0.30715242626E+01 -0.13803127614E+01  0.33740688077E+01  0.10500000000E+00 0. -1.
    3000001    1    5    5    0    0  0.19686050533E+00 -0.82700196115E-01  0.20962299197E+00  0.10438080186E+01  0.10000000000E+01 0.  1.
        -13    1    6    6    0    0  0.82394794133E+01 -0.24178382682E+02  0.19100876129E+02  0.31895731752E+02  0.10500000000E+00 0.  1.
         13    1    6    6    0    0  0.76477163140E+01 -0.22485946825E+02  0.17598423295E+02  0.29560461717E+02  0.10500000000E+00 0. -1.
</event>
<event>
11    0  0.3482687E-009  0.9118800E+02  0.7816531E-02  0.1126479E+00
         25   -1    0    0    0    0  0.00000000000E+00  0.00000000000E+00  0.99999998245E-14  0.12500000000E+03  0.12500000000E+03 0.  0.
    3000001    1    3    3    0    0 -0.24415148331E+02  0.25312624296E+02  0.25185024238E+02  0.43267931112E+02  0.10000000000E+01 0.  1.
    1000022    2    1    0    0    0 -0.29365452142E+02  0.39396061367E+02  0.37307783251E+02  0.62500000548E+02  0.99999973333E+01 0.  0.
    3000022    2    3    3    0    0 -0.49503038108E+01  0.14083437071E+02  0.12122759012E+02  0.19232069436E+02  0.25000236928E+00 0.  0.
    1000022    2    1    0    0    0  0.29365452142E+02 -0.39396061367E+02 -0.37307783251E+02  0.62499999452E+02  0.99999904874E+01 0.  0.
    3000022    2    5    5    0    0  0.16596989945E+02 -0.29527633918E+02 -0.23365145810E+02  0.41150137017E+02  0.24999562581E+00 0.  0.
        -13    1    4    4    0    0 -0.33248605233E+01  0.95021905452E+01  0.82389971047E+01  0.13009166805E+02  0.10500000000E+00 0.  1.
         13    1    4    4    0    0 -0.16254432875E+01  0.45812465256E+01  0.38837619075E+01  0.62229026316E+01  0.10500000000E+00 0. -1.
    3000001    1    5    5    0    0  0.12768462196E+02 -0.98684274490E+01 -0.13942637441E+02  0.21349862435E+02  0.10000000000E+01 0. -1.
        -13    1    6    6    0    0  0.39115072576E+01 -0.69694136893E+01 -0.54953849408E+01  0.96996338511E+01  0.10500000000E+00 0.  1.
         13    1    6    6    0    0  0.12685482688E+02 -0.22558220229E+02 -0.17869760869E+02  0.31450503166E+02  0.10500000000E+00 0. -1.
</event>
<event>
11    0  0.3482687E-009  0.9118800E+02  0.7816531E-02  0.1126479E+00
         25   -1    0    0    0    0  0.00000000000E+00  0.00000000000E+00  0.99999998245E-14  0.12500000000E+03  0.12500000000E+03 0.  0.
    3000001    1    3    3    0    0 -0.47343200963E+01 -0.22240182364E+01 -0.98293079526E+00  0.54153667316E+01  0.10000000000E+01 0.  1.
    1000022    2    1    0    0    0 -0.34814914641E+02 -0.48483811499E+02 -0.15604221772E+02  0.62499999426E+02  0.99999966095E+01 0.  0.
    3000022    2    3    3    0    0 -0.30080594545E+02 -0.46259793263E+02 -0.14621290977E+02  0.57084632695E+02  0.24999828972E+00 0.  0.
    1000022    2    1    0    0    0  0.34814914641E+02  0.48483811499E+02  0.15604221772E+02  0.62500000574E+02  0.10000003780E+02 0.  0.
    3000022    2    5    5    0    0  0.33804259147E+02  0.42499640162E+02  0.13124908691E+02  0.55868354889E+02  0.24999909581E+00 0.  0.
        -13    1    4    4    0    0 -0.20031431935E+02 -0.30706672706E+02 -0.97127308875E+01  0.37927644012E+02  0.10500000000E+00 0. -1.
         13    1    4    4    0    0 -0.10049162610E+02 -0.15553120557E+02 -0.49085600894E+01  0.19156988682E+02  0.10500000000E+00 0.  1.
    3000001    1    5    5    0    0  0.10106554946E+01  0.59841713379E+01  0.24793130814E+01  0.66316456845E+01  0.10000000000E+01 0.  1.
        -13    1    6    6    0    0  0.16757719780E+02  0.21021136761E+02  0.65603697005E+01  0.27672347905E+02  0.10500000000E+00 0. -1.
         13    1    6    6    0    0  0.17046539366E+02  0.21478503400E+02  0.65645389901E+01  0.28196006984E+02  0.10500000000E+00 0.  1.
</event>
<event>
11    0  0.3482687E-009  0.9118800E+02  0.7816531E-02  0.1126479E+00
         25   -1    0    0    0    0  0.00000000000E+00  0.00000000000E+00  0.99999998245E-14  0.12500000000E+03  0.12500000000E+03 0.  0.
    3000001    1    3    3    0    0 -0.20809870473E+02  0.46994248826E+00  0.10252195806E+02  0.23224536031E+02  0.10000000000E+01 0.  1.
    1000022    2    1    0    0    0 -0.59151249019E+02 -0.49414207464E+01  0.16821478066E+02  0.62500000617E+02  0.10000002663E+02 0.  0.
    3000022    2    3    3    0    0 -0.38341378546E+02 -0.54113632347E+01  0.65692822598E+01  0.39275464585E+02  0.24997615678E+00 0.  0.
    1000022    2    1    0    0    0  0.59151249019E+02  0.49414207464E+01 -0.16821478066E+02  0.62499999383E+02  0.99999949552E+01 0.  0.
    3000022    2    5    5    0    0  0.25061711456E+01  0.23799747027E+01 -0.13167208986E+01  0.37069441138E+01  0.25001468309E+00 0.  0.
        -13    1    4    4    0    0 -0.12748247302E+02 -0.17530389955E+01  0.22109195347E+01  0.13057187491E+02  0.10500000000E+00 0.  1.
         13    1    4    4    0    0 -0.25593131244E+02 -0.36583242392E+01  0.43583627251E+01  0.26218277094E+02  0.10500000000E+00 0. -1.
    3000001    1    5    5    0    0  0.56645077873E+02  0.25614460438E+01 -0.15504757167E+02  0.58793055270E+02  0.10000000000E+01 0.  1.
        -13    1    6    6    0    0  0.11253186624E+01  0.11582094210E+01 -0.63398496461E+00  0.17380313836E+01  0.10500000000E+00 0.  1.
         13    1    6    6    0    0  0.13808524832E+01  0.12217652817E+01 -0.68273593394E+00  0.19689127303E+01  0.10500000000E+00 0. -1.
</event>
<event>
11    0  0.3482687E-009  0.9118800E+02  0.7816531E-02  0.1126479E+00
         25   -1    0    0    0    0  0.00000000000E+00  0.00000000000E+00  0.99999998245E-14  0.12500000000E+03  0.12500000000E+03 0.  0.
    3000001    1    3    3    0    0  0.33486786767E+01  0.36917930189E+01  0.34979763516E+01  0.61708040911E+01  0.10000000000E+01 0. -1.
    1000022    2    1    0    0    0  0.34297227181E+02  0.50321149204E+02  0.98859690560E+01  0.62500001341E+02  0.99999967014E+01 0.  0.
    3000022    2    3    3    0    0  0.30948548504E+02  0.46629356185E+02  0.63879927044E+01  0.56329197250E+02  0.24999871694E+00 0.  0.
    1000022    2    1    0    0    0 -0.34297227181E+02 -0.50321149204E+02 -0.98859690560E+01  0.62499998659E+02  0.99999799376E+01 0.  0.
    3000022    2    5    5    0    0 -0.26626935755E+02 -0.38006466683E+02 -0.11662524392E+02  0.47849369833E+02  0.25000155098E+00 0.  0.
        -13    1    4    4    0    0  0.20785742135E+02  0.31393024791E+02  0.42659503677E+01  0.37891667147E+02  0.10500000000E+00 0. -1.
         13    1    4    4    0    0  0.10162806368E+02  0.15236331394E+02  0.21220423367E+01  0.18437530103E+02  0.10500000000E+00 0.  1.
    3000001    1    5    5    0    0 -0.76702914251E+01 -0.12314682520E+02  0.17765553365E+01  0.14650628826E+02  0.10000000000E+01 0. -1.
        -13    1    6    6    0    0 -0.10388695621E+02 -0.14723557282E+02 -0.45430334516E+01  0.18583818598E+02  0.10500000000E+00 0.  1.
         13    1    6    6    0    0 -0.16238240134E+02 -0.23282909401E+02 -0.71194909408E+01  0.29265551235E+02  0.10500000000E+00 0. -1.
</event>
<event>
11    0  0.3482687E-009  0.9118800E+02  0.7816531E-02  0.1126479E+00
         25   -1    0    0    0    0  0.00000000000E+00  0.00000000000E+00  0.99999998245E-14  0.12500000000E+03  0.12500000000E+03 0.  0.
    3000001    1    3    3    0    0 -0.12356102594E+02 -0.38403175002E+02 -0.34127468002E+02  0.52850366071E+02  0.10000000000E+01 0.  1.
    1000022    2    1    0    0    0 -0.17390483860E+02 -0.46029752920E+02 -0.37216714473E+02  0.62500009943E+02  0.10000016196E+02 0.  0.
    3000022    2    3    3    0    0 -0.50343812664E+01 -0.76265779177E+01 -0.30892464707E+01  0.96496438722E+01  0.24999526462E+00 0.  0.
    1000022    2    1    0    0    0  0.17390483860E+02  0.46029752920E+02  0.37216714473E+02  0.62499990057E+02  0.99998919121E+01 0.  0.
    3000022    2    5    5    0    0  0.39905775585E+01  0.20746251187E+02  0.11721091821E+02  0.24161501261E+02  0.25000431097E+00 0.  0.
        -13    1    4    4    0    0 -0.31630318716E+01 -0.47477882568E+01 -0.19865606683E+01  0.60418302063E+01  0.10500000000E+00 0. -1.
         13    1    4    4    0    0 -0.18713493948E+01 -0.28787896609E+01 -0.11026858024E+01  0.36078136659E+01  0.10500000000E+00 0.  1.
    3000001    1    5    5    0    0  0.13399906302E+02  0.25283501733E+02  0.25495622651E+02  0.38338488796E+02  0.10000000000E+01 0.  1.
        -13    1    6    6    0    0  0.11536759252E+01  0.59377855159E+01  0.34022631236E+01  0.69407985373E+01  0.10500000000E+00 0.  1.
         13    1    6    6    0    0  0.28369016332E+01  0.14808465671E+02  0.83188286978E+01  0.17220702724E+02  0.10500000000E+00 0. -1.
</event>
<event>
11    0  0.3482687E-009  0.9118800E+02  0.7816531E-02  0.1126479E+00
         25   -1    0    0    0    0  0.00000000000E+00  0.00000000000E+00  0.99999998245E-14  0.12500000000E+03  0.12500000000E+03 0.  0.
    3000001    1    3    3    0    0  0.33578253017E+02 -0.37840491477E+02 -0.24347312899E+02  0.56153303699E+02  0.10000000000E+01 0.  1.
    1000022    2    1    0    0    0  0.34508958714E+02 -0.42262825396E+02 -0.28796447592E+02  0.62499999627E+02  0.99999958726E+01 0.  0.
    3000022    2    3    3    0    0  0.93070569661E+00 -0.44223339183E+01 -0.44491346930E+01  0.63466959272E+01  0.24999859482E+00 0.  0.
    1000022    2    1    0    0    0 -0.34508958714E+02  0.42262825396E+02  0.28796447592E+02  0.62500000373E+02  0.10000000541E+02 0.  0.
    3000022    2    5    5    0    0 -0.31299320495E+02  0.40104407423E+02  0.28889896548E+02  0.58503842425E+02  0.24999551225E+00 0.  0.
        -13    1    4    4    0    0  0.31565328174E+00 -0.16454263236E+01 -0.17232485942E+01  0.24057588196E+01  0.10500000000E+00 0. -1.
         13    1    4    4    0    0  0.61505241486E+00 -0.27769075947E+01 -0.27258860988E+01  0.39409371076E+01  0.10500000000E+00 0.  1.
    3000001    1    5    5    0    0 -0.32096382190E+01  0.21584179724E+01 -0.93448955624E-01  0.39961579483E+01  0.10000000000E+01 0. -1.
        -13    1    6    6    0    0 -0.16707208371E+02  0.21345557583E+02  0.15457375405E+02  0.31204248420E+02  0.10500000000E+00 0. -1.
         13    1    6    6    0    0 -0.14592112124E+02  0.18758849840E+02  0.13432521143E+02  0.27299594005E+02  0.10500000000E+00 0.  1.
</event>
<event>
11    0  0.3482687E-009  0.9118800E+02  0.7816531E-02  0.1126479E+00
         25   -1    0    0    0    0  0.00000000000E+00  0.00000000000E+00  0.99999998245E-14  0.12500000000E+03  0.12500000000E+03 0.  0.
    3000001    1    3    3    0    0 -0.32517386425E+02 -0.39902338616E+02  0.19718882142E+02  0.55130856695E+02  0.10000000000E+01 0. -1.
    1000022    2    1    0    0    0 -0.36176950972E+02 -0.43138073064E+02  0.25230631484E+02  0.62499999773E+02  0.10000003867E+02 0.  0.
    3000022    2    3    3    0    0 -0.36595645465E+01 -0.32357344473E+01  0.55117493418E+01  0.73691430785E+01  0.24999764061E+00 0.  0.
    1000022    2    1    0    0    0  0.36176950972E+02  0.43138073064E+02 -0.25230631484E+02  0.62500000227E+02  0.10000006700E+02 0.  0.
    3000022    2    5    5    0    0  0.23577006047E+02  0.21157458009E+02 -0.16225900703E+02  0.35592915161E+02  0.25002498550E+00 0.  0.
        -13    1    4    4    0    0 -0.12846559785E+01 -0.11479916473E+01  0.18612748125E+01  0.25384236709E+01  0.10500000000E+00 0.  1.
         13    1    4    4    0    0 -0.23749085681E+01 -0.20877428000E+01  0.36504745293E+01  0.48307194076E+01  0.10500000000E+00 0. -1.
    3000001    1    5    5    0    0  0.12599944924E+02  0.21980615055E+02 -0.90047307811E+01  0.26907085066E+02  0.10000000000E+01 0.  1.
        -13    1    6    6    0    0  0.15473574434E+02  0.13861023507E+02 -0.10699402940E+02  0.23367664126E+02  0.10500000000E+00 0.  1.
         13    1    6    6    0    0  0.81034316132E+01  0.72964345017E+01 -0.55264977630E+01  0.12225251035E+02  0.10500000000E+00 0. -1.
</event>
<event>
11    0  0.3482687E-009  0.9118800E+02  0.7816531E-02  0.1126479E+00
         25   -1    0    0    0    0  0.00000000000E+00  0.00000000000E+00  0.99999998245E-14  0.12500000000E+03  0.12500000000E+03 0.  0.
    3000001    1    3    3    0    0  0.30326471373E+02 -0.54657356129E+01  0.30056271535E+02  0.43057503299E+02  0.10000000000E+01 0. -1.
    1000022    2    1    0    0    0  0.39842429550E+02 -0.39354354970E+01  0.46939782042E+02  0.62499999809E+02  0.99999996464E+01 0.  0.
    3000022    2    3    3    0    0  0.95159581769E+01  0.15303001160E+01  0.16883510508E+02  0.19442496510E+02  0.24993003744E+00 0.  0.
    1000022    2    1    0    0    0 -0.39842429550E+02  0.39354354970E+01 -0.46939782042E+02  0.62500000191E+02  0.10000002034E+02 0.  0.
    3000022    2    5    5    0    0 -0.63138019829E+01 -0.10716236748E+00 -0.13779507384E+02  0.15159581103E+02  0.24999242436E+00 0.  0.
        -13    1    4    4    0    0  0.68294074585E+01  0.11365708298E+01  0.12152616783E+02  0.13986769432E+02  0.10500000000E+00 0.  1.
         13    1    4    4    0    0  0.26865507183E+01  0.39372928617E+00  0.47308937249E+01  0.54557270779E+01  0.10500000000E+00 0. -1.
    3000001    1    5    5    0    0 -0.33528627567E+02  0.40425978645E+01 -0.33160274659E+02  0.47340419088E+02  0.10000000000E+01 0.  1.
        -13    1    6    6    0    0 -0.34192603730E+01  0.21434192293E-02 -0.73883872172E+01  0.81419062119E+01  0.10500000000E+00 0.  1.
         13    1    6    6    0    0 -0.28945416099E+01 -0.10930578671E+00 -0.63911201666E+01  0.70176748906E+01  0.10500000000E+00 0. -1.
</event>
<event>
11    0  0.3482687E-009  0.9118800E+02  0.7816531E-02  0.1126479E+00
         25   -1    0    0    0    0  0.00000000000E+00  0.00000000000E+00  0.99999998245E-14  0.12500000000E+03  0.12500000000E+03 0.  0.
    3000001    1    3    3    0    0 -0.58624256874E+01 -0.57969361204E+01 -0.19871605552E+01  0.85393975429E+01  0.10000000000E+01 0.  1.
    1000022    2    1    0    0    0 -0.29743027287E+02 -0.54010188199E+02  0.21217669641E+01  0.62499999799E+02  0.99999989176E+01 0.  0.
    3000022    2    3    3    0    0 -0.23880601599E+02 -0.48213252079E+02  0.41089275193E+01  0.53960602256E+02  0.25000347088E+00 0.  0.
    1000022    2    1    0    0    0  0.29743027287E+02  0.54010188199E+02 -0.21217669641E+01  0.62500000201E+02  0.10000001427E+02 0.  0.
    3000022    2    5    5    0    0  0.90584193871E+01  0.84337317813E+01 -0.11137021716E+01  0.12429224511E+02  0.24999171273E+00 0.  0.
        -13    1    4    4    0    0 -0.11096059171E+02 -0.22261554943E+02  0.18746748518E+01  0.24944434017E+02  0.10500000000E+00 0.  1.
         13    1    4    4    0    0 -0.12784542428E+02 -0.25951697136E+02  0.22342526675E+01  0.29016168239E+02  0.10500000000E+00 0. -1.
    3000001    1    5    5    0    0  0.20684607899E+02  0.45576456418E+02 -0.10080647925E+01  0.50070775690E+02  0.10000000000E+01 0. -1.
        -13    1    6    6    0    0  0.64252400905E+01  0.59546991105E+01 -0.82704499650E+00  0.87998397794E+01  0.10500000000E+00 0.  1.
         13    1    6    6    0    0  0.26331792966E+01  0.24790326708E+01 -0.28665717514E+00  0.36293847312E+01  0.10500000000E+00 0. -1.
</event>
<event>
11    0  0.3482687E-009  0.9118800E+02  0.7816531E-02  0.1126479E+00
         25   -1    0    0    0    0  0.00000000000E+00  0.00000000000E+00  0.99999998245E-14  0.12500000000E+03  0.12500000000E+03 0.  0.
    3000001    1    3    3    0    0 -0.78068611501E+01 -0.21335163658E+02  0.36632788019E+02  0.43117252317E+02  0.10000000000E+01 0.  1.
    1000022    2    1    0    0    0 -0.73809004985E+01 -0.26092666071E+02  0.55416109101E+02  0.62499999914E+02  0.99999963281E+01 0.  0.
    3000022    2    3    3    0    0  0.42596065155E+00 -0.47575024139E+01  0.18783321081E+02  0.19382747597E+02  0.24996375756E+00 0.  0.
    1000022    2    1    0    0    0  0.73809004985E+01  0.26092666071E+02 -0.55416109101E+02  0.62500000086E+02  0.99999973978E+01 0.  0.
    3000022    2    5    5    0    0  0.30657943212E+01  0.12533917936E+02 -0.15840782327E+02  0.20432598436E+02  0.25000092822E+00 0.  0.
        -13    1    4    4    0    0  0.11541594681E+00 -0.19189206858E+01  0.76792611620E+01  0.79169220303E+01  0.10500000000E+00 0. -1.
         13    1    4    4    0    0  0.31054470474E+00 -0.28385817280E+01  0.11104059919E+02  0.11465825567E+02  0.10500000000E+00 0.  1.
    3000001    1    5    5    0    0  0.43151061774E+01  0.13558748135E+02 -0.39575326773E+02  0.42067401649E+02  0.10000000000E+01 0.  1.
        -13    1    6    6    0    0  0.90212918661E+00  0.37007915170E+01 -0.46072167970E+01  0.59788934207E+01  0.10500000000E+00 0. -1.
         13    1    6    6    0    0  0.21636651346E+01  0.88331264190E+01 -0.11233565530E+02  0.14453705015E+02  0.10500000000E+00 0.  1.
</event>
<event>
11    0  0.3482687E-009  0.9118800E+02  0.7816531E-02  0.1126479E+00
         25   -1    0    0    0    0  0.00000000000E+00  0.00000000000E+00  0.99999998245E-14  0.12500000000E+03  0.12500000000E+03 0.  0.
    3000001    1    3    3    0    0  0.58921867154E+01  0.19304286191E+01  0.76290718794E+00  0.63266457401E+01  0.10000000000E+01 0.  1.
    1000022    2    1    0    0    0  0.52054172421E+02  0.70157242838E+01  0.32363446405E+02  0.62500000101E+02  0.10000004786E+02 0.  0.
    3000022    2    3    3    0    0  0.46161985706E+02  0.50852956647E+01  0.31600539217E+02  0.56173354361E+02  0.25001008360E+00 0.  0.
    1000022    2    1    0    0    0 -0.52054172421E+02 -0.70157242838E+01 -0.32363446405E+02  0.62499999899E+02  0.10000003524E+02 0.  0.
    3000022    2    5    5    0    0 -0.44275964480E+02 -0.91522783812E+01 -0.28932194528E+02  0.53677365846E+02  0.24998752922E+00 0.  0.
        -13    1    4    4    0    0  0.11757182307E+02  0.12991474007E+01  0.80142470762E+01  0.14288397425E+02  0.10500000000E+00 0. -1.
         13    1    4    4    0    0  0.34404803399E+02  0.37861482640E+01  0.23586292141E+02  0.41884956936E+02  0.10500000000E+00 0.  1.
    3000001    1    5    5    0    0 -0.77782079417E+01  0.21365540974E+01 -0.34312518765E+01  0.88226340532E+01  0.10000000000E+01 0.  1.
        -13    1    6    6    0    0 -0.28506315901E+02 -0.59412988005E+01 -0.18671625726E+02  0.34591179655E+02  0.10500000000E+00 0.  1.
         13    1    6    6    0    0 -0.15769648579E+02 -0.32109795807E+01 -0.10260568802E+02  0.19086186191E+02  0.10500000000E+00 0. -1.
</event>
<event>
11    0  0.3482687E-009  0.9118800E+02  0.7816531E-02  0.1126479E+00
         25   -1    0    0    0    0  0.00000000000E+00  0.00000000000E+00  0.99999998245E-14  0.12500000000E+03  0.12500000000E+03 0.  0.
    3000001    1    3    3    0    0  0.46810073258E+02  0.11401369499E+02 -0.18774461866E+02  0.51717062980E+02  0.10000000000E+01 0. -1.
    1000022    2    1    0    0    0  0.57531148886E+02  0.10620905148E+02 -0.19586043872E+02  0.62500000853E+02  0.10000013685E+02 0.  0.
    3000022    2    3    3    0    0  0.10721075628E+02 -0.78046435109E+00 -0.81158200643E+00  0.10782937873E+02  0.24999319522E+00 0.  0.
    1000022    2    1    0    0    0 -0.57531148886E+02 -0.10620905148E+02  0.19586043872E+02  0.62499999147E+02  0.10000003024E+02 0.  0.
    3000022    2    5    5    0    0 -0.30477373288E+02 -0.96886330767E+01  0.75629967489E+01  0.32863373707E+02  0.25003631773E+00 0.  0.
        -13    1    4    4    0    0  0.41305000432E+01 -0.27589813718E+00 -0.36899435914E+00  0.41574429913E+01  0.10500000000E+00 0. -1.
         13    1    4    4    0    0  0.65905755849E+01 -0.50456621391E+00 -0.44258764729E+00  0.66254948819E+01  0.10500000000E+00 0.  1.
    3000001    1    5    5    0    0 -0.27053775598E+02 -0.93227207105E+00  0.12023047123E+02  0.29636625440E+02  0.10000000000E+01 0.  1.
        -13    1    6    6    0    0 -0.13107679797E+02 -0.41150582613E+01  0.32047395185E+01  0.14107670060E+02  0.10500000000E+00 0. -1.
         13    1    6    6    0    0 -0.17369693491E+02 -0.55735748154E+01  0.43582572304E+01  0.18755703647E+02  0.10500000000E+00 0.  1.
</event>
<event>
11    0  0.3482687E-009  0.9118800E+02  0.7816531E-02  0.1126479E+00
         25   -1    0    0    0    0  0.00000000000E+00  0.00000000000E+00  0.99999998245E-14  0.12500000000E+03  0.12500000000E+03 0.  0.
    3000001    1    3    3    0    0  0.26182518405E+02 -0.30831155744E+02 -0.25422716564E+02  0.47784923899E+02  0.10000000000E+01 0. -1.
    1000022    2    1    0    0    0  0.29170031099E+02 -0.41685422089E+02 -0.34895341949E+02  0.62499999946E+02  0.99999987218E+01 0.  0.
    3000022    2    3    3    0    0  0.29875126933E+01 -0.10854266345E+02 -0.94726253855E+01  0.14715076047E+02  0.25000277612E+00 0.  0.
    1000022    2    1    0    0    0 -0.29170031099E+02  0.41685422089E+02  0.34895341949E+02  0.62500000054E+02  0.99999993971E+01 0.  0.
    3000022    2    5    5    0    0 -0.14166020349E+02  0.11970324804E+02  0.12413300687E+02  0.22318542582E+02  0.25000119694E+00 0.  0.
        -13    1    4    4    0    0  0.69493253919E+00 -0.25169474215E+01 -0.22118159706E+01  0.34236107320E+01  0.10500000000E+00 0. -1.
         13    1    4    4    0    0  0.22925801541E+01 -0.83373189232E+01 -0.72608094149E+01  0.11291465315E+02  0.10500000000E+00 0.  1.
    3000001    1    5    5    0    0 -0.15004010749E+02  0.29715097285E+02  0.22482041262E+02  0.40181457472E+02  0.10000000000E+01 0. -1.
        -13    1    6    6    0    0 -0.48524423559E+01  0.40325220429E+01  0.42015479702E+01  0.75809934171E+01  0.10500000000E+00 0. -1.
         13    1    6    6    0    0 -0.93135779935E+01  0.79378027612E+01  0.82117527168E+01  0.14737549165E+02  0.10500000000E+00 0.  1.
</event>
<event>
11    0  0.3482687E-009  0.9118800E+02  0.7816531E-02  0.1126479E+00
         25   -1    0    0    0    0  0.00000000000E+00  0.00000000000E+00  0.99999998245E-14  0.12500000000E+03  0.12500000000E+03 0.  0.
    3000001    1    3    3    0    0 -0.17558291029E+01 -0.98977909898E+01 -0.84797970022E+01  0.13189244084E+02  0.10000000000E+01 0. -1.
    1000022    2    1    0    0    0 -0.20638901985E+02 -0.51643695272E+02 -0.26706072661E+02  0.62499999483E+02  0.10000004101E+02 0.  0.
    3000022    2    3    3    0    0 -0.18883072882E+02 -0.41745904282E+02 -0.18226275659E+02  0.49310755399E+02  0.25001577057E+00 0.  0.
    1000022    2    1    0    0    0  0.20638901985E+02  0.51643695272E+02  0.26706072661E+02  0.62500000517E+02  0.10000010558E+02 0.  0.
    3000022    2    5    5    0    0  0.19675398162E+02  0.47453901097E+02  0.27076448245E+02  0.58070565687E+02  0.25005479428E+00 0.  0.
        -13    1    4    4    0    0 -0.12210243046E+02 -0.26895232597E+02 -0.11793296697E+02  0.31804660723E+02  0.10500000000E+00 0. -1.
         13    1    4    4    0    0 -0.66728298354E+01 -0.14850671685E+02 -0.64329789611E+01  0.17506094676E+02  0.10500000000E+00 0.  1.
    3000001    1    5    5    0    0  0.96350382259E+00  0.41897941743E+01 -0.37037558422E+00  0.44294348299E+01  0.10000000000E+01 0. -1.
        -13    1    6    6    0    0  0.55597140717E+01  0.13514111472E+02  0.76918351270E+01  0.16514144908E+02  0.10500000000E+00 0. -1.
         13    1    6    6    0    0  0.14115684090E+02  0.33939789626E+02  0.19384613118E+02  0.41556420779E+02  0.10500000000E+00 0.  1.
</event>
<event>
11    0  0.3482687E-009  0.9118800E+02  0.7816531E-02  0.1126479E+00
         25   -1    0    0    0    0  0.00000000000E+00  0.00000000000E+00  0.99999998245E-14  0.12500000000E+03  0.12500000000E+03 0.  0.
    3000001    1    3    3    0    0  0.10228548381E+02  0.15475045229E+02  0.37349910342E+02  0.41714698002E+02  0.10000000000E+01 0. -1.
    1000022    2    1    0    0    0  0.12964557594E+02  0.16890114999E+02  0.57904181907E+02  0.62499999370E+02  0.99999950340E+01 0.  0.
    3000022    2    3    3    0    0  0.27360092131E+01  0.14150697700E+01  0.20554271565E+02  0.20785301368E+02  0.25000909697E+00 0.  0.
    1000022    2    1    0    0    0 -0.12964557594E+02 -0.16890114999E+02 -0.57904181907E+02  0.62500000630E+02  0.10000002907E+02 0.  0.
    3000022    2    5    5    0    0 -0.49972506345E+01 -0.14179146746E+02 -0.37995266993E+02  0.40862250698E+02  0.25000382618E+00 0.  0.
        -13    1    4    4    0    0  0.19041583704E+01  0.95494324703E+00  0.14458214926E+02  0.14614675486E+02  0.10500000000E+00 0.  1.
         13    1    4    4    0    0  0.83185084270E+00  0.46012652302E+00  0.60960566388E+01  0.61706258827E+01  0.10500000000E+00 0. -1.
    3000001    1    5    5    0    0 -0.79673069592E+01 -0.27109682531E+01 -0.19908914914E+02  0.21637749932E+02  0.10000000000E+01 0.  1.
        -13    1    6    6    0    0 -0.31271527547E+01 -0.87271904663E+01 -0.23326021306E+02  0.25100940874E+02  0.10500000000E+00 0. -1.
         13    1    6    6    0    0 -0.18700978798E+01 -0.54519562795E+01 -0.14669245686E+02  0.15761309824E+02  0.10500000000E+00 0.  1.
</event>
<event>
11    0  0.3482687E-009  0.9118800E+02  0.7816531E-02  0.1126479E+00
         25   -1    0    0    0    0  0.00000000000E+00  0.00000000000E+00  0.99999998245E-14  0.12500000000E+03  0.12500000000E+03 0.  0.
    3000001    1    3    3    0    0  0.98874359081E+01 -0.87001218549E+01 -0.40641929353E+01  0.13819232010E+02  0.10000000000E+01 0.  1.
    1000022    2    1    0    0    0  0.29965812217E+02 -0.47424715131E+02 -0.25674823327E+02  0.62499999870E+02  0.99999961904E+01 0.  0.
    3000022    2    3    3    0    0  0.20078376309E+02 -0.38724593276E+02 -0.21610630391E+02  0.48680767860E+02  0.24998787147E+00 0.  0.
    1000022    2    1    0    0    0 -0.29965812217E+02  0.47424715131E+02  0.25674823327E+02  0.62500000130E+02  0.99999978157E+01 0.  0.
    3000022    2    5    5    0    0 -0.10615799922E+02  0.25409897263E+02  0.14431334178E+02  0.31091542196E+02  0.25000609788E+00 0.  0.
        -13    1    4    4    0    0  0.10964626109E+02 -0.21049454135E+02 -0.11703085271E+02  0.26462724254E+02  0.10500000000E+00 0. -1.
         13    1    4    4    0    0  0.91137502002E+01 -0.17675139141E+02 -0.99075451202E+01  0.22218043606E+02  0.10500000000E+00 0.  1.
    3000001    1    5    5    0    0 -0.19350012295E+02  0.22014817868E+02  0.11243489149E+02  0.31408457934E+02  0.10000000000E+01 0. -1.
        -13    1    6    6    0    0 -0.35422517368E+01  0.86010868914E+01  0.49052904817E+01  0.10516612705E+02  0.10500000000E+00 0. -1.
         13    1    6    6    0    0 -0.70735481853E+01  0.16808810371E+02  0.95260436965E+01  0.20574929490E+02  0.10500000000E+00 0.  1.
</event>
<event>
11    0  0.3482687E-009  0.9118800E+02  0.7816531E-02  0.1126479E+00
         25   -1    0    0    0    0  0.00000000000E+00  0.00000000000E+00  0.99999998245E-14  0.12500000000E+03  0.12500000000E+03 0.  0.
    3000001    1    3    3    0    0  0.32438530122E+02  0.12538662025E+02  0.12512249490E+02  0.36973404890E+02  0.10000000000E+01 0. -1.
    1000022    2    1    0    0    0  0.49835510190E+02  0.26678028560E+02  0.24717494618E+02  0.62500001018E+02  0.10000015165E+02 0.  0.
    3000022    2    3    3    0    0  0.17396980068E+02  0.14139366535E+02  0.12205245128E+02  0.25526596128E+02  0.24999950231E+00 0.  0.
    1000022    2    1    0    0    0 -0.49835510190E+02 -0.26678028560E+02 -0.24717494618E+02  0.62499998982E+02  0.10000002441E+02 0.  0.
    3000022    2    5    5    0    0 -0.24933562691E+02 -0.77687999904E+01 -0.11613702333E+02  0.28582816219E+02  0.24999872799E+00 0.  0.
        -13    1    4    4    0    0  0.10587802610E+02  0.85362815786E+01  0.73677892730E+01  0.15468193529E+02  0.10500000000E+00 0.  1.
         13    1    4    4    0    0  0.68091774586E+01  0.56030849569E+01  0.48374558549E+01  0.10058402599E+02  0.10500000000E+00 0. -1.
    3000001    1    5    5    0    0 -0.24901947499E+02 -0.18909228570E+02 -0.13103792285E+02  0.33917182763E+02  0.10000000000E+01 0. -1.
        -13    1    6    6    0    0 -0.15802629379E+02 -0.48652301317E+01 -0.73737274211E+01  0.18104597223E+02  0.10500000000E+00 0.  1.
         13    1    6    6    0    0 -0.91309333124E+01 -0.29035698587E+01 -0.42399749123E+01  0.10478218996E+02  0.10500000000E+00 0. -1.
</event>
<event>
11    0  0.3482687E-009  0.9118800E+02  0.7816531E-02  0.1126479E+00
         25   -1    0    0    0    0  0.00000000000E+00  0.00000000000E+00  0.99999998245E-14  0.12500000000E+03  0.12500000000E+03 0.  0.
    3000001    1    3    3    0    0  0.28767357174E+01  0.46489101106E+02 -0.85189936972E+01  0.47361222363E+02  0.10000000000E+01 0. -1.
    1000022    2    1    0    0    0  0.83544807756E+00  0.59658936193E+02 -0.15695953645E+02  0.62500002384E+02  0.10000034801E+02 0.  0.
    3000022    2    3    3    0    0 -0.20412876398E+01  0.13169835087E+02 -0.71769599474E+01  0.15138780022E+02  0.24999003198E+00 0.  0.
    1000022    2    1    0    0    0 -0.83544807756E+00 -0.59658936193E+02  0.15695953645E+02  0.62499997616E+02  0.10000004996E+02 0.  0.
    3000022    2    5    5    0    0  0.31861557806E+01 -0.39824392143E+02  0.75419113934E+01  0.40658046231E+02  0.24999518853E+00 0.  0.
        -13    1    4    4    0    0 -0.15133922407E+01  0.98343515375E+01 -0.53874398384E+01  0.11315492002E+02  0.10500000000E+00 0.  1.
         13    1    4    4    0    0 -0.52789539906E+00  0.33354835495E+01 -0.17895201090E+01  0.38232880197E+01  0.10500000000E+00 0. -1.
    3000001    1    5    5    0    0 -0.40216038582E+01 -0.19834544050E+02  0.81540422512E+01  0.21841951385E+02  0.10000000000E+01 0. -1.
        -13    1    6    6    0    0  0.24178177789E+01 -0.30258132762E+02  0.57497909595E+01  0.30894523174E+02  0.10500000000E+00 0.  1.
         13    1    6    6    0    0  0.76833800167E+00 -0.95662593810E+01  0.17921204339E+01  0.97635230567E+01  0.10500000000E+00 0. -1.
</event>
<event>
11    0  0.3482687E-009  0.9118800E+02  0.7816531E-02  0.1126479E+00
         25   -1    0    0    0    0  0.00000000000E+00  0.00000000000E+00  0.99999998245E-14  0.12500000000E+03  0.12500000000E+03 0.  0.
    3000001    1    3    3    0    0  0.10418149088E+02  0.36658521460E+02 -0.75044942191E+00  0.38130672698E+02  0.10000000000E+01 0. -1.
    1000022    2    1    0    0    0  0.10960019309E+02  0.60595764827E+02  0.37790502326E+01  0.62499999834E+02  0.10000001022E+02 0.  0.
    3000022    2    3    3    0    0  0.54187022107E+00  0.23937243367E+02  0.45294996546E+01  0.24369327136E+02  0.24998926327E+00 0.  0.
    1000022    2    1    0    0    0 -0.10960019309E+02 -0.60595764827E+02 -0.37790502326E+01  0.62500000166E+02  0.10000003092E+02 0.  0.
    3000022    2    5    5    0    0 -0.84584245788E+01 -0.57394589147E+02 -0.47358704620E+01  0.58208030119E+02  0.24998318646E+00 0.  0.
        -13    1    4    4    0    0  0.13254966882E+00  0.82709110067E+01  0.15759602702E+01  0.84214140183E+01  0.10500000000E+00 0. -1.
         13    1    4    4    0    0  0.40932055225E+00  0.15666332360E+02  0.29535393843E+01  0.15947913118E+02  0.10500000000E+00 0.  1.
    3000001    1    5    5    0    0 -0.25015947306E+01 -0.32011756793E+01  0.95682022930E+00  0.42919700462E+01  0.10000000000E+01 0.  1.
        -13    1    6    6    0    0 -0.23535874833E+01 -0.15959540846E+02 -0.13560141626E+01  0.16189382863E+02  0.10500000000E+00 0.  1.
         13    1    6    6    0    0 -0.61048370955E+01 -0.41435048301E+02 -0.33798562993E+01  0.42018647257E+02  0.10500000000E+00 0. -1.
</event>
<event>
11    0  0.3482687E-009  0.9118800E+02  0.7816531E-02  0.1126479E+00
         25   -1    0    0    0    0  0.00000000000E+00  0.00000000000E+00  0.99999998245E-14  0.12500000000E+03  0.12500000000E+03 0.  0.
    3000001    1    3    3    0    0  0.91987177766E+01 -0.14287166620E+01  0.15214459010E+02  0.17864417231E+02  0.10000000000E+01 0.  1.
    1000022    2    1    0    0    0  0.20660006483E+02 -0.14972042282E+02  0.56171630973E+02  0.62499999898E+02  0.99999971519E+01 0.  0.
    3000022    2    3    3    0    0  0.11461288707E+02 -0.13543325620E+02  0.40957171963E+02  0.44635582667E+02  0.24999421932E+00 0.  0.
    1000022    2    1    0    0    0 -0.20660006483E+02  0.14972042282E+02 -0.56171630973E+02  0.62500000102E+02  0.99999984272E+01 0.  0.
    3000022    2    5    5    0    0 -0.20891536732E+02  0.13345757849E+02 -0.54771791095E+02  0.60121353638E+02  0.25000789815E+00 0.  0.
        -13    1    4    4    0    0  0.73672868420E+01 -0.86155783681E+01  0.26175493267E+02  0.28524946605E+02  0.10500000000E+00 0. -1.
         13    1    4    4    0    0  0.40940018646E+01 -0.49277472522E+01  0.14781678696E+02  0.16110636062E+02  0.10500000000E+00 0.  1.
    3000001    1    5    5    0    0  0.23153024931E+00  0.16262844331E+01 -0.13998398787E+01  0.23786464638E+01  0.10000000000E+01 0.  1.
        -13    1    6    6    0    0 -0.13531722175E+02  0.85782894052E+01 -0.35364965522E+02  0.38825073928E+02  0.10500000000E+00 0. -1.
         13    1    6    6    0    0 -0.73598145572E+01  0.47674684440E+01 -0.19406825573E+02  0.21296279710E+02  0.10500000000E+00 0.  1.
</event>
<event>
11    0  0.3482687E-009  0.9118800E+02  0.7816531E-02  0.1126479E+00
         25   -1    0    0    0    0  0.00000000000E+00  0.00000000000E+00  0.99999998245E-14  0.12500000000E+03  0.12500000000E+03 0.  0.
    3000001    1    3    3    0    0  0.50447074268E+02  0.59322574166E+01 -0.85868236549E+01  0.51525066916E+02  0.10000000000E+01 0. -1.
    1000022    2    1    0    0    0  0.59667160474E+02  0.59013773763E+01 -0.14534572562E+02  0.62500000157E+02  0.99999963041E+01 0.  0.
    3000022    2    3    3    0    0  0.92200862063E+01 -0.30880040326E-01 -0.59477489066E+01  0.10974933241E+02  0.24999870455E+00 0.  0.
    1000022    2    1    0    0    0 -0.59667160474E+02 -0.59013773763E+01  0.14534572562E+02  0.62499999843E+02  0.99999943447E+01 0.  0.
    3000022    2    5    5    0    0 -0.39513072254E+02 -0.93296492863E-01  0.12295872213E+02  0.41382877531E+02  0.24999206212E+00 0.  0.
        -13    1    4    4    0    0  0.57955717457E+01  0.33956824601E-01 -0.37698833512E+01  0.69146836809E+01  0.10500000000E+00 0.  1.
         13    1    4    4    0    0  0.34245144606E+01 -0.64836864926E-01 -0.21778655554E+01  0.40602495597E+01  0.10500000000E+00 0. -1.
    3000001    1    5    5    0    0 -0.20154088220E+02 -0.58080808835E+01  0.22387003487E+01  0.21117122312E+02  0.10000000000E+01 0.  1.
        -13    1    6    6    0    0 -0.15595957713E+02 -0.87898404020E-01  0.48155897649E+01  0.16323068122E+02  0.10500000000E+00 0.  1.
         13    1    6    6    0    0 -0.23917114541E+02 -0.53980888422E-02  0.74802824478E+01  0.25059809409E+02  0.10500000000E+00 0. -1.
</event>
<event>
11    0  0.3482687E-009  0.9118800E+02  0.7816531E-02  0.1126479E+00
         25   -1    0    0    0    0  0.00000000000E+00  0.00000000000E+00  0.99999998245E-14  0.12500000000E+03  0.12500000000E+03 0.  0.
    3000001    1    3    3    0    0 -0.25526413002E+02 -0.60414249836E+01  0.72677988390E+01  0.27238162136E+02  0.10000000000E+01 0.  1.
    1000022    2    1    0    0    0 -0.53303022077E+02 -0.22693685390E+02  0.21214014447E+02  0.62500000084E+02  0.10000004127E+02 0.  0.
    3000022    2    3    3    0    0 -0.27776609075E+02 -0.16652260406E+02  0.13946215608E+02  0.35261837949E+02  0.24999482285E+00 0.  0.
    1000022    2    1    0    0    0  0.53303022077E+02  0.22693685390E+02 -0.21214014447E+02  0.62499999916E+02  0.10000003072E+02 0.  0.
    3000022    2    5    5    0    0  0.18433380157E+02  0.40608999890E+01 -0.36493279788E+01  0.19226557366E+02  0.25000141681E+00 0.  0.
        -13    1    4    4    0    0 -0.74930295077E+01 -0.44522910195E+01  0.37644703425E+01  0.94947695330E+01  0.10500000000E+00 0.  1.
         13    1    4    4    0    0 -0.20283579567E+02 -0.12199969387E+02  0.10181745265E+02  0.25767068416E+02  0.10500000000E+00 0. -1.
    3000001    1    5    5    0    0  0.34869641919E+02  0.18632785401E+02 -0.17564686468E+02  0.43273442549E+02  0.10000000000E+01 0.  1.
        -13    1    6    6    0    0  0.64864365490E+01  0.14869282254E+01 -0.12929242564E+01  0.67799330959E+01  0.10500000000E+00 0. -1.
         13    1    6    6    0    0  0.11946943609E+02  0.25739717636E+01 -0.23564037225E+01  0.12446624270E+02  0.10500000000E+00 0.  1.
</event>
<event>
11    0  0.3482687E-009  0.9118800E+02  0.7816531E-02  0.1126479E+00
         25   -1    0    0    0    0  0.00000000000E+00  0.00000000000E+00  0.99999998245E-14  0.12500000000E+03  0.12500000000E+03 0.  0.
    3000001    1    3    3    0    0 -0.12527275546E+00 -0.17613006932E+02 -0.39693299081E+02  0.43437215592E+02  0.10000000000E+01 0.  1.
    1000022    2    1    0    0    0  0.43633943754E+01 -0.29106006913E+02 -0.54222237502E+02  0.62499999351E+02  0.10000001517E+02 0.  0.
    3000022    2    3    3    0    0  0.44886671308E+01 -0.11492999981E+02 -0.14528938421E+02  0.19062783760E+02  0.24998370318E+00 0.  0.
    1000022    2    1    0    0    0 -0.43633943754E+01  0.29106006913E+02  0.54222237502E+02  0.62500000649E+02  0.10000009625E+02 0.  0.
    3000022    2    5    5    0    0  0.24742706745E+01  0.26614698823E+01  0.48305666528E+01  0.60499842505E+01  0.24999587945E+00 0.  0.
        -13    1    4    4    0    0  0.26230750700E+01 -0.68550167789E+01 -0.85824517327E+01  0.11293417579E+02  0.10500000000E+00 0.  1.
         13    1    4    4    0    0  0.18655920609E+01 -0.46379832020E+01 -0.59464866883E+01  0.77693661809E+01  0.10500000000E+00 0. -1.
    3000001    1    5    5    0    0 -0.68376650499E+01  0.26444537031E+02  0.49391670849E+02  0.56450016398E+02  0.10000000000E+01 0.  1.
        -13    1    6    6    0    0  0.15463488022E+01  0.17328031568E+01  0.30268247413E+01  0.38166077101E+01  0.10500000000E+00 0. -1.
         13    1    6    6    0    0  0.92792187236E+00  0.92866672554E+00  0.18037419114E+01  0.22333765404E+01  0.10500000000E+00 0.  1.
</event>
<event>
11    0  0.3482687E-009  0.9118800E+02  0.7816531E-02  0.1126479E+00
         25   -1    0    0    0    0  0.00000000000E+00  0.00000000000E+00  0.99999998245E-14  0.12500000000E+03  0.12500000000E+03 0.  0.
    3000001    1    3    3    0    0  0.65732033466E+01  0.20908514996E+02 -0.16214157744E+02  0.27281347344E+02  0.10000000000E+01 0. -1.
    1000022    2    1    0    0    0  0.45734684961E+01  0.46112030088E+02 -0.40730990648E+02  0.62500003184E+02  0.10000043291E+02 0.  0.
    3000022    2    3    3    0    0 -0.19997348505E+01  0.25203515092E+02 -0.24516832905E+02  0.35218655839E+02  0.25002198389E+00 0.  0.
    1000022    2    1    0    0    0 -0.45734684961E+01 -0.46112030088E+02  0.40730990648E+02  0.62499996816E+02  0.10000003496E+02 0.  0.
    3000022    2    5    5    0    0 -0.64765029964E+01 -0.27826672692E+02  0.28756300219E+02  0.40537095226E+02  0.24996573814E+00 0.  0.
        -13    1    4    4    0    0 -0.84596529498E+00  0.10873699638E+02 -0.10487910030E+02  0.15131433603E+02  0.10500000000E+00 0. -1.
         13    1    4    4    0    0 -0.11537695555E+01  0.14329815454E+02 -0.14028922875E+02  0.20087222236E+02  0.10500000000E+00 0.  1.
    3000001    1    5    5    0    0  0.19030345003E+01 -0.18285357396E+02  0.11974690430E+02  0.21962901591E+02  0.10000000000E+01 0. -1.
        -13    1    6    6    0    0 -0.39133726846E+01 -0.16534245123E+02  0.17096200562E+02  0.24103668730E+02  0.10500000000E+00 0.  1.
         13    1    6    6    0    0 -0.25631303119E+01 -0.11292427569E+02  0.11660099656E+02  0.16433426496E+02  0.10500000000E+00 0. -1.
</event>
<event>
11    0  0.3482687E-009  0.9118800E+02  0.7816531E-02  0.1126479E+00
         25   -1    0    0    0    0  0.00000000000E+00  0.00000000000E+00  0.99999998245E-14  0.12500000000E+03  0.12500000000E+03 0.  0.
    3000001    1    3    3    0    0 -0.14083598156E+02  0.30120529825E+01 -0.28160287469E+01  0.14708848292E+02  0.10000000000E+01 0.  1.
    1000022    2    1    0    0    0 -0.60330002016E+02 -0.48253642819E+01 -0.11968989606E+02  0.62499999898E+02  0.99999995666E+01 0.  0.
    3000022    2    3    3    0    0 -0.46246403861E+02 -0.78374172644E+01 -0.91529608589E+01  0.47791151606E+02  0.24999982479E+00 0.  0.
    1000022    2    1    0    0    0  0.60330002016E+02  0.48253642819E+01  0.11968989606E+02  0.62500000102E+02  0.10000000840E+02 0.  0.
    3000022    2    5    5    0    0  0.54567188657E+01  0.29672249609E+01 -0.33234635541E+00  0.62252033283E+01  0.24999526169E+00 0.  0.
        -13    1    4    4    0    0 -0.22071429031E+02 -0.37918590809E+01 -0.44155678695E+01  0.22826178817E+02  0.10500000000E+00 0. -1.
         13    1    4    4    0    0 -0.24174974829E+02 -0.40455581834E+01 -0.47373929894E+01  0.24964972789E+02  0.10500000000E+00 0.  1.
    3000001    1    5    5    0    0  0.54873283151E+02  0.18581393210E+01  0.12301335961E+02  0.56274796774E+02  0.10000000000E+01 0.  1.
        -13    1    6    6    0    0  0.35095377876E+01  0.19392343547E+01 -0.26497158127E+00  0.40197910772E+01  0.10500000000E+00 0.  1.
         13    1    6    6    0    0  0.19471810780E+01  0.10279906062E+01 -0.67374774141E-01  0.22054122511E+01  0.10500000000E+00 0. -1.
</event>
<event>
11    0  0.3482687E-009  0.9118800E+02  0.7816531E-02  0.1126479E+00
         25   -1    0    0    0    0  0.00000000000E+00  0.00000000000E+00  0.99999998245E-14  0.12500000000E+03  0.12500000000E+03 0.  0.
    3000001    1    3    3    0    0  0.26241146186E+02  0.49505693094E+02 -0.43121644113E+00  0.56041032730E+02  0.10000000000E+01 0. -1.
    1000022    2    1    0    0    0  0.28386318697E+02  0.54708513709E+02  0.27286328776E+01  0.62500000384E+02  0.10000002458E+02 0.  0.
    3000022    2    3    3    0    0  0.21451725117E+01  0.52028206154E+01  0.31598493187E+01  0.64589676538E+01  0.25001595016E+00 0.  0.
    1000022    2    1    0    0    0 -0.28386318697E+02 -0.54708513709E+02 -0.27286328776E+01  0.62499999616E+02  0.99999976600E+01 0.  0.
    3000022    2    5    5    0    0 -0.28490006817E+02 -0.52573282657E+02 -0.14474914322E+01  0.59814615794E+02  0.24998658058E+00 0.  0.
        -13    1    4    4    0    0  0.88907630160E+00  0.21586423494E+01  0.13851946274E+01  0.27166123423E+01  0.10500000000E+00 0. -1.
         13    1    4    4    0    0  0.12560962101E+01  0.30441782660E+01  0.17746546914E+01  0.37423553115E+01  0.10500000000E+00 0.  1.
    3000001    1    5    5    0    0  0.10368812006E+00 -0.21352310520E+01 -0.12811414454E+01  0.26853838226E+01  0.10000000000E+01 0. -1.
        -13    1    6    6    0    0 -0.18338337443E+02 -0.33864098742E+02 -0.98855813916E+00  0.38523500307E+02  0.10500000000E+00 0. -1.
         13    1    6    6    0    0 -0.10151669374E+02 -0.18709183916E+02 -0.45893329306E+00  0.21291115486E+02  0.10500000000E+00 0.  1.
</event>
<event>
11    0  0.3482687E-009  0.9118800E+02  0.7816531E-02  0.1126479E+00
         25   -1    0    0    0    0  0.00000000000E+00  0.00000000000E+00  0.99999998245E-14  0.12500000000E+03  0.12500000000E+03 0.  0.
    3000001    1    3    3    0    0  0.85708021584E+00  0.21470588420E+01 -0.42991696254E+01  0.49827008374E+01  0.10000000000E+01 0. -1.
    1000022    2    1    0    0    0 -0.80279938354E+01  0.47454485510E+02 -0.38598875844E+02  0.62500000843E+02  0.10000000444E+02 0.  0.
    3000022    2    3    3    0    0 -0.88850740512E+01  0.45307426668E+02 -0.34299706219E+02  0.57517300006E+02  0.25000209777E+00 0.  0.
    1000022    2    1    0    0    0  0.80279938354E+01 -0.47454485510E+02  0.38598875844E+02  0.62499999157E+02  0.99999899073E+01 0.  0.
    3000022    2    5    5    0    0  0.58794005231E+00 -0.30312533927E+02  0.21691236826E+02  0.37279587552E+02  0.25001280206E+00 0.  0.
        -13    1    4    4    0    0 -0.53958604546E+01  0.27550011652E+02 -0.20932521888E+02  0.35018565785E+02  0.10500000000E+00 0.  1.
         13    1    4    4    0    0 -0.34892135966E+01  0.17757415017E+02 -0.13367184331E+02  0.22498734221E+02  0.10500000000E+00 0. -1.
    3000001    1    5    5    0    0  0.74400537831E+01 -0.17141951583E+02  0.16907639018E+02  0.25220411605E+02  0.10000000000E+01 0. -1.
        -13    1    6    6    0    0  0.18199325000E+00 -0.78422048397E+01  0.56022259987E+01  0.96399823356E+01  0.10500000000E+00 0.  1.
         13    1    6    6    0    0  0.40594680232E+00 -0.22470329087E+02  0.16089010827E+02  0.27639605216E+02  0.10500000000E+00 0. -1.
</event>
<event>
11    0  0.3482687E-009  0.9118800E+02  0.7816531E-02  0.1126479E+00
         25   -1    0    0    0    0  0.00000000000E+00  0.00000000000E+00  0.99999998245E-14  0.12500000000E+03  0.12500000000E+03 0.  0.
    3000001    1    3    3    0    0 -0.44563599527E+01  0.35533894049E+01  0.12568017010E+02  0.13836212337E+02  0.10000000000E+01 0. -1.
    1000022    2    1    0    0    0 -0.33288293371E+02  0.23411789344E+02  0.46368393632E+02  0.62500001694E+02  0.99999963966E+01 0.  0.
    3000022    2    3    3    0    0 -0.28831933418E+02  0.19858399939E+02  0.33800376622E+02  0.48663789357E+02  0.25000395417E+00 0.  0.
    1000022    2    1    0    0    0  0.33288293371E+02 -0.23411789344E+02 -0.46368393632E+02  0.62499998306E+02  0.99999752178E+01 0.  0.
    3000022    2    5    5    0    0  0.10956533020E+02 -0.26630128849E+01 -0.14764928024E+02  0.18579635336E+02  0.24999246819E+00 0.  0.
        -13    1    4    4    0    0 -0.77681904602E+01  0.53424363199E+01  0.91516081641E+01  0.13139610567E+02  0.10500000000E+00 0.  1.
         13    1    4    4    0    0 -0.21063742958E+02  0.14515963619E+02  0.24648768458E+02  0.35524178790E+02  0.10500000000E+00 0. -1.
    3000001    1    5    5    0    0  0.22331760351E+02 -0.20748776459E+02 -0.31603465608E+02  0.43920362969E+02  0.10000000000E+01 0. -1.
        -13    1    6    6    0    0  0.34365106873E+01 -0.83763922859E+00 -0.47142360342E+01  0.58945985077E+01  0.10500000000E+00 0. -1.
         13    1    6    6    0    0  0.75200223327E+01 -0.18253736564E+01 -0.10050691990E+02  0.12685036829E+02  0.10500000000E+00 0.  1.
</event>
<event>
11    0  0.3482687E-009  0.9118800E+02  0.7816531E-02  0.1126479E+00
         25   -1    0    0    0    0  0.00000000000E+00  0.00000000000E+00  0.99999998245E-14  0.12500000000E+03  0.12500000000E+03 0.  0.
    3000001    1    3    3    0    0 -0.45166855609E+00  0.10768941024E+02 -0.44064045205E+02  0.45374157569E+02  0.10000000000E+01 0.  1.
    1000022    2    1    0    0    0  0.46098734425E+01  0.11723320474E+02 -0.60395056254E+02  0.62499999827E+02  0.99999991167E+01 0.  0.
    3000022    2    3    3    0    0  0.50615419986E+01  0.95437945008E+00 -0.16331011049E+02  0.17125842258E+02  0.25000723973E+00 0.  0.
    1000022    2    1    0    0    0 -0.46098734425E+01 -0.11723320474E+02  0.60395056254E+02  0.62500000173E+02  0.10000001285E+02 0.  0.
    3000022    2    5    5    0    0 -0.77573468570E+00 -0.11389009415E+02  0.35548136042E+02  0.37336895677E+02  0.25000596705E+00 0.  0.
        -13    1    4    4    0    0  0.36711565395E+01  0.65327517345E+00 -0.11824253817E+02  0.12398716148E+02  0.10500000000E+00 0. -1.
         13    1    4    4    0    0  0.13903854591E+01  0.30110427662E+00 -0.45067572315E+01  0.47271261094E+01  0.10500000000E+00 0.  1.
    3000001    1    5    5    0    0 -0.38341387568E+01 -0.33431105928E+00  0.24846920212E+02  0.25163104497E+02  0.10000000000E+01 0.  1.
        -13    1    6    6    0    0 -0.23404021722E+00 -0.39270404783E+01  0.12107438599E+02  0.12730966820E+02  0.10500000000E+00 0. -1.
         13    1    6    6    0    0 -0.54169446847E+00 -0.74619689368E+01  0.23440697443E+02  0.24605928857E+02  0.10500000000E+00 0.  1.
</event>
<event>
11    0  0.3482687E-009  0.9118800E+02  0.7816531E-02  0.1126479E+00
         25   -1    0    0    0    0  0.00000000000E+00  0.00000000000E+00  0.99999998245E-14  0.12500000000E+03  0.12500000000E+03 0.  0.
    3000001    1    3    3    0    0  0.16516166116E+02 -0.82597125972E+00  0.28981048995E+02  0.33382138525E+02  0.10000000000E+01 0.  1.
    1000022    2    1    0    0    0  0.29355472860E+02  0.75499894633E+01  0.53735499192E+02  0.62499999437E+02  0.99999964248E+01 0.  0.
    3000022    2    3    3    0    0  0.12839306744E+02  0.83759607230E+01  0.24754450197E+02  0.29117860912E+02  0.25000761147E+00 0.  0.
    1000022    2    1    0    0    0 -0.29355472860E+02 -0.75499894633E+01 -0.53735499192E+02  0.62500000563E+02  0.10000003467E+02 0.  0.
    3000022    2    5    5    0    0 -0.17706786249E+01 -0.25070570170E+01 -0.10622870783E+02  0.11060222483E+02  0.25000005314E+00 0.  0.
        -13    1    4    4    0    0  0.89217904756E+01  0.57895355124E+01  0.17248726999E+02  0.20264418936E+02  0.10500000000E+00 0.  1.
         13    1    4    4    0    0  0.39175162683E+01  0.25864252106E+01  0.75057231983E+01  0.88534419754E+01  0.10500000000E+00 0. -1.
    3000001    1    5    5    0    0 -0.27584794235E+02 -0.50429324464E+01 -0.43112628408E+02  0.51439778080E+02  0.10000000000E+01 0.  1.
        -13    1    6    6    0    0 -0.11973279297E+01 -0.16782562373E+01 -0.73087749294E+01  0.75946924980E+01  0.10500000000E+00 0.  1.
         13    1    6    6    0    0 -0.57335069516E+00 -0.82880077967E+00 -0.33140958538E+01  0.34655299855E+01  0.10500000000E+00 0. -1.
</event>
<event>
11    0  0.3482687E-009  0.9118800E+02  0.7816531E-02  0.1126479E+00
         25   -1    0    0    0    0  0.00000000000E+00  0.00000000000E+00  0.99999998245E-14  0.12500000000E+03  0.12500000000E+03 0.  0.
    3000001    1    3    3    0    0 -0.10900033188E+02  0.60933888424E+01 -0.17521875680E+02  0.21539643414E+02  0.10000000000E+01 0. -1.
    1000022    2    1    0    0    0 -0.27580408488E+02  0.29863712434E+02 -0.46408292532E+02  0.62499999627E+02  0.10000004249E+02 0.  0.
    3000022    2    3    3    0    0 -0.16680375300E+02  0.23770323591E+02 -0.28886416852E+02  0.40960356213E+02  0.24999745533E+00 0.  0.
    1000022    2    1    0    0    0  0.27580408488E+02 -0.29863712434E+02  0.46408292532E+02  0.62500000373E+02  0.10000008909E+02 0.  0.
    3000022    2    5    5    0    0  0.10175459073E+02 -0.11980799886E+02  0.25366158553E+02  0.29842654680E+02  0.25001066527E+00 0.  0.
        -13    1    4    4    0    0 -0.11375859516E+02  0.16134165378E+02 -0.19601970004E+02  0.27820311379E+02  0.10500000000E+00 0.  1.
         13    1    4    4    0    0 -0.53045157843E+01  0.76361582130E+01 -0.92844468476E+01  0.13140044833E+02  0.10500000000E+00 0. -1.
    3000001    1    5    5    0    0  0.17404949415E+02 -0.17882912548E+02  0.21042133979E+02  0.32657345693E+02  0.10000000000E+01 0. -1.
        -13    1    6    6    0    0  0.31027160676E+01 -0.36055232087E+01  0.77434448293E+01  0.90883776016E+01  0.10500000000E+00 0. -1.
         13    1    6    6    0    0  0.70727430058E+01 -0.83752766769E+01  0.17622713724E+02  0.20754277078E+02  0.10500000000E+00 0.  1.
</event>
<event>
11    0  0.3482687E-009  0.9118800E+02  0.7816531E-02  0.1126479E+00
         25   -1    0    0    0    0  0.00000000000E+00  0.00000000000E+00  0.99999998245E-14  0.12500000000E+03  0.12500000000E+03 0.  0.
    3000001    1    3    3    0    0  0.83040387656E+00 -0.62025012426E+01 -0.32538817107E+02  0.33150191718E+02  0.10000000000E+01 0.  1.
    1000022    2    1    0    0    0  0.90843543689E+01 -0.62348098733E+01 -0.60702979057E+02  0.62500000249E+02  0.10000000810E+02 0.  0.
    3000022    2    3    3    0    0  0.82539504923E+01 -0.32308630706E-01 -0.28164161951E+02  0.29349808530E+02  0.24999961707E+00 0.  0.
    1000022    2    1    0    0    0 -0.90843543689E+01  0.62348098733E+01  0.60702979057E+02  0.62499999751E+02  0.99999977015E+01 0.  0.
    3000022    2    5    5    0    0 -0.11244883859E+01  0.51004851529E+01  0.11481477748E+02  0.12616111068E+02  0.25000854986E+00 0.  0.
        -13    1    4    4    0    0  0.19949958512E+01  0.13003865887E-01 -0.68160508620E+01  0.71027988779E+01  0.10500000000E+00 0.  1.
         13    1    4    4    0    0  0.62589546411E+01 -0.45312496593E-01 -0.21348111089E+02  0.22247009652E+02  0.10500000000E+00 0. -1.
    3000001    1    5    5    0    0 -0.79598659830E+01  0.11343247204E+01  0.49221501309E+02  0.49883888684E+02  0.10000000000E+01 0.  1.
        -13    1    6    6    0    0 -0.41201234727E+00  0.21308385422E+01  0.48467503064E+01  0.53115196130E+01  0.10500000000E+00 0. -1.
         13    1    6    6    0    0 -0.71247603863E+00  0.29696466107E+01  0.66347274414E+01  0.73045914547E+01  0.10500000000E+00 0.  1.
</event>
<event>
11    0  0.3482687E-009  0.9118800E+02  0.7816531E-02  0.1126479E+00
         25   -1    0    0    0    0  0.00000000000E+00  0.00000000000E+00  0.99999998245E-14  0.12500000000E+03  0.12500000000E+03 0.  0.
    3000001    1    3    3    0    0 -0.59438922586E+01  0.16379392399E+02  0.12603100840E+02  0.21527946983E+02  0.10000000000E+01 0.  1.
    1000022    2    1    0    0    0 -0.96279978490E+01  0.40611080587E+02  0.45434477476E+02  0.62500000060E+02  0.10000002752E+02 0.  0.
    3000022    2    3    3    0    0 -0.36841055904E+01  0.24231688188E+02  0.32831376636E+02  0.40972053077E+02  0.24999018055E+00 0.  0.
    1000022    2    1    0    0    0  0.96279978490E+01 -0.40611080587E+02 -0.45434477476E+02  0.62499999940E+02  0.10000001996E+02 0.  0.
    3000022    2    5    5    0    0  0.74170385059E+01 -0.28515473844E+02 -0.25056067385E+02  0.38678336658E+02  0.25001010456E+00 0.  0.
        -13    1    4    4    0    0 -0.26420710535E+01  0.17206036361E+02  0.23374082986E+02  0.29144244837E+02  0.10500000000E+00 0.  1.
         13    1    4    4    0    0 -0.10420345369E+01  0.70256518271E+01  0.94572936499E+01  0.11827808240E+02  0.10500000000E+00 0. -1.
    3000001    1    5    5    0    0  0.22109593430E+01 -0.12095606743E+02 -0.20378410090E+02  0.23821663282E+02  0.10000000000E+01 0.  1.
        -13    1    6    6    0    0  0.36114222567E+01 -0.14070091752E+02 -0.12288332238E+02  0.19026927940E+02  0.10500000000E+00 0. -1.
         13    1    6    6    0    0  0.38056162492E+01 -0.14445382092E+02 -0.12767735147E+02  0.19651408718E+02  0.10500000000E+00 0.  1.
</event>
<event>
11    0  0.3482687E-009  0.9118800E+02  0.7816531E-02  0.1126479E+00
         25   -1    0    0    0    0  0.00000000000E+00  0.00000000000E+00  0.99999998245E-14  0.12500000000E+03  0.12500000000E+03 0.  0.
    3000001    1    3    3    0    0  0.24115573840E+02 -0.15976056361E+02  0.36233452804E+00  0.28946961236E+02  0.10000000000E+01 0. -1.
    1000022    2    1    0    0    0  0.52741772783E+02 -0.30233325967E+02  0.10511963424E+02  0.62500000848E+02  0.10000006781E+02 0.  0.
    3000022    2    3    3    0    0  0.28626198943E+02 -0.14257269606E+02  0.10149628896E+02  0.33553039611E+02  0.24999584943E+00 0.  0.
    1000022    2    1    0    0    0 -0.52741772783E+02  0.30233325967E+02 -0.10511963424E+02  0.62499999152E+02  0.99999961852E+01 0.  0.
    3000022    2    5    5    0    0 -0.18605053046E+02  0.67689608636E+01 -0.66427825584E+01  0.20884345551E+02  0.24999790720E+00 0.  0.
        -13    1    4    4    0    0  0.10821641404E+02 -0.53225568248E+01  0.38206939834E+01  0.12650939149E+02  0.10500000000E+00 0.  1.
         13    1    4    4    0    0  0.17804557538E+02 -0.89347127811E+01  0.63289349127E+01  0.20902100463E+02  0.10500000000E+00 0. -1.
    3000001    1    5    5    0    0 -0.34136719737E+02  0.23464365104E+02 -0.38691808657E+01  0.41615653602E+02  0.10000000000E+01 0. -1.
        -13    1    6    6    0    0 -0.77262411786E+01  0.28449452085E+01 -0.27034778107E+01  0.86665064046E+01  0.10500000000E+00 0. -1.
         13    1    6    6    0    0 -0.10878811867E+02  0.39240156551E+01 -0.39393047477E+01  0.12217839146E+02  0.10500000000E+00 0.  1.
</event>
<event>
11    0  0.3482687E-009  0.9118800E+02  0.7816531E-02  0.1126479E+00
         25   -1    0    0    0    0  0.00000000000E+00  0.00000000000E+00  0.99999998245E-14  0.12500000000E+03  0.12500000000E+03 0.  0.
    3000001    1    3    3    0    0  0.30183958774E+02 -0.43033059624E+02  0.92887526649E+01  0.53387231750E+02  0.10000000000E+01 0. -1.
    1000022    2    1    0    0    0  0.35921745969E+02 -0.48098019765E+02  0.14228793496E+02  0.62499999163E+02  0.99999996142E+01 0.  0.
    3000022    2    3    3    0    0  0.57377871958E+01 -0.50649601404E+01  0.49400408310E+01  0.91127674131E+01  0.25000677007E+00 0.  0.
    1000022    2    1    0    0    0 -0.35921745969E+02  0.48098019765E+02 -0.14228793496E+02  0.62500000837E+02  0.10000010073E+02 0.  0.
    3000022    2    5    5    0    0 -0.99112593672E+00  0.24092450331E-01  0.67737521940E+00  0.12264782591E+01  0.25000132712E+00 0.  0.
        -13    1    4    4    0    0  0.15294717655E+01 -0.13430755082E+01  0.13554500126E+01  0.24477347566E+01  0.10500000000E+00 0.  1.
         13    1    4    4    0    0  0.42083154303E+01 -0.37218846322E+01  0.35845908185E+01  0.66650326565E+01  0.10500000000E+00 0. -1.
    3000001    1    5    5    0    0 -0.34930620033E+02  0.48073927314E+02 -0.14906168715E+02  0.61273522578E+02  0.10000000000E+01 0. -1.
        -13    1    6    6    0    0 -0.29470664278E+00 -0.37402662748E-01  0.22482614973E+00  0.38706945383E+00  0.10500000000E+00 0.  1.
         13    1    6    6    0    0 -0.69641929394E+00  0.61495113079E-01  0.45254906967E+00  0.83940880527E+00  0.10500000000E+00 0. -1.
</event>
<event>
11    0  0.3482687E-009  0.9118800E+02  0.7816531E-02  0.1126479E+00
         25   -1    0    0    0    0  0.00000000000E+00  0.00000000000E+00  0.99999998245E-14  0.12500000000E+03  0.12500000000E+03 0.  0.
    3000001    1    3    3    0    0 -0.30044530481E+02  0.15060274034E+02  0.15318661682E+02  0.36947896578E+02  0.10000000000E+01 0. -1.
    1000022    2    1    0    0    0 -0.49725776701E+02  0.30758189080E+02  0.19685788692E+02  0.62500005346E+02  0.10000066395E+02 0.  0.
    3000022    2    3    3    0    0 -0.19681246219E+02  0.15697915046E+02  0.43671270098E+01  0.25552108768E+02  0.24994927531E+00 0.  0.
    1000022    2    1    0    0    0  0.49725776701E+02 -0.30758189080E+02 -0.19685788692E+02  0.62499994654E+02  0.99999995659E+01 0.  0.
    3000022    2    5    5    0    0  0.24970409044E+02 -0.13763140435E+02 -0.46035444675E+01  0.28882528998E+02  0.24999439161E+00 0.  0.
        -13    1    4    4    0    0 -0.12410220958E+02  0.98761501687E+01  0.28089735919E+01  0.16107553632E+02  0.10500000000E+00 0. -1.
         13    1    4    4    0    0 -0.72710252611E+01  0.58217648776E+01  0.15581534179E+01  0.94445551357E+01  0.10500000000E+00 0.  1.
    3000001    1    5    5    0    0  0.24755367656E+02 -0.16995048646E+02 -0.15082244224E+02  0.33617465655E+02  0.10000000000E+01 0. -1.
        -13    1    6    6    0    0  0.97086098321E+01 -0.52882991444E+01 -0.17567319706E+01  0.11194656981E+02  0.10500000000E+00 0. -1.
         13    1    6    6    0    0  0.15261799212E+02 -0.84748412902E+01 -0.28468124969E+01  0.17687872017E+02  0.10500000000E+00 0.  1.
</event>
<event>
11    0  0.3482687E-009  0.9118800E+02  0.7816531E-02  0.1126479E+00
         25   -1    0    0    0    0  0.00000000000E+00  0.00000000000E+00  0.99999998245E-14  0.12500000000E+03  0.12500000000E+03 0.  0.
    3000001    1    3    3    0    0  0.20815200877E+02 -0.93688101746E+01  0.49940279592E+01  0.23387764042E+02  0.10000000000E+01 0. -1.
    1000022    2    1    0    0    0  0.52502686105E+02 -0.32231675102E+02  0.32919507211E+01  0.62499998383E+02  0.99999965090E+01 0.  0.
    3000022    2    3    3    0    0  0.31687485229E+02 -0.22862864927E+02 -0.17020772381E+01  0.39112234341E+02  0.24999085975E+00 0.  0.
    1000022    2    1    0    0    0 -0.52502686105E+02  0.32231675102E+02 -0.32919507211E+01  0.62500001617E+02  0.10000016720E+02 0.  0.
    3000022    2    5    5    0    0 -0.58631084599E+01  0.18180577232E+01 -0.29383334882E+01  0.68101159089E+01  0.25000061601E+00 0.  0.
        -13    1    4    4    0    0  0.10179765904E+02 -0.74012709821E+01 -0.57118105764E+00  0.12599353904E+02  0.10500000000E+00 0.  1.
         13    1    4    4    0    0  0.21507719325E+02 -0.15461593945E+02 -0.11308961805E+01  0.26512880437E+02  0.10500000000E+00 0. -1.
    3000001    1    5    5    0    0 -0.46639577646E+02  0.30413617379E+02 -0.35361723289E+00  0.55689885708E+02  0.10000000000E+01 0. -1.
        -13    1    6    6    0    0 -0.40046370114E+01  0.11921818987E+01 -0.20188843205E+01  0.46416951830E+01  0.10500000000E+00 0. -1.
         13    1    6    6    0    0 -0.18584714485E+01  0.62587582451E+00 -0.91944916774E+00  0.21684207259E+01  0.10500000000E+00 0.  1.
</event>
<event>
11    0  0.3482687E-009  0.9118800E+02  0.7816531E-02  0.1126479E+00
         25   -1    0    0    0    0  0.00000000000E+00  0.00000000000E+00  0.99999998245E-14  0.12500000000E+03  0.12500000000E+03 0.  0.
    3000001    1    3    3    0    0  0.21099845185E+01 -0.16682822418E+02 -0.61424622248E+01  0.17930377594E+02  0.10000000000E+01 0.  1.
    1000022    2    1    0    0    0  0.18604105761E+02 -0.51009938925E+02 -0.29293741489E+02  0.62499999492E+02  0.10000001291E+02 0.  0.
    3000022    2    3    3    0    0  0.16494121242E+02 -0.34327116507E+02 -0.23151279264E+02  0.44569621898E+02  0.25000259630E+00 0.  0.
    1000022    2    1    0    0    0 -0.18604105761E+02  0.51009938925E+02  0.29293741489E+02  0.62500000508E+02  0.10000007637E+02 0.  0.
    3000022    2    5    5    0    0 -0.11980571702E+02  0.27535203296E+02  0.10948074853E+02  0.31963171914E+02  0.24999383515E+00 0.  0.
        -13    1    4    4    0    0  0.68841309287E+01 -0.14394807244E+02 -0.96322948732E+01  0.18638504869E+02  0.10500000000E+00 0.  1.
         13    1    4    4    0    0  0.96099903135E+01 -0.19932309263E+02 -0.13518984391E+02  0.25931117029E+02  0.10500000000E+00 0. -1.
    3000001    1    5    5    0    0 -0.66235340583E+01  0.23474735629E+02  0.18345666636E+02  0.30536828594E+02  0.10000000000E+01 0. -1.
        -13    1    6    6    0    0 -0.36855415069E+01  0.84206850876E+01  0.33972201845E+01  0.98001675254E+01  0.10500000000E+00 0.  1.
         13    1    6    6    0    0 -0.82950301956E+01  0.19114518209E+02  0.75508546688E+01  0.22163004389E+02  0.10500000000E+00 0. -1.
</event>
<event>
11    0  0.3482687E-009  0.9118800E+02  0.7816531E-02  0.1126479E+00
         25   -1    0    0    0    0  0.00000000000E+00  0.00000000000E+00  0.99999998245E-14  0.12500000000E+03  0.12500000000E+03 0.  0.
    3000001    1    3    3    0    0  0.19893498948E+01 -0.53381576608E-01 -0.56592561870E+01  0.60817385003E+01  0.10000000000E+01 0.  1.
    1000022    2    1    0    0    0  0.41383113790E+02  0.13155281536E+02 -0.43824952724E+02  0.62500000687E+02  0.10000003267E+02 0.  0.
    3000022    2    3    3    0    0  0.39393763895E+02  0.13208663112E+02 -0.38165696537E+02  0.56418262186E+02  0.25000184079E+00 0.  0.
    1000022    2    1    0    0    0 -0.41383113790E+02 -0.13155281536E+02  0.43824952724E+02  0.62499999313E+02  0.99999946824E+01 0.  0.
    3000022    2    5    5    0    0 -0.25320248032E+02 -0.61565289301E+01  0.32312067268E+02  0.41510841972E+02  0.25000234488E+00 0.  0.
        -13    1    4    4    0    0  0.91434026649E+01  0.30615225277E+01 -0.88440889898E+01  0.13084481936E+02  0.10500000000E+00 0.  1.
         13    1    4    4    0    0  0.30250361231E+02  0.10147140585E+02 -0.29321607547E+02  0.43333780250E+02  0.10500000000E+00 0. -1.
    3000001    1    5    5    0    0 -0.16062865758E+02 -0.69987526056E+01  0.11512885456E+02  0.20989157342E+02  0.10000000000E+01 0.  1.
        -13    1    6    6    0    0 -0.77210385628E+01 -0.19181606199E+01  0.99064989045E+01  0.12706042743E+02  0.10500000000E+00 0.  1.
         13    1    6    6    0    0 -0.17599209470E+02 -0.42383683102E+01  0.22405568364E+02  0.28804799228E+02  0.10500000000E+00 0. -1.
</event>
<event>
11    0  0.3482687E-009  0.9118800E+02  0.7816531E-02  0.1126479E+00
         25   -1    0    0    0    0  0.00000000000E+00  0.00000000000E+00  0.99999998245E-14  0.12500000000E+03  0.12500000000E+03 0.  0.
    3000001    1    3    3    0    0  0.22309345558E+02  0.23972658863E+02  0.53604099775E+01  0.33198332297E+02  0.10000000000E+01 0.  1.
    1000022    2    1    0    0    0  0.37263114802E+02  0.49070776237E+02  0.31255612474E+01  0.62499999975E+02  0.10000002925E+02 0.  0.
    3000022    2    3    3    0    0  0.14953769244E+02  0.25098117374E+02 -0.22348487301E+01  0.29301667678E+02  0.24993904674E+00 0.  0.
    1000022    2    1    0    0    0 -0.37263114802E+02 -0.49070776237E+02 -0.31255612474E+01  0.62500000025E+02  0.10000003237E+02 0.  0.
    3000022    2    5    5    0    0 -0.27025382351E+01 -0.69921934435E+01  0.20989298590E+01  0.77886128201E+01  0.25000208995E+00 0.  0.
        -13    1    4    4    0    0  0.77495962521E+01  0.12958185441E+02 -0.10919030538E+01  0.15138496929E+02  0.10500000000E+00 0. -1.
         13    1    4    4    0    0  0.72041729918E+01  0.12139931933E+02 -0.11429456764E+01  0.14163170749E+02  0.10500000000E+00 0.  1.
    3000001    1    5    5    0    0 -0.34560576567E+02 -0.42078582793E+02 -0.52244911064E+01  0.54711387205E+02  0.10000000000E+01 0.  1.
        -13    1    6    6    0    0 -0.13710319671E+01 -0.36602170741E+01  0.10382322039E+01  0.40454751011E+01  0.10500000000E+00 0. -1.
         13    1    6    6    0    0 -0.13315062680E+01 -0.33319763695E+01  0.10606976550E+01  0.37431377190E+01  0.10500000000E+00 0.  1.
</event>
<event>
11    0  0.3482687E-009  0.9118800E+02  0.7816531E-02  0.1126479E+00
         25   -1    0    0    0    0  0.00000000000E+00  0.00000000000E+00  0.99999998245E-14  0.12500000000E+03  0.12500000000E+03 0.  0.
    3000001    1    3    3    0    0  0.57254271334E+00 -0.94107022895E+01  0.36877424029E+01  0.10172933047E+02  0.10000000000E+01 0. -1.
    1000022    2    1    0    0    0 -0.15392638472E+02 -0.50838993064E+02  0.31380144767E+02  0.62500000021E+02  0.99999991028E+01 0.  0.
    3000022    2    3    3    0    0 -0.15965181186E+02 -0.41428290775E+02  0.27692402364E+02  0.52327066974E+02  0.25000520398E+00 0.  0.
    1000022    2    1    0    0    0  0.15392638472E+02  0.50838993064E+02 -0.31380144767E+02  0.62499999979E+02  0.99999988442E+01 0.  0.
    3000022    2    5    5    0    0  0.79967376198E+01  0.26471822198E+02 -0.22022130041E+02  0.35351688704E+02  0.24999939944E+00 0.  0.
        -13    1    4    4    0    0 -0.70666427309E+01 -0.18518108991E+02  0.12346209154E+02  0.23351610342E+02  0.10500000000E+00 0. -1.
         13    1    4    4    0    0 -0.88985384548E+01 -0.22910181784E+02  0.15346193210E+02  0.28975456632E+02  0.10500000000E+00 0.  1.
    3000001    1    5    5    0    0  0.73959008526E+01  0.24367170867E+02 -0.93580147266E+01  0.27148311275E+02  0.10000000000E+01 0.  1.
        -13    1    6    6    0    0  0.45864962015E+01  0.15238338078E+02 -0.12753610239E+02  0.20393834704E+02  0.10500000000E+00 0.  1.
         13    1    6    6    0    0  0.34102414183E+01  0.11233484120E+02 -0.92685198013E+01  0.14957854001E+02  0.10500000000E+00 0. -1.
</event>
<event>
11    0  0.3482687E-009  0.9118800E+02  0.7816531E-02  0.1126479E+00
         25   -1    0    0    0    0  0.00000000000E+00  0.00000000000E+00  0.99999998245E-14  0.12500000000E+03  0.12500000000E+03 0.  0.
    3000001    1    3    3    0    0  0.11778739228E+02 -0.10219601956E+02 -0.21805810198E+02  0.26826709085E+02  0.10000000000E+01 0. -1.
    1000022    2    1    0    0    0  0.23301419972E+02 -0.33428386901E+02 -0.46323178071E+02  0.62500000080E+02  0.99999979991E+01 0.  0.
    3000022    2    3    3    0    0  0.11522680744E+02 -0.23208784945E+02 -0.24517367872E+02  0.35673290995E+02  0.24998577235E+00 0.  0.
    1000022    2    1    0    0    0 -0.23301419972E+02  0.33428386901E+02  0.46323178071E+02  0.62499999920E+02  0.99999969958E+01 0.  0.
    3000022    2    5    5    0    0 -0.67061771365E+01  0.60897576887E+01  0.53860107767E+01  0.10541801356E+02  0.25000649177E+00 0.  0.
        -13    1    4    4    0    0  0.72913484342E+01 -0.14801531259E+02 -0.15572852382E+02  0.22688628119E+02  0.10500000000E+00 0. -1.
         13    1    4    4    0    0  0.42313323096E+01 -0.84072536859E+01 -0.89445154902E+01  0.12984662876E+02  0.10500000000E+00 0.  1.
    3000001    1    5    5    0    0 -0.16595242835E+02  0.27338629212E+02  0.40937167294E+02  0.51958198564E+02  0.10000000000E+01 0.  1.
        -13    1    6    6    0    0 -0.27217320497E+01  0.24074504321E+01  0.22092105646E+01  0.42538546346E+01  0.10500000000E+00 0.  1.
         13    1    6    6    0    0 -0.39844450868E+01  0.36823072566E+01  0.31768002121E+01  0.62879467213E+01  0.10500000000E+00 0. -1.
</event>
<event>
11    0  0.3482687E-009  0.9118800E+02  0.7816531E-02  0.1126479E+00
         25   -1    0    0    0    0  0.00000000000E+00  0.00000000000E+00  0.99999998245E-14  0.12500000000E+03  0.12500000000E+03 0.  0.
    3000001    1    3    3    0    0 -0.68295685488E+01  0.45303095698E+01 -0.99968114964E-01  0.82569186132E+01  0.10000000000E+01 0. -1.
    1000022    2    1    0    0    0 -0.46895588241E+02  0.31529212774E+02 -0.24758093158E+02  0.62500004098E+02  0.99999940401E+01 0.  0.
    3000022    2    3    3    0    0 -0.40066019693E+02  0.26998903205E+02 -0.24658125043E+02  0.54243085485E+02  0.24996811972E+00 0.  0.
    1000022    2    1    0    0    0  0.46895588241E+02 -0.31529212774E+02  0.24758093158E+02  0.62499995902E+02  0.99999428108E+01 0.  0.
    3000022    2    5    5    0    0  0.52471575109E+01 -0.51299192534E+01  0.68126431614E+01  0.10016154043E+02  0.25000293763E+00 0.  0.
        -13    1    4    4    0    0 -0.18743554714E+02  0.12682812044E+02 -0.11608257664E+02  0.25434960894E+02  0.10500000000E+00 0.  1.
         13    1    4    4    0    0 -0.21322464978E+02  0.14316091161E+02 -0.13049867379E+02  0.28808124591E+02  0.10500000000E+00 0. -1.
    3000001    1    5    5    0    0  0.41648430730E+02 -0.26399293521E+02  0.17945449996E+02  0.52483841859E+02  0.10000000000E+01 0.  1.
        -13    1    6    6    0    0  0.22861533769E+01 -0.21486758698E+01  0.28836178626E+01  0.42625792936E+01  0.10500000000E+00 0.  1.
         13    1    6    6    0    0  0.29610041339E+01 -0.29812433836E+01  0.39290252988E+01  0.57535747490E+01  0.10500000000E+00 0. -1.
</event>
<event>
11    0  0.3482687E-009  0.9118800E+02  0.7816531E-02  0.1126479E+00
         25   -1    0    0    0    0  0.00000000000E+00  0.00000000000E+00  0.99999998245E-14  0.12500000000E+03  0.12500000000E+03 0.  0.
    3000001    1    3    3    0    0  0.72601935000E+00  0.73401239546E-01  0.17993499177E+01  0.21840677565E+01  0.10000000000E+01 0.  1.
    1000022    2    1    0    0    0 -0.14151841124E+02  0.29466865165E+02  0.52322837009E+02  0.62500000135E+02  0.99999997162E+01 0.  0.
    3000022    2    3    3    0    0 -0.14877860474E+02  0.29393463925E+02  0.50523487091E+02  0.60315932378E+02  0.24999395161E+00 0.  0.
    1000022    2    1    0    0    0  0.14151841124E+02 -0.29466865165E+02 -0.52322837009E+02  0.62499999865E+02  0.99999980325E+01 0.  0.
    3000022    2    5    5    0    0  0.32091216208E+01 -0.17822575460E+02 -0.29659681822E+02  0.34752005417E+02  0.24999427597E+00 0.  0.
        -13    1    4    4    0    0 -0.82203165667E+01  0.16230311610E+02  0.27779631181E+02  0.33207161170E+02  0.10500000000E+00 0.  1.
         13    1    4    4    0    0 -0.66575439077E+01  0.13163152316E+02  0.22743855910E+02  0.27108771208E+02  0.10500000000E+00 0. -1.
    3000001    1    5    5    0    0  0.10942719504E+02 -0.11644289705E+02 -0.22663155187E+02  0.27747994449E+02  0.10000000000E+01 0. -1.
        -13    1    6    6    0    0  0.23572442481E+01 -0.12922624698E+02 -0.21557096358E+02  0.25244212365E+02  0.10500000000E+00 0.  1.
         13    1    6    6    0    0  0.85187737274E+00 -0.48999507613E+01 -0.81025854633E+01  0.95077930516E+01  0.10500000000E+00 0. -1.
</event>
<event>
11    0  0.3482687E-009  0.9118800E+02  0.7816531E-02  0.1126479E+00
         25   -1    0    0    0    0  0.00000000000E+00  0.00000000000E+00  0.99999998245E-14  0.12500000000E+03  0.12500000000E+03 0.  0.
    3000001    1    3    3    0    0 -0.48176969452E+00 -0.63802058218E-01  0.27852666050E+00  0.11461892696E+01  0.10000000000E+01 0.  1.
    1000022    2    1    0    0    0 -0.37108584337E+02 -0.49284163852E+02  0.52355363116E+00  0.62500000065E+02  0.10000003086E+02 0.  0.
    3000022    2    3    3    0    0 -0.36626814642E+02 -0.49220361793E+02  0.24502697066E+00  0.61353810795E+02  0.24999005713E+00 0.  0.
    1000022    2    1    0    0    0  0.37108584337E+02  0.49284163852E+02 -0.52355363116E+00  0.62499999935E+02  0.10000002273E+02 0.  0.
    3000022    2    5    5    0    0  0.13994236073E+02  0.26669154720E+02  0.64891941825E+00  0.30125836985E+02  0.25000177378E+00 0.  0.
        -13    1    4    4    0    0 -0.13130703217E+02 -0.17581188942E+02  0.13075519112E+00  0.21944058273E+02  0.10500000000E+00 0.  1.
         13    1    4    4    0    0 -0.23496111424E+02 -0.31639172852E+02  0.11427177954E+00  0.39409752522E+02  0.10500000000E+00 0. -1.
    3000001    1    5    5    0    0  0.23114348263E+02  0.22615009132E+02 -0.11724730494E+01  0.32374162950E+02  0.10000000000E+01 0.  1.
        -13    1    6    6    0    0  0.41198381416E+01  0.77593049013E+01  0.19717813852E+00  0.87880477401E+01  0.10500000000E+00 0.  1.
         13    1    6    6    0    0  0.98743979315E+01  0.18909849819E+02  0.45174127973E+00  0.21337789245E+02  0.10500000000E+00 0. -1.
</event>
<event>
11    0  0.3482687E-009  0.9118800E+02  0.7816531E-02  0.1126479E+00
         25   -1    0    0    0    0  0.00000000000E+00  0.00000000000E+00  0.99999998245E-14  0.12500000000E+03  0.12500000000E+03 0.  0.
    3000001    1    3    3    0    0  0.53089318854E+01 -0.38704920653E+02 -0.17225399196E+02  0.42707961997E+02  0.10000000000E+01 0.  1.
    1000022    2    1    0    0    0  0.11097701030E+02 -0.52903269900E+02 -0.29737767045E+02  0.62500001266E+02  0.10000021754E+02 0.  0.
    3000022    2    3    3    0    0  0.57887691448E+01 -0.14198349247E+02 -0.12512367849E+02  0.19792039268E+02  0.24999928390E+00 0.  0.
    1000022    2    1    0    0    0 -0.11097701030E+02  0.52903269900E+02  0.29737767045E+02  0.62499998734E+02  0.10000005935E+02 0.  0.
    3000022    2    5    5    0    0 -0.36214936627E+01  0.61436511449E+01  0.68659636313E+01  0.99027077954E+01  0.24999870849E+00 0.  0.
        -13    1    4    4    0    0  0.39660485496E+01 -0.96729056003E+01 -0.84713373529E+01  0.13456196543E+02  0.10500000000E+00 0.  1.
         13    1    4    4    0    0  0.18227205951E+01 -0.45254436468E+01 -0.40410304963E+01  0.63358427253E+01  0.10500000000E+00 0. -1.
    3000001    1    5    5    0    0 -0.74762073674E+01  0.46759618755E+02  0.22871803414E+02  0.52597290939E+02  0.10000000000E+01 0. -1.
        -13    1    6    6    0    0 -0.21209375964E+01  0.36341400377E+01  0.41353193510E+01  0.59006136322E+01  0.10500000000E+00 0.  1.
         13    1    6    6    0    0 -0.15005560664E+01  0.25095111072E+01  0.27306442803E+01  0.40020941632E+01  0.10500000000E+00 0. -1.
</event>
<event>
11    0  0.3482687E-009  0.9118800E+02  0.7816531E-02  0.1126479E+00
         25   -1    0    0    0    0  0.00000000000E+00  0.00000000000E+00  0.99999998245E-14  0.12500000000E+03  0.12500000000E+03 0.  0.
    3000001    1    3    3    0    0  0.29346445487E+01  0.26030540821E+02 -0.14568497779E+02  0.29990703920E+02  0.10000000000E+01 0. -1.
    1000022    2    1    0    0    0 -0.39669731834E+01  0.54667990220E+02 -0.28318261233E+02  0.62500000003E+02  0.10000002506E+02 0.  0.
    3000022    2    3    3    0    0 -0.69016177321E+01  0.28637449399E+02 -0.13749763454E+02  0.32509296083E+02  0.25000272303E+00 0.  0.
    1000022    2    1    0    0    0  0.39669731834E+01 -0.54667990220E+02  0.28318261233E+02  0.62499999997E+02  0.10000002470E+02 0.  0.
    3000022    2    5    5    0    0  0.72818592712E+01 -0.36668317364E+02  0.18778404053E+02  0.41836370894E+02  0.24999602243E+00 0.  0.
        -13    1    4    4    0    0 -0.34517483686E+01  0.14135621567E+02 -0.68490166428E+01  0.16082612283E+02  0.10500000000E+00 0. -1.
         13    1    4    4    0    0 -0.34498693636E+01  0.14501827833E+02 -0.69007468109E+01  0.16426683800E+02  0.10500000000E+00 0.  1.
    3000001    1    5    5    0    0 -0.33148860878E+01 -0.17999672857E+02  0.95398571798E+01  0.20663629104E+02  0.10000000000E+01 0.  1.
        -13    1    6    6    0    0  0.23106126242E+01 -0.11893772377E+02  0.60733447692E+01  0.13553497472E+02  0.10500000000E+00 0.  1.
         13    1    6    6    0    0  0.49712466470E+01 -0.24774544987E+02  0.12705059284E+02  0.28282873421E+02  0.10500000000E+00 0. -1.
</event>
<event>
11    0  0.3482687E-009  0.9118800E+02  0.7816531E-02  0.1126479E+00
         25   -1    0    0    0    0  0.00000000000E+00  0.00000000000E+00  0.99999998245E-14  0.12500000000E+03  0.12500000000E+03 0.  0.
    3000001    1    3    3    0    0  0.36481893705E+01  0.82968836828E+01 -0.19300013041E+01  0.93205401969E+01  0.10000000000E+01 0.  1.
    1000022    2    1    0    0    0  0.20949120253E+01  0.59184474228E+02 -0.17293350620E+02  0.62499995998E+02  0.99999438970E+01 0.  0.
    3000022    2    3    3    0    0 -0.15532773453E+01  0.50887590546E+02 -0.15363349316E+02  0.53179455801E+02  0.24994999203E+00 0.  0.
    1000022    2    1    0    0    0 -0.20949120253E+01 -0.59184474228E+02  0.17293350620E+02  0.62500004002E+02  0.99999939273E+01 0.  0.
    3000022    2    5    5    0    0 -0.18634386926E+01 -0.37715927328E+02  0.15863414644E+02  0.40959418987E+02  0.25000316429E+00 0.  0.
        -13    1    4    4    0    0 -0.55916327916E+00  0.20370345898E+02 -0.61416535619E+01  0.21283669540E+02  0.10500000000E+00 0.  1.
         13    1    4    4    0    0 -0.99411406610E+00  0.30517244647E+02 -0.92216957539E+01  0.31895786261E+02  0.10500000000E+00 0. -1.
    3000001    1    5    5    0    0 -0.23147333269E+00 -0.21468546901E+02  0.14299359754E+01  0.21540585016E+02  0.10000000000E+01 0. -1.
        -13    1    6    6    0    0 -0.10786592128E+01 -0.20964677895E+02  0.88736658358E+01  0.22791099037E+02  0.10500000000E+00 0. -1.
         13    1    6    6    0    0 -0.78477947980E+00 -0.16751249433E+02  0.69897488086E+01  0.18168319950E+02  0.10500000000E+00 0.  1.
</event>
<event>
11    0  0.3482687E-009  0.9118800E+02  0.7816531E-02  0.1126479E+00
         25   -1    0    0    0    0  0.00000000000E+00  0.00000000000E+00  0.99999998245E-14  0.12500000000E+03  0.12500000000E+03 0.  0.
    3000001    1    3    3    0    0  0.11537707885E+02  0.13649876400E+02  0.35130000965E+02  0.39427842913E+02  0.10000000000E+01 0.  1.
    1000022    2    1    0    0    0  0.14818701164E+02  0.15272568812E+02  0.57908587346E+02  0.62500002404E+02  0.10000027485E+02 0.  0.
    3000022    2    3    3    0    0  0.32809932796E+01  0.16226924121E+01  0.22778586381E+02  0.23072159491E+02  0.24999694280E+00 0.  0.
    1000022    2    1    0    0    0 -0.14818701164E+02 -0.15272568812E+02 -0.57908587346E+02  0.62499997596E+02  0.99999974384E+01 0.  0.
    3000022    2    5    5    0    0 -0.14389674405E+01 -0.17333944487E+01 -0.98793370034E+00  0.24726094435E+01  0.25000170804E+00 0.  0.
        -13    1    4    4    0    0  0.14325355407E+01  0.77281446486E+00  0.10335815318E+02  0.10463723217E+02  0.10500000000E+00 0. -1.
         13    1    4    4    0    0  0.18484577389E+01  0.84987794721E+00  0.12442771063E+02  0.12608436274E+02  0.10500000000E+00 0.  1.
    3000001    1    5    5    0    0 -0.13379733724E+02 -0.13539174364E+02 -0.56920653646E+02  0.60027388153E+02  0.10000000000E+01 0. -1.
        -13    1    6    6    0    0 -0.55304595820E+00 -0.57687763193E+00 -0.34579408391E+00  0.87706680622E+00  0.10500000000E+00 0. -1.
         13    1    6    6    0    0 -0.88592148229E+00 -0.11565168168E+01 -0.64213961644E+00  0.15955426372E+01  0.10500000000E+00 0.  1.
</event>
<event>
11    0  0.3482687E-009  0.9118800E+02  0.7816531E-02  0.1126479E+00
         25   -1    0    0    0    0  0.00000000000E+00  0.00000000000E+00  0.99999998245E-14  0.12500000000E+03  0.12500000000E+03 0.  0.
    3000001    1    3    3    0    0  0.15501500783E+02 -0.15821909891E+02  0.13231692436E+02  0.25820670863E+02  0.10000000000E+01 0. -1.
    1000022    2    1    0    0    0  0.28576974886E+02 -0.37653710644E+02  0.39645990609E+02  0.62500000109E+02  0.10000001167E+02 0.  0.
    3000022    2    3    3    0    0  0.13075474103E+02 -0.21831800753E+02  0.26414298173E+02  0.36679329245E+02  0.24999754907E+00 0.  0.
    1000022    2    1    0    0    0 -0.28576974886E+02  0.37653710644E+02 -0.39645990609E+02  0.62499999891E+02  0.99999998094E+01 0.  0.
    3000022    2    5    5    0    0 -0.18203642351E+02  0.20266901826E+02 -0.17024402489E+02  0.32124954249E+02  0.25000177566E+00 0.  0.
        -13    1    4    4    0    0  0.49776836456E+01 -0.82311218517E+01  0.10048831122E+02  0.13911101083E+02  0.10500000000E+00 0. -1.
         13    1    4    4    0    0  0.80977904571E+01 -0.13600678901E+02  0.16365467051E+02  0.22768228163E+02  0.10500000000E+00 0.  1.
    3000001    1    5    5    0    0 -0.10373332534E+02  0.17386808818E+02 -0.22621588120E+02  0.30375045643E+02  0.10000000000E+01 0. -1.
        -13    1    6    6    0    0 -0.10929112725E+02  0.12081308721E+02 -0.10210929791E+02  0.19227002823E+02  0.10500000000E+00 0.  1.
         13    1    6    6    0    0 -0.72745296266E+01  0.81855931051E+01 -0.68134726985E+01  0.12897951426E+02  0.10500000000E+00 0. -1.
</event>
<event>
11    0  0.3482687E-009  0.9118800E+02  0.7816531E-02  0.1126479E+00
         25   -1    0    0    0    0  0.00000000000E+00  0.00000000000E+00  0.99999998245E-14  0.12500000000E+03  0.12500000000E+03 0.  0.
    3000001    1    3    3    0    0  0.18526260182E+02  0.43725882666E+01 -0.10620344151E+02  0.21820484741E+02  0.10000000000E+01 0. -1.
    1000022    2    1    0    0    0  0.46393062583E+02  0.61437904737E+01 -0.40201835370E+02  0.62499999989E+02  0.10000000715E+02 0.  0.
    3000022    2    3    3    0    0  0.27866802401E+02  0.17712022071E+01 -0.29581491219E+02  0.40679515247E+02  0.25000942073E+00 0.  0.
    1000022    2    1    0    0    0 -0.46393062583E+02 -0.61437904737E+01  0.40201835370E+02  0.62500000011E+02  0.10000000853E+02 0.  0.
    3000022    2    5    5    0    0 -0.37723900047E+02 -0.35042120226E+01  0.27284086261E+02  0.46688928082E+02  0.25001155812E+00 0.  0.
        -13    1    4    4    0    0  0.15418724505E+02  0.97662115266E+00 -0.16270342653E+02  0.22437155107E+02  0.10500000000E+00 0. -1.
         13    1    4    4    0    0  0.12448077896E+02  0.79458105446E+00 -0.13311148566E+02  0.18242360141E+02  0.10500000000E+00 0.  1.
    3000001    1    5    5    0    0 -0.86691625360E+01 -0.26395784511E+01  0.12917749109E+02  0.15811071929E+02  0.10000000000E+01 0.  1.
        -13    1    6    6    0    0 -0.11325977855E+02 -0.10702217512E+01  0.81410208384E+01  0.13989653114E+02  0.10500000000E+00 0.  1.
         13    1    6    6    0    0 -0.26397922192E+02 -0.24339902714E+01  0.19143065422E+02  0.32699274969E+02  0.10500000000E+00 0. -1.
</event>
<event>
11    0  0.3482687E-009  0.9118800E+02  0.7816531E-02  0.1126479E+00
         25   -1    0    0    0    0  0.00000000000E+00  0.00000000000E+00  0.99999998245E-14  0.12500000000E+03  0.12500000000E+03 0.  0.
    3000001    1    3    3    0    0  0.15566528172E+02  0.61391117825E+01  0.10159916670E+02  0.19601770317E+02  0.10000000000E+01 0.  1.
    1000022    2    1    0    0    0  0.39229856523E+02  0.21848183319E+02  0.42307507471E+02  0.62500000279E+02  0.10000004466E+02 0.  0.
    3000022    2    3    3    0    0  0.23663328351E+02  0.15709071536E+02  0.32147590800E+02  0.42898229962E+02  0.25000484387E+00 0.  0.
    1000022    2    1    0    0    0 -0.39229856523E+02 -0.21848183319E+02 -0.42307507471E+02  0.62499999721E+02  0.10000000978E+02 0.  0.
    3000022    2    5    5    0    0 -0.23062546181E+02 -0.11123961427E+02 -0.17607909242E+02  0.31076107353E+02  0.24985230270E+00 0.  0.
        -13    1    4    4    0    0  0.16121590651E+02  0.10706266545E+02  0.21827745521E+02  0.29171755655E+02  0.10500000000E+00 0.  1.
         13    1    4    4    0    0  0.75417377003E+01  0.50028049915E+01  0.10319845279E+02  0.13726474307E+02  0.10500000000E+00 0. -1.
    3000001    1    5    5    0    0 -0.16167310343E+02 -0.10724221892E+02 -0.24699598228E+02  0.31423892368E+02  0.10000000000E+01 0.  1.
        -13    1    6    6    0    0 -0.13757140796E+02 -0.66843432446E+01 -0.10572890007E+02  0.18593988158E+02  0.10500000000E+00 0. -1.
         13    1    6    6    0    0 -0.93054053844E+01 -0.44396181824E+01 -0.70350192348E+01  0.12482119195E+02  0.10500000000E+00 0.  1.
</event>
<event>
11    0  0.3482687E-009  0.9118800E+02  0.7816531E-02  0.1126479E+00
         25   -1    0    0    0    0  0.00000000000E+00  0.00000000000E+00  0.99999998245E-14  0.12500000000E+03  0.12500000000E+03 0.  0.
    3000001    1    3    3    0    0 -0.33534961809E+02 -0.21080494333E+02  0.13011220128E+01  0.39644341631E+02  0.10000000000E+01 0.  1.
    1000022    2    1    0    0    0 -0.48330535224E+02 -0.37900197856E+02  0.58296112967E+01  0.62500000333E+02  0.10000002061E+02 0.  0.
    3000022    2    3    3    0    0 -0.14795573414E+02 -0.16819703523E+02  0.45284892839E+01  0.22855658702E+02  0.25000048593E+00 0.  0.
    1000022    2    1    0    0    0  0.48330535224E+02  0.37900197856E+02 -0.58296112967E+01  0.62499999667E+02  0.99999978937E+01 0.  0.
    3000022    2    5    5    0    0  0.41070429355E+02  0.31649959065E+02 -0.84086574118E+01  0.52528735903E+02  0.24999978759E+00 0.  0.
        -13    1    4    4    0    0 -0.43366015222E+01 -0.49035180469E+01  0.12826265668E+01  0.66713385395E+01  0.10500000000E+00 0.  1.
         13    1    4    4    0    0 -0.10458971892E+02 -0.11916185476E+02  0.32458627171E+01  0.16184320162E+02  0.10500000000E+00 0. -1.
    3000001    1    5    5    0    0  0.72601058694E+01  0.62502387911E+01  0.25790461151E+01  0.99712637636E+01  0.10000000000E+01 0. -1.
        -13    1    6    6    0    0  0.17674238342E+02  0.13540917402E+02 -0.35920266710E+01  0.22553244238E+02  0.10500000000E+00 0.  1.
         13    1    6    6    0    0  0.23396191013E+02  0.18109041664E+02 -0.48166307408E+01  0.29975491665E+02  0.10500000000E+00 0. -1.
</event>
<event>
11    0  0.3482687E-009  0.9118800E+02  0.7816531E-02  0.1126479E+00
         25   -1    0    0    0    0  0.00000000000E+00  0.00000000000E+00  0.99999998245E-14  0.12500000000E+03  0.12500000000E+03 0.  0.
    3000001    1    3    3    0    0 -0.94534359106E+01 -0.91991622715E+01 -0.27789730186E+01  0.13517201191E+02  0.10000000000E+01 0. -1.
    1000022    2    1    0    0    0 -0.51515509055E+02 -0.33907347997E+02  0.16414126502E+01  0.62500001731E+02  0.10000002972E+02 0.  0.
    3000022    2    3    3    0    0 -0.42062073145E+02 -0.24708185725E+02  0.44203856688E+01  0.48982800539E+02  0.25000026749E+00 0.  0.
    1000022    2    1    0    0    0  0.51515509055E+02  0.33907347997E+02 -0.16414126502E+01  0.62499998269E+02  0.99999813398E+01 0.  0.
    3000022    2    5    5    0    0  0.24071722892E+02  0.19091091390E+02  0.33238612259E+01  0.30903530057E+02  0.25000620601E+00 0.  0.
        -13    1    4    4    0    0 -0.21022027568E+02 -0.12399173153E+02  0.21592523454E+01  0.24501806743E+02  0.10500000000E+00 0. -1.
         13    1    4    4    0    0 -0.21040045576E+02 -0.12309012573E+02  0.22611333234E+01  0.24480993797E+02  0.10500000000E+00 0. -1.
    3000001    1    5    5    0    0  0.27443786163E+02  0.14816256607E+02 -0.49652738762E+01  0.31596468212E+02  0.10000000000E+01 0.  1.
        -13    1    6    6    0    0  0.97416228812E+01  0.76679266820E+01  0.13856540936E+01  0.12475070269E+02  0.10500000000E+00 0.  1.
         13    1    6    6    0    0  0.14330100010E+02  0.11423164708E+02  0.19382071323E+01  0.18428459788E+02  0.10500000000E+00 0. -1.
</event>
<event>
11    0  0.3482687E-009  0.9118800E+02  0.7816531E-02  0.1126479E+00
         25   -1    0    0    0    0  0.00000000000E+00  0.00000000000E+00  0.99999998245E-14  0.12500000000E+03  0.12500000000E+03 0.  0.
    3000001    1    3    3    0    0  0.21952735035E+02 -0.28307288398E+02 -0.37921964370E+02  0.52175669939E+02  0.10000000000E+01 0. -1.
    1000022    2    1    0    0    0  0.28443178331E+02 -0.30066518163E+02 -0.45751944641E+02  0.62500002045E+02  0.99999954643E+01 0.  0.
    3000022    2    3    3    0    0  0.64904432961E+01 -0.17592297654E+01 -0.78299802703E+01  0.10324332106E+02  0.24999770920E+00 0.  0.
    1000022    2    1    0    0    0 -0.28443178331E+02  0.30066518163E+02  0.45751944641E+02  0.62499997955E+02  0.99999698960E+01 0.  0.
    3000022    2    5    5    0    0 -0.48238394009E+01  0.10771633957E+02  0.15978816607E+02  0.19866620409E+02  0.25000332431E+00 0.  0.
        -13    1    4    4    0    0  0.26962153487E+01 -0.73484889663E+00 -0.33535326772E+01  0.43665531629E+01  0.10500000000E+00 0.  1.
         13    1    4    4    0    0  0.37942279474E+01 -0.10243808687E+01 -0.44764475931E+01  0.59577789431E+01  0.10500000000E+00 0. -1.
    3000001    1    5    5    0    0 -0.23619338930E+02  0.19294884207E+02  0.29773128034E+02  0.42633377546E+02  0.10000000000E+01 0. -1.
        -13    1    6    6    0    0 -0.11714453838E+01  0.25775590914E+01  0.38540338009E+01  0.47833771224E+01  0.10500000000E+00 0.  1.
         13    1    6    6    0    0 -0.36523940171E+01  0.81940748653E+01  0.12124782806E+02  0.15083243287E+02  0.10500000000E+00 0. -1.
</event>
<event>
11    0  0.3482687E-009  0.9118800E+02  0.7816531E-02  0.1126479E+00
         25   -1    0    0    0    0  0.00000000000E+00  0.00000000000E+00  0.99999998245E-14  0.12500000000E+03  0.12500000000E+03 0.  0.
    3000001    1    3    3    0    0  0.32581864850E+02  0.72506231336E+01 -0.87545379667E+01  0.34522331728E+02  0.10000000000E+01 0.  1.
    1000022    2    1    0    0    0  0.59087197517E+02  0.16107864784E+02 -0.74491447887E+01  0.62500000330E+02  0.10000003240E+02 0.  0.
    3000022    2    3    3    0    0  0.26505332668E+02  0.88572416506E+01  0.13053931780E+01  0.27977668602E+02  0.24999917517E+00 0.  0.
    1000022    2    1    0    0    0 -0.59087197517E+02 -0.16107864784E+02  0.74491447887E+01  0.62499999670E+02  0.99999991163E+01 0.  0.
    3000022    2    5    5    0    0 -0.49419620031E+02 -0.96369532596E+01  0.67677892591E+01  0.50803889386E+02  0.24998637747E+00 0.  0.
        -13    1    4    4    0    0  0.64768357146E+01  0.21716021702E+01  0.29739079975E+00  0.68384737440E+01  0.10500000000E+00 0.  1.
         13    1    4    4    0    0  0.20028496953E+02  0.66856394804E+01  0.10080023782E+01  0.21139194858E+02  0.10500000000E+00 0. -1.
    3000001    1    5    5    0    0 -0.96675774864E+01 -0.64709115245E+01  0.68135552965E+00  0.11696110284E+02  0.10000000000E+01 0. -1.
        -13    1    6    6    0    0 -0.18486089345E+02 -0.36657221524E+01  0.25268393314E+01  0.19014966741E+02  0.10500000000E+00 0. -1.
         13    1    6    6    0    0 -0.30933530686E+02 -0.59712311072E+01  0.42409499277E+01  0.31788922645E+02  0.10500000000E+00 0.  1.
</event>
<event>
11    0  0.3482687E-009  0.9118800E+02  0.7816531E-02  0.1126479E+00
         25   -1    0    0    0    0  0.00000000000E+00  0.00000000000E+00  0.99999998245E-14  0.12500000000E+03  0.12500000000E+03 0.  0.
    3000001    1    3    3    0    0 -0.41879787681E+02 -0.41394884860E+02 -0.83713044609E+01  0.59485559988E+02  0.10000000000E+01 0.  1.
    1000022    2    1    0    0    0 -0.44772143892E+02 -0.41441587586E+02 -0.91815142840E+01  0.62500000483E+02  0.99999902736E+01 0.  0.
    3000022    2    3    3    0    0 -0.28923562114E+01 -0.46702726150E-01 -0.81020982313E+00  0.30144404947E+01  0.25001187951E+00 0.  0.
    1000022    2    1    0    0    0  0.44772143892E+02  0.41441587586E+02  0.91815142840E+01  0.62499999517E+02  0.99999842359E+01 0.  0.
    3000022    2    5    5    0    0  0.75736412204E+01  0.79662998235E+01 -0.20942724446E+01  0.11192428359E+02  0.25000255968E+00 0.  0.
        -13    1    4    4    0    0 -0.15912704595E+01  0.17726357061E-01 -0.39270205748E+00  0.16424663787E+01  0.10500000000E+00 0. -1.
         13    1    4    4    0    0 -0.13010857519E+01 -0.64429083211E-01 -0.41750776565E+00  0.13719741160E+01  0.10500000000E+00 0.  1.
    3000001    1    5    5    0    0  0.37198502672E+02  0.33475287763E+02  0.11275786729E+02  0.51307571158E+02  0.10000000000E+01 0.  1.
        -13    1    6    6    0    0  0.32550552704E+01  0.33872575109E+01 -0.95650903324E+00  0.47952927741E+01  0.10500000000E+00 0.  1.
         13    1    6    6    0    0  0.43185859500E+01  0.45790423126E+01 -0.11377634114E+01  0.63971355846E+01  0.10500000000E+00 0. -1.
</event>
<event>
11    0  0.3482687E-009  0.9118800E+02  0.7816531E-02  0.1126479E+00
         25   -1    0    0    0    0  0.00000000000E+00  0.00000000000E+00  0.99999998245E-14  0.12500000000E+03  0.12500000000E+03 0.  0.
    3000001    1    3    3    0    0 -0.34596900714E+02  0.37181091741E+02  0.22573359162E+01  0.50847563240E+02  0.10000000000E+01 0. -1.
    1000022    2    1    0    0    0 -0.40271078799E+02  0.46223037636E+02  0.69224947645E+01  0.62500000274E+02  0.10000005229E+02 0.  0.
    3000022    2    3    3    0    0 -0.56741780856E+01  0.90419458954E+01  0.46651588483E+01  0.11652437034E+02  0.24999847365E+00 0.  0.
    1000022    2    1    0    0    0  0.40271078799E+02 -0.46223037636E+02 -0.69224947645E+01  0.62499999726E+02  0.10000001799E+02 0.  0.
    3000022    2    5    5    0    0  0.26055614265E+01 -0.18478808189E+00 -0.26649877732E+00  0.26375415106E+01  0.25001327812E+00 0.  0.
        -13    1    4    4    0    0 -0.37269532637E+01  0.60008132984E+01  0.30392785880E+01  0.76907854090E+01  0.10500000000E+00 0. -1.
         13    1    4    4    0    0 -0.19472248219E+01  0.30411325970E+01  0.16258802603E+01  0.39616516253E+01  0.10500000000E+00 0.  1.
    3000001    1    5    5    0    0  0.37665517373E+02 -0.46038249554E+02 -0.66559959872E+01  0.59862458215E+02  0.10000000000E+01 0. -1.
        -13    1    6    6    0    0  0.16495714251E+01 -0.76813759345E-01 -0.12410875869E+00  0.16593415031E+01  0.10500000000E+00 0.  1.
         13    1    6    6    0    0  0.95599000143E+00 -0.10797432255E+00 -0.14239001863E+00  0.97820000745E+00  0.10500000000E+00 0. -1.
</event>
<event>
11    0  0.3482687E-009  0.9118800E+02  0.7816531E-02  0.1126479E+00
         25   -1    0    0    0    0  0.00000000000E+00  0.00000000000E+00  0.99999998245E-14  0.12500000000E+03  0.12500000000E+03 0.  0.
    3000001    1    3    3    0    0  0.30941964387E+02 -0.70889349580E+01 -0.26665657036E+02  0.41469451698E+02  0.10000000000E+01 0.  1.
    1000022    2    1    0    0    0  0.41234473614E+02 -0.10292166147E+02 -0.44721811171E+02  0.62499992721E+02  0.99999098780E+01 0.  0.
    3000022    2    3    3    0    0  0.10292509227E+02 -0.32032311889E+01 -0.18056154135E+02  0.21030541023E+02  0.25003472331E+00 0.  0.
    1000022    2    1    0    0    0 -0.41234473614E+02  0.10292166147E+02  0.44721811171E+02  0.62500007279E+02  0.10000000862E+02 0.  0.
    3000022    2    5    5    0    0  0.43508958214E+00 -0.33576013879E+00  0.98247047165E+00  0.11531635224E+01  0.25000013265E+00 0.  0.
        -13    1    4    4    0    0  0.68563155064E+01 -0.20967978171E+01 -0.12087258583E+02  0.14054126386E+02  0.10500000000E+00 0.  1.
         13    1    4    4    0    0  0.34361937203E+01 -0.11064333718E+01 -0.59688955516E+01  0.69764146376E+01  0.10500000000E+00 0. -1.
    3000001    1    5    5    0    0 -0.41669563196E+02  0.10627926286E+02  0.43739340699E+02  0.61346843756E+02  0.10000000000E+01 0.  1.
        -13    1    6    6    0    0  0.20122502638E+00 -0.22195941229E+00  0.60080805315E+00  0.67952395740E+00  0.10500000000E+00 0.  1.
         13    1    6    6    0    0  0.23386455576E+00 -0.11380072650E+00  0.38166241851E+00  0.47363956496E+00  0.10500000000E+00 0. -1.
</event>
<event>
11    0  0.3482687E-009  0.9118800E+02  0.7816531E-02  0.1126479E+00
         25   -1    0    0    0    0  0.00000000000E+00  0.00000000000E+00  0.99999998245E-14  0.12500000000E+03  0.12500000000E+03 0.  0.
    3000001    1    3    3    0    0 -0.18350528587E+01 -0.19945512501E+00  0.32379765317E+01  0.38589756880E+01  0.10000000000E+01 0.  1.
    1000022    2    1    0    0    0 -0.44304946077E+02  0.24442774725E+02  0.35296919936E+02  0.62499999487E+02  0.99999947892E+01 0.  0.
    3000022    2    3    3    0    0 -0.42469893218E+02  0.24642229850E+02  0.32058943405E+02  0.58641023799E+02  0.24999610570E+00 0.  0.
    1000022    2    1    0    0    0  0.44304946077E+02 -0.24442774725E+02 -0.35296919936E+02  0.62500000513E+02  0.10000001198E+02 0.  0.
    3000022    2    5    5    0    0  0.40483713270E+02 -0.19798861854E+02 -0.33469366199E+02  0.56135434575E+02  0.25014047142E+00 0.  0.
        -13    1    4    4    0    0 -0.14639211532E+02  0.84457675523E+01  0.11078547792E+02  0.20208482131E+02  0.10500000000E+00 0.  1.
         13    1    4    4    0    0 -0.27830681686E+02  0.16196462298E+02  0.20980395612E+02  0.38432541669E+02  0.10500000000E+00 0. -1.
    3000001    1    5    5    0    0  0.38212328067E+01 -0.46439128713E+01 -0.18275537371E+01  0.63645659381E+01  0.10000000000E+01 0.  1.
        -13    1    6    6    0    0  0.25298120639E+02 -0.12374263152E+02 -0.20990544011E+02  0.35124510806E+02  0.10500000000E+00 0. -1.
         13    1    6    6    0    0  0.15185592631E+02 -0.74245987013E+01 -0.12478822188E+02  0.21010923769E+02  0.10500000000E+00 0.  1.
</event>
<event>
11    0  0.3482687E-009  0.9118800E+02  0.7816531E-02  0.1126479E+00
         25   -1    0    0    0    0  0.00000000000E+00  0.00000000000E+00  0.99999998245E-14  0.12500000000E+03  0.12500000000E+03 0.  0.
    3000001    1    3    3    0    0 -0.86021184922E+01 -0.40901465529E+01  0.58726600493E+00  0.95953438051E+01  0.10000000000E+01 0. -1.
    1000022    2    1    0    0    0 -0.51677361057E+02 -0.28239937941E+02 -0.18390385512E+02  0.62500000469E+02  0.10000001932E+02 0.  0.
    3000022    2    3    3    0    0 -0.43075242565E+02 -0.24149791388E+02 -0.18977651517E+02  0.52904656664E+02  0.24998706471E+00 0.  0.
    1000022    2    1    0    0    0  0.51677361057E+02  0.28239937941E+02  0.18390385512E+02  0.62499999531E+02  0.99999960633E+01 0.  0.
    3000022    2    5    5    0    0  0.36998058396E+02  0.16315844354E+02  0.15671791646E+02  0.43367391577E+02  0.24999344529E+00 0.  0.
        -13    1    4    4    0    0 -0.31482463567E+02 -0.17655189025E+02 -0.13833157571E+02  0.38655122366E+02  0.10500000000E+00 0.  1.
         13    1    4    4    0    0 -0.11592778998E+02 -0.64946023631E+01 -0.51444939456E+01  0.14249534298E+02  0.10500000000E+00 0. -1.
    3000001    1    5    5    0    0  0.14679302662E+02  0.11924093587E+02  0.27185938654E+01  0.19132607954E+02  0.10000000000E+01 0.  1.
        -13    1    6    6    0    0  0.13146278659E+02  0.58247781473E+01  0.56283257804E+01  0.15441559479E+02  0.10500000000E+00 0. -1.
         13    1    6    6    0    0  0.23851779736E+02  0.10491066207E+02  0.10043465866E+02  0.27925832097E+02  0.10500000000E+00 0.  1.
</event>
<event>
11    0  0.3482687E-009  0.9118800E+02  0.7816531E-02  0.1126479E+00
         25   -1    0    0    0    0  0.00000000000E+00  0.00000000000E+00  0.99999998245E-14  0.12500000000E+03  0.12500000000E+03 0.  0.
    3000001    1    3    3    0    0 -0.47560333416E+01  0.85143938123E+00 -0.18875111994E+01  0.52827550288E+01  0.10000000000E+01 0. -1.
    1000022    2    1    0    0    0 -0.61406018855E+02 -0.23918880500E+01  0.54616753662E+01  0.62499999593E+02  0.99999885621E+01 0.  0.
    3000022    2    3    3    0    0 -0.56649985513E+02 -0.32433274312E+01  0.73491865656E+01  0.57217244564E+02  0.25000167412E+00 0.  0.
    1000022    2    1    0    0    0  0.61406018855E+02  0.23918880500E+01 -0.54616753662E+01  0.62500000407E+02  0.99999936511E+01 0.  0.
    3000022    2    5    5    0    0  0.52088013412E+02 -0.11428000346E+01 -0.61368257892E+01  0.52461321540E+02  0.24998779600E+00 0.  0.
        -13    1    4    4    0    0 -0.22302237299E+02 -0.13019010714E+01  0.28358148625E+01  0.22519715937E+02  0.10500000000E+00 0. -1.
         13    1    4    4    0    0 -0.34347748214E+02 -0.19414263599E+01  0.45133717031E+01  0.34697528627E+02  0.10500000000E+00 0.  1.
    3000001    1    5    5    0    0  0.93180054434E+01  0.35346880846E+01  0.67515042300E+00  0.10038678867E+02  0.10000000000E+01 0.  1.
        -13    1    6    6    0    0  0.17181485339E+02 -0.42021759284E+00 -0.19938687080E+01  0.17302212538E+02  0.10500000000E+00 0.  1.
         13    1    6    6    0    0  0.34906528073E+02 -0.72258244173E+00 -0.41429570811E+01  0.35159109003E+02  0.10500000000E+00 0. -1.
</event>
<event>
11    0  0.3482687E-009  0.9118800E+02  0.7816531E-02  0.1126479E+00
         25   -1    0    0    0    0  0.00000000000E+00  0.00000000000E+00  0.99999998245E-14  0.12500000000E+03  0.12500000000E+03 0.  0.
    3000001    1    3    3    0    0 -0.90283311989E+01 -0.39068050017E+01 -0.20042927364E+02  0.22349336162E+02  0.10000000000E+01 0.  1.
    1000022    2    1    0    0    0 -0.24104827950E+02 -0.23365422188E+02 -0.51761608033E+02  0.62499999186E+02  0.10000007375E+02 0.  0.
    3000022    2    3    3    0    0 -0.15076496751E+02 -0.19458617186E+02 -0.31718680669E+02  0.40150663024E+02  0.25000153867E+00 0.  0.
    1000022    2    1    0    0    0  0.24104827950E+02  0.23365422188E+02  0.51761608033E+02  0.62500000814E+02  0.10000017555E+02 0.  0.
    3000022    2    5    5    0    0  0.23888811136E+02  0.21454340986E+02  0.50869521194E+02  0.60155920280E+02  0.25002713839E+00 0.  0.
        -13    1    4    4    0    0 -0.47547889034E+01 -0.61867830022E+01 -0.99902302020E+01  0.12676751395E+02  0.10500000000E+00 0. -1.
         13    1    4    4    0    0 -0.10321707848E+02 -0.13271834184E+02 -0.21728450467E+02  0.27473911629E+02  0.10500000000E+00 0.  1.
    3000001    1    5    5    0    0  0.21601681367E+00  0.19110812013E+01  0.89208683905E+00  0.23440805341E+01  0.10000000000E+01 0.  1.
        -13    1    6    6    0    0  0.15458170684E+02  0.13809128009E+02  0.32869382645E+02  0.38859418392E+02  0.10500000000E+00 0. -1.
         13    1    6    6    0    0  0.84306404525E+01  0.76452129774E+01  0.18000138549E+02  0.21296501889E+02  0.10500000000E+00 0.  1.
</event>
<event>
11    0  0.3482687E-009  0.9118800E+02  0.7816531E-02  0.1126479E+00
         25   -1    0    0    0    0  0.00000000000E+00  0.00000000000E+00  0.99999998245E-14  0.12500000000E+03  0.12500000000E+03 0.  0.
    3000001    1    3    3    0    0 -0.68474329644E-02  0.34571053761E+01 -0.30489401603E+01  0.47167425804E+01  0.10000000000E+01 0.  1.
    1000022    2    1    0    0    0  0.21596828210E+02  0.54960300981E+02 -0.17865960938E+02  0.62499997653E+02  0.99999736869E+01 0.  0.
    3000022    2    3    3    0    0  0.21603675643E+02  0.51503195605E+02 -0.14817020778E+02  0.57783255073E+02  0.25000652181E+00 0.  0.
    1000022    2    1    0    0    0 -0.21596828210E+02 -0.54960300981E+02  0.17865960938E+02  0.62500002347E+02  0.10000003019E+02 0.  0.
    3000022    2    5    5    0    0 -0.18167987038E+02 -0.47198235278E+02  0.11556075510E+02  0.51878266618E+02  0.24999947435E+00 0.  0.
        -13    1    4    4    0    0  0.11274519131E+02  0.26915471808E+02 -0.76733988680E+01  0.30173655388E+02  0.10500000000E+00 0.  1.
         13    1    4    4    0    0  0.10329156511E+02  0.24587723798E+02 -0.71436219101E+01  0.27609599685E+02  0.10500000000E+00 0. -1.
    3000001    1    5    5    0    0 -0.34288411718E+01 -0.77620657031E+01  0.63098854284E+01  0.10621735728E+02  0.10000000000E+01 0. -1.
        -13    1    6    6    0    0 -0.53333697483E+01 -0.13947983210E+02  0.34425238233E+01  0.15324916436E+02  0.10500000000E+00 0. -1.
         13    1    6    6    0    0 -0.12834617290E+02 -0.33250252068E+02  0.81135516867E+01  0.36553350182E+02  0.10500000000E+00 0.  1.
</event>
<event>
11    0  0.3482687E-009  0.9118800E+02  0.7816531E-02  0.1126479E+00
         25   -1    0    0    0    0  0.00000000000E+00  0.00000000000E+00  0.99999998245E-14  0.12500000000E+03  0.12500000000E+03 0.  0.
    3000001    1    3    3    0    0 -0.19015747995E+02 -0.12792826916E+02 -0.57984048510E+01  0.23661711500E+02  0.10000000000E+01 0. -1.
    1000022    2    1    0    0    0 -0.50583650722E+02 -0.35212101933E+02 -0.27663470718E+01  0.62499994792E+02  0.99999414989E+01 0.  0.
    3000022    2    3    3    0    0 -0.31567902727E+02 -0.22419275017E+02  0.30320577793E+01  0.38838283292E+02  0.24999959348E+00 0.  0.
    1000022    2    1    0    0    0  0.50583650722E+02  0.35212101933E+02  0.27663470718E+01  0.62500005208E+02  0.10000006596E+02 0.  0.
    3000022    2    5    5    0    0  0.35527156300E+02  0.29819614219E+02  0.29124162032E+01  0.46475078243E+02  0.25000526909E+00 0.  0.
        -13    1    4    4    0    0 -0.16582517415E+02 -0.11694769353E+02  0.15987196757E+01  0.20354715513E+02  0.10500000000E+00 0.  1.
         13    1    4    4    0    0 -0.14985385313E+02 -0.10724505665E+02  0.14333381036E+01  0.18483567779E+02  0.10500000000E+00 0. -1.
    3000001    1    5    5    0    0  0.15056494422E+02  0.53924877144E+01 -0.14606913143E+00  0.16024926965E+02  0.10000000000E+01 0.  1.
        -13    1    6    6    0    0  0.86620231626E+01  0.72654766538E+01  0.73190662163E+00  0.11329806202E+02  0.10500000000E+00 0.  1.
         13    1    6    6    0    0  0.26865133137E+02  0.22554137565E+02  0.21805095816E+01  0.35145272041E+02  0.10500000000E+00 0. -1.
</event>
<event>
11    0  0.3482687E-009  0.9118800E+02  0.7816531E-02  0.1126479E+00
         25   -1    0    0    0    0  0.00000000000E+00  0.00000000000E+00  0.99999998245E-14  0.12500000000E+03  0.12500000000E+03 0.  0.
    3000001    1    3    3    0    0  0.63420418818E+01  0.16874224595E+02 -0.19576625252E+01  0.18160214577E+02  0.10000000000E+01 0. -1.
    1000022    2    1    0    0    0  0.75838311872E+01  0.60016519268E+02 -0.12114160852E+02  0.62500000133E+02  0.10000002144E+02 0.  0.
    3000022    2    3    3    0    0  0.12417893054E+01  0.43142294673E+02 -0.10156498327E+02  0.44339785556E+02  0.24998905431E+00 0.  0.
    1000022    2    1    0    0    0 -0.75838311872E+01 -0.60016519268E+02  0.12114160852E+02  0.62499999867E+02  0.10000000486E+02 0.  0.
    3000022    2    5    5    0    0 -0.13294159965E+01 -0.21280569741E+02  0.89391061090E+01  0.23121421074E+02  0.24999812822E+00 0.  0.
        -13    1    4    4    0    0  0.84130811696E+00  0.30147836865E+02 -0.71359631223E+01  0.30992464595E+02  0.10500000000E+00 0.  1.
         13    1    4    4    0    0  0.40048118849E+00  0.12994457808E+02 -0.30205352042E+01  0.13347320961E+02  0.10500000000E+00 0. -1.
    3000001    1    5    5    0    0 -0.62544151907E+01 -0.38735949527E+02  0.31750547428E+01  0.39378578793E+02  0.10000000000E+01 0.  1.
        -13    1    6    6    0    0 -0.67632625065E+00 -0.97516223777E+01  0.40963914224E+01  0.10599198266E+02  0.10500000000E+00 0.  1.
         13    1    6    6    0    0 -0.65308974584E+00 -0.11528947363E+02  0.48427146866E+01  0.12522222808E+02  0.10500000000E+00 0. -1.
</event>
<event>
11    0  0.3482687E-009  0.9118800E+02  0.7816531E-02  0.1126479E+00
         25   -1    0    0    0    0  0.00000000000E+00  0.00000000000E+00  0.99999998245E-14  0.12500000000E+03  0.12500000000E+03 0.  0.
    3000001    1    3    3    0    0 -0.10096862113E+02  0.35934651377E+02  0.25659035800E+02  0.45305980977E+02  0.10000000000E+01 0.  1.
    1000022    2    1    0    0    0 -0.11436826848E+02  0.45904117484E+02  0.39601274855E+02  0.62499999982E+02  0.10000000861E+02 0.  0.
    3000022    2    3    3    0    0 -0.13399647352E+01  0.99694661077E+01  0.13942239054E+02  0.17194019005E+02  0.24999943348E+00 0.  0.
    1000022    2    1    0    0    0  0.11436826848E+02 -0.45904117484E+02 -0.39601274855E+02  0.62500000018E+02  0.10000001089E+02 0.  0.
    3000022    2    5    5    0    0  0.11972712569E+02 -0.38189089161E+02 -0.36298381902E+02  0.54031355653E+02  0.24997546587E+00 0.  0.
        -13    1    4    4    0    0 -0.67319103101E+00  0.47739905944E+01  0.67848724270E+01  0.83240429607E+01  0.10500000000E+00 0.  1.
         13    1    4    4    0    0 -0.66677370419E+00  0.51954755132E+01  0.71573666275E+01  0.88699760440E+01  0.10500000000E+00 0. -1.
    3000001    1    5    5    0    0 -0.53588572067E+00 -0.77150283230E+01 -0.33028929524E+01  0.84686443653E+01  0.10000000000E+01 0. -1.
        -13    1    6    6    0    0  0.79422060514E+01 -0.25411627344E+02 -0.24081316880E+02  0.35899168360E+02  0.10500000000E+00 0. -1.
         13    1    6    6    0    0  0.40305065176E+01 -0.12777461817E+02 -0.12217065022E+02  0.18132187293E+02  0.10500000000E+00 0.  1.
</event>
<event>
11    0  0.3482687E-009  0.9118800E+02  0.7816531E-02  0.1126479E+00
         25   -1    0    0    0    0  0.00000000000E+00  0.00000000000E+00  0.99999998245E-14  0.12500000000E+03  0.12500000000E+03 0.  0.
    3000001    1    3    3    0    0 -0.16639429828E+02  0.52646574269E+02 -0.88825886726E+01  0.55932394807E+02  0.10000000000E+01 0.  1.
    1000022    2    1    0    0    0 -0.15939213160E+02  0.58380065555E+02 -0.11998308287E+02  0.62499999968E+02  0.10000001194E+02 0.  0.
    3000022    2    3    3    0    0  0.70021666837E+00  0.57334912858E+01 -0.31157196147E+01  0.65676051612E+01  0.25000625742E+00 0.  0.
    1000022    2    1    0    0    0  0.15939213160E+02 -0.58380065555E+02  0.11998308287E+02  0.62500000032E+02  0.10000001591E+02 0.  0.
    3000022    2    5    5    0    0  0.52245730216E+01 -0.21164960315E+02 -0.45923096378E+00  0.21806537959E+02  0.24999250678E+00 0.  0.
        -13    1    4    4    0    0  0.42923393016E+00  0.32415619074E+01 -0.16987540803E+01  0.36862929606E+01  0.10500000000E+00 0. -1.
         13    1    4    4    0    0  0.27098273821E+00  0.24919293784E+01 -0.14169655344E+01  0.28813122006E+01  0.10500000000E+00 0.  1.
    3000001    1    5    5    0    0  0.10714640138E+02 -0.37215105240E+02  0.12457539251E+02  0.40693462073E+02  0.10000000000E+01 0.  1.
        -13    1    6    6    0    0  0.34976719355E+01 -0.14084121548E+02 -0.25599916073E+00  0.14514570242E+02  0.10500000000E+00 0.  1.
         13    1    6    6    0    0  0.17269010861E+01 -0.70808387673E+01 -0.20323180306E+00  0.72919677163E+01  0.10500000000E+00 0. -1.
</event>
<event>
11    0  0.3482687E-009  0.9118800E+02  0.7816531E-02  0.1126479E+00
         25   -1    0    0    0    0  0.00000000000E+00  0.00000000000E+00  0.99999998245E-14  0.12500000000E+03  0.12500000000E+03 0.  0.
    3000001    1    3    3    0    0  0.42115701851E+02  0.43447896856E+01  0.34776084590E+02  0.54799503640E+02  0.10000000000E+01 0.  1.
    1000022    2    1    0    0    0  0.49180752223E+02  0.24485137716E+01  0.37168648880E+02  0.62500001049E+02  0.10000003132E+02 0.  0.
    3000022    2    3    3    0    0  0.70650503719E+01 -0.18962759140E+01  0.23925642905E+01  0.77004974088E+01  0.24999471750E+00 0.  0.
    1000022    2    1    0    0    0 -0.49180752223E+02 -0.24485137716E+01 -0.37168648880E+02  0.62499998951E+02  0.99999900164E+01 0.  0.
    3000022    2    5    5    0    0 -0.40028210399E+02 -0.32968541749E+01 -0.34305053148E+02  0.52820697127E+02  0.24999652777E+00 0.  0.
        -13    1    4    4    0    0  0.34032497997E+01 -0.87550658150E+00  0.12091620124E+01  0.37177572198E+01  0.10500000000E+00 0. -1.
         13    1    4    4    0    0  0.36618005722E+01 -0.10207693325E+01  0.11834022781E+01  0.39827401890E+01  0.10500000000E+00 0.  1.
    3000001    1    5    5    0    0 -0.91525418241E+01  0.84834040330E+00 -0.28635957323E+01  0.96793018240E+01  0.10000000000E+01 0. -1.
        -13    1    6    6    0    0 -0.11900201038E+02 -0.94050792087E+00 -0.10167727033E+02  0.15680976943E+02  0.10500000000E+00 0. -1.
         13    1    6    6    0    0 -0.28128009361E+02 -0.23563462540E+01 -0.24137326116E+02  0.37139720184E+02  0.10500000000E+00 0.  1.
</event>
<event>
11    0  0.3482687E-009  0.9118800E+02  0.7816531E-02  0.1126479E+00
         25   -1    0    0    0    0  0.00000000000E+00  0.00000000000E+00  0.99999998245E-14  0.12500000000E+03  0.12500000000E+03 0.  0.
    3000001    1    3    3    0    0  0.61831290920E+00  0.32186211873E+01 -0.10837688029E+00  0.34283492747E+01  0.10000000000E+01 0.  1.
    1000022    2    1    0    0    0  0.44883535383E+02  0.42133166882E+02 -0.40638124302E+01  0.62499998638E+02  0.99999879168E+01 0.  0.
    3000022    2    3    3    0    0  0.44265222474E+02  0.38914545695E+02 -0.39554355499E+01  0.59071649364E+02  0.25000173922E+00 0.  0.
    1000022    2    1    0    0    0 -0.44883535383E+02 -0.42133166882E+02  0.40638124302E+01  0.62500001362E+02  0.10000004937E+02 0.  0.
    3000022    2    5    5    0    0 -0.26029326181E+02 -0.28693568686E+02 -0.10959309632E+01  0.38757066492E+02  0.24986610472E+00 0.  0.
        -13    1    4    4    0    0  0.30298776145E+02  0.26570061690E+02 -0.27081002336E+01  0.40389712130E+02  0.10500000000E+00 0.  1.
         13    1    4    4    0    0  0.13966446328E+02  0.12344484005E+02 -0.12473353163E+01  0.18681937233E+02  0.10500000000E+00 0. -1.
    3000001    1    5    5    0    0 -0.18854209202E+02 -0.13439598197E+02  0.51597433934E+01  0.23742934869E+02  0.10000000000E+01 0.  1.
        -13    1    6    6    0    0 -0.11726029286E+02 -0.13017497523E+02 -0.46949083923E+00  0.17526735327E+02  0.10500000000E+00 0.  1.
         13    1    6    6    0    0 -0.14303296894E+02 -0.15676071162E+02 -0.62644012395E+00  0.21230331165E+02  0.10500000000E+00 0. -1.
</event>
<event>
11    0  0.3482687E-009  0.9118800E+02  0.7816531E-02  0.1126479E+00
         25   -1    0    0    0    0  0.00000000000E+00  0.00000000000E+00  0.99999998245E-14  0.12500000000E+03  0.12500000000E+03 0.  0.
    3000001    1    3    3    0    0  0.21615080832E+02  0.50219563849E+01  0.53371996946E+02  0.57810049501E+02  0.10000000000E+01 0.  1.
    1000022    2    1    0    0    0  0.21097737858E+02  0.70949126996E+01  0.57539531192E+02  0.62499999878E+02  0.10000000305E+02 0.  0.
    3000022    2    3    3    0    0 -0.51734297437E+00  0.20729563147E+01  0.41675342453E+01  0.46899503770E+01  0.25000243302E+00 0.  0.
    1000022    2    1    0    0    0 -0.21097737858E+02 -0.70949126996E+01 -0.57539531192E+02  0.62500000122E+02  0.10000001825E+02 0.  0.
    3000022    2    5    5    0    0 -0.10341125861E+02 -0.40987537160E+01 -0.41258704016E+02  0.42732678507E+02  0.24997834783E+00 0.  0.
        -13    1    4    4    0    0 -0.30425876104E+00  0.13364790161E+01  0.27754252831E+01  0.30972181157E+01  0.10500000000E+00 0.  1.
         13    1    4    4    0    0 -0.21308421333E+00  0.73647729858E+00  0.13921089622E+01  0.15927322612E+01  0.10500000000E+00 0. -1.
    3000001    1    5    5    0    0 -0.10756611997E+02 -0.29961589836E+01 -0.16280827175E+02  0.19767321615E+02  0.10000000000E+01 0. -1.
        -13    1    6    6    0    0 -0.78240637991E+01 -0.30934979689E+01 -0.31281311522E+02  0.32393165630E+02  0.10500000000E+00 0. -1.
         13    1    6    6    0    0 -0.25170620623E+01 -0.10052557471E+01 -0.99773924945E+01  0.10339512877E+02  0.10500000000E+00 0.  1.
</event>
<event>
11    0  0.3482687E-009  0.9118800E+02  0.7816531E-02  0.1126479E+00
         25   -1    0    0    0    0  0.00000000000E+00  0.00000000000E+00  0.99999998245E-14  0.12500000000E+03  0.12500000000E+03 0.  0.
    3000001    1    3    3    0    0  0.57309461884E+01  0.16213133135E+02  0.23263649259E+02  0.28946619960E+02  0.10000000000E+01 0. -1.
    1000022    2    1    0    0    0  0.12219130846E+02  0.25428048820E+02  0.54866733330E+02  0.62499990236E+02  0.99998763883E+01 0.  0.
    3000022    2    3    3    0    0  0.64881846576E+01  0.92149156854E+01  0.31603084071E+02  0.33553370276E+02  0.25004569871E+00 0.  0.
    1000022    2    1    0    0    0 -0.12219130846E+02 -0.25428048820E+02 -0.54866733330E+02  0.62500009764E+02  0.99999984365E+01 0.  0.
    3000022    2    5    5    0    0 -0.12675709139E+02 -0.15981760346E+02 -0.38512911004E+02  0.43582072922E+02  0.25000051581E+00 0.  0.
        -13    1    4    4    0    0  0.33460459143E+01  0.46450032181E+01  0.16135706578E+02  0.17121452331E+02  0.10500000000E+00 0. -1.
         13    1    4    4    0    0  0.31421387432E+01  0.45699124674E+01  0.15467377493E+02  0.16431917945E+02  0.10500000000E+00 0.  1.
    3000001    1    5    5    0    0  0.45657829265E+00 -0.94462884743E+01 -0.16353822326E+02  0.18917936842E+02  0.10000000000E+01 0.  1.
        -13    1    6    6    0    0 -0.58075391133E+01 -0.73531360575E+01 -0.17553841284E+02  0.19898353933E+02  0.10500000000E+00 0. -1.
         13    1    6    6    0    0 -0.68681700254E+01 -0.86286242884E+01 -0.20959069720E+02  0.23683718989E+02  0.10500000000E+00 0.  1.
</event>
<event>
11    0  0.3482687E-009  0.9118800E+02  0.7816531E-02  0.1126479E+00
         25   -1    0    0    0    0  0.00000000000E+00  0.00000000000E+00  0.99999998245E-14  0.12500000000E+03  0.12500000000E+03 0.  0.
    3000001    1    3    3    0    0 -0.67068700580E+01 -0.89879211950E+01 -0.38009465646E+01  0.11883266730E+02  0.10000000000E+01 0. -1.
    1000022    2    1    0    0    0 -0.24761290165E+02 -0.43073532850E+02 -0.36575940873E+02  0.62500000718E+02  0.99999958115E+01 0.  0.
    3000022    2    3    3    0    0 -0.18054420107E+02 -0.34085611655E+02 -0.32774994309E+02  0.50616733989E+02  0.25000091962E+00 0.  0.
    1000022    2    1    0    0    0  0.24761290165E+02  0.43073532850E+02  0.36575940873E+02  0.62499999282E+02  0.99999868317E+01 0.  0.
    3000022    2    5    5    0    0  0.18621012098E+02  0.25605384813E+02  0.18851582591E+02  0.36848642844E+02  0.24998053092E+00 0.  0.
        -13    1    4    4    0    0 -0.10551630115E+02 -0.19983725142E+02 -0.19126901114E+02  0.29606342899E+02  0.10500000000E+00 0.  1.
         13    1    4    4    0    0 -0.75027899921E+01 -0.14101886513E+02 -0.13648093195E+02  0.21010391090E+02  0.10500000000E+00 0. -1.
    3000001    1    5    5    0    0  0.61402780666E+01  0.17468148037E+02  0.17724358283E+02  0.25651356438E+02  0.10000000000E+01 0. -1.
        -13    1    6    6    0    0  0.93560442482E+01  0.12751236548E+02  0.94055512520E+01  0.18401223243E+02  0.10500000000E+00 0.  1.
         13    1    6    6    0    0  0.92649678500E+01  0.12854148265E+02  0.94460313389E+01  0.18447419601E+02  0.10500000000E+00 0. -1.
</event>
<event>
11    0  0.3482687E-009  0.9118800E+02  0.7816531E-02  0.1126479E+00
         25   -1    0    0    0    0  0.00000000000E+00  0.00000000000E+00  0.99999998245E-14  0.12500000000E+03  0.12500000000E+03 0.  0.
    3000001    1    3    3    0    0  0.29062540680E+02  0.26793013823E+02  0.76172708292E+00  0.39548414490E+02  0.10000000000E+01 0. -1.
    1000022    2    1    0    0    0  0.48730526918E+02  0.37625851431E+02 -0.39851265778E+01  0.62499997742E+02  0.99999767125E+01 0.  0.
    3000022    2    3    3    0    0  0.19667986238E+02  0.10832837608E+02 -0.47468536607E+01  0.22951583252E+02  0.25000158704E+00 0.  0.
    1000022    2    1    0    0    0 -0.48730526918E+02 -0.37625851431E+02  0.39851265778E+01  0.62500002258E+02  0.10000004941E+02 0.  0.
    3000022    2    5    5    0    0 -0.22412531375E+02 -0.22948897816E+02 -0.65596030463E-01  0.32078657605E+02  0.24999466148E+00 0.  0.
        -13    1    4    4    0    0  0.10977848941E+02  0.60764859671E+01 -0.27146248603E+01  0.12838109761E+02  0.10500000000E+00 0. -1.
         13    1    4    4    0    0  0.86901372969E+01  0.47563516406E+01 -0.20322288004E+01  0.10113473492E+02  0.10500000000E+00 0.  1.
    3000001    1    5    5    0    0 -0.26317995544E+02 -0.14676953615E+02  0.40507226083E+01  0.30421344653E+02  0.10000000000E+01 0. -1.
        -13    1    6    6    0    0 -0.98352812797E+01 -0.10079571287E+02  0.36990417210E-01  0.14083426730E+02  0.10500000000E+00 0.  1.
         13    1    6    6    0    0 -0.12577250095E+02 -0.12869326529E+02 -0.10258644767E+00  0.17995230875E+02  0.10500000000E+00 0. -1.
</event>
<event>
11    0  0.3482687E-009  0.9118800E+02  0.7816531E-02  0.1126479E+00
         25   -1    0    0    0    0  0.00000000000E+00  0.00000000000E+00  0.99999998245E-14  0.12500000000E+03  0.12500000000E+03 0.  0.
    3000001    1    3    3    0    0  0.30487436715E+01 -0.16344562183E+02  0.53549529436E+01  0.17496144488E+02  0.10000000000E+01 0.  1.
    1000022    2    1    0    0    0 -0.28566849960E+01 -0.60496993568E+02  0.11755984192E+02  0.62499999807E+02  0.99999965839E+01 0.  0.
    3000022    2    3    3    0    0 -0.59054286676E+01 -0.44152431385E+02  0.64010312483E+01  0.45003855319E+02  0.25001517394E+00 0.  0.
    1000022    2    1    0    0    0  0.28566849960E+01  0.60496993568E+02 -0.11755984192E+02  0.62500000193E+02  0.99999989933E+01 0.  0.
    3000022    2    5    5    0    0  0.38724479062E+01  0.49808071399E+02 -0.61200194503E+01  0.50332464288E+02  0.24998794704E+00 0.  0.
        -13    1    4    4    0    0 -0.42933899708E+01 -0.31814066671E+02  0.46017676646E+01  0.32430777454E+02  0.10500000000E+00 0.  1.
         13    1    4    4    0    0 -0.16120386968E+01 -0.12338364713E+02  0.17992635837E+01  0.12573077865E+02  0.10500000000E+00 0. -1.
    3000001    1    5    5    0    0 -0.10157629102E+01  0.10688922169E+02 -0.56359647416E+01  0.12167535904E+02  0.10000000000E+01 0. -1.
        -13    1    6    6    0    0  0.25515109335E+01  0.32852968569E+02 -0.40918387913E+01  0.33205149021E+02  0.10500000000E+00 0.  1.
         13    1    6    6    0    0  0.13209369727E+01  0.16955102830E+02 -0.20281806590E+01  0.17127315267E+02  0.10500000000E+00 0. -1.
</event>
<event>
11    0  0.3482687E-009  0.9118800E+02  0.7816531E-02  0.1126479E+00
         25   -1    0    0    0    0  0.00000000000E+00  0.00000000000E+00  0.99999998245E-14  0.12500000000E+03  0.12500000000E+03 0.  0.
    3000001    1    3    3    0    0  0.31709917422E+02  0.84646716467E+01  0.19415205701E+01  0.32892841639E+02  0.10000000000E+01 0. -1.
    1000022    2    1    0    0    0  0.60515327863E+02  0.81940482617E+01  0.87750370327E+01  0.62500008975E+02  0.10000125687E+02 0.  0.
    3000022    2    3    3    0    0  0.28805410441E+02 -0.27062338497E+00  0.68335164626E+01  0.29607167336E+02  0.25000547170E+00 0.  0.
    1000022    2    1    0    0    0 -0.60515327863E+02 -0.81940482617E+01 -0.87750370327E+01  0.62499991025E+02  0.10000013498E+02 0.  0.
    3000022    2    5    5    0    0 -0.15420129542E+02  0.22043031497E+01 -0.27598719962E+01  0.15821464548E+02  0.24999907094E+00 0.  0.
        -13    1    4    4    0    0  0.21234144085E+02 -0.16827828084E+00  0.50263327288E+01  0.21821829399E+02  0.10500000000E+00 0.  1.
         13    1    4    4    0    0  0.75712663554E+01 -0.10234510414E+00  0.18071837338E+01  0.77853379370E+01  0.10500000000E+00 0. -1.
    3000001    1    5    5    0    0 -0.45095198320E+02 -0.10398351411E+02 -0.60151650365E+01  0.46678526477E+02  0.10000000000E+01 0.  1.
        -13    1    6    6    0    0 -0.73379644094E+01  0.11018599946E+01 -0.12713250168E+01  0.75290842351E+01  0.10500000000E+00 0.  1.
         13    1    6    6    0    0 -0.80821651329E+01  0.11024431551E+01 -0.14885469795E+01  0.82923803130E+01  0.10500000000E+00 0. -1.
</event>
<event>
11    0  0.3482687E-009  0.9118800E+02  0.7816531E-02  0.1126479E+00
         25   -1    0    0    0    0  0.00000000000E+00  0.00000000000E+00  0.99999998245E-14  0.12500000000E+03  0.12500000000E+03 0.  0.
    3000001    1    3    3    0    0  0.10638537416E+02  0.50455483932E+01  0.28726347487E+01  0.12160923786E+02  0.10000000000E+01 0. -1.
    1000022    2    1    0    0    0  0.42910167608E+02  0.41864693592E+02  0.14571031960E+02  0.62499999678E+02  0.99999966850E+01 0.  0.
    3000022    2    3    3    0    0  0.32271630192E+02  0.36819145199E+02  0.11698397211E+02  0.50339075892E+02  0.24999182221E+00 0.  0.
    1000022    2    1    0    0    0 -0.42910167608E+02 -0.41864693592E+02 -0.14571031960E+02  0.62500000322E+02  0.10000000711E+02 0.  0.
    3000022    2    5    5    0    0 -0.17379839670E+02 -0.10836323249E+02 -0.32239671797E+01  0.20735023489E+02  0.25001239515E+00 0.  0.
        -13    1    4    4    0    0  0.10448663988E+02  0.11860486986E+02  0.38100379134E+01  0.16259555486E+02  0.10500000000E+00 0. -1.
         13    1    4    4    0    0  0.21822966204E+02  0.24958658212E+02  0.78883592980E+01  0.34079520406E+02  0.10500000000E+00 0.  1.
    3000001    1    5    5    0    0 -0.25530327938E+02 -0.31028370343E+02 -0.11347064781E+02  0.41764976833E+02  0.10000000000E+01 0. -1.
        -13    1    6    6    0    0 -0.66218256207E+01 -0.41861568158E+01 -0.12705502738E+01  0.79371157504E+01  0.10500000000E+00 0.  1.
         13    1    6    6    0    0 -0.10758014049E+02 -0.66501664331E+01 -0.19534169058E+01  0.12797907738E+02  0.10500000000E+00 0. -1.
</event>
<event>
11    0  0.3482687E-009  0.9118800E+02  0.7816531E-02  0.1126479E+00
         25   -1    0    0    0    0  0.00000000000E+00  0.00000000000E+00  0.99999998245E-14  0.12500000000E+03  0.12500000000E+03 0.  0.
    3000001    1    3    3    0    0  0.38047763415E+02  0.18937092280E+02  0.15362571487E+02  0.45202371261E+02  0.10000000000E+01 0.  1.
    1000022    2    1    0    0    0  0.49900365622E+02  0.24723570028E+02  0.26550868786E+02  0.62500001117E+02  0.10000005110E+02 0.  0.
    3000022    2    3    3    0    0  0.11852602207E+02  0.57864777485E+01  0.11188297298E+02  0.17297629856E+02  0.24999679463E+00 0.  0.
    1000022    2    1    0    0    0 -0.49900365622E+02 -0.24723570028E+02 -0.26550868786E+02  0.62499998883E+02  0.99999911439E+01 0.  0.
    3000022    2    5    5    0    0 -0.35905147992E+02 -0.13627120943E+02 -0.20992531733E+02  0.43767876482E+02  0.25009139959E+00 0.  0.
        -13    1    4    4    0    0  0.38922503646E+01  0.18761170755E+01  0.37283511801E+01  0.57079817540E+01  0.10500000000E+00 0. -1.
         13    1    4    4    0    0  0.79603518424E+01  0.39103606730E+01  0.74599461181E+01  0.11589648102E+02  0.10500000000E+00 0.  1.
    3000001    1    5    5    0    0 -0.13995217631E+02 -0.11096449085E+02 -0.55583370525E+01  0.18732122400E+02  0.10000000000E+01 0.  1.
        -13    1    6    6    0    0 -0.20668846728E+02 -0.78422216024E+01 -0.12158164670E+02  0.25229618663E+02  0.10500000000E+00 0.  1.
         13    1    6    6    0    0 -0.15236301264E+02 -0.57848993405E+01 -0.88343670630E+01  0.18538257820E+02  0.10500000000E+00 0. -1.
</event>
<event>
11    0  0.3482687E-009  0.9118800E+02  0.7816531E-02  0.1126479E+00
         25   -1    0    0    0    0  0.00000000000E+00  0.00000000000E+00  0.99999998245E-14  0.12500000000E+03  0.12500000000E+03 0.  0.
    3000001    1    3    3    0    0  0.83337326716E+01 -0.88618221655E+01  0.12123723212E+02  0.17203710555E+02  0.10000000000E+01 0. -1.
    1000022    2    1    0    0    0  0.39256378719E+02 -0.35772002003E+02  0.31393479038E+02  0.62499999658E+02  0.10000001685E+02 0.  0.
    3000022    2    3    3    0    0  0.30922646047E+02 -0.26910179838E+02  0.19269755826E+02  0.45296289103E+02  0.24999890736E+00 0.  0.
    1000022    2    1    0    0    0 -0.39256378719E+02  0.35772002003E+02 -0.31393479038E+02  0.62500000342E+02  0.10000005960E+02 0.  0.
    3000022    2    5    5    0    0 -0.30036178648E+02  0.27211573711E+02 -0.28511196601E+02  0.49553936309E+02  0.25000107450E+00 0.  0.
        -13    1    4    4    0    0  0.16806325047E+02 -0.14591157735E+02  0.10530592526E+02  0.24622324211E+02  0.10500000000E+00 0.  1.
         13    1    4    4    0    0  0.14116321000E+02 -0.12319022103E+02  0.87391633004E+01  0.20673964892E+02  0.10500000000E+00 0. -1.
    3000001    1    5    5    0    0 -0.92202000705E+01  0.85604282923E+01 -0.28822824376E+01  0.12946064033E+02  0.10000000000E+01 0. -1.
        -13    1    6    6    0    0 -0.88554660535E+01  0.80243172735E+01 -0.84610935461E+01  0.14642748230E+02  0.10500000000E+00 0.  1.
         13    1    6    6    0    0 -0.21180712595E+02  0.19187256438E+02 -0.20050103055E+02  0.34911188079E+02  0.10500000000E+00 0. -1.
</event>
<event>
11    0  0.3482687E-009  0.9118800E+02  0.7816531E-02  0.1126479E+00
         25   -1    0    0    0    0  0.00000000000E+00  0.00000000000E+00  0.99999998245E-14  0.12500000000E+03  0.12500000000E+03 0.  0.
    3000001    1    3    3    0    0  0.52722933405E+01 -0.75865387286E+00 -0.22135569177E+02  0.22789384712E+02  0.10000000000E+01 0.  1.
    1000022    2    1    0    0    0  0.10045334234E+02 -0.14225728908E+02 -0.59185892419E+02  0.62500000213E+02  0.10000003118E+02 0.  0.
    3000022    2    3    3    0    0  0.47730408932E+01 -0.13467075035E+02 -0.37050323242E+02  0.39710615501E+02  0.25000348753E+00 0.  0.
    1000022    2    1    0    0    0 -0.10045334234E+02  0.14225728908E+02  0.59185892419E+02  0.62499999787E+02  0.10000000454E+02 0.  0.
    3000022    2    5    5    0    0 -0.10500230518E+02  0.68798303105E+01  0.34125829878E+02  0.36362366165E+02  0.25000432114E+00 0.  0.
        -13    1    4    4    0    0  0.33123013026E+01 -0.94712966858E+01 -0.25969694437E+02  0.27840848676E+02  0.10500000000E+00 0. -1.
         13    1    4    4    0    0  0.14607395906E+01 -0.39957783496E+01 -0.11080628805E+02  0.11869766825E+02  0.10500000000E+00 0.  1.
    3000001    1    5    5    0    0  0.45489628404E+00  0.73458985977E+01  0.25060062541E+02  0.26137633622E+02  0.10000000000E+01 0.  1.
        -13    1    6    6    0    0 -0.63901246641E+01  0.41123144933E+01  0.20668373722E+02  0.22021296987E+02  0.10500000000E+00 0. -1.
         13    1    6    6    0    0 -0.41101058536E+01  0.27675158173E+01  0.13457456157E+02  0.14341069177E+02  0.10500000000E+00 0.  1.
</event>
<event>
11    0  0.3482687E-009  0.9118800E+02  0.7816531E-02  0.1126479E+00
         25   -1    0    0    0    0  0.00000000000E+00  0.00000000000E+00  0.99999998245E-14  0.12500000000E+03  0.12500000000E+03 0.  0.
    3000001    1    3    3    0    0 -0.16049555673E+01  0.40393567708E+02  0.15799266967E+02  0.43414663781E+02  0.10000000000E+01 0. -1.
    1000022    2    1    0    0    0 -0.48601009773E+01  0.54847931906E+02  0.27826856572E+02  0.62499999060E+02  0.99999860006E+01 0.  0.
    3000022    2    3    3    0    0 -0.32551454100E+01  0.14454364198E+02  0.12027589605E+02  0.19085335279E+02  0.24999001508E+00 0.  0.
    1000022    2    1    0    0    0  0.48601009773E+01 -0.54847931906E+02 -0.27826856572E+02  0.62500000940E+02  0.99999977473E+01 0.  0.
    3000022    2    5    5    0    0 -0.29106914115E+00 -0.15746870365E+01 -0.31763629883E+01  0.35659699695E+01  0.24999896394E+00 0.  0.
        -13    1    4    4    0    0 -0.15963738684E+01  0.67829602317E+01  0.56639666938E+01  0.89804511435E+01  0.10500000000E+00 0.  1.
         13    1    4    4    0    0 -0.16587715417E+01  0.76714039665E+01  0.63636229109E+01  0.10104884136E+02  0.10500000000E+00 0. -1.
    3000001    1    5    5    0    0  0.51511701184E+01 -0.53273244869E+02 -0.24650493584E+02  0.58934030970E+02  0.10000000000E+01 0. -1.
        -13    1    6    6    0    0 -0.23300107523E+00 -0.10403449680E+01 -0.20204294292E+01  0.22868684334E+01  0.10500000000E+00 0.  1.
         13    1    6    6    0    0 -0.58068065919E-01 -0.53434206850E+00 -0.11559335591E+01  0.12791015360E+01  0.10500000000E+00 0. -1.
</event>
<event>
11    0  0.3482687E-009  0.9118800E+02  0.7816531E-02  0.1126479E+00
         25   -1    0    0    0    0  0.00000000000E+00  0.00000000000E+00  0.99999998245E-14  0.12500000000E+03  0.12500000000E+03 0.  0.
    3000001    1    3    3    0    0 -0.11534370170E+02  0.25573269922E+02 -0.78837395720E+01  0.29157969397E+02  0.10000000000E+01 0.  1.
    1000022    2    1    0    0    0 -0.28039233636E+02  0.54524589487E+02 -0.68644337006E+01  0.62499998709E+02  0.99999953445E+01 0.  0.
    3000022    2    3    3    0    0 -0.16504863466E+02  0.28951319565E+02  0.10193058715E+01  0.33342029312E+02  0.25002308663E+00 0.  0.
    1000022    2    1    0    0    0  0.28039233636E+02 -0.54524589487E+02  0.68644337006E+01  0.62500001291E+02  0.10000011486E+02 0.  0.
    3000022    2    5    5    0    0  0.19292284990E+02 -0.44402487896E+02  0.28496001194E+01  0.48496968052E+02  0.24999562344E+00 0.  0.
        -13    1    4    4    0    0 -0.83511540852E+01  0.14730354376E+02  0.57242540970E+00  0.16942957547E+02  0.10500000000E+00 0.  1.
         13    1    4    4    0    0 -0.81537093812E+01  0.14220965190E+02  0.44688046177E+00  0.16399071765E+02  0.10500000000E+00 0. -1.
    3000001    1    5    5    0    0  0.87469486461E+01 -0.10122101591E+02  0.40148335811E+01  0.14003033240E+02  0.10000000000E+01 0. -1.
        -13    1    6    6    0    0  0.79763298867E+01 -0.18379071300E+02  0.12431696375E+01  0.20074077714E+02  0.10500000000E+00 0.  1.
         13    1    6    6    0    0  0.11315955104E+02 -0.26023416597E+02  0.16064304819E+01  0.28422890338E+02  0.10500000000E+00 0. -1.
</event>
<event>
11    0  0.3482687E-009  0.9118800E+02  0.7816531E-02  0.1126479E+00
         25   -1    0    0    0    0  0.00000000000E+00  0.00000000000E+00  0.99999998245E-14  0.12500000000E+03  0.12500000000E+03 0.  0.
    3000001    1    3    3    0    0  0.35005681894E+02 -0.33977111383E+02 -0.81932931784E+01  0.49476983698E+02  0.10000000000E+01 0. -1.
    1000022    2    1    0    0    0  0.46971706702E+02 -0.38638292367E+02 -0.10343654243E+02  0.62499998481E+02  0.99999879739E+01 0.  0.
    3000022    2    3    3    0    0  0.11966024809E+02 -0.46611809845E+01 -0.21503610642E+01  0.13023014783E+02  0.25000688716E+00 0.  0.
    1000022    2    1    0    0    0 -0.46971706702E+02  0.38638292367E+02  0.10343654243E+02  0.62500001519E+02  0.10000006960E+02 0.  0.
    3000022    2    5    5    0    0 -0.23380882768E+02  0.19604775554E+02  0.18005452658E+00  0.30514059367E+02  0.24999174730E+00 0.  0.
        -13    1    4    4    0    0  0.33669862898E+01 -0.13477583747E+01 -0.63022139788E+00  0.36825607018E+01  0.10500000000E+00 0. -1.
         13    1    4    4    0    0  0.85990385187E+01 -0.33134226097E+01 -0.15201396663E+01  0.93404540812E+01  0.10500000000E+00 0.  1.
    3000001    1    5    5    0    0 -0.23590823934E+02  0.19033516813E+02  0.10163599716E+02  0.31985942152E+02  0.10000000000E+01 0. -1.
        -13    1    6    6    0    0 -0.17810514606E+02  0.14956077659E+02  0.13310859300E+00  0.23257846684E+02  0.10500000000E+00 0. -1.
         13    1    6    6    0    0 -0.55703681619E+01  0.46486978960E+01  0.46945933580E-01  0.72562126835E+01  0.10500000000E+00 0.  1.
</event>
<event>
11    0  0.3482687E-009  0.9118800E+02  0.7816531E-02  0.1126479E+00
         25   -1    0    0    0    0  0.00000000000E+00  0.00000000000E+00  0.99999998245E-14  0.12500000000E+03  0.12500000000E+03 0.  0.
    3000001    1    3    3    0    0 -0.67848851287E+01  0.33774892544E+01 -0.56885229821E+01  0.95289765237E+01  0.10000000000E+01 0.  1.
    1000022    2    1    0    0    0 -0.55321901871E+02  0.21139379252E+02 -0.17287706655E+02  0.62500009056E+02  0.10000007439E+02 0.  0.
    3000022    2    3    3    0    0 -0.48537016743E+02  0.17761889997E+02 -0.11599183673E+02  0.52971032532E+02  0.24999014577E+00 0.  0.
    1000022    2    1    0    0    0  0.55321901871E+02 -0.21139379252E+02  0.17287706655E+02  0.62499990944E+02  0.99998942413E+01 0.  0.
    3000022    2    5    5    0    0  0.27325535955E+02 -0.15641580345E+02  0.99900724636E+01  0.33033437666E+02  0.25001052643E+00 0.  0.
        -13    1    4    4    0    0 -0.30810572348E+02  0.11281336256E+02 -0.74234395528E+01  0.33640427998E+02  0.10500000000E+00 0. -1.
         13    1    4    4    0    0 -0.17726444395E+02  0.64805537418E+01 -0.41757441197E+01  0.19330604534E+02  0.10500000000E+00 0.  1.
    3000001    1    5    5    0    0  0.27996365916E+02 -0.54977989070E+01  0.72976341910E+01  0.29466553278E+02  0.10000000000E+01 0.  1.
        -13    1    6    6    0    0  0.11151056416E+02 -0.64566648155E+01  0.40862512178E+01  0.13518248916E+02  0.10500000000E+00 0. -1.
         13    1    6    6    0    0  0.16174479540E+02 -0.91849155293E+01  0.59038212459E+01  0.19515188750E+02  0.10500000000E+00 0.  1.
</event>
<event>
11    0  0.3482687E-009  0.9118800E+02  0.7816531E-02  0.1126479E+00
         25   -1    0    0    0    0  0.00000000000E+00  0.00000000000E+00  0.99999998245E-14  0.12500000000E+03  0.12500000000E+03 0.  0.
    3000001    1    3    3    0    0  0.50097339942E+02 -0.26126357120E+02  0.70364655890E+01  0.56945955551E+02  0.10000000000E+01 0.  1.
    1000022    2    1    0    0    0  0.55415771172E+02 -0.26550751041E+02  0.55136096239E+01  0.62500000113E+02  0.10000002378E+02 0.  0.
    3000022    2    3    3    0    0  0.53184312300E+01 -0.42439392125E+00 -0.15228559652E+01  0.55540445617E+01  0.24999950853E+00 0.  0.
    1000022    2    1    0    0    0 -0.55415771172E+02  0.26550751041E+02 -0.55136096239E+01  0.62499999887E+02  0.10000000963E+02 0.  0.
    3000022    2    5    5    0    0 -0.22783457406E+01 -0.85301475271E+00 -0.48292816657E+00  0.24928326720E+01  0.25000326868E+00 0.  0.
        -13    1    4    4    0    0  0.26936396330E+01 -0.14834030017E+00 -0.78409133107E+00  0.28113206029E+01  0.10500000000E+00 0.  1.
         13    1    4    4    0    0  0.26247915970E+01 -0.27605362108E+00 -0.73876463409E+00  0.27427239588E+01  0.10500000000E+00 0. -1.
    3000001    1    5    5    0    0 -0.53137425432E+02  0.27403765794E+02 -0.50306814573E+01  0.60007167215E+02  0.10000000000E+01 0.  1.
        -13    1    6    6    0    0 -0.17102739745E+01 -0.65763652956E+00 -0.38215179637E+00  0.18747234112E+01  0.10500000000E+00 0. -1.
         13    1    6    6    0    0 -0.56807176614E+00 -0.19537822315E+00 -0.10077637020E+00  0.61810926086E+00  0.10500000000E+00 0.  1.
</event>
<event>
11    0  0.3482687E-009  0.9118800E+02  0.7816531E-02  0.1126479E+00
         25   -1    0    0    0    0  0.00000000000E+00  0.00000000000E+00  0.99999998245E-14  0.12500000000E+03  0.12500000000E+03 0.  0.
    3000001    1    3    3    0    0  0.25836097054E+01  0.24328436518E+01 -0.27155310290E+00  0.36969593495E+01  0.10000000000E+01 0. -1.
    1000022    2    1    0    0    0  0.52925296289E+02  0.20705274998E+02  0.24009466513E+02  0.62499999841E+02  0.10000004891E+02 0.  0.
    3000022    2    3    3    0    0  0.50341686584E+02  0.18272431346E+02  0.24281019616E+02  0.58803040491E+02  0.25000405696E+00 0.  0.
    1000022    2    1    0    0    0 -0.52925296289E+02 -0.20705274998E+02 -0.24009466513E+02  0.62500000159E+02  0.10000006882E+02 0.  0.
    3000022    2    5    5    0    0 -0.25028149080E+02 -0.10053896619E+02 -0.16756134772E+02  0.31754049123E+02  0.24999922270E+00 0.  0.
        -13    1    4    4    0    0  0.24089904480E+02  0.86724662413E+01  0.11599222373E+02  0.28108506776E+02  0.10500000000E+00 0. -1.
         13    1    4    4    0    0  0.26251782104E+02  0.95999651046E+01  0.12681797244E+02  0.30694533715E+02  0.10500000000E+00 0.  1.
    3000001    1    5    5    0    0 -0.27897147209E+02 -0.10651378379E+02 -0.72533317410E+01  0.30745951036E+02  0.10000000000E+01 0. -1.
        -13    1    6    6    0    0 -0.14474363944E+02 -0.58761999997E+01 -0.96689546811E+01  0.18372170466E+02  0.10500000000E+00 0.  1.
         13    1    6    6    0    0 -0.10553785136E+02 -0.41776966191E+01 -0.70871800910E+01  0.13381878657E+02  0.10500000000E+00 0. -1.
</event>
<event>
11    0  0.3482687E-009  0.9118800E+02  0.7816531E-02  0.1126479E+00
         25   -1    0    0    0    0  0.00000000000E+00  0.00000000000E+00  0.99999998245E-14  0.12500000000E+03  0.12500000000E+03 0.  0.
    3000001    1    3    3    0    0 -0.65077581266E+01 -0.48871001541E+02 -0.32937447762E+02  0.59300937367E+02  0.10000000000E+01 0.  1.
    1000022    2    1    0    0    0 -0.62452858684E+01 -0.49709169104E+02 -0.36003401849E+02  0.62499999181E+02  0.99999932173E+01 0.  0.
    3000022    2    3    3    0    0  0.26247225829E+00 -0.83816756267E+00 -0.30659540869E+01  0.31990618144E+01  0.25001095915E+00 0.  0.
    1000022    2    1    0    0    0  0.62452858684E+01  0.49709169104E+02  0.36003401849E+02  0.62500000819E+02  0.10000003452E+02 0.  0.
    3000022    2    5    5    0    0  0.62183218724E+00  0.41811415100E+01  0.96376592954E-01  0.42356121180E+01  0.25000394241E+00 0.  0.
        -13    1    4    4    0    0  0.10994489772E+00 -0.38676642904E+00 -0.11808933125E+01  0.12518826489E+01  0.10500000000E+00 0. -1.
         13    1    4    4    0    0  0.15252736057E+00 -0.45140113363E+00 -0.18850607744E+01  0.19471791655E+01  0.10500000000E+00 0.  1.
    3000001    1    5    5    0    0  0.56234536811E+01  0.45528027594E+02  0.35907025256E+02  0.58264388701E+02  0.10000000000E+01 0.  1.
        -13    1    6    6    0    0  0.26924537540E+00  0.19824549875E+01  0.10820696552E+00  0.20063286364E+01  0.10500000000E+00 0.  1.
         13    1    6    6    0    0  0.35258681184E+00  0.21986865224E+01 -0.11830372566E-01  0.22292834817E+01  0.10500000000E+00 0. -1.
</event>
<event>
11    0  0.3482687E-009  0.9118800E+02  0.7816531E-02  0.1126479E+00
         25   -1    0    0    0    0  0.00000000000E+00  0.00000000000E+00  0.99999998245E-14  0.12500000000E+03  0.12500000000E+03 0.  0.
    3000001    1    3    3    0    0 -0.97852265262E+01 -0.55771768134E+01 -0.18102292580E+02  0.21343583486E+02  0.10000000000E+01 0. -1.
    1000022    2    1    0    0    0 -0.28420136684E+02 -0.28493755373E+02 -0.46761648139E+02  0.62499999965E+02  0.99999997256E+01 0.  0.
    3000022    2    3    3    0    0 -0.18634910158E+02 -0.22916578559E+02 -0.28659355559E+02  0.41156416479E+02  0.25001367285E+00 0.  0.
    1000022    2    1    0    0    0  0.28420136684E+02  0.28493755373E+02  0.46761648139E+02  0.62500000035E+02  0.10000000168E+02 0.  0.
    3000022    2    5    5    0    0  0.27334314928E+02  0.28561269292E+02  0.46437810935E+02  0.60987241777E+02  0.24999771318E+00 0.  0.
        -13    1    4    4    0    0 -0.13681922001E+02 -0.16874966470E+02 -0.21096491258E+02  0.30282543675E+02  0.10500000000E+00 0.  1.
         13    1    4    4    0    0 -0.49529881571E+01 -0.60416120890E+01 -0.75628643009E+01  0.10873872804E+02  0.10500000000E+00 0. -1.
    3000001    1    5    5    0    0  0.10858217561E+01 -0.67513919551E-01  0.32383720358E+00  0.15127582588E+01  0.10000000000E+01 0.  1.
        -13    1    6    6    0    0  0.65980673218E+01  0.68808120928E+01  0.11226279118E+02  0.14728219012E+02  0.10500000000E+00 0.  1.
         13    1    6    6    0    0  0.20736247606E+02  0.21680457199E+02  0.35211531818E+02  0.46259022765E+02  0.10500000000E+00 0. -1.
</event>
<event>
11    0  0.3482687E-009  0.9118800E+02  0.7816531E-02  0.1126479E+00
         25   -1    0    0    0    0  0.00000000000E+00  0.00000000000E+00  0.99999998245E-14  0.12500000000E+03  0.12500000000E+03 0.  0.
    3000001    1    3    3    0    0 -0.21975817510E+01  0.46945641466E+01  0.27282292097E+01  0.59423507722E+01  0.10000000000E+01 0.  1.
    1000022    2    1    0    0    0 -0.32442794665E+02  0.27038446028E+02  0.44973741743E+02  0.62500000961E+02  0.10000009223E+02 0.  0.
    3000022    2    3    3    0    0 -0.30245212914E+02  0.22343881881E+02  0.42245512534E+02  0.56557650189E+02  0.25000784114E+00 0.  0.
    1000022    2    1    0    0    0  0.32442794665E+02 -0.27038446028E+02 -0.44973741743E+02  0.62499999039E+02  0.99999972079E+01 0.  0.
    3000022    2    5    5    0    0  0.74809085365E+01 -0.37413689042E+01 -0.14409570174E+02  0.16663134559E+02  0.25001384754E+00 0.  0.
        -13    1    4    4    0    0 -0.13309226571E+02  0.97501385197E+01  0.18534593659E+02  0.24814167328E+02  0.10500000000E+00 0. -1.
         13    1    4    4    0    0 -0.16935986344E+02  0.12593743362E+02  0.23710918874E+02  0.31743482861E+02  0.10500000000E+00 0.  1.
    3000001    1    5    5    0    0  0.24961886129E+02 -0.23297077124E+02 -0.30564171569E+02  0.45836864480E+02  0.10000000000E+01 0. -1.
        -13    1    6    6    0    0  0.27555040759E+01 -0.14341437460E+01 -0.54171049123E+01  0.62454480726E+01  0.10500000000E+00 0. -1.
         13    1    6    6    0    0  0.47254044606E+01 -0.23072251583E+01 -0.89924652619E+01  0.10417686487E+02  0.10500000000E+00 0.  1.
</event>
<event>
11    0  0.3482687E-009  0.9118800E+02  0.7816531E-02  0.1126479E+00
         25   -1    0    0    0    0  0.00000000000E+00  0.00000000000E+00  0.99999998245E-14  0.12500000000E+03  0.12500000000E+03 0.  0.
    3000001    1    3    3    0    0 -0.32144695167E+02 -0.82876219455E+01  0.24222645978E+01  0.33299151201E+02  0.10000000000E+01 0. -1.
    1000022    2    1    0    0    0 -0.57576089585E+02 -0.17890780519E+02  0.13082961983E+02  0.62499997817E+02  0.99999856706E+01 0.  0.
    3000022    2    3    3    0    0 -0.25431394418E+02 -0.96031585737E+01  0.10660697385E+02  0.29200846617E+02  0.24999550985E+00 0.  0.
    1000022    2    1    0    0    0  0.57576089585E+02  0.17890780519E+02 -0.13082961983E+02  0.62500002183E+02  0.10000012956E+02 0.  0.
    3000022    2    5    5    0    0  0.44369425666E+02  0.94072015950E+01 -0.88491329824E+01  0.46211589392E+02  0.24992767053E+00 0.  0.
        -13    1    4    4    0    0 -0.14527381620E+02 -0.55424176367E+01  0.61386234526E+01  0.16716965421E+02  0.10500000000E+00 0. -1.
         13    1    4    4    0    0 -0.10904012797E+02 -0.40607409370E+01  0.45220739328E+01  0.12483881195E+02  0.10500000000E+00 0.  1.
    3000001    1    5    5    0    0  0.13206663919E+02  0.84835789242E+01 -0.42338290008E+01  0.16288412791E+02  0.10000000000E+01 0. -1.
        -13    1    6    6    0    0  0.20312406554E+02  0.42559987233E+01 -0.40949584863E+01  0.21153890781E+02  0.10500000000E+00 0. -1.
         13    1    6    6    0    0  0.24057019111E+02  0.51512028717E+01 -0.47541744960E+01  0.25057698611E+02  0.10500000000E+00 0.  1.
</event>
<event>
11    0  0.3482687E-009  0.9118800E+02  0.7816531E-02  0.1126479E+00
         25   -1    0    0    0    0  0.00000000000E+00  0.00000000000E+00  0.99999998245E-14  0.12500000000E+03  0.12500000000E+03 0.  0.
    3000001    1    3    3    0    0 -0.48212142160E+00  0.69735887624E-01 -0.11902751151E+01  0.16291282972E+01  0.10000000000E+01 0. -1.
    1000022    2    1    0    0    0 -0.81042341670E+01 -0.44038565680E+02 -0.42440265042E+02  0.62500000224E+02  0.10000002629E+02 0.  0.
    3000022    2    3    3    0    0 -0.76221127454E+01 -0.44108301568E+02 -0.41249989927E+02  0.60870871927E+02  0.25002055477E+00 0.  0.
    1000022    2    1    0    0    0  0.81042341670E+01  0.44038565680E+02  0.42440265042E+02  0.62499999776E+02  0.99999998261E+01 0.  0.
    3000022    2    5    5    0    0  0.58394559721E+01  0.17770628418E+02  0.23421770662E+02  0.29975595449E+02  0.25000239830E+00 0.  0.
        -13    1    4    4    0    0 -0.42156547591E+01 -0.24053704032E+02 -0.22459387542E+02  0.33178118338E+02  0.10500000000E+00 0.  1.
         13    1    4    4    0    0 -0.34064579863E+01 -0.20054597536E+02 -0.18790602385E+02  0.27692753589E+02  0.10500000000E+00 0. -1.
    3000001    1    5    5    0    0  0.22647781949E+01  0.26267937262E+02  0.19018494381E+02  0.32524404326E+02  0.10000000000E+01 0. -1.
        -13    1    6    6    0    0  0.28039419124E+01  0.87462464609E+01  0.11479863077E+02  0.14702285492E+02  0.10500000000E+00 0.  1.
         13    1    6    6    0    0  0.30355140597E+01  0.90243819569E+01  0.11941907584E+02  0.15273309958E+02  0.10500000000E+00 0. -1.
</event>
<event>
11    0  0.3482687E-009  0.9118800E+02  0.7816531E-02  0.1126479E+00
         25   -1    0    0    0    0  0.00000000000E+00  0.00000000000E+00  0.99999998245E-14  0.12500000000E+03  0.12500000000E+03 0.  0.
    3000001    1    3    3    0    0 -0.31166603361E+02  0.21320815114E+02  0.41018814093E+02  0.55762688527E+02  0.10000000000E+01 0. -1.
    1000022    2    1    0    0    0 -0.33352939047E+02  0.21177658975E+02  0.47385005258E+02  0.62500003710E+02  0.99999978845E+01 0.  0.
    3000022    2    3    3    0    0 -0.21863356867E+01 -0.14315613820E+00  0.63661911656E+01  0.67373151837E+01  0.24993701704E+00 0.  0.
    1000022    2    1    0    0    0  0.33352939047E+02 -0.21177658975E+02 -0.47385005258E+02  0.62499996290E+02  0.99999515064E+01 0.  0.
    3000022    2    5    5    0    0 -0.51922818504E-01 -0.12359373165E+01 -0.10978250684E+00  0.12668047579E+01  0.25001013229E+00 0.  0.
        -13    1    4    4    0    0 -0.10764464332E+01 -0.11181812810E+00  0.33069711185E+01  0.34811382041E+01  0.10500000000E+00 0.  1.
         13    1    4    4    0    0 -0.11098892535E+01 -0.31338010103E-01  0.30592200471E+01  0.32561769796E+01  0.10500000000E+00 0. -1.
    3000001    1    5    5    0    0  0.33404861866E+02 -0.19941721659E+02 -0.47275222751E+02  0.61233191532E+02  0.10000000000E+01 0. -1.
        -13    1    6    6    0    0 -0.88840564414E-02 -0.86455540366E+00 -0.37199038319E-01  0.87174752130E+00  0.10500000000E+00 0.  1.
         13    1    6    6    0    0 -0.43038762062E-01 -0.37138191288E+00 -0.72583468525E-01  0.39505723656E+00  0.10500000000E+00 0. -1.
</event>
<event>
11    0  0.3482687E-009  0.9118800E+02  0.7816531E-02  0.1126479E+00
         25   -1    0    0    0    0  0.00000000000E+00  0.00000000000E+00  0.99999998245E-14  0.12500000000E+03  0.12500000000E+03 0.  0.
    3000001    1    3    3    0    0  0.51881937147E+00  0.17903127057E+00 -0.10272029443E+01  0.15350477598E+01  0.10000000000E+01 0. -1.
    1000022    2    1    0    0    0  0.53845840323E+02 -0.21722329548E+02 -0.20857033251E+02  0.62500000310E+02  0.10000004085E+02 0.  0.
    3000022    2    3    3    0    0  0.53327020951E+02 -0.21901360818E+02 -0.19829830307E+02  0.60964952550E+02  0.25000048394E+00 0.  0.
    1000022    2    1    0    0    0 -0.53845840323E+02  0.21722329548E+02  0.20857033251E+02  0.62499999690E+02  0.10000000206E+02 0.  0.
    3000022    2    5    5    0    0 -0.13350123248E+02  0.58083766133E+01  0.99381619342E+01  0.17629310479E+02  0.24999143532E+00 0.  0.
        -13    1    4    4    0    0  0.26902473331E+02 -0.11047864775E+02 -0.99319394615E+01  0.30731951351E+02  0.10500000000E+00 0.  1.
         13    1    4    4    0    0  0.26424547621E+02 -0.10853496044E+02 -0.98978908453E+01  0.30233001199E+02  0.10500000000E+00 0. -1.
    3000001    1    5    5    0    0 -0.40495717075E+02  0.15913952935E+02  0.10918871317E+02  0.44870689211E+02  0.10000000000E+01 0. -1.
        -13    1    6    6    0    0 -0.87662825646E+01  0.38589668551E+01  0.65820021874E+01  0.11622095895E+02  0.10500000000E+00 0.  1.
         13    1    6    6    0    0 -0.45838406834E+01  0.19494097582E+01  0.33561597468E+01  0.60072145843E+01  0.10500000000E+00 0. -1.
</event>
<event>
11    0  0.3482687E-009  0.9118800E+02  0.7816531E-02  0.1126479E+00
         25   -1    0    0    0    0  0.00000000000E+00  0.00000000000E+00  0.99999998245E-14  0.12500000000E+03  0.12500000000E+03 0.  0.
    3000001    1    3    3    0    0  0.91629179064E+01 -0.11325513531E+02  0.96613206703E+00  0.14634197363E+02  0.10000000000E+01 0. -1.
    1000022    2    1    0    0    0  0.34255032517E+02 -0.46792678978E+02  0.21054412897E+02  0.62500005162E+02  0.10000014205E+02 0.  0.
    3000022    2    3    3    0    0  0.25092114610E+02 -0.35467165447E+02  0.20088280830E+02  0.47865807798E+02  0.24997801099E+00 0.  0.
    1000022    2    1    0    0    0 -0.34255032517E+02  0.46792678978E+02 -0.21054412897E+02  0.62499994838E+02  0.99999496861E+01 0.  0.
    3000022    2    5    5    0    0 -0.15333001604E+02  0.27790369885E+02 -0.84153096043E+01  0.32837258337E+02  0.25000562678E+00 0.  0.
        -13    1    4    4    0    0  0.10705989635E+02 -0.15224670081E+02  0.86478030293E+01  0.20523262786E+02  0.10500000000E+00 0. -1.
         13    1    4    4    0    0  0.14386124976E+02 -0.20242495366E+02  0.11440477801E+02  0.27342545013E+02  0.10500000000E+00 0.  1.
    3000001    1    5    5    0    0 -0.18922030912E+02  0.19002309093E+02 -0.12639103293E+02  0.29662736502E+02  0.10000000000E+01 0. -1.
        -13    1    6    6    0    0 -0.47459544731E+01  0.86926373123E+01 -0.26483116084E+01  0.10252346399E+02  0.10500000000E+00 0. -1.
         13    1    6    6    0    0 -0.10587047131E+02  0.19097732573E+02 -0.57669979960E+01  0.22584911938E+02  0.10500000000E+00 0.  1.
</event>
<event>
11    0  0.3482687E-009  0.9118800E+02  0.7816531E-02  0.1126479E+00
         25   -1    0    0    0    0  0.00000000000E+00  0.00000000000E+00  0.99999998245E-14  0.12500000000E+03  0.12500000000E+03 0.  0.
    3000001    1    3    3    0    0 -0.12940694012E+01 -0.15790837413E+01 -0.71343925053E+00  0.23826700655E+01  0.10000000000E+01 0.  1.
    1000022    2    1    0    0    0 -0.48428391006E+02 -0.55732964513E+01 -0.37813746239E+02  0.62499999403E+02  0.99999915929E+01 0.  0.
    3000022    2    3    3    0    0 -0.47134321605E+02 -0.39942127101E+01 -0.37100306989E+02  0.60117329337E+02  0.24999917490E+00 0.  0.
    1000022    2    1    0    0    0  0.48428391006E+02  0.55732964513E+01  0.37813746239E+02  0.62500000597E+02  0.99999990603E+01 0.  0.
    3000022    2    5    5    0    0  0.21197201437E+02  0.31400586383E+01  0.10586268411E+02  0.23902152464E+02  0.24999307529E+00 0.  0.
        -13    1    4    4    0    0 -0.27614036378E+02 -0.23868255079E+01 -0.21682194439E+02  0.35190346997E+02  0.10500000000E+00 0.  1.
         13    1    4    4    0    0 -0.19520285227E+02 -0.16073872022E+01 -0.15418112550E+02  0.24926982340E+02  0.10500000000E+00 0. -1.
    3000001    1    5    5    0    0  0.27231189570E+02  0.24332378130E+01  0.27227477828E+02  0.38597848133E+02  0.10000000000E+01 0.  1.
        -13    1    6    6    0    0  0.11532621506E+02  0.17116553136E+01  0.58343219836E+01  0.13037693842E+02  0.10500000000E+00 0. -1.
         13    1    6    6    0    0  0.96645799307E+01  0.14284033248E+01  0.47519464276E+01  0.10864458622E+02  0.10500000000E+00 0.  1.
</event>
<event>
11    0  0.3482687E-009  0.9118800E+02  0.7816531E-02  0.1126479E+00
         25   -1    0    0    0    0  0.00000000000E+00  0.00000000000E+00  0.99999998245E-14  0.12500000000E+03  0.12500000000E+03 0.  0.
    3000001    1    3    3    0    0  0.12021851792E+02 -0.40268086419E+02 -0.24896702728E+02  0.48855803249E+02  0.10000000000E+01 0. -1.
    1000022    2    1    0    0    0  0.10249332050E+02 -0.52290912530E+02 -0.31094398449E+02  0.62499999972E+02  0.10000002041E+02 0.  0.
    3000022    2    3    3    0    0 -0.17725197423E+01 -0.12022826112E+02 -0.61976957210E+01  0.13644196723E+02  0.24999603633E+00 0.  0.
    1000022    2    1    0    0    0 -0.10249332050E+02  0.52290912530E+02  0.31094398449E+02  0.62500000028E+02  0.10000002395E+02 0.  0.
    3000022    2    5    5    0    0 -0.29821767533E+01  0.30699516286E+02  0.22289186706E+02  0.38055538657E+02  0.25000019834E+00 0.  0.
        -13    1    4    4    0    0 -0.10510139735E+01 -0.68480677783E+01 -0.35904309750E+01  0.78040298727E+01  0.10500000000E+00 0. -1.
         13    1    4    4    0    0 -0.72150576875E+00 -0.51747583333E+01 -0.26072647460E+01  0.58401668502E+01  0.10500000000E+00 0. -1.
    3000001    1    5    5    0    0 -0.72671552967E+01  0.21591396244E+02  0.88052117436E+01  0.24444461371E+02  0.10000000000E+01 0. -1.
        -13    1    6    6    0    0 -0.73197883027E+00  0.77623278571E+01  0.56559173913E+01  0.96327541911E+01  0.10500000000E+00 0.  1.
         13    1    6    6    0    0 -0.22501979231E+01  0.22937188429E+02  0.16633269314E+02  0.28422784466E+02  0.10500000000E+00 0. -1.
</event>
<event>
11    0  0.3482687E-009  0.9118800E+02  0.7816531E-02  0.1126479E+00
         25   -1    0    0    0    0  0.00000000000E+00  0.00000000000E+00  0.99999998245E-14  0.12500000000E+03  0.12500000000E+03 0.  0.
    3000001    1    3    3    0    0  0.68121238661E+01 -0.12801863219E+02 -0.24364419830E+02  0.28371071307E+02  0.10000000000E+01 0. -1.
    1000022    2    1    0    0    0  0.20900711301E+02 -0.19172741413E+02 -0.54788834797E+02  0.62500001809E+02  0.10000003077E+02 0.  0.
    3000022    2    3    3    0    0  0.14088587435E+02 -0.63708781939E+01 -0.30424414968E+02  0.34128930503E+02  0.24997253243E+00 0.  0.
    1000022    2    1    0    0    0 -0.20900711301E+02  0.19172741413E+02  0.54788834797E+02  0.62499998191E+02  0.99999804600E+01 0.  0.
    3000022    2    5    5    0    0 -0.16332138198E+02  0.13612437363E+02  0.30736321414E+02  0.37374070518E+02  0.25000793636E+00 0.  0.
        -13    1    4    4    0    0  0.82942412025E+01 -0.37257196288E+01 -0.18022888120E+02  0.20186900334E+02  0.10500000000E+00 0.  1.
         13    1    4    4    0    0  0.57943462324E+01 -0.26451585651E+01 -0.12401526847E+02  0.13942030169E+02  0.10500000000E+00 0. -1.
    3000001    1    5    5    0    0 -0.45685731028E+01  0.55603040495E+01  0.24052513384E+02  0.25125927672E+02  0.10000000000E+01 0.  1.
        -13    1    6    6    0    0 -0.76565989890E+01  0.62943204680E+01  0.14318232803E+02  0.17414499528E+02  0.10500000000E+00 0. -1.
         13    1    6    6    0    0 -0.86755392092E+01  0.73181168954E+01  0.16418088611E+02  0.19959570990E+02  0.10500000000E+00 0.  1.
</event>
<event>
11    0  0.3482687E-009  0.9118800E+02  0.7816531E-02  0.1126479E+00
         25   -1    0    0    0    0  0.00000000000E+00  0.00000000000E+00  0.99999998245E-14  0.12500000000E+03  0.12500000000E+03 0.  0.
    3000001    1    3    3    0    0  0.19619985094E+02  0.43522573965E+02 -0.68751839163E+00  0.47755951892E+02  0.10000000000E+01 0.  1.
    1000022    2    1    0    0    0  0.25478892253E+02  0.55834392206E+02 -0.62925887798E+01  0.62500000864E+02  0.10000006549E+02 0.  0.
    3000022    2    3    3    0    0  0.58589071594E+01  0.12311818242E+02 -0.56050703882E+01  0.14744048972E+02  0.25000902712E+00 0.  0.
    1000022    2    1    0    0    0 -0.25478892253E+02 -0.55834392206E+02  0.62925887798E+01  0.62499999136E+02  0.99999957482E+01 0.  0.
    3000022    2    5    5    0    0 -0.13602507204E+02 -0.40476457203E+02  0.32741076879E+01  0.42827024844E+02  0.24997177784E+00 0.  0.
        -13    1    4    4    0    0  0.16014382898E+01  0.34511472844E+01 -0.15495663780E+01  0.41094042311E+01  0.10500000000E+00 0. -1.
         13    1    4    4    0    0  0.42574688696E+01  0.88606709571E+01 -0.40555040102E+01  0.10634644741E+02  0.10500000000E+00 0.  1.
    3000001    1    5    5    0    0 -0.11876385049E+02 -0.15357935003E+02  0.30184810919E+01  0.19672974292E+02  0.10000000000E+01 0.  1.
        -13    1    6    6    0    0 -0.43604736924E+01 -0.12818864906E+02  0.10430149408E+01  0.13580719181E+02  0.10500000000E+00 0.  1.
         13    1    6    6    0    0 -0.92420335119E+01 -0.27657592297E+02  0.22310927471E+01  0.29246305663E+02  0.10500000000E+00 0. -1.
</event>
<event>
11    0  0.3482687E-009  0.9118800E+02  0.7816531E-02  0.1126479E+00
         25   -1    0    0    0    0  0.00000000000E+00  0.00000000000E+00  0.99999998245E-14  0.12500000000E+03  0.12500000000E+03 0.  0.
    3000001    1    3    3    0    0 -0.35472751289E+02  0.14812326478E+02  0.22682218141E+00  0.38454811766E+02  0.10000000000E+01 0.  1.
    1000022    2    1    0    0    0 -0.59261323618E+02  0.16884917558E+02  0.30405366005E+01  0.62500004544E+02  0.10000039366E+02 0.  0.
    3000022    2    3    3    0    0 -0.23788572329E+02  0.20725910805E+01  0.28137144191E+01  0.24045192778E+02  0.24999930496E+00 0.  0.
    1000022    2    1    0    0    0  0.59261323618E+02 -0.16884917558E+02 -0.30405366005E+01  0.62499995456E+02  0.99999825622E+01 0.  0.
    3000022    2    5    5    0    0  0.41058518652E+02 -0.89155245751E+01  0.16871851082E+01  0.42049942015E+02  0.24999516878E+00 0.  0.
        -13    1    4    4    0    0 -0.14170087609E+02  0.12690566054E+01  0.16226406993E+01  0.14319423010E+02  0.10500000000E+00 0. -1.
         13    1    4    4    0    0 -0.96184847205E+01  0.80353447512E+00  0.11910737197E+01  0.97257697679E+01  0.10500000000E+00 0.  1.
    3000001    1    5    5    0    0  0.18202804966E+02 -0.79693929831E+01 -0.47277217087E+01  0.20450053441E+02  0.10000000000E+01 0. -1.
        -13    1    6    6    0    0  0.17016875320E+02 -0.36511264968E+01  0.65094638198E+00  0.17416645101E+02  0.10500000000E+00 0.  1.
         13    1    6    6    0    0  0.24041643331E+02 -0.52643980782E+01  0.10362387262E+01  0.24633296915E+02  0.10500000000E+00 0. -1.
</event>
<event>
11    0  0.3482687E-009  0.9118800E+02  0.7816531E-02  0.1126479E+00
         25   -1    0    0    0    0  0.00000000000E+00  0.00000000000E+00  0.99999998245E-14  0.12500000000E+03  0.12500000000E+03 0.  0.
    3000001    1    3    3    0    0  0.36266952082E+00  0.11161954855E+02  0.55324247083E+01  0.12503139147E+02  0.10000000000E+01 0.  1.
    1000022    2    1    0    0    0  0.18028136231E+01  0.61024709587E+02  0.88873315107E+01  0.62500001375E+02  0.10000009668E+02 0.  0.
    3000022    2    3    3    0    0  0.14401441023E+01  0.49862754732E+02  0.33549068024E+01  0.49996862228E+02  0.25001706442E+00 0.  0.
    1000022    2    1    0    0    0 -0.18028136231E+01 -0.61024709587E+02 -0.88873315107E+01  0.62499998625E+02  0.99999924803E+01 0.  0.
    3000022    2    5    5    0    0  0.30374476717E+01 -0.85656385590E+01 -0.17623782596E+00  0.90933940174E+01  0.25000540683E+00 0.  0.
        -13    1    4    4    0    0  0.10013021752E+01  0.32768090000E+02  0.21979343277E+01  0.32857149429E+02  0.10500000000E+00 0.  1.
         13    1    4    4    0    0  0.43884192709E+00  0.17094664732E+02  0.11569724748E+01  0.17139712799E+02  0.10500000000E+00 0. -1.
    3000001    1    5    5    0    0 -0.48402612948E+01 -0.52459071028E+02 -0.87110936847E+01  0.53406604608E+02  0.10000000000E+01 0. -1.
        -13    1    6    6    0    0  0.20208866767E+01 -0.58315546672E+01 -0.14481728248E+00  0.61743833572E+01  0.10500000000E+00 0. -1.
         13    1    6    6    0    0  0.10165609950E+01 -0.27340838918E+01 -0.31420543481E-01  0.29190106602E+01  0.10500000000E+00 0.  1.
</event>
<event>
11    0  0.3482687E-009  0.9118800E+02  0.7816531E-02  0.1126479E+00
         25   -1    0    0    0    0  0.00000000000E+00  0.00000000000E+00  0.99999998245E-14  0.12500000000E+03  0.12500000000E+03 0.  0.
    3000001    1    3    3    0    0 -0.12050884462E+00 -0.87129298251E+01  0.42082041010E+02  0.42986368120E+02  0.10000000000E+01 0.  1.
    1000022    2    1    0    0    0 -0.60758366882E+01 -0.95806839731E+01  0.60642765000E+02  0.62500002177E+02  0.10000001422E+02 0.  0.
    3000022    2    3    3    0    0 -0.59553278436E+01 -0.86775414792E+00  0.18560723989E+02  0.19513634057E+02  0.25002424745E+00 0.  0.
    1000022    2    1    0    0    0  0.60758366882E+01  0.95806839731E+01 -0.60642765000E+02  0.62499997823E+02  0.99999742122E+01 0.  0.
    3000022    2    5    5    0    0 -0.11996957479E+01  0.88885697525E+00 -0.10789822459E+01  0.18590426467E+01  0.25000053005E+00 0.  0.
        -13    1    4    4    0    0 -0.18236588327E+01 -0.21818699008E+00  0.56546403272E+01  0.59463702651E+01  0.10500000000E+00 0.  1.
         13    1    4    4    0    0 -0.41316690109E+01 -0.64956715783E+00  0.12906083662E+02  0.13567263792E+02  0.10500000000E+00 0. -1.
    3000001    1    5    5    0    0  0.72755324362E+01  0.86918269978E+01 -0.59563782754E+02  0.60640955177E+02  0.10000000000E+01 0.  1.
        -13    1    6    6    0    0 -0.87794927529E+00  0.68745334987E+00 -0.79256510584E+00  0.13720683238E+01  0.10500000000E+00 0.  1.
         13    1    6    6    0    0 -0.32174647265E+00  0.20140362538E+00 -0.28641714009E+00  0.48697432285E+00  0.10500000000E+00 0. -1.
</event>
<event>
11    0  0.3482687E-009  0.9118800E+02  0.7816531E-02  0.1126479E+00
         25   -1    0    0    0    0  0.00000000000E+00  0.00000000000E+00  0.99999998245E-14  0.12500000000E+03  0.12500000000E+03 0.  0.
    3000001    1    3    3    0    0 -0.18377643230E+02 -0.14420002274E+02  0.13266706463E+02  0.26882703298E+02  0.10000000000E+01 0. -1.
    1000022    2    1    0    0    0 -0.40167472476E+02 -0.40983660984E+02  0.22653107648E+02  0.62499998068E+02  0.10000007983E+02 0.  0.
    3000022    2    3    3    0    0 -0.21789829246E+02 -0.26563658710E+02  0.93864011853E+01  0.35617294770E+02  0.25007374694E+00 0.  0.
    1000022    2    1    0    0    0  0.40167472476E+02  0.40983660984E+02 -0.22653107648E+02  0.62500001932E+02  0.10000032133E+02 0.  0.
    3000022    2    5    5    0    0  0.16412860047E+02  0.10357323303E+02 -0.61303794584E+01  0.20354364931E+02  0.24999704818E+00 0.  0.
        -13    1    4    4    0    0 -0.58489405914E+01 -0.71432061885E+01  0.25582523382E+01  0.95807714052E+01  0.10500000000E+00 0. -1.
         13    1    4    4    0    0 -0.15940888655E+02 -0.19420452521E+02  0.68281488471E+01  0.26036523365E+02  0.10500000000E+00 0.  1.
    3000001    1    5    5    0    0  0.23754612429E+02  0.30626337681E+02 -0.16522728189E+02  0.42145637001E+02  0.10000000000E+01 0. -1.
        -13    1    6    6    0    0  0.54244615632E+01  0.34390778358E+01 -0.19751674667E+01  0.67204427780E+01  0.10500000000E+00 0. -1.
         13    1    6    6    0    0  0.10988398484E+02  0.69182454676E+01 -0.41552119917E+01  0.13633922153E+02  0.10500000000E+00 0.  1.
</event>
<event>
11    0  0.3482687E-009  0.9118800E+02  0.7816531E-02  0.1126479E+00
         25   -1    0    0    0    0  0.00000000000E+00  0.00000000000E+00  0.99999998245E-14  0.12500000000E+03  0.12500000000E+03 0.  0.
    3000001    1    3    3    0    0  0.17256526131E+02  0.19360349324E+02  0.41333917839E+02  0.48806798543E+02  0.10000000000E+01 0. -1.
    1000022    2    1    0    0    0  0.22799686629E+02  0.19665564308E+02  0.53848767603E+02  0.62499999366E+02  0.10000000922E+02 0.  0.
    3000022    2    3    3    0    0  0.55431604976E+01  0.30521498336E+00  0.12514849764E+02  0.13693200823E+02  0.24999934330E+00 0.  0.
    1000022    2    1    0    0    0 -0.22799686629E+02 -0.19665564308E+02 -0.53848767603E+02  0.62500000634E+02  0.10000008849E+02 0.  0.
    3000022    2    5    5    0    0 -0.68312783936E+01 -0.63406045127E+01 -0.85736810398E+01  0.12666497061E+02  0.25002226599E+00 0.  0.
        -13    1    4    4    0    0  0.25448541441E+01  0.20058932097E+00  0.58260465688E+01  0.63616320479E+01  0.10500000000E+00 0.  1.
         13    1    4    4    0    0  0.29983063535E+01  0.10462566240E+00  0.66888031955E+01  0.73315687753E+01  0.10500000000E+00 0. -1.
    3000001    1    5    5    0    0 -0.15968408235E+02 -0.13324959795E+02 -0.45275086563E+02  0.49833503574E+02  0.10000000000E+01 0.  1.
        -13    1    6    6    0    0 -0.49319677647E+01 -0.45350267652E+01 -0.61277142263E+01  0.90802357035E+01  0.10500000000E+00 0. -1.
         13    1    6    6    0    0 -0.18993106289E+01 -0.18055777476E+01 -0.24459668136E+01  0.35862613570E+01  0.10500000000E+00 0.  1.
</event>
<event>
11    0  0.3482687E-009  0.9118800E+02  0.7816531E-02  0.1126479E+00
         25   -1    0    0    0    0  0.00000000000E+00  0.00000000000E+00  0.99999998245E-14  0.12500000000E+03  0.12500000000E+03 0.  0.
    3000001    1    3    3    0    0 -0.13808819445E+02  0.11823236013E+01  0.83263603396E+01  0.16199063555E+02  0.10000000000E+01 0.  1.
    1000022    2    1    0    0    0 -0.50197030321E+02 -0.11618216546E+02  0.33934135883E+02  0.62499996588E+02  0.99999593277E+01 0.  0.
    3000022    2    3    3    0    0 -0.36388210877E+02 -0.12800540147E+02  0.25607775544E+02  0.46300933033E+02  0.25002511533E+00 0.  0.
    1000022    2    1    0    0    0  0.50197030321E+02  0.11618216546E+02 -0.33934135883E+02  0.62500003412E+02  0.10000001976E+02 0.  0.
    3000022    2    5    5    0    0  0.11656234446E+02  0.38309065765E+01 -0.34808169904E+01  0.12756262349E+02  0.24999110086E+00 0.  0.
        -13    1    4    4    0    0 -0.25627196209E+02 -0.89744293278E+01  0.18053418465E+02  0.32607215621E+02  0.10500000000E+00 0. -1.
         13    1    4    4    0    0 -0.10761014667E+02 -0.38261108196E+01  0.75543570790E+01  0.13693717412E+02  0.10500000000E+00 0.  1.
    3000001    1    5    5    0    0  0.38540795876E+02  0.77873099697E+01 -0.30453318893E+02  0.49743741063E+02  0.10000000000E+01 0. -1.
        -13    1    6    6    0    0  0.51193970227E+01  0.17042717762E+01 -0.14654914653E+01  0.55920889119E+01  0.10500000000E+00 0.  1.
         13    1    6    6    0    0  0.65368374231E+01  0.21266348003E+01 -0.20153255252E+01  0.71641734374E+01  0.10500000000E+00 0. -1.
</event>
<event>
11    0  0.3482687E-009  0.9118800E+02  0.7816531E-02  0.1126479E+00
         25   -1    0    0    0    0  0.00000000000E+00  0.00000000000E+00  0.99999998245E-14  0.12500000000E+03  0.12500000000E+03 0.  0.
    3000001    1    3    3    0    0 -0.12106693302E+02  0.47489159261E+02  0.27214633900E+02  0.56066287270E+02  0.10000000000E+01 0.  1.
    1000022    2    1    0    0    0 -0.16386721173E+02  0.51234096292E+02  0.30212465859E+02  0.62500002937E+02  0.10000001006E+02 0.  0.
    3000022    2    3    3    0    0 -0.42800278710E+01  0.37449370312E+01  0.29978319597E+01  0.64337156662E+01  0.25001774123E+00 0.  0.
    1000022    2    1    0    0    0  0.16386721173E+02 -0.51234096292E+02 -0.30212465859E+02  0.62499997063E+02  0.99999642975E+01 0.  0.
    3000022    2    5    5    0    0  0.71651548400E+01 -0.35864479120E+02 -0.22656093217E+02  0.43022800521E+02  0.24999669735E+00 0.  0.
        -13    1    4    4    0    0 -0.24359430931E+01  0.22081221573E+01  0.17660607630E+01  0.37335797612E+01  0.10500000000E+00 0.  1.
         13    1    4    4    0    0 -0.18440847779E+01  0.15368148739E+01  0.12317711967E+01  0.27001359050E+01  0.10500000000E+00 0. -1.
    3000001    1    5    5    0    0  0.92215663334E+01 -0.15369617172E+02 -0.75563726421E+01  0.19477196542E+02  0.10000000000E+01 0.  1.
        -13    1    6    6    0    0  0.41332839511E+01 -0.20990048802E+02 -0.13282631036E+02  0.25181451450E+02  0.10500000000E+00 0. -1.
         13    1    6    6    0    0  0.30318708889E+01 -0.14874430318E+02 -0.93734621815E+01  0.17841349070E+02  0.10500000000E+00 0.  1.
</event>
<event>
11    0  0.3482687E-009  0.9118800E+02  0.7816531E-02  0.1126479E+00
         25   -1    0    0    0    0  0.00000000000E+00  0.00000000000E+00  0.99999998245E-14  0.12500000000E+03  0.12500000000E+03 0.  0.
    3000001    1    3    3    0    0  0.13105317398E+02 -0.18813570014E+01  0.30878846250E+02  0.33612378583E+02  0.10000000000E+01 0. -1.
    1000022    2    1    0    0    0  0.32023265506E+02 -0.47704709342E+01  0.52516692625E+02  0.62499999335E+02  0.99999992996E+01 0.  0.
    3000022    2    3    3    0    0  0.18917948108E+02 -0.28891139328E+01  0.21637846375E+02  0.28887620752E+02  0.24999406195E+00 0.  0.
    1000022    2    1    0    0    0 -0.32023265506E+02  0.47704709342E+01 -0.52516692625E+02  0.62500000665E+02  0.10000007616E+02 0.  0.
    3000022    2    5    5    0    0 -0.23991639549E+02 -0.21288263075E+00 -0.33099881046E+02  0.40881642722E+02  0.24999829445E+00 0.  0.
        -13    1    4    4    0    0  0.11350292739E+02 -0.16774311625E+01  0.12926472334E+02  0.17284317532E+02  0.10500000000E+00 0. -1.
         13    1    4    4    0    0  0.75676553690E+01 -0.12116827703E+01  0.87113740412E+01  0.11603303220E+02  0.10500000000E+00 0.  1.
    3000001    1    5    5    0    0 -0.80316259570E+01  0.49833535649E+01 -0.19416811579E+02  0.21618357944E+02  0.10000000000E+01 0.  1.
        -13    1    6    6    0    0 -0.89621149474E+01 -0.13723346987E+00 -0.12337643471E+02  0.15250141271E+02  0.10500000000E+00 0. -1.
         13    1    6    6    0    0 -0.15029524601E+02 -0.75649160883E-01 -0.20762237575E+02  0.25631501451E+02  0.10500000000E+00 0.  1.
</event>
<event>
11    0  0.3482687E-009  0.9118800E+02  0.7816531E-02  0.1126479E+00
         25   -1    0    0    0    0  0.00000000000E+00  0.00000000000E+00  0.99999998245E-14  0.12500000000E+03  0.12500000000E+03 0.  0.
    3000001    1    3    3    0    0 -0.57461879293E-01 -0.17425063441E+02  0.19960372594E+02  0.26515139296E+02  0.10000000000E+01 0.  1.
    1000022    2    1    0    0    0 -0.89130197640E+01 -0.45296737036E+02  0.40926930986E+02  0.62499999523E+02  0.99999976515E+01 0.  0.
    3000022    2    3    3    0    0 -0.88555578847E+01 -0.27871673595E+02  0.20966558392E+02  0.35984860227E+02  0.25000065402E+00 0.  0.
    1000022    2    1    0    0    0  0.89130197640E+01  0.45296737036E+02 -0.40926930986E+02  0.62500000477E+02  0.10000003608E+02 0.  0.
    3000022    2    5    5    0    0  0.29905731362E+01  0.35610824461E+02 -0.29227177919E+02  0.46166706310E+02  0.24999199580E+00 0.  0.
        -13    1    4    4    0    0 -0.68109893840E+01 -0.21403045814E+02  0.16099189159E+02  0.27634667776E+02  0.10500000000E+00 0.  1.
         13    1    4    4    0    0 -0.20445685008E+01 -0.64686277812E+01  0.48673692331E+01  0.83501924515E+01  0.10500000000E+00 0. -1.
    3000001    1    5    5    0    0  0.59224466278E+01  0.96859125759E+01 -0.11699753067E+02  0.16333294166E+02  0.10000000000E+01 0.  1.
        -13    1    6    6    0    0  0.22758385795E+01  0.27146274081E+02 -0.22301145816E+02  0.35205848483E+02  0.10500000000E+00 0.  1.
         13    1    6    6    0    0  0.71473455668E+00  0.84645503800E+01 -0.69260321027E+01  0.10960857827E+02  0.10500000000E+00 0. -1.
</event>
<event>
11    0  0.3482687E-009  0.9118800E+02  0.7816531E-02  0.1126479E+00
         25   -1    0    0    0    0  0.00000000000E+00  0.00000000000E+00  0.99999998245E-14  0.12500000000E+03  0.12500000000E+03 0.  0.
    3000001    1    3    3    0    0  0.12744579015E+02 -0.56609335074E+01  0.13602847859E+02  0.19506612528E+02  0.10000000000E+01 0. -1.
    1000022    2    1    0    0    0  0.35088515587E+02 -0.31098620233E+02  0.40098916619E+02  0.62500002337E+02  0.99999535764E+01 0.  0.
    3000022    2    3    3    0    0  0.22343936573E+02 -0.25437686726E+02  0.26496068760E+02  0.42993389809E+02  0.24999998663E+00 0.  0.
    1000022    2    1    0    0    0 -0.35088515587E+02  0.31098620233E+02 -0.40098916619E+02  0.62499997663E+02  0.99999243694E+01 0.  0.
    3000022    2    5    5    0    0 -0.44845412218E+01  0.59598898032E+00 -0.55718915495E+01  0.71815629381E+01  0.25011589489E+00 0.  0.
        -13    1    4    4    0    0  0.12470535227E+02 -0.14187028179E+02  0.14865545952E+02  0.24037085906E+02  0.10500000000E+00 0.  1.
         13    1    4    4    0    0  0.98734013460E+01 -0.11250658547E+02  0.11630522808E+02  0.18956303903E+02  0.10500000000E+00 0. -1.
    3000001    1    5    5    0    0 -0.30603974365E+02  0.30502631253E+02 -0.34527025069E+02  0.55318434725E+02  0.10000000000E+01 0. -1.
        -13    1    6    6    0    0 -0.22115995354E+01  0.36132674609E+00 -0.27395770651E+01  0.35409090666E+01  0.10500000000E+00 0.  1.
         13    1    6    6    0    0 -0.22729416864E+01  0.23466223423E+00 -0.28323144843E+01  0.36406538715E+01  0.10500000000E+00 0. -1.
</event>
<event>
11    0  0.3482687E-009  0.9118800E+02  0.7816531E-02  0.1126479E+00
         25   -1    0    0    0    0  0.00000000000E+00  0.00000000000E+00  0.99999998245E-14  0.12500000000E+03  0.12500000000E+03 0.  0.
    3000001    1    3    3    0    0  0.16178925036E+02 -0.11835139104E+02  0.22295972995E+01  0.20194039641E+02  0.10000000000E+01 0. -1.
    1000022    2    1    0    0    0  0.39822770436E+02 -0.46112962629E+02  0.96949344031E+01  0.62500001174E+02  0.10000001306E+02 0.  0.
    3000022    2    3    3    0    0  0.23643845400E+02 -0.34277823526E+02  0.74653371036E+01  0.42305961533E+02  0.25002446744E+00 0.  0.
    1000022    2    1    0    0    0 -0.39822770436E+02  0.46112962629E+02 -0.96949344031E+01  0.62499998826E+02  0.99999866254E+01 0.  0.
    3000022    2    5    5    0    0 -0.17925467873E+02  0.21585741073E+02 -0.94377662122E+01  0.29604063024E+02  0.25000063119E+00 0.  0.
        -13    1    4    4    0    0  0.16957995451E+02 -0.24515772733E+02  0.53317596737E+01  0.30282592502E+02  0.10500000000E+00 0. -1.
         13    1    4    4    0    0  0.66858499488E+01 -0.97620507923E+01  0.21335774299E+01  0.12023369031E+02  0.10500000000E+00 0.  1.
    3000001    1    5    5    0    0 -0.21897302562E+02  0.24527221557E+02 -0.25716819095E+00  0.32895935802E+02  0.10000000000E+01 0.  1.
        -13    1    6    6    0    0 -0.13318783097E+02  0.16078095600E+02 -0.70063223372E+01  0.22022595646E+02  0.10500000000E+00 0. -1.
         13    1    6    6    0    0 -0.46066847757E+01  0.55076454727E+01 -0.24314438750E+01  0.75814673773E+01  0.10500000000E+00 0.  1.
</event>
<event>
11    0  0.3482687E-009  0.9118800E+02  0.7816531E-02  0.1126479E+00
         25   -1    0    0    0    0  0.00000000000E+00  0.00000000000E+00  0.99999998245E-14  0.12500000000E+03  0.12500000000E+03 0.  0.
    3000001    1    3    3    0    0 -0.10337397830E+01  0.16653331729E+02 -0.23827242486E+02  0.29105661994E+02  0.10000000000E+01 0.  1.
    1000022    2    1    0    0    0 -0.49445375648E+01  0.26490230335E+02 -0.55498371022E+02  0.62499999711E+02  0.10000001143E+02 0.  0.
    3000022    2    3    3    0    0 -0.39107977819E+01  0.98368986064E+01 -0.31671128536E+02  0.33394337718E+02  0.24999072724E+00 0.  0.
    1000022    2    1    0    0    0  0.49445375648E+01 -0.26490230335E+02  0.55498371022E+02  0.62500000289E+02  0.10000004754E+02 0.  0.
    3000022    2    5    5    0    0 -0.26975383887E+01 -0.95933596519E+01  0.15963225429E+02  0.18820104446E+02  0.25000500705E+00 0.  0.
        -13    1    4    4    0    0 -0.27823073586E+01  0.69310877249E+01 -0.22225915405E+02  0.23447463656E+02  0.10500000000E+00 0. -1.
         13    1    4    4    0    0 -0.11284904232E+01  0.29058108815E+01 -0.94452131307E+01  0.99468740617E+01  0.10500000000E+00 0.  1.
    3000001    1    5    5    0    0  0.76420759535E+01 -0.16896870683E+02  0.39535145593E+02  0.43679895843E+02  0.10000000000E+01 0.  1.
        -13    1    6    6    0    0 -0.66750561217E+00 -0.23348910558E+01  0.39296263517E+01  0.46206350482E+01  0.10500000000E+00 0. -1.
         13    1    6    6    0    0 -0.20300327765E+01 -0.72584685961E+01  0.12033599077E+02  0.14199469398E+02  0.10500000000E+00 0.  1.
</event>
<event>
11    0  0.3482687E-009  0.9118800E+02  0.7816531E-02  0.1126479E+00
         25   -1    0    0    0    0  0.00000000000E+00  0.00000000000E+00  0.99999998245E-14  0.12500000000E+03  0.12500000000E+03 0.  0.
    3000001    1    3    3    0    0  0.51268830547E+02 -0.65648904370E+01 -0.17304484622E+02  0.54516382494E+02  0.10000000000E+01 0. -1.
    1000022    2    1    0    0    0  0.59019691372E+02 -0.80166154043E+01 -0.16082898189E+02  0.62499998255E+02  0.10000003778E+02 0.  0.
    3000022    2    3    3    0    0  0.77508608248E+01 -0.14517249673E+01  0.12215864327E+01  0.79836157619E+01  0.24999663021E+00 0.  0.
    1000022    2    1    0    0    0 -0.59019691372E+02  0.80166154043E+01  0.16082898189E+02  0.62500001745E+02  0.10000025585E+02 0.  0.
    3000022    2    5    5    0    0 -0.39774779365E+02  0.10006242642E+02  0.11369717204E+02  0.42561613402E+02  0.25000143556E+00 0.  0.
        -13    1    4    4    0    0  0.52003774617E+01 -0.92711535473E+00  0.84431248071E+00  0.53504539238E+01  0.10500000000E+00 0.  1.
         13    1    4    4    0    0  0.25504833630E+01 -0.52460961261E+00  0.37727395200E+00  0.26331618381E+01  0.10500000000E+00 0. -1.
    3000001    1    5    5    0    0 -0.19244912007E+02 -0.19896272375E+01  0.47131809849E+01  0.19938388343E+02  0.10000000000E+01 0. -1.
        -13    1    6    6    0    0 -0.17146696941E+02  0.42991957573E+01  0.48339784476E+01  0.18326774752E+02  0.10500000000E+00 0.  1.
         13    1    6    6    0    0 -0.22628082424E+02  0.57070468845E+01  0.65357387568E+01  0.24234838650E+02  0.10500000000E+00 0. -1.
</event>
<event>
11    0  0.3482687E-009  0.9118800E+02  0.7816531E-02  0.1126479E+00
         25   -1    0    0    0    0  0.00000000000E+00  0.00000000000E+00  0.99999998245E-14  0.12500000000E+03  0.12500000000E+03 0.  0.
    3000001    1    3    3    0    0  0.11420854623E+02 -0.16169818096E+02 -0.18525949146E+02  0.27131342196E+02  0.10000000000E+01 0.  1.
    1000022    2    1    0    0    0  0.23116396448E+02 -0.45078006400E+02 -0.35211581533E+02  0.62499998933E+02  0.99999973392E+01 0.  0.
    3000022    2    3    3    0    0  0.11695541825E+02 -0.28908188305E+02 -0.16685632386E+02  0.35368656737E+02  0.25000321240E+00 0.  0.
    1000022    2    1    0    0    0 -0.23116396448E+02  0.45078006400E+02  0.35211581533E+02  0.62500001067E+02  0.10000010679E+02 0.  0.
    3000022    2    5    5    0    0 -0.11852701789E+02  0.26465446361E+02  0.25648349936E+02  0.38714425456E+02  0.24998628682E+00 0.  0.
        -13    1    4    4    0    0  0.68582673177E+01 -0.16814249748E+02 -0.96719863163E+01  0.20574575803E+02  0.10500000000E+00 0. -1.
         13    1    4    4    0    0  0.48372745073E+01 -0.12093938557E+02 -0.70136460700E+01  0.14794080934E+02  0.10500000000E+00 0.  1.
    3000001    1    5    5    0    0 -0.11263694659E+02  0.18612560039E+02  0.95632315966E+01  0.23785575611E+02  0.10000000000E+01 0.  1.
        -13    1    6    6    0    0 -0.72273307429E+01  0.16009204236E+02  0.15580687566E+02  0.23479731258E+02  0.10500000000E+00 0.  1.
         13    1    6    6    0    0 -0.46253710464E+01  0.10456242125E+02  0.10067662371E+02  0.15234694198E+02  0.10500000000E+00 0. -1.
</event>
<event>
11    0  0.3482687E-009  0.9118800E+02  0.7816531E-02  0.1126479E+00
         25   -1    0    0    0    0  0.00000000000E+00  0.00000000000E+00  0.99999998245E-14  0.12500000000E+03  0.12500000000E+03 0.  0.
    3000001    1    3    3    0    0 -0.39462483723E+02 -0.14636678771E+02  0.15893460037E+02  0.45001356190E+02  0.10000000000E+01 0.  1.
    1000022    2    1    0    0    0 -0.53775695540E+02 -0.24542806661E+02  0.17665651246E+02  0.62500000472E+02  0.10000001771E+02 0.  0.
    3000022    2    3    3    0    0 -0.14313211817E+02 -0.99061278902E+01  0.17721912092E+01  0.17498644281E+02  0.24997542278E+00 0.  0.
    1000022    2    1    0    0    0  0.53775695540E+02  0.24542806661E+02 -0.17665651246E+02  0.62499999528E+02  0.99999958749E+01 0.  0.
    3000022    2    5    5    0    0  0.19510445202E+02  0.78005958819E+01 -0.15017168228E+01  0.21067140847E+02  0.25000389334E+00 0.  0.
        -13    1    4    4    0    0 -0.98507080191E+01 -0.68606841409E+01  0.11887866154E+01  0.12063568045E+02  0.10500000000E+00 0.  1.
         13    1    4    4    0    0 -0.44625037976E+01 -0.30454437493E+01  0.58340459379E+00  0.54350762363E+01  0.10500000000E+00 0. -1.
    3000001    1    5    5    0    0  0.34265250338E+02  0.16742210779E+02 -0.16163934423E+02  0.41432858681E+02  0.10000000000E+01 0.  1.
        -13    1    6    6    0    0  0.99642580067E+01  0.40475267394E+01 -0.73540702524E+00  0.10780573214E+02  0.10500000000E+00 0. -1.
         13    1    6    6    0    0  0.95461871955E+01  0.37530691425E+01 -0.76630979755E+00  0.10286567633E+02  0.10500000000E+00 0.  1.
</event>
<event>
11    0  0.3482687E-009  0.9118800E+02  0.7816531E-02  0.1126479E+00
         25   -1    0    0    0    0  0.00000000000E+00  0.00000000000E+00  0.99999998245E-14  0.12500000000E+03  0.12500000000E+03 0.  0.
    3000001    1    3    3    0    0 -0.19977946550E+02 -0.22789086815E+02 -0.24657577258E+02  0.39082693644E+02  0.10000000000E+01 0. -1.
    1000022    2    1    0    0    0 -0.27494259014E+02 -0.41757369027E+02 -0.36147442309E+02  0.62499998744E+02  0.10000005534E+02 0.  0.
    3000022    2    3    3    0    0 -0.75163124646E+01 -0.18968282212E+02 -0.11489865051E+02  0.23417305100E+02  0.24999224763E+00 0.  0.
    1000022    2    1    0    0    0  0.27494259014E+02  0.41757369027E+02  0.36147442309E+02  0.62500001256E+02  0.10000021239E+02 0.  0.
    3000022    2    5    5    0    0  0.23644706782E+02  0.28318788003E+02  0.24620298912E+02  0.44353664237E+02  0.24999996676E+00 0.  0.
        -13    1    4    4    0    0 -0.19392776580E+01 -0.48179891687E+01 -0.29332761473E+01  0.59656476112E+01  0.10500000000E+00 0.  1.
         13    1    4    4    0    0 -0.55770348065E+01 -0.14150293043E+02 -0.85565889033E+01  0.17451657489E+02  0.10500000000E+00 0. -1.
    3000001    1    5    5    0    0  0.38495522325E+01  0.13438581024E+02  0.11527143396E+02  0.18146337019E+02  0.10000000000E+01 0. -1.
        -13    1    6    6    0    0  0.16192773090E+02  0.19353210692E+02  0.16891048117E+02  0.30365625235E+02  0.10500000000E+00 0. -1.
         13    1    6    6    0    0  0.74519336920E+01  0.89655773108E+01  0.77292507955E+01  0.13988039002E+02  0.10500000000E+00 0.  1.
</event>
<event>
11    0  0.3482687E-009  0.9118800E+02  0.7816531E-02  0.1126479E+00
         25   -1    0    0    0    0  0.00000000000E+00  0.00000000000E+00  0.99999998245E-14  0.12500000000E+03  0.12500000000E+03 0.  0.
    3000001    1    3    3    0    0  0.16998151900E+02 -0.63605243139E+01 -0.19760711846E+02  0.26849193102E+02  0.10000000000E+01 0. -1.
    1000022    2    1    0    0    0  0.46931234576E+02 -0.14511368157E+02 -0.37324647995E+02  0.62500000161E+02  0.10000004377E+02 0.  0.
    3000022    2    3    3    0    0  0.29933082676E+02 -0.81508438431E+01 -0.17563936149E+02  0.35650807059E+02  0.24999413629E+00 0.  0.
    1000022    2    1    0    0    0 -0.46931234576E+02  0.14511368157E+02  0.37324647995E+02  0.62499999839E+02  0.10000002365E+02 0.  0.
    3000022    2    5    5    0    0  0.27848924564E+00  0.64051394384E+00  0.13425339447E+01  0.15338522532E+01  0.24998193893E+00 0.  0.
        -13    1    4    4    0    0  0.10109625439E+02 -0.27900578864E+01 -0.58907716953E+01  0.12029179760E+02  0.10500000000E+00 0.  1.
         13    1    4    4    0    0  0.19823457236E+02 -0.53607859566E+01 -0.11673164454E+02  0.23621627299E+02  0.10500000000E+00 0. -1.
    3000001    1    5    5    0    0 -0.47209723822E+02  0.13870854213E+02  0.35982114050E+02  0.60966147586E+02  0.10000000000E+01 0. -1.
        -13    1    6    6    0    0  0.92716170189E-01  0.27902678904E+00  0.69840673706E+00  0.76501582179E+00  0.10500000000E+00 0.  1.
         13    1    6    6    0    0  0.18577307545E+00  0.36148715480E+00  0.64412720768E+00  0.76883643145E+00  0.10500000000E+00 0. -1.
</event>
<event>
11    0  0.3482687E-009  0.9118800E+02  0.7816531E-02  0.1126479E+00
         25   -1    0    0    0    0  0.00000000000E+00  0.00000000000E+00  0.99999998245E-14  0.12500000000E+03  0.12500000000E+03 0.  0.
    3000001    1    3    3    0    0 -0.15012072397E+02 -0.62274415720E+00 -0.27963205836E+02  0.31759896230E+02  0.10000000000E+01 0. -1.
    1000022    2    1    0    0    0 -0.26678803461E+02  0.80784060876E+01 -0.55038452042E+02  0.62500001723E+02  0.99999906611E+01 0.  0.
    3000022    2    3    3    0    0 -0.11666731064E+02  0.87011502448E+01 -0.27075246206E+02  0.30740105493E+02  0.24999861133E+00 0.  0.
    1000022    2    1    0    0    0  0.26678803461E+02 -0.80784060876E+01  0.55038452042E+02  0.62499998277E+02  0.99999691184E+01 0.  0.
    3000022    2    5    5    0    0  0.22304561760E+02 -0.45305215990E+01  0.49750158256E+02  0.54709778384E+02  0.25000623596E+00 0.  0.
        -13    1    4    4    0    0 -0.62129971495E+01  0.46801194310E+01 -0.14351620093E+02  0.16324364482E+02  0.10500000000E+00 0. -1.
         13    1    4    4    0    0 -0.54537339142E+01  0.40210308138E+01 -0.12723626114E+02  0.14415741011E+02  0.10500000000E+00 0.  1.
    3000001    1    5    5    0    0  0.43742417005E+01 -0.35478844885E+01  0.52882937864E+01  0.77902198923E+01  0.10000000000E+01 0. -1.
        -13    1    6    6    0    0  0.14590405362E+02 -0.30119631413E+01  0.32634502491E+02  0.35874414677E+02  0.10500000000E+00 0.  1.
         13    1    6    6    0    0  0.77141563979E+01 -0.15185584577E+01  0.17115655765E+02  0.18835363707E+02  0.10500000000E+00 0. -1.
</event>
<event>
11    0  0.3482687E-009  0.9118800E+02  0.7816531E-02  0.1126479E+00
         25   -1    0    0    0    0  0.00000000000E+00  0.00000000000E+00  0.99999998245E-14  0.12500000000E+03  0.12500000000E+03 0.  0.
    3000001    1    3    3    0    0 -0.42902265840E+01  0.36163255099E+01  0.18136852039E+02  0.19011292860E+02  0.10000000000E+01 0.  1.
    1000022    2    1    0    0    0 -0.28783314935E+01  0.21457958475E+02  0.57771281121E+02  0.62500002140E+02  0.10000028547E+02 0.  0.
    3000022    2    3    3    0    0  0.14118950905E+01  0.17841632966E+02  0.39634429082E+02  0.43488709279E+02  0.25010292967E+00 0.  0.
    1000022    2    1    0    0    0  0.28783314935E+01 -0.21457958475E+02 -0.57771281121E+02  0.62499997860E+02  0.10000001799E+02 0.  0.
    3000022    2    5    5    0    0 -0.19693521220E+01 -0.17121217859E+02 -0.43206075364E+02  0.46517114066E+02  0.25000789964E+00 0.  0.
        -13    1    4    4    0    0  0.56228683594E+00  0.78758330756E+01  0.17550035771E+02  0.19244731583E+02  0.10500000000E+00 0.  1.
         13    1    4    4    0    0  0.84960825455E+00  0.99657998899E+01  0.22084393311E+02  0.24243977697E+02  0.10500000000E+00 0. -1.
    3000001    1    5    5    0    0  0.48476836155E+01 -0.43367406167E+01 -0.14565205758E+02  0.15982883794E+02  0.10000000000E+01 0. -1.
        -13    1    6    6    0    0 -0.14297752638E+01 -0.12684620641E+02 -0.31968087225E+02  0.34422572303E+02  0.10500000000E+00 0.  1.
         13    1    6    6    0    0 -0.53957685816E+00 -0.44365972173E+01 -0.11237988139E+02  0.12094541763E+02  0.10500000000E+00 0. -1.
</event>
<event>
11    0  0.3482687E-009  0.9118800E+02  0.7816531E-02  0.1126479E+00
         25   -1    0    0    0    0  0.00000000000E+00  0.00000000000E+00  0.99999998245E-14  0.12500000000E+03  0.12500000000E+03 0.  0.
    3000001    1    3    3    0    0  0.64361449108E+01 -0.50584816828E+01 -0.12002214363E+01  0.83338304365E+01  0.10000000000E+01 0.  1.
    1000022    2    1    0    0    0  0.41541573724E+02 -0.32555969823E+02 -0.31947716664E+02  0.62500000032E+02  0.99999942633E+01 0.  0.
    3000022    2    3    3    0    0  0.35105428814E+02 -0.27497488141E+02 -0.30747495228E+02  0.54166169595E+02  0.24995920285E+00 0.  0.
    1000022    2    1    0    0    0 -0.41541573724E+02  0.32555969823E+02  0.31947716664E+02  0.62499999968E+02  0.99999938694E+01 0.  0.
    3000022    2    5    5    0    0 -0.32193509907E+02  0.25871308843E+02  0.19989056418E+02  0.45884328317E+02  0.25001445300E+00 0.  0.
        -13    1    4    4    0    0  0.17026182505E+02 -0.13324886940E+02 -0.14826253578E+02  0.26215879212E+02  0.10500000000E+00 0.  1.
         13    1    4    4    0    0  0.18079246308E+02 -0.14172601201E+02 -0.15921241649E+02  0.27950290383E+02  0.10500000000E+00 0. -1.
    3000001    1    5    5    0    0 -0.93480638170E+01  0.66846609807E+01  0.11958660246E+02  0.16615671652E+02  0.10000000000E+01 0.  1.
        -13    1    6    6    0    0 -0.10921493198E+02  0.88219892720E+01  0.67484929973E+01  0.15577538031E+02  0.10500000000E+00 0. -1.
         13    1    6    6    0    0 -0.21272016710E+02  0.17049319571E+02  0.13240563420E+02  0.30306790285E+02  0.10500000000E+00 0.  1.
</event>
<event>
11    0  0.3482687E-009  0.9118800E+02  0.7816531E-02  0.1126479E+00
         25   -1    0    0    0    0  0.00000000000E+00  0.00000000000E+00  0.99999998245E-14  0.12500000000E+03  0.12500000000E+03 0.  0.
    3000001    1    3    3    0    0  0.12544269989E+02  0.22148661669E+02 -0.18277209800E+02  0.31352485090E+02  0.10000000000E+01 0. -1.
    1000022    2    1    0    0    0  0.16141799053E+02  0.48209105844E+02 -0.34951029004E+02  0.62500000468E+02  0.10000003354E+02 0.  0.
    3000022    2    3    3    0    0  0.35975290642E+01  0.26060444175E+02 -0.16673819204E+02  0.31147515377E+02  0.25000272147E+00 0.  0.
    1000022    2    1    0    0    0 -0.16141799053E+02 -0.48209105844E+02  0.34951029004E+02  0.62499999532E+02  0.99999975107E+01 0.  0.
    3000022    2    5    5    0    0 -0.52963148785E+01 -0.30979177901E+02  0.21065386618E+02  0.37836139163E+02  0.24999725928E+00 0.  0.
        -13    1    4    4    0    0  0.25761062678E+01  0.18763210737E+02 -0.11959363800E+02  0.22399370709E+02  0.10500000000E+00 0. -1.
         13    1    4    4    0    0  0.10214227965E+01  0.72972334380E+01 -0.47144554042E+01  0.87481446682E+01  0.10500000000E+00 0.  1.
    3000001    1    5    5    0    0 -0.10845484174E+02 -0.17229927943E+02  0.13885642385E+02  0.24663860370E+02  0.10000000000E+01 0.  1.
        -13    1    6    6    0    0 -0.27190328596E+01 -0.15719879189E+02  0.10620287936E+02  0.19165314562E+02  0.10500000000E+00 0.  1.
         13    1    6    6    0    0 -0.25772820189E+01 -0.15259298712E+02  0.10445098682E+02  0.18670824601E+02  0.10500000000E+00 0. -1.
</event>
<event>
11    0  0.3482687E-009  0.9118800E+02  0.7816531E-02  0.1126479E+00
         25   -1    0    0    0    0  0.00000000000E+00  0.00000000000E+00  0.99999998245E-14  0.12500000000E+03  0.12500000000E+03 0.  0.
    3000001    1    3    3    0    0  0.27319202938E+02  0.16746288814E+02 -0.16312468461E+02  0.35970455453E+02  0.10000000000E+01 0.  1.
    1000022    2    1    0    0    0  0.42513014197E+02  0.35825185779E+02 -0.26747891257E+02  0.62500000082E+02  0.10000000569E+02 0.  0.
    3000022    2    3    3    0    0  0.15193811258E+02  0.19078896965E+02 -0.10435422795E+02  0.26529544629E+02  0.24995863708E+00 0.  0.
    1000022    2    1    0    0    0 -0.42513014197E+02 -0.35825185779E+02  0.26747891257E+02  0.62499999918E+02  0.99999995449E+01 0.  0.
    3000022    2    5    5    0    0 -0.76409905639E+01 -0.87096777233E+01  0.97967952255E+01  0.15175075554E+02  0.24999710366E+00 0.  0.
        -13    1    4    4    0    0  0.60726989112E+01  0.76820704365E+01 -0.42469010264E+01  0.10674224636E+02  0.10500000000E+00 0. -1.
         13    1    4    4    0    0  0.91211123472E+01  0.11396826528E+02 -0.61885217689E+01  0.15855319992E+02  0.10500000000E+00 0.  1.
    3000001    1    5    5    0    0 -0.34872023633E+02 -0.27115508055E+02  0.16951096031E+02  0.47324924364E+02  0.10000000000E+01 0. -1.
        -13    1    6    6    0    0 -0.22038330496E+01 -0.25334497312E+01  0.27871230550E+01  0.43651262954E+01  0.10500000000E+00 0. -1.
         13    1    6    6    0    0 -0.54371575143E+01 -0.61762279921E+01  0.70096721705E+01  0.10809949259E+02  0.10500000000E+00 0.  1.
</event>
<event>
11    0  0.3482687E-009  0.9118800E+02  0.7816531E-02  0.1126479E+00
         25   -1    0    0    0    0  0.00000000000E+00  0.00000000000E+00  0.99999998245E-14  0.12500000000E+03  0.12500000000E+03 0.  0.
    3000001    1    3    3    0    0  0.39228722873E+02 -0.32872947120E+02  0.23958130478E+02  0.56520043937E+02  0.10000000000E+01 0.  1.
    1000022    2    1    0    0    0  0.44965883531E+02 -0.33785907303E+02  0.25354134947E+02  0.62499997133E+02  0.99999634341E+01 0.  0.
    3000022    2    3    3    0    0  0.57371606579E+01 -0.91296018275E+00  0.13960044685E+01  0.59799531958E+01  0.25000607517E+00 0.  0.
    1000022    2    1    0    0    0 -0.44965883531E+02  0.33785907303E+02 -0.25354134947E+02  0.62500002867E+02  0.99999992746E+01 0.  0.
    3000022    2    5    5    0    0 -0.28758365439E+02  0.17829969478E+02 -0.10974296775E+02  0.35573151205E+02  0.25000532669E+00 0.  0.
        -13    1    4    4    0    0  0.37947776126E+01 -0.62956451756E+00  0.87442300781E+00  0.39461790643E+01  0.10500000000E+00 0. -1.
         13    1    4    4    0    0  0.19423830453E+01 -0.28339566519E+00  0.52158146069E+00  0.20337741315E+01  0.10500000000E+00 0.  1.
    3000001    1    5    5    0    0 -0.16207518092E+02  0.15955937825E+02 -0.14379838171E+02  0.26926851662E+02  0.10000000000E+01 0.  1.
        -13    1    6    6    0    0 -0.82248474371E+01  0.51301975333E+01 -0.31097475186E+01  0.10180795486E+02  0.10500000000E+00 0.  1.
         13    1    6    6    0    0 -0.20533518002E+02  0.12699771944E+02 -0.78645492566E+01  0.25392355719E+02  0.10500000000E+00 0. -1.
</event>
<event>
11    0  0.3482687E-009  0.9118800E+02  0.7816531E-02  0.1126479E+00
         25   -1    0    0    0    0  0.00000000000E+00  0.00000000000E+00  0.99999998245E-14  0.12500000000E+03  0.12500000000E+03 0.  0.
    3000001    1    3    3    0    0  0.39556370441E+01  0.10166454769E+02  0.57982690171E+01  0.12394506468E+02  0.10000000000E+01 0. -1.
    1000022    2    1    0    0    0  0.30598202078E+01  0.57681434649E+02  0.21673476951E+02  0.62500000505E+02  0.10000002853E+02 0.  0.
    3000022    2    3    3    0    0 -0.89581683621E+00  0.47514979880E+02  0.15875207934E+02  0.50105494037E+02  0.25000976748E+00 0.  0.
    1000022    2    1    0    0    0 -0.30598202078E+01 -0.57681434649E+02 -0.21673476951E+02  0.62499999495E+02  0.99999965400E+01 0.  0.
    3000022    2    5    5    0    0  0.62020316228E+00 -0.44208136781E+02 -0.19529095466E+02  0.48334170913E+02  0.24999706162E+00 0.  0.
        -13    1    4    4    0    0 -0.54914814710E+00  0.25729365057E+02  0.86176538313E+01  0.27139947908E+02  0.10500000000E+00 0. -1.
         13    1    4    4    0    0 -0.34666868911E+00  0.21785614824E+02  0.72575541029E+01  0.22965546129E+02  0.10500000000E+00 0.  1.
    3000001    1    5    5    0    0 -0.36800233701E+01 -0.13473297868E+02 -0.21443814851E+01  0.14165828582E+02  0.10000000000E+01 0.  1.
        -13    1    6    6    0    0  0.31481587856E+00 -0.19706085486E+02 -0.86461767351E+01  0.21521995989E+02  0.10500000000E+00 0. -1.
         13    1    6    6    0    0  0.30538728372E+00 -0.24502051296E+02 -0.10882918731E+02  0.26812174925E+02  0.10500000000E+00 0.  1.
</event>
<event>
11    0  0.3482687E-009  0.9118800E+02  0.7816531E-02  0.1126479E+00
         25   -1    0    0    0    0  0.00000000000E+00  0.00000000000E+00  0.99999998245E-14  0.12500000000E+03  0.12500000000E+03 0.  0.
    3000001    1    3    3    0    0 -0.52474813993E+01 -0.15871633382E+02  0.54927539236E+01  0.17624277373E+02  0.10000000000E+01 0. -1.
    1000022    2    1    0    0    0 -0.27660922055E+02 -0.54726792603E+02  0.67897582281E+01  0.62499999505E+02  0.10000034187E+02 0.  0.
    3000022    2    3    3    0    0 -0.22413440655E+02 -0.38855159221E+02  0.12970043045E+01  0.44875722132E+02  0.24999314841E+00 0.  0.
    1000022    2    1    0    0    0  0.27660922055E+02  0.54726792603E+02 -0.67897582281E+01  0.62500000495E+02  0.10000040380E+02 0.  0.
    3000022    2    5    5    0    0  0.23133957060E+02  0.35954346519E+02 -0.36478101614E+01  0.42909952469E+02  0.24999802290E+00 0.  0.
        -13    1    4    4    0    0 -0.11339617313E+02 -0.19791567550E+02  0.64778330038E+00  0.22819371488E+02  0.10500000000E+00 0.  1.
         13    1    4    4    0    0 -0.11073823342E+02 -0.19063591671E+02  0.64922100412E+00  0.22056350644E+02  0.10500000000E+00 0. -1.
    3000001    1    5    5    0    0  0.45269649943E+01  0.18772446084E+02 -0.31419480668E+01  0.19590048026E+02  0.10000000000E+01 0.  1.
        -13    1    6    6    0    0  0.16649440259E+02  0.25904682649E+02 -0.25907173030E+01  0.30902739122E+02  0.10500000000E+00 0.  1.
         13    1    6    6    0    0  0.64845168016E+01  0.10049663871E+02 -0.10570928583E+01  0.12007213347E+02  0.10500000000E+00 0. -1.
</event>
<event>
11    0  0.3482687E-009  0.9118800E+02  0.7816531E-02  0.1126479E+00
         25   -1    0    0    0    0  0.00000000000E+00  0.00000000000E+00  0.99999998245E-14  0.12500000000E+03  0.12500000000E+03 0.  0.
    3000001    1    3    3    0    0  0.40292319733E+00 -0.29563152565E+01  0.25261564698E+02  0.25456802588E+02  0.10000000000E+01 0. -1.
    1000022    2    1    0    0    0  0.72548560169E+01  0.28343254450E+01  0.61201174290E+02  0.62500000881E+02  0.10000001952E+02 0.  0.
    3000022    2    3    3    0    0  0.68519328196E+01  0.57906407015E+01  0.35939609592E+02  0.37043198293E+02  0.24999807315E+00 0.  0.
    1000022    2    1    0    0    0 -0.72548560169E+01 -0.28343254450E+01 -0.61201174290E+02  0.62499999119E+02  0.99999909399E+01 0.  0.
    3000022    2    5    5    0    0  0.21988583702E+00 -0.43543373291E+01 -0.13679341155E+02  0.14359508610E+02  0.25001944994E+00 0.  0.
        -13    1    4    4    0    0  0.31504026506E+01  0.26759030597E+01  0.16286612439E+02  0.16803281339E+02  0.10500000000E+00 0.  1.
         13    1    4    4    0    0  0.37015301690E+01  0.31147376418E+01  0.19652997154E+02  0.20239916954E+02  0.10500000000E+00 0. -1.
    3000001    1    5    5    0    0 -0.74747418539E+01  0.15200118841E+01 -0.47521833135E+02  0.48140490509E+02  0.10000000000E+01 0. -1.
        -13    1    6    6    0    0  0.87568196901E-01 -0.19525629507E+01 -0.63506144366E+01  0.66454118749E+01  0.10500000000E+00 0. -1.
         13    1    6    6    0    0  0.13231764012E+00 -0.24017743784E+01 -0.73287267187E+01  0.77140967352E+01  0.10500000000E+00 0.  1.
</event>
<event>
11    0  0.3482687E-009  0.9118800E+02  0.7816531E-02  0.1126479E+00
         25   -1    0    0    0    0  0.00000000000E+00  0.00000000000E+00  0.99999998245E-14  0.12500000000E+03  0.12500000000E+03 0.  0.
    3000001    1    3    3    0    0  0.10055613802E+02 -0.19902027464E+02 -0.26061165199E+02  0.34313122820E+02  0.10000000000E+01 0.  1.
    1000022    2    1    0    0    0  0.10032745283E+02 -0.39504913202E+02 -0.46313666938E+02  0.62499998794E+02  0.99999979451E+01 0.  0.
    3000022    2    3    3    0    0 -0.22868518224E-01 -0.19602885738E+02 -0.20252501739E+02  0.28186875974E+02  0.24999648290E+00 0.  0.
    1000022    2    1    0    0    0 -0.10032745283E+02  0.39504913202E+02  0.46313666938E+02  0.62500001206E+02  0.10000013023E+02 0.  0.
    3000022    2    5    5    0    0 -0.72006285769E+01  0.18793367172E+02  0.16244724877E+02  0.25864904636E+02  0.25000791414E+00 0.  0.
        -13    1    4    4    0    0 -0.25892646327E-01 -0.13611401340E+02 -0.14128331922E+02  0.19618657059E+02  0.10500000000E+00 0. -1.
         13    1    4    4    0    0  0.30241281031E-02 -0.59914843977E+01 -0.61241698170E+01  0.85682189153E+01  0.10500000000E+00 0.  1.
    3000001    1    5    5    0    0 -0.28321167065E+01  0.20711546031E+02  0.30068942061E+02  0.36635096570E+02  0.10000000000E+01 0.  1.
        -13    1    6    6    0    0 -0.44289855213E+01  0.11390312879E+02  0.98450663656E+01  0.15693676975E+02  0.10500000000E+00 0. -1.
         13    1    6    6    0    0 -0.27716430556E+01  0.74030542921E+01  0.63996585118E+01  0.10171227662E+02  0.10500000000E+00 0.  1.
</event>
<event>
11    0  0.3482687E-009  0.9118800E+02  0.7816531E-02  0.1126479E+00
         25   -1    0    0    0    0  0.00000000000E+00  0.00000000000E+00  0.99999998245E-14  0.12500000000E+03  0.12500000000E+03 0.  0.
    3000001    1    3    3    0    0  0.48336872123E+00  0.14601426513E+01  0.31406637299E+02  0.31460173685E+02  0.10000000000E+01 0. -1.
    1000022    2    1    0    0    0  0.68723485642E+01  0.10495206704E+02  0.60405891688E+02  0.62499997966E+02  0.99999728315E+01 0.  0.
    3000022    2    3    3    0    0  0.63889798430E+01  0.90350640527E+01  0.28999254389E+02  0.31039824281E+02  0.24998081701E+00 0.  0.
    1000022    2    1    0    0    0 -0.68723485642E+01 -0.10495206704E+02 -0.60405891688E+02  0.62500002034E+02  0.99999982571E+01 0.  0.
    3000022    2    5    5    0    0 -0.10101457219E+01  0.19614716784E+01 -0.73654581106E+01  0.76928688075E+01  0.24998357044E+00 0.  0.
        -13    1    4    4    0    0  0.25935398050E+01  0.36237359471E+01  0.11841942711E+02  0.12653084332E+02  0.10500000000E+00 0.  1.
         13    1    4    4    0    0  0.37954400381E+01  0.54113281056E+01  0.17157311678E+02  0.18386739949E+02  0.10500000000E+00 0. -1.
    3000001    1    5    5    0    0 -0.58622028424E+01 -0.12456678382E+02 -0.53040433577E+02  0.54807133227E+02  0.10000000000E+01 0. -1.
        -13    1    6    6    0    0 -0.29757418743E+00  0.52081356518E+00 -0.21134478975E+01  0.21994281489E+01  0.10500000000E+00 0. -1.
         13    1    6    6    0    0 -0.71257153443E+00  0.14406581132E+01 -0.52520102131E+01  0.54934406586E+01  0.10500000000E+00 0.  1.
</event>
<event>
11    0  0.3482687E-009  0.9118800E+02  0.7816531E-02  0.1126479E+00
         25   -1    0    0    0    0  0.00000000000E+00  0.00000000000E+00  0.99999998245E-14  0.12500000000E+03  0.12500000000E+03 0.  0.
    3000001    1    3    3    0    0  0.22990815087E+02 -0.42526099338E+01 -0.96137382740E+01  0.25299925558E+02  0.10000000000E+01 0.  1.
    1000022    2    1    0    0    0  0.58159095322E+02 -0.15854850389E+02 -0.13129862851E+02  0.62500000171E+02  0.10000003666E+02 0.  0.
    3000022    2    3    3    0    0  0.35168280235E+02 -0.11602240455E+02 -0.35161245773E+01  0.37200074613E+02  0.25000184641E+00 0.  0.
    1000022    2    1    0    0    0 -0.58159095322E+02  0.15854850389E+02  0.13129862851E+02  0.62499999829E+02  0.10000001529E+02 0.  0.
    3000022    2    5    5    0    0 -0.36905140617E+02  0.81203574268E+01  0.12668127008E+02  0.39855658991E+02  0.25000605610E+00 0.  0.
        -13    1    4    4    0    0  0.15929649849E+02 -0.53055428720E+01 -0.15471705064E+01  0.16861414266E+02  0.10500000000E+00 0. -1.
         13    1    4    4    0    0  0.19238630387E+02 -0.62966975830E+01 -0.19689540709E+01  0.20338660348E+02  0.10500000000E+00 0.  1.
    3000001    1    5    5    0    0 -0.21253954705E+02  0.77344929620E+01  0.46173584339E+00  0.22644340838E+02  0.10000000000E+01 0.  1.
        -13    1    6    6    0    0 -0.20678480609E+02  0.45296501892E+01  0.70300906109E+01  0.22305839822E+02  0.10500000000E+00 0. -1.
         13    1    6    6    0    0 -0.16226660008E+02  0.35907072376E+01  0.56380363970E+01  0.17549819170E+02  0.10500000000E+00 0.  1.
</event>
<event>
11    0  0.3482687E-009  0.9118800E+02  0.7816531E-02  0.1126479E+00
         25   -1    0    0    0    0  0.00000000000E+00  0.00000000000E+00  0.99999998245E-14  0.12500000000E+03  0.12500000000E+03 0.  0.
    3000001    1    3    3    0    0 -0.31048828621E+01 -0.67222485129E+01  0.69241064146E+01  0.10186862731E+02  0.10000000000E+01 0.  1.
    1000022    2    1    0    0    0 -0.93698455196E+01 -0.54304701613E+02  0.27739059661E+02  0.62500000480E+02  0.10000000338E+02 0.  0.
    3000022    2    3    3    0    0 -0.62649626575E+01 -0.47582453100E+02  0.20814953246E+02  0.52313137749E+02  0.25000471369E+00 0.  0.
    1000022    2    1    0    0    0  0.93698455196E+01  0.54304701613E+02 -0.27739059661E+02  0.62499999520E+02  0.99999943415E+01 0.  0.
    3000022    2    5    5    0    0  0.39061876771E+01  0.18257372093E+02 -0.43505618233E+01  0.19172371456E+02  0.25000234912E+00 0.  0.
        -13    1    4    4    0    0 -0.17238011650E+01 -0.13115102351E+02  0.56957255735E+01  0.14402420454E+02  0.10500000000E+00 0. -1.
         13    1    4    4    0    0 -0.45411614925E+01 -0.34467350749E+02  0.15119227673E+02  0.37910717295E+02  0.10500000000E+00 0.  1.
    3000001    1    5    5    0    0  0.54636578425E+01  0.36047329520E+02 -0.23388497838E+02  0.43327628064E+02  0.10000000000E+01 0. -1.
        -13    1    6    6    0    0  0.27203203682E+01  0.12745857265E+02 -0.29896109545E+01  0.13371829306E+02  0.10500000000E+00 0.  1.
         13    1    6    6    0    0  0.11858673089E+01  0.55115148275E+01 -0.13609508688E+01  0.58005421501E+01  0.10500000000E+00 0. -1.
</event>
<event>
11    0  0.3482687E-009  0.9118800E+02  0.7816531E-02  0.1126479E+00
         25   -1    0    0    0    0  0.00000000000E+00  0.00000000000E+00  0.99999998245E-14  0.12500000000E+03  0.12500000000E+03 0.  0.
    3000001    1    3    3    0    0 -0.26119829494E+02 -0.12233818695E+02 -0.33262841348E+02  0.44037806794E+02  0.10000000000E+01 0. -1.
    1000022    2    1    0    0    0 -0.33081456914E+02 -0.13407445512E+02 -0.50320051925E+02  0.62500000276E+02  0.10000001102E+02 0.  0.
    3000022    2    3    3    0    0 -0.69616274200E+01 -0.11736268177E+01 -0.17057210577E+02  0.18462193482E+02  0.24999854948E+00 0.  0.
    1000022    2    1    0    0    0  0.33081456914E+02  0.13407445512E+02  0.50320051925E+02  0.62499999724E+02  0.99999976562E+01 0.  0.
    3000022    2    5    5    0    0  0.68331347772E+01  0.59840413243E+01  0.18245027211E+02  0.20382443348E+02  0.24999489558E+00 0.  0.
        -13    1    4    4    0    0 -0.33413723127E+01 -0.49866683464E+00 -0.81025369068E+01  0.87792691535E+01  0.10500000000E+00 0. -1.
         13    1    4    4    0    0 -0.36202551073E+01 -0.67495998305E+00 -0.89546736698E+01  0.96829243286E+01  0.10500000000E+00 0.  1.
    3000001    1    5    5    0    0  0.26248322137E+02  0.74234041879E+01  0.32075024713E+02  0.42117556376E+02  0.10000000000E+01 0.  1.
        -13    1    6    6    0    0  0.24017007072E+01  0.21612047561E+01  0.64075200968E+01  0.71767897472E+01  0.10500000000E+00 0. -1.
         13    1    6    6    0    0  0.44314340700E+01  0.38228365682E+01  0.11837507115E+02  0.13205653601E+02  0.10500000000E+00 0.  1.
</event>
<event>
11    0  0.3482687E-009  0.9118800E+02  0.7816531E-02  0.1126479E+00
         25   -1    0    0    0    0  0.00000000000E+00  0.00000000000E+00  0.99999998245E-14  0.12500000000E+03  0.12500000000E+03 0.  0.
    3000001    1    3    3    0    0 -0.34006931240E+01  0.67604325324E+01  0.38063325693E+02  0.38821191694E+02  0.10000000000E+01 0. -1.
    1000022    2    1    0    0    0  0.19766789195E+01  0.88045347756E+01  0.61031327073E+02  0.62500002311E+02  0.10000015619E+02 0.  0.
    3000022    2    3    3    0    0  0.53773720435E+01  0.20441022431E+01  0.22968001380E+02  0.23678810617E+02  0.25000148537E+00 0.  0.
    1000022    2    1    0    0    0 -0.19766789195E+01 -0.88045347756E+01 -0.61031327073E+02  0.62499997689E+02  0.99999867295E+01 0.  0.
    3000022    2    5    5    0    0 -0.17781999648E+01 -0.57238322157E+01 -0.12548421429E+02  0.13908617158E+02  0.25000107990E+00 0.  0.
        -13    1    4    4    0    0  0.19493516556E+01  0.79517055513E+00  0.85331251660E+01  0.87896256000E+01  0.10500000000E+00 0.  1.
         13    1    4    4    0    0  0.34280203879E+01  0.12489316880E+01  0.14434876214E+02  0.14889185017E+02  0.10500000000E+00 0. -1.
    3000001    1    5    5    0    0 -0.19847895467E+00 -0.30807025599E+01 -0.48482905645E+02  0.48591380531E+02  0.10000000000E+01 0.  1.
        -13    1    6    6    0    0 -0.66998656729E+00 -0.20415708360E+01 -0.43926634769E+01  0.48911563970E+01  0.10500000000E+00 0. -1.
         13    1    6    6    0    0 -0.11082133975E+01 -0.36822613797E+01 -0.81557579518E+01  0.90174607607E+01  0.10500000000E+00 0.  1.
</event>
<event>
11    0  0.3482687E-009  0.9118800E+02  0.7816531E-02  0.1126479E+00
         25   -1    0    0    0    0  0.00000000000E+00  0.00000000000E+00  0.99999998245E-14  0.12500000000E+03  0.12500000000E+03 0.  0.
    3000001    1    3    3    0    0 -0.76394231737E+01  0.58270587692E+02  0.33072785109E+01  0.58870708060E+02  0.10000000000E+01 0. -1.
    1000022    2    1    0    0    0 -0.64406220768E+01  0.61331589335E+02  0.17898939826E+01  0.62500006944E+02  0.10000084226E+02 0.  0.
    3000022    2    3    3    0    0  0.11988010969E+01  0.30610016428E+01 -0.15173845283E+01  0.36292988841E+01  0.24999891135E+00 0.  0.
    1000022    2    1    0    0    0  0.64406220768E+01 -0.61331589335E+02 -0.17898939826E+01  0.62499993056E+02  0.99999974227E+01 0.  0.
    3000022    2    5    5    0    0 -0.72628994689E+00 -0.15292882821E+00  0.34969004539E+00  0.85771090197E+00  0.25000110011E+00 0.  0.
        -13    1    4    4    0    0  0.45665347994E+00  0.10624441740E+01 -0.48802567348E+00  0.12595690063E+01  0.10500000000E+00 0.  1.
         13    1    4    4    0    0  0.74214761696E+00  0.19985574689E+01 -0.10293588548E+01  0.23697298778E+01  0.10500000000E+00 0. -1.
    3000001    1    5    5    0    0  0.71669120237E+01 -0.61178660506E+02 -0.21395840280E+01  0.61642282154E+02  0.10000000000E+01 0.  1.
        -13    1    6    6    0    0 -0.56400332469E+00 -0.96968252055E-01  0.25303356541E+00  0.63447110052E+00  0.10500000000E+00 0. -1.
         13    1    6    6    0    0 -0.16228662220E+00 -0.55960576152E-01  0.96656479987E-01  0.22323980145E+00  0.10500000000E+00 0.  1.
</event>
<event>
11    0  0.3482687E-009  0.9118800E+02  0.7816531E-02  0.1126479E+00
         25   -1    0    0    0    0  0.00000000000E+00  0.00000000000E+00  0.99999998245E-14  0.12500000000E+03  0.12500000000E+03 0.  0.
    3000001    1    3    3    0    0 -0.69891885982E+01 -0.96008164095E+01 -0.84971271802E+01  0.14636447769E+02  0.10000000000E+01 0. -1.
    1000022    2    1    0    0    0 -0.37691876986E+02 -0.25981698217E+02 -0.41358481341E+02  0.62499998231E+02  0.99999783550E+01 0.  0.
    3000022    2    3    3    0    0 -0.30702688388E+02 -0.16380881807E+02 -0.32861354161E+02  0.47863550462E+02  0.25000499393E+00 0.  0.
    1000022    2    1    0    0    0  0.37691876986E+02  0.25981698217E+02  0.41358481341E+02  0.62500001769E+02  0.10000000464E+02 0.  0.
    3000022    2    5    5    0    0  0.21362404420E+02  0.17178217739E+02  0.30381425513E+02  0.40921107046E+02  0.24999670479E+00 0.  0.
        -13    1    4    4    0    0 -0.19118537149E+02 -0.10249276211E+02 -0.20542411818E+02  0.29875873776E+02  0.10500000000E+00 0.  1.
         13    1    4    4    0    0 -0.11584151239E+02 -0.61316055960E+01 -0.12318942343E+02  0.17987676686E+02  0.10500000000E+00 0. -1.
    3000001    1    5    5    0    0  0.16329472566E+02  0.88034804774E+01  0.10977055828E+02  0.21578894723E+02  0.10000000000E+01 0. -1.
        -13    1    6    6    0    0  0.12826723175E+02  0.10377768146E+02  0.18343851475E+02  0.24672470712E+02  0.10500000000E+00 0. -1.
         13    1    6    6    0    0  0.85356812450E+01  0.68004495930E+01  0.12037574039E+02  0.16248636334E+02  0.10500000000E+00 0.  1.
</event>
<event>
11    0  0.3482687E-009  0.9118800E+02  0.7816531E-02  0.1126479E+00
         25   -1    0    0    0    0  0.00000000000E+00  0.00000000000E+00  0.99999998245E-14  0.12500000000E+03  0.12500000000E+03 0.  0.
    3000001    1    3    3    0    0 -0.35971495566E+01  0.55670269585E+02  0.86724999693E+01  0.56465304890E+02  0.10000000000E+01 0.  1.
    1000022    2    1    0    0    0 -0.70293978717E+01  0.60522977438E+02  0.96853879970E+01  0.62500000214E+02  0.10000002683E+02 0.  0.
    3000022    2    3    3    0    0 -0.34322483152E+01  0.48527078537E+01  0.10128880277E+01  0.60346953244E+01  0.25000698258E+00 0.  0.
    1000022    2    1    0    0    0  0.70293978717E+01 -0.60522977438E+02 -0.96853879970E+01  0.62499999786E+02  0.10000000008E+02 0.  0.
    3000022    2    5    5    0    0  0.24894211079E+01 -0.24630045828E+02 -0.88708070310E+01  0.26298101068E+02  0.25005496444E+00 0.  0.
        -13    1    4    4    0    0 -0.16857000484E+01  0.23394894352E+01  0.42767111663E+00  0.29169715553E+01  0.10500000000E+00 0.  1.
         13    1    4    4    0    0 -0.17465482668E+01  0.25132184185E+01  0.58521691110E+00  0.31177237691E+01  0.10500000000E+00 0. -1.
    3000001    1    5    5    0    0  0.45399767638E+01 -0.35892931611E+02 -0.81458096609E+00  0.36201898718E+02  0.10000000000E+01 0. -1.
        -13    1    6    6    0    0  0.97217654234E+00 -0.91314665306E+01 -0.33269693687E+01  0.97677304636E+01  0.10500000000E+00 0.  1.
         13    1    6    6    0    0  0.15172445656E+01 -0.15498579297E+02 -0.55438376623E+01  0.16530370605E+02  0.10500000000E+00 0. -1.
</event>
<event>
11    0  0.3482687E-009  0.9118800E+02  0.7816531E-02  0.1126479E+00
         25   -1    0    0    0    0  0.00000000000E+00  0.00000000000E+00  0.99999998245E-14  0.12500000000E+03  0.12500000000E+03 0.  0.
    3000001    1    3    3    0    0  0.71939468476E+01  0.46221777876E+00 -0.16077251531E+01  0.74532742261E+01  0.10000000000E+01 0.  1.
    1000022    2    1    0    0    0  0.49944892360E+02 -0.39433453189E+01 -0.36002886916E+02  0.62499999650E+02  0.99999922382E+01 0.  0.
    3000022    2    3    3    0    0  0.42750945513E+02 -0.44055630976E+01 -0.34395161763E+02  0.55046725424E+02  0.24999750199E+00 0.  0.
    1000022    2    1    0    0    0 -0.49944892360E+02  0.39433453189E+01  0.36002886916E+02  0.62500000350E+02  0.99999966164E+01 0.  0.
    3000022    2    5    5    0    0 -0.16919582045E+01  0.15834988191E+01  0.37107365117E+01  0.43820383431E+01  0.25000701106E+00 0.  0.
        -13    1    4    4    0    0  0.15234807736E+02 -0.15134803539E+01 -0.12268331470E+02  0.19619199056E+02  0.10500000000E+00 0. -1.
         13    1    4    4    0    0  0.27516137776E+02 -0.28920827438E+01 -0.22126830293E+02  0.35427526368E+02  0.10500000000E+00 0.  1.
    3000001    1    5    5    0    0 -0.48252934156E+02  0.23598464998E+01  0.32292150404E+02  0.58117962007E+02  0.10000000000E+01 0. -1.
        -13    1    6    6    0    0 -0.87957260327E+00  0.73275310026E+00  0.18593925766E+01  0.21860788697E+01  0.10500000000E+00 0. -1.
         13    1    6    6    0    0 -0.81238560125E+00  0.85074571882E+00  0.18513439350E+01  0.21959594735E+01  0.10500000000E+00 0.  1.
</event>
<event>
11    0  0.3482687E-009  0.9118800E+02  0.7816531E-02  0.1126479E+00
         25   -1    0    0    0    0  0.00000000000E+00  0.00000000000E+00  0.99999998245E-14  0.12500000000E+03  0.12500000000E+03 0.  0.
    3000001    1    3    3    0    0 -0.11175697187E+01  0.10851562145E+02  0.27632719631E+01  0.11297833200E+02  0.10000000000E+01 0.  1.
    1000022    2    1    0    0    0 -0.25564874651E+02  0.55277277803E+02  0.98544279263E+01  0.62500000387E+02  0.10000002069E+02 0.  0.
    3000022    2    3    3    0    0 -0.24447304932E+02  0.44425715658E+02  0.70911559632E+01  0.51202167187E+02  0.25000321196E+00 0.  0.
    1000022    2    1    0    0    0  0.25564874651E+02 -0.55277277803E+02 -0.98544279263E+01  0.62499999613E+02  0.99999972314E+01 0.  0.
    3000022    2    5    5    0    0  0.17665921895E+02 -0.46698814982E+02 -0.92620653860E+01  0.50781024726E+02  0.24999981885E+00 0.  0.
        -13    1    4    4    0    0 -0.12431384773E+02  0.22660906208E+02  0.36736748561E+01  0.26106759843E+02  0.10500000000E+00 0.  1.
         13    1    4    4    0    0 -0.12015920159E+02  0.21764809450E+02  0.34174811071E+01  0.25095407345E+02  0.10500000000E+00 0. -1.
    3000001    1    5    5    0    0  0.78989527562E+01 -0.85784628210E+01 -0.59236254024E+00  0.11718974887E+02  0.10000000000E+01 0.  1.
        -13    1    6    6    0    0  0.62929273273E+01 -0.16492392519E+02 -0.33017936737E+01  0.17958641703E+02  0.10500000000E+00 0.  1.
         13    1    6    6    0    0  0.11372994567E+02 -0.30206422463E+02 -0.59602717123E+01  0.32822383024E+02  0.10500000000E+00 0. -1.
</event>
<event>
11    0  0.3482687E-009  0.9118800E+02  0.7816531E-02  0.1126479E+00
         25   -1    0    0    0    0  0.00000000000E+00  0.00000000000E+00  0.99999998245E-14  0.12500000000E+03  0.12500000000E+03 0.  0.
    3000001    1    3    3    0    0  0.19984957177E+02 -0.24981505069E+02 -0.18255282237E+02  0.36847380347E+02  0.10000000000E+01 0.  1.
    1000022    2    1    0    0    0  0.26867729550E+02 -0.42890612703E+02 -0.35281306334E+02  0.62499996160E+02  0.99999697073E+01 0.  0.
    3000022    2    3    3    0    0  0.68827723724E+01 -0.17909107633E+02 -0.17026024098E+02  0.25652615813E+02  0.25001940155E+00 0.  0.
    1000022    2    1    0    0    0 -0.26867729550E+02  0.42890612703E+02  0.35281306334E+02  0.62500003840E+02  0.10000017710E+02 0.  0.
    3000022    2    5    5    0    0 -0.11905544500E+00 -0.40823155082E+00  0.10387043175E+01  0.11498834416E+01  0.24999614372E+00 0.  0.
        -13    1    4    4    0    0  0.45233445044E+01 -0.11635217826E+02 -0.11038504144E+02  0.16664289307E+02  0.10500000000E+00 0. -1.
         13    1    4    4    0    0  0.23594278681E+01 -0.62738898071E+01 -0.59875199538E+01  0.89883265057E+01  0.10500000000E+00 0.  1.
    3000001    1    5    5    0    0 -0.26748674105E+02  0.43298844254E+02  0.34242602017E+02  0.61350120399E+02  0.10000000000E+01 0.  1.
        -13    1    6    6    0    0 -0.11669703947E+00 -0.31409100827E+00  0.70530816360E+00  0.78788068014E+00  0.10500000000E+00 0.  1.
         13    1    6    6    0    0 -0.23584055301E-02 -0.94140542553E-01  0.33339615393E+00  0.36200276143E+00  0.10500000000E+00 0.  1.
</event>
<event>
11    0  0.3482687E-009  0.9118800E+02  0.7816531E-02  0.1126479E+00
         25   -1    0    0    0    0  0.00000000000E+00  0.00000000000E+00  0.99999998245E-14  0.12500000000E+03  0.12500000000E+03 0.  0.
    3000001    1    3    3    0    0 -0.30855984287E+02 -0.15135208614E+02  0.35599035610E+02  0.49491995741E+02  0.10000000000E+01 0.  1.
    1000022    2    1    0    0    0 -0.34514556350E+02 -0.20861114351E+02  0.46688424739E+02  0.62500000271E+02  0.10000016865E+02 0.  0.
    3000022    2    3    3    0    0 -0.36585720632E+01 -0.57259057374E+01  0.11089389130E+02  0.13008004531E+02  0.24996908471E+00 0.  0.
    1000022    2    1    0    0    0  0.34514556350E+02  0.20861114351E+02 -0.46688424739E+02  0.62499999729E+02  0.10000013472E+02 0.  0.
    3000022    2    5    5    0    0  0.28350812861E+02  0.17745123123E+02 -0.32246133456E+02  0.46460021155E+02  0.24991663529E+00 0.  0.
        -13    1    4    4    0    0 -0.19715282452E+01 -0.30624904552E+01  0.60698907518E+01  0.70795741503E+01  0.10500000000E+00 0.  1.
         13    1    4    4    0    0 -0.16870438180E+01 -0.26634152822E+01  0.50194983778E+01  0.59284303803E+01  0.10500000000E+00 0. -1.
    3000001    1    5    5    0    0  0.61637434887E+01  0.31159912280E+01 -0.14442291283E+02  0.16039978574E+02  0.10000000000E+01 0.  1.
        -13    1    6    6    0    0  0.14357947348E+02  0.90184101117E+01 -0.16260431570E+02  0.23492446293E+02  0.10500000000E+00 0. -1.
         13    1    6    6    0    0  0.13992865513E+02  0.87267130117E+01 -0.15985701886E+02  0.22967574862E+02  0.10500000000E+00 0.  1.
</event>
<event>
11    0  0.3482687E-009  0.9118800E+02  0.7816531E-02  0.1126479E+00
         25   -1    0    0    0    0  0.00000000000E+00  0.00000000000E+00  0.99999998245E-14  0.12500000000E+03  0.12500000000E+03 0.  0.
    3000001    1    3    3    0    0 -0.23911827001E+02  0.79028992261E+00  0.27842890588E+02  0.36723651575E+02  0.10000000000E+01 0.  1.
    1000022    2    1    0    0    0 -0.35239572688E+02 -0.40939687148E+01  0.50474368531E+02  0.62499999286E+02  0.99999984536E+01 0.  0.
    3000022    2    3    3    0    0 -0.11327745687E+02 -0.48842586374E+01  0.22631477943E+02  0.25776347711E+02  0.25000531148E+00 0.  0.
    1000022    2    1    0    0    0  0.35239572688E+02  0.40939687148E+01 -0.50474368531E+02  0.62500000714E+02  0.10000007377E+02 0.  0.
    3000022    2    5    5    0    0  0.22663972524E+02  0.18446130148E+01 -0.39728685008E+02  0.45776513191E+02  0.24999942531E+00 0.  0.
        -13    1    4    4    0    0 -0.64249758078E+01 -0.27537747846E+01  0.12957360141E+02  0.14723036254E+02  0.10500000000E+00 0. -1.
         13    1    4    4    0    0 -0.49027698789E+01 -0.21304838529E+01  0.96741178016E+01  0.11053311457E+02  0.10500000000E+00 0.  1.
    3000001    1    5    5    0    0  0.12575600164E+02  0.22493557000E+01 -0.10745683523E+02  0.16723487523E+02  0.10000000000E+01 0. -1.
        -13    1    6    6    0    0  0.64429694706E+01  0.50970485032E+00 -0.11370465763E+02  0.13079379622E+02  0.10500000000E+00 0.  1.
         13    1    6    6    0    0  0.16221003053E+02  0.13349081645E+01 -0.28358219244E+02  0.32697133568E+02  0.10500000000E+00 0. -1.
</event>
<event>
11    0  0.3482687E-009  0.9118800E+02  0.7816531E-02  0.1126479E+00
         25   -1    0    0    0    0  0.00000000000E+00  0.00000000000E+00  0.99999998245E-14  0.12500000000E+03  0.12500000000E+03 0.  0.
    3000001    1    3    3    0    0 -0.29692906573E+02 -0.84575780076E+01 -0.21980714745E+02  0.37912414157E+02  0.10000000000E+01 0.  1.
    1000022    2    1    0    0    0 -0.49972047137E+02 -0.19422418821E+02 -0.30525629321E+02  0.62499999195E+02  0.10000000296E+02 0.  0.
    3000022    2    3    3    0    0 -0.20279140564E+02 -0.10964840814E+02 -0.85449145769E+01  0.24587585038E+02  0.24999357761E+00 0.  0.
    1000022    2    1    0    0    0  0.49972047137E+02  0.19422418821E+02  0.30525629321E+02  0.62500000805E+02  0.10000010363E+02 0.  0.
    3000022    2    5    5    0    0  0.13937677952E+02  0.38941067048E+01  0.13224970235E+02  0.19605746591E+02  0.25005592411E+00 0.  0.
        -13    1    4    4    0    0 -0.10181333525E+02 -0.55466474374E+01 -0.43582541215E+01  0.12386696659E+02  0.10500000000E+00 0.  1.
         13    1    4    4    0    0 -0.10097807039E+02 -0.54181933761E+01 -0.41866604554E+01  0.12200888379E+02  0.10500000000E+00 0. -1.
    3000001    1    5    5    0    0  0.36034369185E+02  0.15528312116E+02  0.17300659087E+02  0.42894254214E+02  0.10000000000E+01 0.  1.
        -13    1    6    6    0    0  0.69082317166E+01  0.19359420798E+01  0.66480421911E+01  0.97815656805E+01  0.10500000000E+00 0. -1.
         13    1    6    6    0    0  0.70294462353E+01  0.19581646250E+01  0.65769280437E+01  0.98241809106E+01  0.10500000000E+00 0.  1.
</event>
<event>
11    0  0.3482687E-009  0.9118800E+02  0.7816531E-02  0.1126479E+00
         25   -1    0    0    0    0  0.00000000000E+00  0.00000000000E+00  0.99999998245E-14  0.12500000000E+03  0.12500000000E+03 0.  0.
    3000001    1    3    3    0    0  0.51633033612E+01  0.85970895232E+01 -0.29204691491E+02  0.30894718885E+02  0.10000000000E+01 0. -1.
    1000022    2    1    0    0    0  0.18141666080E+01  0.22208689847E+02 -0.57530279902E+02  0.62500000704E+02  0.99999938590E+01 0.  0.
    3000022    2    3    3    0    0 -0.33491367532E+01  0.13611600323E+02 -0.28325588410E+02  0.31605281819E+02  0.24999937013E+00 0.  0.
    1000022    2    1    0    0    0 -0.18141666080E+01 -0.22208689847E+02  0.57530279902E+02  0.62499999296E+02  0.99999850649E+01 0.  0.
    3000022    2    5    5    0    0 -0.56204292137E+01 -0.16921317132E+02  0.42167010534E+02  0.45782523682E+02  0.24999862294E+00 0.  0.
        -13    1    4    4    0    0 -0.25033800730E+01  0.10196234657E+02 -0.21272991427E+02  0.23723012082E+02  0.10500000000E+00 0.  1.
         13    1    4    4    0    0 -0.84575668015E+00  0.34153656662E+01 -0.70525969836E+01  0.78822697371E+01  0.10500000000E+00 0. -1.
    3000001    1    5    5    0    0  0.38062626057E+01 -0.52873727149E+01  0.15363269368E+02  0.16717475614E+02  0.10000000000E+01 0. -1.
        -13    1    6    6    0    0 -0.27358625955E+01 -0.84315498920E+01  0.20888757749E+02  0.22692007470E+02  0.10500000000E+00 0. -1.
         13    1    6    6    0    0 -0.28845666182E+01 -0.84897672398E+01  0.21278252785E+02  0.23090516212E+02  0.10500000000E+00 0.  1.
</event>
<event>
11    0  0.3482687E-009  0.9118800E+02  0.7816531E-02  0.1126479E+00
         25   -1    0    0    0    0  0.00000000000E+00  0.00000000000E+00  0.99999998245E-14  0.12500000000E+03  0.12500000000E+03 0.  0.
    3000001    1    3    3    0    0  0.43787094755E+02 -0.12048609911E+02  0.16957374275E+02  0.48487433528E+02  0.10000000000E+01 0. -1.
    1000022    2    1    0    0    0  0.54389469958E+02 -0.12979576648E+02  0.26068490616E+02  0.62499999288E+02  0.99999927837E+01 0.  0.
    3000022    2    3    3    0    0  0.10602375203E+02 -0.93096673747E+00  0.91111163410E+01  0.14012565760E+02  0.24999833748E+00 0.  0.
    1000022    2    1    0    0    0 -0.54389469958E+02  0.12979576648E+02 -0.26068490616E+02  0.62500000712E+02  0.10000001684E+02 0.  0.
    3000022    2    5    5    0    0 -0.33824973680E+02  0.98745516856E+01 -0.21176790019E+02  0.41111489265E+02  0.24999719542E+00 0.  0.
        -13    1    4    4    0    0  0.62001571301E+01 -0.51748921059E+00  0.52485197236E+01  0.81404992359E+01  0.10500000000E+00 0. -1.
         13    1    4    4    0    0  0.44022180734E+01 -0.41347752688E+00  0.38625966173E+01  0.58720665237E+01  0.10500000000E+00 0.  1.
    3000001    1    5    5    0    0 -0.20564496278E+02  0.31050249626E+01 -0.48917005968E+01  0.21388511447E+02  0.10000000000E+01 0.  1.
        -13    1    6    6    0    0 -0.25429192273E+02  0.74485771625E+01 -0.15933031564E+02  0.30919211523E+02  0.10500000000E+00 0. -1.
         13    1    6    6    0    0 -0.83957814077E+01  0.24259745231E+01 -0.52437584554E+01  0.10192277742E+02  0.10500000000E+00 0.  1.
</event>
<event>
11    0  0.3482687E-009  0.9118800E+02  0.7816531E-02  0.1126479E+00
         25   -1    0    0    0    0  0.00000000000E+00  0.00000000000E+00  0.99999998245E-14  0.12500000000E+03  0.12500000000E+03 0.  0.
    3000001    1    3    3    0    0  0.44815215280E+02  0.88778785579E+01 -0.59563132709E+01  0.46083597039E+02  0.10000000000E+01 0.  1.
    1000022    2    1    0    0    0  0.60899334945E+02  0.94884123763E+01 -0.27369784503E+01  0.62499999514E+02  0.99999960981E+01 0.  0.
    3000022    2    3    3    0    0  0.16084119665E+02  0.61053381834E+00  0.32193348206E+01  0.16416402475E+02  0.24999313318E+00 0.  0.
    1000022    2    1    0    0    0 -0.60899334945E+02 -0.94884123763E+01  0.27369784503E+01  0.62500000486E+02  0.10000002177E+02 0.  0.
    3000022    2    5    5    0    0 -0.49004777291E+02 -0.38847341831E+01  0.75114430905E+00  0.49164887127E+02  0.25010269700E+00 0.  0.
        -13    1    4    4    0    0  0.66802001772E+01  0.23807979456E+00  0.12732536367E+01  0.68054357847E+01  0.10500000000E+00 0.  1.
         13    1    4    4    0    0  0.94039194882E+01  0.37245402378E+00  0.19460811839E+01  0.96109666900E+01  0.10500000000E+00 0. -1.
    3000001    1    5    5    0    0 -0.11894557654E+02 -0.56036781932E+01  0.19858341413E+01  0.13335113360E+02  0.10000000000E+01 0. -1.
        -13    1    6    6    0    0 -0.12850517553E+02 -0.10256308442E+01  0.22906911150E+00  0.12893844177E+02  0.10500000000E+00 0. -1.
         13    1    6    6    0    0 -0.36154259738E+02 -0.28591033389E+01  0.52207519755E+00  0.36271042950E+02  0.10500000000E+00 0.  1.
</event>
<event>
11    0  0.3482687E-009  0.9118800E+02  0.7816531E-02  0.1126479E+00
         25   -1    0    0    0    0  0.00000000000E+00  0.00000000000E+00  0.99999998245E-14  0.12500000000E+03  0.12500000000E+03 0.  0.
    3000001    1    3    3    0    0  0.64171815249E+01  0.34945897206E+01 -0.79351179734E+00  0.74176840733E+01  0.10000000000E+01 0. -1.
    1000022    2    1    0    0    0  0.61057211489E+02  0.43523165604E+01 -0.77022315732E+01  0.62499999523E+02  0.99999917445E+01 0.  0.
    3000022    2    3    3    0    0  0.54640029964E+02  0.85772683979E+00 -0.69087197759E+01  0.55082315449E+02  0.24999305477E+00 0.  0.
    1000022    2    1    0    0    0 -0.61057211489E+02 -0.43523165604E+01  0.77022315732E+01  0.62500000477E+02  0.99999977124E+01 0.  0.
    3000022    2    5    5    0    0 -0.48305834074E+02 -0.73789182592E+01  0.65926469234E+01  0.49309506859E+02  0.24986578544E+00 0.  0.
        -13    1    4    4    0    0  0.36009478762E+02  0.55159634097E+00 -0.44993731365E+01  0.36293831471E+02  0.10500000000E+00 0. -1.
         13    1    4    4    0    0  0.18630551202E+02  0.30613049883E+00 -0.24093466394E+01  0.18788483979E+02  0.10500000000E+00 0.  1.
    3000001    1    5    5    0    0 -0.12751377415E+02  0.30266016988E+01  0.11095846499E+01  0.13190493619E+02  0.10000000000E+01 0. -1.
        -13    1    6    6    0    0 -0.19699285917E+02 -0.30690753077E+01  0.26661771378E+01  0.20114686536E+02  0.10500000000E+00 0. -1.
         13    1    6    6    0    0 -0.28606548157E+02 -0.43098429515E+01  0.39264697855E+01  0.29194820323E+02  0.10500000000E+00 0.  1.
</event>
<event>
11    0  0.3482687E-009  0.9118800E+02  0.7816531E-02  0.1126479E+00
         25   -1    0    0    0    0  0.00000000000E+00  0.00000000000E+00  0.99999998245E-14  0.12500000000E+03  0.12500000000E+03 0.  0.
    3000001    1    3    3    0    0  0.45769411502E+01 -0.28789136236E+01  0.22933118645E+02  0.23583139417E+02  0.10000000000E+01 0.  1.
    1000022    2    1    0    0    0  0.10601884098E+02  0.49443201183E+01  0.60575603347E+02  0.62500000539E+02  0.10000004938E+02 0.  0.
    3000022    2    3    3    0    0  0.60249429474E+01  0.78232337420E+01  0.37642484701E+02  0.38916861123E+02  0.25000291308E+00 0.  0.
    1000022    2    1    0    0    0 -0.10601884098E+02 -0.49443201183E+01 -0.60575603347E+02  0.62499999461E+02  0.99999981968E+01 0.  0.
    3000022    2    5    5    0    0 -0.11038010387E+01 -0.39375802873E+01 -0.33932608877E+02  0.34179048537E+02  0.24999697503E+00 0.  0.
        -13    1    4    4    0    0  0.37330885524E+01  0.48705661755E+01  0.23623118393E+02  0.24407398727E+02  0.10500000000E+00 0.  1.
         13    1    4    4    0    0  0.22918543950E+01  0.29526675665E+01  0.14019366308E+02  0.14509462396E+02  0.10500000000E+00 0. -1.
    3000001    1    5    5    0    0 -0.94980830589E+01 -0.10067398310E+01 -0.26642994470E+02  0.28320950923E+02  0.10000000000E+01 0.  1.
        -13    1    6    6    0    0 -0.34426764087E+00 -0.14171273614E+01 -0.12334420129E+02  0.12420777556E+02  0.10500000000E+00 0.  1.
         13    1    6    6    0    0 -0.75953339778E+00 -0.25204529260E+01 -0.21598188748E+02  0.21758270982E+02  0.10500000000E+00 0. -1.
</event>
<event>
11    0  0.3482687E-009  0.9118800E+02  0.7816531E-02  0.1126479E+00
         25   -1    0    0    0    0  0.00000000000E+00  0.00000000000E+00  0.99999998245E-14  0.12500000000E+03  0.12500000000E+03 0.  0.
    3000001    1    3    3    0    0 -0.10027705842E+02 -0.94662910438E+01 -0.36299345449E+01  0.14294823377E+02  0.10000000000E+01 0.  1.
    1000022    2    1    0    0    0 -0.46991092598E+02 -0.28534373709E+02 -0.27997799588E+02  0.62500000324E+02  0.99999996086E+01 0.  0.
    3000022    2    3    3    0    0 -0.36963386755E+02 -0.19068082665E+02 -0.24367865043E+02  0.48205176946E+02  0.25000140668E+00 0.  0.
    1000022    2    1    0    0    0  0.46991092598E+02  0.28534373709E+02  0.27997799588E+02  0.62499999676E+02  0.99999955643E+01 0.  0.
    3000022    2    5    5    0    0  0.14778607330E+02  0.14519916600E+02  0.96768874210E+01  0.22867878388E+02  0.24999824411E+00 0.  0.
        -13    1    4    4    0    0 -0.14491342454E+02 -0.75170219368E+01 -0.96227359011E+01  0.18950269026E+02  0.10500000000E+00 0.  1.
         13    1    4    4    0    0 -0.22472044301E+02 -0.11551060728E+02 -0.14745129142E+02  0.29254907921E+02  0.10500000000E+00 0. -1.
    3000001    1    5    5    0    0  0.32212485268E+02  0.14014457109E+02  0.18320912167E+02  0.39632121289E+02  0.10000000000E+01 0.  1.
        -13    1    6    6    0    0  0.60353510191E+01  0.59010691834E+01  0.38759942985E+01  0.92888339545E+01  0.10500000000E+00 0.  1.
         13    1    6    6    0    0  0.87432563104E+01  0.86188474166E+01  0.58008931225E+01  0.13579044433E+02  0.10500000000E+00 0. -1.
</event>
<event>
11    0  0.3482687E-009  0.9118800E+02  0.7816531E-02  0.1126479E+00
         25   -1    0    0    0    0  0.00000000000E+00  0.00000000000E+00  0.99999998245E-14  0.12500000000E+03  0.12500000000E+03 0.  0.
    3000001    1    3    3    0    0  0.82992220720E+01  0.11901521727E+02 -0.24168435718E+02  0.28207030887E+02  0.10000000000E+01 0. -1.
    1000022    2    1    0    0    0  0.96755408734E+01  0.20950103156E+02 -0.57216494519E+02  0.62500000559E+02  0.99999955737E+01 0.  0.
    3000022    2    3    3    0    0  0.13763188014E+01  0.90485814284E+01 -0.33048058801E+02  0.34292969672E+02  0.24999822992E+00 0.  0.
    1000022    2    1    0    0    0 -0.96755408734E+01 -0.20950103156E+02  0.57216494519E+02  0.62499999441E+02  0.99999885810E+01 0.  0.
    3000022    2    5    5    0    0 -0.89935727218E+01 -0.21518677609E+02  0.56109034714E+02  0.60763674388E+02  0.25002455582E+00 0.  0.
        -13    1    4    4    0    0  0.81805099442E+00  0.52002692664E+01 -0.18783199027E+02  0.19507219139E+02  0.10500000000E+00 0. -1.
         13    1    4    4    0    0  0.55826780700E+00  0.38483121620E+01 -0.14264859774E+02  0.14785750533E+02  0.10500000000E+00 0.  1.
    3000001    1    5    5    0    0 -0.68196815156E+00  0.56857445294E+00  0.11074598046E+01  0.17363250523E+01  0.10000000000E+01 0. -1.
        -13    1    6    6    0    0 -0.56266796032E+01 -0.13572958905E+02  0.35456113593E+02  0.38380095791E+02  0.10500000000E+00 0.  1.
         13    1    6    6    0    0 -0.33668931186E+01 -0.79457187033E+01  0.20652921121E+02  0.22383578597E+02  0.10500000000E+00 0. -1.
</event>
<event>
11    0  0.3482687E-009  0.9118800E+02  0.7816531E-02  0.1126479E+00
         25   -1    0    0    0    0  0.00000000000E+00  0.00000000000E+00  0.99999998245E-14  0.12500000000E+03  0.12500000000E+03 0.  0.
    3000001    1    3    3    0    0 -0.25815551098E+02 -0.12729587504E+02  0.36861420527E+02  0.46778728069E+02  0.10000000000E+01 0.  1.
    1000022    2    1    0    0    0 -0.38569507439E+02 -0.16544078129E+02  0.45220971683E+02  0.62499998186E+02  0.10000003402E+02 0.  0.
    3000022    2    3    3    0    0 -0.12753956342E+02 -0.38144906248E+01  0.83595511561E+01  0.15721270117E+02  0.24999492477E+00 0.  0.
    1000022    2    1    0    0    0  0.38569507439E+02  0.16544078129E+02 -0.45220971683E+02  0.62500001814E+02  0.10000026076E+02 0.  0.
    3000022    2    5    5    0    0  0.12412028673E+02  0.52878136311E+00 -0.11991720040E+02  0.17268523940E+02  0.25000806949E+00 0.  0.
        -13    1    4    4    0    0 -0.78709241375E+01 -0.23044409751E+01  0.51954074797E+01  0.97090256394E+01  0.10500000000E+00 0. -1.
         13    1    4    4    0    0 -0.48830322041E+01 -0.15100496498E+01  0.31641436764E+01  0.60122444774E+01  0.10500000000E+00 0.  1.
    3000001    1    5    5    0    0  0.26157478767E+02  0.16015296766E+02 -0.33229251643E+02  0.45231477874E+02  0.10000000000E+01 0. -1.
        -13    1    6    6    0    0  0.87706468690E+01  0.37369521286E+00 -0.85337546251E+01  0.12243360961E+02  0.10500000000E+00 0.  1.
         13    1    6    6    0    0  0.36413818038E+01  0.15508615025E+00 -0.34579654149E+01  0.50251629790E+01  0.10500000000E+00 0. -1.
</event>
<event>
11    0  0.3482687E-009  0.9118800E+02  0.7816531E-02  0.1126479E+00
         25   -1    0    0    0    0  0.00000000000E+00  0.00000000000E+00  0.99999998245E-14  0.12500000000E+03  0.12500000000E+03 0.  0.
    3000001    1    3    3    0    0  0.22314075797E+02  0.86224191799E+01 -0.66639498467E+01  0.24853014279E+02  0.10000000000E+01 0.  1.
    1000022    2    1    0    0    0  0.49335443004E+02  0.31272384711E+02 -0.19857043377E+02  0.62499998645E+02  0.99999838541E+01 0.  0.
    3000022    2    3    3    0    0  0.27021367207E+02  0.22649965531E+02 -0.13193093531E+02  0.37646984366E+02  0.24998138073E+00 0.  0.
    1000022    2    1    0    0    0 -0.49335443004E+02 -0.31272384711E+02  0.19857043377E+02  0.62500001355E+02  0.10000000786E+02 0.  0.
    3000022    2    5    5    0    0 -0.16288704096E+02 -0.65726865825E+01  0.25589816972E+01  0.17751984885E+02  0.24997997073E+00 0.  0.
        -13    1    4    4    0    0  0.78328384698E+01  0.66119302178E+01 -0.38093701523E+01  0.10935872423E+02  0.10500000000E+00 0. -1.
         13    1    4    4    0    0  0.19188528737E+02  0.16038035313E+02 -0.93837233784E+01  0.26711111943E+02  0.10500000000E+00 0.  1.
    3000001    1    5    5    0    0 -0.33046738908E+02 -0.24699698129E+02  0.17298061680E+02  0.44748016470E+02  0.10000000000E+01 0.  1.
        -13    1    6    6    0    0 -0.57755076168E+01 -0.23250498249E+01  0.96471877538E+00  0.63011151581E+01  0.10500000000E+00 0. -1.
         13    1    6    6    0    0 -0.10513196479E+02 -0.42476367577E+01  0.15942629218E+01  0.11450869726E+02  0.10500000000E+00 0.  1.
</event>
<event>
11    0  0.3482687E-009  0.9118800E+02  0.7816531E-02  0.1126479E+00
         25   -1    0    0    0    0  0.00000000000E+00  0.00000000000E+00  0.99999998245E-14  0.12500000000E+03  0.12500000000E+03 0.  0.
    3000001    1    3    3    0    0  0.10555910482E+02  0.77626934639E+01  0.64994940525E+00  0.13157092770E+02  0.10000000000E+01 0. -1.
    1000022    2    1    0    0    0  0.36442508104E+02  0.49292254119E+02  0.69618101504E+01  0.62499999368E+02  0.10000020366E+02 0.  0.
    3000022    2    3    3    0    0  0.25886597622E+02  0.41529560655E+02  0.63118607452E+01  0.49342906598E+02  0.25000161930E+00 0.  0.
    1000022    2    1    0    0    0 -0.36442508104E+02 -0.49292254119E+02 -0.69618101504E+01  0.62500000632E+02  0.10000028272E+02 0.  0.
    3000022    2    5    5    0    0 -0.21025218578E+02 -0.20846635019E+02 -0.53561929092E+01  0.30089754274E+02  0.25000379918E+00 0.  0.
        -13    1    4    4    0    0  0.17451996025E+02  0.27933401858E+02  0.42083496882E+01  0.33204944462E+02  0.10500000000E+00 0.  1.
         13    1    4    4    0    0  0.84346015970E+01  0.13596158797E+02  0.21035110570E+01  0.16137962136E+02  0.10500000000E+00 0. -1.
    3000001    1    5    5    0    0 -0.15417289526E+02 -0.28445619100E+02 -0.16056172412E+01  0.32410246359E+02  0.10000000000E+01 0. -1.
        -13    1    6    6    0    0 -0.98005164216E+01 -0.97573780884E+01 -0.25638067965E+01  0.14065584936E+02  0.10500000000E+00 0. -1.
         13    1    6    6    0    0 -0.11224702157E+02 -0.11089256931E+02 -0.27923861127E+01  0.16024169338E+02  0.10500000000E+00 0.  1.
</event>
<event>
11    0  0.3482687E-009  0.9118800E+02  0.7816531E-02  0.1126479E+00
         25   -1    0    0    0    0  0.00000000000E+00  0.00000000000E+00  0.99999998245E-14  0.12500000000E+03  0.12500000000E+03 0.  0.
    3000001    1    3    3    0    0  0.42880921185E+01 -0.11651350714E+02  0.23541014708E+01  0.12676099605E+02  0.10000000000E+01 0.  1.
    1000022    2    1    0    0    0  0.25389669582E+02 -0.55769437924E+02 -0.71683058724E+01  0.62499998762E+02  0.99999854187E+01 0.  0.
    3000022    2    3    3    0    0  0.21101577464E+02 -0.44118087210E+02 -0.95224073432E+01  0.49823899157E+02  0.24999010673E+00 0.  0.
    1000022    2    1    0    0    0 -0.25389669582E+02  0.55769437924E+02  0.71683058724E+01  0.62500001238E+02  0.10000000889E+02 0.  0.
    3000022    2    5    5    0    0 -0.91928507972E+00  0.78178541900E+01 -0.13376802906E+01  0.79884804287E+01  0.25000361146E+00 0.  0.
        -13    1    4    4    0    0  0.48750145141E+01 -0.10175667359E+02 -0.22009732437E+01  0.11496315972E+02  0.10500000000E+00 0. -1.
         13    1    4    4    0    0  0.16226562950E+02 -0.33942419851E+02 -0.73214340995E+01  0.38327583185E+02  0.10500000000E+00 0.  1.
    3000001    1    5    5    0    0 -0.24470384503E+02  0.47951583734E+02  0.85059861630E+01  0.54511520809E+02  0.10000000000E+01 0.  1.
        -13    1    6    6    0    0 -0.25983080902E+00  0.22635541058E+01 -0.34451908093E+00  0.23067092657E+01  0.10500000000E+00 0. -1.
         13    1    6    6    0    0 -0.65945427070E+00  0.55543000842E+01 -0.99316120968E+00  0.56817711630E+01  0.10500000000E+00 0.  1.
</event>
<event>
11    0  0.3482687E-009  0.9118800E+02  0.7816531E-02  0.1126479E+00
         25   -1    0    0    0    0  0.00000000000E+00  0.00000000000E+00  0.99999998245E-14  0.12500000000E+03  0.12500000000E+03 0.  0.
    3000001    1    3    3    0    0  0.37899970559E+02  0.41471043952E+01 -0.11386187271E+02  0.39802656994E+02  0.10000000000E+01 0. -1.
    1000022    2    1    0    0    0  0.56715729532E+02  0.12916703347E+02 -0.20560513196E+02  0.62500000433E+02  0.10000007476E+02 0.  0.
    3000022    2    3    3    0    0  0.18815758973E+02  0.87695989518E+01 -0.91743259250E+01  0.22697343439E+02  0.24998297277E+00 0.  0.
    1000022    2    1    0    0    0 -0.56715729532E+02 -0.12916703347E+02  0.20560513196E+02  0.62499999567E+02  0.10000002061E+02 0.  0.
    3000022    2    5    5    0    0 -0.14100323305E+02 -0.15657615749E+01  0.93250528985E+01  0.16979100025E+02  0.24999894185E+00 0.  0.
        -13    1    4    4    0    0  0.12893077683E+02  0.59989337768E+01 -0.62310876283E+01  0.15525982630E+02  0.10500000000E+00 0. -1.
         13    1    4    4    0    0  0.59226812909E+01  0.27706651750E+01 -0.29432382967E+01  0.71713608092E+01  0.10500000000E+00 0.  1.
    3000001    1    5    5    0    0 -0.42615406227E+02 -0.11350941772E+02  0.11235460298E+02  0.45520899542E+02  0.10000000000E+01 0. -1.
        -13    1    6    6    0    0 -0.10389454327E+02 -0.11693778117E+01  0.69062386655E+01  0.12530577129E+02  0.10500000000E+00 0.  1.
         13    1    6    6    0    0 -0.37108689775E+01 -0.39638376315E+00  0.24188142330E+01  0.44485228952E+01  0.10500000000E+00 0. -1.
</event>
<event>
11    0  0.3482687E-009  0.9118800E+02  0.7816531E-02  0.1126479E+00
         25   -1    0    0    0    0  0.00000000000E+00  0.00000000000E+00  0.99999998245E-14  0.12500000000E+03  0.12500000000E+03 0.  0.
    3000001    1    3    3    0    0 -0.11103128910E+02 -0.91593081088E+01  0.23988365040E+02  0.27993107257E+02  0.10000000000E+01 0. -1.
    1000022    2    1    0    0    0 -0.14232780427E+02 -0.22629307652E+02  0.55602088631E+02  0.62499999693E+02  0.10000004900E+02 0.  0.
    3000022    2    3    3    0    0 -0.31296515176E+01 -0.13469999543E+02  0.31613723591E+02  0.34506892436E+02  0.24999995169E+00 0.  0.
    1000022    2    1    0    0    0  0.14232780427E+02  0.22629307652E+02 -0.55602088631E+02  0.62500000307E+02  0.10000008742E+02 0.  0.
    3000022    2    5    5    0    0  0.14539782048E+02  0.17932521564E+02 -0.40136685920E+02  0.46303311431E+02  0.25000245521E+00 0.  0.
        -13    1    4    4    0    0 -0.20979980642E+01 -0.89484665064E+01  0.20883452951E+02  0.22816798216E+02  0.10500000000E+00 0.  1.
         13    1    4    4    0    0 -0.10316534533E+01 -0.45215330364E+01  0.10730270640E+02  0.11690094220E+02  0.10500000000E+00 0. -1.
    3000001    1    5    5    0    0 -0.30700162016E+00  0.46967860875E+01 -0.15465402710E+02  0.16196688876E+02  0.10000000000E+01 0. -1.
        -13    1    6    6    0    0  0.62984780702E+01  0.78672079910E+01 -0.17563759297E+02  0.20249949462E+02  0.10500000000E+00 0.  1.
         13    1    6    6    0    0  0.82413039774E+01  0.10065313573E+02 -0.22572926623E+02  0.26053361969E+02  0.10500000000E+00 0. -1.
</event>
<event>
11    0  0.3482687E-009  0.9118800E+02  0.7816531E-02  0.1126479E+00
         25   -1    0    0    0    0  0.00000000000E+00  0.00000000000E+00  0.99999998245E-14  0.12500000000E+03  0.12500000000E+03 0.  0.
    3000001    1    3    3    0    0 -0.33987381530E+02  0.35540188810E+02  0.27863186305E+02  0.56529676056E+02  0.10000000000E+01 0.  1.
    1000022    2    1    0    0    0 -0.34744660136E+02  0.39414224170E+02  0.32335392800E+02  0.62499998694E+02  0.99999867126E+01 0.  0.
    3000022    2    3    3    0    0 -0.75727860584E+00  0.38740353598E+01  0.44722064956E+01  0.59703226376E+01  0.25000120311E+00 0.  0.
    1000022    2    1    0    0    0  0.34744660136E+02 -0.39414224170E+02 -0.32335392800E+02  0.62500001306E+02  0.10000003042E+02 0.  0.
    3000022    2    5    5    0    0  0.12197054678E+02 -0.11935424781E+02 -0.15900658403E+02  0.23326293000E+02  0.24999990538E+00 0.  0.
        -13    1    4    4    0    0 -0.31007247548E+00  0.19390924503E+01  0.22172337138E+01  0.29636758953E+01  0.10500000000E+00 0. -1.
         13    1    4    4    0    0 -0.44720613036E+00  0.19349429095E+01  0.22549727818E+01  0.30066467423E+01  0.10500000000E+00 0.  1.
    3000001    1    5    5    0    0  0.22547605458E+02 -0.27478799389E+02 -0.16434734397E+02  0.39173708306E+02  0.10000000000E+01 0.  1.
        -13    1    6    6    0    0  0.47948616959E+01 -0.46887177461E+01 -0.63341487365E+01  0.92253584213E+01  0.10500000000E+00 0.  1.
         13    1    6    6    0    0  0.74021929817E+01 -0.72467070352E+01 -0.95665096666E+01  0.14100934579E+02  0.10500000000E+00 0. -1.
</event>
<event>
11    0  0.3482687E-009  0.9118800E+02  0.7816531E-02  0.1126479E+00
         25   -1    0    0    0    0  0.00000000000E+00  0.00000000000E+00  0.99999998245E-14  0.12500000000E+03  0.12500000000E+03 0.  0.
    3000001    1    3    3    0    0 -0.56001496740E+01 -0.63556226190E+01 -0.20340940474E+01  0.87688741489E+01  0.10000000000E+01 0. -1.
    1000022    2    1    0    0    0 -0.30089277549E+02 -0.53568520039E+02  0.55945537981E+01  0.62499999559E+02  0.99999975045E+01 0.  0.
    3000022    2    3    3    0    0 -0.24489127875E+02 -0.47212897420E+02  0.76286478456E+01  0.53731125410E+02  0.25000602680E+00 0.  0.
    1000022    2    1    0    0    0  0.30089277549E+02  0.53568520039E+02 -0.55945537981E+01  0.62500000441E+02  0.10000003012E+02 0.  0.
    3000022    2    5    5    0    0  0.25589103388E+02  0.38837229281E+02 -0.68561143800E+01  0.47012778934E+02  0.24997659657E+00 0.  0.
        -13    1    4    4    0    0 -0.97683755514E+01 -0.18734848560E+02  0.29863141255E+01  0.21338809913E+02  0.10500000000E+00 0. -1.
         13    1    4    4    0    0 -0.14720752324E+02 -0.28478048861E+02  0.46423337201E+01  0.32392315497E+02  0.10500000000E+00 0.  1.
    3000001    1    5    5    0    0  0.45001741614E+01  0.14731290758E+02  0.12615605818E+01  0.15487221506E+02  0.10000000000E+01 0.  1.
        -13    1    6    6    0    0  0.16239766051E+02  0.24570194017E+02 -0.43001831201E+01  0.29764526459E+02  0.10500000000E+00 0.  1.
         13    1    6    6    0    0  0.93493373362E+01  0.14267035264E+02 -0.25559312599E+01  0.17248252475E+02  0.10500000000E+00 0. -1.
</event>
<event>
11    0  0.3482687E-009  0.9118800E+02  0.7816531E-02  0.1126479E+00
         25   -1    0    0    0    0  0.00000000000E+00  0.00000000000E+00  0.99999998245E-14  0.12500000000E+03  0.12500000000E+03 0.  0.
    3000001    1    3    3    0    0 -0.33515540076E+02  0.48826875616E+01 -0.16182037083E+02  0.37549838729E+02  0.10000000000E+01 0. -1.
    1000022    2    1    0    0    0 -0.52087089424E+02  0.14809856931E+02 -0.29561009276E+02  0.62499999792E+02  0.99999978775E+01 0.  0.
    3000022    2    3    3    0    0 -0.18571549348E+02  0.99271693690E+01 -0.13378972193E+02  0.24950161063E+02  0.25000648113E+00 0.  0.
    1000022    2    1    0    0    0  0.52087089424E+02 -0.14809856931E+02  0.29561009276E+02  0.62500000208E+02  0.10000000481E+02 0.  0.
    3000022    2    5    5    0    0  0.46366812264E+02 -0.14848263014E+02  0.23348531655E+02  0.53996005617E+02  0.24999615600E+00 0.  0.
        -13    1    4    4    0    0 -0.11414405688E+02  0.61647192003E+01 -0.82116641541E+01  0.15353659929E+02  0.10500000000E+00 0.  1.
         13    1    4    4    0    0 -0.71571436599E+01  0.37624501688E+01 -0.51673080391E+01  0.95965011339E+01  0.10500000000E+00 0. -1.
    3000001    1    5    5    0    0  0.57202771599E+01  0.38406083646E-01  0.62124776209E+01  0.85039945910E+01  0.10000000000E+01 0.  1.
        -13    1    6    6    0    0  0.22966373393E+02 -0.74257567440E+01  0.11578879452E+02  0.26770835706E+02  0.10500000000E+00 0.  1.
         13    1    6    6    0    0  0.23400438871E+02 -0.74225062703E+01  0.11769652203E+02  0.27225169911E+02  0.10500000000E+00 0. -1.
</event>
<event>
11    0  0.3482687E-009  0.9118800E+02  0.7816531E-02  0.1126479E+00
         25   -1    0    0    0    0  0.00000000000E+00  0.00000000000E+00  0.99999998245E-14  0.12500000000E+03  0.12500000000E+03 0.  0.
    3000001    1    3    3    0    0  0.82486168329E+01  0.66200991260E+01 -0.10023042938E+02  0.14605710590E+02  0.10000000000E+01 0. -1.
    1000022    2    1    0    0    0  0.33572861522E+02  0.12323554592E+02 -0.50271689794E+02  0.62499998680E+02  0.10000000585E+02 0.  0.
    3000022    2    3    3    0    0  0.25324244689E+02  0.57034554660E+01 -0.40248646856E+02  0.47894288090E+02  0.24996922346E+00 0.  0.
    1000022    2    1    0    0    0 -0.33572861522E+02 -0.12323554592E+02  0.50271689794E+02  0.62500001320E+02  0.10000017083E+02 0.  0.
    3000022    2    5    5    0    0  0.33243937180E+00 -0.81891322711E+00  0.33270158347E+01  0.34514736938E+01  0.25000297080E+00 0.  0.
        -13    1    4    4    0    0  0.17191602045E+02  0.38848451522E+01 -0.27417957142E+02  0.32594456608E+02  0.10500000000E+00 0.  1.
         13    1    4    4    0    0  0.81326426446E+01  0.18186103138E+01 -0.12830689713E+02  0.15299831482E+02  0.10500000000E+00 0. -1.
    3000001    1    5    5    0    0 -0.33905300894E+02 -0.11504641365E+02  0.46944673959E+02  0.59048527626E+02  0.10000000000E+01 0. -1.
        -13    1    6    6    0    0  0.23023922582E+00 -0.62513476527E+00  0.23678721647E+01  0.24620412597E+01  0.10500000000E+00 0. -1.
         13    1    6    6    0    0  0.10220014598E+00 -0.19377846184E+00  0.95914366994E+00  0.98943243412E+00  0.10500000000E+00 0.  1.
</event>
<event>
11    0  0.3482687E-009  0.9118800E+02  0.7816531E-02  0.1126479E+00
         25   -1    0    0    0    0  0.00000000000E+00  0.00000000000E+00  0.99999998245E-14  0.12500000000E+03  0.12500000000E+03 0.  0.
    3000001    1    3    3    0    0 -0.16090270951E+02  0.24538307036E+02 -0.17120870594E+00  0.29360767087E+02  0.10000000000E+01 0.  1.
    1000022    2    1    0    0    0 -0.41307380398E+02  0.45609143947E+02 -0.44447947188E+01  0.62500000878E+02  0.10000011142E+02 0.  0.
    3000022    2    3    3    0    0 -0.25217109446E+02  0.21070836910E+02 -0.42735860129E+01  0.33139233792E+02  0.25000392038E+00 0.  0.
    1000022    2    1    0    0    0  0.41307380398E+02 -0.45609143947E+02  0.44447947188E+01  0.62499999122E+02  0.10000000164E+02 0.  0.
    3000022    2    5    5    0    0  0.13899953302E+02 -0.21930938116E+02  0.39419418073E+01  0.26263589912E+02  0.25000282800E+00 0.  0.
        -13    1    4    4    0    0 -0.18966932937E+02  0.15858614893E+02 -0.31913227746E+01  0.24928613628E+02  0.10500000000E+00 0. -1.
         13    1    4    4    0    0 -0.62501765090E+01  0.52122220174E+01 -0.10822632383E+01  0.82106201635E+01  0.10500000000E+00 0.  1.
    3000001    1    5    5    0    0  0.27407427096E+02 -0.23678205831E+02  0.50285291151E+00  0.36236409210E+02  0.10000000000E+01 0.  1.
        -13    1    6    6    0    0  0.39946208716E+01 -0.63804550708E+01  0.11325568062E+01  0.76132064689E+01  0.10500000000E+00 0.  1.
         13    1    6    6    0    0  0.99053324302E+01 -0.15550483045E+02  0.28093850012E+01  0.18650383443E+02  0.10500000000E+00 0. -1.
</event>
<event>
11    0  0.3482687E-009  0.9118800E+02  0.7816531E-02  0.1126479E+00
         25   -1    0    0    0    0  0.00000000000E+00  0.00000000000E+00  0.99999998245E-14  0.12500000000E+03  0.12500000000E+03 0.  0.
    3000001    1    3    3    0    0  0.12134321055E+01 -0.70766002860E+00  0.37142357206E+00  0.17638468359E+01  0.10000000000E+01 0. -1.
    1000022    2    1    0    0    0  0.10234750616E+02 -0.58885561325E+02  0.15296768062E+02  0.62500004122E+02  0.99999974737E+01 0.  0.
    3000022    2    3    3    0    0  0.90213185104E+01 -0.58177901296E+02  0.14925344490E+02  0.60736157286E+02  0.25001381613E+00 0.  0.
    1000022    2    1    0    0    0 -0.10234750616E+02  0.58885561325E+02 -0.15296768062E+02  0.62499995878E+02  0.99999459434E+01 0.  0.
    3000022    2    5    5    0    0 -0.28796181210E+01  0.20055428575E+02 -0.44038389239E+00  0.20267433394E+02  0.25000507834E+00 0.  0.
        -13    1    4    4    0    0  0.67354441095E+01 -0.43350655016E+02  0.11095178793E+02  0.45252176910E+02  0.10500000000E+00 0. -1.
         13    1    4    4    0    0  0.22858744009E+01 -0.14827246280E+02  0.38301656972E+01  0.15483980377E+02  0.10500000000E+00 0.  1.
    3000001    1    5    5    0    0 -0.73551324949E+01  0.38830132750E+02 -0.14856384170E+02  0.42232562484E+02  0.10000000000E+01 0.  1.
        -13    1    6    6    0    0 -0.13192973201E+01  0.96042481871E+01 -0.24355832945E+00  0.96980654936E+01  0.10500000000E+00 0. -1.
         13    1    6    6    0    0 -0.15603208009E+01  0.10451180388E+02 -0.19682556294E+00  0.10569367900E+02  0.10500000000E+00 0.  1.
</event>
<event>
11    0  0.3482687E-009  0.9118800E+02  0.7816531E-02  0.1126479E+00
         25   -1    0    0    0    0  0.00000000000E+00  0.00000000000E+00  0.99999998245E-14  0.12500000000E+03  0.12500000000E+03 0.  0.
    3000001    1    3    3    0    0  0.13544416299E+02  0.10040180278E+02  0.10587037685E+02  0.19933434222E+02  0.10000000000E+01 0.  1.
    1000022    2    1    0    0    0  0.33385819622E+02  0.27892913180E+02  0.43744972068E+02  0.62499999412E+02  0.99999893877E+01 0.  0.
    3000022    2    3    3    0    0  0.19841403323E+02  0.17852732901E+02  0.33157934383E+02  0.42566565191E+02  0.25000341204E+00 0.  0.
    1000022    2    1    0    0    0 -0.33385819622E+02 -0.27892913180E+02 -0.43744972068E+02  0.62500000588E+02  0.99999967366E+01 0.  0.
    3000022    2    5    5    0    0 -0.39146376195E+01  0.12266652507E+00 -0.46296220838E+01  0.60692121897E+01  0.25000239240E+00 0.  0.
        -13    1    4    4    0    0  0.13363020717E+02  0.11975239261E+02  0.22351567240E+02  0.28663221402E+02  0.10500000000E+00 0.  1.
         13    1    4    4    0    0  0.64783826058E+01  0.58774936400E+01  0.10806367143E+02  0.13903343789E+02  0.10500000000E+00 0. -1.
    3000001    1    5    5    0    0 -0.29471182003E+02 -0.28015579705E+02 -0.39115349985E+02  0.56430788398E+02  0.10000000000E+01 0.  1.
        -13    1    6    6    0    0 -0.15870102243E+01  0.71000224921E-01 -0.17867270294E+01  0.23931278615E+01  0.10500000000E+00 0.  1.
         13    1    6    6    0    0 -0.23276273952E+01  0.51666300144E-01 -0.28428950545E+01  0.36760843282E+01  0.10500000000E+00 0. -1.
</event>
<event>
11    0  0.3482687E-009  0.9118800E+02  0.7816531E-02  0.1126479E+00
         25   -1    0    0    0    0  0.00000000000E+00  0.00000000000E+00  0.99999998245E-14  0.12500000000E+03  0.12500000000E+03 0.  0.
    3000001    1    3    3    0    0 -0.25214479888E+01 -0.58021127932E+01 -0.64532012083E+01  0.90920854956E+01  0.10000000000E+01 0. -1.
    1000022    2    1    0    0    0 -0.12422747855E+02 -0.20693414415E+02 -0.56777709311E+02  0.62499998951E+02  0.99999764943E+01 0.  0.
    3000022    2    3    3    0    0 -0.99012998660E+01 -0.14891301622E+02 -0.50324508102E+02  0.53407913455E+02  0.25000175377E+00 0.  0.
    1000022    2    1    0    0    0  0.12422747855E+02  0.20693414415E+02  0.56777709311E+02  0.62500001049E+02  0.99999896076E+01 0.  0.
    3000022    2    5    5    0    0  0.13996049044E+02  0.18513208646E+02  0.51631039197E+02  0.56607905744E+02  0.25000181819E+00 0.  0.
        -13    1    4    4    0    0 -0.65007352765E+01 -0.97318835279E+01 -0.33082568256E+02  0.35091829014E+02  0.10500000000E+00 0.  1.
         13    1    4    4    0    0 -0.34005645895E+01 -0.51594180941E+01 -0.17241939846E+02  0.18316084441E+02  0.10500000000E+00 0. -1.
    3000001    1    5    5    0    0 -0.15733011894E+01  0.21802057696E+01  0.51466701131E+01  0.58920953050E+01  0.10000000000E+01 0.  1.
        -13    1    6    6    0    0  0.80118222663E+01  0.10699118030E+02  0.29789187442E+02  0.32650683547E+02  0.10500000000E+00 0. -1.
         13    1    6    6    0    0  0.59842267779E+01  0.78140906158E+01  0.21841851755E+02  0.23957222197E+02  0.10500000000E+00 0.  1.
</event>
<event>
11    0  0.3482687E-009  0.9118800E+02  0.7816531E-02  0.1126479E+00
         25   -1    0    0    0    0  0.00000000000E+00  0.00000000000E+00  0.99999998245E-14  0.12500000000E+03  0.12500000000E+03 0.  0.
    3000001    1    3    3    0    0  0.11260767051E+02 -0.34031527496E+02  0.65650850713E+01  0.36456139130E+02  0.10000000000E+01 0. -1.
    1000022    2    1    0    0    0  0.11385425909E+02 -0.59953461325E+02  0.90666756684E+01  0.62499999147E+02  0.99999918884E+01 0.  0.
    3000022    2    3    3    0    0  0.12465885809E+00 -0.25921933829E+02  0.25015905972E+01  0.26043860017E+02  0.24999162128E+00 0.  0.
    1000022    2    1    0    0    0 -0.11385425909E+02  0.59953461325E+02 -0.90666756684E+01  0.62500000853E+02  0.10000002549E+02 0.  0.
    3000022    2    5    5    0    0 -0.78582509951E+01  0.54980129954E+02 -0.93210650791E+01  0.56316175033E+02  0.25003531905E+00 0.  0.
        -13    1    4    4    0    0  0.10137554095E-01 -0.10146325209E+02  0.10280626532E+01  0.10198821296E+02  0.10500000000E+00 0.  1.
         13    1    4    4    0    0  0.11452130400E+00 -0.15775608620E+02  0.14735279440E+01  0.15845038721E+02  0.10500000000E+00 0. -1.
    3000001    1    5    5    0    0 -0.35271749142E+01  0.49733313705E+01  0.25438941073E+00  0.61838258197E+01  0.10000000000E+01 0.  1.
        -13    1    6    6    0    0 -0.37726904357E+01  0.26162693954E+02 -0.44961298038E+01  0.26813167591E+02  0.10500000000E+00 0. -1.
         13    1    6    6    0    0 -0.40855605594E+01  0.28817436000E+02 -0.48249352753E+01  0.29503007442E+02  0.10500000000E+00 0.  1.
</event>
<event>
11    0  0.3482687E-009  0.9118800E+02  0.7816531E-02  0.1126479E+00
         25   -1    0    0    0    0  0.00000000000E+00  0.00000000000E+00  0.99999998245E-14  0.12500000000E+03  0.12500000000E+03 0.  0.
    3000001    1    3    3    0    0 -0.11545648577E+02 -0.10210433225E+02 -0.12772909217E+02  0.20042508764E+02  0.10000000000E+01 0.  1.
    1000022    2    1    0    0    0 -0.37983541200E+02 -0.39716418253E+02 -0.28037588589E+02  0.62499996552E+02  0.99999957049E+01 0.  0.
    3000022    2    3    3    0    0 -0.26437892623E+02 -0.29505985028E+02 -0.15264679372E+02  0.42457487787E+02  0.25002809120E+00 0.  0.
    1000022    2    1    0    0    0  0.37983541200E+02  0.39716418253E+02  0.28037588589E+02  0.62500003448E+02  0.10000038810E+02 0.  0.
    3000022    2    5    5    0    0  0.97164865585E+01  0.16177911248E+02  0.71146574814E+01  0.20169674649E+02  0.25000195896E+00 0.  0.
        -13    1    4    4    0    0 -0.60610320515E+01 -0.67640287444E+01 -0.34946623696E+01  0.97320031064E+01  0.10500000000E+00 0. -1.
         13    1    4    4    0    0 -0.20376860572E+02 -0.22741956283E+02 -0.11770017003E+02  0.32725484681E+02  0.10500000000E+00 0.  1.
    3000001    1    5    5    0    0  0.28267054642E+02  0.23538507005E+02  0.20922931108E+02  0.42330328800E+02  0.10000000000E+01 0. -1.
        -13    1    6    6    0    0  0.45686217464E+01  0.74811070321E+01  0.33243337459E+01  0.93755792856E+01  0.10500000000E+00 0.  1.
         13    1    6    6    0    0  0.51478648122E+01  0.86968042155E+01  0.37903237355E+01  0.10794095363E+02  0.10500000000E+00 0. -1.
</event>
<event>
11    0  0.3482687E-009  0.9118800E+02  0.7816531E-02  0.1126479E+00
         25   -1    0    0    0    0  0.00000000000E+00  0.00000000000E+00  0.99999998245E-14  0.12500000000E+03  0.12500000000E+03 0.  0.
    3000001    1    3    3    0    0  0.11850008706E+02  0.95157631556E+01 -0.36343748838E+02  0.39406097680E+02  0.10000000000E+01 0. -1.
    1000022    2    1    0    0    0  0.11313913924E+02  0.16040403686E+02 -0.58488894470E+02  0.62499999581E+02  0.99999986290E+01 0.  0.
    3000022    2    3    3    0    0 -0.53609478221E+00  0.65246405308E+01 -0.22145145633E+02  0.23093901901E+02  0.24999653233E+00 0.  0.
    1000022    2    1    0    0    0 -0.11313913924E+02 -0.16040403686E+02  0.58488894470E+02  0.62500000419E+02  0.10000003863E+02 0.  0.
    3000022    2    5    5    0    0 -0.26001447266E+01 -0.19834434944E+01  0.24161568585E+02  0.24383164166E+02  0.24999513366E+00 0.  0.
        -13    1    4    4    0    0 -0.37888645600E+00  0.39207978450E+01 -0.13416963674E+02  0.13983638651E+02  0.10500000000E+00 0. -1.
         13    1    4    4    0    0 -0.15720832621E+00  0.26038426858E+01 -0.87281819586E+01  0.91102632504E+01  0.10500000000E+00 0.  1.
    3000001    1    5    5    0    0 -0.87137691977E+01 -0.14056960192E+02  0.34327325885E+02  0.38116836253E+02  0.10000000000E+01 0.  1.
        -13    1    6    6    0    0 -0.16235014130E+01 -0.11645541587E+01  0.14885875112E+02  0.15019728562E+02  0.10500000000E+00 0. -1.
         13    1    6    6    0    0 -0.97664331356E+00 -0.81888933570E+00  0.92756934734E+01  0.93634356045E+01  0.10500000000E+00 0.  1.
</event>
<event>
11    0  0.3482687E-009  0.9118800E+02  0.7816531E-02  0.1126479E+00
         25   -1    0    0    0    0  0.00000000000E+00  0.00000000000E+00  0.99999998245E-14  0.12500000000E+03  0.12500000000E+03 0.  0.
    3000001    1    3    3    0    0 -0.44783461287E+02  0.50380992213E+01 -0.37495610503E+02  0.58633281126E+02  0.10000000000E+01 0. -1.
    1000022    2    1    0    0    0 -0.46161378461E+02  0.35478775267E+01 -0.40777318071E+02  0.62500001448E+02  0.10000010780E+02 0.  0.
    3000022    2    3    3    0    0 -0.13779171734E+01 -0.14902216946E+01 -0.32817075682E+01  0.38667203219E+01  0.25001009705E+00 0.  0.
    1000022    2    1    0    0    0  0.46161378461E+02 -0.35478775267E+01  0.40777318071E+02  0.62499998552E+02  0.99999926802E+01 0.  0.
    3000022    2    5    5    0    0  0.12143052609E+02  0.10364284931E+01  0.16185678282E+02  0.20262442953E+02  0.25000460145E+00 0.  0.
        -13    1    4    4    0    0 -0.94583691552E+00 -0.98831299680E+00 -0.21145988102E+01  0.25206989464E+01  0.10500000000E+00 0. -1.
         13    1    4    4    0    0 -0.43208025793E+00 -0.50190869777E+00 -0.11671087580E+01  0.13460213755E+01  0.10500000000E+00 0. -1.
    3000001    1    5    5    0    0  0.34018325852E+02 -0.45843060198E+01  0.24591639789E+02  0.42237555599E+02  0.10000000000E+01 0.  1.
        -13    1    6    6    0    0  0.78433753902E+01  0.71007683742E+00  0.10391128971E+02  0.13038762706E+02  0.10500000000E+00 0.  1.
         13    1    6    6    0    0  0.42996772184E+01  0.32635165564E+00  0.57945493113E+01  0.72236802467E+01  0.10500000000E+00 0. -1.
</event>
<event>
11    0  0.3482687E-009  0.9118800E+02  0.7816531E-02  0.1126479E+00
         25   -1    0    0    0    0  0.00000000000E+00  0.00000000000E+00  0.99999998245E-14  0.12500000000E+03  0.12500000000E+03 0.  0.
    3000001    1    3    3    0    0 -0.10696481747E+02  0.20416218594E+02 -0.51166890720E+02  0.56127421190E+02  0.10000000000E+01 0. -1.
    1000022    2    1    0    0    0 -0.87924538035E+01  0.23705152753E+02 -0.56276180469E+02  0.62499999566E+02  0.99999973378E+01 0.  0.
    3000022    2    3    3    0    0  0.19040279437E+01  0.32889341584E+01 -0.51092897485E+01  0.63725783766E+01  0.25000624552E+00 0.  0.
    1000022    2    1    0    0    0  0.87924538035E+01 -0.23705152753E+02  0.56276180469E+02  0.62500000434E+02  0.10000002758E+02 0.  0.
    3000022    2    5    5    0    0  0.14090543976E+01 -0.65263421559E+01  0.65136307235E+01  0.93310482393E+01  0.24999962316E+00 0.  0.
        -13    1    4    4    0    0  0.59760519479E+00  0.11050723406E+01 -0.16276526666E+01  0.20587848479E+01  0.10500000000E+00 0.  1.
         13    1    4    4    0    0  0.13064227490E+01  0.21838618179E+01 -0.34816370819E+01  0.43137935287E+01  0.10500000000E+00 0. -1.
    3000001    1    5    5    0    0  0.73833994058E+01 -0.17178810597E+02  0.49762549745E+02  0.53168952194E+02  0.10000000000E+01 0.  1.
        -13    1    6    6    0    0  0.70274224359E+00 -0.29419222029E+01  0.29366552990E+01  0.42170750828E+01  0.10500000000E+00 0.  1.
         13    1    6    6    0    0  0.70631215404E+00 -0.35844199531E+01  0.35769754245E+01  0.51139731566E+01  0.10500000000E+00 0. -1.
</event>
<event>
11    0  0.3482687E-009  0.9118800E+02  0.7816531E-02  0.1126479E+00
         25   -1    0    0    0    0  0.00000000000E+00  0.00000000000E+00  0.99999998245E-14  0.12500000000E+03  0.12500000000E+03 0.  0.
    3000001    1    3    3    0    0 -0.31841241225E+01  0.14156317725E+02 -0.89714323213E+01  0.17088785090E+02  0.10000000000E+01 0. -1.
    1000022    2    1    0    0    0 -0.14425575657E+02  0.57210857360E+02 -0.18029708155E+02  0.62500000393E+02  0.10000012006E+02 0.  0.
    3000022    2    3    3    0    0 -0.11241451535E+02  0.43054539634E+02 -0.90582758338E+01  0.45411215303E+02  0.24999693465E+00 0.  0.
    1000022    2    1    0    0    0  0.14425575657E+02 -0.57210857360E+02  0.18029708155E+02  0.62499999607E+02  0.10000007093E+02 0.  0.
    3000022    2    5    5    0    0  0.32845615476E+01 -0.34587664167E+01  0.22544928902E+00  0.47817086596E+01  0.25000127612E+00 0.  0.
        -13    1    4    4    0    0 -0.54071193145E+01  0.20902856451E+02 -0.44429441919E+01  0.22043527966E+02  0.10500000000E+00 0.  1.
         13    1    4    4    0    0 -0.58343322200E+01  0.22151683183E+02 -0.46153316419E+01  0.23367687337E+02  0.10500000000E+00 0. -1.
    3000001    1    5    5    0    0  0.11141014109E+02 -0.53752090943E+02  0.17804258866E+02  0.57718290947E+02  0.10000000000E+01 0.  1.
        -13    1    6    6    0    0  0.21566613933E+01 -0.23477838687E+01  0.14400017912E+00  0.31929670388E+01  0.10500000000E+00 0.  1.
         13    1    6    6    0    0  0.11279001544E+01 -0.11109825479E+01  0.81449109897E-01  0.15887416208E+01  0.10500000000E+00 0. -1.
</event>
<event>
11    0  0.3482687E-009  0.9118800E+02  0.7816531E-02  0.1126479E+00
         25   -1    0    0    0    0  0.00000000000E+00  0.00000000000E+00  0.99999998245E-14  0.12500000000E+03  0.12500000000E+03 0.  0.
    3000001    1    3    3    0    0  0.87669451764E+01 -0.36475975625E+02 -0.26767392872E+02  0.46096089277E+02  0.10000000000E+01 0.  1.
    1000022    2    1    0    0    0  0.97584532861E+01 -0.45671335396E+02 -0.40313169868E+02  0.62500000254E+02  0.10000003981E+02 0.  0.
    3000022    2    3    3    0    0  0.99150810969E+00 -0.91953597711E+01 -0.13545776995E+02  0.16403910977E+02  0.24998254318E+00 0.  0.
    1000022    2    1    0    0    0 -0.97584532861E+01  0.45671335396E+02  0.40313169868E+02  0.62499999746E+02  0.10000000805E+02 0.  0.
    3000022    2    5    5    0    0 -0.76828679529E+00  0.16526705209E+02  0.92557572626E+01  0.18959266634E+02  0.24999821727E+00 0.  0.
        -13    1    4    4    0    0  0.76999304255E+00 -0.69244097440E+01 -0.10214360031E+02  0.12364647809E+02  0.10500000000E+00 0.  1.
         13    1    4    4    0    0  0.22151506714E+00 -0.22709500271E+01 -0.33314169644E+01  0.40392631681E+01  0.10500000000E+00 0. -1.
    3000001    1    5    5    0    0 -0.89901664908E+01  0.29144630186E+02  0.31057412605E+02  0.43540733112E+02  0.10000000000E+01 0.  1.
        -13    1    6    6    0    0 -0.54282305018E+00  0.10769840364E+02  0.60750770098E+01  0.12377467593E+02  0.10500000000E+00 0. -1.
         13    1    6    6    0    0 -0.22546374511E+00  0.57568648453E+01  0.31806802528E+01  0.65817990411E+01  0.10500000000E+00 0.  1.
</event>
<event>
11    0  0.3482687E-009  0.9118800E+02  0.7816531E-02  0.1126479E+00
         25   -1    0    0    0    0  0.00000000000E+00  0.00000000000E+00  0.99999998245E-14  0.12500000000E+03  0.12500000000E+03 0.  0.
    3000001    1    3    3    0    0 -0.72425148985E+01  0.32088510027E+02  0.19741487078E+02  0.38377764524E+02  0.10000000000E+01 0.  1.
    1000022    2    1    0    0    0 -0.43409726088E+01  0.53673552806E+02  0.30109056666E+02  0.62499995197E+02  0.99999896150E+01 0.  0.
    3000022    2    3    3    0    0  0.29015422897E+01  0.21585042779E+02  0.10367569588E+02  0.24122230673E+02  0.24998810080E+00 0.  0.
    1000022    2    1    0    0    0  0.43409726088E+01 -0.53673552806E+02 -0.30109056666E+02  0.62500004803E+02  0.10000049656E+02 0.  0.
    3000022    2    5    5    0    0 -0.26120405876E+01 -0.56627246396E+01 -0.37365402147E+01  0.72741626849E+01  0.25000723147E+00 0.  0.
        -13    1    4    4    0    0  0.14419732163E+01  0.10259505356E+02  0.49606979604E+01  0.11487222734E+02  0.10500000000E+00 0. -1.
         13    1    4    4    0    0  0.14595690734E+01  0.11325537423E+02  0.54068716278E+01  0.12635007938E+02  0.10500000000E+00 0.  1.
    3000001    1    5    5    0    0  0.69530131965E+01 -0.48010828166E+02 -0.26372516452E+02  0.55225842118E+02  0.10000000000E+01 0. -1.
        -13    1    6    6    0    0 -0.16589880919E+01 -0.37177490501E+01 -0.24659905254E+01  0.47608858168E+01  0.10500000000E+00 0.  1.
         13    1    6    6    0    0 -0.95305249578E+00 -0.19449755894E+01 -0.12705496892E+01  0.25132768682E+01  0.10500000000E+00 0. -1.
</event>
<event>
11    0  0.3482687E-009  0.9118800E+02  0.7816531E-02  0.1126479E+00
         25   -1    0    0    0    0  0.00000000000E+00  0.00000000000E+00  0.99999998245E-14  0.12500000000E+03  0.12500000000E+03 0.  0.
    3000001    1    3    3    0    0 -0.16479702053E+02  0.15469406332E+02  0.22685386011E+01  0.22738280045E+02  0.10000000000E+01 0.  1.
    1000022    2    1    0    0    0 -0.47091823872E+02  0.39359270443E+02 -0.62815650661E+01  0.62500000057E+02  0.99999950994E+01 0.  0.
    3000022    2    3    3    0    0 -0.30612121819E+02  0.23889864111E+02 -0.85501036672E+01  0.39761720011E+02  0.24999209778E+00 0.  0.
    1000022    2    1    0    0    0  0.47091823872E+02 -0.39359270443E+02  0.62815650661E+01  0.62499999943E+02  0.99999943910E+01 0.  0.
    3000022    2    5    5    0    0  0.10600708699E+02 -0.39354816598E+01  0.14826947590E+01  0.11407187782E+02  0.25001705759E+00 0.  0.
        -13    1    4    4    0    0 -0.10653775083E+02  0.83533035271E+01 -0.30292364838E+01  0.13873280146E+02  0.10500000000E+00 0. -1.
         13    1    4    4    0    0 -0.19958346736E+02  0.15536560584E+02 -0.55208671835E+01  0.25888439865E+02  0.10500000000E+00 0.  1.
    3000001    1    5    5    0    0  0.36491115174E+02 -0.35423788783E+02  0.47988703071E+01  0.51092812162E+02  0.10000000000E+01 0. -1.
        -13    1    6    6    0    0  0.44547048458E+01 -0.17054653956E+01  0.66914189232E+00  0.48178608688E+01  0.10500000000E+00 0. -1.
         13    1    6    6    0    0  0.61460038528E+01 -0.22300162642E+01  0.81355286666E+00  0.65893269128E+01  0.10500000000E+00 0.  1.
</event>
<event>
11    0  0.3482687E-009  0.9118800E+02  0.7816531E-02  0.1126479E+00
         25   -1    0    0    0    0  0.00000000000E+00  0.00000000000E+00  0.99999998245E-14  0.12500000000E+03  0.12500000000E+03 0.  0.
    3000001    1    3    3    0    0 -0.75956392545E+01  0.11253401993E+02  0.91030595072E+01  0.16376766607E+02  0.10000000000E+01 0.  1.
    1000022    2    1    0    0    0 -0.38407735472E+02  0.43349134109E+02  0.21259081839E+02  0.62500000195E+02  0.99999945881E+01 0.  0.
    3000022    2    3    3    0    0 -0.30812096218E+02  0.32095732116E+02  0.12156022332E+02  0.46123233589E+02  0.25000881192E+00 0.  0.
    1000022    2    1    0    0    0  0.38407735472E+02 -0.43349134109E+02 -0.21259081839E+02  0.62499999805E+02  0.99999921446E+01 0.  0.
    3000022    2    5    5    0    0  0.24582045063E+02 -0.34358892920E+02 -0.14970134739E+02  0.44821622969E+02  0.24997863631E+00 0.  0.
        -13    1    4    4    0    0 -0.12320402870E+02  0.12793845461E+02  0.49115394755E+01  0.18428484843E+02  0.10500000000E+00 0. -1.
         13    1    4    4    0    0 -0.18491693347E+02  0.19301886655E+02  0.72444828560E+01  0.27694748746E+02  0.10500000000E+00 0.  1.
    3000001    1    5    5    0    0  0.13825690409E+02 -0.89902411888E+01 -0.62889471000E+01  0.17678376836E+02  0.10000000000E+01 0.  1.
        -13    1    6    6    0    0  0.17683541296E+02 -0.24783626289E+02 -0.10781659335E+02  0.32298466958E+02  0.10500000000E+00 0. -1.
         13    1    6    6    0    0  0.68985037675E+01 -0.95752666305E+01 -0.41884754034E+01  0.12523156011E+02  0.10500000000E+00 0.  1.
</event>
<event>
11    0  0.3482687E-009  0.9118800E+02  0.7816531E-02  0.1126479E+00
         25   -1    0    0    0    0  0.00000000000E+00  0.00000000000E+00  0.99999998245E-14  0.12500000000E+03  0.12500000000E+03 0.  0.
    3000001    1    3    3    0    0 -0.12033191330E+02 -0.82263166945E+01 -0.36828438512E+02  0.39620750411E+02  0.10000000000E+01 0.  1.
    1000022    2    1    0    0    0 -0.25389932921E+02 -0.14324408922E+02 -0.54372903447E+02  0.62499999148E+02  0.99999939782E+01 0.  0.
    3000022    2    3    3    0    0 -0.13356741592E+02 -0.60980922275E+01 -0.17544464935E+02  0.22879248737E+02  0.24999629009E+00 0.  0.
    1000022    2    1    0    0    0  0.25389932921E+02  0.14324408922E+02  0.54372903447E+02  0.62500000852E+02  0.10000004627E+02 0.  0.
    3000022    2    5    5    0    0  0.14642071935E+02  0.12115096897E+02  0.40863591840E+02  0.45067299527E+02  0.25001040977E+00 0.  0.
        -13    1    4    4    0    0 -0.49966384568E+01 -0.23455456156E+01 -0.65728864364E+01  0.85838127431E+01  0.10500000000E+00 0.  1.
         13    1    4    4    0    0 -0.83601031347E+01 -0.37525466119E+01 -0.10971578498E+02  0.14295435994E+02  0.10500000000E+00 0. -1.
    3000001    1    5    5    0    0  0.10747860986E+02  0.22093120252E+01  0.13509311607E+02  0.17432701325E+02  0.10000000000E+01 0.  1.
        -13    1    6    6    0    0  0.70805847993E+01  0.57758491928E+01  0.19701203518E+02  0.21717356194E+02  0.10500000000E+00 0. -1.
         13    1    6    6    0    0  0.75614871360E+01  0.63392477040E+01  0.21162388322E+02  0.23349943333E+02  0.10500000000E+00 0.  1.
</event>
<event>
11    0  0.3482687E-009  0.9118800E+02  0.7816531E-02  0.1126479E+00
         25   -1    0    0    0    0  0.00000000000E+00  0.00000000000E+00  0.99999998245E-14  0.12500000000E+03  0.12500000000E+03 0.  0.
    3000001    1    3    3    0    0 -0.24698077130E+02 -0.19605672020E+02 -0.47110409642E+02  0.56698924909E+02  0.10000000000E+01 0.  1.
    1000022    2    1    0    0    0 -0.24202834856E+02 -0.22558004244E+02 -0.52073114122E+02  0.62499999937E+02  0.10000000359E+02 0.  0.
    3000022    2    3    3    0    0  0.49524227437E+00 -0.29523322245E+01 -0.49627044806E+01  0.58010750274E+01  0.25001047711E+00 0.  0.
    1000022    2    1    0    0    0  0.24202834856E+02  0.22558004244E+02  0.52073114122E+02  0.62500000063E+02  0.10000001150E+02 0.  0.
    3000022    2    5    5    0    0  0.18311937063E+02  0.21768514474E+02  0.41176357873E+02  0.50047479530E+02  0.24999622532E+00 0.  0.
        -13    1    4    4    0    0  0.12056092853E+00 -0.69860030054E+00 -0.12172027118E+01  0.14125100917E+01  0.10500000000E+00 0. -1.
         13    1    4    4    0    0  0.37468134583E+00 -0.22537319239E+01 -0.37455017687E+01  0.43885649358E+01  0.10500000000E+00 0.  1.
    3000001    1    5    5    0    0  0.58908977923E+01  0.78948976974E+00  0.10896756249E+02  0.12452520534E+02  0.10000000000E+01 0. -1.
        -13    1    6    6    0    0  0.12788427927E+02  0.15263518167E+02  0.28864524220E+02  0.35066945392E+02  0.10500000000E+00 0. -1.
         13    1    6    6    0    0  0.55235091369E+01  0.65049963071E+01  0.12311833653E+02  0.14980534137E+02  0.10500000000E+00 0.  1.
</event>
<event>
11    0  0.3482687E-009  0.9118800E+02  0.7816531E-02  0.1126479E+00
         25   -1    0    0    0    0  0.00000000000E+00  0.00000000000E+00  0.99999998245E-14  0.12500000000E+03  0.12500000000E+03 0.  0.
    3000001    1    3    3    0    0 -0.21286059036E+01 -0.18509897962E+02 -0.10658374036E+02  0.21488327593E+02  0.10000000000E+01 0. -1.
    1000022    2    1    0    0    0 -0.16277932050E+02 -0.55297908271E+02 -0.21986818104E+02  0.62500000056E+02  0.10000005285E+02 0.  0.
    3000022    2    3    3    0    0 -0.14149326146E+02 -0.36788010309E+02 -0.11328444068E+02  0.41011672463E+02  0.25000064736E+00 0.  0.
    1000022    2    1    0    0    0  0.16277932050E+02  0.55297908271E+02  0.21986818104E+02  0.62499999944E+02  0.10000004584E+02 0.  0.
    3000022    2    5    5    0    0  0.40721454800E+01  0.13312357876E+02  0.10029482945E+02  0.17159669863E+02  0.25000126741E+00 0.  0.
        -13    1    4    4    0    0 -0.77420748546E+01 -0.20112336893E+02 -0.62632378712E+01  0.22442927438E+02  0.10500000000E+00 0.  1.
         13    1    4    4    0    0 -0.64072512913E+01 -0.16675673417E+02 -0.50652061969E+01  0.18568745026E+02  0.10500000000E+00 0. -1.
    3000001    1    5    5    0    0  0.12205786570E+02  0.41985550395E+02  0.11957335160E+02  0.45340330081E+02  0.10000000000E+01 0. -1.
        -13    1    6    6    0    0  0.26655739896E+01  0.85473387663E+01  0.64876214475E+01  0.11057239336E+02  0.10500000000E+00 0. -1.
         13    1    6    6    0    0  0.14065714904E+01  0.47650191097E+01  0.35418614970E+01  0.61024305271E+01  0.10500000000E+00 0.  1.
</event>
<event>
11    0  0.3482687E-009  0.9118800E+02  0.7816531E-02  0.1126479E+00
         25   -1    0    0    0    0  0.00000000000E+00  0.00000000000E+00  0.99999998245E-14  0.12500000000E+03  0.12500000000E+03 0.  0.
    3000001    1    3    3    0    0 -0.26707954942E+02 -0.65075625107E+01 -0.92466724155E+01  0.29020065089E+02  0.10000000000E+01 0.  1.
    1000022    2    1    0    0    0 -0.59803716866E+02 -0.11522733167E+02 -0.98484602519E+01  0.62500000143E+02  0.99999958923E+01 0.  0.
    3000022    2    3    3    0    0 -0.33095761924E+02 -0.50151706559E+01 -0.60178783634E+00  0.33479935053E+02  0.25001706757E+00 0.  0.
    1000022    2    1    0    0    0  0.59803716866E+02  0.11522733167E+02  0.98484602519E+01  0.62499999857E+02  0.99999941073E+01 0.  0.
    3000022    2    5    5    0    0  0.40017501146E+02  0.46645711284E+01  0.28180053603E+01  0.40387650026E+02  0.24999724547E+00 0.  0.
        -13    1    4    4    0    0 -0.19213223435E+02 -0.28473181546E+01 -0.36243276277E+00  0.19426722780E+02  0.10500000000E+00 0.  1.
         13    1    4    4    0    0 -0.13882538489E+02 -0.21678525013E+01 -0.23935507357E+00  0.14053212274E+02  0.10500000000E+00 0. -1.
    3000001    1    5    5    0    0  0.19786215720E+02  0.68581620381E+01  0.70304548916E+01  0.22112349831E+02  0.10000000000E+01 0. -1.
        -13    1    6    6    0    0  0.26715729567E+02  0.31306198235E+01  0.18305706873E+01  0.26960953263E+02  0.10500000000E+00 0.  1.
         13    1    6    6    0    0  0.13301771579E+02  0.15339513049E+01  0.98743467298E+00  0.13426696763E+02  0.10500000000E+00 0. -1.
</event>
<event>
11    0  0.3482687E-009  0.9118800E+02  0.7816531E-02  0.1126479E+00
         25   -1    0    0    0    0  0.00000000000E+00  0.00000000000E+00  0.99999998245E-14  0.12500000000E+03  0.12500000000E+03 0.  0.
    3000001    1    3    3    0    0  0.21502407002E+02  0.27093998527E-01 -0.14512923849E+02  0.25961109368E+02  0.10000000000E+01 0. -1.
    1000022    2    1    0    0    0  0.56113107878E+02  0.48634569473E+01 -0.25177681879E+02  0.62500000632E+02  0.10000016252E+02 0.  0.
    3000022    2    3    3    0    0  0.34610700875E+02  0.48363629487E+01 -0.10664758030E+02  0.36538891264E+02  0.24997862250E+00 0.  0.
    1000022    2    1    0    0    0 -0.56113107878E+02 -0.48634569473E+01  0.25177681879E+02  0.62499999368E+02  0.10000008355E+02 0.  0.
    3000022    2    5    5    0    0 -0.29828825804E+02 -0.73281485802E+01  0.15063469911E+02  0.34211565819E+02  0.24999907882E+00 0.  0.
        -13    1    4    4    0    0  0.21931320828E+02  0.30140901290E+01 -0.67228254141E+01  0.23136010441E+02  0.10500000000E+00 0. -1.
         13    1    4    4    0    0  0.12679380047E+02  0.18222728197E+01 -0.39419326159E+01  0.13402880823E+02  0.10500000000E+00 0.  1.
    3000001    1    5    5    0    0 -0.26284282074E+02  0.24646916329E+01  0.10114211968E+02  0.28288433550E+02  0.10000000000E+01 0.  1.
        -13    1    6    6    0    0 -0.14441884628E+02 -0.35128089656E+01  0.73541118765E+01  0.16583179579E+02  0.10500000000E+00 0.  1.
         13    1    6    6    0    0 -0.15386941176E+02 -0.38153396146E+01  0.77093580346E+01  0.17628386240E+02  0.10500000000E+00 0. -1.
</event>
<event>
11    0  0.3482687E-009  0.9118800E+02  0.7816531E-02  0.1126479E+00
         25   -1    0    0    0    0  0.00000000000E+00  0.00000000000E+00  0.99999998245E-14  0.12500000000E+03  0.12500000000E+03 0.  0.
    3000001    1    3    3    0    0 -0.20760110189E+02 -0.24858865709E+02 -0.28828411957E+02  0.43370758759E+02  0.10000000000E+01 0.  1.
    1000022    2    1    0    0    0 -0.25582999250E+02 -0.32858662483E+02 -0.45519976786E+02  0.62499999194E+02  0.10000003097E+02 0.  0.
    3000022    2    3    3    0    0 -0.48228890618E+01 -0.79997967735E+01 -0.16691564829E+02  0.19129240435E+02  0.24999174684E+00 0.  0.
    1000022    2    1    0    0    0  0.25582999250E+02  0.32858662483E+02  0.45519976786E+02  0.62500000806E+02  0.10000013166E+02 0.  0.
    3000022    2    5    5    0    0  0.18393422945E+01  0.23130103508E+00  0.31593355042E+00  0.18971008297E+01  0.24999460906E+00 0.  0.
        -13    1    4    4    0    0 -0.26028371136E+01 -0.43926228281E+01 -0.92340407061E+01  0.10552176511E+02  0.10500000000E+00 0.  1.
         13    1    4    4    0    0 -0.22200519482E+01 -0.36071739454E+01 -0.74575241230E+01  0.85770639248E+01  0.10500000000E+00 0. -1.
    3000001    1    5    5    0    0  0.23743656956E+02  0.32627361448E+02  0.45204043235E+02  0.60602899976E+02  0.10000000000E+01 0.  1.
        -13    1    6    6    0    0  0.13280772355E+01  0.14941573325E+00  0.26307148363E+00  0.13661426757E+01  0.10500000000E+00 0. -1.
         13    1    6    6    0    0  0.51126505895E+00  0.81885301835E-01  0.52862066798E-01  0.53095815397E+00  0.10500000000E+00 0.  1.
</event>
<event>
11    0  0.3482687E-009  0.9118800E+02  0.7816531E-02  0.1126479E+00
         25   -1    0    0    0    0  0.00000000000E+00  0.00000000000E+00  0.99999998245E-14  0.12500000000E+03  0.12500000000E+03 0.  0.
    3000001    1    3    3    0    0 -0.25191609367E+02 -0.32744843267E+02  0.16388840822E+02  0.44457125937E+02  0.10000000000E+01 0.  1.
    1000022    2    1    0    0    0 -0.36587355346E+02 -0.46723001930E+02  0.16869399257E+02  0.62500002224E+02  0.10000008306E+02 0.  0.
    3000022    2    3    3    0    0 -0.11395745980E+02 -0.13978158663E+02  0.48055843442E+00  0.18042876287E+02  0.25000451896E+00 0.  0.
    1000022    2    1    0    0    0  0.36587355346E+02  0.46723001930E+02 -0.16869399257E+02  0.62499997776E+02  0.99999805031E+01 0.  0.
    3000022    2    5    5    0    0  0.28642145356E+02  0.32710265062E+02 -0.84344164307E+01  0.44289229214E+02  0.25002563869E+00 0.  0.
        -13    1    4    4    0    0 -0.76826319577E+01 -0.93951964745E+01  0.37247436697E+00  0.12142582623E+02  0.10500000000E+00 0. -1.
         13    1    4    4    0    0 -0.37131140221E+01 -0.45829621886E+01  0.10808406745E+00  0.59002936646E+01  0.10500000000E+00 0.  1.
    3000001    1    5    5    0    0  0.79452099900E+01  0.14012736868E+02 -0.84349828260E+01  0.18210768562E+02  0.10000000000E+01 0. -1.
        -13    1    6    6    0    0  0.15743411896E+02  0.18073440973E+02 -0.46748706810E+01  0.24420682374E+02  0.10500000000E+00 0. -1.
         13    1    6    6    0    0  0.12898733461E+02  0.14636824089E+02 -0.37595457497E+01  0.19868546840E+02  0.10500000000E+00 0.  1.
</event>
<event>
11    0  0.3482687E-009  0.9118800E+02  0.7816531E-02  0.1126479E+00
         25   -1    0    0    0    0  0.00000000000E+00  0.00000000000E+00  0.99999998245E-14  0.12500000000E+03  0.12500000000E+03 0.  0.
    3000001    1    3    3    0    0 -0.29950776733E+02  0.85141842077E+01  0.44863297565E+02  0.54619189192E+02  0.10000000000E+01 0. -1.
    1000022    2    1    0    0    0 -0.31265208048E+02  0.11958961949E+02  0.51823932536E+02  0.62499999091E+02  0.99999948874E+01 0.  0.
    3000022    2    3    3    0    0 -0.13144313154E+01  0.34447777412E+01  0.69606349711E+01  0.78808098993E+01  0.25000419682E+00 0.  0.
    1000022    2    1    0    0    0  0.31265208048E+02 -0.11958961949E+02 -0.51823932536E+02  0.62500000909E+02  0.10000006247E+02 0.  0.
    3000022    2    5    5    0    0  0.30297217295E+02 -0.13141774340E+02 -0.48022017839E+02  0.58282109657E+02  0.25000021706E+00 0.  0.
        -13    1    4    4    0    0 -0.64663492351E+00  0.15874659528E+01  0.33543622684E+01  0.37684155958E+01  0.10500000000E+00 0. -1.
         13    1    4    4    0    0 -0.66779639193E+00  0.18573117884E+01  0.36062727027E+01  0.41123943034E+01  0.10500000000E+00 0.  1.
    3000001    1    5    5    0    0  0.96799075299E+00  0.11828123910E+01 -0.38019146968E+01  0.42178912518E+01  0.10000000000E+01 0.  1.
        -13    1    6    6    0    0  0.23158692128E+02 -0.10058716545E+02 -0.36698852906E+02  0.44545702702E+02  0.10500000000E+00 0.  1.
         13    1    6    6    0    0  0.71385251668E+01 -0.30830577945E+01 -0.11323164933E+02  0.13736406955E+02  0.10500000000E+00 0. -1.
</event>
<event>
11    0  0.3482687E-009  0.9118800E+02  0.7816531E-02  0.1126479E+00
         25   -1    0    0    0    0  0.00000000000E+00  0.00000000000E+00  0.99999998245E-14  0.12500000000E+03  0.12500000000E+03 0.  0.
    3000001    1    3    3    0    0 -0.17932262010E+02 -0.53533107515E+01 -0.25418155257E+02  0.31580161074E+02  0.10000000000E+01 0.  1.
    1000022    2    1    0    0    0 -0.39963437854E+02 -0.25663573619E+01 -0.46931734354E+02  0.62499999528E+02  0.99999848149E+01 0.  0.
    3000022    2    3    3    0    0 -0.22031175844E+02  0.27869533896E+01 -0.21513579097E+02  0.30919838453E+02  0.25001236847E+00 0.  0.
    1000022    2    1    0    0    0  0.39963437854E+02  0.25663573619E+01  0.46931734354E+02  0.62500000472E+02  0.99999907189E+01 0.  0.
    3000022    2    5    5    0    0  0.30735232224E+02  0.59249139117E+01  0.33741424485E+02  0.46025051134E+02  0.25000188123E+00 0.  0.
        -13    1    4    4    0    0 -0.94466006887E+01  0.11296408694E+01 -0.92047073931E+01  0.13238278448E+02  0.10500000000E+00 0.  1.
         13    1    4    4    0    0 -0.12584575155E+02  0.16573125201E+01 -0.12308871704E+02  0.17681560006E+02  0.10500000000E+00 0. -1.
    3000001    1    5    5    0    0  0.92282056300E+01 -0.33585565499E+01  0.13190309869E+02  0.16474949338E+02  0.10000000000E+01 0.  1.
        -13    1    6    6    0    0  0.22438856318E+02  0.43600434753E+01  0.24622581792E+02  0.33597541742E+02  0.10500000000E+00 0. -1.
         13    1    6    6    0    0  0.82963759056E+01  0.15648704364E+01  0.91188426925E+01  0.12427509392E+02  0.10500000000E+00 0.  1.
</event>
<event>
11    0  0.3482687E-009  0.9118800E+02  0.7816531E-02  0.1126479E+00
         25   -1    0    0    0    0  0.00000000000E+00  0.00000000000E+00  0.99999998245E-14  0.12500000000E+03  0.12500000000E+03 0.  0.
    3000001    1    3    3    0    0 -0.85035092420E+01 -0.25823701516E+02  0.43616254235E+02  0.51405747372E+02  0.10000000000E+01 0. -1.
    1000022    2    1    0    0    0 -0.61110424106E+01 -0.29699728081E+02  0.53729239308E+02  0.62500000591E+02  0.10000011492E+02 0.  0.
    3000022    2    3    3    0    0  0.23924668314E+01 -0.38760265655E+01  0.10112985073E+02  0.11094253219E+02  0.25001585020E+00 0.  0.
    1000022    2    1    0    0    0  0.61110424106E+01  0.29699728081E+02 -0.53729239308E+02  0.62499999409E+02  0.10000004103E+02 0.  0.
    3000022    2    5    5    0    0  0.40672613417E+01  0.28772373560E+01 -0.75975521482E+01  0.90888057322E+01  0.24996273579E+00 0.  0.
        -13    1    4    4    0    0  0.80620165020E+00 -0.12814920287E+01  0.34923606672E+01  0.38078591033E+01  0.10500000000E+00 0.  1.
         13    1    4    4    0    0  0.15862651812E+01 -0.25945345368E+01  0.66206244056E+01  0.72863941156E+01  0.10500000000E+00 0. -1.
    3000001    1    5    5    0    0  0.20437810689E+01  0.26822490725E+02 -0.46131687160E+02  0.53411193677E+02  0.10000000000E+01 0. -1.
        -13    1    6    6    0    0  0.21421579983E+01  0.15762343536E+01 -0.41370842264E+01  0.49193339512E+01  0.10500000000E+00 0. -1.
         13    1    6    6    0    0  0.19251033434E+01  0.13010030024E+01 -0.34604679218E+01  0.41694717811E+01  0.10500000000E+00 0.  1.
</event>
<event>
11    0  0.3482687E-009  0.9118800E+02  0.7816531E-02  0.1126479E+00
         25   -1    0    0    0    0  0.00000000000E+00  0.00000000000E+00  0.99999998245E-14  0.12500000000E+03  0.12500000000E+03 0.  0.
    3000001    1    3    3    0    0  0.18952227289E+02 -0.13323970119E+02  0.14408164303E+01  0.23233403774E+02  0.10000000000E+01 0.  1.
    1000022    2    1    0    0    0  0.52064098618E+02 -0.32037794953E+02 -0.83162177862E+01  0.62499998730E+02  0.99999846291E+01 0.  0.
    3000022    2    3    3    0    0  0.33111871329E+02 -0.18713824834E+02 -0.97570342166E+01  0.39266594955E+02  0.24999974114E+00 0.  0.
    1000022    2    1    0    0    0 -0.52064098618E+02  0.32037794953E+02  0.83162177862E+01  0.62500001270E+02  0.10000000510E+02 0.  0.
    3000022    2    5    5    0    0 -0.34947935290E+02  0.25399626260E+02  0.88754322812E+01  0.44105951919E+02  0.25000280197E+00 0.  0.
        -13    1    4    4    0    0  0.18622133824E+02 -0.10490432564E+02 -0.54221835611E+01  0.22050944268E+02  0.10500000000E+00 0.  1.
         13    1    4    4    0    0  0.14489737505E+02 -0.82233922700E+01 -0.43348506555E+01  0.17215650688E+02  0.10500000000E+00 0. -1.
    3000001    1    5    5    0    0 -0.17116163328E+02  0.66381686936E+01 -0.55921449495E+00  0.18394049351E+02  0.10000000000E+01 0.  1.
        -13    1    6    6    0    0 -0.16585422701E+02  0.12128110126E+02  0.41891816081E+01  0.20969682137E+02  0.10500000000E+00 0.  1.
         13    1    6    6    0    0 -0.18362512589E+02  0.13271516134E+02  0.46862506730E+01  0.23136269782E+02  0.10500000000E+00 0. -1.
</event>
<event>
11    0  0.3482687E-009  0.9118800E+02  0.7816531E-02  0.1126479E+00
         25   -1    0    0    0    0  0.00000000000E+00  0.00000000000E+00  0.99999998245E-14  0.12500000000E+03  0.12500000000E+03 0.  0.
    3000001    1    3    3    0    0 -0.34636039711E+01  0.90510805221E+01  0.59860604555E+01  0.11434663566E+02  0.10000000000E+01 0. -1.
    1000022    2    1    0    0    0 -0.31523933800E+02  0.50394350031E+02  0.16519711525E+02  0.62499998343E+02  0.10000000339E+02 0.  0.
    3000022    2    3    3    0    0 -0.28060329828E+02  0.41343269509E+02  0.10533651070E+02  0.51065334778E+02  0.25013457544E+00 0.  0.
    1000022    2    1    0    0    0  0.31523933800E+02 -0.50394350031E+02 -0.16519711525E+02  0.62500001657E+02  0.10000021047E+02 0.  0.
    3000022    2    5    5    0    0  0.82342253079E+01 -0.19794652928E+02 -0.92540151791E+01  0.23352302774E+02  0.24999388477E+00 0.  0.
        -13    1    4    4    0    0 -0.14189516922E+02  0.20900832508E+02  0.53950210561E+01  0.25832236976E+02  0.10500000000E+00 0. -1.
         13    1    4    4    0    0 -0.13870812907E+02  0.20442437001E+02  0.51386300135E+01  0.25233097802E+02  0.10500000000E+00 0.  1.
    3000001    1    5    5    0    0  0.23289708492E+02 -0.30599697103E+02 -0.72656963460E+01  0.39147698883E+02  0.10000000000E+01 0. -1.
        -13    1    6    6    0    0  0.58918352411E+01 -0.14231798707E+02 -0.66816566979E+01  0.16790276298E+02  0.10500000000E+00 0.  1.
         13    1    6    6    0    0  0.23423900668E+01 -0.55628542212E+01 -0.25723584813E+01  0.65620264757E+01  0.10500000000E+00 0. -1.
</event>
<event>
11    0  0.3482687E-009  0.9118800E+02  0.7816531E-02  0.1126479E+00
         25   -1    0    0    0    0  0.00000000000E+00  0.00000000000E+00  0.99999998245E-14  0.12500000000E+03  0.12500000000E+03 0.  0.
    3000001    1    3    3    0    0 -0.14969311791E+02  0.16752070724E+01 -0.21150366645E+02  0.25985084635E+02  0.10000000000E+01 0. -1.
    1000022    2    1    0    0    0 -0.40943255388E+02  0.12465992503E+02 -0.44435333258E+02  0.62499998919E+02  0.99999946124E+01 0.  0.
    3000022    2    3    3    0    0 -0.25973943597E+02  0.10790785430E+02 -0.23284966613E+02  0.36514914284E+02  0.24999770095E+00 0.  0.
    1000022    2    1    0    0    0  0.40943255388E+02 -0.12465992503E+02  0.44435333258E+02  0.62500001081E+02  0.10000008126E+02 0.  0.
    3000022    2    5    5    0    0  0.40862538720E+02 -0.12312763475E+02  0.42076049968E+02  0.59931691918E+02  0.25000032672E+00 0.  0.
        -13    1    4    4    0    0 -0.97927318154E+01  0.41139974321E+01 -0.87372484289E+01  0.13754021462E+02  0.10500000000E+00 0. -1.
         13    1    4    4    0    0 -0.16181211782E+02  0.66767879982E+01 -0.14547718184E+02  0.22760892822E+02  0.10500000000E+00 0.  1.
    3000001    1    5    5    0    0  0.80716668004E-01 -0.15322902753E+00  0.23592832900E+01  0.25683091632E+01  0.10000000000E+01 0.  1.
        -13    1    6    6    0    0  0.19420242968E+02 -0.57812214222E+01  0.19978755021E+02  0.28455755750E+02  0.10500000000E+00 0.  1.
         13    1    6    6    0    0  0.21442295752E+02 -0.65315420529E+01  0.22097294947E+02  0.31475936168E+02  0.10500000000E+00 0. -1.
</event>
<event>
11    0  0.3482687E-009  0.9118800E+02  0.7816531E-02  0.1126479E+00
         25   -1    0    0    0    0  0.00000000000E+00  0.00000000000E+00  0.99999998245E-14  0.12500000000E+03  0.12500000000E+03 0.  0.
    3000001    1    3    3    0    0 -0.12733159578E+02  0.30332043123E+02 -0.13223578319E+02  0.35468707566E+02  0.10000000000E+01 0. -1.
    1000022    2    1    0    0    0 -0.18582238831E+02  0.56552036082E+02 -0.16211645301E+02  0.62500000527E+02  0.10000011874E+02 0.  0.
    3000022    2    3    3    0    0 -0.58490792527E+01  0.26219992959E+02 -0.29880669818E+01  0.27031292960E+02  0.24999190802E+00 0.  0.
    1000022    2    1    0    0    0  0.18582238831E+02 -0.56552036082E+02  0.16211645301E+02  0.62499999473E+02  0.10000005292E+02 0.  0.
    3000022    2    5    5    0    0  0.67574586056E+01 -0.19045467703E+02  0.10415107787E+02  0.22736096922E+02  0.25009240604E+00 0.  0.
        -13    1    4    4    0    0 -0.36965448568E+01  0.16300992983E+02 -0.18739493134E+01  0.16819914599E+02  0.10500000000E+00 0. -1.
         13    1    4    4    0    0 -0.21525343959E+01  0.99189999760E+01 -0.11141176684E+01  0.10211378361E+02  0.10500000000E+00 0.  1.
    3000001    1    5    5    0    0  0.11824780225E+02 -0.37506568379E+02  0.57965375134E+01  0.39763902551E+02  0.10000000000E+01 0. -1.
        -13    1    6    6    0    0  0.26469434080E+01 -0.76482848601E+01  0.41641885218E+01  0.91024206534E+01  0.10500000000E+00 0.  1.
         13    1    6    6    0    0  0.41105151976E+01 -0.11397182843E+02  0.62509192653E+01  0.13633676269E+02  0.10500000000E+00 0. -1.
</event>
<event>
11    0  0.3482687E-009  0.9118800E+02  0.7816531E-02  0.1126479E+00
         25   -1    0    0    0    0  0.00000000000E+00  0.00000000000E+00  0.99999998245E-14  0.12500000000E+03  0.12500000000E+03 0.  0.
    3000001    1    3    3    0    0  0.19802691026E+02 -0.12270242399E+02  0.27883870125E+01  0.23483622432E+02  0.10000000000E+01 0.  1.
    1000022    2    1    0    0    0  0.45440642388E+02 -0.41673244972E+02  0.21768771602E+01  0.62499997875E+02  0.99999806523E+01 0.  0.
    3000022    2    3    3    0    0  0.25637951363E+02 -0.29403002573E+02 -0.61150985231E+00  0.39016375443E+02  0.24999609824E+00 0.  0.
    1000022    2    1    0    0    0 -0.45440642388E+02  0.41673244972E+02 -0.21768771602E+01  0.62500002125E+02  0.10000007216E+02 0.  0.
    3000022    2    5    5    0    0 -0.97365315158E+01  0.39636851275E+01 -0.31919210781E-01  0.10515434401E+02  0.24999211367E+00 0.  0.
        -13    1    4    4    0    0  0.97423215201E+01 -0.11228184983E+02 -0.18401651849E+00  0.14867072802E+02  0.10500000000E+00 0.  1.
         13    1    4    4    0    0  0.15895629843E+02 -0.18174817590E+02 -0.42749333382E+00  0.24149302642E+02  0.10500000000E+00 0. -1.
    3000001    1    5    5    0    0 -0.35704110873E+02  0.37709559844E+02 -0.21449579494E+01  0.51984567724E+02  0.10000000000E+01 0.  1.
        -13    1    6    6    0    0 -0.38864371526E+01  0.15311279352E+01  0.28641590310E-01  0.41785873014E+01  0.10500000000E+00 0.  1.
         13    1    6    6    0    0 -0.58500943632E+01  0.24325571923E+01 -0.60560801090E-01  0.63368470996E+01  0.10500000000E+00 0. -1.
</event>
<event>
11    0  0.3482687E-009  0.9118800E+02  0.7816531E-02  0.1126479E+00
         25   -1    0    0    0    0  0.00000000000E+00  0.00000000000E+00  0.99999998245E-14  0.12500000000E+03  0.12500000000E+03 0.  0.
    3000001    1    3    3    0    0  0.16177879166E+01  0.10314595354E+01 -0.98542695179E+01  0.10088992727E+02  0.10000000000E+01 0.  1.
    1000022    2    1    0    0    0  0.16305212862E+02 -0.14497920680E+02 -0.57707889721E+02  0.62499999073E+02  0.99999838791E+01 0.  0.
    3000022    2    3    3    0    0  0.14687424945E+02 -0.15529380215E+02 -0.47853620203E+02  0.52411006346E+02  0.25003653922E+00 0.  0.
    1000022    2    1    0    0    0 -0.16305212862E+02  0.14497920680E+02  0.57707889721E+02  0.62500000927E+02  0.99999954619E+01 0.  0.
    3000022    2    5    5    0    0 -0.84364141062E+01  0.14702912317E+01  0.24560401502E+02  0.26011741196E+02  0.25003770270E+00 0.  0.
        -13    1    4    4    0    0  0.58483033556E+01 -0.60979278544E+01 -0.18863558443E+02  0.20669596957E+02  0.10500000000E+00 0.  1.
         13    1    4    4    0    0  0.88391215898E+01 -0.94314523607E+01 -0.28990061761E+02  0.31741409389E+02  0.10500000000E+00 0. -1.
    3000001    1    5    5    0    0 -0.78687987557E+01  0.13027629448E+02  0.33147488220E+02  0.36488259731E+02  0.10000000000E+01 0.  1.
        -13    1    6    6    0    0 -0.64227385355E+01  0.11062475520E+01  0.18645319850E+02  0.19751818429E+02  0.10500000000E+00 0. -1.
         13    1    6    6    0    0 -0.20136755707E+01  0.36404367973E+00  0.59150816518E+01  0.62599227673E+01  0.10500000000E+00 0.  1.
</event>
<event>
11    0  0.3482687E-009  0.9118800E+02  0.7816531E-02  0.1126479E+00
         25   -1    0    0    0    0  0.00000000000E+00  0.00000000000E+00  0.99999998245E-14  0.12500000000E+03  0.12500000000E+03 0.  0.
    3000001    1    3    3    0    0 -0.26264290490E+02 -0.36930470458E+02 -0.25132857670E+01  0.45398118997E+02  0.10000000000E+01 0. -1.
    1000022    2    1    0    0    0 -0.37403700740E+02 -0.49013479629E+02  0.22117821856E+01  0.62500000157E+02  0.10000001243E+02 0.  0.
    3000022    2    3    3    0    0 -0.11139410250E+02 -0.12083009171E+02  0.47250679526E+01  0.17101881160E+02  0.25000140394E+00 0.  0.
    1000022    2    1    0    0    0  0.37403700740E+02  0.49013479629E+02 -0.22117821856E+01  0.62499999843E+02  0.99999992766E+01 0.  0.
    3000022    2    5    5    0    0  0.83890352347E+01  0.89499505838E+01 -0.42410303207E+01  0.12981770655E+02  0.25000705766E+00 0.  0.
        -13    1    4    4    0    0 -0.80961554263E+01 -0.87712459411E+01  0.33934958581E+01  0.12410049443E+02  0.10500000000E+00 0.  1.
         13    1    4    4    0    0 -0.30432548238E+01 -0.33117632301E+01  0.13315720945E+01  0.46918317167E+01  0.10500000000E+00 0. -1.
    3000001    1    5    5    0    0  0.29014665505E+02  0.40063529045E+02  0.20292481351E+01  0.49518229188E+02  0.10000000000E+01 0.  1.
        -13    1    6    6    0    0  0.40864147043E+01  0.43511760262E+01 -0.21351696559E+01  0.63404646838E+01  0.10500000000E+00 0. -1.
         13    1    6    6    0    0  0.43026205304E+01  0.45987745576E+01 -0.21058606648E+01  0.66413059710E+01  0.10500000000E+00 0.  1.
</event>
<event>
11    0  0.3482687E-009  0.9118800E+02  0.7816531E-02  0.1126479E+00
         25   -1    0    0    0    0  0.00000000000E+00  0.00000000000E+00  0.99999998245E-14  0.12500000000E+03  0.12500000000E+03 0.  0.
    3000001    1    3    3    0    0  0.60365394238E+01 -0.72744953677E+00 -0.36253596106E+01  0.71492813171E+01  0.10000000000E+01 0.  1.
    1000022    2    1    0    0    0  0.59351008402E+02 -0.15093071321E+02 -0.74770965376E+01  0.62500000093E+02  0.10000001938E+02 0.  0.
    3000022    2    3    3    0    0  0.53314468979E+02 -0.14365621784E+02 -0.38517369270E+01  0.55350718776E+02  0.24999997246E+00 0.  0.
    1000022    2    1    0    0    0 -0.59351008402E+02  0.15093071321E+02  0.74770965376E+01  0.62499999907E+02  0.10000000773E+02 0.  0.
    3000022    2    5    5    0    0 -0.41523001741E+02  0.15099899526E+02  0.47901769483E+01  0.44442940207E+02  0.24999944027E+00 0.  0.
        -13    1    4    4    0    0  0.23493778482E+02 -0.63789648543E+01 -0.17450568313E+01  0.24407070048E+02  0.10500000000E+00 0.  1.
         13    1    4    4    0    0  0.29820690496E+02 -0.79866569295E+01 -0.21066800957E+01  0.30943648728E+02  0.10500000000E+00 0. -1.
    3000001    1    5    5    0    0 -0.17828006661E+02 -0.68282055888E-02  0.26869195894E+01  0.18057059700E+02  0.10000000000E+01 0. -1.
        -13    1    6    6    0    0 -0.26791250421E+02  0.97885184951E+01  0.30544707587E+01  0.28686704413E+02  0.10500000000E+00 0.  1.
         13    1    6    6    0    0 -0.14731751320E+02  0.53113810311E+01  0.17357061896E+01  0.15756235794E+02  0.10500000000E+00 0. -1.
</event>
<event>
11    0  0.3482687E-009  0.9118800E+02  0.7816531E-02  0.1126479E+00
         25   -1    0    0    0    0  0.00000000000E+00  0.00000000000E+00  0.99999998245E-14  0.12500000000E+03  0.12500000000E+03 0.  0.
    3000001    1    3    3    0    0 -0.14317640502E+01 -0.56581276856E+01  0.87138626753E+00  0.59852878986E+01  0.10000000000E+01 0.  1.
    1000022    2    1    0    0    0 -0.19921162947E+02 -0.46769551457E+02  0.34957205594E+02  0.62499999371E+02  0.10000001089E+02 0.  0.
    3000022    2    3    3    0    0 -0.18489398897E+02 -0.41111423771E+02  0.34085819326E+02  0.56514711472E+02  0.24999512956E+00 0.  0.
    1000022    2    1    0    0    0  0.19921162947E+02  0.46769551457E+02 -0.34957205594E+02  0.62500000629E+02  0.10000008954E+02 0.  0.
    3000022    2    5    5    0    0  0.28554457631E+01  0.13908191213E+02 -0.57179420566E+01  0.15308452315E+02  0.24999519639E+00 0.  0.
        -13    1    4    4    0    0 -0.11491197929E+02 -0.25536039294E+02  0.21249761632E+02  0.35152529455E+02  0.10500000000E+00 0. -1.
         13    1    4    4    0    0 -0.69982009681E+01 -0.15575384477E+02  0.12836057694E+02  0.21362182017E+02  0.10500000000E+00 0.  1.
    3000001    1    5    5    0    0  0.17065717184E+02  0.32861360244E+02 -0.29239263537E+02  0.47191548314E+02  0.10000000000E+01 0. -1.
        -13    1    6    6    0    0  0.19934239936E+01  0.95500844133E+01 -0.38884470589E+01  0.10502804247E+02  0.10500000000E+00 0. -1.
         13    1    6    6    0    0  0.86202176949E+00  0.43581067995E+01 -0.18294949977E+01  0.48056480680E+01  0.10500000000E+00 0.  1.
</event>
<event>
11    0  0.3482687E-009  0.9118800E+02  0.7816531E-02  0.1126479E+00
         25   -1    0    0    0    0  0.00000000000E+00  0.00000000000E+00  0.99999998245E-14  0.12500000000E+03  0.12500000000E+03 0.  0.
    3000001    1    3    3    0    0 -0.26993440919E+01  0.33175702031E+02 -0.84761494603E+01  0.34362170674E+02  0.10000000000E+01 0. -1.
    1000022    2    1    0    0    0 -0.57888927803E+00  0.61219409446E+02 -0.76222521785E+01  0.62500001289E+02  0.10000011353E+02 0.  0.
    3000022    2    3    3    0    0  0.21204548139E+01  0.28043707415E+02  0.85389728186E+00  0.28137830614E+02  0.25003379280E+00 0.  0.
    1000022    2    1    0    0    0  0.57888927803E+00 -0.61219409446E+02  0.76222521785E+01  0.62499998711E+02  0.99999952440E+01 0.  0.
    3000022    2    5    5    0    0  0.10947167421E+01 -0.73408025249E+01  0.41282071126E+01  0.84964922261E+01  0.24999945704E+00 0.  0.
        -13    1    4    4    0    0  0.71915840588E+00  0.10171677879E+02  0.27888702137E+00  0.10201422580E+02  0.10500000000E+00 0. -1.
         13    1    4    4    0    0  0.14012964080E+01  0.17872029537E+02  0.57501026049E+00  0.17936408035E+02  0.10500000000E+00 0.  1.
    3000001    1    5    5    0    0 -0.51582746411E+00 -0.53878606922E+02  0.34940450658E+01  0.54003506485E+02  0.10000000000E+01 0.  1.
        -13    1    6    6    0    0  0.46546488998E+00 -0.34640616354E+01  0.19950505437E+01  0.40258703717E+01  0.10500000000E+00 0. -1.
         13    1    6    6    0    0  0.62925185216E+00 -0.38767408894E+01  0.21331565690E+01  0.44706218544E+01  0.10500000000E+00 0.  1.
</event>
<event>
11    0  0.3482687E-009  0.9118800E+02  0.7816531E-02  0.1126479E+00
         25   -1    0    0    0    0  0.00000000000E+00  0.00000000000E+00  0.99999998245E-14  0.12500000000E+03  0.12500000000E+03 0.  0.
    3000001    1    3    3    0    0  0.11373314821E+02  0.19740516528E+02 -0.59825224839E+00  0.22812237693E+02  0.10000000000E+01 0.  1.
    1000022    2    1    0    0    0  0.19986063670E+02  0.57940162184E+02 -0.70529888057E+01  0.62500000514E+02  0.10000013912E+02 0.  0.
    3000022    2    3    3    0    0  0.86127488488E+01  0.38199645656E+02 -0.64547365573E+01  0.39687762821E+02  0.25004547646E+00 0.  0.
    1000022    2    1    0    0    0 -0.19986063670E+02 -0.57940162184E+02  0.70529888057E+01  0.62499999486E+02  0.10000007490E+02 0.  0.
    3000022    2    5    5    0    0 -0.60778386776E+01 -0.19870238259E+02 -0.22534213497E+01  0.20902318060E+02  0.25000207472E+00 0.  0.
        -13    1    4    4    0    0  0.24279909314E+01  0.10852614119E+02 -0.18703920782E+01  0.11277577962E+02  0.10500000000E+00 0. -1.
         13    1    4    4    0    0  0.61847579174E+01  0.27347031537E+02 -0.45843444791E+01  0.28410184858E+02  0.10500000000E+00 0.  1.
    3000001    1    5    5    0    0 -0.13908224992E+02 -0.38069923924E+02  0.93064101554E+01  0.41597681426E+02  0.10000000000E+01 0. -1.
        -13    1    6    6    0    0 -0.21916147414E+01 -0.73233733058E+01 -0.86618089897E+00  0.76939109756E+01  0.10500000000E+00 0. -1.
         13    1    6    6    0    0 -0.38862239362E+01 -0.12546864953E+02 -0.13872404507E+01  0.13208407084E+02  0.10500000000E+00 0.  1.
</event>
<event>
11    0  0.3482687E-009  0.9118800E+02  0.7816531E-02  0.1126479E+00
         25   -1    0    0    0    0  0.00000000000E+00  0.00000000000E+00  0.99999998245E-14  0.12500000000E+03  0.12500000000E+03 0.  0.
    3000001    1    3    3    0    0 -0.84596756483E+01  0.15034245249E+01  0.21767792071E+01  0.89199083567E+01  0.10000000000E+01 0. -1.
    1000022    2    1    0    0    0 -0.48115536455E+02  0.27997407510E+02  0.26594919874E+02  0.62500002820E+02  0.10000045685E+02 0.  0.
    3000022    2    3    3    0    0 -0.39655860807E+02  0.26493982985E+02  0.24418140667E+02  0.53580094463E+02  0.24999654019E+00 0.  0.
    1000022    2    1    0    0    0  0.48115536455E+02 -0.27997407510E+02 -0.26594919874E+02  0.62499997180E+02  0.10000010438E+02 0.  0.
    3000022    2    5    5    0    0  0.32192780665E+02 -0.22500445400E+02 -0.15088430704E+02  0.42075745972E+02  0.24997570371E+00 0.  0.
        -13    1    4    4    0    0 -0.11472407131E+02  0.76735553412E+01  0.71141213864E+01  0.15528081821E+02  0.10500000000E+00 0. -1.
         13    1    4    4    0    0 -0.28183453676E+02  0.18820427644E+02  0.17304019280E+02  0.38052012642E+02  0.10500000000E+00 0.  1.
    3000001    1    5    5    0    0  0.15922755790E+02 -0.54969621103E+01 -0.11506489170E+02  0.20424251208E+02  0.10000000000E+01 0. -1.
        -13    1    6    6    0    0  0.22267658052E+02 -0.15547587117E+02 -0.10383494917E+02  0.29075832783E+02  0.10500000000E+00 0. -1.
         13    1    6    6    0    0  0.99251226125E+01 -0.69528582828E+01 -0.47049357862E+01  0.12999913189E+02  0.10500000000E+00 0.  1.
</event>
<event>
11    0  0.3482687E-009  0.9118800E+02  0.7816531E-02  0.1126479E+00
         25   -1    0    0    0    0  0.00000000000E+00  0.00000000000E+00  0.99999998245E-14  0.12500000000E+03  0.12500000000E+03 0.  0.
    3000001    1    3    3    0    0  0.31630050490E+01  0.32939796870E+02 -0.10126989180E+02  0.34620669096E+02  0.10000000000E+01 0.  1.
    1000022    2    1    0    0    0  0.10944913994E+02  0.59691982239E+02 -0.11105227396E+02  0.62499997971E+02  0.99999892440E+01 0.  0.
    3000022    2    3    3    0    0  0.77819089454E+01  0.26752185369E+02 -0.97823821613E+00  0.27879328875E+02  0.24999935541E+00 0.  0.
    1000022    2    1    0    0    0 -0.10944913994E+02 -0.59691982239E+02  0.11105227396E+02  0.62500002029E+02  0.10000014608E+02 0.  0.
    3000022    2    5    5    0    0  0.16277653085E+01 -0.12182132222E+02  0.11502550989E+01  0.12346641355E+02  0.25000115699E+00 0.  0.
        -13    1    4    4    0    0  0.20166099684E+01  0.69311869040E+01 -0.28468242957E+00  0.72249662108E+01  0.10500000000E+00 0. -1.
         13    1    4    4    0    0  0.57652989770E+01  0.19820998465E+02 -0.69355578657E+00  0.20654362664E+02  0.10500000000E+00 0.  1.
    3000001    1    5    5    0    0 -0.12572679303E+02 -0.47509850017E+02  0.99549722973E+01  0.50153360675E+02  0.10000000000E+01 0.  1.
        -13    1    6    6    0    0  0.53771918474E+00 -0.44276219720E+01  0.44147182267E+00  0.44831797442E+01  0.10500000000E+00 0. -1.
         13    1    6    6    0    0  0.10900461237E+01 -0.77545102497E+01  0.70878327618E+00  0.78634616103E+01  0.10500000000E+00 0.  1.
</event>
<event>
11    0  0.3482687E-009  0.9118800E+02  0.7816531E-02  0.1126479E+00
         25   -1    0    0    0    0  0.00000000000E+00  0.00000000000E+00  0.99999998245E-14  0.12500000000E+03  0.12500000000E+03 0.  0.
    3000001    1    3    3    0    0  0.16794818251E+02 -0.72228060750E+01 -0.18626008317E+02  0.26118250966E+02  0.10000000000E+01 0. -1.
    1000022    2    1    0    0    0  0.42089129661E+02 -0.25885745241E+02 -0.36941621149E+02  0.62500000007E+02  0.99999992749E+01 0.  0.
    3000022    2    3    3    0    0  0.25294311410E+02 -0.18662939166E+02 -0.18315612832E+02  0.36381749042E+02  0.25000379855E+00 0.  0.
    1000022    2    1    0    0    0 -0.42089129661E+02  0.25885745241E+02  0.36941621149E+02  0.62499999993E+02  0.99999991829E+01 0.  0.
    3000022    2    5    5    0    0 -0.33194650259E+02  0.15467369070E+02  0.28165707639E+02  0.46200583322E+02  0.25000135708E+00 0.  0.
        -13    1    4    4    0    0  0.14175986137E+02 -0.10539305042E+02 -0.10310137835E+02  0.20453496056E+02  0.10500000000E+00 0. -1.
         13    1    4    4    0    0  0.11118325272E+02 -0.81236341246E+01 -0.80054749968E+01  0.15928252986E+02  0.10500000000E+00 0.  1.
    3000001    1    5    5    0    0 -0.88944794018E+01  0.10418376172E+02  0.87759135092E+01  0.16299416671E+02  0.10000000000E+01 0. -1.
        -13    1    6    6    0    0 -0.20743554383E+02  0.97060718350E+01  0.17553712292E+02  0.28855618502E+02  0.10500000000E+00 0. -1.
         13    1    6    6    0    0 -0.12451095876E+02  0.57612972347E+01  0.10611995347E+02  0.17344964819E+02  0.10500000000E+00 0.  1.
</event>
<event>
11    0  0.3482687E-009  0.9118800E+02  0.7816531E-02  0.1126479E+00
         25   -1    0    0    0    0  0.00000000000E+00  0.00000000000E+00  0.99999998245E-14  0.12500000000E+03  0.12500000000E+03 0.  0.
    3000001    1    3    3    0    0  0.34915703388E+02  0.35501769810E+02 -0.34290640856E+02  0.60467595066E+02  0.10000000000E+01 0. -1.
    1000022    2    1    0    0    0  0.36301197052E+02  0.34911465690E+02 -0.35632326291E+02  0.62500000182E+02  0.10000000089E+02 0.  0.
    3000022    2    3    3    0    0  0.13854936642E+01 -0.59030412032E+00 -0.13416854355E+01  0.20324051162E+01  0.24999820102E+00 0.  0.
    1000022    2    1    0    0    0 -0.36301197052E+02 -0.34911465690E+02  0.35632326291E+02  0.62499999818E+02  0.99999978125E+01 0.  0.
    3000022    2    5    5    0    0 -0.12916181535E+02 -0.64348068328E+01  0.11326040316E+02  0.18346012588E+02  0.25000840965E+00 0.  0.
        -13    1    4    4    0    0  0.83830232550E+00 -0.39362409147E+00 -0.75152506696E+00  0.11972909590E+01  0.10500000000E+00 0.  1.
         13    1    4    4    0    0  0.54719133872E+00 -0.19668002885E+00 -0.59016036854E+00  0.83511415717E+00  0.10500000000E+00 0. -1.
    3000001    1    5    5    0    0 -0.23385015517E+02 -0.28476658857E+02  0.24306285975E+02  0.44153987230E+02  0.10000000000E+01 0. -1.
        -13    1    6    6    0    0 -0.69503592808E+01 -0.34470688907E+01  0.61726334792E+01  0.99147469528E+01  0.10500000000E+00 0.  1.
         13    1    6    6    0    0 -0.59658222543E+01 -0.29877379422E+01  0.51534068370E+01  0.84312656351E+01  0.10500000000E+00 0. -1.
</event>
<event>
11    0  0.3482687E-009  0.9118800E+02  0.7816531E-02  0.1126479E+00
         25   -1    0    0    0    0  0.00000000000E+00  0.00000000000E+00  0.99999998245E-14  0.12500000000E+03  0.12500000000E+03 0.  0.
    3000001    1    3    3    0    0 -0.19148078639E+01 -0.25210320741E+00  0.18591567847E+01  0.28612076354E+01  0.10000000000E+01 0.  1.
    1000022    2    1    0    0    0 -0.76847251613E+01 -0.16908969691E+02  0.58832658289E+02  0.62499999744E+02  0.10000001495E+02 0.  0.
    3000022    2    3    3    0    0 -0.57699172974E+01 -0.16656866483E+02  0.56973501504E+02  0.59638792109E+02  0.25000782613E+00 0.  0.
    1000022    2    1    0    0    0  0.76847251613E+01  0.16908969691E+02 -0.58832658289E+02  0.62500000256E+02  0.10000004694E+02 0.  0.
    3000022    2    5    5    0    0  0.62514316213E+01  0.14341863826E+02 -0.56470454191E+02  0.58598158244E+02  0.24999535211E+00 0.  0.
        -13    1    4    4    0    0 -0.24281582507E+01 -0.68141313112E+01  0.23381271342E+02  0.24474950717E+02  0.10500000000E+00 0.  1.
         13    1    4    4    0    0 -0.33417590466E+01 -0.98427351720E+01  0.33592230162E+02  0.35163841392E+02  0.10500000000E+00 0. -1.
    3000001    1    5    5    0    0  0.14332935400E+01  0.25671058644E+01 -0.23622040976E+01  0.39018420124E+01  0.10000000000E+01 0. -1.
        -13    1    6    6    0    0  0.46451825210E+01  0.10644453455E+02 -0.42029065742E+02  0.43604306004E+02  0.10500000000E+00 0. -1.
         13    1    6    6    0    0  0.16062491002E+01  0.36974103714E+01 -0.14441388449E+02  0.14993852239E+02  0.10500000000E+00 0.  1.
</event>
<event>
11    0  0.3482687E-009  0.9118800E+02  0.7816531E-02  0.1126479E+00
         25   -1    0    0    0    0  0.00000000000E+00  0.00000000000E+00  0.99999998245E-14  0.12500000000E+03  0.12500000000E+03 0.  0.
    3000001    1    3    3    0    0  0.62315386479E+01  0.15303205775E+02  0.38136912290E+01  0.16987184042E+02  0.10000000000E+01 0.  1.
    1000022    2    1    0    0    0  0.21018486423E+02  0.57975389973E+02 -0.18241087862E+01  0.62500000020E+02  0.10000000779E+02 0.  0.
    3000022    2    3    3    0    0  0.14786947775E+02  0.42672184199E+02 -0.56378000153E+01  0.45512815978E+02  0.25000082994E+00 0.  0.
    1000022    2    1    0    0    0 -0.21018486423E+02 -0.57975389973E+02  0.18241087862E+01  0.62499999980E+02  0.10000000530E+02 0.  0.
    3000022    2    5    5    0    0 -0.58547331022E+01 -0.29879344186E+02  0.24927587143E+01  0.30550441354E+02  0.25002453809E+00 0.  0.
        -13    1    4    4    0    0  0.84072185264E+01  0.24064022787E+02 -0.31694482766E+01  0.25686863246E+02  0.10500000000E+00 0.  1.
         13    1    4    4    0    0  0.63797292484E+01  0.18608161412E+02 -0.24683517386E+01  0.19825952732E+02  0.10500000000E+00 0. -1.
    3000001    1    5    5    0    0 -0.15163753320E+02 -0.28096045788E+02 -0.66864992805E+00  0.31949558626E+02  0.10000000000E+01 0. -1.
        -13    1    6    6    0    0 -0.26407758454E+01 -0.13468583797E+02  0.11906081942E+01  0.13776974248E+02  0.10500000000E+00 0. -1.
         13    1    6    6    0    0 -0.32139572569E+01 -0.16410760389E+02  0.13021505201E+01  0.16773467106E+02  0.10500000000E+00 0.  1.
</event>
<event>
11    0  0.3482687E-009  0.9118800E+02  0.7816531E-02  0.1126479E+00
         25   -1    0    0    0    0  0.00000000000E+00  0.00000000000E+00  0.99999998245E-14  0.12500000000E+03  0.12500000000E+03 0.  0.
    3000001    1    3    3    0    0 -0.71280560991E+01 -0.13881937829E+02  0.33799302928E+01  0.15998165846E+02  0.10000000000E+01 0.  1.
    1000022    2    1    0    0    0 -0.37144038363E+02 -0.43859453768E+02  0.22425857450E+02  0.62499999011E+02  0.99999761612E+01 0.  0.
    3000022    2    3    3    0    0 -0.30015982264E+02 -0.29977515939E+02  0.19045927157E+02  0.46501833165E+02  0.24998656818E+00 0.  0.
    1000022    2    1    0    0    0  0.37144038363E+02  0.43859453768E+02 -0.22425857450E+02  0.62500000989E+02  0.99999885252E+01 0.  0.
    3000022    2    5    5    0    0  0.12637645145E+01 -0.28721758918E+00  0.58069002163E-01  0.13211681129E+01  0.25003696107E+00 0.  0.
        -13    1    4    4    0    0 -0.15232826703E+02 -0.15268561833E+02  0.96224638579E+01  0.23617172259E+02  0.10500000000E+00 0. -1.
         13    1    4    4    0    0 -0.14783155561E+02 -0.14708954106E+02  0.94234632995E+01  0.22884660906E+02  0.10500000000E+00 0.  1.
    3000001    1    5    5    0    0  0.35880273849E+02  0.44146671357E+02 -0.22483926452E+02  0.61178832876E+02  0.10000000000E+01 0.  1.
        -13    1    6    6    0    0  0.67467287137E+00 -0.16135744682E+00  0.97919106772E-01  0.70840162372E+00  0.10500000000E+00 0. -1.
         13    1    6    6    0    0  0.58909164309E+00 -0.12586014236E+00 -0.39850104609E-01  0.61276648916E+00  0.10500000000E+00 0.  1.
</event>
<event>
11    0  0.3482687E-009  0.9118800E+02  0.7816531E-02  0.1126479E+00
         25   -1    0    0    0    0  0.00000000000E+00  0.00000000000E+00  0.99999998245E-14  0.12500000000E+03  0.12500000000E+03 0.  0.
    3000001    1    3    3    0    0  0.18190707091E+01  0.84848000732E+01  0.10757585187E+02  0.13857362288E+02  0.10000000000E+01 0. -1.
    1000022    2    1    0    0    0  0.19140413744E+02  0.46177611741E+02  0.36159685159E+02  0.62499999559E+02  0.99999924783E+01 0.  0.
    3000022    2    3    3    0    0  0.17321343035E+02  0.37692811668E+02  0.25402099972E+02  0.48642637270E+02  0.25000326164E+00 0.  0.
    1000022    2    1    0    0    0 -0.19140413744E+02 -0.46177611741E+02 -0.36159685159E+02  0.62500000441E+02  0.99999979968E+01 0.  0.
    3000022    2    5    5    0    0 -0.24316151948E+01 -0.17745282183E+02 -0.14315938848E+02  0.22930687003E+02  0.25001824906E+00 0.  0.
        -13    1    4    4    0    0  0.62450258128E+01  0.13569391995E+02  0.90798528404E+01  0.17480946746E+02  0.10500000000E+00 0.  1.
         13    1    4    4    0    0  0.11076317222E+02  0.24123419673E+02  0.16322247132E+02  0.31161690524E+02  0.10500000000E+00 0. -1.
    3000001    1    5    5    0    0 -0.16708798549E+02 -0.28432329558E+02 -0.21843746311E+02  0.39569313438E+02  0.10000000000E+01 0.  1.
        -13    1    6    6    0    0 -0.97250204888E+00 -0.72807453143E+01 -0.57957671244E+01  0.93571872979E+01  0.10500000000E+00 0. -1.
         13    1    6    6    0    0 -0.14591131459E+01 -0.10464536869E+02 -0.85201717234E+01  0.13573499705E+02  0.10500000000E+00 0.  1.
</event>
<event>
11    0  0.3482687E-009  0.9118800E+02  0.7816531E-02  0.1126479E+00
         25   -1    0    0    0    0  0.00000000000E+00  0.00000000000E+00  0.99999998245E-14  0.12500000000E+03  0.12500000000E+03 0.  0.
    3000001    1    3    3    0    0 -0.81486280364E+01 -0.22340980448E+02 -0.52704116236E+02  0.57829433808E+02  0.10000000000E+01 0. -1.
    1000022    2    1    0    0    0 -0.65401408741E+01 -0.22481011904E+02 -0.57079595148E+02  0.62499995811E+02  0.99999977575E+01 0.  0.
    3000022    2    3    3    0    0  0.16084871624E+01 -0.14003145602E+00 -0.43754789123E+01  0.46705620033E+01  0.24998790878E+00 0.  0.
    1000022    2    1    0    0    0  0.65401408741E+01  0.22481011904E+02  0.57079595148E+02  0.62500004189E+02  0.10000050122E+02 0.  0.
    3000022    2    5    5    0    0  0.70631316784E+00  0.17171148038E+02  0.43366325097E+02  0.46648128102E+02  0.24999950648E+00 0.  0.
        -13    1    4    4    0    0  0.69731010523E+00 -0.14506656885E-01 -0.17592839833E+01  0.18954041680E+01  0.10500000000E+00 0. -1.
         13    1    4    4    0    0  0.91117705714E+00 -0.12552479913E+00 -0.26161949289E+01  0.27751578353E+01  0.10500000000E+00 0.  1.
    3000001    1    5    5    0    0  0.58338277062E+01  0.53098638663E+01  0.13713270051E+02  0.15851876087E+02  0.10000000000E+01 0.  1.
        -13    1    6    6    0    0  0.42493953650E+00  0.99744781864E+01  0.25362811842E+02  0.27257183241E+02  0.10500000000E+00 0. -1.
         13    1    6    6    0    0  0.28137363134E+00  0.71966698517E+01  0.18003513255E+02  0.19390944861E+02  0.10500000000E+00 0.  1.
</event>
<event>
11    0  0.3482687E-009  0.9118800E+02  0.7816531E-02  0.1126479E+00
         25   -1    0    0    0    0  0.00000000000E+00  0.00000000000E+00  0.99999998245E-14  0.12500000000E+03  0.12500000000E+03 0.  0.
    3000001    1    3    3    0    0 -0.29071244410E+02  0.86800011098E+01 -0.13219238547E+02  0.33109333104E+02  0.10000000000E+01 0.  1.
    1000022    2    1    0    0    0 -0.54784493905E+02  0.22201146953E+02 -0.17664042851E+02  0.62500001163E+02  0.10000001853E+02 0.  0.
    3000022    2    3    3    0    0 -0.25713249495E+02  0.13521145843E+02 -0.44448043041E+01  0.29390668059E+02  0.24999831032E+00 0.  0.
    1000022    2    1    0    0    0  0.54784493905E+02 -0.22201146953E+02  0.17664042851E+02  0.62499998837E+02  0.99999873191E+01 0.  0.
    3000022    2    5    5    0    0  0.36055703425E+02 -0.19532937170E+02  0.12144370810E+02  0.42767950902E+02  0.24999603350E+00 0.  0.
        -13    1    4    4    0    0 -0.15099138499E+02  0.80122283623E+01 -0.26145338792E+01  0.17292385582E+02  0.10500000000E+00 0. -1.
         13    1    4    4    0    0 -0.10614110997E+02  0.55089174806E+01 -0.18302704250E+01  0.12098282477E+02  0.10500000000E+00 0.  1.
    3000001    1    5    5    0    0  0.18728790480E+02 -0.26682097828E+01  0.55196720405E+01  0.19732047935E+02  0.10000000000E+01 0.  1.
        -13    1    6    6    0    0  0.19291091512E+02 -0.10382158275E+02  0.64570074206E+01  0.22839426263E+02  0.10500000000E+00 0. -1.
         13    1    6    6    0    0  0.16764611913E+02 -0.91507788948E+01  0.56873633899E+01  0.19928524639E+02  0.10500000000E+00 0.  1.
</event>
<event>
11    0  0.3482687E-009  0.9118800E+02  0.7816531E-02  0.1126479E+00
         25   -1    0    0    0    0  0.00000000000E+00  0.00000000000E+00  0.99999998245E-14  0.12500000000E+03  0.12500000000E+03 0.  0.
    3000001    1    3    3    0    0 -0.44053663475E+01 -0.28701944943E+01  0.21345895531E+00  0.53563825308E+01  0.10000000000E+01 0. -1.
    1000022    2    1    0    0    0 -0.33463237517E+02 -0.48958235792E+02 -0.17016255033E+02  0.62499999614E+02  0.99999949664E+01 0.  0.
    3000022    2    3    3    0    0 -0.29057871170E+02 -0.46088041298E+02 -0.17229713988E+02  0.57143617083E+02  0.25000317940E+00 0.  0.
    1000022    2    1    0    0    0  0.33463237517E+02  0.48958235792E+02  0.17016255033E+02  0.62500000386E+02  0.99999997967E+01 0.  0.
    3000022    2    5    5    0    0  0.19718319705E+02  0.28352241757E+02  0.48136158038E+01  0.34869688047E+02  0.25000544169E+00 0.  0.
        -13    1    4    4    0    0 -0.12973955222E+02 -0.20646201562E+02 -0.77695193170E+01  0.25592295881E+02  0.10500000000E+00 0.  1.
         13    1    4    4    0    0 -0.16083915948E+02 -0.25441839736E+02 -0.94601946710E+01  0.31551321202E+02  0.10500000000E+00 0. -1.
    3000001    1    5    5    0    0  0.13744917812E+02  0.20605994035E+02  0.12202639229E+02  0.27630312340E+02  0.10000000000E+01 0. -1.
        -13    1    6    6    0    0  0.70641094649E+01  0.10259013304E+02  0.17330562689E+01  0.12576307309E+02  0.10500000000E+00 0. -1.
         13    1    6    6    0    0  0.12654210240E+02  0.18093228453E+02  0.30805595349E+01  0.22293380737E+02  0.10500000000E+00 0.  1.
</event>
<event>
11    0  0.3482687E-009  0.9118800E+02  0.7816531E-02  0.1126479E+00
         25   -1    0    0    0    0  0.00000000000E+00  0.00000000000E+00  0.99999998245E-14  0.12500000000E+03  0.12500000000E+03 0.  0.
    3000001    1    3    3    0    0 -0.95863963497E+01  0.23364430219E+01  0.33971705038E+01  0.10483259436E+02  0.10000000000E+01 0.  1.
    1000022    2    1    0    0    0 -0.59398917882E+02 -0.69338480396E+01  0.15163781623E+02  0.62499999513E+02  0.99999985860E+01 0.  0.
    3000022    2    3    3    0    0 -0.49812521533E+02 -0.92702910615E+01  0.11766611120E+02  0.52016740077E+02  0.25002632492E+00 0.  0.
    1000022    2    1    0    0    0  0.59398917882E+02  0.69338480396E+01 -0.15163781623E+02  0.62500000487E+02  0.10000004680E+02 0.  0.
    3000022    2    5    5    0    0  0.25089048454E+02 -0.19716902714E+01 -0.59397977812E+01  0.25859072133E+02  0.24999803662E+00 0.  0.
        -13    1    4    4    0    0 -0.11615876378E+02 -0.21555612332E+01  0.27547225509E+01  0.12131551821E+02  0.10500000000E+00 0. -1.
         13    1    4    4    0    0 -0.38196645155E+02 -0.71147298283E+01  0.90118885688E+01  0.39885188256E+02  0.10500000000E+00 0.  1.
    3000001    1    5    5    0    0  0.34309869428E+02  0.89055383111E+01 -0.92239838422E+01  0.36640928355E+02  0.10000000000E+01 0.  1.
        -13    1    6    6    0    0  0.13561696893E+02 -0.10651269066E+01 -0.32795763144E+01  0.13993597241E+02  0.10500000000E+00 0.  1.
         13    1    6    6    0    0  0.11527351561E+02 -0.90656336485E+00 -0.26602214669E+01  0.11865474891E+02  0.10500000000E+00 0. -1.
</event>
<event>
11    0  0.3482687E-009  0.9118800E+02  0.7816531E-02  0.1126479E+00
         25   -1    0    0    0    0  0.00000000000E+00  0.00000000000E+00  0.99999998245E-14  0.12500000000E+03  0.12500000000E+03 0.  0.
    3000001    1    3    3    0    0 -0.69944621030E+01 -0.22199764064E+02  0.81354844443E+01  0.24676671813E+02  0.10000000000E+01 0.  1.
    1000022    2    1    0    0    0 -0.27879122994E+02 -0.49938516779E+02  0.23133288717E+02  0.62499999581E+02  0.99999971857E+01 0.  0.
    3000022    2    3    3    0    0 -0.20884660891E+02 -0.27738752714E+02  0.14997804273E+02  0.37823327768E+02  0.25005542078E+00 0.  0.
    1000022    2    1    0    0    0  0.27879122994E+02  0.49938516779E+02 -0.23133288717E+02  0.62500000419E+02  0.10000002428E+02 0.  0.
    3000022    2    5    5    0    0  0.20257248933E+02  0.27992197480E+02 -0.10947040008E+02  0.36246647252E+02  0.24999585617E+00 0.  0.
        -13    1    4    4    0    0 -0.88747246934E+01 -0.11895649623E+02  0.64045854804E+01  0.16164682444E+02  0.10500000000E+00 0.  1.
         13    1    4    4    0    0 -0.12009936198E+02 -0.15843103091E+02  0.85932187923E+01  0.21658645324E+02  0.10500000000E+00 0. -1.
    3000001    1    5    5    0    0  0.76218740610E+01  0.21946319299E+02 -0.12186248709E+02  0.26253353168E+02  0.10000000000E+01 0.  1.
        -13    1    6    6    0    0  0.14989530878E+02  0.20661992384E+02 -0.80747002524E+01  0.26773415441E+02  0.10500000000E+00 0.  1.
         13    1    6    6    0    0  0.52677180559E+01  0.73302050960E+01 -0.28723397560E+01  0.94732318107E+01  0.10500000000E+00 0. -1.
</event>
<event>
11    0  0.3482687E-009  0.9118800E+02  0.7816531E-02  0.1126479E+00
         25   -1    0    0    0    0  0.00000000000E+00  0.00000000000E+00  0.99999998245E-14  0.12500000000E+03  0.12500000000E+03 0.  0.
    3000001    1    3    3    0    0 -0.86484470479E+01 -0.53092540762E+02  0.15785421197E+02  0.56069537570E+02  0.10000000000E+01 0. -1.
    1000022    2    1    0    0    0 -0.82578952748E+01 -0.59384799492E+02  0.14543162043E+02  0.62499993133E+02  0.99999167183E+01 0.  0.
    3000022    2    3    3    0    0  0.39055177313E+00 -0.62922587296E+01 -0.12422591538E+01  0.64304555633E+01  0.25000067668E+00 0.  0.
    1000022    2    1    0    0    0  0.82578952748E+01  0.59384799492E+02 -0.14543162043E+02  0.62500006867E+02  0.10000002557E+02 0.  0.
    3000022    2    5    5    0    0  0.17838342158E+01  0.42703178355E+02 -0.84319516004E+01  0.43564937725E+02  0.24997009725E+00 0.  0.
        -13    1    4    4    0    0  0.19862504819E+00 -0.38305380141E+01 -0.80488063884E+00  0.39206289330E+01  0.10500000000E+00 0.  1.
         13    1    4    4    0    0  0.19192672494E+00 -0.24617207154E+01 -0.43737851501E+00  0.25098266302E+01  0.10500000000E+00 0. -1.
    3000001    1    5    5    0    0  0.64740610590E+01  0.16681621136E+02 -0.61112104427E+01  0.18935069142E+02  0.10000000000E+01 0.  1.
        -13    1    6    6    0    0  0.78698660600E+00  0.20423409523E+02 -0.40464822755E+01  0.20835547707E+02  0.10500000000E+00 0.  1.
         13    1    6    6    0    0  0.99684760979E+00  0.22279768833E+02 -0.43854693249E+01  0.22729390018E+02  0.10500000000E+00 0. -1.
</event>
<event>
11    0  0.3482687E-009  0.9118800E+02  0.7816531E-02  0.1126479E+00
         25   -1    0    0    0    0  0.00000000000E+00  0.00000000000E+00  0.99999998245E-14  0.12500000000E+03  0.12500000000E+03 0.  0.
    3000001    1    3    3    0    0 -0.16836475203E+01 -0.27027478490E+01  0.76094848850E+00  0.34232378694E+01  0.10000000000E+01 0. -1.
    1000022    2    1    0    0    0 -0.15628094004E+02 -0.56316207014E+02 -0.19761008606E+02  0.62499999931E+02  0.10000001782E+02 0.  0.
    3000022    2    3    3    0    0 -0.13944446484E+02 -0.53613459165E+02 -0.20521957095E+02  0.59076762062E+02  0.25000270404E+00 0.  0.
    1000022    2    1    0    0    0  0.15628094004E+02  0.56316207014E+02  0.19761008606E+02  0.62500000069E+02  0.10000002643E+02 0.  0.
    3000022    2    5    5    0    0  0.10127976698E+02  0.23201222743E+02  0.12071507603E+02  0.28047396404E+02  0.25000090777E+00 0.  0.
        -13    1    4    4    0    0 -0.66106511463E+01 -0.25300667665E+02 -0.96224450164E+01  0.27864439093E+02  0.10500000000E+00 0. -1.
         13    1    4    4    0    0 -0.73337953375E+01 -0.28312791500E+02 -0.10899512078E+02  0.31212322969E+02  0.10500000000E+00 0.  1.
    3000001    1    5    5    0    0  0.55001173058E+01  0.33114984270E+02  0.76895010034E+01  0.34452603665E+02  0.10000000000E+01 0.  1.
        -13    1    6    6    0    0  0.24548532483E+01  0.55790698960E+01  0.29168917138E+01  0.67580772151E+01  0.10500000000E+00 0. -1.
         13    1    6    6    0    0  0.76731234501E+01  0.17622152847E+02  0.91546158889E+01  0.21289319189E+02  0.10500000000E+00 0.  1.
</event>
<event>
11    0  0.3482687E-009  0.9118800E+02  0.7816531E-02  0.1126479E+00
         25   -1    0    0    0    0  0.00000000000E+00  0.00000000000E+00  0.99999998245E-14  0.12500000000E+03  0.12500000000E+03 0.  0.
    3000001    1    3    3    0    0 -0.42247912420E+01  0.65153662584E+01  0.34219356046E+02  0.35103606463E+02  0.10000000000E+01 0. -1.
    1000022    2    1    0    0    0 -0.13063034982E+02  0.48804386794E+01  0.60098156949E+02  0.62499999983E+02  0.99999982292E+01 0.  0.
    3000022    2    3    3    0    0 -0.88382437403E+01 -0.16349275790E+01  0.25878800902E+02  0.27396393520E+02  0.25000224975E+00 0.  0.
    1000022    2    1    0    0    0  0.13063034982E+02 -0.48804386794E+01 -0.60098156949E+02  0.62500000017E+02  0.99999984429E+01 0.  0.
    3000022    2    5    5    0    0  0.13334882475E+02 -0.58018957410E+01 -0.43986557140E+02  0.46328833313E+02  0.25000461341E+00 0.  0.
        -13    1    4    4    0    0 -0.23256548511E+01 -0.40148941494E+00  0.67481978753E+01  0.71497597023E+01  0.10500000000E+00 0. -1.
         13    1    4    4    0    0 -0.65125888893E+01 -0.12334381641E+01  0.19130603027E+02  0.20246633817E+02  0.10500000000E+00 0.  1.
    3000001    1    5    5    0    0 -0.27184749258E+00  0.92145706159E+00 -0.16111599809E+02  0.16171166704E+02  0.10000000000E+01 0.  1.
        -13    1    6    6    0    0  0.36452706646E+01 -0.15551336900E+01 -0.11914307787E+02  0.12556599621E+02  0.10500000000E+00 0. -1.
         13    1    6    6    0    0  0.96896118103E+01 -0.42467620510E+01 -0.32072249353E+02  0.33772233691E+02  0.10500000000E+00 0.  1.
</event>
<event>
11    0  0.3482687E-009  0.9118800E+02  0.7816531E-02  0.1126479E+00
         25   -1    0    0    0    0  0.00000000000E+00  0.00000000000E+00  0.99999998245E-14  0.12500000000E+03  0.12500000000E+03 0.  0.
    3000001    1    3    3    0    0  0.38118697013E+01 -0.52209211387E+01  0.60540600216E+02  0.60892960535E+02  0.10000000000E+01 0. -1.
    1000022    2    1    0    0    0  0.33981533303E+01 -0.40029936085E+01  0.61470956783E+02  0.62500000919E+02  0.10000009161E+02 0.  0.
    3000022    2    3    3    0    0 -0.41371637098E+00  0.12179275301E+01  0.93035656694E+00  0.16070403847E+01  0.25001350365E+00 0.  0.
    1000022    2    1    0    0    0 -0.33981533303E+01  0.40029936085E+01 -0.61470956783E+02  0.62499999081E+02  0.99999976706E+01 0.  0.
    3000022    2    5    5    0    0  0.26170843717E+01 -0.30971910375E-01 -0.33023970572E+02  0.33128465466E+02  0.25000381439E+00 0.  0.
        -13    1    4    4    0    0 -0.17470159745E+00  0.60267341032E+00  0.37837563050E+00  0.74022226757E+00  0.10500000000E+00 0.  1.
         13    1    4    4    0    0 -0.23901477354E+00  0.61525411980E+00  0.55198093644E+00  0.86681811708E+00  0.10500000000E+00 0. -1.
    3000001    1    5    5    0    0 -0.60152377019E+01  0.40339655189E+01 -0.28446986211E+02  0.29371533615E+02  0.10000000000E+01 0. -1.
        -13    1    6    6    0    0  0.12457235974E+01 -0.73269818314E-01 -0.16160677984E+02  0.16209125012E+02  0.10500000000E+00 0.  1.
         13    1    6    6    0    0  0.13713607743E+01  0.42297907939E-01 -0.16863292588E+02  0.16919340454E+02  0.10500000000E+00 0. -1.
</event>
<event>
11    0  0.3482687E-009  0.9118800E+02  0.7816531E-02  0.1126479E+00
         25   -1    0    0    0    0  0.00000000000E+00  0.00000000000E+00  0.99999998245E-14  0.12500000000E+03  0.12500000000E+03 0.  0.
    3000001    1    3    3    0    0  0.11114825330E+00 -0.14614376965E+02  0.39940652309E+02  0.42542309233E+02  0.10000000000E+01 0. -1.
    1000022    2    1    0    0    0 -0.48633825964E+01 -0.16924899560E+02  0.59128211105E+02  0.62499999419E+02  0.99999931699E+01 0.  0.
    3000022    2    3    3    0    0 -0.49745308497E+01 -0.23105225946E+01  0.19187558797E+02  0.19957690186E+02  0.25002626992E+00 0.  0.
    1000022    2    1    0    0    0  0.48633825964E+01  0.16924899560E+02 -0.59128211105E+02  0.62500000581E+02  0.10000000438E+02 0.  0.
    3000022    2    5    5    0    0  0.37510359062E+01  0.17834546702E+02 -0.56270026680E+02  0.59148285902E+02  0.24999225393E+00 0.  0.
        -13    1    4    4    0    0 -0.28085908734E+01 -0.12785825533E+01  0.11016732140E+02  0.11441257277E+02  0.10500000000E+00 0.  1.
         13    1    4    4    0    0 -0.21659399763E+01 -0.10319400413E+01  0.81708266566E+01  0.85164329083E+01  0.10500000000E+00 0. -1.
    3000001    1    5    5    0    0  0.11123466902E+01 -0.90964714231E+00 -0.28581844252E+01  0.33517146792E+01  0.10000000000E+01 0.  1.
        -13    1    6    6    0    0  0.22027554152E+01  0.10762094241E+02 -0.33981023656E+02  0.35712683988E+02  0.10500000000E+00 0.  1.
         13    1    6    6    0    0  0.15482804911E+01  0.70724524612E+01 -0.22289003024E+02  0.23435601914E+02  0.10500000000E+00 0. -1.
</event>
<event>
11    0  0.3482687E-009  0.9118800E+02  0.7816531E-02  0.1126479E+00
         25   -1    0    0    0    0  0.00000000000E+00  0.00000000000E+00  0.99999998245E-14  0.12500000000E+03  0.12500000000E+03 0.  0.
    3000001    1    3    3    0    0 -0.39474127097E+02  0.17950968829E+01 -0.34176971154E+02  0.52254133235E+02  0.10000000000E+01 0.  1.
    1000022    2    1    0    0    0 -0.49053033835E+02  0.16330741067E+00 -0.37416886820E+02  0.62499998089E+02  0.99999772062E+01 0.  0.
    3000022    2    3    3    0    0 -0.95789067380E+01 -0.16317894722E+01 -0.32399156659E+01  0.10245864854E+02  0.25000381960E+00 0.  0.
    1000022    2    1    0    0    0  0.49053033835E+02 -0.16330741067E+00  0.37416886820E+02  0.62500001911E+02  0.10000001092E+02 0.  0.
    3000022    2    5    5    0    0  0.16556993657E+02 -0.18500714639E+01  0.18291505700E+02  0.24742644969E+02  0.24999187274E+00 0.  0.
        -13    1    4    4    0    0 -0.72282946568E+01 -0.12126119877E+01 -0.24589108739E+01  0.77314900998E+01  0.10500000000E+00 0. -1.
         13    1    4    4    0    0 -0.23506120812E+01 -0.41917748445E+00 -0.78100479207E+00  0.25143747543E+01  0.10500000000E+00 0.  1.
    3000001    1    5    5    0    0  0.32496040178E+02  0.16867640532E+01  0.19125381120E+02  0.37757356942E+02  0.10000000000E+01 0.  1.
        -13    1    6    6    0    0  0.96388244077E+01 -0.10261952393E+01  0.10582143947E+02  0.14351055994E+02  0.10500000000E+00 0.  1.
         13    1    6    6    0    0  0.69181692495E+01 -0.82387622460E+00  0.77093617525E+01  0.10391588975E+02  0.10500000000E+00 0. -1.
</event>
<event>
11    0  0.3482687E-009  0.9118800E+02  0.7816531E-02  0.1126479E+00
         25   -1    0    0    0    0  0.00000000000E+00  0.00000000000E+00  0.99999998245E-14  0.12500000000E+03  0.12500000000E+03 0.  0.
    3000001    1    3    3    0    0  0.23942615731E+02 -0.41493405134E+02  0.82016132723E+01  0.48612940437E+02  0.10000000000E+01 0. -1.
    1000022    2    1    0    0    0  0.32735824361E+02 -0.51969683293E+02  0.58110076958E+01  0.62499999851E+02  0.99999996359E+01 0.  0.
    3000022    2    3    3    0    0  0.87932086293E+01 -0.10476278159E+02 -0.23906055765E+01  0.13887059413E+02  0.25000412594E+00 0.  0.
    1000022    2    1    0    0    0 -0.32735824361E+02  0.51969683293E+02 -0.58110076958E+01  0.62500000149E+02  0.10000001504E+02 0.  0.
    3000022    2    5    5    0    0 -0.19413363340E+02  0.33637896185E+02  0.88489042603E+00  0.38848838701E+02  0.25000278357E+00 0.  0.
        -13    1    4    4    0    0  0.36537983175E+01 -0.44317317865E+01 -0.10451505653E+01  0.58389942179E+01  0.10500000000E+00 0. -1.
         13    1    4    4    0    0  0.51394103118E+01 -0.60445463723E+01 -0.13454550112E+01  0.80480651952E+01  0.10500000000E+00 0.  1.
    3000001    1    5    5    0    0 -0.13322461020E+02  0.18331787108E+02 -0.66958981218E+01  0.23651161449E+02  0.10000000000E+01 0.  1.
        -13    1    6    6    0    0 -0.11522690656E+02  0.19888736845E+02  0.47271891330E+00  0.22990622902E+02  0.10500000000E+00 0. -1.
         13    1    6    6    0    0 -0.78906726843E+01  0.13749159340E+02  0.41217151273E+00  0.15858215799E+02  0.10500000000E+00 0.  1.
</event>
<event>
11    0  0.3482687E-009  0.9118800E+02  0.7816531E-02  0.1126479E+00
         25   -1    0    0    0    0  0.00000000000E+00  0.00000000000E+00  0.99999998245E-14  0.12500000000E+03  0.12500000000E+03 0.  0.
    3000001    1    3    3    0    0  0.17209107964E+02 -0.16292135022E+01 -0.17540325839E+02  0.24646922000E+02  0.10000000000E+01 0.  1.
    1000022    2    1    0    0    0  0.49864162810E+02  0.24281801073E+01 -0.36248023260E+02  0.62499999636E+02  0.99999986420E+01 0.  0.
    3000022    2    3    3    0    0  0.32655054846E+02  0.40573936095E+01 -0.18707697421E+02  0.37853077636E+02  0.24998757286E+00 0.  0.
    1000022    2    1    0    0    0 -0.49864162810E+02 -0.24281801073E+01  0.36248023260E+02  0.62500000364E+02  0.10000003195E+02 0.  0.
    3000022    2    5    5    0    0 -0.55740214711E+01 -0.14956104647E+01  0.82963592072E+01  0.10109334886E+02  0.25001942934E+00 0.  0.
        -13    1    4    4    0    0  0.20833696831E+02  0.26391522624E+01 -0.11973042868E+02  0.24173804600E+02  0.10500000000E+00 0.  1.
         13    1    4    4    0    0  0.11821358014E+02  0.14182413471E+01 -0.67346545536E+01  0.13679273036E+02  0.10500000000E+00 0. -1.
    3000001    1    5    5    0    0 -0.44290141339E+02 -0.93256964257E+00  0.27951664053E+02  0.52390665478E+02  0.10000000000E+01 0.  1.
        -13    1    6    6    0    0 -0.25943851364E+01 -0.64189936685E+00  0.39155736492E+01  0.47418995177E+01  0.10500000000E+00 0. -1.
         13    1    6    6    0    0 -0.29796363346E+01 -0.85371109785E+00  0.43807855580E+01  0.53674353681E+01  0.10500000000E+00 0.  1.
</event>
<event>
11    0  0.3482687E-009  0.9118800E+02  0.7816531E-02  0.1126479E+00
         25   -1    0    0    0    0  0.00000000000E+00  0.00000000000E+00  0.99999998245E-14  0.12500000000E+03  0.12500000000E+03 0.  0.
    3000001    1    3    3    0    0  0.10685081984E+02  0.11817115818E+02 -0.20330549814E+02  0.25848529146E+02  0.10000000000E+01 0. -1.
    1000022    2    1    0    0    0  0.34050146613E+02  0.20384775825E+02 -0.47236621693E+02  0.62499999159E+02  0.99999948027E+01 0.  0.
    3000022    2    3    3    0    0  0.23365064629E+02  0.85676600077E+01 -0.26906071879E+02  0.36651470013E+02  0.25001408296E+00 0.  0.
    1000022    2    1    0    0    0 -0.34050146613E+02 -0.20384775825E+02  0.47236621693E+02  0.62500000841E+02  0.10000005319E+02 0.  0.
    3000022    2    5    5    0    0 -0.36387601917E+01 -0.65069079193E+01  0.94508355285E+01  0.12039984217E+02  0.25000269547E+00 0.  0.
        -13    1    4    4    0    0  0.77619832191E+01  0.28967671943E+01 -0.89213932423E+01  0.12175464100E+02  0.10500000000E+00 0. -1.
         13    1    4    4    0    0  0.15603081410E+02  0.56708928134E+01 -0.17984678636E+02  0.24476005913E+02  0.10500000000E+00 0.  1.
    3000001    1    5    5    0    0 -0.30411386422E+02 -0.13877867906E+02  0.37785786164E+02  0.50460016625E+02  0.10000000000E+01 0. -1.
        -13    1    6    6    0    0 -0.23337047906E+01 -0.40826763839E+01  0.60239262191E+01  0.76428487228E+01  0.10500000000E+00 0.  1.
         13    1    6    6    0    0 -0.13050554011E+01 -0.24242315354E+01  0.34269093094E+01  0.43971354940E+01  0.10500000000E+00 0. -1.
</event>
<event>
11    0  0.3482687E-009  0.9118800E+02  0.7816531E-02  0.1126479E+00
         25   -1    0    0    0    0  0.00000000000E+00  0.00000000000E+00  0.99999998245E-14  0.12500000000E+03  0.12500000000E+03 0.  0.
    3000001    1    3    3    0    0  0.24326993342E+02 -0.39791267896E+01 -0.12300438546E+02  0.27566952017E+02  0.10000000000E+01 0.  1.
    1000022    2    1    0    0    0  0.55811143121E+02 -0.16942657206E+02 -0.20107533422E+02  0.62500002877E+02  0.10000006480E+02 0.  0.
    3000022    2    3    3    0    0  0.31484149779E+02 -0.12963530416E+02 -0.78070948756E+01  0.34933050860E+02  0.25000763554E+00 0.  0.
    1000022    2    1    0    0    0 -0.55811143121E+02  0.16942657206E+02  0.20107533422E+02  0.62499997123E+02  0.99999705173E+01 0.  0.
    3000022    2    5    5    0    0 -0.45256963412E+02  0.10236406265E+02  0.18049555798E+02  0.49787806796E+02  0.24998102279E+00 0.  0.
        -13    1    4    4    0    0  0.13366855498E+02 -0.55175127180E+01 -0.33813724754E+01  0.14851278642E+02  0.10500000000E+00 0. -1.
         13    1    4    4    0    0  0.18117294282E+02 -0.74460176981E+01 -0.44257224002E+01  0.20081772218E+02  0.10500000000E+00 0.  1.
    3000001    1    5    5    0    0 -0.10554179709E+02  0.67062509407E+01  0.20579776238E+01  0.12712190327E+02  0.10000000000E+01 0.  1.
        -13    1    6    6    0    0 -0.28368315208E+02  0.63839301607E+01  0.11365688935E+02  0.31220278378E+02  0.10500000000E+00 0. -1.
         13    1    6    6    0    0 -0.16888648204E+02  0.38524761043E+01  0.66838668629E+01  0.18567528417E+02  0.10500000000E+00 0.  1.
</event>
<event>
11    0  0.3482687E-009  0.9118800E+02  0.7816531E-02  0.1126479E+00
         25   -1    0    0    0    0  0.00000000000E+00  0.00000000000E+00  0.99999998245E-14  0.12500000000E+03  0.12500000000E+03 0.  0.
    3000001    1    3    3    0    0 -0.67704166844E+01 -0.17261594735E+01 -0.16140107551E+01  0.72403866834E+01  0.10000000000E+01 0.  1.
    1000022    2    1    0    0    0 -0.54600056521E+02  0.72292220984E+01 -0.27799680043E+02  0.62500001782E+02  0.10000009404E+02 0.  0.
    3000022    2    3    3    0    0 -0.47829639837E+02  0.89553815719E+01 -0.26185669288E+02  0.55259615099E+02  0.24995769882E+00 0.  0.
    1000022    2    1    0    0    0  0.54600056521E+02 -0.72292220984E+01  0.27799680043E+02  0.62499998218E+02  0.99999871230E+01 0.  0.
    3000022    2    5    5    0    0  0.34651528543E+02 -0.66371100765E+00  0.20365975394E+02  0.40199557209E+02  0.25000675751E+00 0.  0.
        -13    1    4    4    0    0 -0.18217635228E+02  0.33844676654E+01 -0.10033695109E+02  0.21071851301E+02  0.10500000000E+00 0.  1.
         13    1    4    4    0    0 -0.29612004608E+02  0.55709139065E+01 -0.16151974179E+02  0.34187763798E+02  0.10500000000E+00 0. -1.
    3000001    1    5    5    0    0  0.19948527978E+02 -0.65655110908E+01  0.74337046491E+01  0.22300441009E+02  0.10000000000E+01 0.  1.
        -13    1    6    6    0    0  0.23214165869E+02 -0.49272305002E+00  0.13669707548E+02  0.26944613607E+02  0.10500000000E+00 0. -1.
         13    1    6    6    0    0  0.11437362674E+02 -0.17098795763E+00  0.66962678454E+01  0.13254943601E+02  0.10500000000E+00 0.  1.
</event>
<event>
11    0  0.3482687E-009  0.9118800E+02  0.7816531E-02  0.1126479E+00
         25   -1    0    0    0    0  0.00000000000E+00  0.00000000000E+00  0.99999998245E-14  0.12500000000E+03  0.12500000000E+03 0.  0.
    3000001    1    3    3    0    0 -0.68004044376E+01 -0.79096885057E+01  0.40826130370E+01  0.11246172770E+02  0.10000000000E+01 0. -1.
    1000022    2    1    0    0    0 -0.37122979609E+02 -0.30652343059E+02  0.38581966991E+02  0.62500000169E+02  0.10000004709E+02 0.  0.
    3000022    2    3    3    0    0 -0.30322575172E+02 -0.22742654553E+02  0.34499353954E+02  0.51253827399E+02  0.24999721901E+00 0.  0.
    1000022    2    1    0    0    0  0.37122979609E+02  0.30652343059E+02 -0.38581966991E+02  0.62499999831E+02  0.10000002595E+02 0.  0.
    3000022    2    5    5    0    0  0.14245648958E+02  0.90724981535E+01 -0.19074328777E+02  0.25478250648E+02  0.25000162954E+00 0.  0.
        -13    1    4    4    0    0 -0.21724014358E+02 -0.16285744746E+02  0.24657104633E+02  0.36676179130E+02  0.10500000000E+00 0. -1.
         13    1    4    4    0    0 -0.85985608142E+01 -0.64569098077E+01  0.98422493209E+01  0.14577648268E+02  0.10500000000E+00 0.  1.
    3000001    1    5    5    0    0  0.22877330652E+02  0.21579844906E+02 -0.19507638214E+02  0.37021749183E+02  0.10000000000E+01 0.  1.
        -13    1    6    6    0    0  0.79418761683E+01  0.51118576017E+01 -0.10593886386E+02  0.14193165221E+02  0.10500000000E+00 0.  1.
         13    1    6    6    0    0  0.63037727894E+01  0.39606405518E+01 -0.84804423903E+01  0.11285085427E+02  0.10500000000E+00 0. -1.
</event>
<event>
11    0  0.3482687E-009  0.9118800E+02  0.7816531E-02  0.1126479E+00
         25   -1    0    0    0    0  0.00000000000E+00  0.00000000000E+00  0.99999998245E-14  0.12500000000E+03  0.12500000000E+03 0.  0.
    3000001    1    3    3    0    0  0.17666299348E+02  0.40221459072E+01 -0.23326986039E+02  0.29553748798E+02  0.10000000000E+01 0.  1.
    1000022    2    1    0    0    0  0.44153932222E+02  0.38486824051E+01 -0.42916988885E+02  0.62500000382E+02  0.10000001290E+02 0.  0.
    3000022    2    3    3    0    0  0.26487632875E+02 -0.17346350208E+00 -0.19590002846E+02  0.32946251584E+02  0.24999405998E+00 0.  0.
    1000022    2    1    0    0    0 -0.44153932222E+02 -0.38486824051E+01  0.42916988885E+02  0.62499999618E+02  0.99999965183E+01 0.  0.
    3000022    2    5    5    0    0 -0.49806264074E+01 -0.31031518387E+01  0.31485632030E+01  0.66642459695E+01  0.25006669865E+00 0.  0.
        -13    1    4    4    0    0  0.12891172087E+02 -0.74354043955E-01 -0.94508523269E+01  0.15984914169E+02  0.10500000000E+00 0. -1.
         13    1    4    4    0    0  0.13596460788E+02 -0.99109458123E-01 -0.10139150519E+02  0.16961337414E+02  0.10500000000E+00 0.  1.
    3000001    1    5    5    0    0 -0.39173305815E+02 -0.74553056645E+00  0.39768425682E+02  0.55835753649E+02  0.10000000000E+01 0.  1.
        -13    1    6    6    0    0 -0.35608155810E+01 -0.21716230529E+01  0.22544722585E+01  0.47422594246E+01  0.10500000000E+00 0. -1.
         13    1    6    6    0    0 -0.14198108264E+01 -0.93152878579E+00  0.89409094448E+00  0.19219865448E+01  0.10500000000E+00 0.  1.
</event>
<event>
11    0  0.3482687E-009  0.9118800E+02  0.7816531E-02  0.1126479E+00
         25   -1    0    0    0    0  0.00000000000E+00  0.00000000000E+00  0.99999998245E-14  0.12500000000E+03  0.12500000000E+03 0.  0.
    3000001    1    3    3    0    0  0.36190780736E+02 -0.43617725206E+02  0.11041239505E+02  0.57751082520E+02  0.10000000000E+01 0. -1.
    1000022    2    1    0    0    0  0.37842971789E+02 -0.47789192464E+02  0.95053902590E+01  0.62499999672E+02  0.10000004244E+02 0.  0.
    3000022    2    3    3    0    0  0.16521910531E+01 -0.41714672586E+01 -0.15358492455E+01  0.47489171530E+01  0.25001371097E+00 0.  0.
    1000022    2    1    0    0    0 -0.37842971789E+02  0.47789192464E+02 -0.95053902590E+01  0.62500000328E+02  0.10000008338E+02 0.  0.
    3000022    2    5    5    0    0 -0.25360156683E+02  0.31285440535E+02 -0.10940448339E+02  0.41733346953E+02  0.25000308597E+00 0.  0.
        -13    1    4    4    0    0  0.10110792216E+01 -0.27084640375E+01 -0.99335970611E+00  0.30587329306E+01  0.10500000000E+00 0.  1.
         13    1    4    4    0    0  0.64111183150E+00 -0.14630032210E+01 -0.54248953939E+00  0.16901842224E+01  0.10500000000E+00 0. -1.
    3000001    1    5    5    0    0 -0.12482815105E+02  0.16503751929E+02  0.14350580799E+01  0.20766653375E+02  0.10000000000E+01 0.  1.
        -13    1    6    6    0    0 -0.10242894510E+02  0.12541604188E+02 -0.43766835367E+01  0.16774239396E+02  0.10500000000E+00 0.  1.
         13    1    6    6    0    0 -0.15117262174E+02  0.18743836348E+02 -0.65637648022E+01  0.24959107557E+02  0.10500000000E+00 0. -1.
</event>
<event>
11    0  0.3482687E-009  0.9118800E+02  0.7816531E-02  0.1126479E+00
         25   -1    0    0    0    0  0.00000000000E+00  0.00000000000E+00  0.99999998245E-14  0.12500000000E+03  0.12500000000E+03 0.  0.
    3000001    1    3    3    0    0  0.31313278674E+02  0.20122814595E+02 -0.26183460465E+02  0.45519475947E+02  0.10000000000E+01 0.  1.
    1000022    2    1    0    0    0  0.44242373618E+02  0.30199291492E+02 -0.30608252955E+02  0.62499999261E+02  0.99999964376E+01 0.  0.
    3000022    2    3    3    0    0  0.12929094943E+02  0.10076476897E+02 -0.44247924902E+01  0.16980523314E+02  0.25000148020E+00 0.  0.
    1000022    2    1    0    0    0 -0.44242373618E+02 -0.30199291492E+02  0.30608252955E+02  0.62500000739E+02  0.10000005672E+02 0.  0.
    3000022    2    5    5    0    0 -0.37102048813E+02 -0.22661404427E+02  0.20853561257E+02  0.48218614607E+02  0.25000157653E+00 0.  0.
        -13    1    4    4    0    0  0.42012268920E+01  0.32183160090E+01 -0.14014914373E+01  0.54756797369E+01  0.10500000000E+00 0. -1.
         13    1    4    4    0    0  0.87278680512E+01  0.68581608883E+01 -0.30233010529E+01  0.11504843578E+02  0.10500000000E+00 0.  1.
    3000001    1    5    5    0    0 -0.71403248046E+01 -0.75378870655E+01  0.97546916983E+01  0.14281386132E+02  0.10000000000E+01 0. -1.
        -13    1    6    6    0    0 -0.18217060295E+02 -0.11090744464E+02  0.10163060660E+02  0.23625510059E+02  0.10500000000E+00 0.  1.
         13    1    6    6    0    0 -0.18884988518E+02 -0.11570659963E+02  0.10690500596E+02  0.24593104548E+02  0.10500000000E+00 0. -1.
</event>
<event>
11    0  0.3482687E-009  0.9118800E+02  0.7816531E-02  0.1126479E+00
         25   -1    0    0    0    0  0.00000000000E+00  0.00000000000E+00  0.99999998245E-14  0.12500000000E+03  0.12500000000E+03 0.  0.
    3000001    1    3    3    0    0  0.59239174498E+01  0.29002583142E+01 -0.16284985782E+02  0.17598439083E+02  0.10000000000E+01 0. -1.
    1000022    2    1    0    0    0  0.10721072683E+02 -0.11429528001E+01 -0.60745388859E+02  0.62500000286E+02  0.10000001376E+02 0.  0.
    3000022    2    3    3    0    0  0.47971552333E+01 -0.40432111143E+01 -0.44460403077E+02  0.44901561203E+02  0.25000446468E+00 0.  0.
    1000022    2    1    0    0    0 -0.10721072683E+02  0.11429528001E+01  0.60745388859E+02  0.62499999714E+02  0.99999977976E+01 0.  0.
    3000022    2    5    5    0    0 -0.66408278617E+01 -0.22076589338E+01  0.49978294012E+02  0.50466491155E+02  0.25000885879E+00 0.  0.
        -13    1    4    4    0    0  0.31273956986E+01 -0.27059260319E+01 -0.29381746322E+02  0.29671546665E+02  0.10500000000E+00 0. -1.
         13    1    4    4    0    0  0.16697595347E+01 -0.13372850824E+01 -0.15078656755E+02  0.15230014538E+02  0.10500000000E+00 0.  1.
    3000001    1    5    5    0    0 -0.40802448214E+01  0.33506117338E+01  0.10767094847E+02  0.12033508559E+02  0.10000000000E+01 0. -1.
        -13    1    6    6    0    0 -0.20312204497E+01 -0.64395471630E+00  0.14965703198E+02  0.15117004710E+02  0.10500000000E+00 0. -1.
         13    1    6    6    0    0 -0.46096074120E+01 -0.15637042175E+01  0.35012590814E+02  0.35349486445E+02  0.10500000000E+00 0.  1.
</event>
<event>
11    0  0.3482687E-009  0.9118800E+02  0.7816531E-02  0.1126479E+00
         25   -1    0    0    0    0  0.00000000000E+00  0.00000000000E+00  0.99999998245E-14  0.12500000000E+03  0.12500000000E+03 0.  0.
    3000001    1    3    3    0    0 -0.26319899964E+02 -0.33052708594E+02  0.11011465250E+02  0.43674604136E+02  0.10000000000E+01 0. -1.
    1000022    2    1    0    0    0 -0.41942393253E+02 -0.43405658940E+02  0.12768492591E+02  0.62499999776E+02  0.99999994593E+01 0.  0.
    3000022    2    3    3    0    0 -0.15622493288E+02 -0.10352950347E+02  0.17570273406E+01  0.18825395640E+02  0.24999699946E+00 0.  0.
    1000022    2    1    0    0    0  0.41942393253E+02  0.43405658940E+02 -0.12768492591E+02  0.62500000224E+02  0.10000002254E+02 0.  0.
    3000022    2    5    5    0    0  0.53443890017E+01  0.40692951163E+01 -0.45990555039E+01  0.81446588450E+01  0.24999925828E+00 0.  0.
        -13    1    4    4    0    0 -0.38540805372E+01 -0.25838505278E+01  0.43355178726E+00  0.46614603387E+01  0.10500000000E+00 0.  1.
         13    1    4    4    0    0 -0.11768412751E+02 -0.77690998189E+01  0.13234755533E+01  0.14163935301E+02  0.10500000000E+00 0. -1.
    3000001    1    5    5    0    0  0.36598004251E+02  0.39336363824E+02 -0.81694370869E+01  0.54355341379E+02  0.10000000000E+01 0. -1.
        -13    1    6    6    0    0  0.22967039492E+01  0.17124845988E+01 -0.20327968839E+01  0.35143620619E+01  0.10500000000E+00 0. -1.
         13    1    6    6    0    0  0.30476850525E+01  0.23568105175E+01 -0.25662586200E+01  0.46302967831E+01  0.10500000000E+00 0.  1.
</event>
<event>
11    0  0.3482687E-009  0.9118800E+02  0.7816531E-02  0.1126479E+00
         25   -1    0    0    0    0  0.00000000000E+00  0.00000000000E+00  0.99999998245E-14  0.12500000000E+03  0.12500000000E+03 0.  0.
    3000001    1    3    3    0    0  0.28597034390E+01  0.11024869191E+02  0.57072113901E+01  0.12778806920E+02  0.10000000000E+01 0.  1.
    1000022    2    1    0    0    0  0.28833131018E+01  0.60131818447E+02  0.13494478796E+02  0.62500000104E+02  0.99999985401E+01 0.  0.
    3000022    2    3    3    0    0  0.23609662762E-01  0.49106949256E+02  0.77872674058E+01  0.49721193184E+02  0.24999069950E+00 0.  0.
    1000022    2    1    0    0    0 -0.28833131018E+01 -0.60131818447E+02 -0.13494478796E+02  0.62499999896E+02  0.99999972411E+01 0.  0.
    3000022    2    5    5    0    0 -0.26524588786E+01 -0.12325640971E+02  0.67274135861E+00  0.12628224056E+02  0.24999683481E+00 0.  0.
        -13    1    4    4    0    0  0.74939224290E-01  0.28035562547E+02  0.44230019551E+01  0.28382606549E+02  0.10500000000E+00 0.  1.
         13    1    4    4    0    0 -0.51329561528E-01  0.21071386709E+02  0.33642654506E+01  0.21338586635E+02  0.10500000000E+00 0. -1.
    3000001    1    5    5    0    0 -0.23085422313E+00 -0.47806177476E+02 -0.14167220155E+02  0.49871775840E+02  0.10000000000E+01 0. -1.
        -13    1    6    6    0    0 -0.15242736351E+01 -0.70140797636E+01  0.44701431736E+00  0.71924663256E+01  0.10500000000E+00 0. -1.
         13    1    6    6    0    0 -0.11281852435E+01 -0.53115612079E+01  0.22572704125E+00  0.54357577306E+01  0.10500000000E+00 0.  1.
</event>
<event>
11    0  0.3482687E-009  0.9118800E+02  0.7816531E-02  0.1126479E+00
         25   -1    0    0    0    0  0.00000000000E+00  0.00000000000E+00  0.99999998245E-14  0.12500000000E+03  0.12500000000E+03 0.  0.
    3000001    1    3    3    0    0 -0.31539326127E+02 -0.17258697011E+02  0.18403489937E+00  0.35967006880E+02  0.10000000000E+01 0. -1.
    1000022    2    1    0    0    0 -0.49814716299E+02 -0.36257732295E+02  0.31813624057E+01  0.62499999720E+02  0.99999893610E+01 0.  0.
    3000022    2    3    3    0    0 -0.18275390172E+02 -0.18999035283E+02  0.29973275063E+01  0.26532992840E+02  0.25001850624E+00 0.  0.
    1000022    2    1    0    0    0  0.49814716299E+02  0.36257732295E+02 -0.31813624057E+01  0.62500000280E+02  0.99999928559E+01 0.  0.
    3000022    2    5    5    0    0  0.11712720570E+01  0.71338853828E+00 -0.17385140214E+01  0.22283912731E+01  0.24999045084E+00 0.  0.
        -13    1    4    4    0    0 -0.94879093424E+01 -0.98084442746E+01  0.16078020322E+01  0.13741253769E+02  0.10500000000E+00 0. -1.
         13    1    4    4    0    0 -0.87874808292E+01 -0.91905910087E+01  0.13895254742E+01  0.12791739071E+02  0.10500000000E+00 0.  1.
    3000001    1    5    5    0    0  0.48643444242E+02  0.35544343756E+02 -0.14428483843E+01  0.60271609006E+02  0.10000000000E+01 0.  1.
        -13    1    6    6    0    0  0.84956596442E+00  0.47889035194E+00 -0.12698260952E+01  0.16045502826E+01  0.10500000000E+00 0. -1.
         13    1    6    6    0    0  0.32170609258E+00  0.23449818634E+00 -0.46868792612E+00  0.62384099055E+00  0.10500000000E+00 0.  1.
</event>
<event>
11    0  0.3482687E-009  0.9118800E+02  0.7816531E-02  0.1126479E+00
         25   -1    0    0    0    0  0.00000000000E+00  0.00000000000E+00  0.99999998245E-14  0.12500000000E+03  0.12500000000E+03 0.  0.
    3000001    1    3    3    0    0 -0.19349238142E+02  0.19721364514E+02 -0.52210717812E+02  0.59078628026E+02  0.10000000000E+01 0.  1.
    1000022    2    1    0    0    0 -0.22257475011E+02  0.19910433028E+02 -0.53985455112E+02  0.62499999237E+02  0.10000000188E+02 0.  0.
    3000022    2    3    3    0    0 -0.29082368694E+01  0.18906851448E+00 -0.17747372995E+01  0.34213712111E+01  0.24999978053E+00 0.  0.
    1000022    2    1    0    0    0  0.22257475011E+02 -0.19910433028E+02  0.53985455112E+02  0.62500000763E+02  0.10000009721E+02 0.  0.
    3000022    2    5    5    0    0  0.21944500227E+02 -0.15393748794E+02  0.44714140928E+02  0.52133918746E+02  0.24998537969E+00 0.  0.
        -13    1    4    4    0    0 -0.20105838591E+01  0.17815396642E+00 -0.12355357034E+01  0.23689153139E+01  0.10500000000E+00 0. -1.
         13    1    4    4    0    0 -0.89765301025E+00  0.10914548066E-01 -0.53920159616E+00  0.10524558972E+01  0.10500000000E+00 0.  1.
    3000001    1    5    5    0    0  0.31297478450E+00 -0.45166842344E+01  0.92713141839E+01  0.10366082017E+02  0.10000000000E+01 0. -1.
        -13    1    6    6    0    0  0.65728063141E+01 -0.45706341019E+01  0.13294011391E+02  0.15518835098E+02  0.10500000000E+00 0.  1.
         13    1    6    6    0    0  0.15371693913E+02 -0.10823114692E+02  0.31420129537E+02  0.36615083648E+02  0.10500000000E+00 0. -1.
</event>
<event>
11    0  0.3482687E-009  0.9118800E+02  0.7816531E-02  0.1126479E+00
         25   -1    0    0    0    0  0.00000000000E+00  0.00000000000E+00  0.99999998245E-14  0.12500000000E+03  0.12500000000E+03 0.  0.
    3000001    1    3    3    0    0  0.83883364827E+01 -0.10106102724E+02 -0.70227181693E+01  0.14927024878E+02  0.10000000000E+01 0. -1.
    1000022    2    1    0    0    0  0.22744556674E+02 -0.52661610971E+02 -0.22708804030E+02  0.62500001730E+02  0.10000015375E+02 0.  0.
    3000022    2    3    3    0    0  0.14356220191E+02 -0.42555508247E+02 -0.15686085861E+02  0.47572976853E+02  0.24999335388E+00 0.  0.
    1000022    2    1    0    0    0 -0.22744556674E+02  0.52661610971E+02  0.22708804030E+02  0.62499998270E+02  0.99999937463E+01 0.  0.
    3000022    2    5    5    0    0 -0.30356880530E+01  0.57700016562E+01  0.62338720777E+01  0.90239671039E+01  0.25000028700E+00 0.  0.
        -13    1    4    4    0    0  0.79050192633E+01 -0.23523658572E+02 -0.87307856750E+01  0.26307593688E+02  0.10500000000E+00 0. -1.
         13    1    4    4    0    0  0.64512009276E+01 -0.19031849675E+02 -0.69553001857E+01  0.21265383165E+02  0.10500000000E+00 0.  1.
    3000001    1    5    5    0    0 -0.19708868621E+02  0.46891609315E+02  0.16474931952E+02  0.53476031166E+02  0.10000000000E+01 0.  1.
        -13    1    6    6    0    0 -0.15085394275E+01  0.27221762140E+01  0.29738999748E+01  0.43059308639E+01  0.10500000000E+00 0.  1.
         13    1    6    6    0    0 -0.15271486255E+01  0.30478254422E+01  0.32599721029E+01  0.47180362400E+01  0.10500000000E+00 0. -1.
</event>
<event>
11    0  0.3482687E-009  0.9118800E+02  0.7816531E-02  0.1126479E+00
         25   -1    0    0    0    0  0.00000000000E+00  0.00000000000E+00  0.99999998245E-14  0.12500000000E+03  0.12500000000E+03 0.  0.
    3000001    1    3    3    0    0  0.86101637143E+01  0.49348258217E+02 -0.78062162818E+01  0.50708209600E+02  0.10000000000E+01 0. -1.
    1000022    2    1    0    0    0  0.89322296347E+01  0.60827847710E+02 -0.51418019127E+01  0.62499999865E+02  0.10000003648E+02 0.  0.
    3000022    2    3    3    0    0  0.32206592040E+00  0.11479589494E+02  0.26644143691E+01  0.11791790265E+02  0.25002466271E+00 0.  0.
    1000022    2    1    0    0    0 -0.89322296347E+01 -0.60827847710E+02  0.51418019127E+01  0.62500000135E+02  0.10000005330E+02 0.  0.
    3000022    2    5    5    0    0 -0.57571706124E+01 -0.55580182487E+02  0.61078530463E+01  0.56210942583E+02  0.24999701228E+00 0.  0.
        -13    1    4    4    0    0  0.12425645534E+00  0.50817015648E+01  0.12448452527E+01  0.52344813653E+01  0.10500000000E+00 0. -1.
         13    1    4    4    0    0  0.19780946506E+00  0.63978879289E+01  0.14195691164E+01  0.65573089001E+01  0.10500000000E+00 0.  1.
    3000001    1    5    5    0    0 -0.31750590224E+01 -0.52476652232E+01 -0.96605113353E+00  0.62890575512E+01  0.10000000000E+01 0.  1.
        -13    1    6    6    0    0 -0.13375025099E+01 -0.12987331641E+02  0.14375331110E+01  0.13135342499E+02  0.10500000000E+00 0. -1.
         13    1    6    6    0    0 -0.44196681025E+01 -0.42592850846E+02  0.46703199352E+01  0.43075600084E+02  0.10500000000E+00 0.  1.
</event>
<event>
11    0  0.3482687E-009  0.9118800E+02  0.7816531E-02  0.1126479E+00
         25   -1    0    0    0    0  0.00000000000E+00  0.00000000000E+00  0.99999998245E-14  0.12500000000E+03  0.12500000000E+03 0.  0.
    3000001    1    3    3    0    0 -0.80824006842E+00  0.51652252698E+00  0.24147804845E+01  0.27840999116E+01  0.10000000000E+01 0.  1.
    1000022    2    1    0    0    0 -0.38803786448E+02  0.37261864433E+02  0.30200478756E+02  0.62500004198E+02  0.10000061198E+02 0.  0.
    3000022    2    3    3    0    0 -0.37995546380E+02  0.36745341906E+02  0.27785698272E+02  0.59715904287E+02  0.24999974968E+00 0.  0.
    1000022    2    1    0    0    0  0.38803786448E+02 -0.37261864433E+02 -0.30200478756E+02  0.62499995802E+02  0.10000008720E+02 0.  0.
    3000022    2    5    5    0    0  0.28946501009E+02 -0.22353903862E+02 -0.23006866597E+02  0.43208510102E+02  0.24999216593E+00 0.  0.
        -13    1    4    4    0    0 -0.26838742407E+02  0.26012582014E+02  0.19665172766E+02  0.42233902992E+02  0.10500000000E+00 0.  1.
         13    1    4    4    0    0 -0.11156803973E+02  0.10732759892E+02  0.81205255058E+01  0.17482001295E+02  0.10500000000E+00 0. -1.
    3000001    1    5    5    0    0  0.98572854389E+01 -0.14907960571E+02 -0.71936121595E+01  0.19291485700E+02  0.10000000000E+01 0. -1.
        -13    1    6    6    0    0  0.72088271866E+01 -0.55901022190E+01 -0.57605920732E+01  0.10789433639E+02  0.10500000000E+00 0.  1.
         13    1    6    6    0    0  0.21737673823E+02 -0.16763801643E+02 -0.17246274523E+02  0.32419076463E+02  0.10500000000E+00 0. -1.
</event>
<event>
11    0  0.3482687E-009  0.9118800E+02  0.7816531E-02  0.1126479E+00
         25   -1    0    0    0    0  0.00000000000E+00  0.00000000000E+00  0.99999998245E-14  0.12500000000E+03  0.12500000000E+03 0.  0.
    3000001    1    3    3    0    0  0.84562533554E+00  0.26959292250E+01 -0.12305469284E+01  0.32399633235E+01  0.10000000000E+01 0. -1.
    1000022    2    1    0    0    0  0.31012971370E+02  0.52024446155E+02  0.11743219529E+02  0.62500004384E+02  0.99999976077E+01 0.  0.
    3000022    2    3    3    0    0  0.30167346035E+02  0.49328516930E+02  0.12973766457E+02  0.59260041061E+02  0.25000224858E+00 0.  0.
    1000022    2    1    0    0    0 -0.31012971370E+02 -0.52024446155E+02 -0.11743219529E+02  0.62499995616E+02  0.99999428061E+01 0.  0.
    3000022    2    5    5    0    0 -0.76548534231E+01 -0.12827558680E+02 -0.73471221165E+01  0.16648896019E+02  0.24998529150E+00 0.  0.
        -13    1    4    4    0    0  0.18933908214E+02  0.30866657748E+02  0.80888488580E+01  0.37103691752E+02  0.10500000000E+00 0. -1.
         13    1    4    4    0    0  0.11233437821E+02  0.18461859182E+02  0.48849175993E+01  0.22156349309E+02  0.10500000000E+00 0.  1.
    3000001    1    5    5    0    0 -0.23358117947E+02 -0.39196887475E+02 -0.43960974125E+01  0.45851099596E+02  0.10000000000E+01 0.  1.
        -13    1    6    6    0    0 -0.19148957915E+01 -0.31633060756E+01 -0.18098074372E+01  0.41182228182E+01  0.10500000000E+00 0.  1.
         13    1    6    6    0    0 -0.57399576316E+01 -0.96642526046E+01 -0.55373146792E+01  0.12530673201E+02  0.10500000000E+00 0. -1.
</event>
<event>
11    0  0.3482687E-009  0.9118800E+02  0.7816531E-02  0.1126479E+00
         25   -1    0    0    0    0  0.00000000000E+00  0.00000000000E+00  0.99999998245E-14  0.12500000000E+03  0.12500000000E+03 0.  0.
    3000001    1    3    3    0    0 -0.36732439174E+01  0.34086425880E+02 -0.14852877126E+02  0.37376263980E+02  0.10000000000E+01 0.  1.
    1000022    2    1    0    0    0 -0.96774933917E+01  0.52630282502E+02 -0.30702603123E+02  0.62499996675E+02  0.99999615677E+01 0.  0.
    3000022    2    3    3    0    0 -0.60042494743E+01  0.18543856621E+02 -0.15849725997E+02  0.25123732695E+02  0.25000047654E+00 0.  0.
    1000022    2    1    0    0    0  0.96774933917E+01 -0.52630282502E+02  0.30702603123E+02  0.62500003325E+02  0.10000003124E+02 0.  0.
    3000022    2    5    5    0    0  0.10945792971E+02 -0.47682588559E+02  0.29596433755E+02  0.57179113376E+02  0.24996003116E+00 0.  0.
        -13    1    4    4    0    0 -0.26556472007E+01  0.82539049512E+01 -0.71337194493E+01  0.11228552319E+02  0.10500000000E+00 0.  1.
         13    1    4    4    0    0 -0.33486022736E+01  0.10289951670E+02 -0.87160065478E+01  0.13895180377E+02  0.10500000000E+00 0. -1.
    3000001    1    5    5    0    0 -0.12682995788E+01 -0.49476939429E+01  0.11061693679E+01  0.53208899486E+01  0.10000000000E+01 0. -1.
        -13    1    6    6    0    0  0.56369324685E+01 -0.24801524645E+02  0.15340572561E+02  0.29702438012E+02  0.10500000000E+00 0.  1.
         13    1    6    6    0    0  0.53088605020E+01 -0.22881063914E+02  0.14255861194E+02  0.27476675364E+02  0.10500000000E+00 0. -1.
</event>
<event>
11    0  0.3482687E-009  0.9118800E+02  0.7816531E-02  0.1126479E+00
         25   -1    0    0    0    0  0.00000000000E+00  0.00000000000E+00  0.99999998245E-14  0.12500000000E+03  0.12500000000E+03 0.  0.
    3000001    1    3    3    0    0  0.18119973417E+02  0.25997475785E+02  0.14787442334E+02  0.34983862488E+02  0.10000000000E+01 0.  1.
    1000022    2    1    0    0    0  0.35251495978E+02  0.39766024042E+02  0.31340792827E+02  0.62500001422E+02  0.10000012301E+02 0.  0.
    3000022    2    3    3    0    0  0.17131522561E+02  0.13768548257E+02  0.16553350492E+02  0.27516138934E+02  0.25000590467E+00 0.  0.
    1000022    2    1    0    0    0 -0.35251495978E+02 -0.39766024042E+02 -0.31340792827E+02  0.62499998578E+02  0.99999945202E+01 0.  0.
    3000022    2    5    5    0    0 -0.81701047801E+01 -0.12449579370E+02 -0.13442415394E+02  0.20062493780E+02  0.24997288026E+00 0.  0.
        -13    1    4    4    0    0  0.47127928781E+01  0.37802434013E+01  0.45038802735E+01  0.75363531899E+01  0.10500000000E+00 0.  1.
         13    1    4    4    0    0  0.12418729683E+02  0.99883048559E+01  0.12049470219E+02  0.19979785744E+02  0.10500000000E+00 0. -1.
    3000001    1    5    5    0    0 -0.27081391198E+02 -0.27316444672E+02 -0.17898377433E+02  0.42437504798E+02  0.10000000000E+01 0. -1.
        -13    1    6    6    0    0 -0.24664779869E+01 -0.37408842394E+01 -0.41063292473E+01  0.60787082048E+01  0.10500000000E+00 0. -1.
         13    1    6    6    0    0 -0.57036267931E+01 -0.87086951307E+01 -0.93360861465E+01  0.13983785575E+02  0.10500000000E+00 0.  1.
</event>
<event>
11    0  0.3482687E-009  0.9118800E+02  0.7816531E-02  0.1126479E+00
         25   -1    0    0    0    0  0.00000000000E+00  0.00000000000E+00  0.99999998245E-14  0.12500000000E+03  0.12500000000E+03 0.  0.
    3000001    1    3    3    0    0 -0.49158592556E+01  0.12441805238E+02  0.97146232946E+01  0.16563154759E+02  0.10000000000E+01 0. -1.
    1000022    2    1    0    0    0 -0.43057032033E+01  0.43284146600E+02  0.43751497982E+02  0.62499998886E+02  0.99999929084E+01 0.  0.
    3000022    2    3    3    0    0  0.61015605237E+00  0.30842341362E+02  0.34036874688E+02  0.45936844128E+02  0.24999767469E+00 0.  0.
    1000022    2    1    0    0    0  0.43057032033E+01 -0.43284146600E+02 -0.43751497982E+02  0.62500001114E+02  0.10000006830E+02 0.  0.
    3000022    2    5    5    0    0 -0.27559674489E+01 -0.12237620304E+02 -0.15321560797E+02  0.19803217677E+02  0.24999570637E+00 0.  0.
        -13    1    4    4    0    0  0.16734465107E+00  0.99895931253E+01  0.11086205389E+02  0.14924307353E+02  0.10500000000E+00 0. -1.
         13    1    4    4    0    0  0.44281140130E+00  0.20852748236E+02  0.22950669298E+02  0.31012536774E+02  0.10500000000E+00 0.  1.
    3000001    1    5    5    0    0  0.70616706522E+01 -0.31046526296E+02 -0.28429937185E+02  0.42696783436E+02  0.10000000000E+01 0.  1.
        -13    1    6    6    0    0 -0.16016591514E+01 -0.72963386082E+01 -0.92004932931E+01  0.11851665324E+02  0.10500000000E+00 0. -1.
         13    1    6    6    0    0 -0.11543082975E+01 -0.49412816954E+01 -0.61210675038E+01  0.79515523532E+01  0.10500000000E+00 0.  1.
</event>
<event>
11    0  0.3482687E-009  0.9118800E+02  0.7816531E-02  0.1126479E+00
         25   -1    0    0    0    0  0.00000000000E+00  0.00000000000E+00  0.99999998245E-14  0.12500000000E+03  0.12500000000E+03 0.  0.
    3000001    1    3    3    0    0  0.54557316631E+01  0.43473738497E+01 -0.32335719646E+01  0.77537510290E+01  0.10000000000E+01 0.  1.
    1000022    2    1    0    0    0  0.25549405332E+02  0.51962984337E+02 -0.21291458828E+02  0.62500000795E+02  0.10000001319E+02 0.  0.
    3000022    2    3    3    0    0  0.20093673669E+02  0.47615610487E+02 -0.18057886863E+02  0.54746249766E+02  0.25000386492E+00 0.  0.
    1000022    2    1    0    0    0 -0.25549405332E+02 -0.51962984337E+02  0.21291458828E+02  0.62499999205E+02  0.99999913762E+01 0.  0.
    3000022    2    5    5    0    0 -0.91896580031E+01 -0.19470627251E+02  0.13078416456E+02  0.25192511127E+02  0.25000021873E+00 0.  0.
        -13    1    4    4    0    0  0.51168922471E+01  0.12052779607E+02 -0.45763083116E+01  0.13871038364E+02  0.10500000000E+00 0. -1.
         13    1    4    4    0    0  0.14976781422E+02  0.35562830880E+02 -0.13481578552E+02  0.40875211403E+02  0.10500000000E+00 0.  1.
    3000001    1    5    5    0    0 -0.16359747329E+02 -0.32492357086E+02  0.82130423715E+01  0.37307488078E+02  0.10000000000E+01 0.  1.
        -13    1    6    6    0    0 -0.65220529179E+01 -0.13892731600E+02  0.92898568683E+01  0.17940391055E+02  0.10500000000E+00 0. -1.
         13    1    6    6    0    0 -0.26676050853E+01 -0.55778956510E+01  0.37885595880E+01  0.72521200718E+01  0.10500000000E+00 0.  1.
</event>
<event>
11    0  0.3482687E-009  0.9118800E+02  0.7816531E-02  0.1126479E+00
         25   -1    0    0    0    0  0.00000000000E+00  0.00000000000E+00  0.99999998245E-14  0.12500000000E+03  0.12500000000E+03 0.  0.
    3000001    1    3    3    0    0  0.15805642887E+02  0.33654795721E+01  0.14570872551E+02  0.21781990880E+02  0.10000000000E+01 0.  1.
    1000022    2    1    0    0    0  0.34890817574E+02  0.83524096166E+01  0.50190816583E+02  0.62500000120E+02  0.10000002420E+02 0.  0.
    3000022    2    3    3    0    0  0.19085174687E+02  0.49869300444E+01  0.35619944032E+02  0.40718009240E+02  0.24999903736E+00 0.  0.
    1000022    2    1    0    0    0 -0.34890817574E+02 -0.83524096166E+01 -0.50190816583E+02  0.62499999880E+02  0.10000000922E+02 0.  0.
    3000022    2    5    5    0    0 -0.31449060941E+02 -0.55977422900E+01 -0.38883759297E+02  0.50322831685E+02  0.24999781096E+00 0.  0.
        -13    1    4    4    0    0  0.52488813929E+01  0.14074994021E+01  0.98459268307E+01  0.11246559945E+02  0.10500000000E+00 0.  1.
         13    1    4    4    0    0  0.13836293294E+02  0.35794306423E+01  0.25774017201E+02  0.29471449295E+02  0.10500000000E+00 0. -1.
    3000001    1    5    5    0    0 -0.34417566324E+01 -0.27546673266E+01 -0.11307057285E+02  0.12177168195E+02  0.10000000000E+01 0.  1.
        -13    1    6    6    0    0 -0.21504093402E+02 -0.38720040914E+01 -0.26634472140E+02  0.34450320461E+02  0.10500000000E+00 0. -1.
         13    1    6    6    0    0 -0.99449675393E+01 -0.17257381986E+01 -0.12249287158E+02  0.15872511224E+02  0.10500000000E+00 0.  1.
</event>
<event>
11    0  0.3482687E-009  0.9118800E+02  0.7816531E-02  0.1126479E+00
         25   -1    0    0    0    0  0.00000000000E+00  0.00000000000E+00  0.99999998245E-14  0.12500000000E+03  0.12500000000E+03 0.  0.
    3000001    1    3    3    0    0 -0.76752241738E+01  0.60449130616E+01  0.71116739338E+01  0.12125425608E+02  0.10000000000E+01 0.  1.
    1000022    2    1    0    0    0 -0.28570609438E+02  0.46044403964E+02  0.29493781404E+02  0.62499998802E+02  0.99999924291E+01 0.  0.
    3000022    2    3    3    0    0 -0.20895385264E+02  0.39999490903E+02  0.22382107470E+02  0.50374573193E+02  0.24998354336E+00 0.  0.
    1000022    2    1    0    0    0  0.28570609438E+02 -0.46044403964E+02 -0.29493781404E+02  0.62500001198E+02  0.10000007409E+02 0.  0.
    3000022    2    5    5    0    0  0.16023703086E+02 -0.16804531443E+02 -0.13737248121E+02  0.26980100506E+02  0.24999956957E+00 0.  0.
        -13    1    4    4    0    0 -0.96607084014E+01  0.18624434298E+02  0.10437950432E+02  0.23434177476E+02  0.10500000000E+00 0. -1.
         13    1    4    4    0    0 -0.11234676863E+02  0.21375056605E+02  0.11944157038E+02  0.26940395718E+02  0.10500000000E+00 0.  1.
    3000001    1    5    5    0    0  0.12546906352E+02 -0.29239872522E+02 -0.15756533283E+02  0.35519900693E+02  0.10000000000E+01 0.  1.
        -13    1    6    6    0    0  0.54009634589E+01 -0.56839498596E+01 -0.47001391771E+01  0.91422111972E+01  0.10500000000E+00 0. -1.
         13    1    6    6    0    0  0.10622739627E+02 -0.11120581583E+02 -0.90371089440E+01  0.17837889309E+02  0.10500000000E+00 0.  1.
</event>
<event>
11    0  0.3482687E-009  0.9118800E+02  0.7816531E-02  0.1126479E+00
         25   -1    0    0    0    0  0.00000000000E+00  0.00000000000E+00  0.99999998245E-14  0.12500000000E+03  0.12500000000E+03 0.  0.
    3000001    1    3    3    0    0 -0.27927161262E+01 -0.28796309770E+02  0.22403484484E+01  0.29035252382E+02  0.10000000000E+01 0. -1.
    1000022    2    1    0    0    0 -0.11109265823E+02 -0.60528703386E+02 -0.43715362735E+01  0.62499999850E+02  0.99999965575E+01 0.  0.
    3000022    2    3    3    0    0 -0.83165496970E+01 -0.31732393616E+02 -0.66118847219E+01  0.33464747468E+02  0.25000009406E+00 0.  0.
    1000022    2    1    0    0    0  0.11109265823E+02  0.60528703386E+02  0.43715362735E+01  0.62500000150E+02  0.99999984340E+01 0.  0.
    3000022    2    5    5    0    0  0.32359631084E+01  0.56687552657E+01 -0.16656170302E+01  0.67411441415E+01  0.25000148802E+00 0.  0.
        -13    1    4    4    0    0 -0.31372277363E+01 -0.11818928762E+02 -0.24177982474E+01  0.12465394030E+02  0.10500000000E+00 0.  1.
         13    1    4    4    0    0 -0.51793219607E+01 -0.19913464854E+02 -0.41940864745E+01  0.20999353438E+02  0.10500000000E+00 0. -1.
    3000001    1    5    5    0    0  0.78733027148E+01  0.54859948120E+02  0.60371533037E+01  0.55758856009E+02  0.10000000000E+01 0. -1.
        -13    1    6    6    0    0  0.13009794482E+01  0.24016270969E+01 -0.71988379160E+00  0.28265912175E+01  0.10500000000E+00 0. -1.
         13    1    6    6    0    0  0.19349836602E+01  0.32671281688E+01 -0.94573323859E+00  0.39145529240E+01  0.10500000000E+00 0.  1.
</event>
<event>
11    0  0.3482687E-009  0.9118800E+02  0.7816531E-02  0.1126479E+00
         25   -1    0    0    0    0  0.00000000000E+00  0.00000000000E+00  0.99999998245E-14  0.12500000000E+03  0.12500000000E+03 0.  0.
    3000001    1    3    3    0    0 -0.58386735546E+01 -0.17566292505E+02 -0.57902201858E+01  0.19421415784E+02  0.10000000000E+01 0.  1.
    1000022    2    1    0    0    0 -0.96533368588E+01 -0.53261219928E+02 -0.29602454489E+02  0.62500000968E+02  0.10000017421E+02 0.  0.
    3000022    2    3    3    0    0 -0.38146633041E+01 -0.35694927423E+02 -0.23812234303E+02  0.43078585184E+02  0.24999810784E+00 0.  0.
    1000022    2    1    0    0    0  0.96533368588E+01  0.53261219928E+02  0.29602454489E+02  0.62499999032E+02  0.10000005326E+02 0.  0.
    3000022    2    5    5    0    0  0.88072045827E+01  0.26729900441E+02  0.11773896771E+02  0.30508057486E+02  0.24999255918E+00 0.  0.
        -13    1    4    4    0    0 -0.20712077756E+01 -0.20002630873E+02 -0.13342594340E+02  0.24133607111E+02  0.10500000000E+00 0. -1.
         13    1    4    4    0    0 -0.17434555285E+01 -0.15692296551E+02 -0.10469639964E+02  0.18944978073E+02  0.10500000000E+00 0.  1.
    3000001    1    5    5    0    0  0.84613227610E+00  0.26531319487E+02  0.17828557719E+02  0.31991941546E+02  0.10000000000E+01 0.  1.
        -13    1    6    6    0    0  0.48367308203E+01  0.14628791145E+02  0.65160878181E+01  0.16729193670E+02  0.10500000000E+00 0.  1.
         13    1    6    6    0    0  0.39704737624E+01  0.12101109296E+02  0.52578089524E+01  0.13778863816E+02  0.10500000000E+00 0. -1.
</event>
<event>
11    0  0.3482687E-009  0.9118800E+02  0.7816531E-02  0.1126479E+00
         25   -1    0    0    0    0  0.00000000000E+00  0.00000000000E+00  0.99999998245E-14  0.12500000000E+03  0.12500000000E+03 0.  0.
    3000001    1    3    3    0    0  0.97609844706E-01 -0.77380692444E+01 -0.45522716553E+01  0.90338486005E+01  0.10000000000E+01 0.  1.
    1000022    2    1    0    0    0 -0.65612425861E+01 -0.60476868205E+02 -0.10283391063E+02  0.62500001127E+02  0.10000025844E+02 0.  0.
    3000022    2    3    3    0    0 -0.66588524308E+01 -0.52738798961E+02 -0.57311194074E+01  0.53466152526E+02  0.25000949638E+00 0.  0.
    1000022    2    1    0    0    0  0.65612425861E+01  0.60476868205E+02  0.10283391063E+02  0.62499998873E+02  0.10000011762E+02 0.  0.
    3000022    2    5    5    0    0  0.45930379961E+01  0.47587545730E+02  0.12049132879E+02  0.49304306116E+02  0.24998368889E+00 0.  0.
        -13    1    4    4    0    0 -0.32915283388E+01 -0.25557990373E+02 -0.28004121637E+01  0.25921002372E+02  0.10500000000E+00 0. -1.
         13    1    4    4    0    0 -0.33673240919E+01 -0.27180808588E+02 -0.29307072437E+01  0.27545150154E+02  0.10500000000E+00 0.  1.
    3000001    1    5    5    0    0  0.19682045900E+01  0.12889322475E+02 -0.17657418161E+01  0.13195692757E+02  0.10000000000E+01 0.  1.
        -13    1    6    6    0    0  0.25097436619E+01  0.25969401189E+02  0.66443450440E+01  0.26923353384E+02  0.10500000000E+00 0. -1.
         13    1    6    6    0    0  0.20832943341E+01  0.21618144541E+02  0.54047878348E+01  0.22380952732E+02  0.10500000000E+00 0.  1.
</event>
<event>
11    0  0.3482687E-009  0.9118800E+02  0.7816531E-02  0.1126479E+00
         25   -1    0    0    0    0  0.00000000000E+00  0.00000000000E+00  0.99999998245E-14  0.12500000000E+03  0.12500000000E+03 0.  0.
    3000001    1    3    3    0    0  0.29249062340E+01 -0.31836893832E+01  0.11899285632E+02  0.12699761932E+02  0.10000000000E+01 0.  1.
    1000022    2    1    0    0    0  0.75097818799E+01  0.21694273851E+01  0.61197604884E+02  0.62500000043E+02  0.99999961390E+01 0.  0.
    3000022    2    3    3    0    0  0.45848756459E+01  0.53531167683E+01  0.49298319252E+02  0.49800238111E+02  0.24998213254E+00 0.  0.
    1000022    2    1    0    0    0 -0.75097818799E+01 -0.21694273851E+01 -0.61197604884E+02  0.62499999957E+02  0.99999956009E+01 0.  0.
    3000022    2    5    5    0    0  0.43106517458E+00 -0.29935312582E+01 -0.60490546485E+01  0.67676144687E+01  0.24999375444E+00 0.  0.
        -13    1    4    4    0    0  0.25846275526E+01  0.29928544403E+01  0.28107434144E+02  0.28384438632E+02  0.10500000000E+00 0.  1.
         13    1    4    4    0    0  0.20002480933E+01  0.23602623280E+01  0.21190885108E+02  0.21415799479E+02  0.10500000000E+00 0. -1.
    3000001    1    5    5    0    0 -0.79408470544E+01  0.82410387314E+00 -0.55148550235E+02  0.55732385488E+02  0.10000000000E+01 0. -1.
        -13    1    6    6    0    0  0.87388981499E-01 -0.91298156032E+00 -0.18027828321E+01  0.20253945549E+01  0.10500000000E+00 0. -1.
         13    1    6    6    0    0  0.34367619309E+00 -0.20805496979E+01 -0.42462718165E+01  0.47422199138E+01  0.10500000000E+00 0.  1.
</event>
<event>
11    0  0.3482687E-009  0.9118800E+02  0.7816531E-02  0.1126479E+00
         25   -1    0    0    0    0  0.00000000000E+00  0.00000000000E+00  0.99999998245E-14  0.12500000000E+03  0.12500000000E+03 0.  0.
    3000001    1    3    3    0    0 -0.12122676027E+02 -0.83800699543E+01  0.31138317315E+02  0.34464179255E+02  0.10000000000E+01 0.  1.
    1000022    2    1    0    0    0 -0.13263067932E+02 -0.16385402830E+02  0.57981545236E+02  0.62499999773E+02  0.99999993367E+01 0.  0.
    3000022    2    3    3    0    0 -0.11403919048E+01 -0.80053328758E+01  0.26843227922E+02  0.28035820518E+02  0.24999745432E+00 0.  0.
    1000022    2    1    0    0    0  0.13263067932E+02  0.16385402830E+02 -0.57981545236E+02  0.62500000227E+02  0.10000002177E+02 0.  0.
    3000022    2    5    5    0    0  0.32281480424E+01  0.65477389286E+01 -0.33197420137E+02  0.33991543497E+02  0.25000130906E+00 0.  0.
        -13    1    4    4    0    0 -0.70538480287E+00 -0.45934557803E+01  0.15281751763E+02  0.15973113838E+02  0.10500000000E+00 0.  1.
         13    1    4    4    0    0 -0.43500710189E+00 -0.34118770955E+01  0.11561476159E+02  0.12062706681E+02  0.10500000000E+00 0. -1.
    3000001    1    5    5    0    0  0.10034919890E+02  0.98376639015E+01 -0.24784125099E+02  0.28508456731E+02  0.10000000000E+01 0. -1.
        -13    1    6    6    0    0  0.12596357447E+01  0.24646011708E+01 -0.12802762622E+02  0.13098957856E+02  0.10500000000E+00 0. -1.
         13    1    6    6    0    0  0.19685122977E+01  0.40831377578E+01 -0.20394657515E+02  0.20892585641E+02  0.10500000000E+00 0.  1.
</event>
<event>
11    0  0.3482687E-009  0.9118800E+02  0.7816531E-02  0.1126479E+00
         25   -1    0    0    0    0  0.00000000000E+00  0.00000000000E+00  0.99999998245E-14  0.12500000000E+03  0.12500000000E+03 0.  0.
    3000001    1    3    3    0    0  0.12461536766E+02 -0.54309301044E+01 -0.20947653350E+02  0.24991780273E+02  0.10000000000E+01 0.  1.
    1000022    2    1    0    0    0  0.31962153268E+02 -0.24296945846E+02 -0.46843666040E+02  0.62500000294E+02  0.10000008483E+02 0.  0.
    3000022    2    3    3    0    0  0.19500616502E+02 -0.18866015741E+02 -0.25896012690E+02  0.37508220020E+02  0.25000383789E+00 0.  0.
    1000022    2    1    0    0    0 -0.31962153268E+02  0.24296945846E+02  0.46843666040E+02  0.62499999706E+02  0.10000004811E+02 0.  0.
    3000022    2    5    5    0    0 -0.76353155860E+01  0.11300984574E+02  0.13165099697E+02  0.18957653974E+02  0.24999539005E+00 0.  0.
        -13    1    4    4    0    0  0.10105455696E+02 -0.96862294192E+01 -0.13333162079E+02  0.19332033292E+02  0.10500000000E+00 0.  1.
         13    1    4    4    0    0  0.93951608058E+01 -0.91797863222E+01 -0.12562850612E+02  0.18176186728E+02  0.10500000000E+00 0. -1.
    3000001    1    5    5    0    0 -0.24326837682E+02  0.12995961272E+02  0.33678566343E+02  0.43542345733E+02  0.10000000000E+01 0. -1.
        -13    1    6    6    0    0 -0.50658753360E+01  0.74833234170E+01  0.86477481453E+01  0.12508309049E+02  0.10500000000E+00 0.  1.
         13    1    6    6    0    0 -0.25694402500E+01  0.38176611573E+01  0.45173515521E+01  0.64493449246E+01  0.10500000000E+00 0. -1.
</event>
<event>
11    0  0.3482687E-009  0.9118800E+02  0.7816531E-02  0.1126479E+00
         25   -1    0    0    0    0  0.00000000000E+00  0.00000000000E+00  0.99999998245E-14  0.12500000000E+03  0.12500000000E+03 0.  0.
    3000001    1    3    3    0    0 -0.33857686541E+02  0.21297125197E+02 -0.43143428272E+02  0.58841022108E+02  0.10000000000E+01 0. -1.
    1000022    2    1    0    0    0 -0.33855881922E+02  0.21748129139E+02 -0.46765887872E+02  0.62500000188E+02  0.99999946660E+01 0.  0.
    3000022    2    3    3    0    0  0.18046192551E-02  0.45100394188E+00 -0.36224596001E+01  0.36589780809E+01  0.24999846045E+00 0.  0.
    1000022    2    1    0    0    0  0.33855881922E+02 -0.21748129139E+02  0.46765887872E+02  0.62499999812E+02  0.99999923098E+01 0.  0.
    3000022    2    5    5    0    0  0.16296651550E+02 -0.95152721854E+01  0.14637421200E+02  0.23883840872E+02  0.24999785981E+00 0.  0.
        -13    1    4    4    0    0 -0.49503338324E-01  0.23683120629E+00 -0.15602566454E+01  0.15823923029E+01  0.10500000000E+00 0. -1.
         13    1    4    4    0    0  0.51307957579E-01  0.21417273559E+00 -0.20622029547E+01  0.20765857780E+01  0.10500000000E+00 0.  1.
    3000001    1    5    5    0    0  0.17559230373E+02 -0.12232856953E+02  0.32128466672E+02  0.38616158939E+02  0.10000000000E+01 0. -1.
        -13    1    6    6    0    0  0.93300558656E+01 -0.54805228648E+01  0.84671985049E+01  0.13740107308E+02  0.10500000000E+00 0. -1.
         13    1    6    6    0    0  0.69665956840E+01 -0.40347493206E+01  0.61702226952E+01  0.10143733564E+02  0.10500000000E+00 0.  1.
</event>
<event>
11    0  0.3482687E-009  0.9118800E+02  0.7816531E-02  0.1126479E+00
         25   -1    0    0    0    0  0.00000000000E+00  0.00000000000E+00  0.99999998245E-14  0.12500000000E+03  0.12500000000E+03 0.  0.
    3000001    1    3    3    0    0 -0.11057713165E+01 -0.11311547436E+02  0.40410016273E+01  0.12103864249E+02  0.10000000000E+01 0.  1.
    1000022    2    1    0    0    0 -0.18607824749E+02 -0.58538949051E+02  0.57610966626E+01  0.62500000651E+02  0.10000007434E+02 0.  0.
    3000022    2    3    3    0    0 -0.17502053432E+02 -0.47227401615E+02  0.17200950353E+01  0.50396136402E+02  0.24999926734E+00 0.  0.
    1000022    2    1    0    0    0  0.18607824749E+02  0.58538949051E+02 -0.57610966626E+01  0.62499999349E+02  0.99999992993E+01 0.  0.
    3000022    2    5    5    0    0  0.10908261225E+02  0.18766268313E+02 -0.22891860000E+01  0.21828097805E+02  0.24998378953E+00 0.  0.
        -13    1    4    4    0    0 -0.83985063890E+01 -0.22469522595E+02  0.81088055127E+00  0.24001727177E+02  0.10500000000E+00 0. -1.
         13    1    4    4    0    0 -0.91035470431E+01 -0.24757879020E+02  0.90921448403E+00  0.26394409224E+02  0.10500000000E+00 0.  1.
    3000001    1    5    5    0    0  0.76995635233E+01  0.39772680738E+02 -0.34719106626E+01  0.40671901544E+02  0.10000000000E+01 0. -1.
        -13    1    6    6    0    0  0.78677660784E+01  0.13483736305E+02 -0.16158413971E+01  0.15695058338E+02  0.10500000000E+00 0.  1.
         13    1    6    6    0    0  0.30404951469E+01  0.52825320080E+01 -0.67334460290E+00  0.61330394673E+01  0.10500000000E+00 0. -1.
</event>
<event>
11    0  0.3482687E-009  0.9118800E+02  0.7816531E-02  0.1126479E+00
         25   -1    0    0    0    0  0.00000000000E+00  0.00000000000E+00  0.99999998245E-14  0.12500000000E+03  0.12500000000E+03 0.  0.
    3000001    1    3    3    0    0  0.29626164725E+01 -0.12276970331E+00 -0.26011290354E+01  0.40691572864E+01  0.10000000000E+01 0.  1.
    1000022    2    1    0    0    0  0.16585875853E+02 -0.17411427849E+01 -0.59398038068E+02  0.62500002735E+02  0.10000027979E+02 0.  0.
    3000022    2    3    3    0    0  0.13623259381E+02 -0.16183730816E+01 -0.56796909032E+02  0.58430845449E+02  0.24999327060E+00 0.  0.
    1000022    2    1    0    0    0 -0.16585875853E+02  0.17411427849E+01  0.59398038068E+02  0.62499997265E+02  0.99999937898E+01 0.  0.
    3000022    2    5    5    0    0 -0.15220194422E+02  0.25595293886E+00  0.57713526225E+02  0.59687799761E+02  0.25000177103E+00 0.  0.
        -13    1    4    4    0    0  0.57176648438E+01 -0.61412760663E+00 -0.23821716875E+02  0.24506204599E+02  0.10500000000E+00 0.  1.
         13    1    4    4    0    0  0.79055945369E+01 -0.10042454750E+01 -0.32975192158E+02  0.33924640850E+02  0.10500000000E+00 0. -1.
    3000001    1    5    5    0    0 -0.13656814317E+01  0.14851898461E+01  0.16845118432E+01  0.28121975040E+01  0.10000000000E+01 0. -1.
        -13    1    6    6    0    0 -0.66545898023E+01  0.13652378967E+00  0.24996084095E+02  0.25867304639E+02  0.10500000000E+00 0.  1.
         13    1    6    6    0    0 -0.85656046193E+01  0.11942914919E+00  0.32717442129E+02  0.33820495122E+02  0.10500000000E+00 0. -1.
</event>
<event>
11    0  0.3482687E-009  0.9118800E+02  0.7816531E-02  0.1126479E+00
         25   -1    0    0    0    0  0.00000000000E+00  0.00000000000E+00  0.99999998245E-14  0.12500000000E+03  0.12500000000E+03 0.  0.
    3000001    1    3    3    0    0 -0.42377708991E+02 -0.74017860564E+01  0.53931867922E+01  0.43367535322E+02  0.10000000000E+01 0. -1.
    1000022    2    1    0    0    0 -0.58866379000E+02 -0.12321277083E+02  0.13754471644E+02  0.62500000239E+02  0.10000004706E+02 0.  0.
    3000022    2    3    3    0    0 -0.16488670009E+02 -0.49194910268E+01  0.83612848515E+01  0.19132464917E+02  0.24999757186E+00 0.  0.
    1000022    2    1    0    0    0  0.58866379000E+02  0.12321277083E+02 -0.13754471644E+02  0.62499999761E+02  0.10000001717E+02 0.  0.
    3000022    2    5    5    0    0  0.42771131404E+02  0.13046560357E+02 -0.11735364455E+02  0.46231630917E+02  0.24999916681E+00 0.  0.
        -13    1    4    4    0    0 -0.71253447003E+01 -0.21302908112E+01  0.35410815886E+01  0.82376549974E+01  0.10500000000E+00 0. -1.
         13    1    4    4    0    0 -0.93633253088E+01 -0.27892002156E+01  0.48202032629E+01  0.10894809919E+02  0.10500000000E+00 0.  1.
    3000001    1    5    5    0    0  0.16095247596E+02 -0.72528327402E+00 -0.20191071883E+01  0.16268368844E+02  0.10000000000E+01 0.  1.
        -13    1    6    6    0    0  0.15728705764E+02  0.48596610219E+01 -0.43175404601E+01  0.17019420404E+02  0.10500000000E+00 0.  1.
         13    1    6    6    0    0  0.27042425640E+02  0.81868993353E+01 -0.74178239953E+01  0.29212210513E+02  0.10500000000E+00 0. -1.
</event>
<event>
11    0  0.3482687E-009  0.9118800E+02  0.7816531E-02  0.1126479E+00
         25   -1    0    0    0    0  0.00000000000E+00  0.00000000000E+00  0.99999998245E-14  0.12500000000E+03  0.12500000000E+03 0.  0.
    3000001    1    3    3    0    0  0.16704407628E+02 -0.24003608681E+01  0.22949172569E+02  0.28503745159E+02  0.10000000000E+01 0. -1.
    1000022    2    1    0    0    0  0.37877736703E+02 -0.15189858543E+02  0.46268728981E+02  0.62499999931E+02  0.99999984748E+01 0.  0.
    3000022    2    3    3    0    0  0.21173329075E+02 -0.12789497675E+02  0.23319556412E+02  0.33996254772E+02  0.25002465238E+00 0.  0.
    1000022    2    1    0    0    0 -0.37877736703E+02  0.15189858543E+02 -0.46268728981E+02  0.62500000069E+02  0.99999993410E+01 0.  0.
    3000022    2    5    5    0    0 -0.33977935416E+02  0.10995484389E+02 -0.36062367677E+02  0.50753892813E+02  0.25000209045E+00 0.  0.
        -13    1    4    4    0    0  0.91114984470E+01 -0.54293211433E+01  0.10020002238E+02  0.14591381082E+02  0.10500000000E+00 0.  1.
         13    1    4    4    0    0  0.12061830628E+02 -0.73601765316E+01  0.13299554174E+02  0.19404873690E+02  0.10500000000E+00 0. -1.
    3000001    1    5    5    0    0 -0.38998012870E+01  0.41943741536E+01 -0.10206361304E+02  0.11746107257E+02  0.10000000000E+01 0.  1.
        -13    1    6    6    0    0 -0.21011422662E+02  0.67434263516E+01 -0.22325222417E+02  0.31390767149E+02  0.10500000000E+00 0.  1.
         13    1    6    6    0    0 -0.12966512755E+02  0.42520580378E+01 -0.13737145260E+02  0.19363125664E+02  0.10500000000E+00 0. -1.
</event>
<event>
11    0  0.3482687E-009  0.9118800E+02  0.7816531E-02  0.1126479E+00
         25   -1    0    0    0    0  0.00000000000E+00  0.00000000000E+00  0.99999998245E-14  0.12500000000E+03  0.12500000000E+03 0.  0.
    3000001    1    3    3    0    0 -0.19442294441E+02 -0.44831132105E+02  0.55633055886E+01  0.49191295856E+02  0.10000000000E+01 0.  1.
    1000022    2    1    0    0    0 -0.20980182420E+02 -0.57033550672E+02  0.10642179245E+02  0.62499999166E+02  0.99999980021E+01 0.  0.
    3000022    2    3    3    0    0 -0.15378879793E+01 -0.12202418567E+02  0.50788736566E+01  0.13308703310E+02  0.25001570144E+00 0.  0.
    1000022    2    1    0    0    0  0.20980182420E+02  0.57033550672E+02 -0.10642179245E+02  0.62500000834E+02  0.10000008429E+02 0.  0.
    3000022    2    5    5    0    0  0.17474704592E+02  0.34701035608E+02 -0.84866294315E+01  0.39769492726E+02  0.24999940120E+00 0.  0.
        -13    1    4    4    0    0 -0.66133566373E+00 -0.48926012074E+01  0.19902047396E+01  0.53241761184E+01  0.10500000000E+00 0.  1.
         13    1    4    4    0    0 -0.87655231554E+00 -0.73098173597E+01  0.30886689170E+01  0.79845271916E+01  0.10500000000E+00 0. -1.
    3000001    1    5    5    0    0  0.35054778284E+01  0.22332515064E+02 -0.21555498136E+01  0.22730508109E+02  0.10000000000E+01 0. -1.
        -13    1    6    6    0    0  0.50119138308E+01  0.99355536190E+01 -0.23887162523E+01  0.11382069069E+02  0.10500000000E+00 0.  1.
         13    1    6    6    0    0  0.12462790761E+02  0.24765481989E+02 -0.60979131792E+01  0.28387423656E+02  0.10500000000E+00 0. -1.
</event>
<event>
11    0  0.3482687E-009  0.9118800E+02  0.7816531E-02  0.1126479E+00
         25   -1    0    0    0    0  0.00000000000E+00  0.00000000000E+00  0.99999998245E-14  0.12500000000E+03  0.12500000000E+03 0.  0.
    3000001    1    3    3    0    0  0.12318828466E+01 -0.27869618659E+01  0.10849084841E+02  0.11313148707E+02  0.10000000000E+01 0.  1.
    1000022    2    1    0    0    0  0.22391834271E+02 -0.25889010565E+02  0.51328494536E+02  0.62499995730E+02  0.10000000239E+02 0.  0.
    3000022    2    3    3    0    0  0.21159951424E+02 -0.23102048699E+02  0.40479409696E+02  0.51186847023E+02  0.25000084293E+00 0.  0.
    1000022    2    1    0    0    0 -0.22391834271E+02  0.25889010565E+02 -0.51328494536E+02  0.62500004270E+02  0.10000053619E+02 0.  0.
    3000022    2    5    5    0    0 -0.15376595357E+01 -0.75676002590E+00 -0.34901061502E+01  0.38962066320E+01  0.25000518992E+00 0.  0.
        -13    1    4    4    0    0  0.75417555807E+01 -0.82175537907E+01  0.14320111367E+02  0.18151663343E+02  0.10500000000E+00 0.  1.
         13    1    4    4    0    0  0.13618195844E+02 -0.14884494908E+02  0.26159298329E+02  0.33035183680E+02  0.10500000000E+00 0. -1.
    3000001    1    5    5    0    0 -0.20854174735E+02  0.26645770591E+02 -0.47838388386E+02  0.58603797638E+02  0.10000000000E+01 0. -1.
        -13    1    6    6    0    0 -0.59138441273E+00 -0.22499908502E+00 -0.12836869432E+01  0.14350042788E+01  0.10500000000E+00 0.  1.
         13    1    6    6    0    0 -0.94627512292E+00 -0.53176094088E+00 -0.22064192070E+01  0.24612023532E+01  0.10500000000E+00 0. -1.
</event>
<event>
11    0  0.3482687E-009  0.9118800E+02  0.7816531E-02  0.1126479E+00
         25   -1    0    0    0    0  0.00000000000E+00  0.00000000000E+00  0.99999998245E-14  0.12500000000E+03  0.12500000000E+03 0.  0.
    3000001    1    3    3    0    0 -0.68844179917E+00  0.41056632765E+00  0.48907674672E+00  0.13717554025E+01  0.10000000000E+01 0. -1.
    1000022    2    1    0    0    0 -0.60665558480E+02 -0.10165460459E+02 -0.47542962182E+01  0.62500000343E+02  0.10000006918E+02 0.  0.
    3000022    2    3    3    0    0 -0.59977116681E+02 -0.10576026787E+02 -0.52433729649E+01  0.61128244941E+02  0.25000311466E+00 0.  0.
    1000022    2    1    0    0    0  0.60665558480E+02  0.10165460459E+02  0.47542962182E+01  0.62499999657E+02  0.10000002625E+02 0.  0.
    3000022    2    5    5    0    0  0.48467339195E+02  0.10415955918E+02  0.61812269232E+00  0.49578419523E+02  0.25000091643E+00 0.  0.
        -13    1    4    4    0    0 -0.42119084505E+02 -0.74310946494E+01 -0.36370203519E+01  0.42924088683E+02  0.10500000000E+00 0.  1.
         13    1    4    4    0    0 -0.17858032175E+02 -0.31449321373E+01 -0.16063526130E+01  0.18204156257E+02  0.10500000000E+00 0. -1.
    3000001    1    5    5    0    0  0.12198219285E+02 -0.25049545886E+00  0.41361735259E+01  0.12921580133E+02  0.10000000000E+01 0. -1.
        -13    1    6    6    0    0  0.15222493360E+02  0.33052089338E+01  0.15746461978E+00  0.15578335286E+02  0.10500000000E+00 0. -1.
         13    1    6    6    0    0  0.33244845835E+02  0.71107469841E+01  0.46065807254E+00  0.34000084237E+02  0.10500000000E+00 0.  1.
</event>
<event>
11    0  0.3482687E-009  0.9118800E+02  0.7816531E-02  0.1126479E+00
         25   -1    0    0    0    0  0.00000000000E+00  0.00000000000E+00  0.99999998245E-14  0.12500000000E+03  0.12500000000E+03 0.  0.
    3000001    1    3    3    0    0  0.16858239094E+02  0.42647463154E+00  0.19963342792E+02  0.26151809907E+02  0.10000000000E+01 0. -1.
    1000022    2    1    0    0    0  0.35016702981E+02 -0.91102677934E+01  0.49970827577E+02  0.62499999760E+02  0.99999947171E+01 0.  0.
    3000022    2    3    3    0    0  0.18158463887E+02 -0.95367424249E+01  0.30007484785E+02  0.36348189853E+02  0.24999135923E+00 0.  0.
    1000022    2    1    0    0    0 -0.35016702981E+02  0.91102677934E+01 -0.49970827577E+02  0.62500000240E+02  0.99999977131E+01 0.  0.
    3000022    2    5    5    0    0 -0.31159207439E+02  0.10677946312E+02 -0.46517804792E+02  0.56998977230E+02  0.24999387140E+00 0.  0.
        -13    1    4    4    0    0  0.75459215717E+01 -0.39743693185E+01  0.12365087686E+02  0.15021416788E+02  0.10500000000E+00 0. -1.
         13    1    4    4    0    0  0.10612542315E+02 -0.55623731064E+01  0.17642397099E+02  0.21326773065E+02  0.10500000000E+00 0.  1.
    3000001    1    5    5    0    0 -0.38574955422E+01 -0.15676785187E+01 -0.34530227850E+01  0.55010230094E+01  0.10000000000E+01 0.  1.
        -13    1    6    6    0    0 -0.16672781422E+02  0.57760083550E+01 -0.24863765850E+02  0.30488715783E+02  0.10500000000E+00 0. -1.
         13    1    6    6    0    0 -0.14486426017E+02  0.49019379571E+01 -0.21654038943E+02  0.26510261448E+02  0.10500000000E+00 0.  1.
</event>
<event>
11    0  0.3482687E-009  0.9118800E+02  0.7816531E-02  0.1126479E+00
         25   -1    0    0    0    0  0.00000000000E+00  0.00000000000E+00  0.99999998245E-14  0.12500000000E+03  0.12500000000E+03 0.  0.
    3000001    1    3    3    0    0  0.67036688969E+01  0.95003185800E+01  0.37308836653E+02  0.39091489128E+02  0.10000000000E+01 0. -1.
    1000022    2    1    0    0    0  0.11756740329E+02  0.76027109890E+01  0.60085168849E+02  0.62499997425E+02  0.10000000252E+02 0.  0.
    3000022    2    3    3    0    0  0.50530714316E+01 -0.18976075910E+01  0.22776332195E+02  0.23408508297E+02  0.25001394367E+00 0.  0.
    1000022    2    1    0    0    0 -0.11756740329E+02 -0.76027109890E+01 -0.60085168849E+02  0.62500002575E+02  0.10000032437E+02 0.  0.
    3000022    2    5    5    0    0 -0.35038797635E+01  0.18698072097E+01 -0.22739224135E+02  0.23084803792E+02  0.24999890000E+00 0.  0.
        -13    1    4    4    0    0  0.30227244286E+01 -0.10747796430E+01  0.13657189422E+02  0.14029321515E+02  0.10500000000E+00 0.  1.
         13    1    4    4    0    0  0.20303470030E+01 -0.82282794801E+00  0.91191427735E+01  0.93791867829E+01  0.10500000000E+00 0. -1.
    3000001    1    5    5    0    0 -0.82528605651E+01 -0.94725181987E+01 -0.37345944713E+02  0.39415198783E+02  0.10000000000E+01 0.  1.
        -13    1    6    6    0    0 -0.22793479193E+01  0.11512714532E+01 -0.14570332155E+02  0.14792783950E+02  0.10500000000E+00 0.  1.
         13    1    6    6    0    0 -0.12245318441E+01  0.71853575656E+00 -0.81688919804E+01  0.82920198419E+01  0.10500000000E+00 0. -1.
</event>
<event>
11    0  0.3482687E-009  0.9118800E+02  0.7816531E-02  0.1126479E+00
         25   -1    0    0    0    0  0.00000000000E+00  0.00000000000E+00  0.99999998245E-14  0.12500000000E+03  0.12500000000E+03 0.  0.
    3000001    1    3    3    0    0 -0.17505855656E+02 -0.10643500300E+02  0.58544880041E+02  0.62034200728E+02  0.10000000000E+01 0.  1.
    1000022    2    1    0    0    0 -0.17323661973E+02 -0.10777750144E+02  0.58223545065E+02  0.62500001962E+02  0.99999941490E+01 0.  0.
    3000022    2    3    3    0    0  0.18219368357E+00 -0.13424984423E+00 -0.32133497597E+00  0.46580123430E+00  0.24999412811E+00 0.  0.
    1000022    2    1    0    0    0  0.17323661973E+02  0.10777750144E+02 -0.58223545065E+02  0.62499998038E+02  0.99999696203E+01 0.  0.
    3000022    2    5    5    0    0  0.13920512703E+02  0.33035295431E+01 -0.40126187552E+02  0.42601260703E+02  0.25000933250E+00 0.  0.
        -13    1    4    4    0    0  0.45228003924E-01 -0.11395717169E+00 -0.12935862306E+00  0.20685855718E+00  0.10500000000E+00 0.  1.
         13    1    4    4    0    0  0.13696567965E+00 -0.20292672544E-01 -0.19197635291E+00  0.25894267712E+00  0.10500000000E+00 0. -1.
    3000001    1    5    5    0    0  0.34031492698E+01  0.74742206014E+01 -0.18097357513E+02  0.19898737335E+02  0.10000000000E+01 0. -1.
        -13    1    6    6    0    0  0.57477777542E+01  0.14025671302E+01 -0.16438624713E+02  0.17471220654E+02  0.10500000000E+00 0.  1.
         13    1    6    6    0    0  0.81727349486E+01  0.19009624129E+01 -0.23687562839E+02  0.25130040049E+02  0.10500000000E+00 0. -1.
</event>
<event>
11    0  0.3482687E-009  0.9118800E+02  0.7816531E-02  0.1126479E+00
         25   -1    0    0    0    0  0.00000000000E+00  0.00000000000E+00  0.99999998245E-14  0.12500000000E+03  0.12500000000E+03 0.  0.
    3000001    1    3    3    0    0 -0.26966656189E+01  0.32112155442E+00  0.19839366432E+01  0.35087218638E+01  0.10000000000E+01 0.  1.
    1000022    2    1    0    0    0 -0.60456019852E+02  0.12265515448E+02  0.93651553050E+00  0.62500002143E+02  0.10000000046E+02 0.  0.
    3000022    2    3    3    0    0 -0.57759354233E+02  0.11944393893E+02 -0.10474211127E+01  0.58991280279E+02  0.25002204859E+00 0.  0.
    1000022    2    1    0    0    0  0.60456019852E+02 -0.12265515448E+02 -0.93651553050E+00  0.62499997857E+02  0.99999732631E+01 0.  0.
    3000022    2    5    5    0    0  0.25399657721E+02 -0.29669048269E+01  0.39958638284E+01  0.25883866829E+02  0.24999537466E+00 0.  0.
        -13    1    4    4    0    0 -0.43695861779E+02  0.90458842818E+01 -0.77248986477E+00  0.44629184674E+02  0.10500000000E+00 0.  1.
         13    1    4    4    0    0 -0.14063492454E+02  0.28985096113E+01 -0.27493124792E+00  0.14362095605E+02  0.10500000000E+00 0. -1.
    3000001    1    5    5    0    0  0.35056362132E+02 -0.92986106207E+01 -0.49323793589E+01  0.36616131029E+02  0.10000000000E+01 0. -1.
        -13    1    6    6    0    0  0.66308449919E+01 -0.76207646969E+00  0.10130593408E+01  0.67517538522E+01  0.10500000000E+00 0. -1.
         13    1    6    6    0    0  0.18768812729E+02 -0.22048283572E+01  0.29828044876E+01  0.19132112976E+02  0.10500000000E+00 0.  1.
</event>
<event>
11    0  0.3482687E-009  0.9118800E+02  0.7816531E-02  0.1126479E+00
         25   -1    0    0    0    0  0.00000000000E+00  0.00000000000E+00  0.99999998245E-14  0.12500000000E+03  0.12500000000E+03 0.  0.
    3000001    1    3    3    0    0  0.55144870683E+01  0.95968943813E+01  0.42960509755E+01  0.11914948736E+02  0.10000000000E+01 0.  1.
    1000022    2    1    0    0    0  0.17035634327E+02  0.45559186706E+02  0.37952572693E+02  0.62499998484E+02  0.99999853114E+01 0.  0.
    3000022    2    3    3    0    0  0.11521147259E+02  0.35962292324E+02  0.33656521718E+02  0.50585049748E+02  0.25000097733E+00 0.  0.
    1000022    2    1    0    0    0 -0.17035634327E+02 -0.45559186706E+02 -0.37952572693E+02  0.62500001516E+02  0.10000004266E+02 0.  0.
    3000022    2    5    5    0    0 -0.79896968007E+01 -0.31810910852E+02 -0.21568139514E+02  0.39255782337E+02  0.25000111571E+00 0.  0.
        -13    1    4    4    0    0  0.83864638601E+01  0.26280247213E+02  0.24562795579E+02  0.36936785476E+02  0.10500000000E+00 0. -1.
         13    1    4    4    0    0  0.31346833986E+01  0.96820451111E+01  0.90937261390E+01  0.13648264272E+02  0.10500000000E+00 0.  1.
    3000001    1    5    5    0    0 -0.90459375264E+01 -0.13748275853E+02 -0.16384433179E+02  0.23244219180E+02  0.10000000000E+01 0. -1.
        -13    1    6    6    0    0 -0.48736452353E+01 -0.19226925984E+02 -0.13097205440E+02  0.23769200996E+02  0.10500000000E+00 0. -1.
         13    1    6    6    0    0 -0.31160515654E+01 -0.12583984868E+02 -0.84709340743E+01  0.15486581340E+02  0.10500000000E+00 0.  1.
</event>
<event>
11    0  0.3482687E-009  0.9118800E+02  0.7816531E-02  0.1126479E+00
         25   -1    0    0    0    0  0.00000000000E+00  0.00000000000E+00  0.99999998245E-14  0.12500000000E+03  0.12500000000E+03 0.  0.
    3000001    1    3    3    0    0 -0.94426511117E+01 -0.44798249934E+02 -0.26413116101E+02  0.52864918040E+02  0.10000000000E+01 0. -1.
    1000022    2    1    0    0    0 -0.86564816612E+01 -0.50823420456E+02 -0.33886507054E+02  0.62500000474E+02  0.99999978672E+01 0.  0.
    3000022    2    3    3    0    0  0.78616945044E+00 -0.60251705220E+01 -0.74733909526E+01  0.96350824343E+01  0.24999792295E+00 0.  0.
    1000022    2    1    0    0    0  0.86564816612E+01  0.50823420456E+02  0.33886507054E+02  0.62499999526E+02  0.99999919386E+01 0.  0.
    3000022    2    5    5    0    0 -0.72819527224E-01  0.21354164990E+01 -0.55031646921E+00  0.22205068026E+01  0.24999187336E+00 0.  0.
        -13    1    4    4    0    0  0.33982745626E+00 -0.24481483417E+01 -0.29453135663E+01  0.38464022160E+01  0.10500000000E+00 0.  1.
         13    1    4    4    0    0  0.44634199417E+00 -0.35770221803E+01 -0.45280773863E+01  0.57886802183E+01  0.10500000000E+00 0. -1.
    3000001    1    5    5    0    0  0.87293011885E+01  0.48688003957E+02  0.34436823523E+02  0.60279492723E+02  0.10000000000E+01 0. -1.
        -13    1    6    6    0    0  0.21846813398E-01  0.77415562898E+00 -0.16594142058E+00  0.79897169925E+00  0.10500000000E+00 0.  1.
         13    1    6    6    0    0 -0.94666340622E-01  0.13612608700E+01 -0.38437504863E+00  0.14215351034E+01  0.10500000000E+00 0. -1.
</event>
<event>
11    0  0.3482687E-009  0.9118800E+02  0.7816531E-02  0.1126479E+00
         25   -1    0    0    0    0  0.00000000000E+00  0.00000000000E+00  0.99999998245E-14  0.12500000000E+03  0.12500000000E+03 0.  0.
    3000001    1    3    3    0    0  0.12267386342E+02 -0.20446354065E+02  0.62870940800E+01  0.24679337799E+02  0.10000000000E+01 0.  1.
    1000022    2    1    0    0    0  0.20843211846E+02 -0.56893474073E+02  0.11616501431E+02  0.62499999134E+02  0.99999957084E+01 0.  0.
    3000022    2    3    3    0    0  0.85758255030E+01 -0.36447120008E+02  0.53294073515E+01  0.37820661335E+02  0.25000239817E+00 0.  0.
    1000022    2    1    0    0    0 -0.20843211846E+02  0.56893474073E+02 -0.11616501431E+02  0.62500000866E+02  0.10000006531E+02 0.  0.
    3000022    2    5    5    0    0 -0.19906761921E+02  0.56131316935E+02 -0.12258783467E+02  0.60805790674E+02  0.24999256938E+00 0.  0.
        -13    1    4    4    0    0  0.24578946097E+01 -0.10379549646E+02  0.15571002931E+01  0.10780161553E+02  0.10500000000E+00 0.  1.
         13    1    4    4    0    0  0.61179308934E+01 -0.26067570361E+02  0.37723070583E+01  0.27040499783E+02  0.10500000000E+00 0. -1.
    3000001    1    5    5    0    0 -0.93644992415E+00  0.76215713743E+00  0.64228203508E+00  0.16942101921E+01  0.10000000000E+01 0. -1.
        -13    1    6    6    0    0 -0.11482324680E+02  0.32565677397E+02 -0.71225909365E+01  0.35257757317E+02  0.10500000000E+00 0. -1.
         13    1    6    6    0    0 -0.84244372409E+01  0.23565639539E+02 -0.51361925301E+01  0.25548033357E+02  0.10500000000E+00 0.  1.
</event>
<event>
11    0  0.3482687E-009  0.9118800E+02  0.7816531E-02  0.1126479E+00
         25   -1    0    0    0    0  0.00000000000E+00  0.00000000000E+00  0.99999998245E-14  0.12500000000E+03  0.12500000000E+03 0.  0.
    3000001    1    3    3    0    0 -0.59313935246E+01  0.76329352348E+01 -0.27455322499E+00  0.97220629969E+01  0.10000000000E+01 0. -1.
    1000022    2    1    0    0    0 -0.52735982887E+02  0.31927603075E+02 -0.24070992728E+01  0.62500000825E+02  0.10000012351E+02 0.  0.
    3000022    2    3    3    0    0 -0.46804589363E+02  0.24294667840E+02 -0.21325460478E+01  0.52777937828E+02  0.24999574654E+00 0.  0.
    1000022    2    1    0    0    0  0.52735982887E+02 -0.31927603075E+02  0.24070992728E+01  0.62499999175E+02  0.10000002039E+02 0.  0.
    3000022    2    5    5    0    0  0.31955349327E+02 -0.20865086062E+02  0.61002782530E+01  0.38649347511E+02  0.25000254233E+00 0.  0.
        -13    1    4    4    0    0 -0.32327907006E+02  0.16727542877E+02 -0.14839595070E+01  0.36429622876E+02  0.10500000000E+00 0.  1.
         13    1    4    4    0    0 -0.14476682357E+02  0.75671249628E+01 -0.64858654084E+00  0.16348314952E+02  0.10500000000E+00 0. -1.
    3000001    1    5    5    0    0  0.20780633560E+02 -0.11062517013E+02 -0.36931789802E+01  0.23850651664E+02  0.10000000000E+01 0.  1.
        -13    1    6    6    0    0  0.13669074402E+02 -0.89951197067E+01  0.25860161642E+01  0.16566661648E+02  0.10500000000E+00 0.  1.
         13    1    6    6    0    0  0.18286274925E+02 -0.11869966355E+02  0.35142620888E+01  0.22082685863E+02  0.10500000000E+00 0. -1.
</event>
<event>
11    0  0.3482687E-009  0.9118800E+02  0.7816531E-02  0.1126479E+00
         25   -1    0    0    0    0  0.00000000000E+00  0.00000000000E+00  0.99999998245E-14  0.12500000000E+03  0.12500000000E+03 0.  0.
    3000001    1    3    3    0    0 -0.35818795498E+02 -0.35264129916E+02 -0.26263739447E+02  0.56721503677E+02  0.10000000000E+01 0.  1.
    1000022    2    1    0    0    0 -0.41244462410E+02 -0.37091037415E+02 -0.27007397666E+02  0.62499996571E+02  0.99999653303E+01 0.  0.
    3000022    2    3    3    0    0 -0.54256669128E+01 -0.18269074993E+01 -0.74365821886E+00  0.57784928939E+01  0.25000023789E+00 0.  0.
    1000022    2    1    0    0    0  0.41244462410E+02  0.37091037415E+02  0.27007397666E+02  0.62500003429E+02  0.10000008197E+02 0.  0.
    3000022    2    5    5    0    0  0.39754248436E+02  0.36439475249E+02  0.24211147300E+02  0.59114108119E+02  0.24999994129E+00 0.  0.
        -13    1    4    4    0    0 -0.32430874819E+01 -0.11293663480E+01 -0.49854835475E+00  0.34716941434E+01  0.10500000000E+00 0.  1.
         13    1    4    4    0    0 -0.21825794309E+01 -0.69754115135E+00 -0.24510986410E+00  0.23067987506E+01  0.10500000000E+00 0.  1.
    3000001    1    5    5    0    0  0.14902139740E+01  0.65156216598E+00  0.27962503656E+01  0.33858953102E+01  0.10000000000E+01 0. -1.
        -13    1    6    6    0    0  0.17143639747E+02  0.15629977270E+02  0.10392252045E+02  0.25420670739E+02  0.10500000000E+00 0. -1.
         13    1    6    6    0    0  0.22610608689E+02  0.20809497979E+02  0.13818895256E+02  0.33693437380E+02  0.10500000000E+00 0.  1.
</event>
<event>
11    0  0.3482687E-009  0.9118800E+02  0.7816531E-02  0.1126479E+00
         25   -1    0    0    0    0  0.00000000000E+00  0.00000000000E+00  0.99999998245E-14  0.12500000000E+03  0.12500000000E+03 0.  0.
    3000001    1    3    3    0    0  0.17594299082E+02 -0.46501837694E+01 -0.43621637780E+02  0.47276112910E+02  0.10000000000E+01 0.  1.
    1000022    2    1    0    0    0  0.27927831086E+02 -0.48608399710E+01 -0.54796518020E+02  0.62499999051E+02  0.99999989900E+01 0.  0.
    3000022    2    3    3    0    0  0.10333532005E+02 -0.21065620167E+00 -0.11174880241E+02  0.15223886141E+02  0.25000224425E+00 0.  0.
    1000022    2    1    0    0    0 -0.27927831086E+02  0.48608399710E+01  0.54796518020E+02  0.62500000949E+02  0.10000010853E+02 0.  0.
    3000022    2    5    5    0    0 -0.21220293053E+02  0.70714565569E+01  0.35861106382E+02  0.42265680944E+02  0.24999922686E+00 0.  0.
        -13    1    4    4    0    0  0.53723005052E+01 -0.98010186283E-01 -0.57111712630E+01  0.78421757765E+01  0.10500000000E+00 0. -1.
         13    1    4    4    0    0  0.49612314996E+01 -0.11264601539E+00 -0.54637089777E+01  0.73817103648E+01  0.10500000000E+00 0.  1.
    3000001    1    5    5    0    0 -0.67075380337E+01 -0.22106165859E+01  0.18935411638E+02  0.20234320005E+02  0.10000000000E+01 0.  1.
        -13    1    6    6    0    0 -0.67355046452E+01  0.22975967529E+01  0.11410102136E+02  0.13447952611E+02  0.10500000000E+00 0.  1.
         13    1    6    6    0    0 -0.14484788407E+02  0.47738598040E+01  0.24451004246E+02  0.28817728333E+02  0.10500000000E+00 0. -1.
</event>
<event>
11    0  0.3482687E-009  0.9118800E+02  0.7816531E-02  0.1126479E+00
         25   -1    0    0    0    0  0.00000000000E+00  0.00000000000E+00  0.99999998245E-14  0.12500000000E+03  0.12500000000E+03 0.  0.
    3000001    1    3    3    0    0  0.35139245674E+02  0.56966445301E+01 -0.30945432785E+02  0.47178789257E+02  0.10000000000E+01 0. -1.
    1000022    2    1    0    0    0  0.47670476241E+02  0.11733277529E+02 -0.37364497113E+02  0.62500002390E+02  0.10000027382E+02 0.  0.
    3000022    2    3    3    0    0  0.12531230567E+02  0.60366329984E+01 -0.64190643279E+01  0.15321213134E+02  0.25001512407E+00 0.  0.
    1000022    2    1    0    0    0 -0.47670476241E+02 -0.11733277529E+02  0.37364497113E+02  0.62499997610E+02  0.99999975048E+01 0.  0.
    3000022    2    5    5    0    0 -0.31434821691E+02 -0.12441071534E+02  0.25840026790E+02  0.42552294302E+02  0.24998038489E+00 0.  0.
        -13    1    4    4    0    0  0.80148869723E+01  0.38949117866E+01 -0.41663992167E+01  0.98376144688E+01  0.10500000000E+00 0.  1.
         13    1    4    4    0    0  0.45163435945E+01  0.21417212119E+01 -0.22526651112E+01  0.54835986648E+01  0.10500000000E+00 0. -1.
    3000001    1    5    5    0    0 -0.16235654550E+02  0.70779400584E+00  0.11524470323E+02  0.19947703308E+02  0.10000000000E+01 0.  1.
        -13    1    6    6    0    0 -0.10454701342E+02 -0.41576431968E+01  0.85367970629E+01  0.14123551473E+02  0.10500000000E+00 0.  1.
         13    1    6    6    0    0 -0.20980120349E+02 -0.82834283375E+01  0.17303229727E+02  0.28428742829E+02  0.10500000000E+00 0. -1.
</event>
<event>
11    0  0.3482687E-009  0.9118800E+02  0.7816531E-02  0.1126479E+00
         25   -1    0    0    0    0  0.00000000000E+00  0.00000000000E+00  0.99999998245E-14  0.12500000000E+03  0.12500000000E+03 0.  0.
    3000001    1    3    3    0    0  0.16150579014E+02 -0.13329079925E+02 -0.62204183261E+01  0.21867765736E+02  0.10000000000E+01 0.  1.
    1000022    2    1    0    0    0  0.48754214382E+02 -0.27639274855E+02 -0.25794317385E+02  0.62500003838E+02  0.10000036799E+02 0.  0.
    3000022    2    3    3    0    0  0.32603635368E+02 -0.14310194929E+02 -0.19573899059E+02  0.40632238102E+02  0.25006141526E+00 0.  0.
    1000022    2    1    0    0    0 -0.48754214382E+02  0.27639274855E+02  0.25794317385E+02  0.62499996162E+02  0.99999888175E+01 0.  0.
    3000022    2    5    5    0    0 -0.39550196818E+02  0.26057938185E+02  0.23288194467E+02  0.52779131126E+02  0.24993997892E+00 0.  0.
        -13    1    4    4    0    0  0.10283228604E+02 -0.45264554905E+01 -0.62318679787E+01  0.12848377070E+02  0.10500000000E+00 0. -1.
         13    1    4    4    0    0  0.22320406764E+02 -0.97837394389E+01 -0.13342031081E+02  0.27783861032E+02  0.10500000000E+00 0.  1.
    3000001    1    5    5    0    0 -0.92040175631E+01  0.15813366694E+01  0.25061229184E+01  0.97208650359E+01  0.10000000000E+01 0.  1.
        -13    1    6    6    0    0 -0.27910607755E+02  0.18340062291E+02  0.16439958180E+02  0.37224228132E+02  0.10500000000E+00 0. -1.
         13    1    6    6    0    0 -0.11639589063E+02  0.77178758947E+01  0.68482362873E+01  0.15554902993E+02  0.10500000000E+00 0.  1.
</event>
<event>
11    0  0.3482687E-009  0.9118800E+02  0.7816531E-02  0.1126479E+00
         25   -1    0    0    0    0  0.00000000000E+00  0.00000000000E+00  0.99999998245E-14  0.12500000000E+03  0.12500000000E+03 0.  0.
    3000001    1    3    3    0    0 -0.58928264285E+00 -0.66696782200E+00 -0.41978780975E+01  0.44061639359E+01  0.10000000000E+01 0.  1.
    1000022    2    1    0    0    0  0.31011159576E+01  0.22085135945E+02 -0.57522862229E+02  0.62499999253E+02  0.10000003889E+02 0.  0.
    3000022    2    3    3    0    0  0.36903986004E+01  0.22752103767E+02 -0.53324984131E+02  0.58093835317E+02  0.25000324090E+00 0.  0.
    1000022    2    1    0    0    0 -0.31011159576E+01 -0.22085135945E+02  0.57522862229E+02  0.62500000747E+02  0.10000013226E+02 0.  0.
    3000022    2    5    5    0    0 -0.37746809136E+01 -0.71543319013E+01  0.11217964668E+02  0.13832494778E+02  0.24999907619E+00 0.  0.
        -13    1    4    4    0    0  0.19956219761E+01  0.12444374761E+02 -0.28999117464E+02  0.31619690210E+02  0.10500000000E+00 0.  1.
         13    1    4    4    0    0  0.16947766243E+01  0.10307729006E+02 -0.24325866667E+02  0.26474145107E+02  0.10500000000E+00 0. -1.
    3000001    1    5    5    0    0  0.67356495599E+00 -0.14930804044E+02  0.46304897561E+02  0.48667505969E+02  0.10000000000E+01 0. -1.
        -13    1    6    6    0    0 -0.24689200717E+01 -0.45655522157E+01  0.72352022124E+01  0.89049991246E+01  0.10500000000E+00 0.  1.
         13    1    6    6    0    0 -0.13057608419E+01 -0.25887796856E+01  0.39827624555E+01  0.49274956533E+01  0.10500000000E+00 0. -1.
</event>
<event>
11    0  0.3482687E-009  0.9118800E+02  0.7816531E-02  0.1126479E+00
         25   -1    0    0    0    0  0.00000000000E+00  0.00000000000E+00  0.99999998245E-14  0.12500000000E+03  0.12500000000E+03 0.  0.
    3000001    1    3    3    0    0 -0.76002982149E+01 -0.23062634131E+02 -0.21403535262E+02  0.32384578857E+02  0.10000000000E+01 0.  1.
    1000022    2    1    0    0    0 -0.20955662358E+02 -0.46682803459E+02 -0.34464851574E+02  0.62500000736E+02  0.10000008715E+02 0.  0.
    3000022    2    3    3    0    0 -0.13355364144E+02 -0.23620169328E+02 -0.13061316312E+02  0.30115421879E+02  0.25000134842E+00 0.  0.
    1000022    2    1    0    0    0  0.20955662358E+02  0.46682803459E+02  0.34464851574E+02  0.62499999264E+02  0.99999995172E+01 0.  0.
    3000022    2    5    5    0    0  0.19296900663E+02  0.35370898933E+02  0.29781765441E+02  0.50104759448E+02  0.25000007195E+00 0.  0.
        -13    1    4    4    0    0 -0.38350340413E+01 -0.68686642476E+01 -0.37792279150E+01  0.87280939086E+01  0.10500000000E+00 0. -1.
         13    1    4    4    0    0 -0.95203301022E+01 -0.16751505080E+02 -0.92820883972E+01  0.21387327971E+02  0.10500000000E+00 0.  1.
    3000001    1    5    5    0    0  0.16587616950E+01  0.11311904526E+02  0.46830861329E+01  0.12395239816E+02  0.10000000000E+01 0.  1.
        -13    1    6    6    0    0  0.59123189867E+01  0.10927883097E+02  0.91583961833E+01  0.15435718008E+02  0.10500000000E+00 0.  1.
         13    1    6    6    0    0  0.13384581677E+02  0.24443015835E+02  0.20623369258E+02  0.34669041439E+02  0.10500000000E+00 0. -1.
</event>
<event>
11    0  0.3482687E-009  0.9118800E+02  0.7816531E-02  0.1126479E+00
         25   -1    0    0    0    0  0.00000000000E+00  0.00000000000E+00  0.99999998245E-14  0.12500000000E+03  0.12500000000E+03 0.  0.
    3000001    1    3    3    0    0  0.21842394437E+01 -0.15624951164E+02  0.18661797677E+02  0.24457569245E+02  0.10000000000E+01 0. -1.
    1000022    2    1    0    0    0 -0.24592082951E+01 -0.32051002949E+02  0.52658669231E+02  0.62500000302E+02  0.10000004854E+02 0.  0.
    3000022    2    3    3    0    0 -0.46434477388E+01 -0.16426051784E+02  0.33996871554E+02  0.38042431057E+02  0.25000224312E+00 0.  0.
    1000022    2    1    0    0    0  0.24592082951E+01  0.32051002949E+02 -0.52658669231E+02  0.62499999698E+02  0.10000001078E+02 0.  0.
    3000022    2    5    5    0    0  0.17859724966E+01  0.26922430954E+02 -0.49446518481E+02  0.56329634264E+02  0.25004034074E+00 0.  0.
        -13    1    4    4    0    0 -0.23200509472E+01 -0.79821374976E+01  0.16490362925E+02  0.18467275106E+02  0.10500000000E+00 0.  1.
         13    1    4    4    0    0 -0.23233967916E+01 -0.84439142868E+01  0.17506508629E+02  0.19575155951E+02  0.10500000000E+00 0. -1.
    3000001    1    5    5    0    0  0.67323579843E+00  0.51285719946E+01 -0.32121507501E+01  0.61703654337E+01  0.10000000000E+01 0.  1.
        -13    1    6    6    0    0  0.12457325675E+01  0.19281444663E+02 -0.35458083870E+02  0.40380845641E+02  0.10500000000E+00 0. -1.
         13    1    6    6    0    0  0.54023992910E+00  0.76409862908E+01 -0.13988434611E+02  0.15948788623E+02  0.10500000000E+00 0.  1.
</event>
<event>
11    0  0.3482687E-009  0.9118800E+02  0.7816531E-02  0.1126479E+00
         25   -1    0    0    0    0  0.00000000000E+00  0.00000000000E+00  0.99999998245E-14  0.12500000000E+03  0.12500000000E+03 0.  0.
    3000001    1    3    3    0    0 -0.28457587862E+02 -0.88466049475E+01  0.15121302240E+02  0.33432775946E+02  0.10000000000E+01 0. -1.
    1000022    2    1    0    0    0 -0.50918206174E+02 -0.24686318038E+02  0.24579904271E+02  0.62500000472E+02  0.10000017339E+02 0.  0.
    3000022    2    3    3    0    0 -0.22460618312E+02 -0.15839713090E+02  0.94586020313E+01  0.29067224526E+02  0.25000705329E+00 0.  0.
    1000022    2    1    0    0    0  0.50918206174E+02  0.24686318038E+02 -0.24579904271E+02  0.62499999528E+02  0.10000011439E+02 0.  0.
    3000022    2    5    5    0    0  0.28928618242E+02  0.14296382721E+02 -0.86468312580E+01  0.33407809013E+02  0.24999990899E+00 0.  0.
        -13    1    4    4    0    0 -0.61852739645E+01 -0.43874788218E+01  0.26438897263E+01  0.80317347013E+01  0.10500000000E+00 0. -1.
         13    1    4    4    0    0 -0.16275344347E+02 -0.11452234268E+02  0.68147123051E+01  0.21035489824E+02  0.10500000000E+00 0.  1.
    3000001    1    5    5    0    0  0.21989587932E+02  0.10389935317E+02 -0.15933073013E+02  0.29092190515E+02  0.10000000000E+01 0.  1.
        -13    1    6    6    0    0  0.12196789750E+02  0.60784047913E+01 -0.36997015638E+01  0.14121172107E+02  0.10500000000E+00 0.  1.
         13    1    6    6    0    0  0.16731828492E+02  0.82179779296E+01 -0.49471296942E+01  0.19286636906E+02  0.10500000000E+00 0. -1.
</event>
<event>
11    0  0.3482687E-009  0.9118800E+02  0.7816531E-02  0.1126479E+00
         25   -1    0    0    0    0  0.00000000000E+00  0.00000000000E+00  0.99999998245E-14  0.12500000000E+03  0.12500000000E+03 0.  0.
    3000001    1    3    3    0    0  0.45783081689E+01 -0.36591961024E+01 -0.10100690588E+02  0.11720689918E+02  0.10000000000E+01 0.  1.
    1000022    2    1    0    0    0  0.39304077960E+02 -0.24161611451E+02 -0.40959200308E+02  0.62499999128E+02  0.99999894480E+01 0.  0.
    3000022    2    3    3    0    0  0.34725769791E+02 -0.20502415348E+02 -0.30858509720E+02  0.50779309210E+02  0.24999797596E+00 0.  0.
    1000022    2    1    0    0    0 -0.39304077960E+02  0.24161611451E+02  0.40959200308E+02  0.62500000872E+02  0.10000000348E+02 0.  0.
    3000022    2    5    5    0    0 -0.30381355215E+02  0.14141410271E+02  0.31993857678E+02  0.46332231041E+02  0.24994979128E+00 0.  0.
        -13    1    4    4    0    0  0.22206057443E+02 -0.13172595580E+02 -0.19728111300E+02  0.32493624943E+02  0.10500000000E+00 0.  1.
         13    1    4    4    0    0  0.12519712348E+02 -0.73298197681E+01 -0.11130398420E+02  0.18285684267E+02  0.10500000000E+00 0. -1.
    3000001    1    5    5    0    0 -0.89227227451E+01  0.10020201179E+02  0.89653426294E+01  0.16167769831E+02  0.10000000000E+01 0.  1.
        -13    1    6    6    0    0 -0.18375156574E+02  0.86089156660E+01  0.19322454357E+02  0.28020136963E+02  0.10500000000E+00 0.  1.
         13    1    6    6    0    0 -0.12006198641E+02  0.55324946054E+01  0.12671403321E+02  0.18312094077E+02  0.10500000000E+00 0. -1.
</event>
<event>
11    0  0.3482687E-009  0.9118800E+02  0.7816531E-02  0.1126479E+00
         25   -1    0    0    0    0  0.00000000000E+00  0.00000000000E+00  0.99999998245E-14  0.12500000000E+03  0.12500000000E+03 0.  0.
    3000001    1    3    3    0    0 -0.16912499773E+02 -0.17663379590E+02 -0.54716397042E+02  0.59940901998E+02  0.10000000000E+01 0. -1.
    1000022    2    1    0    0    0 -0.16038003870E+02 -0.17148359857E+02 -0.57052310215E+02  0.62499999707E+02  0.10000002431E+02 0.  0.
    3000022    2    3    3    0    0  0.87449590278E+00  0.51501973278E+00 -0.23359131732E+01  0.25590977092E+01  0.25000464684E+00 0.  0.
    1000022    2    1    0    0    0  0.16038003870E+02  0.17148359857E+02  0.57052310215E+02  0.62500000293E+02  0.10000006090E+02 0.  0.
    3000022    2    5    5    0    0  0.14104583617E+02  0.97772678278E+01  0.32234064094E+02  0.36518921560E+02  0.24999746517E+00 0.  0.
        -13    1    4    4    0    0  0.32469689533E+00  0.25336494526E+00 -0.86912860433E+00  0.96748715763E+00  0.10500000000E+00 0.  1.
         13    1    4    4    0    0  0.54979900745E+00  0.26165478752E+00 -0.14667845688E+01  0.15916105515E+01  0.10500000000E+00 0. -1.
    3000001    1    5    5    0    0  0.19334202535E+01  0.73710920289E+01  0.24818246121E+02  0.25981078733E+02  0.10000000000E+01 0.  1.
        -13    1    6    6    0    0  0.86987535984E+01  0.59565395188E+01  0.19775038514E+02  0.22410083678E+02  0.10500000000E+00 0.  1.
         13    1    6    6    0    0  0.54058300184E+01  0.38207283090E+01  0.12459025579E+02  0.14108837882E+02  0.10500000000E+00 0. -1.
</event>
<event>
11    0  0.3482687E-009  0.9118800E+02  0.7816531E-02  0.1126479E+00
         25   -1    0    0    0    0  0.00000000000E+00  0.00000000000E+00  0.99999998245E-14  0.12500000000E+03  0.12500000000E+03 0.  0.
    3000001    1    3    3    0    0 -0.15301355845E+02 -0.24354787204E+02  0.25182565771E+02  0.38241976534E+02  0.10000000000E+01 0.  1.
    1000022    2    1    0    0    0 -0.31581575585E+02 -0.36163379114E+02  0.38743567502E+02  0.62499999344E+02  0.99999994889E+01 0.  0.
    3000022    2    3    3    0    0 -0.16280219739E+02 -0.11808591911E+02  0.13561001732E+02  0.24258022809E+02  0.25000997802E+00 0.  0.
    1000022    2    1    0    0    0  0.31581575585E+02  0.36163379114E+02 -0.38743567502E+02  0.62500000656E+02  0.10000007690E+02 0.  0.
    3000022    2    5    5    0    0  0.20076620137E+02  0.25784738226E+02 -0.20649654279E+02  0.38657394207E+02  0.25000707857E+00 0.  0.
        -13    1    4    4    0    0 -0.81090623514E+01 -0.58554201004E+01  0.68218644056E+01  0.12107505760E+02  0.10500000000E+00 0. -1.
         13    1    4    4    0    0 -0.81711573880E+01 -0.59531718102E+01  0.67391373259E+01  0.12150517049E+02  0.10500000000E+00 0.  1.
    3000001    1    5    5    0    0  0.11504955448E+02  0.10378640889E+02 -0.18093913223E+02  0.23842606449E+02  0.10000000000E+01 0.  1.
        -13    1    6    6    0    0  0.95776873797E+01  0.12404121234E+02 -0.99302006266E+01  0.18553011308E+02  0.10500000000E+00 0. -1.
         13    1    6    6    0    0  0.10498932757E+02  0.13380616992E+02 -0.10719453653E+02  0.20104382899E+02  0.10500000000E+00 0.  1.
</event>
<event>
11    0  0.3482687E-009  0.9118800E+02  0.7816531E-02  0.1126479E+00
         25   -1    0    0    0    0  0.00000000000E+00  0.00000000000E+00  0.99999998245E-14  0.12500000000E+03  0.12500000000E+03 0.  0.
    3000001    1    3    3    0    0  0.16408192695E+01 -0.12552599634E+02  0.36963457459E+01  0.13225846564E+02  0.10000000000E+01 0. -1.
    1000022    2    1    0    0    0  0.15052544700E+02 -0.59830242869E+02  0.11449624575E+00  0.62499998827E+02  0.99999840174E+01 0.  0.
    3000022    2    3    3    0    0  0.13411725430E+02 -0.47277643235E+02 -0.35818495002E+01  0.49274152264E+02  0.25001325600E+00 0.  0.
    1000022    2    1    0    0    0 -0.15052544700E+02  0.59830242869E+02 -0.11449624575E+00  0.62500001173E+02  0.99999986748E+01 0.  0.
    3000022    2    5    5    0    0 -0.11484978653E+02  0.41255293436E+02 -0.44922685043E+01  0.43059806630E+02  0.24999898161E+00 0.  0.
        -13    1    4    4    0    0  0.99530730197E+01 -0.35192995116E+02 -0.26619282297E+01  0.36670252995E+02  0.10500000000E+00 0.  1.
         13    1    4    4    0    0  0.34586524103E+01 -0.12084648119E+02 -0.91992127051E+00  0.12603899269E+02  0.10500000000E+00 0. -1.
    3000001    1    5    5    0    0 -0.35675660469E+01  0.18574949433E+02  0.43777722586E+01  0.19440194543E+02  0.10000000000E+01 0. -1.
        -13    1    6    6    0    0 -0.87654236349E+01  0.31507595548E+02 -0.34156589711E+01  0.32882198526E+02  0.10500000000E+00 0.  1.
         13    1    6    6    0    0 -0.27195550177E+01  0.97476978884E+01 -0.10766095332E+01  0.10177608103E+02  0.10500000000E+00 0. -1.
</event>
<event>
11    0  0.3482687E-009  0.9118800E+02  0.7816531E-02  0.1126479E+00
         25   -1    0    0    0    0  0.00000000000E+00  0.00000000000E+00  0.99999998245E-14  0.12500000000E+03  0.12500000000E+03 0.  0.
    3000001    1    3    3    0    0 -0.88458319467E+01  0.17813078819E+02 -0.19470928028E+02  0.27850880742E+02  0.10000000000E+01 0.  1.
    1000022    2    1    0    0    0 -0.90751800747E+01  0.40090297772E+02 -0.46007163850E+02  0.62499999045E+02  0.99999943152E+01 0.  0.
    3000022    2    3    3    0    0 -0.22934812799E+00  0.22277218953E+02 -0.26536235822E+02  0.34649118303E+02  0.25000548540E+00 0.  0.
    1000022    2    1    0    0    0  0.90751800747E+01 -0.40090297772E+02  0.46007163850E+02  0.62500000955E+02  0.10000006252E+02 0.  0.
    3000022    2    5    5    0    0  0.26947732153E+00  0.56958027464E+00  0.56812420097E+00  0.88448011860E+00  0.25000051277E+00 0.  0.
        -13    1    4    4    0    0 -0.17159090111E+00  0.10842055210E+02 -0.12964670039E+02  0.16901872643E+02  0.10500000000E+00 0.  1.
         13    1    4    4    0    0 -0.57757226882E-01  0.11435163743E+02 -0.13571565782E+02  0.17747245660E+02  0.10500000000E+00 0. -1.
    3000001    1    5    5    0    0  0.88057027531E+01 -0.40659878046E+02  0.45439039649E+02  0.61615520836E+02  0.10000000000E+01 0.  1.
        -13    1    6    6    0    0  0.76656289671E-01  0.24902763876E+00  0.30821296893E+00  0.41702660087E+00  0.10500000000E+00 0. -1.
         13    1    6    6    0    0  0.19282103186E+00  0.32055263588E+00  0.25991123204E+00  0.46745351773E+00  0.10500000000E+00 0.  1.
</event>
<event>
11    0  0.3482687E-009  0.9118800E+02  0.7816531E-02  0.1126479E+00
         25   -1    0    0    0    0  0.00000000000E+00  0.00000000000E+00  0.99999998245E-14  0.12500000000E+03  0.12500000000E+03 0.  0.
    3000001    1    3    3    0    0 -0.42594200646E+01 -0.24464689734E+01 -0.71955348963E+01  0.87694693209E+01  0.10000000000E+01 0.  1.
    1000022    2    1    0    0    0 -0.10983676952E+02 -0.31319092225E+02 -0.52006954823E+02  0.62499999382E+02  0.99999937795E+01 0.  0.
    3000022    2    3    3    0    0 -0.67242568878E+01 -0.28872623251E+02 -0.44811419927E+02  0.53730530061E+02  0.25000137077E+00 0.  0.
    1000022    2    1    0    0    0  0.10983676952E+02  0.31319092225E+02  0.52006954823E+02  0.62500000618E+02  0.10000001503E+02 0.  0.
    3000022    2    5    5    0    0  0.91349853027E+01  0.11364603930E+02  0.22804871019E+02  0.27068927216E+02  0.24999888246E+00 0.  0.
        -13    1    4    4    0    0 -0.19975527175E+01 -0.87300564434E+01 -0.13481979914E+02  0.16185762564E+02  0.10500000000E+00 0.  1.
         13    1    4    4    0    0 -0.47267041703E+01 -0.20142566808E+02 -0.31329440013E+02  0.37544767498E+02  0.10500000000E+00 0. -1.
    3000001    1    5    5    0    0  0.18486916497E+01  0.19954488295E+02  0.29202083804E+02  0.35431073402E+02  0.10000000000E+01 0.  1.
        -13    1    6    6    0    0  0.31902469026E+01  0.38802727970E+01  0.78616004313E+01  0.93300578036E+01  0.10500000000E+00 0. -1.
         13    1    6    6    0    0  0.59447384001E+01  0.74843311327E+01  0.14943270588E+02  0.17738869412E+02  0.10500000000E+00 0.  1.
</event>
<event>
11    0  0.3482687E-009  0.9118800E+02  0.7816531E-02  0.1126479E+00
         25   -1    0    0    0    0  0.00000000000E+00  0.00000000000E+00  0.99999998245E-14  0.12500000000E+03  0.12500000000E+03 0.  0.
    3000001    1    3    3    0    0  0.16058349632E+01 -0.13071265497E+02  0.17009739204E+02  0.21535271426E+02  0.10000000000E+01 0. -1.
    1000022    2    1    0    0    0 -0.70244191579E+01 -0.42505848220E+02  0.44160622466E+02  0.62499999106E+02  0.99999857144E+01 0.  0.
    3000022    2    3    3    0    0 -0.86302541211E+01 -0.29434582723E+02  0.27150883262E+02  0.40964727680E+02  0.25001141349E+00 0.  0.
    1000022    2    1    0    0    0  0.70244191579E+01  0.42505848220E+02 -0.44160622466E+02  0.62500000894E+02  0.99999968898E+01 0.  0.
    3000022    2    5    5    0    0  0.94569183116E+01  0.34412207612E+02 -0.34753919417E+02  0.49814965117E+02  0.24999612298E+00 0.  0.
        -13    1    4    4    0    0 -0.21116173012E+01 -0.72337823913E+01  0.66998883102E+01  0.10083950797E+02  0.10500000000E+00 0.  1.
         13    1    4    4    0    0 -0.65186368199E+01 -0.22200800331E+02  0.20450994952E+02  0.30880776883E+02  0.10500000000E+00 0. -1.
    3000001    1    5    5    0    0 -0.24324991537E+01  0.80936406079E+01 -0.94067030490E+01  0.12685035777E+02  0.10000000000E+01 0.  1.
        -13    1    6    6    0    0  0.65093035035E+01  0.23620111423E+02 -0.23794803822E+02  0.34153834479E+02  0.10500000000E+00 0.  1.
         13    1    6    6    0    0  0.29476148081E+01  0.10792096189E+02 -0.10959115595E+02  0.15661130637E+02  0.10500000000E+00 0. -1.
</event>
<event>
11    0  0.3482687E-009  0.9118800E+02  0.7816531E-02  0.1126479E+00
         25   -1    0    0    0    0  0.00000000000E+00  0.00000000000E+00  0.99999998245E-14  0.12500000000E+03  0.12500000000E+03 0.  0.
    3000001    1    3    3    0    0 -0.64306159906E+00 -0.31276954611E+02  0.17265212864E+02  0.35745615021E+02  0.10000000000E+01 0. -1.
    1000022    2    1    0    0    0  0.47368962175E+01 -0.56544216274E+02  0.24219072273E+02  0.62499999933E+02  0.99999975040E+01 0.  0.
    3000022    2    3    3    0    0  0.53799578166E+01 -0.25267261663E+02  0.69538594085E+01  0.26754384913E+02  0.24998663628E+00 0.  0.
    1000022    2    1    0    0    0 -0.47368962175E+01  0.56544216274E+02 -0.24219072273E+02  0.62500000067E+02  0.99999983401E+01 0.  0.
    3000022    2    5    5    0    0  0.20754460783E+01  0.20781158169E+02 -0.57406362494E+01  0.21660595928E+02  0.25000025373E+00 0.  0.
        -13    1    4    4    0    0  0.21301487892E+01 -0.10283383343E+02  0.27999263401E+01  0.10869044086E+02  0.10500000000E+00 0.  1.
         13    1    4    4    0    0  0.32498090274E+01 -0.14983878320E+02  0.41539330684E+01  0.15885340826E+02  0.10500000000E+00 0. -1.
    3000001    1    5    5    0    0 -0.68123422958E+01  0.35763058105E+02 -0.18478436024E+02  0.40839404139E+02  0.10000000000E+01 0. -1.
        -13    1    6    6    0    0  0.15436600016E+01  0.15478825181E+02 -0.42454265907E+01  0.16124874794E+02  0.10500000000E+00 0. -1.
         13    1    6    6    0    0  0.53178607675E+00  0.53023329880E+01 -0.14952096587E+01  0.55357211337E+01  0.10500000000E+00 0.  1.
</event>
<event>
11    0  0.3482687E-009  0.9118800E+02  0.7816531E-02  0.1126479E+00
         25   -1    0    0    0    0  0.00000000000E+00  0.00000000000E+00  0.99999998245E-14  0.12500000000E+03  0.12500000000E+03 0.  0.
    3000001    1    3    3    0    0 -0.18620589645E+00  0.62576882131E+01 -0.10835549577E+01  0.64317513754E+01  0.10000000000E+01 0. -1.
    1000022    2    1    0    0    0 -0.10183576667E+01  0.59165466349E+02  0.17454522593E+02  0.62499997941E+02  0.99999961528E+01 0.  0.
    3000022    2    3    3    0    0 -0.83215177026E+00  0.52907778136E+02  0.18538077551E+02  0.56068246566E+02  0.24997965949E+00 0.  0.
    1000022    2    1    0    0    0  0.10183576667E+01 -0.59165466349E+02 -0.17454522593E+02  0.62500002059E+02  0.10000021890E+02 0.  0.
    3000022    2    5    5    0    0 -0.23518037550E+01 -0.24010392849E+02 -0.29427861357E+01  0.24305399354E+02  0.25000368080E+00 0.  0.
        -13    1    4    4    0    0 -0.27433276209E+00  0.16040932353E+02  0.56642813714E+01  0.17014166970E+02  0.10500000000E+00 0. -1.
         13    1    4    4    0    0 -0.55781900817E+00  0.36866845783E+02  0.12873796180E+02  0.39054079596E+02  0.10500000000E+00 0.  1.
    3000001    1    5    5    0    0  0.33701614217E+01 -0.35155073500E+02 -0.14511736458E+02  0.38194602705E+02  0.10000000000E+01 0. -1.
        -13    1    6    6    0    0 -0.85980414287E+00 -0.92413807865E+01 -0.10902509701E+01  0.93456970945E+01  0.10500000000E+00 0. -1.
         13    1    6    6    0    0 -0.14919996121E+01 -0.14769012063E+02 -0.18525351656E+01  0.14959702259E+02  0.10500000000E+00 0.  1.
</event>
<event>
11    0  0.3482687E-009  0.9118800E+02  0.7816531E-02  0.1126479E+00
         25   -1    0    0    0    0  0.00000000000E+00  0.00000000000E+00  0.99999998245E-14  0.12500000000E+03  0.12500000000E+03 0.  0.
    3000001    1    3    3    0    0  0.29823144726E+02 -0.16135772975E+02 -0.12200323014E+02  0.36050395456E+02  0.10000000000E+01 0. -1.
    1000022    2    1    0    0    0  0.54676950933E+02 -0.20068689003E+02 -0.20345233454E+02  0.62499999962E+02  0.10000011465E+02 0.  0.
    3000022    2    3    3    0    0  0.24853806207E+02 -0.39329160279E+01 -0.81449104391E+01  0.26449604506E+02  0.25000201702E+00 0.  0.
    1000022    2    1    0    0    0 -0.54676950933E+02  0.20068689003E+02  0.20345233454E+02  0.62500000038E+02  0.10000011941E+02 0.  0.
    3000022    2    5    5    0    0 -0.84708890353E+01  0.38450102609E+00  0.55306828477E+01  0.10126931366E+02  0.24996810284E+00 0.  0.
        -13    1    4    4    0    0  0.85748215529E+01 -0.13344118685E+01 -0.28626922955E+01  0.91386132360E+01  0.10500000000E+00 0.  1.
         13    1    4    4    0    0  0.16278984654E+02 -0.25985041594E+01 -0.52822181436E+01  0.17310991270E+02  0.10500000000E+00 0. -1.
    3000001    1    5    5    0    0 -0.46206061898E+02  0.19684187976E+02  0.14814550606E+02  0.52373068672E+02  0.10000000000E+01 0.  1.
        -13    1    6    6    0    0 -0.50300960523E+01  0.20034695051E+00  0.33511327914E+01  0.60483982327E+01  0.10500000000E+00 0.  1.
         13    1    6    6    0    0 -0.34407929830E+01  0.18415407558E+00  0.21795500563E+01  0.40785331338E+01  0.10500000000E+00 0. -1.
</event>
<event>
11    0  0.3482687E-009  0.9118800E+02  0.7816531E-02  0.1126479E+00
         25   -1    0    0    0    0  0.00000000000E+00  0.00000000000E+00  0.99999998245E-14  0.12500000000E+03  0.12500000000E+03 0.  0.
    3000001    1    3    3    0    0 -0.28961758836E+02 -0.13447431324E+02  0.32880043930E+02  0.45844456295E+02  0.10000000000E+01 0.  1.
    1000022    2    1    0    0    0 -0.38720978816E+02 -0.23488720623E+02  0.41895296710E+02  0.62500000348E+02  0.99999980091E+01 0.  0.
    3000022    2    3    3    0    0 -0.97592199797E+01 -0.10041289299E+02  0.90152527795E+01  0.16655544054E+02  0.24999929384E+00 0.  0.
    1000022    2    1    0    0    0  0.38720978816E+02  0.23488720623E+02 -0.41895296710E+02  0.62499999652E+02  0.99999936548E+01 0.  0.
    3000022    2    5    5    0    0  0.37679529576E+02  0.23478312505E+02 -0.38330129602E+02  0.58653554363E+02  0.24999405650E+00 0.  0.
        -13    1    4    4    0    0 -0.45972834723E+01 -0.47264313038E+01  0.43253200200E+01  0.78862910465E+01  0.10500000000E+00 0. -1.
         13    1    4    4    0    0 -0.51619365074E+01 -0.53148579954E+01  0.46899327595E+01  0.87692530073E+01  0.10500000000E+00 0.  1.
    3000001    1    5    5    0    0  0.10414492400E+01  0.10408118004E-01 -0.35651671078E+01  0.38464452882E+01  0.10000000000E+01 0. -1.
        -13    1    6    6    0    0  0.14952650413E+02  0.92486160180E+01 -0.15210620269E+02  0.23248497728E+02  0.10500000000E+00 0.  1.
         13    1    6    6    0    0  0.22726879162E+02  0.14229696487E+02 -0.23119509333E+02  0.35405056636E+02  0.10500000000E+00 0. -1.
</event>
<event>
11    0  0.3482687E-009  0.9118800E+02  0.7816531E-02  0.1126479E+00
         25   -1    0    0    0    0  0.00000000000E+00  0.00000000000E+00  0.99999998245E-14  0.12500000000E+03  0.12500000000E+03 0.  0.
    3000001    1    3    3    0    0  0.13139199623E+01  0.66753041780E+01  0.33262151842E+01  0.76387027032E+01  0.10000000000E+01 0.  1.
    1000022    2    1    0    0    0 -0.70216518080E+01  0.60527760270E+02  0.96610892378E+01  0.62499999369E+02  0.99999959232E+01 0.  0.
    3000022    2    3    3    0    0 -0.83355717703E+01  0.53852456092E+02  0.63348740536E+01  0.54861296666E+02  0.24991741559E+00 0.  0.
    1000022    2    1    0    0    0  0.70216518080E+01 -0.60527760270E+02 -0.96610892378E+01  0.62500000631E+02  0.10000003809E+02 0.  0.
    3000022    2    5    5    0    0  0.28178034417E+00 -0.41834114959E+02 -0.58753752088E+01  0.42246362116E+02  0.25000731781E+00 0.  0.
        -13    1    4    4    0    0 -0.45379094736E+01  0.29335369173E+02  0.35179901955E+01  0.29892202778E+02  0.10500000000E+00 0. -1.
         13    1    4    4    0    0 -0.37976622967E+01  0.24517086919E+02  0.28168838581E+01  0.24969093888E+02  0.10500000000E+00 0.  1.
    3000001    1    5    5    0    0  0.67398714639E+01 -0.18693645311E+02 -0.37857140291E+01  0.20253638515E+02  0.10000000000E+01 0.  1.
        -13    1    6    6    0    0  0.17416866903E+00 -0.24553578580E+02 -0.33841316809E+01  0.24786527148E+02  0.10500000000E+00 0.  1.
         13    1    6    6    0    0  0.10761167514E+00 -0.17280536378E+02 -0.24912435279E+01  0.17459834968E+02  0.10500000000E+00 0. -1.
</event>
<event>
11    0  0.3482687E-009  0.9118800E+02  0.7816531E-02  0.1126479E+00
         25   -1    0    0    0    0  0.00000000000E+00  0.00000000000E+00  0.99999998245E-14  0.12500000000E+03  0.12500000000E+03 0.  0.
    3000001    1    3    3    0    0  0.28165533680E+01 -0.20905146009E+01 -0.48714729838E+01  0.60855955504E+01  0.10000000000E+01 0.  1.
    1000022    2    1    0    0    0  0.19952625870E+02  0.46844240558E+01 -0.58191055462E+02  0.62500000445E+02  0.10000000604E+02 0.  0.
    3000022    2    3    3    0    0  0.17136072502E+02  0.67749386567E+01 -0.53319582478E+02  0.56414404895E+02  0.24985881664E+00 0.  0.
    1000022    2    1    0    0    0 -0.19952625870E+02 -0.46844240558E+01  0.58191055462E+02  0.62499999555E+02  0.99999950382E+01 0.  0.
    3000022    2    5    5    0    0 -0.14696200504E+02  0.11698978468E+01  0.34576247643E+02  0.37588912849E+02  0.24999569518E+00 0.  0.
        -13    1    4    4    0    0  0.60169486332E+01  0.23826806248E+01 -0.18900335419E+02  0.19977851280E+02  0.10500000000E+00 0. -1.
         13    1    4    4    0    0  0.11119123869E+02  0.43922580319E+01 -0.34419247058E+02  0.36436553614E+02  0.10500000000E+00 0.  1.
    3000001    1    5    5    0    0 -0.52564253661E+01 -0.58543219027E+01  0.23614807818E+02  0.24911086706E+02  0.10000000000E+01 0.  1.
        -13    1    6    6    0    0 -0.90066118157E+01  0.72655108797E+00  0.21346136575E+02  0.23180066966E+02  0.10500000000E+00 0.  1.
         13    1    6    6    0    0 -0.56895886887E+01  0.44334675886E+00  0.13230111069E+02  0.14408845883E+02  0.10500000000E+00 0. -1.
</event>
<event>
11    0  0.3482687E-009  0.9118800E+02  0.7816531E-02  0.1126479E+00
         25   -1    0    0    0    0  0.00000000000E+00  0.00000000000E+00  0.99999998245E-14  0.12500000000E+03  0.12500000000E+03 0.  0.
    3000001    1    3    3    0    0 -0.13838184021E+02 -0.94766360823E+01  0.93645597863E+01  0.19235304740E+02  0.10000000000E+01 0. -1.
    1000022    2    1    0    0    0 -0.51418632271E+02 -0.17591515234E+02  0.29204671299E+02  0.62500000280E+02  0.10000002827E+02 0.  0.
    3000022    2    3    3    0    0 -0.37580448250E+02 -0.81148791514E+01  0.19840111513E+02  0.43264695541E+02  0.25000217794E+00 0.  0.
    1000022    2    1    0    0    0  0.51418632271E+02  0.17591515234E+02 -0.29204671299E+02  0.62499999720E+02  0.99999993221E+01 0.  0.
    3000022    2    5    5    0    0  0.40477056428E+02  0.94083023911E+01 -0.22069800585E+02  0.47053659232E+02  0.24999661491E+00 0.  0.
        -13    1    4    4    0    0 -0.26813449475E+02 -0.58099878522E+01  0.14199379783E+02  0.30892562905E+02  0.10500000000E+00 0. -1.
         13    1    4    4    0    0 -0.10766998774E+02 -0.23048912992E+01  0.56407317298E+01  0.12372132636E+02  0.10500000000E+00 0.  1.
    3000001    1    5    5    0    0  0.10941575843E+02  0.81832128426E+01 -0.71348707143E+01  0.15446340488E+02  0.10000000000E+01 0.  1.
        -13    1    6    6    0    0  0.28592566565E+02  0.66708138041E+01 -0.15634247520E+02  0.33263724086E+02  0.10500000000E+00 0.  1.
         13    1    6    6    0    0  0.11884489863E+02  0.27374885870E+01 -0.64355530649E+01  0.13789935145E+02  0.10500000000E+00 0. -1.
</event>
<event>
11    0  0.3482687E-009  0.9118800E+02  0.7816531E-02  0.1126479E+00
         25   -1    0    0    0    0  0.00000000000E+00  0.00000000000E+00  0.99999998245E-14  0.12500000000E+03  0.12500000000E+03 0.  0.
    3000001    1    3    3    0    0 -0.86189498600E+01 -0.18816454097E+02 -0.10001869095E+02  0.23008316472E+02  0.10000000000E+01 0. -1.
    1000022    2    1    0    0    0 -0.11173358942E+02 -0.54965098898E+02 -0.25695213627E+02  0.62500000176E+02  0.99999985875E+01 0.  0.
    3000022    2    3    3    0    0 -0.25544090821E+01 -0.36148644801E+02 -0.15693344532E+02  0.39491683704E+02  0.24998497406E+00 0.  0.
    1000022    2    1    0    0    0  0.11173358942E+02  0.54965098898E+02  0.25695213627E+02  0.62499999824E+02  0.99999963884E+01 0.  0.
    3000022    2    5    5    0    0  0.74764039550E+01  0.19675708157E+02  0.13309837293E+02  0.24904705943E+02  0.25000356898E+00 0.  0.
        -13    1    4    4    0    0 -0.15517910014E+01 -0.22802873229E+02 -0.98960611624E+01  0.24906266969E+02  0.10500000000E+00 0.  1.
         13    1    4    4    0    0 -0.10026180807E+01 -0.13345771571E+02 -0.57972833696E+01  0.14585416735E+02  0.10500000000E+00 0. -1.
    3000001    1    5    5    0    0  0.36969549871E+01  0.35289390741E+02  0.12385376335E+02  0.37595293881E+02  0.10000000000E+01 0. -1.
        -13    1    6    6    0    0  0.45345089635E+01  0.11867712292E+02  0.79646344328E+01  0.14995025616E+02  0.10500000000E+00 0.  1.
         13    1    6    6    0    0  0.29418949915E+01  0.78079958648E+01  0.53452028598E+01  0.99096803268E+01  0.10500000000E+00 0. -1.
</event>
<event>
11    0  0.3482687E-009  0.9118800E+02  0.7816531E-02  0.1126479E+00
         25   -1    0    0    0    0  0.00000000000E+00  0.00000000000E+00  0.99999998245E-14  0.12500000000E+03  0.12500000000E+03 0.  0.
    3000001    1    3    3    0    0  0.15402617970E+02 -0.31442098593E+01  0.88729304375E+01  0.18079147948E+02  0.10000000000E+01 0. -1.
    1000022    2    1    0    0    0  0.56540011628E+02  0.28528593031E+01  0.24522188272E+02  0.62499996244E+02  0.10000004589E+02 0.  0.
    3000022    2    3    3    0    0  0.41137393658E+02  0.59970691625E+01  0.15649257834E+02  0.44420848296E+02  0.24999419255E+00 0.  0.
    1000022    2    1    0    0    0 -0.56540011628E+02 -0.28528593031E+01 -0.24522188272E+02  0.62500003756E+02  0.10000051537E+02 0.  0.
    3000022    2    5    5    0    0 -0.43654646080E+02 -0.60346807479E+00 -0.14545011780E+02  0.46018606456E+02  0.24994877003E+00 0.  0.
        -13    1    4    4    0    0  0.16671479312E+02  0.24299579690E+01  0.64100009766E+01  0.18026149220E+02  0.10500000000E+00 0.  1.
         13    1    4    4    0    0  0.24465914345E+02  0.35671111935E+01  0.92392568576E+01  0.26394699076E+02  0.10500000000E+00 0. -1.
    3000001    1    5    5    0    0 -0.12885365548E+02 -0.22493912284E+01 -0.99771764916E+01  0.16481397299E+02  0.10000000000E+01 0.  1.
        -13    1    6    6    0    0 -0.31356887673E+02 -0.40897604637E+00 -0.10413768042E+02  0.33043596291E+02  0.10500000000E+00 0.  1.
         13    1    6    6    0    0 -0.12297758407E+02 -0.19449202841E+00 -0.41312437376E+01  0.12975010166E+02  0.10500000000E+00 0. -1.
</event>
<event>
11    0  0.3482687E-009  0.9118800E+02  0.7816531E-02  0.1126479E+00
         25   -1    0    0    0    0  0.00000000000E+00  0.00000000000E+00  0.99999998245E-14  0.12500000000E+03  0.12500000000E+03 0.  0.
    3000001    1    3    3    0    0  0.33663807374E+02  0.28211518890E+02 -0.40415557265E+02  0.59695552548E+02  0.10000000000E+01 0. -1.
    1000022    2    1    0    0    0  0.33149827583E+02  0.29705792338E+02 -0.42718896304E+02  0.62499995165E+02  0.10000006352E+02 0.  0.
    3000022    2    3    3    0    0 -0.51397979099E+00  0.14942734481E+01 -0.23033390391E+01  0.28044426173E+01  0.24999860315E+00 0.  0.
    1000022    2    1    0    0    0 -0.33149827583E+02 -0.29705792338E+02  0.42718896304E+02  0.62500004835E+02  0.10000066787E+02 0.  0.
    3000022    2    5    5    0    0 -0.44291504675E+01 -0.32412232983E+00  0.31657474800E+01  0.54595682280E+01  0.24999796017E+00 0.  0.
        -13    1    4    4    0    0 -0.34227499003E+00  0.11025951832E+01 -0.16480751059E+01  0.20149553002E+01  0.10500000000E+00 0. -1.
         13    1    4    4    0    0 -0.17170480095E+00  0.39167826492E+00 -0.65526393318E+00  0.78948731719E+00  0.10500000000E+00 0.  1.
    3000001    1    5    5    0    0 -0.28720677115E+02 -0.29381670008E+02  0.39553148824E+02  0.57040436607E+02  0.10000000000E+01 0. -1.
        -13    1    6    6    0    0 -0.30627040071E+01 -0.17599101101E+00  0.21913235784E+01  0.37714788474E+01  0.10500000000E+00 0.  1.
         13    1    6    6    0    0 -0.13664464604E+01 -0.14813131882E+00  0.97442390162E+00  0.16880893806E+01  0.10500000000E+00 0. -1.
</event>
<event>
11    0  0.3482687E-009  0.9118800E+02  0.7816531E-02  0.1126479E+00
         25   -1    0    0    0    0  0.00000000000E+00  0.00000000000E+00  0.99999998245E-14  0.12500000000E+03  0.12500000000E+03 0.  0.
    3000001    1    3    3    0    0  0.17767111897E+02  0.70211741940E+01 -0.90226969797E+01  0.21151269773E+02  0.10000000000E+01 0. -1.
    1000022    2    1    0    0    0  0.43289315166E+02  0.26019049482E+02 -0.35430148899E+02  0.62500007849E+02  0.99999893338E+01 0.  0.
    3000022    2    3    3    0    0  0.25522203269E+02  0.18997875288E+02 -0.26407451919E+02  0.41348738076E+02  0.24999694340E+00 0.  0.
    1000022    2    1    0    0    0 -0.43289315166E+02 -0.26019049482E+02  0.35430148899E+02  0.62499992151E+02  0.99998912180E+01 0.  0.
    3000022    2    5    5    0    0 -0.33534867387E+02 -0.24270508525E+02  0.30263017205E+02  0.51279212459E+02  0.25001064443E+00 0.  0.
        -13    1    4    4    0    0  0.19398603259E+02  0.14420272715E+02 -0.20045904370E+02  0.31402219358E+02  0.10500000000E+00 0. -1.
         13    1    4    4    0    0  0.61236000095E+01  0.45776025730E+01 -0.63615475493E+01  0.99465187183E+01  0.10500000000E+00 0.  1.
    3000001    1    5    5    0    0 -0.97544477794E+01 -0.17485409568E+01  0.51671316936E+01  0.11220779692E+02  0.10000000000E+01 0.  1.
        -13    1    6    6    0    0 -0.19686074917E+02 -0.14193039192E+02  0.17799794985E+02  0.30096970506E+02  0.10500000000E+00 0.  1.
         13    1    6    6    0    0 -0.13848792470E+02 -0.10077469332E+02  0.12463222220E+02  0.21182241953E+02  0.10500000000E+00 0. -1.
</event>
<event>
11    0  0.3482687E-009  0.9118800E+02  0.7816531E-02  0.1126479E+00
         25   -1    0    0    0    0  0.00000000000E+00  0.00000000000E+00  0.99999998245E-14  0.12500000000E+03  0.12500000000E+03 0.  0.
    3000001    1    3    3    0    0 -0.97436584717E+01 -0.74755836712E+01  0.18141562435E+01  0.12454492945E+02  0.10000000000E+01 0.  1.
    1000022    2    1    0    0    0 -0.55199493514E+02 -0.21139049706E+02  0.17675021556E+02  0.62500000161E+02  0.10000006324E+02 0.  0.
    3000022    2    3    3    0    0 -0.45455835042E+02 -0.13663466035E+02  0.15860865313E+02  0.50045507216E+02  0.25000122945E+00 0.  0.
    1000022    2    1    0    0    0  0.55199493514E+02  0.21139049706E+02 -0.17675021556E+02  0.62499999839E+02  0.10000004310E+02 0.  0.
    3000022    2    5    5    0    0  0.32297819445E+02  0.95515365176E+01 -0.14307813258E+02  0.36594494077E+02  0.24997157909E+00 0.  0.
        -13    1    4    4    0    0 -0.21459440611E+02 -0.65203174069E+01  0.75037059358E+01  0.23650343722E+02  0.10500000000E+00 0. -1.
         13    1    4    4    0    0 -0.23996394431E+02 -0.71431486279E+01  0.83571593767E+01  0.26395163494E+02  0.10500000000E+00 0.  1.
    3000001    1    5    5    0    0  0.22901674069E+02  0.11587513188E+02 -0.33672082978E+01  0.25905505762E+02  0.10000000000E+01 0. -1.
        -13    1    6    6    0    0  0.20723994068E+02  0.61402446778E+01 -0.92435746524E+01  0.23508322615E+02  0.10500000000E+00 0. -1.
         13    1    6    6    0    0  0.11573825377E+02  0.34112918398E+01 -0.50642386059E+01  0.13086171462E+02  0.10500000000E+00 0.  1.
</event>
<event>
11    0  0.3482687E-009  0.9118800E+02  0.7816531E-02  0.1126479E+00
         25   -1    0    0    0    0  0.00000000000E+00  0.00000000000E+00  0.99999998245E-14  0.12500000000E+03  0.12500000000E+03 0.  0.
    3000001    1    3    3    0    0 -0.27544614469E+02 -0.76437738241E+01  0.14735220972E+02  0.32175453402E+02  0.10000000000E+01 0. -1.
    1000022    2    1    0    0    0 -0.53165822550E+02 -0.22021592826E+02  0.22241732727E+02  0.62500001205E+02  0.10000011899E+02 0.  0.
    3000022    2    3    3    0    0 -0.25621208081E+02 -0.14377819001E+02  0.75065117547E+01  0.30324547803E+02  0.24999597626E+00 0.  0.
    1000022    2    1    0    0    0  0.53165822550E+02  0.22021592826E+02 -0.22241732727E+02  0.62499998795E+02  0.99999968315E+01 0.  0.
    3000022    2    5    5    0    0  0.23656494959E+02  0.63868442362E+01 -0.13445822957E+02  0.27951282363E+02  0.24999551374E+00 0.  0.
        -13    1    4    4    0    0 -0.18351087368E+02 -0.10290050840E+02  0.53336944874E+01  0.21704996562E+02  0.10500000000E+00 0.  1.
         13    1    4    4    0    0 -0.72701207132E+01 -0.40877681610E+01  0.21728172674E+01  0.86195512412E+01  0.10500000000E+00 0. -1.
    3000001    1    5    5    0    0  0.29509327591E+02  0.15634748589E+02 -0.87959097703E+01  0.34548716431E+02  0.10000000000E+01 0. -1.
        -13    1    6    6    0    0  0.12569512723E+02  0.34595790703E+01 -0.71288537634E+01  0.14859102208E+02  0.10500000000E+00 0.  1.
         13    1    6    6    0    0  0.11086982235E+02  0.29272651659E+01 -0.63169691932E+01  0.13092180156E+02  0.10500000000E+00 0. -1.
</event>
<event>
11    0  0.3482687E-009  0.9118800E+02  0.7816531E-02  0.1126479E+00
         25   -1    0    0    0    0  0.00000000000E+00  0.00000000000E+00  0.99999998245E-14  0.12500000000E+03  0.12500000000E+03 0.  0.
    3000001    1    3    3    0    0 -0.89357189143E+01 -0.29343815557E+02 -0.18614081063E+02  0.35894158268E+02  0.10000000000E+01 0. -1.
    1000022    2    1    0    0    0 -0.79102373611E+01 -0.53568154242E+02 -0.29565706136E+02  0.62499999566E+02  0.99999981214E+01 0.  0.
    3000022    2    3    3    0    0  0.10254815532E+01 -0.24224338685E+02 -0.10951625073E+02  0.26605841298E+02  0.25000457611E+00 0.  0.
    1000022    2    1    0    0    0  0.79102373611E+01  0.53568154242E+02  0.29565706136E+02  0.62500000434E+02  0.10000003547E+02 0.  0.
    3000022    2    5    5    0    0 -0.16867743151E+01  0.75362514848E+01  0.65919053242E+01  0.10156574598E+02  0.24999544393E+00 0.  0.
        -13    1    4    4    0    0  0.48913712604E+00 -0.10033064447E+02 -0.45375905632E+01  0.11022812275E+02  0.10500000000E+00 0. -1.
         13    1    4    4    0    0  0.53634442711E+00 -0.14191274238E+02 -0.64140345097E+01  0.15583029023E+02  0.10500000000E+00 0.  1.
    3000001    1    5    5    0    0  0.95970116762E+01  0.46031902757E+02  0.22973800811E+02  0.52343425836E+02  0.10000000000E+01 0. -1.
        -13    1    6    6    0    0 -0.12468501520E+01  0.56789540354E+01  0.49702563204E+01  0.76498122283E+01  0.10500000000E+00 0. -1.
         13    1    6    6    0    0 -0.43992416315E+00  0.18572974494E+01  0.16216490039E+01  0.25067623694E+01  0.10500000000E+00 0.  1.
</event>
<event>
11    0  0.3482687E-009  0.9118800E+02  0.7816531E-02  0.1126479E+00
         25   -1    0    0    0    0  0.00000000000E+00  0.00000000000E+00  0.99999998245E-14  0.12500000000E+03  0.12500000000E+03 0.  0.
    3000001    1    3    3    0    0  0.18360721407E+02 -0.19513206770E+01 -0.26833818347E+02  0.32587997024E+02  0.10000000000E+01 0.  1.
    1000022    2    1    0    0    0  0.40952496324E+02  0.15836081903E+01 -0.46115454619E+02  0.62500000493E+02  0.10000006844E+02 0.  0.
    3000022    2    3    3    0    0  0.22591774917E+02  0.35349288673E+01 -0.19281636271E+02  0.29912003468E+02  0.24987637267E+00 0.  0.
    1000022    2    1    0    0    0 -0.40952496324E+02 -0.15836081903E+01  0.46115454619E+02  0.62499999507E+02  0.10000000685E+02 0.  0.
    3000022    2    5    5    0    0 -0.28816398349E+02  0.15583905118E+01  0.37211006521E+02  0.47090709263E+02  0.24999568328E+00 0.  0.
        -13    1    4    4    0    0  0.10693621006E+02  0.16752729937E+01 -0.90390266086E+01  0.14102308210E+02  0.10500000000E+00 0.  1.
         13    1    4    4    0    0  0.11898153911E+02  0.18596558736E+01 -0.10242609663E+02  0.15809695258E+02  0.10500000000E+00 0. -1.
    3000001    1    5    5    0    0 -0.12136097975E+02 -0.31419987021E+01  0.89044480977E+01  0.15409290244E+02  0.10000000000E+01 0.  1.
        -13    1    6    6    0    0 -0.79516833564E+01  0.42193606084E+00  0.10329156198E+02  0.13042614424E+02  0.10500000000E+00 0. -1.
         13    1    6    6    0    0 -0.20864714992E+02  0.11364544510E+01  0.26881850323E+02  0.34048094839E+02  0.10500000000E+00 0.  1.
</event>
<event>
11    0  0.3482687E-009  0.9118800E+02  0.7816531E-02  0.1126479E+00
         25   -1    0    0    0    0  0.00000000000E+00  0.00000000000E+00  0.99999998245E-14  0.12500000000E+03  0.12500000000E+03 0.  0.
    3000001    1    3    3    0    0  0.12552553654E+02 -0.12835406294E+02  0.49854094115E+00  0.17987851485E+02  0.10000000000E+01 0.  1.
    1000022    2    1    0    0    0  0.30904090671E+02 -0.53374706459E+02  0.15257002276E+01  0.62499999961E+02  0.10000006207E+02 0.  0.
    3000022    2    3    3    0    0  0.18351537017E+02 -0.40539300165E+02  0.10271592864E+01  0.44512148476E+02  0.25007398997E+00 0.  0.
    1000022    2    1    0    0    0 -0.30904090671E+02  0.53374706459E+02 -0.15257002276E+01  0.62500000039E+02  0.10000006693E+02 0.  0.
    3000022    2    5    5    0    0 -0.29639244688E+02  0.47235083693E+02 -0.34375007765E+01  0.55870536681E+02  0.25000060402E+00 0.  0.
        -13    1    4    4    0    0  0.13839455990E+02 -0.30535278592E+02  0.79296882554E+00  0.33534662744E+02  0.10500000000E+00 0.  1.
         13    1    4    4    0    0  0.45120810267E+01 -0.10004021573E+02  0.23419046090E+00  0.10977485732E+02  0.10500000000E+00 0. -1.
    3000001    1    5    5    0    0 -0.12648459833E+01  0.61396227659E+01  0.19118005489E+01  0.66294633575E+01  0.10000000000E+01 0.  1.
        -13    1    6    6    0    0 -0.18000452657E+02  0.28765940807E+02 -0.20459677863E+01  0.33995479928E+02  0.10500000000E+00 0.  1.
         13    1    6    6    0    0 -0.11638792031E+02  0.18469142886E+02 -0.13915329902E+01  0.21875056753E+02  0.10500000000E+00 0. -1.
</event>
<event>
11    0  0.3482687E-009  0.9118800E+02  0.7816531E-02  0.1126479E+00
         25   -1    0    0    0    0  0.00000000000E+00  0.00000000000E+00  0.99999998245E-14  0.12500000000E+03  0.12500000000E+03 0.  0.
    3000001    1    3    3    0    0 -0.27468086720E+02  0.33422065501E+02  0.75488157316E+01  0.43926243515E+02  0.10000000000E+01 0. -1.
    1000022    2    1    0    0    0 -0.40997570467E+02  0.45849634740E+02  0.48229349366E+01  0.62499997601E+02  0.99999604352E+01 0.  0.
    3000022    2    3    3    0    0 -0.13529483747E+02  0.12427569239E+02 -0.27258807950E+01  0.18573754085E+02  0.25001414096E+00 0.  0.
    1000022    2    1    0    0    0  0.40997570467E+02 -0.45849634740E+02 -0.48229349366E+01  0.62500002399E+02  0.99999904249E+01 0.  0.
    3000022    2    5    5    0    0  0.19700902955E+02 -0.27046824796E+02 -0.62343027782E+01  0.34037998462E+02  0.24999880665E+00 0.  0.
        -13    1    4    4    0    0 -0.46695776259E+01  0.42221341091E+01 -0.90916942817E+00  0.63615238496E+01  0.10500000000E+00 0. -1.
         13    1    4    4    0    0 -0.88599061210E+01  0.82054351298E+01 -0.18167113668E+01  0.12212230236E+02  0.10500000000E+00 0.  1.
    3000001    1    5    5    0    0  0.21296667512E+02 -0.18802809944E+02  0.14113678416E+01  0.28462003937E+02  0.10000000000E+01 0. -1.
        -13    1    6    6    0    0  0.12147305058E+02 -0.16596507449E+02 -0.38719055609E+01  0.20928539303E+02  0.10500000000E+00 0. -1.
         13    1    6    6    0    0  0.75535978962E+01 -0.10450317348E+02 -0.23623972173E+01  0.13109459160E+02  0.10500000000E+00 0.  1.
</event>
<event>
11    0  0.3482687E-009  0.9118800E+02  0.7816531E-02  0.1126479E+00
         25   -1    0    0    0    0  0.00000000000E+00  0.00000000000E+00  0.99999998245E-14  0.12500000000E+03  0.12500000000E+03 0.  0.
    3000001    1    3    3    0    0 -0.13408624036E+02  0.24414311897E+02  0.18727887205E+02  0.33579511359E+02  0.10000000000E+01 0.  1.
    1000022    2    1    0    0    0 -0.31390099022E+02  0.38993760741E+02  0.36061041801E+02  0.62499997488E+02  0.99999628463E+01 0.  0.
    3000022    2    3    3    0    0 -0.17981474986E+02  0.14579448845E+02  0.17333154596E+02  0.28920486130E+02  0.24999689307E+00 0.  0.
    1000022    2    1    0    0    0  0.31390099022E+02 -0.38993760741E+02 -0.36061041801E+02  0.62500002512E+02  0.99999942409E+01 0.  0.
    3000022    2    5    5    0    0  0.23909800693E+02 -0.31748466319E+02 -0.23578529502E+02  0.46213128421E+02  0.25000431368E+00 0.  0.
        -13    1    4    4    0    0 -0.73528880008E+01  0.59119002559E+01  0.71277437931E+01  0.11825027830E+02  0.10500000000E+00 0. -1.
         13    1    4    4    0    0 -0.10628586985E+02  0.86675485886E+01  0.10205410803E+02  0.17095458300E+02  0.10500000000E+00 0.  1.
    3000001    1    5    5    0    0  0.74802983288E+01 -0.72452944221E+01 -0.12482512299E+02  0.16286874091E+02  0.10000000000E+01 0.  1.
        -13    1    6    6    0    0  0.76308487659E+01 -0.10209359262E+02 -0.75368184447E+01  0.14807954845E+02  0.10500000000E+00 0. -1.
         13    1    6    6    0    0  0.16278951927E+02 -0.21539107057E+02 -0.16041711057E+02  0.31405173576E+02  0.10500000000E+00 0.  1.
</event>
<event>
11    0  0.3482687E-009  0.9118800E+02  0.7816531E-02  0.1126479E+00
         25   -1    0    0    0    0  0.00000000000E+00  0.00000000000E+00  0.99999998245E-14  0.12500000000E+03  0.12500000000E+03 0.  0.
    3000001    1    3    3    0    0 -0.16450653977E+01 -0.52746169528E+02 -0.29816292075E+02  0.60620754805E+02  0.10000000000E+01 0.  1.
    1000022    2    1    0    0    0 -0.69789380506E+00 -0.54273720349E+02 -0.29327908330E+02  0.62500000458E+02  0.10000003701E+02 0.  0.
    3000022    2    3    3    0    0  0.94717159265E+00 -0.15275508211E+01  0.48838374539E+00  0.18792456533E+01  0.25000001143E+00 0.  0.
    1000022    2    1    0    0    0  0.69789380506E+00  0.54273720349E+02  0.29327908330E+02  0.62499999542E+02  0.99999979758E+01 0.  0.
    3000022    2    5    5    0    0  0.85949334889E+00  0.11119565557E+02  0.17905830827E+01  0.11298325038E+02  0.24998782104E+00 0.  0.
        -13    1    4    4    0    0  0.23825266426E+00 -0.46730712176E+00  0.14499879257E+00  0.55424717223E+00  0.10500000000E+00 0. -1.
         13    1    4    4    0    0  0.70891892840E+00 -0.10602436993E+01  0.34338495283E+00  0.13249984811E+01  0.10500000000E+00 0.  1.
    3000001    1    5    5    0    0 -0.16159954383E+00  0.43154154792E+02  0.27537325247E+02  0.51201674504E+02  0.10000000000E+01 0.  1.
        -13    1    6    6    0    0  0.20540050105E+00  0.29901960695E+01  0.45659751728E+00  0.30336394303E+01  0.10500000000E+00 0. -1.
         13    1    6    6    0    0  0.65409284785E+00  0.81293694871E+01  0.13339855654E+01  0.82646856080E+01  0.10500000000E+00 0.  1.
</event>
<event>
11    0  0.3482687E-009  0.9118800E+02  0.7816531E-02  0.1126479E+00
         25   -1    0    0    0    0  0.00000000000E+00  0.00000000000E+00  0.99999998245E-14  0.12500000000E+03  0.12500000000E+03 0.  0.
    3000001    1    3    3    0    0 -0.10730213365E+02 -0.15897356239E+02 -0.10389167144E+02  0.21835709473E+02  0.10000000000E+01 0. -1.
    1000022    2    1    0    0    0 -0.20427268480E+02 -0.43892591659E+02 -0.38241563321E+02  0.62500000408E+02  0.99999992817E+01 0.  0.
    3000022    2    3    3    0    0 -0.96970551152E+01 -0.27995235419E+02 -0.27852396178E+02  0.40664290935E+02  0.25000057267E+00 0.  0.
    1000022    2    1    0    0    0  0.20427268480E+02  0.43892591659E+02  0.38241563321E+02  0.62499999592E+02  0.99999941837E+01 0.  0.
    3000022    2    5    5    0    0  0.73089671876E+01  0.23721195971E+02  0.14842900708E+02  0.28922143126E+02  0.25004379548E+00 0.  0.
        -13    1    4    4    0    0 -0.55065107842E+01 -0.15738849133E+02 -0.15731338991E+02  0.22924203028E+02  0.10500000000E+00 0. -1.
         13    1    4    4    0    0 -0.41905443310E+01 -0.12256386287E+02 -0.12121057187E+02  0.17740087906E+02  0.10500000000E+00 0.  1.
    3000001    1    5    5    0    0  0.13118301292E+02  0.20171395687E+02  0.23398662614E+02  0.33577856466E+02  0.10000000000E+01 0.  1.
        -13    1    6    6    0    0  0.25947245532E+01  0.82305300316E+01  0.51582912679E+01  0.10054512117E+02  0.10500000000E+00 0.  1.
         13    1    6    6    0    0  0.47142426344E+01  0.15490665940E+02  0.96846094399E+01  0.18867631009E+02  0.10500000000E+00 0. -1.
</event>
<event>
11    0  0.3482687E-009  0.9118800E+02  0.7816531E-02  0.1126479E+00
         25   -1    0    0    0    0  0.00000000000E+00  0.00000000000E+00  0.99999998245E-14  0.12500000000E+03  0.12500000000E+03 0.  0.
    3000001    1    3    3    0    0 -0.23475110889E+00  0.41409814478E+01  0.55025369998E+01  0.69628118507E+01  0.10000000000E+01 0.  1.
    1000022    2    1    0    0    0  0.16991887240E+02  0.48493754121E+02  0.34145007955E+02  0.62499998981E+02  0.99999941843E+01 0.  0.
    3000022    2    3    3    0    0  0.17226638348E+02  0.44352772673E+02  0.28642470956E+02  0.55537187130E+02  0.24999871169E+00 0.  0.
    1000022    2    1    0    0    0 -0.16991887240E+02 -0.48493754121E+02 -0.34145007955E+02  0.62500001019E+02  0.10000006921E+02 0.  0.
    3000022    2    5    5    0    0  0.23880398761E+00 -0.79270487264E+00 -0.26570134939E+01  0.27942172562E+01  0.25004201288E+00 0.  0.
        -13    1    4    4    0    0  0.77247701755E+01  0.19828220101E+02  0.12883305825E+02  0.24876112651E+02  0.10500000000E+00 0. -1.
         13    1    4    4    0    0  0.95018681729E+01  0.24524552572E+02  0.15759165130E+02  0.30661074479E+02  0.10500000000E+00 0.  1.
    3000001    1    5    5    0    0 -0.17230691227E+02 -0.47701049248E+02 -0.31487994462E+02  0.59705783763E+02  0.10000000000E+01 0. -1.
        -13    1    6    6    0    0  0.90057749967E-01 -0.48647655008E+00 -0.16680587001E+01  0.17430475206E+01  0.10500000000E+00 0.  1.
         13    1    6    6    0    0  0.14874623764E+00 -0.30622832257E+00 -0.98895479379E+00  0.10511697355E+01  0.10500000000E+00 0. -1.
</event>
<event>
11    0  0.3482687E-009  0.9118800E+02  0.7816531E-02  0.1126479E+00
         25   -1    0    0    0    0  0.00000000000E+00  0.00000000000E+00  0.99999998245E-14  0.12500000000E+03  0.12500000000E+03 0.  0.
    3000001    1    3    3    0    0 -0.74876636092E+01  0.50582148613E+01 -0.37698999968E+01  0.98418895490E+01  0.10000000000E+01 0. -1.
    1000022    2    1    0    0    0 -0.56760533356E+02  0.23557638629E+02 -0.54341064936E+01  0.62499998705E+02  0.99999920057E+01 0.  0.
    3000022    2    3    3    0    0 -0.49272869747E+02  0.18499423768E+02 -0.16642064968E+01  0.52658109156E+02  0.25000761652E+00 0.  0.
    1000022    2    1    0    0    0  0.56760533356E+02 -0.23557638629E+02  0.54341064936E+01  0.62500001295E+02  0.10000008194E+02 0.  0.
    3000022    2    5    5    0    0  0.29216503716E+00 -0.11324626626E+01 -0.76255262819E+00  0.14183860416E+01  0.25000072215E+00 0.  0.
        -13    1    4    4    0    0 -0.37089097817E+02  0.13941247441E+02 -0.12334836519E+01  0.39642049190E+02  0.10500000000E+00 0.  1.
         13    1    4    4    0    0 -0.12183771930E+02  0.45581763263E+01 -0.43072284484E+00  0.13016059966E+02  0.10500000000E+00 0. -1.
    3000001    1    5    5    0    0  0.56468368319E+02 -0.22425175966E+02  0.61966591218E+01  0.61081615253E+02  0.10000000000E+01 0.  1.
        -13    1    6    6    0    0  0.88440405633E-01 -0.33539758711E+00 -0.28758108968E+00  0.46264579316E+00  0.10500000000E+00 0. -1.
         13    1    6    6    0    0  0.20372463153E+00 -0.79706507554E+00 -0.47497153851E+00  0.95574024846E+00  0.10500000000E+00 0.  1.
</event>
<event>
11    0  0.3482687E-009  0.9118800E+02  0.7816531E-02  0.1126479E+00
         25   -1    0    0    0    0  0.00000000000E+00  0.00000000000E+00  0.99999998245E-14  0.12500000000E+03  0.12500000000E+03 0.  0.
    3000001    1    3    3    0    0  0.49355135252E+02  0.25090045774E+01  0.14788649860E+02  0.51593881851E+02  0.10000000000E+01 0.  1.
    1000022    2    1    0    0    0  0.60074915076E+02  0.39965028868E+01  0.13464092444E+02  0.62499993846E+02  0.99999994310E+01 0.  0.
    3000022    2    3    3    0    0  0.10719779824E+02  0.14874983094E+01 -0.13245574159E+01  0.10906111995E+02  0.24999160641E+00 0.  0.
    1000022    2    1    0    0    0 -0.60074915076E+02 -0.39965028868E+01 -0.13464092444E+02  0.62500006154E+02  0.10000076360E+02 0.  0.
    3000022    2    5    5    0    0 -0.22733811405E+02 -0.52392614038E+01 -0.20507247025E+01  0.23421016462E+02  0.24999855905E+00 0.  0.
        -13    1    4    4    0    0  0.42701104748E+01  0.56988922868E+00 -0.58646243473E+00  0.43489746364E+01  0.10500000000E+00 0.  1.
         13    1    4    4    0    0  0.64496693491E+01  0.91760908068E+00 -0.73809498122E+00  0.65571373586E+01  0.10500000000E+00 0. -1.
    3000001    1    5    5    0    0 -0.37341103671E+02  0.12427585171E+01 -0.11413367742E+02  0.39078989692E+02  0.10000000000E+01 0. -1.
        -13    1    6    6    0    0 -0.98085594662E+01 -0.22103655215E+01 -0.92775859144E+00  0.10097787656E+02  0.10500000000E+00 0.  1.
         13    1    6    6    0    0 -0.12925251939E+02 -0.30288958824E+01 -0.11229661111E+01  0.13323228806E+02  0.10500000000E+00 0. -1.
</event>
<event>
11    0  0.3482687E-009  0.9118800E+02  0.7816531E-02  0.1126479E+00
         25   -1    0    0    0    0  0.00000000000E+00  0.00000000000E+00  0.99999998245E-14  0.12500000000E+03  0.12500000000E+03 0.  0.
    3000001    1    3    3    0    0 -0.38935083342E+02  0.17381343938E+02 -0.17934853957E+01  0.42688036050E+02  0.10000000000E+01 0.  1.
    1000022    2    1    0    0    0 -0.53777657670E+02  0.30222584462E+02  0.89947681104E+00  0.62500002240E+02  0.10000007269E+02 0.  0.
    3000022    2    3    3    0    0 -0.14842574328E+02  0.12841240525E+02  0.26929622067E+01  0.19811966190E+02  0.24997593358E+00 0.  0.
    1000022    2    1    0    0    0  0.53777657670E+02 -0.30222584462E+02 -0.89947681104E+00  0.62499997760E+02  0.99999792701E+01 0.  0.
    3000022    2    5    5    0    0  0.21794720846E+02 -0.11883087023E+02  0.44869769821E+01  0.25227228897E+02  0.25000290361E+00 0.  0.
        -13    1    4    4    0    0 -0.75023846623E+01  0.65215288784E+01  0.14282176417E+01  0.10043253714E+02  0.10500000000E+00 0.  1.
         13    1    4    4    0    0 -0.73401896657E+01  0.63197116466E+01  0.12647445651E+01  0.97687124760E+01  0.10500000000E+00 0. -1.
    3000001    1    5    5    0    0  0.31982936824E+02 -0.18339497440E+02 -0.53864537931E+01  0.37272768863E+02  0.10000000000E+01 0.  1.
        -13    1    6    6    0    0  0.63995273179E+01 -0.34488032619E+01  0.12879788536E+01  0.73836378811E+01  0.10500000000E+00 0. -1.
         13    1    6    6    0    0  0.15395193528E+02 -0.84342837606E+01  0.31989981284E+01  0.17843591016E+02  0.10500000000E+00 0.  1.
</event>
<event>
11    0  0.3482687E-009  0.9118800E+02  0.7816531E-02  0.1126479E+00
         25   -1    0    0    0    0  0.00000000000E+00  0.00000000000E+00  0.99999998245E-14  0.12500000000E+03  0.12500000000E+03 0.  0.
    3000001    1    3    3    0    0  0.37241338002E+00 -0.51050971201E+02 -0.10520986135E+01  0.51072960202E+02  0.10000000000E+01 0.  1.
    1000022    2    1    0    0    0  0.79935017546E+00 -0.61412015961E+02 -0.58459729996E+01  0.62500001157E+02  0.10000003960E+02 0.  0.
    3000022    2    3    3    0    0  0.42693679543E+00 -0.10361044760E+02 -0.47938743860E+01  0.11427040955E+02  0.25001961913E+00 0.  0.
    1000022    2    1    0    0    0 -0.79935017546E+00  0.61412015961E+02  0.58459729996E+01  0.62499998843E+02  0.99999894991E+01 0.  0.
    3000022    2    5    5    0    0 -0.19183838410E+01  0.13435787074E+02  0.50812506183E+01  0.14494211954E+02  0.25000290209E+00 0.  0.
        -13    1    4    4    0    0  0.13231075398E+00 -0.39289168278E+01 -0.18760667454E+01  0.43571257738E+01  0.10500000000E+00 0. -1.
         13    1    4    4    0    0  0.29462604146E+00 -0.64321279319E+01 -0.29178076407E+01  0.70699151809E+01  0.10500000000E+00 0.  1.
    3000001    1    5    5    0    0  0.11190336656E+01  0.47976228887E+02  0.76472238125E+00  0.48005786889E+02  0.10000000000E+01 0. -1.
        -13    1    6    6    0    0 -0.76016501325E+00  0.49361767158E+01  0.18939930371E+01  0.53424644165E+01  0.10500000000E+00 0. -1.
         13    1    6    6    0    0 -0.11582188278E+01  0.84996103586E+01  0.31872575812E+01  0.91517475375E+01  0.10500000000E+00 0.  1.
</event>
<event>
11    0  0.3482687E-009  0.9118800E+02  0.7816531E-02  0.1126479E+00
         25   -1    0    0    0    0  0.00000000000E+00  0.00000000000E+00  0.99999998245E-14  0.12500000000E+03  0.12500000000E+03 0.  0.
    3000001    1    3    3    0    0 -0.44376988307E+01  0.80516030885E+01 -0.11372227056E+01  0.93174437851E+01  0.10000000000E+01 0.  1.
    1000022    2    1    0    0    0 -0.27007276967E+02  0.47015110139E+02 -0.29435296285E+02  0.62499999268E+02  0.99999825266E+01 0.  0.
    3000022    2    3    3    0    0 -0.22569578136E+02  0.38963507050E+02 -0.28298073579E+02  0.53182555482E+02  0.25000087427E+00 0.  0.
    1000022    2    1    0    0    0  0.27007276967E+02 -0.47015110139E+02  0.29435296285E+02  0.62500000732E+02  0.99999916820E+01 0.  0.
    3000022    2    5    5    0    0  0.27588316087E+01 -0.15973155533E+01  0.24540831684E-01  0.31977604406E+01  0.25000152156E+00 0.  0.
        -13    1    4    4    0    0 -0.10981204435E+02  0.19092825107E+02 -0.13840102471E+02  0.26013117515E+02  0.10500000000E+00 0.  1.
         13    1    4    4    0    0 -0.11588373701E+02  0.19870681943E+02 -0.14457971108E+02  0.27169437968E+02  0.10500000000E+00 0. -1.
    3000001    1    5    5    0    0  0.24248445358E+02 -0.45417794586E+02  0.29410755453E+02  0.59302240292E+02  0.10000000000E+01 0. -1.
        -13    1    6    6    0    0  0.75661079166E+00 -0.44506883593E+00  0.44587668711E-01  0.88518880414E+00  0.10500000000E+00 0. -1.
         13    1    6    6    0    0  0.20022208171E+01 -0.11522467173E+01 -0.20046837027E-01  0.23125716364E+01  0.10500000000E+00 0.  1.
</event>
<event>
11    0  0.3482687E-009  0.9118800E+02  0.7816531E-02  0.1126479E+00
         25   -1    0    0    0    0  0.00000000000E+00  0.00000000000E+00  0.99999998245E-14  0.12500000000E+03  0.12500000000E+03 0.  0.
    3000001    1    3    3    0    0 -0.63754235989E+00 -0.26978317643E+02 -0.13100054161E+01  0.27036127631E+02  0.10000000000E+01 0. -1.
    1000022    2    1    0    0    0  0.17537488122E+01 -0.60142277430E+02 -0.13641150018E+02  0.62499998405E+02  0.99999828768E+01 0.  0.
    3000022    2    3    3    0    0  0.23912911721E+01 -0.33163959787E+02 -0.12331144602E+02  0.35463870774E+02  0.25000177311E+00 0.  0.
    1000022    2    1    0    0    0 -0.17537488122E+01  0.60142277430E+02  0.13641150018E+02  0.62500001595E+02  0.10000002811E+02 0.  0.
    3000022    2    5    5    0    0  0.23326208580E+01  0.48497365458E+02  0.11954824264E+02  0.50004158827E+02  0.25000091142E+00 0.  0.
        -13    1    4    4    0    0  0.56950562937E+00 -0.77448877673E+01 -0.28871038975E+01  0.82857719679E+01  0.10500000000E+00 0.  1.
         13    1    4    4    0    0  0.18217855427E+01 -0.25419072020E+02 -0.94440407044E+01  0.27178098806E+02  0.10500000000E+00 0. -1.
    3000001    1    5    5    0    0 -0.40863696702E+01  0.11644911972E+02  0.16863257539E+01  0.12495842767E+02  0.10000000000E+01 0. -1.
        -13    1    6    6    0    0  0.13193270149E+01  0.26096899733E+02  0.64129758759E+01  0.26905874526E+02  0.10500000000E+00 0.  1.
         13    1    6    6    0    0  0.10132938431E+01  0.22400465725E+02  0.55418483882E+01  0.23098284301E+02  0.10500000000E+00 0. -1.
</event>
<event>
11    0  0.3482687E-009  0.9118800E+02  0.7816531E-02  0.1126479E+00
         25   -1    0    0    0    0  0.00000000000E+00  0.00000000000E+00  0.99999998245E-14  0.12500000000E+03  0.12500000000E+03 0.  0.
    3000001    1    3    3    0    0  0.80976882473E+01 -0.24369318653E+02 -0.34437632875E+02  0.42969603263E+02  0.10000000000E+01 0.  1.
    1000022    2    1    0    0    0  0.11543538843E+02 -0.40177959227E+02 -0.45373211124E+02  0.62499999590E+02  0.99999982165E+01 0.  0.
    3000022    2    3    3    0    0  0.34458505957E+01 -0.15808640574E+02 -0.10935578249E+02  0.19530396326E+02  0.25001179476E+00 0.  0.
    1000022    2    1    0    0    0 -0.11543538843E+02  0.40177959227E+02  0.45373211124E+02  0.62500000410E+02  0.10000003345E+02 0.  0.
    3000022    2    5    5    0    0  0.36640930089E+00  0.15152638950E+02  0.14122944539E+02  0.20718513106E+02  0.24999985147E+00 0.  0.
        -13    1    4    4    0    0  0.20944758355E+01 -0.98549381236E+01 -0.68455938781E+01  0.12181125358E+02  0.10500000000E+00 0. -1.
         13    1    4    4    0    0  0.13513747602E+01 -0.59537024506E+01 -0.40899843706E+01  0.73492709682E+01  0.10500000000E+00 0.  1.
    3000001    1    5    5    0    0 -0.11909948144E+02  0.25025320277E+02  0.31250266585E+02  0.41781487305E+02  0.10000000000E+01 0. -1.
        -13    1    6    6    0    0  0.28811777802E+00  0.11053284115E+02  0.10261314476E+02  0.15085214661E+02  0.10500000000E+00 0. -1.
         13    1    6    6    0    0  0.78291522874E-01  0.40993548357E+01  0.38616300625E+01  0.56332984450E+01  0.10500000000E+00 0.  1.
</event>
<event>
11    0  0.3482687E-009  0.9118800E+02  0.7816531E-02  0.1126479E+00
         25   -1    0    0    0    0  0.00000000000E+00  0.00000000000E+00  0.99999998245E-14  0.12500000000E+03  0.12500000000E+03 0.  0.
    3000001    1    3    3    0    0  0.18315061388E+02  0.39185897322E+02 -0.76460722258E+01  0.43936755035E+02  0.10000000000E+01 0. -1.
    1000022    2    1    0    0    0  0.19816952314E+02  0.57330156062E+02 -0.11260171424E+02  0.62499998635E+02  0.99999987900E+01 0.  0.
    3000022    2    3    3    0    0  0.15018909258E+01  0.18144258740E+02 -0.36140991978E+01  0.18563243600E+02  0.24999668769E+00 0.  0.
    1000022    2    1    0    0    0 -0.19816952314E+02 -0.57330156062E+02  0.11260171424E+02  0.62500001365E+02  0.10000015851E+02 0.  0.
    3000022    2    5    5    0    0 -0.13145727008E+02 -0.24495569957E+02  0.73210563066E+01  0.28748972941E+02  0.24998726630E+00 0.  0.
        -13    1    4    4    0    0  0.77195037573E+00  0.95788711813E+01 -0.19730289549E+01  0.98109402581E+01  0.10500000000E+00 0. -1.
         13    1    4    4    0    0  0.72994055003E+00  0.85653875590E+01 -0.16410702428E+01  0.87523033417E+01  0.10500000000E+00 0.  1.
    3000001    1    5    5    0    0 -0.66712253064E+01 -0.32834586105E+02  0.39391151170E+01  0.33751028424E+02  0.10000000000E+01 0. -1.
        -13    1    6    6    0    0 -0.68258231966E+01 -0.12670325446E+02  0.38558418716E+01  0.14899917811E+02  0.10500000000E+00 0. -1.
         13    1    6    6    0    0 -0.63199038111E+01 -0.11825244510E+02  0.34652144350E+01  0.13849055130E+02  0.10500000000E+00 0.  1.
</event>
<event>
11    0  0.3482687E-009  0.9118800E+02  0.7816531E-02  0.1126479E+00
         25   -1    0    0    0    0  0.00000000000E+00  0.00000000000E+00  0.99999998245E-14  0.12500000000E+03  0.12500000000E+03 0.  0.
    3000001    1    3    3    0    0 -0.19020509267E+02 -0.33880263814E+02  0.11071376211E+02  0.40413208486E+02  0.10000000000E+01 0.  1.
    1000022    2    1    0    0    0 -0.22489188161E+02 -0.54785118732E+02  0.17293854095E+02  0.62500001388E+02  0.99999982761E+01 0.  0.
    3000022    2    3    3    0    0 -0.34686788940E+01 -0.20904854918E+02  0.62224778837E+01  0.22086792903E+02  0.24999465530E+00 0.  0.
    1000022    2    1    0    0    0  0.22489188161E+02  0.54785118732E+02 -0.17293854095E+02  0.62499998612E+02  0.99999809202E+01 0.  0.
    3000022    2    5    5    0    0  0.18741697662E+02  0.38536497811E+02 -0.87514775912E+01  0.43737441132E+02  0.25000381207E+00 0.  0.
        -13    1    4    4    0    0 -0.15370183332E+01 -0.89983071931E+01  0.26293174308E+01  0.95003311969E+01  0.10500000000E+00 0.  1.
         13    1    4    4    0    0 -0.19316605607E+01 -0.11906547724E+02  0.35931604530E+01  0.12586461706E+02  0.10500000000E+00 0. -1.
    3000001    1    5    5    0    0  0.37474904992E+01  0.16248620920E+02 -0.85423765038E+01  0.18762557480E+02  0.10000000000E+01 0.  1.
        -13    1    6    6    0    0  0.10478475639E+02  0.21621430436E+02 -0.48484266519E+01  0.24511282541E+02  0.10500000000E+00 0. -1.
         13    1    6    6    0    0  0.82632220234E+01  0.16915067375E+02 -0.39030509393E+01  0.19226158591E+02  0.10500000000E+00 0.  1.
</event>
<event>
11    0  0.3482687E-009  0.9118800E+02  0.7816531E-02  0.1126479E+00
         25   -1    0    0    0    0  0.00000000000E+00  0.00000000000E+00  0.99999998245E-14  0.12500000000E+03  0.12500000000E+03 0.  0.
    3000001    1    3    3    0    0  0.13364606505E+02 -0.92901565629E+01  0.87796822457E+01  0.18520327652E+02  0.10000000000E+01 0. -1.
    1000022    2    1    0    0    0  0.33339152392E+02 -0.40418850352E+02  0.32574031578E+02  0.62500000418E+02  0.99999986569E+01 0.  0.
    3000022    2    3    3    0    0  0.19974545887E+02 -0.31128693789E+02  0.23794349332E+02  0.43979672767E+02  0.24999231721E+00 0.  0.
    1000022    2    1    0    0    0 -0.33339152392E+02  0.40418850352E+02 -0.32574031578E+02  0.62499999582E+02  0.99999934264E+01 0.  0.
    3000022    2    5    5    0    0 -0.19023399173E+02  0.18549491160E+02 -0.21130193179E+02  0.33948798223E+02  0.24999733739E+00 0.  0.
        -13    1    4    4    0    0  0.71897557425E+01 -0.11177640113E+02  0.86169421338E+01  0.15839663597E+02  0.10500000000E+00 0. -1.
         13    1    4    4    0    0  0.12784790145E+02 -0.19951053676E+02  0.15177407198E+02  0.28140009170E+02  0.10500000000E+00 0.  1.
    3000001    1    5    5    0    0 -0.14315753219E+02  0.21869359192E+02 -0.11443838399E+02  0.28551201358E+02  0.10000000000E+01 0.  1.
        -13    1    6    6    0    0 -0.11647615560E+02  0.11342823208E+02 -0.12851433422E+02  0.20724308253E+02  0.10500000000E+00 0. -1.
         13    1    6    6    0    0 -0.73757836127E+01  0.72066679519E+01 -0.82787597573E+01  0.13224489971E+02  0.10500000000E+00 0.  1.
</event>
<event>
11    0  0.3482687E-009  0.9118800E+02  0.7816531E-02  0.1126479E+00
         25   -1    0    0    0    0  0.00000000000E+00  0.00000000000E+00  0.99999998245E-14  0.12500000000E+03  0.12500000000E+03 0.  0.
    3000001    1    3    3    0    0  0.53641541271E+01 -0.21032659511E+02  0.31783669307E+02  0.38501279852E+02  0.10000000000E+01 0. -1.
    1000022    2    1    0    0    0  0.11305751552E+01 -0.35640892304E+02  0.50345791413E+02  0.62499999099E+02  0.99999884977E+01 0.  0.
    3000022    2    3    3    0    0 -0.42335789720E+01 -0.14608232792E+02  0.18562122107E+02  0.23998719247E+02  0.24998436455E+00 0.  0.
    1000022    2    1    0    0    0 -0.11305751552E+01  0.35640892304E+02 -0.50345791413E+02  0.62500000901E+02  0.99999997592E+01 0.  0.
    3000022    2    5    5    0    0 -0.32263412198E+01  0.29448385199E+02 -0.45525474945E+02  0.54316185745E+02  0.24999296044E+00 0.  0.
        -13    1    4    4    0    0 -0.25659182483E+01 -0.90570833523E+01  0.11452093202E+02  0.14824849376E+02  0.10500000000E+00 0.  1.
         13    1    4    4    0    0 -0.16676607236E+01 -0.55511494401E+01  0.71100289045E+01  0.91738698715E+01  0.10500000000E+00 0. -1.
    3000001    1    5    5    0    0  0.20957660646E+01  0.61925071052E+01 -0.48203164682E+01  0.81838151555E+01  0.10000000000E+01 0. -1.
        -13    1    6    6    0    0 -0.21258110918E+01  0.19588009815E+02 -0.30369502948E+02  0.36201200748E+02  0.10500000000E+00 0. -1.
         13    1    6    6    0    0 -0.11005301280E+01  0.98603753836E+01 -0.15155971998E+02  0.18114984998E+02  0.10500000000E+00 0.  1.
</event>
<event>
11    0  0.3482687E-009  0.9118800E+02  0.7816531E-02  0.1126479E+00
         25   -1    0    0    0    0  0.00000000000E+00  0.00000000000E+00  0.99999998245E-14  0.12500000000E+03  0.12500000000E+03 0.  0.
    3000001    1    3    3    0    0  0.98423619509E+00  0.31517883300E+01 -0.26588403493E+01  0.43556770505E+01  0.10000000000E+01 0. -1.
    1000022    2    1    0    0    0 -0.19623252445E+02  0.45834132754E+02 -0.36337450999E+02  0.62500001172E+02  0.10000001978E+02 0.  0.
    3000022    2    3    3    0    0 -0.20607488641E+02  0.42682344424E+02 -0.33678610649E+02  0.58144324122E+02  0.24999735873E+00 0.  0.
    1000022    2    1    0    0    0  0.19623252445E+02 -0.45834132754E+02  0.36337450999E+02  0.62499998828E+02  0.99999873274E+01 0.  0.
    3000022    2    5    5    0    0 -0.65065467267E+00  0.23847842598E-01  0.59350442560E+00  0.91578485337E+00  0.24998834332E+00 0.  0.
        -13    1    4    4    0    0 -0.50137731379E+01  0.10429249742E+02 -0.82087597992E+01  0.14188091264E+02  0.10500000000E+00 0. -1.
         13    1    4    4    0    0 -0.15593715503E+02  0.32253094682E+02 -0.25469850850E+02  0.43956232858E+02  0.10500000000E+00 0.  1.
    3000001    1    5    5    0    0  0.20273907118E+02 -0.45857980597E+02  0.35743946573E+02  0.61584213975E+02  0.10000000000E+01 0. -1.
        -13    1    6    6    0    0 -0.42563607563E+00 -0.42171806936E-01  0.36825936443E+00  0.57409449542E+00  0.10500000000E+00 0. -1.
         13    1    6    6    0    0 -0.22501859704E+00  0.66019649534E-01  0.22524506117E+00  0.34169035795E+00  0.10500000000E+00 0.  1.
</event>
<event>
11    0  0.3482687E-009  0.9118800E+02  0.7816531E-02  0.1126479E+00
         25   -1    0    0    0    0  0.00000000000E+00  0.00000000000E+00  0.99999998245E-14  0.12500000000E+03  0.12500000000E+03 0.  0.
    3000001    1    3    3    0    0 -0.42400510865E+02  0.21786491287E+02 -0.27944907613E+02  0.55266376629E+02  0.10000000000E+01 0.  1.
    1000022    2    1    0    0    0 -0.45221961841E+02  0.24695909631E+02 -0.33931347241E+02  0.62499999045E+02  0.99999884855E+01 0.  0.
    3000022    2    3    3    0    0 -0.28214509750E+01  0.29094183449E+01 -0.59864396284E+01  0.72336224152E+01  0.25006621223E+00 0.  0.
    1000022    2    1    0    0    0  0.45221961841E+02 -0.24695909631E+02  0.33931347241E+02  0.62500000955E+02  0.10000000429E+02 0.  0.
    3000022    2    5    5    0    0  0.47133033834E+00  0.65981394347E-01  0.22863985421E+01  0.23487495537E+01  0.25000068074E+00 0.  0.
        -13    1    4    4    0    0 -0.19579525250E+01  0.20293626630E+01 -0.42438010347E+01  0.50963480190E+01  0.10500000000E+00 0.  1.
         13    1    4    4    0    0 -0.86349845001E+00  0.88005568187E+00 -0.17426385937E+01  0.21372743962E+01  0.10500000000E+00 0. -1.
    3000001    1    5    5    0    0  0.44750631502E+02 -0.24761891026E+02  0.31644948699E+02  0.60151251402E+02  0.10000000000E+01 0.  1.
        -13    1    6    6    0    0  0.10631672008E+00 -0.11722268792E-01  0.64767282757E+00  0.66479000303E+00  0.10500000000E+00 0.  1.
         13    1    6    6    0    0  0.36501361826E+00  0.77703663140E-01  0.16387257146E+01  0.16839595507E+01  0.10500000000E+00 0. -1.
</event>
<event>
11    0  0.3482687E-009  0.9118800E+02  0.7816531E-02  0.1126479E+00
         25   -1    0    0    0    0  0.00000000000E+00  0.00000000000E+00  0.99999998245E-14  0.12500000000E+03  0.12500000000E+03 0.  0.
    3000001    1    3    3    0    0 -0.12193210270E+02  0.20733977725E+01  0.99507117885E+01  0.15905660002E+02  0.10000000000E+01 0.  1.
    1000022    2    1    0    0    0 -0.54986648662E+02 -0.21291527300E+01  0.27895945316E+02  0.62500012570E+02  0.10000149183E+02 0.  0.
    3000022    2    3    3    0    0 -0.42793438392E+02 -0.42025505025E+01  0.17945233528E+02  0.46594352567E+02  0.24996932518E+00 0.  0.
    1000022    2    1    0    0    0  0.54986648662E+02  0.21291527300E+01 -0.27895945316E+02  0.62499987430E+02  0.99999920644E+01 0.  0.
    3000022    2    5    5    0    0  0.39301333775E+02 -0.29298436872E+01 -0.19219051083E+02  0.43847613818E+02  0.24998490016E+00 0.  0.
        -13    1    4    4    0    0 -0.27441835069E+02 -0.27260868856E+01  0.11455851060E+02  0.29861905669E+02  0.10500000000E+00 0. -1.
         13    1    4    4    0    0 -0.15351603323E+02 -0.14764636169E+01  0.64893824681E+01  0.16732446899E+02  0.10500000000E+00 0.  1.
    3000001    1    5    5    0    0  0.15685314887E+02  0.50589964172E+01 -0.86768942327E+01  0.18652373613E+02  0.10000000000E+01 0.  1.
        -13    1    6    6    0    0  0.18586049078E+02 -0.13873099470E+01 -0.90139527140E+01  0.20703338324E+02  0.10500000000E+00 0.  1.
         13    1    6    6    0    0  0.20715284696E+02 -0.15425337403E+01 -0.10205098369E+02  0.23144275494E+02  0.10500000000E+00 0. -1.
</event>
<event>
11    0  0.3482687E-009  0.9118800E+02  0.7816531E-02  0.1126479E+00
         25   -1    0    0    0    0  0.00000000000E+00  0.00000000000E+00  0.99999998245E-14  0.12500000000E+03  0.12500000000E+03 0.  0.
    3000001    1    3    3    0    0 -0.29273827890E+01 -0.30772917306E+00  0.28549555266E+02  0.28718310763E+02  0.10000000000E+01 0. -1.
    1000022    2    1    0    0    0  0.39484716752E+00 -0.89146588002E+01  0.61046071808E+02  0.62500000028E+02  0.10000003728E+02 0.  0.
    3000022    2    3    3    0    0  0.33222299565E+01 -0.86069296272E+01  0.32496516542E+02  0.33781689265E+02  0.24998543388E+00 0.  0.
    1000022    2    1    0    0    0 -0.39484716752E+00  0.89146588002E+01 -0.61046071808E+02  0.62499999972E+02  0.10000003376E+02 0.  0.
    3000022    2    5    5    0    0  0.46542028279E+01  0.32090862788E+01 -0.28838702985E+02  0.29388656446E+02  0.24999819414E+00 0.  0.
        -13    1    4    4    0    0  0.22698917245E+01 -0.58664983206E+01  0.21968958229E+02  0.22852010013E+02  0.10500000000E+00 0.  1.
         13    1    4    4    0    0  0.10523382320E+01 -0.27404313066E+01  0.10527558313E+02  0.10929679252E+02  0.10500000000E+00 0. -1.
    3000001    1    5    5    0    0 -0.50490499954E+01  0.57055725214E+01 -0.32207368822E+02  0.33111343526E+02  0.10000000000E+01 0. -1.
        -13    1    6    6    0    0  0.22020390526E+01  0.15778101274E+01 -0.14060000264E+02  0.14318976682E+02  0.10500000000E+00 0. -1.
         13    1    6    6    0    0  0.24521637753E+01  0.16312761515E+01 -0.14778702721E+02  0.15069679764E+02  0.10500000000E+00 0.  1.
</event>
<event>
11    0  0.3482687E-009  0.9118800E+02  0.7816531E-02  0.1126479E+00
         25   -1    0    0    0    0  0.00000000000E+00  0.00000000000E+00  0.99999998245E-14  0.12500000000E+03  0.12500000000E+03 0.  0.
    3000001    1    3    3    0    0  0.78758859630E+00 -0.10558675249E+02  0.29195456611E+02  0.31072183791E+02  0.10000000000E+01 0.  1.
    1000022    2    1    0    0    0  0.57280443665E+01 -0.12311268898E+02  0.60181992901E+02  0.62499999843E+02  0.99999938390E+01 0.  0.
    3000022    2    3    3    0    0  0.49404557702E+01 -0.17525936484E+01  0.30986536290E+02  0.31427816052E+02  0.25000574441E+00 0.  0.
    1000022    2    1    0    0    0 -0.57280443665E+01  0.12311268898E+02 -0.60181992901E+02  0.62500000157E+02  0.99999957985E+01 0.  0.
    3000022    2    5    5    0    0 -0.53939652297E+01  0.13015675053E+02 -0.42553148638E+02  0.44825613408E+02  0.25000087438E+00 0.  0.
        -13    1    4    4    0    0  0.34945343644E+01 -0.12646907093E+01  0.22170245206E+02  0.22479813400E+02  0.10500000000E+00 0.  1.
         13    1    4    4    0    0  0.14459214057E+01 -0.48790293911E+00  0.88162910840E+01  0.89480026524E+01  0.10500000000E+00 0. -1.
    3000001    1    5    5    0    0 -0.33407913680E+00 -0.70440615510E+00 -0.17628844263E+02  0.17674386749E+02  0.10000000000E+01 0.  1.
        -13    1    6    6    0    0 -0.19602678545E+01  0.48502697958E+01 -0.15680389817E+02  0.16530378609E+02  0.10500000000E+00 0.  1.
         13    1    6    6    0    0 -0.34336973752E+01  0.81654052568E+01 -0.26872758821E+02  0.28295234799E+02  0.10500000000E+00 0. -1.
</event>
<event>
11    0  0.3482687E-009  0.9118800E+02  0.7816531E-02  0.1126479E+00
         25   -1    0    0    0    0  0.00000000000E+00  0.00000000000E+00  0.99999998245E-14  0.12500000000E+03  0.12500000000E+03 0.  0.
    3000001    1    3    3    0    0  0.48304214791E+02  0.33449785682E+02 -0.14806509499E+02  0.60600478977E+02  0.10000000000E+01 0.  1.
    1000022    2    1    0    0    0  0.49088319104E+02  0.33522797310E+02 -0.16516926302E+02  0.62499999206E+02  0.10000001713E+02 0.  0.
    3000022    2    3    3    0    0  0.78410431327E+00  0.73011627474E-01 -0.17104168034E+01  0.18995202280E+01  0.25000236676E+00 0.  0.
    1000022    2    1    0    0    0 -0.49088319104E+02 -0.33522797310E+02  0.16516926302E+02  0.62500000794E+02  0.10000011644E+02 0.  0.
    3000022    2    5    5    0    0 -0.47165705607E+02 -0.33423877748E+02  0.17041637819E+02  0.60268062194E+02  0.25002399260E+00 0.  0.
        -13    1    4    4    0    0  0.44248033881E+00  0.38238753398E-01 -0.11063903695E+01  0.11968189931E+01  0.10500000000E+00 0. -1.
         13    1    4    4    0    0  0.34162397446E+00  0.34772874076E-01 -0.60402643395E+00  0.70270123496E+00  0.10500000000E+00 0.  1.
    3000001    1    5    5    0    0 -0.19226134971E+01 -0.98919561862E-01 -0.52471151651E+00  0.22319386001E+01  0.10000000000E+01 0. -1.
        -13    1    6    6    0    0 -0.13256465231E+02 -0.93487126079E+01  0.47974923769E+01  0.16916242371E+02  0.10500000000E+00 0. -1.
         13    1    6    6    0    0 -0.33909240376E+02 -0.24075165140E+02  0.12244145442E+02  0.43351819824E+02  0.10500000000E+00 0.  1.
</event>
<event>
11    0  0.3482687E-009  0.9118800E+02  0.7816531E-02  0.1126479E+00
         25   -1    0    0    0    0  0.00000000000E+00  0.00000000000E+00  0.99999998245E-14  0.12500000000E+03  0.12500000000E+03 0.  0.
    3000001    1    3    3    0    0 -0.86172655251E+01 -0.35954066187E+02  0.28271341249E+02  0.46553419601E+02  0.10000000000E+01 0. -1.
    1000022    2    1    0    0    0 -0.15916372686E+02 -0.48852880229E+02  0.34151356120E+02  0.62500000704E+02  0.10000006847E+02 0.  0.
    3000022    2    3    3    0    0 -0.72991071605E+01 -0.12898814043E+02  0.58800148712E+01  0.15946581103E+02  0.25000988794E+00 0.  0.
    1000022    2    1    0    0    0  0.15916372686E+02  0.48852880229E+02 -0.34151356120E+02  0.62499999296E+02  0.99999980513E+01 0.  0.
    3000022    2    5    5    0    0  0.12139140703E+02  0.22430562385E+02 -0.18874352100E+02  0.31729994201E+02  0.24999780587E+00 0.  0.
        -13    1    4    4    0    0 -0.48942522331E+01 -0.87209837580E+01  0.39264972234E+01  0.10744192295E+02  0.10500000000E+00 0.  1.
         13    1    4    4    0    0 -0.24048549274E+01 -0.41778302847E+01  0.19535176478E+01  0.52023888080E+01  0.10500000000E+00 0. -1.
    3000001    1    5    5    0    0  0.37772319822E+01  0.26422317844E+02 -0.15277004021E+02  0.30770005095E+02  0.10000000000E+01 0.  1.
        -13    1    6    6    0    0  0.78206544097E+01  0.14328966338E+02 -0.12077360795E+02  0.20306540337E+02  0.10500000000E+00 0.  1.
         13    1    6    6    0    0  0.43184862937E+01  0.81015960475E+01 -0.67969913050E+01  0.11423453864E+02  0.10500000000E+00 0. -1.
</event>
<event>
11    0  0.3482687E-009  0.9118800E+02  0.7816531E-02  0.1126479E+00
         25   -1    0    0    0    0  0.00000000000E+00  0.00000000000E+00  0.99999998245E-14  0.12500000000E+03  0.12500000000E+03 0.  0.
    3000001    1    3    3    0    0 -0.27225405483E+02  0.15046044703E+02 -0.10559066232E+02  0.32864875546E+02  0.10000000000E+01 0. -1.
    1000022    2    1    0    0    0 -0.48791193249E+02  0.25051647613E+02 -0.28250386810E+02  0.62500000217E+02  0.10000004275E+02 0.  0.
    3000022    2    3    3    0    0 -0.21565787766E+02  0.10005602910E+02 -0.17691320577E+02  0.29635124672E+02  0.24999799282E+00 0.  0.
    1000022    2    1    0    0    0  0.48791193249E+02 -0.25051647613E+02  0.28250386810E+02  0.62499999783E+02  0.10000001559E+02 0.  0.
    3000022    2    5    5    0    0  0.36619320783E+02 -0.22953941279E+02  0.20073724259E+02  0.47653698504E+02  0.25000133703E+00 0.  0.
        -13    1    4    4    0    0 -0.83938729645E+01  0.38278272851E+01 -0.68489749788E+01  0.11490380687E+02  0.10500000000E+00 0.  1.
         13    1    4    4    0    0 -0.13171914801E+02  0.61777756247E+01 -0.10842345599E+02  0.18144743985E+02  0.10500000000E+00 0. -1.
    3000001    1    5    5    0    0  0.12171872466E+02 -0.20977063343E+01  0.81766625504E+01  0.14846301278E+02  0.10000000000E+01 0.  1.
        -13    1    6    6    0    0  0.19119136686E+02 -0.11936131456E+02  0.10528063362E+02  0.24876972583E+02  0.10500000000E+00 0. -1.
         13    1    6    6    0    0  0.17500184097E+02 -0.11017809823E+02  0.95456608970E+01  0.22776725921E+02  0.10500000000E+00 0.  1.
</event>
<event>
11    0  0.3482687E-009  0.9118800E+02  0.7816531E-02  0.1126479E+00
         25   -1    0    0    0    0  0.00000000000E+00  0.00000000000E+00  0.99999998245E-14  0.12500000000E+03  0.12500000000E+03 0.  0.
    3000001    1    3    3    0    0 -0.81008714660E+00  0.65161807909E+01 -0.70624989302E+01  0.96951402478E+01  0.10000000000E+01 0. -1.
    1000022    2    1    0    0    0 -0.12631881347E+02  0.53666232487E+02 -0.27687927861E+02  0.62499998183E+02  0.99999743949E+01 0.  0.
    3000022    2    3    3    0    0 -0.11821794200E+02  0.47150051697E+02 -0.20625428931E+02  0.52804857935E+02  0.25001978491E+00 0.  0.
    1000022    2    1    0    0    0  0.12631881347E+02 -0.53666232487E+02  0.27687927861E+02  0.62500001817E+02  0.99999971051E+01 0.  0.
    3000022    2    5    5    0    0  0.23831253989E+01 -0.19723770632E+02  0.14744638689E+02  0.24742135750E+02  0.24999363303E+00 0.  0.
        -13    1    4    4    0    0 -0.63711333440E+01  0.25582232733E+02 -0.11129336756E+02  0.28616693263E+02  0.10500000000E+00 0. -1.
         13    1    4    4    0    0 -0.54506608563E+01  0.21567818964E+02 -0.94960921744E+01  0.24188164672E+02  0.10500000000E+00 0.  1.
    3000001    1    5    5    0    0  0.10248755948E+02 -0.33942461856E+02  0.12943289172E+02  0.37757866067E+02  0.10000000000E+01 0. -1.
        -13    1    6    6    0    0  0.18082565351E+01 -0.15087880384E+02  0.11275700126E+02  0.18922641584E+02  0.10500000000E+00 0.  1.
         13    1    6    6    0    0  0.57486886387E+00 -0.46358902475E+01  0.34689385634E+01  0.58194941665E+01  0.10500000000E+00 0. -1.
</event>
<event>
11    0  0.3482687E-009  0.9118800E+02  0.7816531E-02  0.1126479E+00
         25   -1    0    0    0    0  0.00000000000E+00  0.00000000000E+00  0.99999998245E-14  0.12500000000E+03  0.12500000000E+03 0.  0.
    3000001    1    3    3    0    0 -0.73159724564E+01  0.19579214859E+01 -0.14292705380E+02  0.16206120344E+02  0.10000000000E+01 0. -1.
    1000022    2    1    0    0    0 -0.15206794532E+02  0.17606670763E+02 -0.57140252486E+02  0.62499999224E+02  0.99999996789E+01 0.  0.
    3000022    2    3    3    0    0 -0.78908220760E+01  0.15648749278E+02 -0.42847547106E+02  0.46293878880E+02  0.25000361690E+00 0.  0.
    1000022    2    1    0    0    0  0.15206794532E+02 -0.17606670763E+02  0.57140252486E+02  0.62500000776E+02  0.10000009376E+02 0.  0.
    3000022    2    5    5    0    0  0.76316869051E+01 -0.19282453660E+01  0.18413736300E+02  0.20027205549E+02  0.25000472077E+00 0.  0.
        -13    1    4    4    0    0 -0.18058943383E+01  0.35894046331E+01 -0.98330872967E+01  0.10622886179E+02  0.10500000000E+00 0.  1.
         13    1    4    4    0    0 -0.60849277378E+01  0.12059344644E+02 -0.33014459809E+02  0.35670992702E+02  0.10500000000E+00 0. -1.
    3000001    1    5    5    0    0  0.75751076273E+01 -0.15678425397E+02  0.38726516185E+02  0.42472795227E+02  0.10000000000E+01 0. -1.
        -13    1    6    6    0    0  0.24057903284E+01 -0.58093161223E+00  0.58996448255E+01  0.63986047470E+01  0.10500000000E+00 0.  1.
         13    1    6    6    0    0  0.52258965767E+01 -0.13473137537E+01  0.12514091475E+02  0.13628600802E+02  0.10500000000E+00 0. -1.
</event>
<event>
11    0  0.3482687E-009  0.9118800E+02  0.7816531E-02  0.1126479E+00
         25   -1    0    0    0    0  0.00000000000E+00  0.00000000000E+00  0.99999998245E-14  0.12500000000E+03  0.12500000000E+03 0.  0.
    3000001    1    3    3    0    0 -0.15656491685E+02 -0.32608240694E+02  0.19508711286E+02  0.41109766590E+02  0.10000000000E+01 0. -1.
    1000022    2    1    0    0    0 -0.20205137772E+02 -0.52913308854E+02  0.24457803146E+02  0.62499997653E+02  0.99999862827E+01 0.  0.
    3000022    2    3    3    0    0 -0.45486460865E+01 -0.20305068160E+02  0.49490918595E+01  0.21390231063E+02  0.25000096974E+00 0.  0.
    1000022    2    1    0    0    0  0.20205137772E+02  0.52913308854E+02 -0.24457803146E+02  0.62500002347E+02  0.10000015617E+02 0.  0.
    3000022    2    5    5    0    0  0.14057367334E+02  0.27282434716E+02 -0.17016338790E+02  0.35093576418E+02  0.24999915556E+00 0.  0.
        -13    1    4    4    0    0 -0.20585872023E+01 -0.89164798044E+01  0.21472119282E+01  0.94001562453E+01  0.10500000000E+00 0.  1.
         13    1    4    4    0    0 -0.24900588842E+01 -0.11388588356E+02  0.28018799313E+01  0.11990074817E+02  0.10500000000E+00 0. -1.
    3000001    1    5    5    0    0  0.61477704381E+01  0.25630874138E+02 -0.74414643556E+01  0.27406425929E+02  0.10000000000E+01 0. -1.
        -13    1    6    6    0    0  0.10315771809E+02  0.19998714676E+02 -0.12513940615E+02  0.25748271231E+02  0.10500000000E+00 0. -1.
         13    1    6    6    0    0  0.37415955250E+01  0.72837200406E+01 -0.45023981757E+01  0.93453051868E+01  0.10500000000E+00 0.  1.
</event>
<event>
11    0  0.3482687E-009  0.9118800E+02  0.7816531E-02  0.1126479E+00
         25   -1    0    0    0    0  0.00000000000E+00  0.00000000000E+00  0.99999998245E-14  0.12500000000E+03  0.12500000000E+03 0.  0.
    3000001    1    3    3    0    0 -0.22277049370E+01  0.31689316904E+01  0.31051527512E+00  0.40126321886E+01  0.10000000000E+01 0. -1.
    1000022    2    1    0    0    0 -0.49914728328E+02  0.30105108167E+02 -0.20210206930E+02  0.62500001247E+02  0.10000002500E+02 0.  0.
    3000022    2    3    3    0    0 -0.47687023390E+02  0.26936176477E+02 -0.20520722205E+02  0.58487369059E+02  0.24999312868E+00 0.  0.
    1000022    2    1    0    0    0  0.49914728328E+02 -0.30105108167E+02  0.20210206930E+02  0.62499998753E+02  0.99999869089E+01 0.  0.
    3000022    2    5    5    0    0  0.26247994518E+02 -0.21392409420E+02  0.12721697261E+02  0.36173145812E+02  0.24999955846E+00 0.  0.
        -13    1    4    4    0    0 -0.25420599523E+02  0.14341173464E+02 -0.11005700436E+02  0.31193149945E+02  0.10500000000E+00 0.  1.
         13    1    4    4    0    0 -0.22266423867E+02  0.12595003013E+02 -0.95150217693E+01  0.27294219113E+02  0.10500000000E+00 0. -1.
    3000001    1    5    5    0    0  0.23666733809E+02 -0.87126987474E+01  0.74885096694E+01  0.26326852940E+02  0.10000000000E+01 0. -1.
        -13    1    6    6    0    0  0.70437282389E+01 -0.57824300451E+01  0.34399321674E+01  0.97413943071E+01  0.10500000000E+00 0. -1.
         13    1    6    6    0    0  0.19204266279E+02 -0.15609979375E+02  0.92817650932E+01  0.26431751505E+02  0.10500000000E+00 0.  1.
</event>
<event>
11    0  0.3482687E-009  0.9118800E+02  0.7816531E-02  0.1126479E+00
         25   -1    0    0    0    0  0.00000000000E+00  0.00000000000E+00  0.99999998245E-14  0.12500000000E+03  0.12500000000E+03 0.  0.
    3000001    1    3    3    0    0 -0.10212327983E+02 -0.10181426871E+02 -0.23140715650E+02  0.27284534388E+02  0.10000000000E+01 0.  1.
    1000022    2    1    0    0    0 -0.12724103719E+02 -0.21982094463E+02 -0.56223970993E+02  0.62500000525E+02  0.99999929481E+01 0.  0.
    3000022    2    3    3    0    0 -0.25117757356E+01 -0.11800667592E+02 -0.33083255343E+02  0.35215466137E+02  0.24999639986E+00 0.  0.
    1000022    2    1    0    0    0  0.12724103719E+02  0.21982094463E+02  0.56223970993E+02  0.62499999475E+02  0.99999863908E+01 0.  0.
    3000022    2    5    5    0    0  0.42328188231E+01  0.15191847918E+02  0.26556334190E+02  0.30887058442E+02  0.24999047866E+00 0.  0.
        -13    1    4    4    0    0 -0.93884951668E+00 -0.43743947981E+01 -0.12097279087E+02  0.12898525286E+02  0.10500000000E+00 0. -1.
         13    1    4    4    0    0 -0.15729262189E+01 -0.74262727938E+01 -0.20985976256E+02  0.22316940850E+02  0.10500000000E+00 0.  1.
    3000001    1    5    5    0    0  0.84912848956E+01  0.67902465450E+01  0.29667636803E+02  0.31612941034E+02  0.10000000000E+01 0.  1.
        -13    1    6    6    0    0  0.13114220754E+01  0.48968896729E+01  0.85406472186E+01  0.99324234828E+01  0.10500000000E+00 0.  1.
         13    1    6    6    0    0  0.29213967477E+01  0.10294958245E+02  0.18015686971E+02  0.20954634959E+02  0.10500000000E+00 0. -1.
</event>
<event>
11    0  0.3482687E-009  0.9118800E+02  0.7816531E-02  0.1126479E+00
         25   -1    0    0    0    0  0.00000000000E+00  0.00000000000E+00  0.99999998245E-14  0.12500000000E+03  0.12500000000E+03 0.  0.
    3000001    1    3    3    0    0  0.14305780500E+02 -0.21086987978E+02  0.45353902171E+02  0.52031652480E+02  0.10000000000E+01 0. -1.
    1000022    2    1    0    0    0  0.17155695425E+02 -0.28854291009E+02  0.51762552449E+02  0.62500000350E+02  0.10000010626E+02 0.  0.
    3000022    2    3    3    0    0  0.28499149259E+01 -0.77673030312E+01  0.64086502777E+01  0.10468347869E+02  0.24999453542E+00 0.  0.
    1000022    2    1    0    0    0 -0.17155695425E+02  0.28854291009E+02 -0.51762552449E+02  0.62499999650E+02  0.10000006256E+02 0.  0.
    3000022    2    5    5    0    0 -0.17973822942E+02  0.24359074216E+02 -0.46159851554E+02  0.55201605035E+02  0.24999020030E+00 0.  0.
        -13    1    4    4    0    0  0.12825150676E+01 -0.34168122716E+01  0.29035852109E+01  0.46648990423E+01  0.10500000000E+00 0. -1.
         13    1    4    4    0    0  0.15673998583E+01 -0.43504907596E+01  0.35050650668E+01  0.58034488270E+01  0.10500000000E+00 0.  1.
    3000001    1    5    5    0    0  0.81812751664E+00  0.44952167930E+01 -0.56027008947E+01  0.72983946156E+01  0.10000000000E+01 0.  1.
        -13    1    6    6    0    0 -0.11258315498E+02  0.15334832177E+02 -0.28937167632E+02  0.34630585345E+02  0.10500000000E+00 0. -1.
         13    1    6    6    0    0 -0.67155074442E+01  0.90242420387E+01 -0.17222683922E+02  0.20571019690E+02  0.10500000000E+00 0.  1.
</event>
<event>
11    0  0.3482687E-009  0.9118800E+02  0.7816531E-02  0.1126479E+00
         25   -1    0    0    0    0  0.00000000000E+00  0.00000000000E+00  0.99999998245E-14  0.12500000000E+03  0.12500000000E+03 0.  0.
    3000001    1    3    3    0    0  0.11483734394E+02 -0.58051761530E+01 -0.42712889457E+01  0.13594856934E+02  0.10000000000E+01 0.  1.
    1000022    2    1    0    0    0  0.42554836973E+02 -0.41691434776E+02 -0.16036215236E+02  0.62499999645E+02  0.99999936527E+01 0.  0.
    3000022    2    3    3    0    0  0.31071102578E+02 -0.35886258623E+02 -0.11764926290E+02  0.48905142710E+02  0.25003904507E+00 0.  0.
    1000022    2    1    0    0    0 -0.42554836973E+02  0.41691434776E+02  0.16036215236E+02  0.62500000355E+02  0.99999980911E+01 0.  0.
    3000022    2    5    5    0    0 -0.16196664695E+02  0.11698064472E+02  0.91192271247E+01  0.21963594094E+02  0.25000507484E+00 0.  0.
        -13    1    4    4    0    0  0.17558411360E+02 -0.20180860471E+02 -0.66439519863E+01  0.27562983544E+02  0.10500000000E+00 0.  1.
         13    1    4    4    0    0  0.13512691219E+02 -0.15705398152E+02 -0.51209743036E+01  0.21342159166E+02  0.10500000000E+00 0. -1.
    3000001    1    5    5    0    0 -0.26358172277E+02  0.29993370305E+02  0.69169881108E+01  0.40536406261E+02  0.10000000000E+01 0.  1.
        -13    1    6    6    0    0 -0.83269168782E+01  0.60413281328E+01  0.47659508390E+01  0.11338452395E+02  0.10500000000E+00 0. -1.
         13    1    6    6    0    0 -0.78697478173E+01  0.56567363387E+01  0.43532762857E+01  0.10625141699E+02  0.10500000000E+00 0.  1.
</event>
<event>
11    0  0.3482687E-009  0.9118800E+02  0.7816531E-02  0.1126479E+00
         25   -1    0    0    0    0  0.00000000000E+00  0.00000000000E+00  0.99999998245E-14  0.12500000000E+03  0.12500000000E+03 0.  0.
    3000001    1    3    3    0    0 -0.60421991020E+01  0.26488325643E+02 -0.19331662692E+02  0.33359447654E+02  0.10000000000E+01 0.  1.
    1000022    2    1    0    0    0 -0.17415932994E+02  0.43717659341E+02 -0.39896133513E+02  0.62499998497E+02  0.99999941291E+01 0.  0.
    3000022    2    3    3    0    0 -0.11373733892E+02  0.17229333698E+02 -0.20564470821E+02  0.29140550843E+02  0.24996193527E+00 0.  0.
    1000022    2    1    0    0    0  0.17415932994E+02 -0.43717659341E+02  0.39896133513E+02  0.62500001503E+02  0.10000012914E+02 0.  0.
    3000022    2    5    5    0    0  0.39629433602E+01 -0.22544064547E+02  0.21168367619E+02  0.31178550994E+02  0.24997615176E+00 0.  0.
        -13    1    4    4    0    0 -0.41466668238E+01  0.63663199233E+01 -0.76197057135E+01  0.10760846401E+02  0.10500000000E+00 0.  1.
         13    1    4    4    0    0 -0.72270670684E+01  0.10863013775E+02 -0.12944765108E+02  0.18379704442E+02  0.10500000000E+00 0. -1.
    3000001    1    5    5    0    0  0.13452989634E+02 -0.21173594794E+02  0.18727765894E+02  0.31321450509E+02  0.10000000000E+01 0.  1.
        -13    1    6    6    0    0  0.16619716549E+01 -0.90890184837E+01  0.85399282800E+01  0.12582281463E+02  0.10500000000E+00 0. -1.
         13    1    6    6    0    0  0.23009717053E+01 -0.13455046063E+02  0.12628439339E+02  0.18596269531E+02  0.10500000000E+00 0.  1.
</event>
<event>
11    0  0.3482687E-009  0.9118800E+02  0.7816531E-02  0.1126479E+00
         25   -1    0    0    0    0  0.00000000000E+00  0.00000000000E+00  0.99999998245E-14  0.12500000000E+03  0.12500000000E+03 0.  0.
    3000001    1    3    3    0    0  0.39805395464E+01  0.46046788935E+02  0.14922396615E+02  0.48578075168E+02  0.10000000000E+01 0.  1.
    1000022    2    1    0    0    0  0.32160461812E+01  0.59931027967E+02  0.14289130810E+02  0.62500002361E+02  0.99999984816E+01 0.  0.
    3000022    2    3    3    0    0 -0.76449336520E+00  0.13884239032E+02 -0.63326580542E+00  0.13921927193E+02  0.24997516728E+00 0.  0.
    1000022    2    1    0    0    0 -0.32160461812E+01 -0.59931027967E+02 -0.14289130810E+02  0.62499997639E+02  0.99999689687E+01 0.  0.
    3000022    2    5    5    0    0 -0.20129861634E+01 -0.35789448650E+02 -0.13469350327E+02  0.38293898297E+02  0.25000116566E+00 0.  0.
        -13    1    4    4    0    0 -0.37033536185E+00  0.78109989204E+01 -0.38431493552E+00  0.78299154136E+01  0.10500000000E+00 0. -1.
         13    1    4    4    0    0 -0.39415800335E+00  0.60732401116E+01 -0.24895086990E+00  0.60920117794E+01  0.10500000000E+00 0.  1.
    3000001    1    5    5    0    0 -0.12030600178E+01 -0.24141579316E+02 -0.81978048282E+00  0.24206099342E+02  0.10000000000E+01 0.  1.
        -13    1    6    6    0    0 -0.93476914001E+00 -0.17026239136E+02 -0.64752673442E+01  0.18240250126E+02  0.10500000000E+00 0. -1.
         13    1    6    6    0    0 -0.10782170234E+01 -0.18763209514E+02 -0.69940829828E+01  0.20053648171E+02  0.10500000000E+00 0.  1.
</event>
<event>
11    0  0.3482687E-009  0.9118800E+02  0.7816531E-02  0.1126479E+00
         25   -1    0    0    0    0  0.00000000000E+00  0.00000000000E+00  0.99999998245E-14  0.12500000000E+03  0.12500000000E+03 0.  0.
    3000001    1    3    3    0    0  0.21276583713E+00 -0.28821749646E+01  0.87312017926E+00  0.31803365664E+01  0.10000000000E+01 0.  1.
    1000022    2    1    0    0    0 -0.33729362760E+02 -0.48897021750E+02  0.16663174734E+02  0.62500000618E+02  0.10000001846E+02 0.  0.
    3000022    2    3    3    0    0 -0.33942128597E+02 -0.46014846785E+02  0.15790054554E+02  0.59319664052E+02  0.25000414942E+00 0.  0.
    1000022    2    1    0    0    0  0.33729362760E+02  0.48897021750E+02 -0.16663174734E+02  0.62499999382E+02  0.99999941196E+01 0.  0.
    3000022    2    5    5    0    0  0.23318836177E+02  0.29358329748E+02 -0.14625525736E+02  0.40244852510E+02  0.25000847950E+00 0.  0.
        -13    1    4    4    0    0 -0.19416437451E+02 -0.26293692019E+02  0.89606907669E+01  0.33891905926E+02  0.10500000000E+00 0.  1.
         13    1    4    4    0    0 -0.14525691146E+02 -0.19721154766E+02  0.68293637875E+01  0.25427758126E+02  0.10500000000E+00 0. -1.
    3000001    1    5    5    0    0  0.10410526583E+02  0.19538692002E+02 -0.20376489974E+01  0.22255146872E+02  0.10000000000E+01 0. -1.
        -13    1    6    6    0    0  0.60394899349E+01  0.76543209045E+01 -0.38071612172E+01  0.10467548362E+02  0.10500000000E+00 0.  1.
         13    1    6    6    0    0  0.17279346242E+02  0.21704008843E+02 -0.10818364519E+02  0.29777304147E+02  0.10500000000E+00 0. -1.
</event>
<event>
11    0  0.3482687E-009  0.9118800E+02  0.7816531E-02  0.1126479E+00
         25   -1    0    0    0    0  0.00000000000E+00  0.00000000000E+00  0.99999998245E-14  0.12500000000E+03  0.12500000000E+03 0.  0.
    3000001    1    3    3    0    0 -0.60688315546E+01  0.55576143774E+01  0.84177772351E+01  0.11814261195E+02  0.10000000000E+01 0. -1.
    1000022    2    1    0    0    0 -0.20273834900E+02  0.44286768060E+02  0.37866922445E+02  0.62499999905E+02  0.99999982938E+01 0.  0.
    3000022    2    3    3    0    0 -0.14205003346E+02  0.38729153682E+02  0.29449145210E+02  0.50685738710E+02  0.24997986107E+00 0.  0.
    1000022    2    1    0    0    0  0.20273834900E+02 -0.44286768060E+02 -0.37866922445E+02  0.62500000095E+02  0.99999994846E+01 0.  0.
    3000022    2    5    5    0    0  0.24059823883E+01 -0.14681995682E+02 -0.85949184042E+01  0.17183855935E+02  0.25006795005E+00 0.  0.
        -13    1    4    4    0    0 -0.90286594530E+01  0.24692121943E+02  0.18832818890E+02  0.32340433979E+02  0.10500000000E+00 0. -1.
         13    1    4    4    0    0 -0.51763438929E+01  0.14037031739E+02  0.10616326320E+02  0.18345304731E+02  0.10500000000E+00 0.  1.
    3000001    1    5    5    0    0  0.17867852512E+02 -0.29604772378E+02 -0.29272004041E+02  0.45316144160E+02  0.10000000000E+01 0.  1.
        -13    1    6    6    0    0  0.15527915964E+01 -0.91341434630E+01 -0.53233993641E+01  0.10686128594E+02  0.10500000000E+00 0.  1.
         13    1    6    6    0    0  0.85319079190E+00 -0.55478522189E+01 -0.32715190401E+01  0.64977273411E+01  0.10500000000E+00 0. -1.
</event>
<event>
11    0  0.3482687E-009  0.9118800E+02  0.7816531E-02  0.1126479E+00
         25   -1    0    0    0    0  0.00000000000E+00  0.00000000000E+00  0.99999998245E-14  0.12500000000E+03  0.12500000000E+03 0.  0.
    3000001    1    3    3    0    0 -0.11364047581E+02  0.18024673516E+02 -0.10601760946E+02  0.23820742388E+02  0.10000000000E+01 0.  1.
    1000022    2    1    0    0    0 -0.38437720571E+02  0.38282481299E+02 -0.29381001967E+02  0.62499999559E+02  0.99999965634E+01 0.  0.
    3000022    2    3    3    0    0 -0.27073672990E+02  0.20257807783E+02 -0.18779241021E+02  0.38679257171E+02  0.24999328125E+00 0.  0.
    1000022    2    1    0    0    0  0.38437720571E+02 -0.38282481299E+02  0.29381001967E+02  0.62500000441E+02  0.10000002077E+02 0.  0.
    3000022    2    5    5    0    0  0.86138810479E+01 -0.74706265206E+01  0.10963257312E+02  0.15819757116E+02  0.24999400019E+00 0.  0.
        -13    1    4    4    0    0 -0.10955129324E+02  0.81320663651E+01 -0.75360336848E+01  0.15586795391E+02  0.10500000000E+00 0.  1.
         13    1    4    4    0    0 -0.16118543666E+02  0.12125741417E+02 -0.11243207336E+02  0.23092461780E+02  0.10500000000E+00 0. -1.
    3000001    1    5    5    0    0  0.29823839523E+02 -0.30811854778E+02  0.18417744655E+02  0.46680243325E+02  0.10000000000E+01 0.  1.
        -13    1    6    6    0    0  0.31696285268E+01 -0.27600398576E+01  0.41232828757E+01  0.58887054338E+01  0.10500000000E+00 0. -1.
         13    1    6    6    0    0  0.54442525211E+01 -0.47105866631E+01  0.68399744363E+01  0.99310516821E+01  0.10500000000E+00 0.  1.
</event>
<event>
11    0  0.3482687E-009  0.9118800E+02  0.7816531E-02  0.1126479E+00
         25   -1    0    0    0    0  0.00000000000E+00  0.00000000000E+00  0.99999998245E-14  0.12500000000E+03  0.12500000000E+03 0.  0.
    3000001    1    3    3    0    0  0.58881882382E+01 -0.32309673772E+01  0.10044254097E+02  0.12124229926E+02  0.10000000000E+01 0. -1.
    1000022    2    1    0    0    0  0.26519772559E+02 -0.34415750397E+02  0.43800774488E+02  0.62499999242E+02  0.99999923736E+01 0.  0.
    3000022    2    3    3    0    0  0.20631584321E+02 -0.31184783020E+02  0.33756520391E+02  0.50375769316E+02  0.25000338461E+00 0.  0.
    1000022    2    1    0    0    0 -0.26519772559E+02  0.34415750397E+02 -0.43800774488E+02  0.62500000758E+02  0.10000001855E+02 0.  0.
    3000022    2    5    5    0    0 -0.49008721679E+01  0.16305968291E+01 -0.67209198034E+01  0.84800158268E+01  0.25002278701E+00 0.  0.
        -13    1    4    4    0    0  0.70884388443E+01 -0.10814472286E+02  0.11663526998E+02  0.17414007670E+02  0.10500000000E+00 0. -1.
         13    1    4    4    0    0  0.13543145476E+02 -0.20370310733E+02  0.22092993393E+02  0.32961761646E+02  0.10500000000E+00 0.  1.
    3000001    1    5    5    0    0 -0.21618900391E+02  0.32785153568E+02 -0.37079854685E+02  0.54019984932E+02  0.10000000000E+01 0. -1.
        -13    1    6    6    0    0 -0.25918024151E+01  0.79120286602E+00 -0.35194926733E+01  0.44431177580E+01  0.10500000000E+00 0.  1.
         13    1    6    6    0    0 -0.23090697529E+01  0.83939396306E+00 -0.32014271301E+01  0.40368980688E+01  0.10500000000E+00 0. -1.
</event>
<event>
11    0  0.3482687E-009  0.9118800E+02  0.7816531E-02  0.1126479E+00
         25   -1    0    0    0    0  0.00000000000E+00  0.00000000000E+00  0.99999998245E-14  0.12500000000E+03  0.12500000000E+03 0.  0.
    3000001    1    3    3    0    0  0.37899514890E+01 -0.24581804192E+00 -0.31747885646E+00  0.39401715220E+01  0.10000000000E+01 0. -1.
    1000022    2    1    0    0    0  0.49715647431E+02  0.13732634606E+02 -0.33852890837E+02  0.62499995989E+02  0.10000021396E+02 0.  0.
    3000022    2    3    3    0    0  0.45925695942E+02  0.13978452648E+02 -0.33535411981E+02  0.58559824467E+02  0.24999747670E+00 0.  0.
    1000022    2    1    0    0    0 -0.49715647431E+02 -0.13732634606E+02  0.33852890837E+02  0.62500004011E+02  0.10000071533E+02 0.  0.
    3000022    2    5    5    0    0 -0.44528024254E+02 -0.12467531548E+02  0.33412947853E+02  0.57049731560E+02  0.24999971931E+00 0.  0.
        -13    1    4    4    0    0  0.15155645357E+02  0.45591603987E+01 -0.11070438068E+02  0.19314376867E+02  0.10500000000E+00 0. -1.
         13    1    4    4    0    0  0.30770050585E+02  0.94192922489E+01 -0.22464973913E+02  0.39245447600E+02  0.10500000000E+00 0.  1.
    3000001    1    5    5    0    0 -0.51876231763E+01 -0.12651030573E+01  0.43994298398E+00  0.54502724514E+01  0.10000000000E+01 0. -1.
        -13    1    6    6    0    0 -0.11349246748E+02 -0.31589442920E+01  0.84848371463E+01  0.14518533576E+02  0.10500000000E+00 0.  1.
         13    1    6    6    0    0 -0.33178777506E+02 -0.93085872564E+01  0.24928110707E+02  0.42531197984E+02  0.10500000000E+00 0. -1.
</event>
<event>
11    0  0.3482687E-009  0.9118800E+02  0.7816531E-02  0.1126479E+00
         25   -1    0    0    0    0  0.00000000000E+00  0.00000000000E+00  0.99999998245E-14  0.12500000000E+03  0.12500000000E+03 0.  0.
    3000001    1    3    3    0    0 -0.21224080633E+02  0.29733113915E+01 -0.12524508450E+01  0.21491179876E+02  0.10000000000E+01 0. -1.
    1000022    2    1    0    0    0 -0.61382527330E+02 -0.49531605285E+01 -0.37285062110E+01  0.62499997827E+02  0.99999754582E+01 0.  0.
    3000022    2    3    3    0    0 -0.40158446697E+02 -0.79264719200E+01 -0.24760553660E+01  0.41008817951E+02  0.25000267447E+00 0.  0.
    1000022    2    1    0    0    0  0.61382527330E+02  0.49531605285E+01  0.37285062110E+01  0.62500002173E+02  0.10000002627E+02 0.  0.
    3000022    2    5    5    0    0  0.44706227409E+02  0.89731021727E+00  0.61568723957E+01  0.45137805794E+02  0.24999888234E+00 0.  0.
        -13    1    4    4    0    0 -0.21789445228E+02 -0.43456832974E+01 -0.13945552860E+01  0.22262540199E+02  0.10500000000E+00 0. -1.
         13    1    4    4    0    0 -0.18369001469E+02 -0.35807886226E+01 -0.10815000800E+01  0.18746277752E+02  0.10500000000E+00 0.  1.
    3000001    1    5    5    0    0  0.16676299921E+02  0.40558503112E+01 -0.24283661847E+01  0.17362196380E+02  0.10000000000E+01 0. -1.
        -13    1    6    6    0    0  0.11216677601E+02  0.22544132205E+00  0.15719096187E+01  0.11329016066E+02  0.10500000000E+00 0.  1.
         13    1    6    6    0    0  0.33489549808E+02  0.67186889521E+00  0.45849627770E+01  0.33808789727E+02  0.10500000000E+00 0. -1.
</event>
<event>
11    0  0.3482687E-009  0.9118800E+02  0.7816531E-02  0.1126479E+00
         25   -1    0    0    0    0  0.00000000000E+00  0.00000000000E+00  0.99999998245E-14  0.12500000000E+03  0.12500000000E+03 0.  0.
    3000001    1    3    3    0    0 -0.48578608721E+00  0.18875691734E+00 -0.21689720166E+01  0.24445974935E+01  0.10000000000E+01 0.  1.
    1000022    2    1    0    0    0 -0.11850277687E+02  0.44905521129E+02 -0.40611761658E+02  0.62499998937E+02  0.99999886519E+01 0.  0.
    3000022    2    3    3    0    0 -0.11364491600E+02  0.44716764211E+02 -0.38442789642E+02  0.60055401444E+02  0.24999250298E+00 0.  0.
    1000022    2    1    0    0    0  0.11850277687E+02 -0.44905521129E+02  0.40611761658E+02  0.62500001063E+02  0.10000001938E+02 0.  0.
    3000022    2    5    5    0    0  0.50069371171E+01 -0.27980641329E+02  0.30139241704E+02  0.41429724828E+02  0.25000081756E+00 0.  0.
        -13    1    4    4    0    0 -0.66337773912E+01  0.25989312692E+02 -0.22424693848E+02  0.34961826266E+02  0.10500000000E+00 0.  1.
         13    1    4    4    0    0 -0.47307142086E+01  0.18727451520E+02 -0.16018095793E+02  0.25093575178E+02  0.10500000000E+00 0. -1.
    3000001    1    5    5    0    0  0.68433405698E+01 -0.16924879800E+02  0.10472519955E+02  0.21070276235E+02  0.10000000000E+01 0.  1.
        -13    1    6    6    0    0  0.38555739286E+01 -0.21517868474E+02  0.23188588451E+02  0.31868570305E+02  0.10500000000E+00 0.  1.
         13    1    6    6    0    0  0.11513631885E+01 -0.64627728549E+01  0.69506532530E+01  0.95611545228E+01  0.10500000000E+00 0. -1.
</event>
<event>
11    0  0.3482687E-009  0.9118800E+02  0.7816531E-02  0.1126479E+00
         25   -1    0    0    0    0  0.00000000000E+00  0.00000000000E+00  0.99999998245E-14  0.12500000000E+03  0.12500000000E+03 0.  0.
    3000001    1    3    3    0    0 -0.92376586886E+01  0.32344455335E-01 -0.66124901821E+01  0.11404403124E+02  0.10000000000E+01 0.  1.
    1000022    2    1    0    0    0 -0.48922649451E+02  0.20171895967E+02 -0.31716226927E+02  0.62500001059E+02  0.10000003282E+02 0.  0.
    3000022    2    3    3    0    0 -0.39684990763E+02  0.20139551512E+02 -0.25103736745E+02  0.51095597935E+02  0.25000564620E+00 0.  0.
    1000022    2    1    0    0    0  0.48922649451E+02 -0.20171895967E+02  0.31716226927E+02  0.62499998941E+02  0.99999900436E+01 0.  0.
    3000022    2    5    5    0    0  0.27317986447E+02 -0.12060095915E+02  0.12194246046E+02  0.32256478955E+02  0.25000188149E+00 0.  0.
        -13    1    4    4    0    0 -0.26021666712E+02  0.13253284117E+02 -0.16431804172E+02  0.33508086959E+02  0.10500000000E+00 0.  1.
         13    1    4    4    0    0 -0.13663324051E+02  0.68862673948E+01 -0.86719325738E+01  0.17587510975E+02  0.10500000000E+00 0. -1.
    3000001    1    5    5    0    0  0.21604663004E+02 -0.81118000514E+01  0.19521980881E+02  0.30243519986E+02  0.10000000000E+01 0. -1.
        -13    1    6    6    0    0  0.82770453979E+01 -0.36773454221E+01  0.36538112589E+01  0.97669704406E+01  0.10500000000E+00 0.  1.
         13    1    6    6    0    0  0.19040941049E+02 -0.83827504933E+01  0.85404347873E+01  0.22489508514E+02  0.10500000000E+00 0. -1.
</event>
<event>
11    0  0.3482687E-009  0.9118800E+02  0.7816531E-02  0.1126479E+00
         25   -1    0    0    0    0  0.00000000000E+00  0.00000000000E+00  0.99999998245E-14  0.12500000000E+03  0.12500000000E+03 0.  0.
    3000001    1    3    3    0    0 -0.43554977034E+02 -0.42666590118E+01  0.21420339196E+02  0.48734703599E+02  0.10000000000E+01 0. -1.
    1000022    2    1    0    0    0 -0.56936793048E+02 -0.19733257968E+01  0.23676096602E+02  0.62499997565E+02  0.99999864019E+01 0.  0.
    3000022    2    3    3    0    0 -0.13381816013E+02  0.22933332150E+01  0.22557574061E+01  0.13765293966E+02  0.24999889434E+00 0.  0.
    1000022    2    1    0    0    0  0.56936793048E+02  0.19733257968E+01 -0.23676096602E+02  0.62500002435E+02  0.10000016842E+02 0.  0.
    3000022    2    5    5    0    0  0.65519714551E+01 -0.27720870262E+01 -0.41959547067E+01  0.82632518132E+01  0.24999639391E+00 0.  0.
        -13    1    4    4    0    0 -0.88341265633E+01  0.15084269464E+01  0.14336471862E+01  0.90765364123E+01  0.10500000000E+00 0.  1.
         13    1    4    4    0    0 -0.45476894500E+01  0.78490626854E+00  0.82211021988E+00  0.46887575538E+01  0.10500000000E+00 0. -1.
    3000001    1    5    5    0    0  0.50384821592E+02  0.47454128230E+01 -0.19480141896E+02  0.54236750622E+02  0.10000000000E+01 0. -1.
        -13    1    6    6    0    0  0.22539056530E+01 -0.89570811602E+00 -0.14156047910E+01  0.28102216365E+01  0.10500000000E+00 0. -1.
         13    1    6    6    0    0  0.42980658021E+01 -0.18763789102E+01 -0.27803499157E+01  0.54530301767E+01  0.10500000000E+00 0.  1.
</event>
<event>
11    0  0.3482687E-009  0.9118800E+02  0.7816531E-02  0.1126479E+00
         25   -1    0    0    0    0  0.00000000000E+00  0.00000000000E+00  0.99999998245E-14  0.12500000000E+03  0.12500000000E+03 0.  0.
    3000001    1    3    3    0    0 -0.10114507176E+02 -0.29612163891E+01 -0.71092913416E+01  0.12752022635E+02  0.10000000000E+01 0.  1.
    1000022    2    1    0    0    0 -0.35412724411E+02 -0.16561792365E+02 -0.47727307851E+02  0.62499999798E+02  0.10000002178E+02 0.  0.
    3000022    2    3    3    0    0 -0.25298217235E+02 -0.13600575976E+02 -0.40618016509E+02  0.49747977163E+02  0.25000903149E+00 0.  0.
    1000022    2    1    0    0    0  0.35412724411E+02  0.16561792365E+02  0.47727307851E+02  0.62500000202E+02  0.10000004701E+02 0.  0.
    3000022    2    5    5    0    0  0.27336775898E+02  0.15470336721E+02  0.32492120423E+02  0.45193262908E+02  0.24997587044E+00 0.  0.
        -13    1    4    4    0    0 -0.16542286303E+02 -0.89522179097E+01 -0.26563712801E+02  0.32548906347E+02  0.10500000000E+00 0. -1.
         13    1    4    4    0    0 -0.87559309321E+01 -0.46483580662E+01 -0.14054303709E+02  0.17199070816E+02  0.10500000000E+00 0.  1.
    3000001    1    5    5    0    0  0.80759485131E+01  0.10914556443E+01  0.15235187428E+02  0.17306737294E+02  0.10000000000E+01 0. -1.
        -13    1    6    6    0    0  0.13044888790E+02  0.74442709156E+01  0.15595207998E+02  0.21651970592E+02  0.10500000000E+00 0.  1.
         13    1    6    6    0    0  0.14291887108E+02  0.80260658050E+01  0.16896912425E+02  0.23541292316E+02  0.10500000000E+00 0. -1.
</event>
<event>
11    0  0.3482687E-009  0.9118800E+02  0.7816531E-02  0.1126479E+00
         25   -1    0    0    0    0  0.00000000000E+00  0.00000000000E+00  0.99999998245E-14  0.12500000000E+03  0.12500000000E+03 0.  0.
    3000001    1    3    3    0    0 -0.16796749194E+02 -0.30606012257E+02 -0.19004872925E+02  0.39762343551E+02  0.10000000000E+01 0.  1.
    1000022    2    1    0    0    0 -0.27500265419E+02 -0.42734423877E+02 -0.34982210575E+02  0.62500009346E+02  0.10000026469E+02 0.  0.
    3000022    2    3    3    0    0 -0.10703516225E+02 -0.12128411620E+02 -0.15977337650E+02  0.22737665796E+02  0.24999889779E+00 0.  0.
    1000022    2    1    0    0    0  0.27500265419E+02  0.42734423877E+02  0.34982210575E+02  0.62499990654E+02  0.99999096416E+01 0.  0.
    3000022    2    5    5    0    0  0.17595125732E+02  0.18844494346E+02  0.19657652689E+02  0.32422048577E+02  0.25001598329E+00 0.  0.
        -13    1    4    4    0    0 -0.40484982915E+01 -0.46566991679E+01 -0.61516104983E+01  0.87136973943E+01  0.10500000000E+00 0. -1.
         13    1    4    4    0    0 -0.66550179334E+01 -0.74717124521E+01 -0.98257271518E+01  0.14023968401E+02  0.10500000000E+00 0.  1.
    3000001    1    5    5    0    0  0.99051396872E+01  0.23889929530E+02  0.15324557885E+02  0.30077942077E+02  0.10000000000E+01 0. -1.
        -13    1    6    6    0    0  0.98204333027E+01  0.10489162922E+02  0.11035253033E+02  0.18117706355E+02  0.10500000000E+00 0.  1.
         13    1    6    6    0    0  0.77746924291E+01  0.83553314241E+01  0.86223996566E+01  0.14304342222E+02  0.10500000000E+00 0. -1.
</event>
<event>
11    0  0.3482687E-009  0.9118800E+02  0.7816531E-02  0.1126479E+00
         25   -1    0    0    0    0  0.00000000000E+00  0.00000000000E+00  0.99999998245E-14  0.12500000000E+03  0.12500000000E+03 0.  0.
    3000001    1    3    3    0    0  0.24278344613E+02  0.38605250101E+02 -0.10340430792E+02  0.46773153213E+02  0.10000000000E+01 0.  1.
    1000022    2    1    0    0    0  0.27863795516E+02  0.52277527417E+02 -0.17231337324E+02  0.62500000367E+02  0.10000004323E+02 0.  0.
    3000022    2    3    3    0    0  0.35854509034E+01  0.13672277317E+02 -0.68909065317E+01  0.15726847154E+02  0.25000677377E+00 0.  0.
    1000022    2    1    0    0    0 -0.27863795516E+02 -0.52277527417E+02  0.17231337324E+02  0.62499999633E+02  0.99999997367E+01 0.  0.
    3000022    2    5    5    0    0 -0.25513441431E+02 -0.46318228213E+02  0.18240533536E+02  0.55938301047E+02  0.25000392299E+00 0.  0.
        -13    1    4    4    0    0  0.18951394997E+01  0.74409276476E+01 -0.36997107932E+01  0.85239569997E+01  0.10500000000E+00 0. -1.
         13    1    4    4    0    0  0.16903114037E+01  0.62313496690E+01 -0.31911957385E+01  0.72028901547E+01  0.10500000000E+00 0.  1.
    3000001    1    5    5    0    0 -0.23503540854E+01 -0.59592992045E+01 -0.10091962123E+01  0.65616985858E+01  0.10000000000E+01 0. -1.
        -13    1    6    6    0    0 -0.17720216442E+02 -0.32250938823E+02  0.12665636224E+02  0.38917328938E+02  0.10500000000E+00 0.  1.
         13    1    6    6    0    0 -0.77932249890E+01 -0.14067289389E+02  0.55748973120E+01  0.17020972109E+02  0.10500000000E+00 0. -1.
</event>
<event>
11    0  0.3482687E-009  0.9118800E+02  0.7816531E-02  0.1126479E+00
         25   -1    0    0    0    0  0.00000000000E+00  0.00000000000E+00  0.99999998245E-14  0.12500000000E+03  0.12500000000E+03 0.  0.
    3000001    1    3    3    0    0  0.55487832675E+01  0.91913417023E+01 -0.13392507296E+01  0.10865696046E+02  0.10000000000E+01 0.  1.
    1000022    2    1    0    0    0  0.46550974914E+02  0.40469399753E+02  0.12186225706E+01  0.62500004779E+02  0.99999987287E+01 0.  0.
    3000022    2    3    3    0    0  0.41002191647E+02  0.31278058050E+02  0.25578733002E+01  0.51634308733E+02  0.24997460266E+00 0.  0.
    1000022    2    1    0    0    0 -0.46550974914E+02 -0.40469399753E+02 -0.12186225706E+01  0.62499995221E+02  0.99999389940E+01 0.  0.
    3000022    2    5    5    0    0 -0.37326415179E+01 -0.15638441320E+01 -0.22326367490E+01  0.46287574797E+01  0.25001556399E+00 0.  0.
        -13    1    4    4    0    0  0.24127198824E+02  0.18345388241E+02  0.15464936677E+01  0.30349261284E+02  0.10500000000E+00 0. -1.
         13    1    4    4    0    0  0.16874992823E+02  0.12932669809E+02  0.10113796325E+01  0.21285047449E+02  0.10500000000E+00 0.  1.
    3000001    1    5    5    0    0 -0.42818333396E+02 -0.38905555621E+02  0.10140141784E+01  0.57871237742E+02  0.10000000000E+01 0. -1.
        -13    1    6    6    0    0 -0.28685815636E+01 -0.11885804150E+01 -0.17133012580E+01  0.35479444459E+01  0.10500000000E+00 0. -1.
         13    1    6    6    0    0 -0.86405995423E+00 -0.37526371701E+00 -0.51933549102E+00  0.10808130338E+01  0.10500000000E+00 0.  1.
</event>
<event>
11    0  0.3482687E-009  0.9118800E+02  0.7816531E-02  0.1126479E+00
         25   -1    0    0    0    0  0.00000000000E+00  0.00000000000E+00  0.99999998245E-14  0.12500000000E+03  0.12500000000E+03 0.  0.
    3000001    1    3    3    0    0  0.41383871786E+01  0.14253788970E+02  0.36771102620E+01  0.15323768738E+02  0.10000000000E+01 0. -1.
    1000022    2    1    0    0    0  0.13604365606E+02  0.60150901342E+02 -0.17436382869E+01  0.62499998885E+02  0.99999945190E+01 0.  0.
    3000022    2    3    3    0    0  0.94659784277E+01  0.45897112371E+02 -0.54207485489E+01  0.47176230147E+02  0.25000889313E+00 0.  0.
    1000022    2    1    0    0    0 -0.13604365606E+02 -0.60150901342E+02  0.17436382869E+01  0.62500001115E+02  0.10000008458E+02 0.  0.
    3000022    2    5    5    0    0 -0.10866015400E+02 -0.29690234121E+02 -0.19545544926E+01  0.31677485981E+02  0.25008389542E+00 0.  0.
        -13    1    4    4    0    0  0.34771365722E+01  0.16594448405E+02 -0.19377426147E+01  0.17065522788E+02  0.10500000000E+00 0.  1.
         13    1    4    4    0    0  0.59888418555E+01  0.29302663967E+02 -0.34830059342E+01  0.30110707359E+02  0.10500000000E+00 0. -1.
    3000001    1    5    5    0    0 -0.27383502061E+01 -0.30460667220E+02  0.36981927795E+01  0.30822515134E+02  0.10000000000E+01 0. -1.
        -13    1    6    6    0    0 -0.54423026896E+01 -0.15042550150E+02 -0.10223518525E+01  0.16029759883E+02  0.10500000000E+00 0. -1.
         13    1    6    6    0    0 -0.54237127106E+01 -0.14647683971E+02 -0.93220264011E+00  0.15647726098E+02  0.10500000000E+00 0.  1.
</event>
<event>
11    0  0.3482687E-009  0.9118800E+02  0.7816531E-02  0.1126479E+00
         25   -1    0    0    0    0  0.00000000000E+00  0.00000000000E+00  0.99999998245E-14  0.12500000000E+03  0.12500000000E+03 0.  0.
    3000001    1    3    3    0    0 -0.29702181867E+02  0.11519973109E+02 -0.29814986162E+02  0.43644733794E+02  0.10000000000E+01 0.  1.
    1000022    2    1    0    0    0 -0.41664784067E+02  0.22223078111E+02 -0.39704289184E+02  0.62500001589E+02  0.10000009344E+02 0.  0.
    3000022    2    3    3    0    0 -0.11962602200E+02  0.10703105002E+02 -0.98893030218E+01  0.18855267795E+02  0.25000254075E+00 0.  0.
    1000022    2    1    0    0    0  0.41664784067E+02 -0.22223078111E+02  0.39704289184E+02  0.62499998411E+02  0.99999894855E+01 0.  0.
    3000022    2    5    5    0    0  0.26569515340E+02 -0.13311676169E+02  0.18652624415E+02  0.35087358771E+02  0.24996022284E+00 0.  0.
        -13    1    4    4    0    0 -0.41544337010E+01  0.37306214669E+01 -0.35052332012E+01  0.65935226321E+01  0.10500000000E+00 0. -1.
         13    1    4    4    0    0 -0.78081684990E+01  0.69724835349E+01 -0.63840698206E+01  0.12261745162E+02  0.10500000000E+00 0.  1.
    3000001    1    5    5    0    0  0.15095268728E+02 -0.89114019412E+01  0.21051664769E+02  0.27412639640E+02  0.10000000000E+01 0. -1.
        -13    1    6    6    0    0  0.15055534293E+02 -0.74768403236E+01  0.10584665645E+02  0.19865005056E+02  0.10500000000E+00 0. -1.
         13    1    6    6    0    0  0.11513981046E+02 -0.58348358458E+01  0.80679587706E+01  0.15222353715E+02  0.10500000000E+00 0.  1.
</event>
<event>
11    0  0.3482687E-009  0.9118800E+02  0.7816531E-02  0.1126479E+00
         25   -1    0    0    0    0  0.00000000000E+00  0.00000000000E+00  0.99999998245E-14  0.12500000000E+03  0.12500000000E+03 0.  0.
    3000001    1    3    3    0    0  0.11198276686E+02 -0.27696325614E+02 -0.40925219081E+01  0.30170127425E+02  0.10000000000E+01 0. -1.
    1000022    2    1    0    0    0  0.13217193658E+02 -0.59651859089E+02 -0.85563743500E+01  0.62499999392E+02  0.99999940506E+01 0.  0.
    3000022    2    3    3    0    0  0.20189169720E+01 -0.31955533475E+02 -0.44638524418E+01  0.32329871968E+02  0.24999477295E+00 0.  0.
    1000022    2    1    0    0    0 -0.13217193658E+02  0.59651859089E+02  0.85563743500E+01  0.62500000608E+02  0.10000001648E+02 0.  0.
    3000022    2    5    5    0    0 -0.12728101799E+02  0.59168457284E+02  0.76905081097E+01  0.61009157726E+02  0.24999733331E+00 0.  0.
        -13    1    4    4    0    0  0.60169629082E+00 -0.10295199162E+02 -0.14216432715E+01  0.10410824117E+02  0.10500000000E+00 0. -1.
         13    1    4    4    0    0  0.14172206811E+01 -0.21660334314E+02 -0.30422091703E+01  0.21919047851E+02  0.10500000000E+00 0.  1.
    3000001    1    5    5    0    0 -0.48909185901E+00  0.48340180505E+00  0.86586624031E+00  0.14908428817E+01  0.10000000000E+01 0.  1.
        -13    1    6    6    0    0 -0.44037472075E+01  0.20457438183E+02  0.27152495678E+01  0.21101738594E+02  0.10500000000E+00 0.  1.
         13    1    6    6    0    0 -0.83243545914E+01  0.38711019101E+02  0.49752585418E+01  0.39907419132E+02  0.10500000000E+00 0. -1.
</event>
<event>
11    0  0.3482687E-009  0.9118800E+02  0.7816531E-02  0.1126479E+00
         25   -1    0    0    0    0  0.00000000000E+00  0.00000000000E+00  0.99999998245E-14  0.12500000000E+03  0.12500000000E+03 0.  0.
    3000001    1    3    3    0    0  0.33973093657E+02 -0.20968372237E+02  0.12925715309E+02  0.41975205099E+02  0.10000000000E+01 0.  1.
    1000022    2    1    0    0    0  0.50316938880E+02 -0.26308363304E+02  0.24131423182E+02  0.62499999333E+02  0.10000000692E+02 0.  0.
    3000022    2    3    3    0    0  0.16343845224E+02 -0.53399910664E+01  0.11205707873E+02  0.20524794234E+02  0.25001622868E+00 0.  0.
    1000022    2    1    0    0    0 -0.50316938880E+02  0.26308363304E+02 -0.24131423182E+02  0.62500000667E+02  0.10000009030E+02 0.  0.
    3000022    2    5    5    0    0 -0.33803016829E+02  0.18057378865E+02 -0.11162124349E+02  0.39917018625E+02  0.24995530198E+00 0.  0.
        -13    1    4    4    0    0  0.80782310933E+01 -0.25682197357E+01  0.55299651544E+01  0.10121517170E+02  0.10500000000E+00 0. -1.
         13    1    4    4    0    0  0.82656141303E+01 -0.27717713307E+01  0.56757427190E+01  0.10403277064E+02  0.10500000000E+00 0.  1.
    3000001    1    5    5    0    0 -0.16513922051E+02  0.82509844386E+01 -0.12969298833E+02  0.22582982042E+02  0.10000000000E+01 0.  1.
        -13    1    6    6    0    0 -0.16393208105E+02  0.87365115934E+01 -0.53425035976E+01  0.19329181992E+02  0.10500000000E+00 0.  1.
         13    1    6    6    0    0 -0.17409808724E+02  0.93208672718E+01 -0.58196207517E+01  0.20587836633E+02  0.10500000000E+00 0. -1.
</event>
<event>
11    0  0.3482687E-009  0.9118800E+02  0.7816531E-02  0.1126479E+00
         25   -1    0    0    0    0  0.00000000000E+00  0.00000000000E+00  0.99999998245E-14  0.12500000000E+03  0.12500000000E+03 0.  0.
    3000001    1    3    3    0    0 -0.32951335048E+02 -0.16721372726E+02  0.19834205755E+02  0.41949857035E+02  0.10000000000E+01 0.  1.
    1000022    2    1    0    0    0 -0.48386757418E+02 -0.29498149208E+02  0.24389157462E+02  0.62499999764E+02  0.99999934355E+01 0.  0.
    3000022    2    3    3    0    0 -0.15435422370E+02 -0.12776776481E+02  0.45549517064E+01  0.20550142729E+02  0.25000030388E+00 0.  0.
    1000022    2    1    0    0    0  0.48386757418E+02  0.29498149208E+02 -0.24389157462E+02  0.62500000236E+02  0.99999963815E+01 0.  0.
    3000022    2    5    5    0    0  0.11790052364E+02  0.48949300267E+01 -0.96096915313E+01  0.15980436307E+02  0.24999706187E+00 0.  0.
        -13    1    4    4    0    0 -0.89509179270E+01 -0.73419316391E+01  0.26718108914E+01  0.11881603022E+02  0.10500000000E+00 0.  1.
         13    1    4    4    0    0 -0.64845044428E+01 -0.54348448421E+01  0.18831408150E+01  0.86685397072E+01  0.10500000000E+00 0. -1.
    3000001    1    5    5    0    0  0.36596705055E+02  0.24603219181E+02 -0.14779465930E+02  0.46519563929E+02  0.10000000000E+01 0.  1.
        -13    1    6    6    0    0  0.47222499367E+01  0.19231902822E+01 -0.39044856657E+01  0.64229540431E+01  0.10500000000E+00 0.  1.
         13    1    6    6    0    0  0.70678024270E+01  0.29717397445E+01 -0.57052058656E+01  0.95574822639E+01  0.10500000000E+00 0. -1.
</event>
<event>
11    0  0.3482687E-009  0.9118800E+02  0.7816531E-02  0.1126479E+00
         25   -1    0    0    0    0  0.00000000000E+00  0.00000000000E+00  0.99999998245E-14  0.12500000000E+03  0.12500000000E+03 0.  0.
    3000001    1    3    3    0    0  0.47565629881E+01  0.29247462114E+01 -0.12950104194E+01  0.58185980999E+01  0.10000000000E+01 0. -1.
    1000022    2    1    0    0    0  0.61318079078E+02  0.57427944676E+01 -0.36556128043E+01  0.62500001102E+02  0.10000006136E+02 0.  0.
    3000022    2    3    3    0    0  0.56561516090E+02  0.28180482561E+01 -0.23606023849E+01  0.56681403002E+02  0.25000872276E+00 0.  0.
    1000022    2    1    0    0    0 -0.61318079078E+02 -0.57427944676E+01  0.36556128043E+01  0.62499998898E+02  0.99999923591E+01 0.  0.
    3000022    2    5    5    0    0 -0.13090812621E+01 -0.16654356894E+01 -0.53317394059E+00  0.21986671727E+01  0.24998619738E+00 0.  0.
        -13    1    4    4    0    0  0.38344998013E+02  0.19617126972E+01 -0.16006140499E+01  0.38428637495E+02  0.10500000000E+00 0.  1.
         13    1    4    4    0    0  0.18216518076E+02  0.85633555897E+00 -0.75998833501E+00  0.18252765508E+02  0.10500000000E+00 0. -1.
    3000001    1    5    5    0    0 -0.60008997816E+02 -0.40773587782E+01  0.41887867449E+01  0.60301331725E+02  0.10000000000E+01 0. -1.
        -13    1    6    6    0    0 -0.38891805752E+00 -0.46043386889E+00 -0.19007576955E+00  0.64063281313E+00  0.10500000000E+00 0. -1.
         13    1    6    6    0    0 -0.92016320457E+00 -0.12050018205E+01 -0.34309817104E+00  0.15580343595E+01  0.10500000000E+00 0.  1.
</event>
<event>
11    0  0.3482687E-009  0.9118800E+02  0.7816531E-02  0.1126479E+00
         25   -1    0    0    0    0  0.00000000000E+00  0.00000000000E+00  0.99999998245E-14  0.12500000000E+03  0.12500000000E+03 0.  0.
    3000001    1    3    3    0    0 -0.10874780820E+02  0.37613352052E+02  0.44397447317E+02  0.59204378544E+02  0.10000000000E+01 0. -1.
    1000022    2    1    0    0    0 -0.10827645849E+02  0.37620767034E+02  0.47683226801E+02  0.62500000533E+02  0.99999960772E+01 0.  0.
    3000022    2    3    3    0    0  0.47134971101E-01  0.74149819744E-02  0.32857794841E+01  0.32956219888E+01  0.25000157600E+00 0.  0.
    1000022    2    1    0    0    0  0.10827645849E+02 -0.37620767034E+02 -0.47683226801E+02  0.62499999467E+02  0.99999894131E+01 0.  0.
    3000022    2    5    5    0    0  0.11911606238E+02 -0.36482203034E+02 -0.44098865594E+02  0.58460328270E+02  0.25006684086E+00 0.  0.
        -13    1    4    4    0    0 -0.17207660646E-01  0.49943298688E-01  0.11878766742E+01  0.11936776909E+01  0.10500000000E+00 0. -1.
         13    1    4    4    0    0  0.64342631746E-01 -0.42528316713E-01  0.20979028099E+01  0.21019442979E+01  0.10500000000E+00 0.  1.
    3000001    1    5    5    0    0 -0.10839603892E+01 -0.11385640003E+01 -0.35843612078E+01  0.40396711965E+01  0.10000000000E+01 0.  1.
        -13    1    6    6    0    0  0.73985194611E+01 -0.22631433846E+02 -0.27451145678E+02  0.36338633879E+02  0.10500000000E+00 0.  1.
         13    1    6    6    0    0  0.45130867773E+01 -0.13850769188E+02 -0.16647719915E+02  0.22121694391E+02  0.10500000000E+00 0. -1.
</event>
<event>
11    0  0.3482687E-009  0.9118800E+02  0.7816531E-02  0.1126479E+00
         25   -1    0    0    0    0  0.00000000000E+00  0.00000000000E+00  0.99999998245E-14  0.12500000000E+03  0.12500000000E+03 0.  0.
    3000001    1    3    3    0    0 -0.19289096026E+01  0.12659431656E+02 -0.66697061926E+01  0.14472970767E+02  0.10000000000E+01 0. -1.
    1000022    2    1    0    0    0 -0.19657535686E+02  0.44452304887E+02 -0.37997680408E+02  0.62499998855E+02  0.10000001072E+02 0.  0.
    3000022    2    3    3    0    0 -0.17728626084E+02  0.31792873231E+02 -0.31327974215E+02  0.48027028088E+02  0.24997494223E+00 0.  0.
    1000022    2    1    0    0    0  0.19657535686E+02 -0.44452304887E+02  0.37997680408E+02  0.62500001145E+02  0.10000015388E+02 0.  0.
    3000022    2    5    5    0    0  0.80139589807E+01 -0.24174043978E+02  0.14372481670E+02  0.29244463871E+02  0.24999391774E+00 0.  0.
        -13    1    4    4    0    0 -0.80895618933E+01  0.14619996837E+02 -0.14430411958E+02  0.22077887884E+02  0.10500000000E+00 0. -1.
         13    1    4    4    0    0 -0.96390641903E+01  0.17172876394E+02 -0.16897562258E+02  0.25949140204E+02  0.10500000000E+00 0.  1.
    3000001    1    5    5    0    0  0.11643576706E+02 -0.20278260909E+02  0.23625198738E+02  0.33255537275E+02  0.10000000000E+01 0. -1.
        -13    1    6    6    0    0  0.44636757418E+01 -0.13436756751E+02  0.79147510977E+01  0.16221132607E+02  0.10500000000E+00 0. -1.
         13    1    6    6    0    0  0.35502832389E+01 -0.10737287226E+02  0.64577305721E+01  0.13023331264E+02  0.10500000000E+00 0.  1.
</event>
<event>
11    0  0.3482687E-009  0.9118800E+02  0.7816531E-02  0.1126479E+00
         25   -1    0    0    0    0  0.00000000000E+00  0.00000000000E+00  0.99999998245E-14  0.12500000000E+03  0.12500000000E+03 0.  0.
    3000001    1    3    3    0    0 -0.17757960506E+02  0.12111058287E+02  0.30536536047E+02  0.37356430878E+02  0.10000000000E+01 0.  1.
    1000022    2    1    0    0    0 -0.24310306688E+02  0.15302796036E+02  0.54599294236E+02  0.62500003850E+02  0.10000048617E+02 0.  0.
    3000022    2    3    3    0    0 -0.65523461814E+01  0.31917377491E+01  0.24062758189E+02  0.25143572972E+02  0.24999956633E+00 0.  0.
    1000022    2    1    0    0    0  0.24310306688E+02 -0.15302796036E+02 -0.54599294236E+02  0.62499996150E+02  0.10000000497E+02 0.  0.
    3000022    2    5    5    0    0  0.30969640681E+01 -0.35432487575E+01 -0.17813660383E+02  0.18426469910E+02  0.24999780183E+00 0.  0.
        -13    1    4    4    0    0 -0.25239306236E+01  0.12937676259E+01  0.94411018679E+01  0.98584730026E+01  0.10500000000E+00 0.  1.
         13    1    4    4    0    0 -0.40284155579E+01  0.18979701232E+01  0.14621656321E+02  0.15285099969E+02  0.10500000000E+00 0. -1.
    3000001    1    5    5    0    0  0.21213342620E+02 -0.11759547278E+02 -0.36785633853E+02  0.44073526240E+02  0.10000000000E+01 0.  1.
        -13    1    6    6    0    0  0.98609369291E+00 -0.10689790456E+01 -0.54017936713E+01  0.55951315300E+01  0.10500000000E+00 0. -1.
         13    1    6    6    0    0  0.21108703752E+01 -0.24742697119E+01 -0.12411866712E+02  0.12831338380E+02  0.10500000000E+00 0.  1.
</event>
<event>
11    0  0.3482687E-009  0.9118800E+02  0.7816531E-02  0.1126479E+00
         25   -1    0    0    0    0  0.00000000000E+00  0.00000000000E+00  0.99999998245E-14  0.12500000000E+03  0.12500000000E+03 0.  0.
    3000001    1    3    3    0    0  0.26299458238E+02  0.54222129316E+01  0.97806148978E+00  0.26889003347E+02  0.10000000000E+01 0.  1.
    1000022    2    1    0    0    0  0.58333828030E+02  0.15360706507E+02  0.12940757512E+02  0.62500000238E+02  0.10000001386E+02 0.  0.
    3000022    2    3    3    0    0  0.32034369792E+02  0.99384935755E+01  0.11962696022E+02  0.35610996891E+02  0.25000192983E+00 0.  0.
    1000022    2    1    0    0    0 -0.58333828030E+02 -0.15360706507E+02 -0.12940757512E+02  0.62499999762E+02  0.99999984082E+01 0.  0.
    3000022    2    5    5    0    0 -0.52531056065E+01  0.58617617827E+00 -0.32949169492E+01  0.62335941489E+01  0.24999457411E+00 0.  0.
        -13    1    4    4    0    0  0.21035488844E+02  0.65791953145E+01  0.78843642706E+01  0.23408370871E+02  0.10500000000E+00 0. -1.
         13    1    4    4    0    0  0.10998880949E+02  0.33592982610E+01  0.40783317511E+01  0.12202626021E+02  0.10500000000E+00 0.  1.
    3000001    1    5    5    0    0 -0.53080722424E+02 -0.15946882685E+02 -0.96458405624E+01  0.56266405613E+02  0.10000000000E+01 0.  1.
        -13    1    6    6    0    0 -0.28711635592E+01  0.27247263150E+00 -0.17419517820E+01  0.33709408968E+01  0.10500000000E+00 0. -1.
         13    1    6    6    0    0 -0.23819420472E+01  0.31370354677E+00 -0.15529651672E+01  0.28626532521E+01  0.10500000000E+00 0.  1.
</event>
<event>
11    0  0.3482687E-009  0.9118800E+02  0.7816531E-02  0.1126479E+00
         25   -1    0    0    0    0  0.00000000000E+00  0.00000000000E+00  0.99999998245E-14  0.12500000000E+03  0.12500000000E+03 0.  0.
    3000001    1    3    3    0    0  0.19328553202E+02 -0.55939579892E+00  0.62336819839E+01  0.20341206543E+02  0.10000000000E+01 0. -1.
    1000022    2    1    0    0    0  0.60520468342E+02 -0.94639631089E+01  0.73454851431E+01  0.62500000001E+02  0.10000008105E+02 0.  0.
    3000022    2    3    3    0    0  0.41191915140E+02 -0.89045673100E+01  0.11118031592E+01  0.42158793458E+02  0.25013539727E+00 0.  0.
    1000022    2    1    0    0    0 -0.60520468342E+02  0.94639631089E+01 -0.73454851431E+01  0.62499999999E+02  0.10000008094E+02 0.  0.
    3000022    2    5    5    0    0 -0.10244728199E+02  0.34236313551E+01  0.20266754118E+01  0.10992980593E+02  0.25000315106E+00 0.  0.
        -13    1    4    4    0    0  0.28604729281E+02 -0.61955030191E+01  0.72612762754E+00  0.29277176797E+02  0.10500000000E+00 0.  1.
         13    1    4    4    0    0  0.12587185859E+02 -0.27090642909E+01  0.38567553165E+00  0.12881616661E+02  0.10500000000E+00 0. -1.
    3000001    1    5    5    0    0 -0.50275740143E+02  0.60403317538E+01 -0.93721605550E+01  0.51507019406E+02  0.10000000000E+01 0.  1.
        -13    1    6    6    0    0 -0.63239444155E+01  0.21514719040E+01  0.12031448388E+01  0.67882020320E+01  0.10500000000E+00 0. -1.
         13    1    6    6    0    0 -0.39207837832E+01  0.12721594511E+01  0.82353057302E+00  0.42047785611E+01  0.10500000000E+00 0.  1.
</event>
<event>
11    0  0.3482687E-009  0.9118800E+02  0.7816531E-02  0.1126479E+00
         25   -1    0    0    0    0  0.00000000000E+00  0.00000000000E+00  0.99999998245E-14  0.12500000000E+03  0.12500000000E+03 0.  0.
    3000001    1    3    3    0    0  0.25186274413E+02 -0.12184454051E+02  0.16632439802E+02  0.32564511252E+02  0.10000000000E+01 0.  1.
    1000022    2    1    0    0    0  0.43048076478E+02 -0.20391969941E+02  0.39208171273E+02  0.62499999269E+02  0.99999943728E+01 0.  0.
    3000022    2    3    3    0    0  0.17861802065E+02 -0.82075158899E+01  0.22575731471E+02  0.29935488017E+02  0.25000244856E+00 0.  0.
    1000022    2    1    0    0    0 -0.43048076478E+02  0.20391969941E+02 -0.39208171273E+02  0.62500000731E+02  0.10000003511E+02 0.  0.
    3000022    2    5    5    0    0 -0.10669651612E+02  0.13182614177E+01 -0.11879922935E+02  0.16024180019E+02  0.24999526920E+00 0.  0.
        -13    1    4    4    0    0  0.40933679060E+01 -0.18808624548E+01  0.51684209988E+01  0.68568874140E+01  0.10500000000E+00 0. -1.
         13    1    4    4    0    0  0.13768434159E+02 -0.63266534351E+01  0.17407310473E+02  0.23078600603E+02  0.10500000000E+00 0.  1.
    3000001    1    5    5    0    0 -0.32378424866E+02  0.19073708524E+02 -0.27328248338E+02  0.46475820712E+02  0.10000000000E+01 0. -1.
        -13    1    6    6    0    0 -0.29443794000E+01  0.32547943877E+00 -0.32784265940E+01  0.44197752034E+01  0.10500000000E+00 0. -1.
         13    1    6    6    0    0 -0.77252722118E+01  0.99278197893E+00 -0.86014963413E+01  0.11604404815E+02  0.10500000000E+00 0.  1.
</event>
<event>
11    0  0.3482687E-009  0.9118800E+02  0.7816531E-02  0.1126479E+00
         25   -1    0    0    0    0  0.00000000000E+00  0.00000000000E+00  0.99999998245E-14  0.12500000000E+03  0.12500000000E+03 0.  0.
    3000001    1    3    3    0    0 -0.39838991060E+02 -0.42957140682E+02  0.18951159735E+01  0.58626381508E+02  0.10000000000E+01 0. -1.
    1000022    2    1    0    0    0 -0.40647222057E+02 -0.46261586110E+02  0.37308213555E+01  0.62499999693E+02  0.99999961665E+01 0.  0.
    3000022    2    3    3    0    0 -0.80823099733E+00 -0.33044454281E+01  0.18357053820E+01  0.38736181850E+01  0.25001332309E+00 0.  0.
    1000022    2    1    0    0    0  0.40647222057E+02  0.46261586110E+02 -0.37308213555E+01  0.62500000307E+02  0.99999999979E+01 0.  0.
    3000022    2    5    5    0    0  0.35276815298E+02  0.37397366157E+02 -0.62441033090E+01  0.51788686180E+02  0.24999418931E+00 0.  0.
        -13    1    4    4    0    0 -0.39114863633E+00 -0.15828296717E+01  0.95670521320E+00  0.18933190144E+01  0.10500000000E+00 0.  1.
         13    1    4    4    0    0 -0.41708236100E+00 -0.17216157563E+01  0.87900016875E+00  0.19802991706E+01  0.10500000000E+00 0. -1.
    3000001    1    5    5    0    0  0.53704067591E+01  0.88642199532E+01  0.25132819535E+01  0.10711314126E+02  0.10000000000E+01 0.  1.
        -13    1    6    6    0    0  0.19651958729E+02  0.20880171262E+02 -0.34242410066E+01  0.28877629496E+02  0.10500000000E+00 0.  1.
         13    1    6    6    0    0  0.15624856568E+02  0.16517194895E+02 -0.28198623024E+01  0.22911056684E+02  0.10500000000E+00 0. -1.
</event>
<event>
11    0  0.3482687E-009  0.9118800E+02  0.7816531E-02  0.1126479E+00
         25   -1    0    0    0    0  0.00000000000E+00  0.00000000000E+00  0.99999998245E-14  0.12500000000E+03  0.12500000000E+03 0.  0.
    3000001    1    3    3    0    0 -0.10908996069E+02 -0.96702601804E+01  0.93707844851E+01  0.17358909213E+02  0.10000000000E+01 0.  1.
    1000022    2    1    0    0    0 -0.38278137026E+02 -0.22066241058E+02  0.43059435726E+02  0.62499998432E+02  0.10000001518E+02 0.  0.
    3000022    2    3    3    0    0 -0.27369140956E+02 -0.12395980878E+02  0.33688651241E+02  0.45141089219E+02  0.24998966385E+00 0.  0.
    1000022    2    1    0    0    0  0.38278137026E+02  0.22066241058E+02 -0.43059435726E+02  0.62500001568E+02  0.10000021115E+02 0.  0.
    3000022    2    5    5    0    0  0.24571993270E+02  0.17774152901E+02 -0.24355955186E+02  0.38897023330E+02  0.25001250754E+00 0.  0.
        -13    1    4    4    0    0 -0.20632092421E+02 -0.93574359928E+01  0.25370166100E+02  0.34013250344E+02  0.10500000000E+00 0. -1.
         13    1    4    4    0    0 -0.67370485357E+01 -0.30385448853E+01  0.83184851408E+01  0.11127838875E+02  0.10500000000E+00 0.  1.
    3000001    1    5    5    0    0  0.13706143756E+02  0.42920881573E+01 -0.18703480540E+02  0.23602978238E+02  0.10000000000E+01 0.  1.
        -13    1    6    6    0    0  0.16467921271E+02  0.11852397686E+02 -0.16322802681E+02  0.26040673460E+02  0.10500000000E+00 0.  1.
         13    1    6    6    0    0  0.81040719992E+01  0.59217552149E+01 -0.80331525048E+01  0.12856349869E+02  0.10500000000E+00 0. -1.
</event>
<event>
11    0  0.3482687E-009  0.9118800E+02  0.7816531E-02  0.1126479E+00
         25   -1    0    0    0    0  0.00000000000E+00  0.00000000000E+00  0.99999998245E-14  0.12500000000E+03  0.12500000000E+03 0.  0.
    3000001    1    3    3    0    0  0.16539775137E+02 -0.64106779959E+01 -0.39017974254E+02  0.42872640096E+02  0.10000000000E+01 0. -1.
    1000022    2    1    0    0    0  0.29718937289E+02 -0.79210994134E+01 -0.53481688995E+02  0.62499999346E+02  0.99999905493E+01 0.  0.
    3000022    2    3    3    0    0  0.13179162153E+02 -0.15104214174E+01 -0.14463714741E+02  0.19627359250E+02  0.24999821612E+00 0.  0.
    1000022    2    1    0    0    0 -0.29718937289E+02  0.79210994134E+01  0.53481688995E+02  0.62500000654E+02  0.99999987196E+01 0.  0.
    3000022    2    5    5    0    0 -0.26984474001E+01  0.15780462694E+01  0.13230269151E+02  0.13596851506E+02  0.25000135527E+00 0.  0.
        -13    1    4    4    0    0  0.41903745500E+01 -0.47996482405E+00 -0.45253080903E+01  0.61870060137E+01  0.10500000000E+00 0. -1.
         13    1    4    4    0    0  0.89887876028E+01 -0.10304565934E+01 -0.99384066506E+01  0.13440353236E+02  0.10500000000E+00 0.  1.
    3000001    1    5    5    0    0 -0.27020489889E+02  0.63430531439E+01  0.40251419844E+02  0.48903149147E+02  0.10000000000E+01 0. -1.
        -13    1    6    6    0    0 -0.91040740185E+00  0.57230074876E+00  0.47509839962E+01  0.48722934760E+01  0.10500000000E+00 0. -1.
         13    1    6    6    0    0 -0.17880399982E+01  0.10057455207E+01  0.84792851548E+01  0.87245580303E+01  0.10500000000E+00 0.  1.
</event>
<event>
11    0  0.3482687E-009  0.9118800E+02  0.7816531E-02  0.1126479E+00
         25   -1    0    0    0    0  0.00000000000E+00  0.00000000000E+00  0.99999998245E-14  0.12500000000E+03  0.12500000000E+03 0.  0.
    3000001    1    3    3    0    0  0.15712943759E+02  0.66794047387E+01 -0.18257371258E+02  0.25016847413E+02  0.10000000000E+01 0. -1.
    1000022    2    1    0    0    0  0.29684194438E+02  0.23336920143E+02 -0.48790231455E+02  0.62500000032E+02  0.10000003869E+02 0.  0.
    3000022    2    3    3    0    0  0.13971250679E+02  0.16657515404E+02 -0.30532860197E+02  0.37483152619E+02  0.25002693167E+00 0.  0.
    1000022    2    1    0    0    0 -0.29684194438E+02 -0.23336920143E+02  0.48790231455E+02  0.62499999968E+02  0.10000003466E+02 0.  0.
    3000022    2    5    5    0    0 -0.26017843232E+02 -0.19587933225E+02  0.35490970297E+02  0.48169355131E+02  0.25001334000E+00 0.  0.
        -13    1    4    4    0    0  0.95608400952E+01  0.11459651893E+02 -0.20906513347E+02  0.25687090340E+02  0.10500000000E+00 0.  1.
         13    1    4    4    0    0  0.44104105836E+01  0.51978635113E+01 -0.96263468505E+01  0.11796062279E+02  0.10500000000E+00 0. -1.
    3000001    1    5    5    0    0 -0.36663512060E+01 -0.37489869182E+01  0.13299261158E+02  0.14330644836E+02  0.10000000000E+01 0. -1.
        -13    1    6    6    0    0 -0.16990475081E+02 -0.12853837027E+02  0.23254622538E+02  0.31538640811E+02  0.10500000000E+00 0.  1.
         13    1    6    6    0    0 -0.90273681507E+01 -0.67340961981E+01  0.12236347759E+02  0.16630714321E+02  0.10500000000E+00 0. -1.
</event>
<event>
11    0  0.3482687E-009  0.9118800E+02  0.7816531E-02  0.1126479E+00
         25   -1    0    0    0    0  0.00000000000E+00  0.00000000000E+00  0.99999998245E-14  0.12500000000E+03  0.12500000000E+03 0.  0.
    3000001    1    3    3    0    0 -0.39985008483E+01  0.91921024398E+01 -0.27288425022E+02  0.29088501104E+02  0.10000000000E+01 0.  1.
    1000022    2    1    0    0    0 -0.56163012284E+01  0.97843612603E+01 -0.60654541085E+02  0.62499999768E+02  0.10000002595E+02 0.  0.
    3000022    2    3    3    0    0 -0.16178003801E+01  0.59225882047E+00 -0.33366116063E+02  0.33411498663E+02  0.24998641911E+00 0.  0.
    1000022    2    1    0    0    0  0.56163012284E+01 -0.97843612603E+01  0.60654541085E+02  0.62500000232E+02  0.10000005501E+02 0.  0.
    3000022    2    5    5    0    0  0.52334707710E+01 -0.11118749386E+02  0.58345791468E+02  0.59626417864E+02  0.25004213282E+00 0.  0.
        -13    1    4    4    0    0 -0.41532661843E+00  0.13805535432E+00 -0.81270962801E+01  0.81395500138E+01  0.10500000000E+00 0. -1.
         13    1    4    4    0    0 -0.12024737617E+01  0.45420346615E+00 -0.25239019783E+02  0.25271948650E+02  0.10500000000E+00 0.  1.
    3000001    1    5    5    0    0  0.38283045745E+00  0.13343881262E+01  0.23087496173E+01  0.28735823680E+01  0.10000000000E+01 0.  1.
        -13    1    6    6    0    0  0.40224211208E+01 -0.85243534456E+01  0.44785050049E+02  0.45766321747E+02  0.10500000000E+00 0. -1.
         13    1    6    6    0    0  0.12110496501E+01 -0.25943959408E+01  0.13560741419E+02  0.13860096117E+02  0.10500000000E+00 0.  1.
</event>
<event>
11    0  0.3482687E-009  0.9118800E+02  0.7816531E-02  0.1126479E+00
         25   -1    0    0    0    0  0.00000000000E+00  0.00000000000E+00  0.99999998245E-14  0.12500000000E+03  0.12500000000E+03 0.  0.
    3000001    1    3    3    0    0 -0.10608761930E+00  0.22921724968E+01 -0.88286896683E+00  0.26541979863E+01  0.10000000000E+01 0. -1.
    1000022    2    1    0    0    0  0.35336593611E+02  0.40140060094E+02 -0.30762814052E+02  0.62499998724E+02  0.99999919879E+01 0.  0.
    3000022    2    3    3    0    0  0.35442681230E+02  0.37847887597E+02 -0.29879945086E+02  0.59845800738E+02  0.24999861961E+00 0.  0.
    1000022    2    1    0    0    0 -0.35336593611E+02 -0.40140060094E+02  0.30762814052E+02  0.62500001276E+02  0.10000007932E+02 0.  0.
    3000022    2    5    5    0    0 -0.24844500294E+02 -0.32466839586E+02  0.26761075041E+02  0.48862690315E+02  0.24999968811E+00 0.  0.
        -13    1    4    4    0    0  0.16189038020E+02  0.17231048656E+02 -0.13561365420E+02  0.27256478989E+02  0.10500000000E+00 0. -1.
         13    1    4    4    0    0  0.19253643210E+02  0.20616838941E+02 -0.16318579665E+02  0.32589321749E+02  0.10500000000E+00 0.  1.
    3000001    1    5    5    0    0 -0.10492093317E+02 -0.76732205076E+01  0.40017390111E+01  0.13637310961E+02  0.10000000000E+01 0.  1.
        -13    1    6    6    0    0 -0.18669153919E+02 -0.24359007779E+02  0.20103644323E+02  0.36688773597E+02  0.10500000000E+00 0. -1.
         13    1    6    6    0    0 -0.61753463756E+01 -0.81078318077E+01  0.66574307185E+01  0.12173916718E+02  0.10500000000E+00 0.  1.
</event>
<event>
11    0  0.3482687E-009  0.9118800E+02  0.7816531E-02  0.1126479E+00
         25   -1    0    0    0    0  0.00000000000E+00  0.00000000000E+00  0.99999998245E-14  0.12500000000E+03  0.12500000000E+03 0.  0.
    3000001    1    3    3    0    0  0.10500603301E+02  0.11980892788E+02 -0.73782510723E+01  0.17585307804E+02  0.10000000000E+01 0. -1.
    1000022    2    1    0    0    0  0.46143211562E+02  0.38519223166E+02 -0.13904084584E+02  0.62499976942E+02  0.99998511529E+01 0.  0.
    3000022    2    3    3    0    0  0.35642608261E+02  0.26538330378E+02 -0.65258335120E+01  0.44914669138E+02  0.24999569581E+00 0.  0.
    1000022    2    1    0    0    0 -0.46143211562E+02 -0.38519223166E+02  0.13904084584E+02  0.62500023058E+02  0.10000139374E+02 0.  0.
    3000022    2    5    5    0    0 -0.35486036792E+02 -0.30569586247E+02  0.66106505019E+01  0.47302448187E+02  0.24998787963E+00 0.  0.
        -13    1    4    4    0    0  0.22514227338E+02  0.16777990073E+02 -0.40646840630E+01  0.28371183709E+02  0.10500000000E+00 0.  1.
         13    1    4    4    0    0  0.13128380924E+02  0.97603403056E+01 -0.24611494490E+01  0.16543485430E+02  0.10500000000E+00 0. -1.
    3000001    1    5    5    0    0 -0.10657174770E+02 -0.79496369193E+01  0.72934340825E+01  0.15197574871E+02  0.10000000000E+01 0.  1.
        -13    1    6    6    0    0 -0.12277525813E+02 -0.10650422762E+02  0.22929860655E+01  0.16414565336E+02  0.10500000000E+00 0. -1.
         13    1    6    6    0    0 -0.23208510979E+02 -0.19919163485E+02  0.43176644363E+01  0.30887882851E+02  0.10500000000E+00 0.  1.
</event>
<event>
11    0  0.3482687E-009  0.9118800E+02  0.7816531E-02  0.1126479E+00
         25   -1    0    0    0    0  0.00000000000E+00  0.00000000000E+00  0.99999998245E-14  0.12500000000E+03  0.12500000000E+03 0.  0.
    3000001    1    3    3    0    0  0.68188638899E+01  0.36335970969E+02  0.21516832978E+02  0.42787542491E+02  0.10000000000E+01 0.  1.
    1000022    2    1    0    0    0  0.86251012705E+01  0.48936269200E+02  0.36566366670E+02  0.62499999804E+02  0.99999994427E+01 0.  0.
    3000022    2    3    3    0    0  0.18062373806E+01  0.12600298231E+02  0.15049533692E+02  0.19712457313E+02  0.24999993653E+00 0.  0.
    1000022    2    1    0    0    0 -0.86251012705E+01 -0.48936269200E+02 -0.36566366670E+02  0.62500000196E+02  0.10000001896E+02 0.  0.
    3000022    2    5    5    0    0 -0.51791298981E+00 -0.70472231600E+01 -0.99359056865E+01  0.12194929555E+02  0.24999383855E+00 0.  0.
        -13    1    4    4    0    0  0.12855640934E+01  0.91417372612E+01  0.10957641435E+02  0.14328466980E+02  0.10500000000E+00 0.  1.
         13    1    4    4    0    0  0.52067328716E+00  0.34585609698E+01  0.40918922572E+01  0.53839903323E+01  0.10500000000E+00 0. -1.
    3000001    1    5    5    0    0 -0.81071882807E+01 -0.41889046040E+02 -0.26630460984E+02  0.50305070641E+02  0.10000000000E+01 0. -1.
        -13    1    6    6    0    0 -0.29930486941E+00 -0.33193265091E+01 -0.47527960450E+01  0.58058252750E+01  0.10500000000E+00 0.  1.
         13    1    6    6    0    0 -0.21860812039E+00 -0.37278966509E+01 -0.51831096414E+01  0.63891042804E+01  0.10500000000E+00 0. -1.
</event>
<event>
11    0  0.3482687E-009  0.9118800E+02  0.7816531E-02  0.1126479E+00
         25   -1    0    0    0    0  0.00000000000E+00  0.00000000000E+00  0.99999998245E-14  0.12500000000E+03  0.12500000000E+03 0.  0.
    3000001    1    3    3    0    0  0.36399504527E+01  0.10941194821E+02  0.66408816531E+01  0.13343923432E+02  0.10000000000E+01 0.  1.
    1000022    2    1    0    0    0  0.24786978497E+02  0.54633963615E+02  0.14387004384E+02  0.62499999046E+02  0.99999851132E+01 0.  0.
    3000022    2    3    3    0    0  0.21147028045E+02  0.43692768794E+02  0.77461227308E+01  0.49156075614E+02  0.25002490025E+00 0.  0.
    1000022    2    1    0    0    0 -0.24786978497E+02 -0.54633963615E+02 -0.14387004384E+02  0.62500000954E+02  0.99999970419E+01 0.  0.
    3000022    2    5    5    0    0 -0.29605774259E+01 -0.50786021338E+01 -0.45905732438E+01  0.74627799277E+01  0.25000642646E+00 0.  0.
        -13    1    4    4    0    0  0.10314281848E+02  0.21158926973E+02  0.37710692450E+01  0.23839391538E+02  0.10500000000E+00 0.  1.
         13    1    4    4    0    0  0.10832746197E+02  0.22533841821E+02  0.39750534858E+01  0.25316684076E+02  0.10500000000E+00 0. -1.
    3000001    1    5    5    0    0 -0.21826401071E+02 -0.49555361481E+02 -0.97964311401E+01  0.55037221027E+02  0.10000000000E+01 0. -1.
        -13    1    6    6    0    0 -0.16429563744E+01 -0.29012779058E+01 -0.25385466141E+01  0.41918925376E+01  0.10500000000E+00 0.  1.
         13    1    6    6    0    0 -0.13176210515E+01 -0.21773242280E+01 -0.20520266297E+01  0.32708873900E+01  0.10500000000E+00 0. -1.
</event>
<event>
11    0  0.3482687E-009  0.9118800E+02  0.7816531E-02  0.1126479E+00
         25   -1    0    0    0    0  0.00000000000E+00  0.00000000000E+00  0.99999998245E-14  0.12500000000E+03  0.12500000000E+03 0.  0.
    3000001    1    3    3    0    0  0.35390092855E+02  0.90860721784E+00  0.25814446954E+02  0.43825448211E+02  0.10000000000E+01 0.  1.
    1000022    2    1    0    0    0  0.46169168566E+02 -0.12935046210E+01  0.40902140027E+02  0.62499996618E+02  0.99999619098E+01 0.  0.
    3000022    2    3    3    0    0  0.10779075711E+02 -0.22021118388E+01  0.15087693073E+02  0.18674548407E+02  0.25001241182E+00 0.  0.
    1000022    2    1    0    0    0 -0.46169168566E+02  0.12935046210E+01 -0.40902140027E+02  0.62500003382E+02  0.10000004186E+02 0.  0.
    3000022    2    5    5    0    0 -0.40806246084E+02  0.38563485267E+01 -0.37625519031E+02  0.55639584183E+02  0.25000467902E+00 0.  0.
        -13    1    4    4    0    0  0.53688435106E+01 -0.10829601001E+01  0.76238681434E+01  0.93878471274E+01  0.10500000000E+00 0.  1.
         13    1    4    4    0    0  0.54102322004E+01 -0.11191517387E+01  0.74638249298E+01  0.92867012797E+01  0.10500000000E+00 0. -1.
    3000001    1    5    5    0    0 -0.53629224817E+01 -0.25628439057E+01 -0.32766209962E+01  0.68604191987E+01  0.10000000000E+01 0. -1.
        -13    1    6    6    0    0 -0.17885015852E+02  0.17553260783E+01 -0.16479454973E+02  0.24383158591E+02  0.10500000000E+00 0. -1.
         13    1    6    6    0    0 -0.22921230232E+02  0.21010224484E+01 -0.21146064058E+02  0.31256425592E+02  0.10500000000E+00 0.  1.
</event>
<event>
11    0  0.3482687E-009  0.9118800E+02  0.7816531E-02  0.1126479E+00
         25   -1    0    0    0    0  0.00000000000E+00  0.00000000000E+00  0.99999998245E-14  0.12500000000E+03  0.12500000000E+03 0.  0.
    3000001    1    3    3    0    0 -0.67922825958E+01 -0.59816847767E+01  0.10504522795E+02  0.13901821995E+02  0.10000000000E+01 0.  1.
    1000022    2    1    0    0    0 -0.38533702236E+02 -0.10473208028E+02  0.47028882552E+02  0.62499999567E+02  0.99999928692E+01 0.  0.
    3000022    2    3    3    0    0 -0.31741419640E+02 -0.44915232513E+01  0.36524359757E+02  0.48598177572E+02  0.25001155469E+00 0.  0.
    1000022    2    1    0    0    0  0.38533702236E+02  0.10473208028E+02 -0.47028882552E+02  0.62500000433E+02  0.99999982842E+01 0.  0.
    3000022    2    5    5    0    0  0.30193479143E+02  0.10590263716E+02 -0.41659949932E+02  0.52530122763E+02  0.25000172051E+00 0.  0.
        -13    1    4    4    0    0 -0.14160422991E+02 -0.20708462325E+01  0.16300609689E+02  0.21691631673E+02  0.10500000000E+00 0.  1.
         13    1    4    4    0    0 -0.17580996649E+02 -0.24206770187E+01  0.20223750067E+02  0.26906545898E+02  0.10500000000E+00 0. -1.
    3000001    1    5    5    0    0  0.83402230936E+01 -0.11705568779E+00 -0.53689326194E+01  0.99698776701E+01  0.10000000000E+01 0.  1.
        -13    1    6    6    0    0  0.87616843838E+01  0.31183418451E+01 -0.12098559489E+02  0.15260318994E+02  0.10500000000E+00 0. -1.
         13    1    6    6    0    0  0.21431794759E+02  0.74719218707E+01 -0.29561390443E+02  0.37269803769E+02  0.10500000000E+00 0.  1.
</event>
<event>
11    0  0.3482687E-009  0.9118800E+02  0.7816531E-02  0.1126479E+00
         25   -1    0    0    0    0  0.00000000000E+00  0.00000000000E+00  0.99999998245E-14  0.12500000000E+03  0.12500000000E+03 0.  0.
    3000001    1    3    3    0    0 -0.20807290846E+02 -0.16053004150E+01 -0.59031676644E+01  0.21711004819E+02  0.10000000000E+01 0.  1.
    1000022    2    1    0    0    0 -0.55531153460E+02 -0.16742427283E+02 -0.21029320374E+02  0.62500001414E+02  0.99999992745E+01 0.  0.
    3000022    2    3    3    0    0 -0.34723862614E+02 -0.15137126868E+02 -0.15126152710E+02  0.40788996595E+02  0.25000564339E+00 0.  0.
    1000022    2    1    0    0    0  0.55531153460E+02  0.16742427283E+02  0.21029320374E+02  0.62499998586E+02  0.99999815955E+01 0.  0.
    3000022    2    5    5    0    0  0.49445219799E+02  0.11837515070E+02  0.19606043996E+02  0.54492347995E+02  0.25000950625E+00 0.  0.
        -13    1    4    4    0    0 -0.11625341183E+02 -0.51150268653E+01 -0.51063861345E+01  0.13689348480E+02  0.10500000000E+00 0. -1.
         13    1    4    4    0    0 -0.23098521431E+02 -0.10022100003E+02 -0.10019766575E+02  0.27099648116E+02  0.10500000000E+00 0.  1.
    3000001    1    5    5    0    0  0.60859336603E+01  0.49049122134E+01  0.14232763778E+01  0.80076505909E+01  0.10000000000E+01 0.  1.
        -13    1    6    6    0    0  0.21174827423E+02  0.50339286784E+01  0.84526643353E+01  0.23348925322E+02  0.10500000000E+00 0.  1.
         13    1    6    6    0    0  0.28270392376E+02  0.68035863911E+01  0.11153379661E+02  0.31143422672E+02  0.10500000000E+00 0. -1.
</event>
<event>
11    0  0.3482687E-009  0.9118800E+02  0.7816531E-02  0.1126479E+00
         25   -1    0    0    0    0  0.00000000000E+00  0.00000000000E+00  0.99999998245E-14  0.12500000000E+03  0.12500000000E+03 0.  0.
    3000001    1    3    3    0    0 -0.97456979055E+01 -0.32499549285E+01 -0.99064210967E+01  0.14306572393E+02  0.10000000000E+01 0.  1.
    1000022    2    1    0    0    0 -0.35955950471E+02 -0.30503366653E+02 -0.39786482991E+02  0.62499999224E+02  0.99999961362E+01 0.  0.
    3000022    2    3    3    0    0 -0.26210252565E+02 -0.27253411725E+02 -0.29880061895E+02  0.48193426831E+02  0.25000131973E+00 0.  0.
    1000022    2    1    0    0    0  0.35955950471E+02  0.30503366653E+02  0.39786482991E+02  0.62500000776E+02  0.10000005834E+02 0.  0.
    3000022    2    5    5    0    0  0.72554926503E+01  0.16587017534E+01  0.72188736815E+01  0.10371504265E+02  0.24999676878E+00 0.  0.
        -13    1    4    4    0    0 -0.90772220643E+01 -0.95088644408E+01 -0.10353069508E+02  0.16733545249E+02  0.10500000000E+00 0.  1.
         13    1    4    4    0    0 -0.17133030501E+02 -0.17744547284E+02 -0.19526992387E+02  0.31459881582E+02  0.10500000000E+00 0. -1.
    3000001    1    5    5    0    0  0.28700457821E+02  0.28844664900E+02  0.32567609310E+02  0.52128496511E+02  0.10000000000E+01 0. -1.
        -13    1    6    6    0    0  0.43269171155E+01  0.94788899664E+00  0.43637994462E+01  0.62188805971E+01  0.10500000000E+00 0. -1.
         13    1    6    6    0    0  0.29285755348E+01  0.71081275675E+00  0.28550742353E+01  0.41526236679E+01  0.10500000000E+00 0.  1.
</event>
<event>
11    0  0.3482687E-009  0.9118800E+02  0.7816531E-02  0.1126479E+00
         25   -1    0    0    0    0  0.00000000000E+00  0.00000000000E+00  0.99999998245E-14  0.12500000000E+03  0.12500000000E+03 0.  0.
    3000001    1    3    3    0    0 -0.51938776353E+01 -0.30068203366E+01  0.20589499719E+01  0.64231307330E+01  0.10000000000E+01 0.  1.
    1000022    2    1    0    0    0 -0.29596498008E+02 -0.44316063884E+02  0.31086716600E+02  0.62499999571E+02  0.99999892466E+01 0.  0.
    3000022    2    3    3    0    0 -0.24402620372E+02 -0.41309243547E+02  0.29027766628E+02  0.56076868838E+02  0.24999953996E+00 0.  0.
    1000022    2    1    0    0    0  0.29596498008E+02  0.44316063884E+02 -0.31086716600E+02  0.62500000429E+02  0.99999946068E+01 0.  0.
    3000022    2    5    5    0    0  0.17138784298E+02  0.16991114801E+02 -0.12685202410E+02  0.27265596819E+02  0.25000061831E+00 0.  0.
        -13    1    4    4    0    0 -0.11803646217E+02 -0.19854216467E+02  0.13951483071E+02  0.26984641565E+02  0.10500000000E+00 0.  1.
         13    1    4    4    0    0 -0.12598974155E+02 -0.21455027081E+02  0.15076283557E+02  0.29092227273E+02  0.10500000000E+00 0. -1.
    3000001    1    5    5    0    0  0.12457713709E+02  0.27324949083E+02 -0.18401514190E+02  0.35234403610E+02  0.10000000000E+01 0. -1.
        -13    1    6    6    0    0  0.12719016048E+02  0.12647579444E+02 -0.94423923285E+01  0.20270777807E+02  0.10500000000E+00 0. -1.
         13    1    6    6    0    0  0.44197682503E+01  0.43435353578E+01 -0.32428100815E+01  0.69948190123E+01  0.10500000000E+00 0.  1.
</event>
<event>
11    0  0.3482687E-009  0.9118800E+02  0.7816531E-02  0.1126479E+00
         25   -1    0    0    0    0  0.00000000000E+00  0.00000000000E+00  0.99999998245E-14  0.12500000000E+03  0.12500000000E+03 0.  0.
    3000001    1    3    3    0    0  0.48887085761E+01  0.51254247330E+02 -0.23058815627E+02  0.56423455398E+02  0.10000000000E+01 0.  1.
    1000022    2    1    0    0    0  0.34960870502E+01  0.55088085150E+02 -0.27555937068E+02  0.62499992954E+02  0.99999850688E+01 0.  0.
    3000022    2    3    3    0    0 -0.13926215259E+01  0.38338378203E+01 -0.44971214411E+01  0.60765375563E+01  0.25000054191E+00 0.  0.
    1000022    2    1    0    0    0 -0.34960870502E+01 -0.55088085150E+02  0.27555937068E+02  0.62500007046E+02  0.10000073139E+02 0.  0.
    3000022    2    5    5    0    0 -0.27056105787E+01 -0.28466064718E+02  0.19662380322E+02  0.34703153571E+02  0.24999750057E+00 0.  0.
        -13    1    4    4    0    0 -0.33275175437E+00  0.90339246452E+00 -0.10427111710E+01  0.14230647424E+01  0.10500000000E+00 0.  1.
         13    1    4    4    0    0 -0.10598697715E+01  0.29304453558E+01 -0.34544102701E+01  0.46534728139E+01  0.10500000000E+00 0. -1.
    3000001    1    5    5    0    0 -0.79047647145E+00 -0.26622020432E+02  0.78935567468E+01  0.27796853474E+02  0.10000000000E+01 0. -1.
        -13    1    6    6    0    0 -0.16482980920E+01 -0.17353359036E+02  0.11910981321E+02  0.21112518975E+02  0.10500000000E+00 0.  1.
         13    1    6    6    0    0 -0.10573124867E+01 -0.11112705682E+02  0.77513990010E+01  0.13590634597E+02  0.10500000000E+00 0. -1.
</event>
<event>
11    0  0.3482687E-009  0.9118800E+02  0.7816531E-02  0.1126479E+00
         25   -1    0    0    0    0  0.00000000000E+00  0.00000000000E+00  0.99999998245E-14  0.12500000000E+03  0.12500000000E+03 0.  0.
    3000001    1    3    3    0    0  0.24802081616E+01  0.21144098034E+02  0.49907213864E+02  0.54267433235E+02  0.10000000000E+01 0. -1.
    1000022    2    1    0    0    0 -0.35156089939E-01  0.26295838564E+02  0.55810193137E+02  0.62499999637E+02  0.99999967450E+01 0.  0.
    3000022    2    3    3    0    0 -0.25153642515E+01  0.51517405298E+01  0.59029792732E+01  0.82325664026E+01  0.24999493792E+00 0.  0.
    1000022    2    1    0    0    0  0.35156089939E-01 -0.26295838564E+02 -0.55810193137E+02  0.62500000363E+02  0.10000001279E+02 0.  0.
    3000022    2    5    5    0    0  0.37056147229E+01 -0.49542038705E+01 -0.16249055418E+02  0.17388790497E+02  0.25003295835E+00 0.  0.
        -13    1    4    4    0    0 -0.63041335727E+00  0.13380285618E+01  0.14927247717E+01  0.21040422232E+01  0.10500000000E+00 0. -1.
         13    1    4    4    0    0 -0.18849508943E+01  0.38137119680E+01  0.44102545015E+01  0.61285241794E+01  0.10500000000E+00 0.  1.
    3000001    1    5    5    0    0 -0.36704586330E+01 -0.21341634694E+02 -0.39561137719E+02  0.45111209866E+02  0.10000000000E+01 0. -1.
        -13    1    6    6    0    0  0.11663862242E+01 -0.15018021629E+01 -0.50915641495E+01  0.54360755190E+01  0.10500000000E+00 0.  1.
         13    1    6    6    0    0  0.25392284987E+01 -0.34524017076E+01 -0.11157491269E+02  0.11952714977E+02  0.10500000000E+00 0. -1.
</event>
<event>
11    0  0.3482687E-009  0.9118800E+02  0.7816531E-02  0.1126479E+00
         25   -1    0    0    0    0  0.00000000000E+00  0.00000000000E+00  0.99999998245E-14  0.12500000000E+03  0.12500000000E+03 0.  0.
    3000001    1    3    3    0    0  0.76633964795E+01  0.13518326341E+02 -0.19984787653E+02  0.25335045494E+02  0.10000000000E+01 0. -1.
    1000022    2    1    0    0    0  0.70826232124E+01  0.34485762196E+02 -0.50663777550E+02  0.62499996611E+02  0.99999937502E+01 0.  0.
    3000022    2    3    3    0    0 -0.58077326707E+00  0.20967435855E+02 -0.30678989896E+02  0.37164951117E+02  0.25001305653E+00 0.  0.
    1000022    2    1    0    0    0 -0.70826232124E+01 -0.34485762196E+02  0.50663777550E+02  0.62500003389E+02  0.10000036109E+02 0.  0.
    3000022    2    5    5    0    0 -0.48458865247E+01 -0.63425607726E+01  0.77900912232E+01  0.11156106414E+02  0.24999136050E+00 0.  0.
        -13    1    4    4    0    0 -0.32224243569E+00  0.13419572790E+02 -0.19686653226E+02  0.23827801290E+02  0.10500000000E+00 0. -1.
         13    1    4    4    0    0 -0.25853083138E+00  0.75478630650E+01 -0.10992336670E+02  0.13337149827E+02  0.10500000000E+00 0.  1.
    3000001    1    5    5    0    0 -0.22367366877E+01 -0.28143201423E+02  0.42873686327E+02  0.51343896975E+02  0.10000000000E+01 0.  1.
        -13    1    6    6    0    0 -0.28430663065E+01 -0.37756868678E+01  0.46881788767E+01  0.66579939566E+01  0.10500000000E+00 0.  1.
         13    1    6    6    0    0 -0.20028202182E+01 -0.25668739048E+01  0.31019123465E+01  0.44981124569E+01  0.10500000000E+00 0. -1.
</event>
<event>
11    0  0.3482687E-009  0.9118800E+02  0.7816531E-02  0.1126479E+00
         25   -1    0    0    0    0  0.00000000000E+00  0.00000000000E+00  0.99999998245E-14  0.12500000000E+03  0.12500000000E+03 0.  0.
    3000001    1    3    3    0    0 -0.53507976090E+02  0.39293915931E+01  0.10105434138E+01  0.53670893616E+02  0.10000000000E+01 0. -1.
    1000022    2    1    0    0    0 -0.61690039523E+02  0.69123173603E+00  0.33319170266E+00  0.62500001786E+02  0.10000021444E+02 0.  0.
    3000022    2    3    3    0    0 -0.81820634329E+01 -0.32381598571E+01 -0.67735171111E+00  0.88291081701E+01  0.25000891612E+00 0.  0.
    1000022    2    1    0    0    0  0.61690039523E+02 -0.69123173603E+00 -0.33319170266E+00  0.62499998214E+02  0.99999991138E+01 0.  0.
    3000022    2    5    5    0    0  0.58564872043E+02 -0.19247345402E+01 -0.19724124419E+01  0.58630211969E+02  0.25000840804E+00 0.  0.
        -13    1    4    4    0    0 -0.31310286851E+01 -0.12818635254E+01 -0.30740728012E+00  0.33988290573E+01  0.10500000000E+00 0.  1.
         13    1    4    4    0    0 -0.50510347477E+01 -0.19562963317E+01 -0.36994443099E+00  0.54302791127E+01  0.10500000000E+00 0. -1.
    3000001    1    5    5    0    0  0.31251674805E+01  0.12335028041E+01  0.16392207393E+01  0.38697862449E+01  0.10000000000E+01 0.  1.
        -13    1    6    6    0    0  0.23471140893E+02 -0.82294569389E+00 -0.82703381518E+00  0.23500355409E+02  0.10500000000E+00 0.  1.
         13    1    6    6    0    0  0.35093731150E+02 -0.11017888463E+01 -0.11453786268E+01  0.35129856559E+02  0.10500000000E+00 0. -1.
</event>
<event>
11    0  0.3482687E-009  0.9118800E+02  0.7816531E-02  0.1126479E+00
         25   -1    0    0    0    0  0.00000000000E+00  0.00000000000E+00  0.99999998245E-14  0.12500000000E+03  0.12500000000E+03 0.  0.
    3000001    1    3    3    0    0 -0.81998444445E+01  0.39650513742E+02 -0.13843394152E+02  0.42802339312E+02  0.10000000000E+01 0.  1.
    1000022    2    1    0    0    0 -0.12677074119E+02  0.58829278496E+02 -0.13588884561E+02  0.62500000257E+02  0.10000001599E+02 0.  0.
    3000022    2    3    3    0    0 -0.44772296744E+01  0.19178764754E+02  0.25450959131E+00  0.19697660945E+02  0.24993707053E+00 0.  0.
    1000022    2    1    0    0    0  0.12677074119E+02 -0.58829278496E+02  0.13588884561E+02  0.62499999743E+02  0.99999983824E+01 0.  0.
    3000022    2    5    5    0    0  0.75994959518E+00  0.11458306337E-01  0.75485697827E+00  0.10999799679E+01  0.24998438363E+00 0.  0.
        -13    1    4    4    0    0 -0.31281729828E+01  0.13444804341E+02  0.22273329598E+00  0.13806116945E+02  0.10500000000E+00 0. -1.
         13    1    4    4    0    0 -0.13490566916E+01  0.57339604126E+01  0.31776295332E-01  0.58915439999E+01  0.10500000000E+00 0.  1.
    3000001    1    5    5    0    0  0.11917124524E+02 -0.58840736802E+02  0.12834027583E+02  0.61400019775E+02  0.10000000000E+01 0.  1.
        -13    1    6    6    0    0  0.50798764657E+00  0.22521592692E-01  0.41999409227E+00  0.66781637352E+00  0.10500000000E+00 0. -1.
         13    1    6    6    0    0  0.25196194861E+00 -0.11063286355E-01  0.33486288600E+00  0.43216359434E+00  0.10500000000E+00 0.  1.
</event>
<event>
11    0  0.3482687E-009  0.9118800E+02  0.7816531E-02  0.1126479E+00
         25   -1    0    0    0    0  0.00000000000E+00  0.00000000000E+00  0.99999998245E-14  0.12500000000E+03  0.12500000000E+03 0.  0.
    3000001    1    3    3    0    0 -0.35516577594E+01  0.92118011705E+01  0.90333396314E+01  0.13419119887E+02  0.10000000000E+01 0.  1.
    1000022    2    1    0    0    0 -0.32368611623E+02  0.41425149912E+02  0.32287454865E+02  0.62500002527E+02  0.10000025527E+02 0.  0.
    3000022    2    3    3    0    0 -0.28816953864E+02  0.32213348742E+02  0.23254115233E+02  0.49080882640E+02  0.24999653471E+00 0.  0.
    1000022    2    1    0    0    0  0.32368611623E+02 -0.41425149912E+02 -0.32287454865E+02  0.62499997473E+02  0.99999939413E+01 0.  0.
    3000022    2    5    5    0    0  0.26801551073E+02 -0.36539013339E+02 -0.23781274976E+02  0.51176500218E+02  0.24999878194E+00 0.  0.
        -13    1    4    4    0    0 -0.19461358511E+02  0.21725911445E+02  0.15638107384E+02  0.33095636129E+02  0.10500000000E+00 0. -1.
         13    1    4    4    0    0 -0.93555953531E+01  0.10487437297E+02  0.76160078489E+01  0.15985246511E+02  0.10500000000E+00 0.  1.
    3000001    1    5    5    0    0  0.55670605504E+01 -0.48861365733E+01 -0.85061798888E+01  0.11323497255E+02  0.10000000000E+01 0. -1.
        -13    1    6    6    0    0  0.12394767935E+02 -0.16825520752E+02 -0.11025688141E+02  0.23628483758E+02  0.10500000000E+00 0. -1.
         13    1    6    6    0    0  0.14406783138E+02 -0.19713492587E+02 -0.12755586835E+02  0.27548016460E+02  0.10500000000E+00 0.  1.
</event>
<event>
11    0  0.3482687E-009  0.9118800E+02  0.7816531E-02  0.1126479E+00
         25   -1    0    0    0    0  0.00000000000E+00  0.00000000000E+00  0.99999998245E-14  0.12500000000E+03  0.12500000000E+03 0.  0.
    3000001    1    3    3    0    0 -0.16360646934E+02 -0.19410361064E+01 -0.33442787279E+02  0.37294214166E+02  0.10000000000E+01 0.  1.
    1000022    2    1    0    0    0 -0.33243747635E+02 -0.67266640561E+01 -0.51534990837E+02  0.62500000460E+02  0.10000000541E+02 0.  0.
    3000022    2    3    3    0    0 -0.16883100701E+02 -0.47856279497E+01 -0.18092203557E+02  0.25205786294E+02  0.25001793984E+00 0.  0.
    1000022    2    1    0    0    0  0.33243747635E+02  0.67266640561E+01  0.51534990837E+02  0.62499999540E+02  0.99999947929E+01 0.  0.
    3000022    2    5    5    0    0  0.67654554075E+01  0.41048077638E+01  0.18116595553E+02  0.19771048780E+02  0.25000360515E+00 0.  0.
        -13    1    4    4    0    0 -0.42220138367E+01 -0.11906357523E+01 -0.45604958766E+01  0.63286777428E+01  0.10500000000E+00 0.  1.
         13    1    4    4    0    0 -0.12661086864E+02 -0.35949921974E+01 -0.13531707681E+02  0.18877108551E+02  0.10500000000E+00 0. -1.
    3000001    1    5    5    0    0  0.26478292227E+02  0.26218562922E+01  0.33418395284E+02  0.42728950760E+02  0.10000000000E+01 0.  1.
        -13    1    6    6    0    0  0.39734587775E+01  0.24134349143E+01  0.10801929912E+02  0.11760346830E+02  0.10500000000E+00 0. -1.
         13    1    6    6    0    0  0.27919966299E+01  0.16913728495E+01  0.73146656407E+01  0.80107019500E+01  0.10500000000E+00 0.  1.
</event>
<event>
11    0  0.3482687E-009  0.9118800E+02  0.7816531E-02  0.1126479E+00
         25   -1    0    0    0    0  0.00000000000E+00  0.00000000000E+00  0.99999998245E-14  0.12500000000E+03  0.12500000000E+03 0.  0.
    3000001    1    3    3    0    0  0.22906336585E+02  0.22458829696E+02 -0.18955461590E+02  0.37274774462E+02  0.10000000000E+01 0. -1.
    1000022    2    1    0    0    0  0.37569270716E+02  0.42077086104E+02 -0.24986372322E+02  0.62500000051E+02  0.99999963728E+01 0.  0.
    3000022    2    3    3    0    0  0.14662934131E+02  0.19618256407E+02 -0.60309107319E+01  0.25225225590E+02  0.24999996980E+00 0.  0.
    1000022    2    1    0    0    0 -0.37569270716E+02 -0.42077086104E+02  0.24986372322E+02  0.62499999949E+02  0.99999957329E+01 0.  0.
    3000022    2    5    5    0    0 -0.36569182165E+02 -0.42053253372E+02  0.25011404502E+02  0.61085301494E+02  0.25000005620E+00 0.  0.
        -13    1    4    4    0    0  0.88283261826E+01  0.11770487479E+02 -0.35632649791E+01  0.15139075302E+02  0.10500000000E+00 0.  1.
         13    1    4    4    0    0  0.58346079488E+01  0.78477689279E+01 -0.24676457528E+01  0.10086150288E+02  0.10500000000E+00 0. -1.
    3000001    1    5    5    0    0 -0.10000885512E+01 -0.23832731740E-01 -0.25032179573E-01  0.14146984553E+01  0.10000000000E+01 0. -1.
        -13    1    6    6    0    0 -0.12112295123E+02 -0.13860301324E+02  0.82303821955E+01  0.20163478421E+02  0.10500000000E+00 0.  1.
         13    1    6    6    0    0 -0.24456887042E+02 -0.28192952048E+02  0.16781022306E+02  0.40921823073E+02  0.10500000000E+00 0. -1.
</event>
<event>
11    0  0.3482687E-009  0.9118800E+02  0.7816531E-02  0.1126479E+00
         25   -1    0    0    0    0  0.00000000000E+00  0.00000000000E+00  0.99999998245E-14  0.12500000000E+03  0.12500000000E+03 0.  0.
    3000001    1    3    3    0    0  0.26251343414E+02  0.24017881284E+02  0.35513969372E+02  0.50281544059E+02  0.10000000000E+01 0. -1.
    1000022    2    1    0    0    0  0.31381998431E+02  0.33543473315E+02  0.41185622796E+02  0.62500000595E+02  0.10000006087E+02 0.  0.
    3000022    2    3    3    0    0  0.51306550167E+01  0.95255920314E+01  0.56716534239E+01  0.12218456536E+02  0.25000622379E+00 0.  0.
    1000022    2    1    0    0    0 -0.31381998431E+02 -0.33543473315E+02 -0.41185622796E+02  0.62499999405E+02  0.99999986483E+01 0.  0.
    3000022    2    5    5    0    0 -0.12687552918E+02 -0.80465076009E+01 -0.16947225697E+02  0.22649309981E+02  0.25000030826E+00 0.  0.
        -13    1    4    4    0    0  0.29949157041E+01  0.56294525035E+01  0.32801895062E+01  0.71715356627E+01  0.10500000000E+00 0.  1.
         13    1    4    4    0    0  0.21357393126E+01  0.38961395279E+01  0.23914639177E+01  0.50469208733E+01  0.10500000000E+00 0. -1.
    3000001    1    5    5    0    0 -0.18694445513E+02 -0.25496965714E+02 -0.24238397099E+02  0.39850689424E+02  0.10000000000E+01 0. -1.
        -13    1    6    6    0    0 -0.47665400936E+01 -0.29576030360E+01 -0.63633425791E+01  0.84835413573E+01  0.10500000000E+00 0.  1.
         13    1    6    6    0    0 -0.79210128240E+01 -0.50889045649E+01 -0.10583883118E+02  0.14165768623E+02  0.10500000000E+00 0. -1.
</event>
<event>
11    0  0.3482687E-009  0.9118800E+02  0.7816531E-02  0.1126479E+00
         25   -1    0    0    0    0  0.00000000000E+00  0.00000000000E+00  0.99999998245E-14  0.12500000000E+03  0.12500000000E+03 0.  0.
    3000001    1    3    3    0    0  0.80622529786E+01 -0.35144854367E+02  0.22329172635E+02  0.42423491866E+02  0.10000000000E+01 0. -1.
    1000022    2    1    0    0    0  0.11085129425E+02 -0.47321391225E+02  0.38000730802E+02  0.62499997200E+02  0.99999973350E+01 0.  0.
    3000022    2    3    3    0    0  0.30228764467E+01 -0.12176536858E+02  0.15671558168E+02  0.20076505335E+02  0.24999834774E+00 0.  0.
    1000022    2    1    0    0    0 -0.11085129425E+02  0.47321391225E+02 -0.38000730802E+02  0.62500002800E+02  0.10000032330E+02 0.  0.
    3000022    2    5    5    0    0 -0.91337918115E+01  0.36206830859E+02 -0.33952213165E+02  0.50469555357E+02  0.24997084324E+00 0.  0.
        -13    1    4    4    0    0  0.10296543531E+01 -0.39338495248E+01  0.50739275544E+01  0.65031627688E+01  0.10500000000E+00 0.  1.
         13    1    4    4    0    0  0.19932220936E+01 -0.82426873336E+01  0.10597630613E+02  0.13573342566E+02  0.10500000000E+00 0. -1.
    3000001    1    5    5    0    0 -0.19513376137E+01  0.11114560366E+02 -0.40485176373E+01  0.12030447442E+02  0.10000000000E+01 0.  1.
        -13    1    6    6    0    0 -0.57391906992E+01  0.22502873447E+02 -0.21114698108E+02  0.31387244614E+02  0.10500000000E+00 0. -1.
         13    1    6    6    0    0 -0.33946011123E+01  0.13703957413E+02 -0.12837515057E+02  0.19082310744E+02  0.10500000000E+00 0.  1.
</event>
<event>
11    0  0.3482687E-009  0.9118800E+02  0.7816531E-02  0.1126479E+00
         25   -1    0    0    0    0  0.00000000000E+00  0.00000000000E+00  0.99999998245E-14  0.12500000000E+03  0.12500000000E+03 0.  0.
    3000001    1    3    3    0    0 -0.32944811338E+01  0.65657155864E+01  0.23352422750E+02  0.24500977030E+02  0.10000000000E+01 0. -1.
    1000022    2    1    0    0    0 -0.19275274355E+02  0.11415876774E+02  0.57483837363E+02  0.62500000157E+02  0.10000000881E+02 0.  0.
    3000022    2    3    3    0    0 -0.15980793221E+02  0.48501611874E+01  0.34131414613E+02  0.37999023127E+02  0.24995922440E+00 0.  0.
    1000022    2    1    0    0    0  0.19275274355E+02 -0.11415876774E+02 -0.57483837363E+02  0.62499999843E+02  0.99999989212E+01 0.  0.
    3000022    2    5    5    0    0  0.15678003304E+02 -0.12866846252E+02 -0.44336046742E+02  0.48755543882E+02  0.24999691756E+00 0.  0.
        -13    1    4    4    0    0 -0.11918177006E+02  0.35985912042E+01  0.25493336037E+02  0.28371006487E+02  0.10500000000E+00 0. -1.
         13    1    4    4    0    0 -0.40626162145E+01  0.12515699832E+01  0.86380785760E+01  0.96280166397E+01  0.10500000000E+00 0. -1.
    3000001    1    5    5    0    0  0.35972710510E+01  0.14509694788E+01 -0.13147790622E+02  0.13744455961E+02  0.10000000000E+01 0.  1.
        -13    1    6    6    0    0  0.10646261301E+02 -0.87824987508E+01 -0.30079989749E+02  0.33095195607E+02  0.10500000000E+00 0. -1.
         13    1    6    6    0    0  0.50317420025E+01 -0.40843475017E+01 -0.14256056993E+02  0.15660348275E+02  0.10500000000E+00 0.  1.
</event>
<event>
11    0  0.3482687E-009  0.9118800E+02  0.7816531E-02  0.1126479E+00
         25   -1    0    0    0    0  0.00000000000E+00  0.00000000000E+00  0.99999998245E-14  0.12500000000E+03  0.12500000000E+03 0.  0.
    3000001    1    3    3    0    0  0.35261370628E+02 -0.63626875895E+01 -0.43165698141E+02  0.56108159370E+02  0.10000000000E+01 0.  1.
    1000022    2    1    0    0    0  0.37278001430E+02 -0.97680017682E+01 -0.48178695589E+02  0.62499999104E+02  0.99999965101E+01 0.  0.
    3000022    2    3    3    0    0  0.20166308017E+01 -0.34053141787E+01 -0.50129974486E+01  0.63918397341E+01  0.25001464081E+00 0.  0.
    1000022    2    1    0    0    0 -0.37278001430E+02  0.97680017682E+01  0.48178695589E+02  0.62500000896E+02  0.10000007710E+02 0.  0.
    3000022    2    5    5    0    0  0.57180310067E+00 -0.20747160577E+00  0.77363353744E+00  0.10153875351E+01  0.24999948615E+00 0.  0.
        -13    1    4    4    0    0  0.48729764687E+00 -0.79309434509E+00 -0.11804864081E+01  0.15069939604E+01  0.10500000000E+00 0. -1.
         13    1    4    4    0    0  0.15293331548E+01 -0.26122198336E+01 -0.38325110405E+01  0.48848457737E+01  0.10500000000E+00 0.  1.
    3000001    1    5    5    0    0 -0.37849804530E+02  0.99754733740E+01  0.47405062052E+02  0.61484613361E+02  0.10000000000E+01 0.  1.
        -13    1    6    6    0    0  0.15274417889E+00 -0.37976812954E-01  0.27931785198E+00  0.33736698851E+00  0.10500000000E+00 0. -1.
         13    1    6    6    0    0  0.41905892179E+00 -0.16949479281E+00  0.49431568547E+00  0.67802054661E+00  0.10500000000E+00 0. -1.
</event>
<event>
11    0  0.3482687E-009  0.9118800E+02  0.7816531E-02  0.1126479E+00
         25   -1    0    0    0    0  0.00000000000E+00  0.00000000000E+00  0.99999998245E-14  0.12500000000E+03  0.12500000000E+03 0.  0.
    3000001    1    3    3    0    0  0.43782231272E+02 -0.59639122403E+00  0.22514312918E+02  0.49245646953E+02  0.10000000000E+01 0.  1.
    1000022    2    1    0    0    0  0.52797597253E+02  0.20910510138E+01  0.31847924571E+02  0.62500003883E+02  0.10000070795E+02 0.  0.
    3000022    2    3    3    0    0  0.90153659809E+01  0.26874422378E+01  0.93336116528E+01  0.13254356930E+02  0.25000319159E+00 0.  0.
    1000022    2    1    0    0    0 -0.52797597253E+02 -0.20910510138E+01 -0.31847924571E+02  0.62499996117E+02  0.10000022254E+02 0.  0.
    3000022    2    5    5    0    0 -0.32232354537E+02  0.12028801660E+01 -0.14453832109E+02  0.35346107939E+02  0.24996822084E+00 0.  0.
        -13    1    4    4    0    0  0.48420224536E+01  0.14047495318E+01  0.49227262079E+01  0.70471810681E+01  0.10500000000E+00 0.  1.
         13    1    4    4    0    0  0.41733435272E+01  0.12826927060E+01  0.44108854449E+01  0.62071758620E+01  0.10500000000E+00 0. -1.
    3000001    1    5    5    0    0 -0.20565242715E+02 -0.32939311797E+01 -0.17394092463E+02  0.27153888178E+02  0.10000000000E+01 0.  1.
        -13    1    6    6    0    0 -0.22104385986E+02  0.86262883146E+00 -0.99476190463E+01  0.24255188270E+02  0.10500000000E+00 0. -1.
         13    1    6    6    0    0 -0.10127968551E+02  0.34025133450E+00 -0.45062130624E+01  0.11090919669E+02  0.10500000000E+00 0.  1.
</event>
<event>
11    0  0.3482687E-009  0.9118800E+02  0.7816531E-02  0.1126479E+00
         25   -1    0    0    0    0  0.00000000000E+00  0.00000000000E+00  0.99999998245E-14  0.12500000000E+03  0.12500000000E+03 0.  0.
    3000001    1    3    3    0    0  0.40202582444E+02 -0.35080017168E+02  0.84900068298E+01  0.54036427118E+02  0.10000000000E+01 0.  1.
    1000022    2    1    0    0    0  0.47675859513E+02 -0.38589049568E+02  0.66443680396E+01  0.62499999522E+02  0.99999993389E+01 0.  0.
    3000022    2    3    3    0    0  0.74732770687E+01 -0.35090323999E+01 -0.18456387902E+01  0.84635724043E+01  0.24999354092E+00 0.  0.
    1000022    2    1    0    0    0 -0.47675859513E+02  0.38589049568E+02 -0.66443680396E+01  0.62500000478E+02  0.10000005312E+02 0.  0.
    3000022    2    5    5    0    0 -0.46948163002E+02  0.36781642328E+02 -0.75750671769E+01  0.60120407229E+02  0.25000217963E+00 0.  0.
        -13    1    4    4    0    0  0.40640306209E+01 -0.19254593235E+01 -0.10718887386E+01  0.46242522598E+01  0.10500000000E+00 0.  1.
         13    1    4    4    0    0  0.34092464477E+01 -0.15835730764E+01 -0.77375005159E+00  0.38393201445E+01  0.10500000000E+00 0.  1.
    3000001    1    5    5    0    0 -0.72769651065E+00  0.18074072402E+01  0.93069913725E+00  0.23795932484E+01  0.10000000000E+01 0. -1.
        -13    1    6    6    0    0 -0.27464446463E+02  0.21555805576E+02 -0.44915583079E+01  0.35201330864E+02  0.10500000000E+00 0.  1.
         13    1    6    6    0    0 -0.19483716539E+02  0.15225836752E+02 -0.30835088690E+01  0.24919076365E+02  0.10500000000E+00 0. -1.
</event>
<event>
11    0  0.3482687E-009  0.9118800E+02  0.7816531E-02  0.1126479E+00
         25   -1    0    0    0    0  0.00000000000E+00  0.00000000000E+00  0.99999998245E-14  0.12500000000E+03  0.12500000000E+03 0.  0.
    3000001    1    3    3    0    0 -0.43821408619E+02 -0.15681845907E+02 -0.18508361430E+02  0.50097860107E+02  0.10000000000E+01 0. -1.
    1000022    2    1    0    0    0 -0.56152798661E+02 -0.16471534120E+02 -0.19539751811E+02  0.62499999037E+02  0.99999872479E+01 0.  0.
    3000022    2    3    3    0    0 -0.12331390042E+02 -0.78968821301E+00 -0.10313903806E+01  0.12402138930E+02  0.24999214716E+00 0.  0.
    1000022    2    1    0    0    0  0.56152798661E+02  0.16471534120E+02  0.19539751811E+02  0.62500000963E+02  0.99999992914E+01 0.  0.
    3000022    2    5    5    0    0  0.35802515372E+02  0.14355232850E+02  0.15762151404E+02  0.41670141966E+02  0.24999486940E+00 0.  0.
        -13    1    4    4    0    0 -0.84706910727E+01 -0.49385351696E+00 -0.71653498528E+00  0.85159230815E+01  0.10500000000E+00 0.  1.
         13    1    4    4    0    0 -0.38606989695E+01 -0.29583469604E+00 -0.31485539530E+00  0.38862158484E+01  0.10500000000E+00 0. -1.
    3000001    1    5    5    0    0  0.20350283289E+02  0.21163012697E+01  0.37776004070E+01  0.20829858997E+02  0.10000000000E+01 0. -1.
        -13    1    6    6    0    0  0.26653534375E+02  0.10658495863E+02  0.11744230028E+02  0.31015357369E+02  0.10500000000E+00 0. -1.
         13    1    6    6    0    0  0.91489809970E+01  0.36967369870E+01  0.40179213757E+01  0.10654784597E+02  0.10500000000E+00 0.  1.
</event>
<event>
11    0  0.3482687E-009  0.9118800E+02  0.7816531E-02  0.1126479E+00
         25   -1    0    0    0    0  0.00000000000E+00  0.00000000000E+00  0.99999998245E-14  0.12500000000E+03  0.12500000000E+03 0.  0.
    3000001    1    3    3    0    0  0.13548354471E+02 -0.10876195185E+02 -0.77056912566E+01  0.19032267556E+02  0.10000000000E+01 0. -1.
    1000022    2    1    0    0    0  0.51726349915E+02 -0.22753289406E+02 -0.24757277123E+02  0.62500000247E+02  0.99999902996E+01 0.  0.
    3000022    2    3    3    0    0  0.38177995444E+02 -0.11877094221E+02 -0.17051585866E+02  0.43467732691E+02  0.25000298014E+00 0.  0.
    1000022    2    1    0    0    0 -0.51726349915E+02  0.22753289406E+02  0.24757277123E+02  0.62499999753E+02  0.99999872128E+01 0.  0.
    3000022    2    5    5    0    0 -0.15746128397E+02  0.11150830299E+02  0.11286210215E+02  0.22354476448E+02  0.25000074966E+00 0.  0.
        -13    1    4    4    0    0  0.14001764300E+02 -0.44173666426E+01 -0.62534234012E+01  0.15958660997E+02  0.10500000000E+00 0.  1.
         13    1    4    4    0    0  0.24176231143E+02 -0.74597275784E+01 -0.10798162465E+02  0.27509071694E+02  0.10500000000E+00 0. -1.
    3000001    1    5    5    0    0 -0.35980221518E+02  0.11602459107E+02  0.13471066907E+02  0.40145523305E+02  0.10000000000E+01 0. -1.
        -13    1    6    6    0    0 -0.47876481129E+01  0.33394778089E+01  0.33906189079E+01  0.67513708287E+01  0.10500000000E+00 0. -1.
         13    1    6    6    0    0 -0.10958480284E+02  0.78113524906E+01  0.78955913076E+01  0.15603105619E+02  0.10500000000E+00 0.  1.
</event>
<event>
11    0  0.3482687E-009  0.9118800E+02  0.7816531E-02  0.1126479E+00
         25   -1    0    0    0    0  0.00000000000E+00  0.00000000000E+00  0.99999998245E-14  0.12500000000E+03  0.12500000000E+03 0.  0.
    3000001    1    3    3    0    0 -0.10446155830E+02  0.28164561184E+02  0.81246247726E+01  0.31134774867E+02  0.10000000000E+01 0. -1.
    1000022    2    1    0    0    0 -0.19922805354E+02  0.52593891241E+02  0.25361668545E+02  0.62499998077E+02  0.99999979566E+01 0.  0.
    3000022    2    3    3    0    0 -0.94766495233E+01  0.24429330057E+02  0.17237043773E+02  0.31365223209E+02  0.24999148109E+00 0.  0.
    1000022    2    1    0    0    0  0.19922805354E+02 -0.52593891241E+02 -0.25361668545E+02  0.62500001923E+02  0.10000021997E+02 0.  0.
    3000022    2    5    5    0    0  0.11394168088E+02 -0.22623817453E+02 -0.68495191512E+01  0.26242000714E+02  0.25001262698E+00 0.  0.
        -13    1    4    4    0    0 -0.33978869092E+01  0.86016600222E+01  0.60846742681E+01  0.11071064833E+02  0.10500000000E+00 0.  1.
         13    1    4    4    0    0 -0.60787626141E+01  0.15827670035E+02  0.11152369505E+02  0.20294158377E+02  0.10500000000E+00 0. -1.
    3000001    1    5    5    0    0  0.85286372655E+01 -0.29970073788E+02 -0.18512149394E+02  0.36258001209E+02  0.10000000000E+01 0. -1.
        -13    1    6    6    0    0  0.68623330970E+01 -0.13551635791E+02 -0.41628552492E+01  0.15750518625E+02  0.10500000000E+00 0.  1.
         13    1    6    6    0    0  0.45318349912E+01 -0.90721816625E+01 -0.26866639019E+01  0.10491482089E+02  0.10500000000E+00 0. -1.
</event>
<event>
11    0  0.3482687E-009  0.9118800E+02  0.7816531E-02  0.1126479E+00
         25   -1    0    0    0    0  0.00000000000E+00  0.00000000000E+00  0.99999998245E-14  0.12500000000E+03  0.12500000000E+03 0.  0.
    3000001    1    3    3    0    0 -0.16332489057E+01 -0.98749996111E+01  0.21900623875E+01  0.10294634164E+02  0.10000000000E+01 0. -1.
    1000022    2    1    0    0    0  0.99668417470E+01 -0.60728807034E+02  0.43501152338E+01  0.62499999402E+02  0.10000024224E+02 0.  0.
    3000022    2    3    3    0    0  0.11600090653E+02 -0.50853807423E+02  0.21600528463E+01  0.52205365238E+02  0.24999751616E+00 0.  0.
    1000022    2    1    0    0    0 -0.99668417470E+01  0.60728807034E+02 -0.43501152338E+01  0.62500000598E+02  0.10000031704E+02 0.  0.
    3000022    2    5    5    0    0 -0.15918898216E+01  0.29540841212E+02  0.16854763512E+01  0.29632731201E+02  0.25003036051E+00 0.  0.
        -13    1    4    4    0    0  0.88358942564E+01 -0.38810176013E+02  0.16482941080E+01  0.39837553739E+02  0.10500000000E+00 0. -1.
         13    1    4    4    0    0  0.27641963964E+01 -0.12043631410E+02  0.51175873829E+00  0.12367811499E+02  0.10500000000E+00 0.  1.
    3000001    1    5    5    0    0 -0.83749519254E+01  0.31187965822E+02 -0.60355915850E+01  0.32867269398E+02  0.10000000000E+01 0.  1.
        -13    1    6    6    0    0 -0.10667350289E+01  0.20200864793E+02  0.11974656688E+01  0.20264693706E+02  0.10500000000E+00 0. -1.
         13    1    6    6    0    0 -0.52515479268E+00  0.93399764191E+01  0.48801068234E+00  0.93680374941E+01  0.10500000000E+00 0.  1.
</event>
<event>
11    0  0.3482687E-009  0.9118800E+02  0.7816531E-02  0.1126479E+00
         25   -1    0    0    0    0  0.00000000000E+00  0.00000000000E+00  0.99999998245E-14  0.12500000000E+03  0.12500000000E+03 0.  0.
    3000001    1    3    3    0    0  0.17689256976E+02 -0.18290706427E+02  0.46401534235E+02  0.52929784935E+02  0.10000000000E+01 0.  1.
    1000022    2    1    0    0    0  0.19913283668E+02 -0.25133322047E+02  0.52706994602E+02  0.62499999868E+02  0.99999980032E+01 0.  0.
    3000022    2    3    3    0    0  0.22240266917E+01 -0.68426156196E+01  0.63054603671E+01  0.95702149331E+01  0.25000036379E+00 0.  0.
    1000022    2    1    0    0    0 -0.19913283668E+02  0.25133322047E+02 -0.52706994602E+02  0.62500000132E+02  0.99999996495E+01 0.  0.
    3000022    2    5    5    0    0 -0.98187214214E+00  0.53547623871E+01 -0.14460750591E+02  0.15453587457E+02  0.25000907501E+00 0.  0.
        -13    1    4    4    0    0  0.10151690921E+01 -0.29126628982E+01  0.27115802485E+01  0.41082679913E+01  0.10500000000E+00 0.  1.
         13    1    4    4    0    0  0.12088575997E+01 -0.39299527214E+01  0.35938801186E+01  0.54619469419E+01  0.10500000000E+00 0. -1.
    3000001    1    5    5    0    0 -0.18931411525E+02  0.19778559659E+02 -0.38246244011E+02  0.47046412674E+02  0.10000000000E+01 0.  1.
        -13    1    6    6    0    0 -0.57100720585E+00  0.27833730295E+01 -0.76353083170E+01  0.81475255597E+01  0.10500000000E+00 0. -1.
         13    1    6    6    0    0 -0.41086493630E+00  0.25713893576E+01 -0.68254422735E+01  0.73060618978E+01  0.10500000000E+00 0.  1.
</event>
<event>
11    0  0.3482687E-009  0.9118800E+02  0.7816531E-02  0.1126479E+00
         25   -1    0    0    0    0  0.00000000000E+00  0.00000000000E+00  0.99999998245E-14  0.12500000000E+03  0.12500000000E+03 0.  0.
    3000001    1    3    3    0    0 -0.43163657521E+02 -0.85762381997E+01  0.29885140209E+02  0.53205026055E+02  0.10000000000E+01 0. -1.
    1000022    2    1    0    0    0 -0.52260617170E+02 -0.98667426993E+01  0.31268599929E+02  0.62500000189E+02  0.99999981774E+01 0.  0.
    3000022    2    3    3    0    0 -0.90969596497E+01 -0.12905044996E+01  0.13834597199E+01  0.92949741335E+01  0.25001322900E+00 0.  0.
    1000022    2    1    0    0    0  0.52260617170E+02  0.98667426993E+01 -0.31268599929E+02  0.62499999811E+02  0.99999958209E+01 0.  0.
    3000022    2    5    5    0    0  0.17985617251E+02  0.77661975265E+01 -0.13761872698E+02  0.23942595752E+02  0.24999851807E+00 0.  0.
        -13    1    4    4    0    0 -0.54186751053E+01 -0.79009914753E+00  0.76393891963E+00  0.55300021910E+01  0.10500000000E+00 0. -1.
         13    1    4    4    0    0 -0.36782845444E+01 -0.50040535208E+00  0.61952080030E+00  0.37649719425E+01  0.10500000000E+00 0.  1.
    3000001    1    5    5    0    0  0.34274999919E+02  0.21005451728E+01 -0.17506727231E+02  0.38557404060E+02  0.10000000000E+01 0.  1.
        -13    1    6    6    0    0  0.60990952474E+01  0.26173918916E+01 -0.47267689289E+01  0.81488080514E+01  0.10500000000E+00 0.  1.
         13    1    6    6    0    0  0.11886522004E+02  0.51488056350E+01 -0.90351037688E+01  0.15793787700E+02  0.10500000000E+00 0. -1.
</event>
<event>
11    0  0.3482687E-009  0.9118800E+02  0.7816531E-02  0.1126479E+00
         25   -1    0    0    0    0  0.00000000000E+00  0.00000000000E+00  0.99999998245E-14  0.12500000000E+03  0.12500000000E+03 0.  0.
    3000001    1    3    3    0    0  0.10508675725E+01 -0.82035477192E+01  0.86713034400E+01  0.12024725410E+02  0.10000000000E+01 0. -1.
    1000022    2    1    0    0    0  0.24559171842E+02 -0.37628069100E+02  0.42275588916E+02  0.62499999800E+02  0.10000002554E+02 0.  0.
    3000022    2    3    3    0    0  0.23508304270E+02 -0.29424521381E+02  0.33604285476E+02  0.50475274390E+02  0.24998861405E+00 0.  0.
    1000022    2    1    0    0    0 -0.24559171842E+02  0.37628069100E+02 -0.42275588916E+02  0.62500000200E+02  0.10000005053E+02 0.  0.
    3000022    2    5    5    0    0 -0.19242459142E+02  0.24663102240E+02 -0.23890236286E+02  0.39361742034E+02  0.25000053598E+00 0.  0.
        -13    1    4    4    0    0  0.15547862432E+02 -0.19541089289E+02  0.22253424182E+02  0.33448708639E+02  0.10500000000E+00 0. -1.
         13    1    4    4    0    0  0.79604418376E+01 -0.98834320916E+01  0.11350861294E+02  0.17026565751E+02  0.10500000000E+00 0.  1.
    3000001    1    5    5    0    0 -0.53167127009E+01  0.12964966860E+02 -0.18385352630E+02  0.23138258166E+02  0.10000000000E+01 0. -1.
        -13    1    6    6    0    0 -0.93479453937E+01  0.11910393277E+02 -0.11497995796E+02  0.19012008926E+02  0.10500000000E+00 0.  1.
         13    1    6    6    0    0 -0.98945137479E+01  0.12752708963E+02 -0.12392240491E+02  0.20349733108E+02  0.10500000000E+00 0. -1.
</event>
<event>
11    0  0.3482687E-009  0.9118800E+02  0.7816531E-02  0.1126479E+00
         25   -1    0    0    0    0  0.00000000000E+00  0.00000000000E+00  0.99999998245E-14  0.12500000000E+03  0.12500000000E+03 0.  0.
    3000001    1    3    3    0    0  0.40397293811E+01  0.42201660544E+02 -0.17672937237E+02  0.45941618134E+02  0.10000000000E+01 0.  1.
    1000022    2    1    0    0    0  0.10714496597E+02  0.56933505160E+02 -0.21213806399E+02  0.62500000109E+02  0.99999992281E+01 0.  0.
    3000022    2    3    3    0    0  0.66747672163E+01  0.14731844616E+02 -0.35408691612E+01  0.16558381975E+02  0.24999208147E+00 0.  0.
    1000022    2    1    0    0    0 -0.10714496597E+02 -0.56933505160E+02  0.21213806399E+02  0.62499999891E+02  0.99999978622E+01 0.  0.
    3000022    2    5    5    0    0 -0.18184455595E+01 -0.29533342300E+02  0.72257140986E+01  0.30459784925E+02  0.25000358756E+00 0.  0.
        -13    1    4    4    0    0  0.37884474846E+01  0.84349455900E+01 -0.20836308459E+01  0.94790919371E+01  0.10500000000E+00 0. -1.
         13    1    4    4    0    0  0.28863197317E+01  0.62968990262E+01 -0.14572383153E+01  0.70792900384E+01  0.10500000000E+00 0.  1.
    3000001    1    5    5    0    0 -0.88960510380E+01 -0.27400162860E+02  0.13988092300E+02  0.32040214966E+02  0.10000000000E+01 0.  1.
        -13    1    6    6    0    0 -0.10245504607E+01 -0.17337253426E+02  0.42903562312E+01  0.17889892163E+02  0.10500000000E+00 0. -1.
         13    1    6    6    0    0 -0.79389509876E+00 -0.12196088874E+02  0.29353578673E+01  0.12569892762E+02  0.10500000000E+00 0.  1.
</event>
<event>
11    0  0.3482687E-009  0.9118800E+02  0.7816531E-02  0.1126479E+00
         25   -1    0    0    0    0  0.00000000000E+00  0.00000000000E+00  0.99999998245E-14  0.12500000000E+03  0.12500000000E+03 0.  0.
    3000001    1    3    3    0    0  0.42973021314E+01  0.17740971323E+02  0.31490372018E+02  0.36412256164E+02  0.10000000000E+01 0.  1.
    1000022    2    1    0    0    0  0.68603470463E+01  0.22614813310E+02  0.56989085302E+02  0.62500000749E+02  0.10000005373E+02 0.  0.
    3000022    2    3    3    0    0  0.25630449149E+01  0.48738419868E+01  0.25498713284E+02  0.26087744586E+02  0.25000696530E+00 0.  0.
    1000022    2    1    0    0    0 -0.68603470463E+01 -0.22614813310E+02 -0.56989085302E+02  0.62499999251E+02  0.99999960082E+01 0.  0.
    3000022    2    5    5    0    0 -0.51181407819E+00 -0.16491997680E+02 -0.41286006927E+02  0.44461722933E+02  0.24999404649E+00 0.  0.
        -13    1    4    4    0    0  0.11843145637E+01  0.22342192113E+01  0.12026168677E+02  0.12289592935E+02  0.10500000000E+00 0.  1.
         13    1    4    4    0    0  0.13787303512E+01  0.26396227755E+01  0.13472544607E+02  0.13798151650E+02  0.10500000000E+00 0. -1.
    3000001    1    5    5    0    0 -0.63485329681E+01 -0.61228156291E+01 -0.15703078375E+02  0.18038276318E+02  0.10000000000E+01 0. -1.
        -13    1    6    6    0    0 -0.22048937089E+00 -0.79853649654E+01 -0.20155468602E+02  0.21681065674E+02  0.10500000000E+00 0.  1.
         13    1    6    6    0    0 -0.29132470730E+00 -0.85066327149E+01 -0.21130538325E+02  0.22780657258E+02  0.10500000000E+00 0. -1.
</event>
<event>
11    0  0.3482687E-009  0.9118800E+02  0.7816531E-02  0.1126479E+00
         25   -1    0    0    0    0  0.00000000000E+00  0.00000000000E+00  0.99999998245E-14  0.12500000000E+03  0.12500000000E+03 0.  0.
    3000001    1    3    3    0    0 -0.44839789799E+01 -0.60058002501E+01  0.19516571462E+02  0.20930175962E+02  0.10000000000E+01 0. -1.
    1000022    2    1    0    0    0 -0.23004263125E+02 -0.80606799595E+01  0.56675209065E+02  0.62500000481E+02  0.10000002714E+02 0.  0.
    3000022    2    3    3    0    0 -0.18520284145E+02 -0.20548797094E+01  0.37158637603E+02  0.41569824520E+02  0.25001337241E+00 0.  0.
    1000022    2    1    0    0    0  0.23004263125E+02  0.80606799595E+01 -0.56675209065E+02  0.62499999519E+02  0.99999966961E+01 0.  0.
    3000022    2    5    5    0    0  0.70820437217E+01 -0.17106625691E+01 -0.11651184765E+02  0.13743882265E+02  0.24996713339E+00 0.  0.
        -13    1    4    4    0    0 -0.65061075327E+01 -0.70421206491E+00  0.13171130174E+02  0.14707652597E+02  0.10500000000E+00 0.  1.
         13    1    4    4    0    0 -0.12014176612E+02 -0.13506676445E+01  0.23987507429E+02  0.26862171923E+02  0.10500000000E+00 0. -1.
    3000001    1    5    5    0    0  0.15922219403E+02  0.97713425285E+01 -0.45024024300E+02  0.48756117254E+02  0.10000000000E+01 0.  1.
        -13    1    6    6    0    0  0.41411327515E+01 -0.10596437257E+01 -0.67807078465E+01  0.80162864963E+01  0.10500000000E+00 0. -1.
         13    1    6    6    0    0  0.29409109701E+01 -0.65101884337E+00 -0.48704769189E+01  0.57275957684E+01  0.10500000000E+00 0.  1.
</event>
<event>
11    0  0.3482687E-009  0.9118800E+02  0.7816531E-02  0.1126479E+00
         25   -1    0    0    0    0  0.00000000000E+00  0.00000000000E+00  0.99999998245E-14  0.12500000000E+03  0.12500000000E+03 0.  0.
    3000001    1    3    3    0    0  0.12000422003E+02  0.94884684856E+01  0.14021856554E+01  0.15395040989E+02  0.10000000000E+01 0. -1.
    1000022    2    1    0    0    0  0.36793300281E+02  0.49522310736E+02  0.21107865439E+00  0.62499993738E+02  0.99999228434E+01 0.  0.
    3000022    2    3    3    0    0  0.24792878278E+02  0.40033842251E+02 -0.11911070010E+01  0.47104952749E+02  0.24999788808E+00 0.  0.
    1000022    2    1    0    0    0 -0.36793300281E+02 -0.49522310736E+02 -0.21107865439E+00  0.62500006262E+02  0.10000001117E+02 0.  0.
    3000022    2    5    5    0    0 -0.82376691056E+01 -0.97034581289E+01 -0.39981457098E+01  0.13344060826E+02  0.24999653849E+00 0.  0.
        -13    1    4    4    0    0  0.16712831091E+02  0.26969557432E+02 -0.85385132700E+00  0.31739814716E+02  0.10500000000E+00 0. -1.
         13    1    4    4    0    0  0.80800471868E+01  0.13064284819E+02 -0.33725567403E+00  0.15365138033E+02  0.10500000000E+00 0.  1.
    3000001    1    5    5    0    0 -0.28555631175E+02 -0.39818852607E+02  0.37870670554E+01  0.49155945435E+02  0.10000000000E+01 0. -1.
        -13    1    6    6    0    0 -0.53797425918E+01 -0.63983597179E+01 -0.26659337074E+01  0.87748997126E+01  0.10500000000E+00 0. -1.
         13    1    6    6    0    0 -0.28579265139E+01 -0.33050984110E+01 -0.13322120024E+01  0.45691611139E+01  0.10500000000E+00 0.  1.
</event>
<event>
11    0  0.3482687E-009  0.9118800E+02  0.7816531E-02  0.1126479E+00
         25   -1    0    0    0    0  0.00000000000E+00  0.00000000000E+00  0.99999998245E-14  0.12500000000E+03  0.12500000000E+03 0.  0.
    3000001    1    3    3    0    0 -0.37992658919E+02  0.30498821545E+02  0.24247743304E+02  0.54429526019E+02  0.10000000000E+01 0. -1.
    1000022    2    1    0    0    0 -0.45149713266E+02  0.34215203376E+02  0.24435085489E+02  0.62499997856E+02  0.99999789516E+01 0.  0.
    3000022    2    3    3    0    0 -0.71570543473E+01  0.37163818313E+01  0.18734218547E+00  0.80704718367E+01  0.24999545191E+00 0.  0.
    1000022    2    1    0    0    0  0.45149713266E+02 -0.34215203376E+02 -0.24435085489E+02  0.62500002144E+02  0.10000005754E+02 0.  0.
    3000022    2    5    5    0    0 -0.16563180322E+00 -0.33096045502E+00 -0.12777954154E+01  0.13535999552E+01  0.25000599619E+00 0.  0.
        -13    1    4    4    0    0 -0.17001169764E+01  0.88453487582E+00  0.27259509527E-01  0.19195227950E+01  0.10500000000E+00 0.  1.
         13    1    4    4    0    0 -0.54569373709E+01  0.28318469555E+01  0.16008267594E+00  0.61509490416E+01  0.10500000000E+00 0. -1.
    3000001    1    5    5    0    0  0.45315345069E+02 -0.33884242921E+02 -0.23157290074E+02  0.61146402189E+02  0.10000000000E+01 0. -1.
        -13    1    6    6    0    0 -0.12844346754E+00 -0.27691625939E+00 -0.92077686509E+00  0.97572300084E+00  0.10500000000E+00 0.  1.
         13    1    6    6    0    0 -0.37188335682E-01 -0.54044195634E-01 -0.35701855033E+00  0.37787695441E+00  0.10500000000E+00 0. -1.
</event>
<event>
11    0  0.3482687E-009  0.9118800E+02  0.7816531E-02  0.1126479E+00
         25   -1    0    0    0    0  0.00000000000E+00  0.00000000000E+00  0.99999998245E-14  0.12500000000E+03  0.12500000000E+03 0.  0.
    3000001    1    3    3    0    0 -0.10082121071E+02  0.15337311186E+02  0.96240316880E+01  0.20748596715E+02  0.10000000000E+01 0. -1.
    1000022    2    1    0    0    0 -0.32662838254E+02  0.49920090094E+02  0.15728116073E+02  0.62500000599E+02  0.10000002095E+02 0.  0.
    3000022    2    3    3    0    0 -0.22580717182E+02  0.34582778908E+02  0.61040843853E+01  0.41751403884E+02  0.24998926755E+00 0.  0.
    1000022    2    1    0    0    0  0.32662838254E+02 -0.49920090094E+02 -0.15728116073E+02  0.62499999401E+02  0.99999946062E+01 0.  0.
    3000022    2    5    5    0    0  0.12107941008E+02 -0.10801376281E+02 -0.54594773467E+01  0.17121342386E+02  0.25001438664E+00 0.  0.
        -13    1    4    4    0    0 -0.14125671286E+02  0.21557472910E+02  0.38530873089E+01  0.26059864434E+02  0.10500000000E+00 0. -1.
         13    1    4    4    0    0 -0.84550458966E+01  0.13025305998E+02  0.22509970765E+01  0.15691539450E+02  0.10500000000E+00 0.  1.
    3000001    1    5    5    0    0  0.20554897246E+02 -0.39118713813E+02 -0.10268638727E+02  0.45378657014E+02  0.10000000000E+01 0. -1.
        -13    1    6    6    0    0  0.35352898803E+01 -0.31094811673E+01 -0.15553895974E+01  0.49595775493E+01  0.10500000000E+00 0. -1.
         13    1    6    6    0    0  0.85726511276E+01 -0.76918951141E+01 -0.39040877493E+01  0.12161764837E+02  0.10500000000E+00 0.  1.
</event>
<event>
11    0  0.3482687E-009  0.9118800E+02  0.7816531E-02  0.1126479E+00
         25   -1    0    0    0    0  0.00000000000E+00  0.00000000000E+00  0.99999998245E-14  0.12500000000E+03  0.12500000000E+03 0.  0.
    3000001    1    3    3    0    0 -0.24764242081E+02 -0.20762302397E+02  0.12404136929E+02  0.34629517750E+02  0.10000000000E+01 0.  1.
    1000022    2    1    0    0    0 -0.42048466616E+02 -0.42405664927E+02  0.15489864908E+02  0.62499999866E+02  0.10000005288E+02 0.  0.
    3000022    2    3    3    0    0 -0.17284224535E+02 -0.21643362530E+02  0.30857279799E+01  0.27870482116E+02  0.24999368737E+00 0.  0.
    1000022    2    1    0    0    0  0.42048466616E+02  0.42405664927E+02 -0.15489864908E+02  0.62500000134E+02  0.10000006961E+02 0.  0.
    3000022    2    5    5    0    0  0.13599579284E+01  0.30467322608E+01 -0.30574223479E+01  0.45323716863E+01  0.24999730659E+00 0.  0.
        -13    1    4    4    0    0 -0.43175170466E+01 -0.53817347558E+01  0.78953627100E+00  0.69453880347E+01  0.10500000000E+00 0.  1.
         13    1    4    4    0    0 -0.12966707488E+02 -0.16261627774E+02  0.22961917089E+01  0.20925094081E+02  0.10500000000E+00 0. -1.
    3000001    1    5    5    0    0  0.40688508688E+02  0.39358932666E+02 -0.12432442561E+02  0.57967628448E+02  0.10000000000E+01 0. -1.
        -13    1    6    6    0    0  0.10388868801E+01  0.22779927423E+01 -0.22665935221E+01  0.33789063434E+01  0.10500000000E+00 0. -1.
         13    1    6    6    0    0  0.32107104835E+00  0.76873951857E+00 -0.79082882581E+00  0.11534653429E+01  0.10500000000E+00 0.  1.
</event>
<event>
11    0  0.3482687E-009  0.9118800E+02  0.7816531E-02  0.1126479E+00
         25   -1    0    0    0    0  0.00000000000E+00  0.00000000000E+00  0.99999998245E-14  0.12500000000E+03  0.12500000000E+03 0.  0.
    3000001    1    3    3    0    0 -0.12474689917E+02 -0.33042296716E+02 -0.36564750331E+01  0.35521557827E+02  0.10000000000E+01 0. -1.
    1000022    2    1    0    0    0 -0.26369447926E+02 -0.54293293349E+02 -0.12772646959E+02  0.62499998259E+02  0.99999892753E+01 0.  0.
    3000022    2    3    3    0    0 -0.13894758009E+02 -0.21250996633E+02 -0.91161719256E+01  0.26978440432E+02  0.24999912396E+00 0.  0.
    1000022    2    1    0    0    0  0.26369447926E+02  0.54293293349E+02  0.12772646959E+02  0.62500001741E+02  0.10000011032E+02 0.  0.
    3000022    2    5    5    0    0  0.20161116278E+02  0.48360314418E+02  0.12421469733E+02  0.53847432972E+02  0.25001441779E+00 0.  0.
        -13    1    4    4    0    0 -0.10502271526E+02 -0.16075955352E+02 -0.68719437334E+01  0.20395310328E+02  0.10500000000E+00 0.  1.
         13    1    4    4    0    0 -0.33924864837E+01 -0.51750412804E+01 -0.22442281922E+01  0.65831301046E+01  0.10500000000E+00 0. -1.
    3000001    1    5    5    0    0  0.62083316478E+01  0.59329789312E+01  0.35117722587E+00  0.86525687683E+01  0.10000000000E+01 0.  1.
        -13    1    6    6    0    0  0.13064319945E+02  0.31413775519E+02  0.80160278959E+01  0.34953819194E+02  0.10500000000E+00 0. -1.
         13    1    6    6    0    0  0.70967963334E+01  0.16946538898E+02  0.44054418369E+01  0.18893613779E+02  0.10500000000E+00 0.  1.
</event>
<event>
11    0  0.3482687E-009  0.9118800E+02  0.7816531E-02  0.1126479E+00
         25   -1    0    0    0    0  0.00000000000E+00  0.00000000000E+00  0.99999998245E-14  0.12500000000E+03  0.12500000000E+03 0.  0.
    3000001    1    3    3    0    0  0.37427983000E+01 -0.10013042200E+01 -0.11875583672E+02  0.12531585566E+02  0.10000000000E+01 0.  1.
    1000022    2    1    0    0    0 -0.65543392349E+00 -0.55291414851E+01 -0.61443053111E+02  0.62499998511E+02  0.10000001955E+02 0.  0.
    3000022    2    3    3    0    0 -0.43982322235E+01 -0.45278372651E+01 -0.49567469439E+02  0.49968412945E+02  0.25001729022E+00 0.  0.
    1000022    2    1    0    0    0  0.65543392349E+00  0.55291414851E+01  0.61443053111E+02  0.62500001489E+02  0.10000020572E+02 0.  0.
    3000022    2    5    5    0    0  0.27689041464E+01  0.25751331272E+01  0.54231129055E+02  0.54363370101E+02  0.25001881449E+00 0.  0.
        -13    1    4    4    0    0 -0.16065632626E+01 -0.15717548016E+01 -0.17697966170E+02  0.17840417322E+02  0.10500000000E+00 0.  1.
         13    1    4    4    0    0 -0.27916689609E+01 -0.29560824635E+01 -0.31869503268E+02  0.32127995622E+02  0.10500000000E+00 0. -1.
    3000001    1    5    5    0    0 -0.21134702229E+01  0.29540083579E+01  0.72119240559E+01  0.81366313883E+01  0.10000000000E+01 0.  1.
        -13    1    6    6    0    0  0.96591920049E+00  0.87048720307E+00  0.17942132304E+02  0.17989493725E+02  0.10500000000E+00 0. -1.
         13    1    6    6    0    0  0.18029849459E+01  0.17046459241E+01  0.36288996751E+02  0.36373876376E+02  0.10500000000E+00 0.  1.
</event>
<event>
11    0  0.3482687E-009  0.9118800E+02  0.7816531E-02  0.1126479E+00
         25   -1    0    0    0    0  0.00000000000E+00  0.00000000000E+00  0.99999998245E-14  0.12500000000E+03  0.12500000000E+03 0.  0.
    3000001    1    3    3    0    0 -0.86446105370E+01  0.30504449914E+02  0.17103547455E+02  0.36038619444E+02  0.10000000000E+01 0.  1.
    1000022    2    1    0    0    0 -0.65605647232E+01  0.53842845435E+02  0.29396551345E+02  0.62499995044E+02  0.99999567790E+01 0.  0.
    3000022    2    3    3    0    0  0.20840458138E+01  0.23338395521E+02  0.12293003890E+02  0.26461375601E+02  0.25000317242E+00 0.  0.
    1000022    2    1    0    0    0  0.65605647232E+01 -0.53842845435E+02 -0.29396551345E+02  0.62500004956E+02  0.10000018723E+02 0.  0.
    3000022    2    5    5    0    0  0.84210516136E+01 -0.37849639892E+02 -0.23400252688E+02  0.45289553695E+02  0.24999560232E+00 0.  0.
        -13    1    4    4    0    0  0.14669618902E+01  0.16647468272E+02  0.88093995264E+01  0.18891975071E+02  0.10500000000E+00 0. -1.
         13    1    4    4    0    0  0.61708392353E+00  0.66909272492E+01  0.34836043638E+01  0.75694005302E+01  0.10500000000E+00 0.  1.
    3000001    1    5    5    0    0 -0.18604868903E+01 -0.15993205543E+02 -0.59962986566E+01  0.17210451261E+02  0.10000000000E+01 0.  1.
        -13    1    6    6    0    0  0.46330760173E+01 -0.20556616176E+02 -0.12677839263E+02  0.24592244619E+02  0.10500000000E+00 0. -1.
         13    1    6    6    0    0  0.37879755963E+01 -0.17293023715E+02 -0.10722413425E+02  0.20697309076E+02  0.10500000000E+00 0.  1.
</event>
<event>
11    0  0.3482687E-009  0.9118800E+02  0.7816531E-02  0.1126479E+00
         25   -1    0    0    0    0  0.00000000000E+00  0.00000000000E+00  0.99999998245E-14  0.12500000000E+03  0.12500000000E+03 0.  0.
    3000001    1    3    3    0    0  0.22121743753E+01 -0.23533185581E+01 -0.14973806533E-01  0.33811311595E+01  0.10000000000E+01 0.  1.
    1000022    2    1    0    0    0  0.38848489093E+02 -0.32059321795E+02  0.35626462925E+02  0.62500000190E+02  0.99999972226E+01 0.  0.
    3000022    2    3    3    0    0  0.36636314718E+02 -0.29706003237E+02  0.35641436731E+02  0.59118869030E+02  0.24995753351E+00 0.  0.
    1000022    2    1    0    0    0 -0.38848489093E+02  0.32059321795E+02 -0.35626462925E+02  0.62499999810E+02  0.99999948507E+01 0.  0.
    3000022    2    5    5    0    0 -0.48936465986E+01  0.61416546723E+01 -0.98483408238E+01  0.12598412892E+02  0.24998255372E+00 0.  0.
        -13    1    4    4    0    0  0.13766328840E+02 -0.11178728593E+02  0.13474303389E+02  0.22272037615E+02  0.10500000000E+00 0.  1.
         13    1    4    4    0    0  0.22869985878E+02 -0.18527274644E+02  0.22167133342E+02  0.36846831416E+02  0.10500000000E+00 0. -1.
    3000001    1    5    5    0    0 -0.33954842494E+02  0.25917667123E+02 -0.25778122101E+02  0.49901586918E+02  0.10000000000E+01 0. -1.
        -13    1    6    6    0    0 -0.35434180100E+01  0.44363907414E+01 -0.71793545059E+01  0.91537713608E+01  0.10500000000E+00 0. -1.
         13    1    6    6    0    0 -0.13502285886E+01  0.17052639309E+01 -0.26689863178E+01  0.34446415315E+01  0.10500000000E+00 0.  1.
</event>
<event>
11    0  0.3482687E-009  0.9118800E+02  0.7816531E-02  0.1126479E+00
         25   -1    0    0    0    0  0.00000000000E+00  0.00000000000E+00  0.99999998245E-14  0.12500000000E+03  0.12500000000E+03 0.  0.
    3000001    1    3    3    0    0  0.20576924177E+02  0.38986564567E+01  0.36603723332E+02  0.42183431493E+02  0.10000000000E+01 0.  1.
    1000022    2    1    0    0    0  0.34113072186E+02  0.10183014301E+02  0.50387046582E+02  0.62499999930E+02  0.10000002691E+02 0.  0.
    3000022    2    3    3    0    0  0.13536148009E+02  0.62843578447E+01  0.13783323250E+02  0.20316568438E+02  0.24999365243E+00 0.  0.
    1000022    2    1    0    0    0 -0.34113072186E+02 -0.10183014301E+02 -0.50387046582E+02  0.62500000070E+02  0.10000003565E+02 0.  0.
    3000022    2    5    5    0    0 -0.28561900769E+02 -0.68036631834E+01 -0.34483113597E+02  0.45290392216E+02  0.24999111233E+00 0.  0.
        -13    1    4    4    0    0  0.64730583280E+01  0.29971916555E+01  0.66796954795E+01  0.97730751883E+01  0.10500000000E+00 0.  1.
         13    1    4    4    0    0  0.70630896808E+01  0.32871661893E+01  0.71036277706E+01  0.10543493249E+02  0.10500000000E+00 0. -1.
    3000001    1    5    5    0    0 -0.55511714168E+01 -0.33793511180E+01 -0.15903932985E+02  0.17209607853E+02  0.10000000000E+01 0. -1.
        -13    1    6    6    0    0 -0.21087515613E+02 -0.50166663181E+01 -0.25505870806E+02  0.33472536896E+02  0.10500000000E+00 0.  1.
         13    1    6    6    0    0 -0.74743851561E+01 -0.17869968653E+01 -0.89772427908E+01  0.11817855321E+02  0.10500000000E+00 0. -1.
</event>
<event>
11    0  0.3482687E-009  0.9118800E+02  0.7816531E-02  0.1126479E+00
         25   -1    0    0    0    0  0.00000000000E+00  0.00000000000E+00  0.99999998245E-14  0.12500000000E+03  0.12500000000E+03 0.  0.
    3000001    1    3    3    0    0  0.14516211427E+01 -0.19886525729E+02 -0.13079616675E+02  0.23867498442E+02  0.10000000000E+01 0. -1.
    1000022    2    1    0    0    0  0.54556292742E+01 -0.43575389426E+02 -0.43332108872E+02  0.62499999398E+02  0.99999905494E+01 0.  0.
    3000022    2    3    3    0    0  0.40040081315E+01 -0.23688863697E+02 -0.30252492197E+02  0.38632500956E+02  0.25000318063E+00 0.  0.
    1000022    2    1    0    0    0 -0.54556292742E+01  0.43575389426E+02  0.43332108872E+02  0.62500000602E+02  0.99999980788E+01 0.  0.
    3000022    2    5    5    0    0 -0.51715238363E+01  0.43637246326E+02  0.42748516849E+02  0.61306215938E+02  0.24998834647E+00 0.  0.
        -13    1    4    4    0    0  0.10481564428E+01 -0.60679105108E+01 -0.77227301600E+01  0.98777404309E+01  0.10500000000E+00 0.  1.
         13    1    4    4    0    0  0.29558516887E+01 -0.17620953187E+02 -0.22529762037E+02  0.28754760525E+02  0.10500000000E+00 0. -1.
    3000001    1    5    5    0    0 -0.28410543781E+00 -0.61856899312E-01  0.58359202317E+00  0.11937846645E+01  0.10000000000E+01 0. -1.
        -13    1    6    6    0    0 -0.21992523903E+01  0.18024966492E+02  0.17685118749E+02  0.25347792375E+02  0.10500000000E+00 0.  1.
         13    1    6    6    0    0 -0.29722714460E+01  0.25612279833E+02  0.25063398100E+02  0.35958423562E+02  0.10500000000E+00 0. -1.
</event>
<event>
11    0  0.3482687E-009  0.9118800E+02  0.7816531E-02  0.1126479E+00
         25   -1    0    0    0    0  0.00000000000E+00  0.00000000000E+00  0.99999998245E-14  0.12500000000E+03  0.12500000000E+03 0.  0.
    3000001    1    3    3    0    0  0.11292929453E+02  0.14324164916E+02  0.21373182775E+02  0.28116274613E+02  0.10000000000E+01 0. -1.
    1000022    2    1    0    0    0  0.26190629819E+02  0.39351070525E+02  0.39645857460E+02  0.62500000864E+02  0.10000012621E+02 0.  0.
    3000022    2    3    3    0    0  0.14897700365E+02  0.25026905610E+02  0.18272674685E+02  0.34383726251E+02  0.25002033992E+00 0.  0.
    1000022    2    1    0    0    0 -0.26190629819E+02 -0.39351070525E+02 -0.39645857460E+02  0.62499999136E+02  0.10000001826E+02 0.  0.
    3000022    2    5    5    0    0 -0.23927063426E+02 -0.37753486823E+02 -0.34098774415E+02  0.56219383179E+02  0.24999382692E+00 0.  0.
        -13    1    4    4    0    0  0.58619561533E+01  0.97660206899E+01  0.70917604082E+01  0.13417964851E+02  0.10500000000E+00 0.  1.
         13    1    4    4    0    0  0.90357442121E+01  0.15260884920E+02  0.11180914276E+02  0.20965761399E+02  0.10500000000E+00 0. -1.
    3000001    1    5    5    0    0 -0.22635663924E+01 -0.15975837026E+01 -0.55470830449E+01  0.62806159576E+01  0.10000000000E+01 0.  1.
        -13    1    6    6    0    0 -0.15919750768E+02 -0.25019507146E+02 -0.22634867361E+02  0.37306332543E+02  0.10500000000E+00 0.  1.
         13    1    6    6    0    0 -0.80073126585E+01 -0.12733979677E+02 -0.11463907054E+02  0.18913050636E+02  0.10500000000E+00 0. -1.
</event>
<event>
11    0  0.3482687E-009  0.9118800E+02  0.7816531E-02  0.1126479E+00
         25   -1    0    0    0    0  0.00000000000E+00  0.00000000000E+00  0.99999998245E-14  0.12500000000E+03  0.12500000000E+03 0.  0.
    3000001    1    3    3    0    0  0.36182606221E+01 -0.38196482208E+02  0.47092064051E+02  0.60751342039E+02  0.10000000000E+01 0. -1.
    1000022    2    1    0    0    0  0.46458677220E+01 -0.39589077247E+02  0.47088968447E+02  0.62499999213E+02  0.99999914032E+01 0.  0.
    3000022    2    3    3    0    0  0.10276070999E+01 -0.13925950398E+01 -0.30956038911E-02  0.17486571743E+01  0.24999006735E+00 0.  0.
    1000022    2    1    0    0    0 -0.46458677220E+01  0.39589077247E+02 -0.47088968447E+02  0.62500000787E+02  0.10000001235E+02 0.  0.
    3000022    2    5    5    0    0 -0.17575779065E+01  0.11679415192E+02 -0.21401783625E+02  0.24445790531E+02  0.25002600572E+00 0.  0.
        -13    1    4    4    0    0  0.25627382985E+00 -0.39087085737E+00  0.25247701123E-01  0.47970694118E+00  0.10500000000E+00 0.  1.
         13    1    4    4    0    0  0.77133327003E+00 -0.10017241824E+01 -0.28343305015E-01  0.12689502331E+01  0.10500000000E+00 0. -1.
    3000001    1    5    5    0    0 -0.28882898155E+01  0.27909662056E+02 -0.25687184822E+02  0.38054210256E+02  0.10000000000E+01 0. -1.
        -13    1    6    6    0    0 -0.83684309851E+00  0.56602572076E+01 -0.10504971096E+02  0.11962619310E+02  0.10500000000E+00 0.  1.
         13    1    6    6    0    0 -0.92073480802E+00  0.60191579840E+01 -0.10896812529E+02  0.12483171220E+02  0.10500000000E+00 0. -1.
</event>
<event>
11    0  0.3482687E-009  0.9118800E+02  0.7816531E-02  0.1126479E+00
         25   -1    0    0    0    0  0.00000000000E+00  0.00000000000E+00  0.99999998245E-14  0.12500000000E+03  0.12500000000E+03 0.  0.
    3000001    1    3    3    0    0 -0.17530911708E+02  0.33694582598E+02 -0.27701897359E+02  0.47021834067E+02  0.10000000000E+01 0. -1.
    1000022    2    1    0    0    0 -0.21531324182E+02  0.41039911104E+02 -0.40723183538E+02  0.62499997596E+02  0.99999898801E+01 0.  0.
    3000022    2    3    3    0    0 -0.40004124738E+01  0.73453285059E+01 -0.13021286179E+02  0.15478163529E+02  0.25000329590E+00 0.  0.
    1000022    2    1    0    0    0  0.21531324182E+02 -0.41039911104E+02  0.40723183538E+02  0.62500002404E+02  0.10000019934E+02 0.  0.
    3000022    2    5    5    0    0  0.16639596020E+02 -0.21489965509E+02  0.21888121138E+02  0.34897666402E+02  0.25000018447E+00 0.  0.
        -13    1    4    4    0    0 -0.11395752338E+01  0.20243311707E+01 -0.36582151829E+01  0.43347562476E+01  0.10500000000E+00 0.  1.
         13    1    4    4    0    0 -0.28608372400E+01  0.53209973352E+01 -0.93630709960E+01  0.11143407281E+02  0.10500000000E+00 0. -1.
    3000001    1    5    5    0    0  0.48917281618E+01 -0.19549945595E+02  0.18835062400E+02  0.27602336002E+02  0.10000000000E+01 0. -1.
        -13    1    6    6    0    0  0.10639131811E+02 -0.13647605337E+02  0.13917227579E+02  0.22206947237E+02  0.10500000000E+00 0. -1.
         13    1    6    6    0    0  0.60004642088E+01 -0.78423601721E+01  0.79708935591E+01  0.12690719165E+02  0.10500000000E+00 0.  1.
</event>
<event>
11    0  0.3482687E-009  0.9118800E+02  0.7816531E-02  0.1126479E+00
         25   -1    0    0    0    0  0.00000000000E+00  0.00000000000E+00  0.99999998245E-14  0.12500000000E+03  0.12500000000E+03 0.  0.
    3000001    1    3    3    0    0  0.31609983362E+02 -0.42732539379E+02  0.31950118463E+02  0.62024761504E+02  0.10000000000E+01 0. -1.
    1000022    2    1    0    0    0  0.31584611537E+02 -0.42335120520E+02  0.31881026841E+02  0.62500000503E+02  0.10000003753E+02 0.  0.
    3000022    2    3    3    0    0 -0.25371824230E-01  0.39741885882E+00 -0.69091622276E-01  0.47523899861E+00  0.24998594904E+00 0.  0.
    1000022    2    1    0    0    0 -0.31584611537E+02  0.42335120520E+02 -0.31881026841E+02  0.62499999497E+02  0.99999974640E+01 0.  0.
    3000022    2    5    5    0    0 -0.10112422427E+02  0.80655935818E+01 -0.10967612261E+02  0.16960716552E+02  0.25000014460E+00 0.  0.
        -13    1    4    4    0    0 -0.39855044119E-01  0.10937625427E+00  0.13632211349E-01  0.15736081700E+00  0.10500000000E+00 0.  1.
         13    1    4    4    0    0  0.14483219889E-01  0.28804260455E+00 -0.82723833625E-01  0.31787818161E+00  0.10500000000E+00 0. -1.
    3000001    1    5    5    0    0 -0.21472189110E+02  0.34269526938E+02 -0.20913414579E+02  0.45539282945E+02  0.10000000000E+01 0. -1.
        -13    1    6    6    0    0 -0.56614033548E+01  0.45089550557E+01 -0.62229671430E+01  0.95456015370E+01  0.10500000000E+00 0. -1.
         13    1    6    6    0    0 -0.44510190727E+01  0.35566385260E+01 -0.47446451185E+01  0.74151150153E+01  0.10500000000E+00 0.  1.
</event>
<event>
11    0  0.3482687E-009  0.9118800E+02  0.7816531E-02  0.1126479E+00
         25   -1    0    0    0    0  0.00000000000E+00  0.00000000000E+00  0.99999998245E-14  0.12500000000E+03  0.12500000000E+03 0.  0.
    3000001    1    3    3    0    0  0.21671631461E+02  0.82069677076E+01  0.24880346127E+02  0.34015372298E+02  0.10000000000E+01 0.  1.
    1000022    2    1    0    0    0  0.39006221967E+02  0.62133920851E+01  0.47393654690E+02  0.62499998583E+02  0.99999862310E+01 0.  0.
    3000022    2    3    3    0    0  0.17334590506E+02 -0.19935756225E+01  0.22513308563E+02  0.28484626285E+02  0.25000077097E+00 0.  0.
    1000022    2    1    0    0    0 -0.39006221967E+02 -0.62133920851E+01 -0.47393654690E+02  0.62500001417E+02  0.10000003946E+02 0.  0.
    3000022    2    5    5    0    0 -0.17200243115E+02  0.21429051553E+01 -0.21478240278E+02  0.27601045538E+02  0.25000732137E+00 0.  0.
        -13    1    4    4    0    0  0.65192938138E+01 -0.70430226111E+00  0.83955797228E+01  0.10653357095E+02  0.10500000000E+00 0.  1.
         13    1    4    4    0    0  0.10815296692E+02 -0.12892733614E+01  0.14117728840E+02  0.17831269190E+02  0.10500000000E+00 0. -1.
    3000001    1    5    5    0    0 -0.21805978853E+02 -0.83562972404E+01 -0.25915414412E+02  0.34898955879E+02  0.10000000000E+01 0.  1.
        -13    1    6    6    0    0 -0.84339056904E+01  0.10831577761E+01 -0.10441560099E+02  0.13466298610E+02  0.10500000000E+00 0. -1.
         13    1    6    6    0    0 -0.87663374243E+01  0.10597473792E+01 -0.11036680179E+02  0.14134746928E+02  0.10500000000E+00 0.  1.
</event>
<event>
11    0  0.3482687E-009  0.9118800E+02  0.7816531E-02  0.1126479E+00
         25   -1    0    0    0    0  0.00000000000E+00  0.00000000000E+00  0.99999998245E-14  0.12500000000E+03  0.12500000000E+03 0.  0.
    3000001    1    3    3    0    0  0.35442682367E+01  0.23840123783E+02  0.17445714370E+02  0.29770224877E+02  0.10000000000E+01 0.  1.
    1000022    2    1    0    0    0  0.94506340185E+01  0.54437895050E+02  0.27449063832E+02  0.62500001178E+02  0.10000007063E+02 0.  0.
    3000022    2    3    3    0    0  0.59063657818E+01  0.30597771266E+02  0.10003349462E+02  0.32729776302E+02  0.24998614527E+00 0.  0.
    1000022    2    1    0    0    0 -0.94506340185E+01 -0.54437895050E+02 -0.27449063832E+02  0.62499998822E+02  0.99999923336E+01 0.  0.
    3000022    2    5    5    0    0 -0.67337195193E+01 -0.16849561870E+02 -0.12010999384E+02  0.21761831834E+02  0.25000958231E+00 0.  0.
        -13    1    4    4    0    0  0.27533369393E+01  0.14200460840E+02  0.45738632669E+01  0.15171196477E+02  0.10500000000E+00 0. -1.
         13    1    4    4    0    0  0.31530288425E+01  0.16397310427E+02  0.54294861947E+01  0.17558579824E+02  0.10500000000E+00 0.  1.
    3000001    1    5    5    0    0 -0.27169144992E+01 -0.37588333179E+02 -0.15438064448E+02  0.40738166987E+02  0.10000000000E+01 0.  1.
        -13    1    6    6    0    0 -0.29798175395E+01 -0.75399868192E+01 -0.54372280717E+01  0.97624376007E+01  0.10500000000E+00 0. -1.
         13    1    6    6    0    0 -0.37539019797E+01 -0.93095750510E+01 -0.65737713125E+01  0.11999394234E+02  0.10500000000E+00 0.  1.
</event>
<event>
11    0  0.3482687E-009  0.9118800E+02  0.7816531E-02  0.1126479E+00
         25   -1    0    0    0    0  0.00000000000E+00  0.00000000000E+00  0.99999998245E-14  0.12500000000E+03  0.12500000000E+03 0.  0.
    3000001    1    3    3    0    0 -0.17171628667E+02 -0.56397523717E+01 -0.40721798108E+01  0.18554090824E+02  0.10000000000E+01 0.  1.
    1000022    2    1    0    0    0 -0.54639923561E+02 -0.28544581352E+02 -0.24363141101E+01  0.62499999857E+02  0.99999992177E+01 0.  0.
    3000022    2    3    3    0    0 -0.37468294894E+02 -0.22904828981E+02  0.16358657006E+01  0.43945909033E+02  0.25010249992E+00 0.  0.
    1000022    2    1    0    0    0  0.54639923561E+02  0.28544581352E+02  0.24363141101E+01  0.62500000143E+02  0.10000001007E+02 0.  0.
    3000022    2    5    5    0    0  0.80489059432E+00  0.11687821383E+01 -0.13538408443E+01  0.19771909577E+01  0.24999699187E+00 0.  0.
        -13    1    4    4    0    0 -0.27656259492E+02 -0.16931678629E+02  0.11834395075E+01  0.32449375716E+02  0.10500000000E+00 0.  1.
         13    1    4    4    0    0 -0.98120354017E+01 -0.59731503519E+01  0.45242619310E+00  0.11496533317E+02  0.10500000000E+00 0. -1.
    3000001    1    5    5    0    0  0.53835032967E+02  0.27375799214E+02  0.37901549544E+01  0.60522809185E+02  0.10000000000E+01 0. -1.
        -13    1    6    6    0    0  0.56178330121E+00  0.87856846370E+00 -0.98491855661E+00  0.14382533108E+01  0.10500000000E+00 0.  1.
         13    1    6    6    0    0  0.24310729311E+00  0.29021367459E+00 -0.36892228769E+00  0.53893764689E+00  0.10500000000E+00 0. -1.
</event>
<event>
11    0  0.3482687E-009  0.9118800E+02  0.7816531E-02  0.1126479E+00
         25   -1    0    0    0    0  0.00000000000E+00  0.00000000000E+00  0.99999998245E-14  0.12500000000E+03  0.12500000000E+03 0.  0.
    3000001    1    3    3    0    0 -0.22184906479E+02  0.39605409296E+01 -0.77556334181E+01  0.23853842660E+02  0.10000000000E+01 0. -1.
    1000022    2    1    0    0    0 -0.51769766859E+02  0.13787836663E+02 -0.30594711948E+02  0.62500003040E+02  0.10000039013E+02 0.  0.
    3000022    2    3    3    0    0 -0.29584860380E+02  0.98272957338E+01 -0.22839078530E+02  0.38646160380E+02  0.24999767314E+00 0.  0.
    1000022    2    1    0    0    0  0.51769766859E+02 -0.13787836663E+02  0.30594711948E+02  0.62499996960E+02  0.10000001019E+02 0.  0.
    3000022    2    5    5    0    0  0.90957385731E+01 -0.30017810939E+01  0.14264476563E+01  0.96871261173E+01  0.25001914270E+00 0.  0.
        -13    1    4    4    0    0 -0.13356065268E+02  0.43679619109E+01 -0.10313070419E+02  0.17430835240E+02  0.10500000000E+00 0.  1.
         13    1    4    4    0    0 -0.16228795112E+02  0.54593338229E+01 -0.12526008111E+02  0.21215325140E+02  0.10500000000E+00 0. -1.
    3000001    1    5    5    0    0  0.42674028286E+02 -0.10786055569E+02  0.29168264292E+02  0.52812870843E+02  0.10000000000E+01 0. -1.
        -13    1    6    6    0    0  0.57763722238E+01 -0.18487353692E+01  0.92576384331E+00  0.61361520700E+01  0.10500000000E+00 0.  1.
         13    1    6    6    0    0  0.33193663493E+01 -0.11530457247E+01  0.50068381299E+00  0.35509740473E+01  0.10500000000E+00 0. -1.
</event>
<event>
11    0  0.3482687E-009  0.9118800E+02  0.7816531E-02  0.1126479E+00
         25   -1    0    0    0    0  0.00000000000E+00  0.00000000000E+00  0.99999998245E-14  0.12500000000E+03  0.12500000000E+03 0.  0.
    3000001    1    3    3    0    0  0.50125613608E+02 -0.82721346374E+01  0.21412673879E+02  0.55140801170E+02  0.10000000000E+01 0. -1.
    1000022    2    1    0    0    0  0.57260252754E+02 -0.99174488341E+01  0.20716127679E+02  0.62500000893E+02  0.99999914383E+01 0.  0.
    3000022    2    3    3    0    0  0.71346391465E+01 -0.16453141966E+01 -0.69654620039E+00  0.73591997230E+01  0.25001879469E+00 0.  0.
    1000022    2    1    0    0    0 -0.57260252754E+02  0.99174488341E+01 -0.20716127679E+02  0.62499999107E+02  0.99999802766E+01 0.  0.
    3000022    2    5    5    0    0 -0.20629664868E+02  0.12757331238E+01 -0.29877203918E+01  0.20885390563E+02  0.24999656779E+00 0.  0.
        -13    1    4    4    0    0  0.26140337894E+01 -0.65065541298E+00 -0.21957164658E+00  0.27047665013E+01  0.10500000000E+00 0.  1.
         13    1    4    4    0    0  0.45206053571E+01 -0.99465878367E+00 -0.47697455380E+00  0.46544332218E+01  0.10500000000E+00 0. -1.
    3000001    1    5    5    0    0 -0.36630587887E+02  0.86417157102E+01 -0.17728407287E+02  0.41614608544E+02  0.10000000000E+01 0. -1.
        -13    1    6    6    0    0 -0.15132778068E+02  0.93068996061E+00 -0.21569828496E+01  0.15314397013E+02  0.10500000000E+00 0.  1.
         13    1    6    6    0    0 -0.54968867999E+01  0.34504316324E+00 -0.83073754226E+00  0.55709935505E+01  0.10500000000E+00 0. -1.
</event>
<event>
11    0  0.3482687E-009  0.9118800E+02  0.7816531E-02  0.1126479E+00
         25   -1    0    0    0    0  0.00000000000E+00  0.00000000000E+00  0.99999998245E-14  0.12500000000E+03  0.12500000000E+03 0.  0.
    3000001    1    3    3    0    0  0.49043137432E+01 -0.19133715575E+02  0.26123094973E+02  0.32765339247E+02  0.10000000000E+01 0.  1.
    1000022    2    1    0    0    0  0.15044315886E+02 -0.29343462974E+02  0.52142876759E+02  0.62500001120E+02  0.10000014176E+02 0.  0.
    3000022    2    3    3    0    0  0.10140002143E+02 -0.10209747398E+02  0.26019781785E+02  0.29734661873E+02  0.24997421515E+00 0.  0.
    1000022    2    1    0    0    0 -0.15044315886E+02  0.29343462974E+02 -0.52142876759E+02  0.62499998880E+02  0.10000000181E+02 0.  0.
    3000022    2    5    5    0    0 -0.26457658910E+01  0.76249161661E+01 -0.21303139674E+02  0.22782135130E+02  0.24999488174E+00 0.  0.
        -13    1    4    4    0    0  0.41717627399E+01 -0.41142493448E+01  0.10634722755E+02  0.12142446422E+02  0.10500000000E+00 0. -1.
         13    1    4    4    0    0  0.59682394031E+01 -0.60954980537E+01  0.15385059030E+02  0.17592215451E+02  0.10500000000E+00 0.  1.
    3000001    1    5    5    0    0 -0.12398549995E+02  0.21718546808E+02 -0.30839737085E+02  0.39717863750E+02  0.10000000000E+01 0. -1.
        -13    1    6    6    0    0 -0.10889802707E+01  0.29520485137E+01 -0.83355172004E+01  0.89102379573E+01  0.10500000000E+00 0.  1.
         13    1    6    6    0    0 -0.15567856203E+01  0.46728676525E+01 -0.12967622473E+02  0.13871897173E+02  0.10500000000E+00 0. -1.
</event>
<event>
11    0  0.3482687E-009  0.9118800E+02  0.7816531E-02  0.1126479E+00
         25   -1    0    0    0    0  0.00000000000E+00  0.00000000000E+00  0.99999998245E-14  0.12500000000E+03  0.12500000000E+03 0.  0.
    3000001    1    3    3    0    0 -0.72903644255E+01 -0.19532031743E+02 -0.46129797816E+01  0.21375903722E+02  0.10000000000E+01 0. -1.
    1000022    2    1    0    0    0 -0.31064153883E+02 -0.49627298141E+02 -0.19452483492E+02  0.62500002433E+02  0.10000040642E+02 0.  0.
    3000022    2    3    3    0    0 -0.23773789457E+02 -0.30095266398E+02 -0.14839503711E+02  0.41124098711E+02  0.24999931951E+00 0.  0.
    1000022    2    1    0    0    0  0.31064153883E+02  0.49627298141E+02  0.19452483492E+02  0.62499997567E+02  0.10000010233E+02 0.  0.
    3000022    2    5    5    0    0  0.80969725408E+01  0.85026719203E+01  0.73575928800E+01  0.13858321203E+02  0.24999893913E+00 0.  0.
        -13    1    4    4    0    0 -0.17273837133E+02 -0.21870608547E+02 -0.10743333518E+02  0.29868699463E+02  0.10500000000E+00 0. -1.
         13    1    4    4    0    0 -0.64999523236E+01 -0.82246578510E+01 -0.40961701930E+01  0.11255399248E+02  0.10500000000E+00 0.  1.
    3000001    1    5    5    0    0  0.22967181342E+02  0.41124626221E+02  0.12094890612E+02  0.48641676364E+02  0.10000000000E+01 0.  1.
        -13    1    6    6    0    0  0.37057225259E+01  0.39828086018E+01  0.33814667797E+01  0.64062849124E+01  0.10500000000E+00 0.  1.
         13    1    6    6    0    0  0.43912500149E+01  0.45198633185E+01  0.39761261003E+01  0.74520362907E+01  0.10500000000E+00 0. -1.
</event>
<event>
11    0  0.3482687E-009  0.9118800E+02  0.7816531E-02  0.1126479E+00
         25   -1    0    0    0    0  0.00000000000E+00  0.00000000000E+00  0.99999998245E-14  0.12500000000E+03  0.12500000000E+03 0.  0.
    3000001    1    3    3    0    0 -0.14095949964E+02 -0.14393725457E+02  0.36324498503E+00  0.20174416592E+02  0.10000000000E+01 0. -1.
    1000022    2    1    0    0    0 -0.45628112294E+02 -0.39054184259E+02  0.14110168669E+02  0.62500010531E+02  0.10000025844E+02 0.  0.
    3000022    2    3    3    0    0 -0.31532162330E+02 -0.24660458802E+02  0.13746923684E+02  0.42325593939E+02  0.25000396858E+00 0.  0.
    1000022    2    1    0    0    0  0.45628112294E+02  0.39054184259E+02 -0.14110168669E+02  0.62499989469E+02  0.99998942052E+01 0.  0.
    3000022    2    5    5    0    0  0.24777620466E+02  0.20859914883E+02 -0.25413983949E+01  0.32489809642E+02  0.24999978365E+00 0.  0.
        -13    1    4    4    0    0 -0.22326731220E+02 -0.17454303471E+02  0.97778249763E+01  0.29979201505E+02  0.10500000000E+00 0.  1.
         13    1    4    4    0    0 -0.92054311099E+01 -0.72061553310E+01  0.39690987076E+01  0.12346392434E+02  0.10500000000E+00 0. -1.
    3000001    1    5    5    0    0  0.20850491828E+02  0.18194269376E+02 -0.11568770274E+02  0.30010179827E+02  0.10000000000E+01 0. -1.
        -13    1    6    6    0    0  0.16857197920E+02  0.14144540645E+02 -0.16907100420E+01  0.22070402742E+02  0.10500000000E+00 0. -1.
         13    1    6    6    0    0  0.79204225459E+01  0.67153742387E+01 -0.85068835293E+00  0.10419406900E+02  0.10500000000E+00 0.  1.
</event>
<event>
11    0  0.3482687E-009  0.9118800E+02  0.7816531E-02  0.1126479E+00
         25   -1    0    0    0    0  0.00000000000E+00  0.00000000000E+00  0.99999998245E-14  0.12500000000E+03  0.12500000000E+03 0.  0.
    3000001    1    3    3    0    0 -0.12356044988E+02  0.39693387506E+02  0.14920870535E+02  0.44179964203E+02  0.10000000000E+01 0.  1.
    1000022    2    1    0    0    0 -0.11204809837E+02  0.56435719996E+02  0.22264587995E+02  0.62500000238E+02  0.99999948108E+01 0.  0.
    3000022    2    3    3    0    0  0.11512351508E+01  0.16742332490E+02  0.73437174607E+01  0.18320036035E+02  0.24998923958E+00 0.  0.
    1000022    2    1    0    0    0  0.11204809837E+02 -0.56435719996E+02 -0.22264587995E+02  0.62499999762E+02  0.99999918336E+01 0.  0.
    3000022    2    5    5    0    0  0.34164792854E+01 -0.17837566894E+02 -0.12086839140E+02  0.21817545468E+02  0.24997283403E+00 0.  0.
        -13    1    4    4    0    0  0.65916416618E+00  0.10223995171E+02  0.44352244317E+01  0.11164533820E+02  0.10500000000E+00 0.  1.
         13    1    4    4    0    0  0.49207098457E+00  0.65183373189E+01  0.29084930290E+01  0.71555022156E+01  0.10500000000E+00 0. -1.
    3000001    1    5    5    0    0  0.77883305516E+01 -0.38598153102E+02 -0.10177748856E+02  0.40682454294E+02  0.10000000000E+01 0. -1.
        -13    1    6    6    0    0  0.10274213554E+01 -0.53182605588E+01 -0.36586799934E+01  0.65373124682E+01  0.10500000000E+00 0.  1.
         13    1    6    6    0    0  0.23890579299E+01 -0.12519306336E+02 -0.84281591464E+01  0.15280232999E+02  0.10500000000E+00 0. -1.
</event>
<event>
11    0  0.3482687E-009  0.9118800E+02  0.7816531E-02  0.1126479E+00
         25   -1    0    0    0    0  0.00000000000E+00  0.00000000000E+00  0.99999998245E-14  0.12500000000E+03  0.12500000000E+03 0.  0.
    3000001    1    3    3    0    0 -0.10557195723E+02  0.12398104956E+02  0.21689036967E+01  0.16458175211E+02  0.10000000000E+01 0.  1.
    1000022    2    1    0    0    0 -0.49925174451E+02  0.36235359932E+02  0.85182967010E+00  0.62500000299E+02  0.10000003513E+02 0.  0.
    3000022    2    3    3    0    0 -0.39367978728E+02  0.23837254976E+02 -0.13170740266E+01  0.46041825088E+02  0.24999904777E+00 0.  0.
    1000022    2    1    0    0    0  0.49925174451E+02 -0.36235359932E+02 -0.85182967010E+00  0.62499999701E+02  0.99999997769E+01 0.  0.
    3000022    2    5    5    0    0  0.93707528115E+01 -0.24345459568E+01 -0.44900308552E+00  0.96954695061E+01  0.25000580509E+00 0.  0.
        -13    1    4    4    0    0 -0.12869143166E+02  0.78136613678E+01 -0.47984418221E+00  0.15063513044E+02  0.10500000000E+00 0.  1.
         13    1    4    4    0    0 -0.26498835562E+02  0.16023593608E+02 -0.83722984441E+00  0.30978312044E+02  0.10500000000E+00 0. -1.
    3000001    1    5    5    0    0  0.40554421639E+02 -0.33800813975E+02 -0.40282658458E+00  0.52804530195E+02  0.10000000000E+01 0.  1.
        -13    1    6    6    0    0  0.41795893607E+01 -0.11452860029E+01 -0.16744638801E+00  0.43381690315E+01  0.10500000000E+00 0. -1.
         13    1    6    6    0    0  0.51911634508E+01 -0.12892599538E+01 -0.28155669752E+00  0.53573004746E+01  0.10500000000E+00 0.  1.
</event>
<event>
11    0  0.3482687E-009  0.9118800E+02  0.7816531E-02  0.1126479E+00
         25   -1    0    0    0    0  0.00000000000E+00  0.00000000000E+00  0.99999998245E-14  0.12500000000E+03  0.12500000000E+03 0.  0.
    3000001    1    3    3    0    0  0.99670259226E+00  0.14218519208E+02  0.18793430223E+01  0.14411510494E+02  0.10000000000E+01 0.  1.
    1000022    2    1    0    0    0  0.11367283019E+02  0.55894063531E+02  0.23513589924E+02  0.62500002476E+02  0.99999968572E+01 0.  0.
    3000022    2    3    3    0    0  0.10370580426E+02  0.41675544324E+02  0.21634246902E+02  0.48088491983E+02  0.24997816691E+00 0.  0.
    1000022    2    1    0    0    0 -0.11367283019E+02 -0.55894063531E+02 -0.23513589924E+02  0.62499997524E+02  0.99999659014E+01 0.  0.
    3000022    2    5    5    0    0 -0.45377899008E+01 -0.43316153599E+02 -0.17267036743E+02  0.46851827625E+02  0.24998832394E+00 0.  0.
        -13    1    4    4    0    0  0.39198898523E+01  0.15665962981E+02  0.80717591338E+01  0.18054147809E+02  0.10500000000E+00 0. -1.
         13    1    4    4    0    0  0.64506905741E+01  0.26009581342E+02  0.13562487768E+02  0.30034344174E+02  0.10500000000E+00 0.  1.
    3000001    1    5    5    0    0 -0.68294931178E+01 -0.12577909933E+02 -0.62465531812E+01  0.15648169898E+02  0.10000000000E+01 0.  1.
        -13    1    6    6    0    0 -0.22931169573E+01 -0.22352251214E+02 -0.88571289292E+01  0.24152459038E+02  0.10500000000E+00 0.  1.
         13    1    6    6    0    0 -0.22446729435E+01 -0.20963902384E+02 -0.84099078141E+01  0.22699368587E+02  0.10500000000E+00 0. -1.
</event>
<event>
11    0  0.3482687E-009  0.9118800E+02  0.7816531E-02  0.1126479E+00
         25   -1    0    0    0    0  0.00000000000E+00  0.00000000000E+00  0.99999998245E-14  0.12500000000E+03  0.12500000000E+03 0.  0.
    3000001    1    3    3    0    0 -0.47460076775E+00  0.13213734360E+01  0.57933489285E+01  0.60443498785E+01  0.10000000000E+01 0. -1.
    1000022    2    1    0    0    0 -0.12427683073E+02 -0.14244722390E+02  0.58727254986E+02  0.62499999982E+02  0.10000004848E+02 0.  0.
    3000022    2    3    3    0    0 -0.11953082306E+02 -0.15566095826E+02  0.52933906058E+02  0.56455650103E+02  0.25000438315E+00 0.  0.
    1000022    2    1    0    0    0  0.12427683073E+02  0.14244722390E+02 -0.58727254986E+02  0.62500000018E+02  0.10000005077E+02 0.  0.
    3000022    2    5    5    0    0  0.34445113146E+01 -0.79627263188E+00 -0.14302339347E+02  0.14734928726E+02  0.25001086975E+00 0.  0.
        -13    1    4    4    0    0 -0.46181812212E+01 -0.61085802668E+01  0.20721122894E+02  0.22091136450E+02  0.10500000000E+00 0.  1.
         13    1    4    4    0    0 -0.73349010846E+01 -0.94575155595E+01  0.32212783163E+02  0.34364513653E+02  0.10500000000E+00 0. -1.
    3000001    1    5    5    0    0  0.89831717589E+01  0.15040995022E+02 -0.44424915639E+02  0.47765071293E+02  0.10000000000E+01 0.  1.
        -13    1    6    6    0    0  0.17249049699E+01 -0.45973970747E+00 -0.70814920110E+01  0.73037806550E+01  0.10500000000E+00 0.  1.
         13    1    6    6    0    0  0.17196063447E+01 -0.33653292441E+00 -0.72208473364E+01  0.74311480705E+01  0.10500000000E+00 0. -1.
</event>
<event>
11    0  0.3482687E-009  0.9118800E+02  0.7816531E-02  0.1126479E+00
         25   -1    0    0    0    0  0.00000000000E+00  0.00000000000E+00  0.99999998245E-14  0.12500000000E+03  0.12500000000E+03 0.  0.
    3000001    1    3    3    0    0 -0.87071362212E+01 -0.12492108868E+02  0.27687911075E+02  0.31614671038E+02  0.10000000000E+01 0.  1.
    1000022    2    1    0    0    0 -0.24519968027E+02 -0.28055484773E+02  0.49172255291E+02  0.62500005055E+02  0.10000044178E+02 0.  0.
    3000022    2    3    3    0    0 -0.15812831806E+02 -0.15563375906E+02  0.21484344216E+02  0.30885334018E+02  0.24998332753E+00 0.  0.
    1000022    2    1    0    0    0  0.24519968027E+02  0.28055484773E+02 -0.49172255291E+02  0.62499994945E+02  0.99999809859E+01 0.  0.
    3000022    2    5    5    0    0  0.11987229959E+02  0.20623001974E+02 -0.28084399500E+02  0.36848309115E+02  0.24999363161E+00 0.  0.
        -13    1    4    4    0    0 -0.70641363765E+01 -0.70446692482E+01  0.96437806509E+01  0.13875983490E+02  0.10500000000E+00 0.  1.
         13    1    4    4    0    0 -0.87486954293E+01 -0.85187066576E+01  0.11840563565E+02  0.17009350528E+02  0.10500000000E+00 0. -1.
    3000001    1    5    5    0    0  0.12532738069E+02  0.74324827996E+01 -0.21087855791E+02  0.25651685830E+02  0.10000000000E+01 0.  1.
        -13    1    6    6    0    0  0.31585831812E+01  0.54296897322E+01 -0.74474859669E+01  0.97434208842E+01  0.10500000000E+00 0. -1.
         13    1    6    6    0    0  0.88286467774E+01  0.15193312242E+02 -0.20636913533E+02  0.27104888230E+02  0.10500000000E+00 0.  1.
</event>
<event>
11    0  0.3482687E-009  0.9118800E+02  0.7816531E-02  0.1126479E+00
         25   -1    0    0    0    0  0.00000000000E+00  0.00000000000E+00  0.99999998245E-14  0.12500000000E+03  0.12500000000E+03 0.  0.
    3000001    1    3    3    0    0 -0.71723232039E+01 -0.65505944484E+01  0.39321084617E+01  0.10526822157E+02  0.10000000000E+01 0.  1.
    1000022    2    1    0    0    0 -0.38610622203E+02 -0.26249860928E+02  0.40328829245E+02  0.62500003055E+02  0.10000028399E+02 0.  0.
    3000022    2    3    3    0    0 -0.31438299000E+02 -0.19699266479E+02  0.36396720784E+02  0.51973180899E+02  0.25001023291E+00 0.  0.
    1000022    2    1    0    0    0  0.38610622203E+02  0.26249860928E+02 -0.40328829245E+02  0.62499996945E+02  0.99999902061E+01 0.  0.
    3000022    2    5    5    0    0  0.31849884495E+02  0.23316742857E+02 -0.29136547306E+02  0.49062068124E+02  0.24999980728E+00 0.  0.
        -13    1    4    4    0    0 -0.15802151428E+02 -0.98418658434E+01  0.18200114487E+02  0.26035082204E+02  0.10500000000E+00 0. -1.
         13    1    4    4    0    0 -0.15636147571E+02 -0.98574006358E+01  0.18196606297E+02  0.25938098695E+02  0.10500000000E+00 0.  1.
    3000001    1    5    5    0    0  0.67607377089E+01  0.29331180711E+01 -0.11192281939E+02  0.13437928821E+02  0.10000000000E+01 0.  1.
        -13    1    6    6    0    0  0.20309508354E+02  0.14799396858E+02 -0.18572323012E+02  0.31248047684E+02  0.10500000000E+00 0.  1.
         13    1    6    6    0    0  0.11540376140E+02  0.85173459986E+01 -0.10564224294E+02  0.17814020440E+02  0.10500000000E+00 0. -1.
</event>
<event>
11    0  0.3482687E-009  0.9118800E+02  0.7816531E-02  0.1126479E+00
         25   -1    0    0    0    0  0.00000000000E+00  0.00000000000E+00  0.99999998245E-14  0.12500000000E+03  0.12500000000E+03 0.  0.
    3000001    1    3    3    0    0 -0.18288228206E+02  0.48769238695E+02 -0.27824946518E+02  0.59060355422E+02  0.10000000000E+01 0.  1.
    1000022    2    1    0    0    0 -0.19522754484E+02  0.49712346725E+02 -0.30883562343E+02  0.62499997756E+02  0.99999968444E+01 0.  0.
    3000022    2    3    3    0    0 -0.12345262780E+01  0.94310803013E+00 -0.30586158247E+01  0.34396423338E+01  0.25000146644E+00 0.  0.
    1000022    2    1    0    0    0  0.19522754484E+02 -0.49712346725E+02  0.30883562343E+02  0.62500002244E+02  0.10000024900E+02 0.  0.
    3000022    2    5    5    0    0  0.14273142687E+02 -0.43367733408E+02  0.28678421446E+02  0.53916577023E+02  0.25003614810E+00 0.  0.
        -13    1    4    4    0    0 -0.90751014006E+00  0.66935389921E+00 -0.21287839117E+01  0.24112974183E+01  0.10500000000E+00 0. -1.
         13    1    4    4    0    0 -0.32701613797E+00  0.27375413092E+00 -0.92983191305E+00  0.10283449155E+01  0.10500000000E+00 0.  1.
    3000001    1    5    5    0    0  0.52496117969E+01 -0.63446133173E+01  0.22051408963E+01  0.85834252217E+01  0.10000000000E+01 0. -1.
        -13    1    6    6    0    0  0.91571451160E+01 -0.27767910334E+02  0.18300485058E+02  0.34493896987E+02  0.10500000000E+00 0. -1.
         13    1    6    6    0    0  0.51159975715E+01 -0.15599823074E+02  0.10377936389E+02  0.19422680036E+02  0.10500000000E+00 0.  1.
</event>
<event>
11    0  0.3482687E-009  0.9118800E+02  0.7816531E-02  0.1126479E+00
         25   -1    0    0    0    0  0.00000000000E+00  0.00000000000E+00  0.99999998245E-14  0.12500000000E+03  0.12500000000E+03 0.  0.
    3000001    1    3    3    0    0  0.39083556446E+01  0.27893177193E+02 -0.43086361966E+02  0.51485329611E+02  0.10000000000E+01 0.  1.
    1000022    2    1    0    0    0  0.69086256983E+01  0.36512635891E+02 -0.49247830224E+02  0.62499996165E+02  0.99999525011E+01 0.  0.
    3000022    2    3    3    0    0  0.30002700537E+01  0.86194586989E+01 -0.61614682589E+01  0.11014666554E+02  0.24999905999E+00 0.  0.
    1000022    2    1    0    0    0 -0.69086256983E+01 -0.36512635891E+02  0.49247830224E+02  0.62500003835E+02  0.10000000439E+02 0.  0.
    3000022    2    5    5    0    0 -0.85566009481E+01 -0.34590939976E+02  0.46924984155E+02  0.58921686985E+02  0.25002204593E+00 0.  0.
        -13    1    4    4    0    0  0.16712747508E+01  0.49837979981E+01 -0.35787660396E+01  0.63600309075E+01  0.10500000000E+00 0. -1.
         13    1    4    4    0    0  0.13289953029E+01  0.36356607008E+01 -0.25827022193E+01  0.46546356463E+01  0.10500000000E+00 0.  1.
    3000001    1    5    5    0    0  0.16479752499E+01 -0.19216959156E+01  0.23228460700E+01  0.35783168503E+01  0.10000000000E+01 0. -1.
        -13    1    6    6    0    0 -0.62733122236E+01 -0.25209295569E+02  0.34205636249E+02  0.42952294532E+02  0.10500000000E+00 0.  1.
         13    1    6    6    0    0 -0.22832887246E+01 -0.93816444070E+01  0.12719347905E+02  0.15969392453E+02  0.10500000000E+00 0. -1.
</event>
<event>
11    0  0.3482687E-009  0.9118800E+02  0.7816531E-02  0.1126479E+00
         25   -1    0    0    0    0  0.00000000000E+00  0.00000000000E+00  0.99999998245E-14  0.12500000000E+03  0.12500000000E+03 0.  0.
    3000001    1    3    3    0    0 -0.12154176353E+02  0.24397351296E+02  0.51764467615E+02  0.58510809775E+02  0.10000000000E+01 0. -1.
    1000022    2    1    0    0    0 -0.10936754692E+02  0.27252213729E+02  0.54258218045E+02  0.62500001054E+02  0.10000007503E+02 0.  0.
    3000022    2    3    3    0    0  0.12174216612E+01  0.28548624330E+01  0.24937504298E+01  0.39891912790E+01  0.25000168332E+00 0.  0.
    1000022    2    1    0    0    0  0.10936754692E+02 -0.27252213729E+02 -0.54258218045E+02  0.62499998946E+02  0.99999943295E+01 0.  0.
    3000022    2    5    5    0    0  0.54799369367E+01 -0.69131818945E+01 -0.24417597196E+02  0.25963500364E+02  0.25001125137E+00 0.  0.
        -13    1    4    4    0    0  0.79600578338E+00  0.19468829547E+01  0.17390249611E+01  0.27311556641E+01  0.10500000000E+00 0. -1.
         13    1    4    4    0    0  0.42141587779E+00  0.90797947831E+00  0.75472546875E+00  0.12580356149E+01  0.10500000000E+00 0.  1.
    3000001    1    5    5    0    0  0.54568177554E+01 -0.20339031834E+02 -0.29840620849E+02  0.36536498582E+02  0.10000000000E+01 0. -1.
        -13    1    6    6    0    0  0.40657564921E+01 -0.50890148355E+01 -0.17963458418E+02  0.19108252437E+02  0.10500000000E+00 0. -1.
         13    1    6    6    0    0  0.14141804445E+01 -0.18241670590E+01 -0.64541387778E+01  0.68552479278E+01  0.10500000000E+00 0.  1.
</event>
<event>
11    0  0.3482687E-009  0.9118800E+02  0.7816531E-02  0.1126479E+00
         25   -1    0    0    0    0  0.00000000000E+00  0.00000000000E+00  0.99999998245E-14  0.12500000000E+03  0.12500000000E+03 0.  0.
    3000001    1    3    3    0    0 -0.35228029793E+02 -0.87834772413E+01 -0.40871252311E+02  0.54677443439E+02  0.10000000000E+01 0. -1.
    1000022    2    1    0    0    0 -0.38598961087E+02 -0.13364713347E+02 -0.46235858180E+02  0.62500000321E+02  0.10000004932E+02 0.  0.
    3000022    2    3    3    0    0 -0.33709312942E+01 -0.45812361059E+01 -0.53646058684E+01  0.78225568818E+01  0.24999599625E+00 0.  0.
    1000022    2    1    0    0    0  0.38598961087E+02  0.13364713347E+02  0.46235858180E+02  0.62499999679E+02  0.10000000920E+02 0.  0.
    3000022    2    5    5    0    0  0.38646598154E+02  0.12648817649E+02  0.43773899255E+02  0.59747543015E+02  0.25000710199E+00 0.  0.
        -13    1    4    4    0    0 -0.10104430091E+01 -0.13206292601E+01 -0.15281851544E+01  0.22608475365E+01  0.10500000000E+00 0. -1.
         13    1    4    4    0    0 -0.23604882850E+01 -0.32606068458E+01 -0.38364207141E+01  0.55617093453E+01  0.10500000000E+00 0.  1.
    3000001    1    5    5    0    0 -0.47637066827E-01  0.71589569820E+00  0.24619589242E+01  0.27524566637E+01  0.10000000000E+01 0. -1.
        -13    1    6    6    0    0  0.28568999057E+02  0.93176828828E+01  0.32359283492E+02  0.44160402789E+02  0.10500000000E+00 0.  1.
         13    1    6    6    0    0  0.10077599097E+02  0.33311347662E+01  0.11414615764E+02  0.15587140226E+02  0.10500000000E+00 0. -1.
</event>
<event>
11    0  0.3482687E-009  0.9118800E+02  0.7816531E-02  0.1126479E+00
         25   -1    0    0    0    0  0.00000000000E+00  0.00000000000E+00  0.99999998245E-14  0.12500000000E+03  0.12500000000E+03 0.  0.
    3000001    1    3    3    0    0  0.10305891711E+02  0.52140965459E+02 -0.37483551207E+01  0.53291104784E+02  0.10000000000E+01 0.  1.
    1000022    2    1    0    0    0  0.11992247946E+02  0.59941048605E+02 -0.83370519679E+01  0.62499998683E+02  0.10000004060E+02 0.  0.
    3000022    2    3    3    0    0  0.16863562357E+01  0.78000831454E+01 -0.45886968471E+01  0.92088938988E+01  0.24998731156E+00 0.  0.
    1000022    2    1    0    0    0 -0.11992247946E+02 -0.59941048605E+02  0.83370519679E+01  0.62500001317E+02  0.10000020523E+02 0.  0.
    3000022    2    5    5    0    0  0.94734264022E+00 -0.15025221658E+02  0.29411975038E+00  0.15060004758E+02  0.24998586811E+00 0.  0.
        -13    1    4    4    0    0  0.73183618262E+00  0.32050692133E+01 -0.19502024800E+01  0.38239204455E+01  0.10500000000E+00 0. -1.
         13    1    4    4    0    0  0.95452005309E+00  0.45950139321E+01 -0.26384943671E+01  0.53849734533E+01  0.10500000000E+00 0.  1.
    3000001    1    5    5    0    0 -0.12939590587E+02 -0.44915826947E+02  0.80429322175E+01  0.47439996559E+02  0.10000000000E+01 0.  1.
        -13    1    6    6    0    0  0.42343960082E+00 -0.72512518091E+01  0.83204594918E-01  0.72648401152E+01  0.10500000000E+00 0.  1.
         13    1    6    6    0    0  0.52390303941E+00 -0.77739698490E+01  0.21091515547E+00  0.77951646429E+01  0.10500000000E+00 0. -1.
</event>
<event>
11    0  0.3482687E-009  0.9118800E+02  0.7816531E-02  0.1126479E+00
         25   -1    0    0    0    0  0.00000000000E+00  0.00000000000E+00  0.99999998245E-14  0.12500000000E+03  0.12500000000E+03 0.  0.
    3000001    1    3    3    0    0 -0.68743404947E+01 -0.49543769452E+02  0.23644230976E+01  0.50084250472E+02  0.10000000000E+01 0. -1.
    1000022    2    1    0    0    0 -0.12109886559E+02 -0.60494171624E+02 -0.23673951930E+00  0.62499998338E+02  0.99999796889E+01 0.  0.
    3000022    2    3    3    0    0 -0.52355460643E+01 -0.10950402171E+02 -0.26011626169E+01  0.12415747866E+02  0.24999561481E+00 0.  0.
    1000022    2    1    0    0    0  0.12109886559E+02  0.60494171624E+02  0.23673951930E+00  0.62500001662E+02  0.10000000462E+02 0.  0.
    3000022    2    5    5    0    0  0.33357271563E+01  0.22695238382E+02  0.47331666007E+01  0.23423626651E+02  0.24999714984E+00 0.  0.
        -13    1    4    4    0    0 -0.29101936055E+01 -0.61310639417E+01 -0.15191693434E+01  0.69554347364E+01  0.10500000000E+00 0. -1.
         13    1    4    4    0    0 -0.23253524588E+01 -0.48193382295E+01 -0.10819932735E+01  0.54603131295E+01  0.10500000000E+00 0.  1.
    3000001    1    5    5    0    0  0.87741594027E+01  0.37798933242E+02 -0.44964270814E+01  0.39076375010E+02  0.10000000000E+01 0.  1.
        -13    1    6    6    0    0  0.18053279548E+01  0.12720004434E+02  0.26694902611E+01  0.13122306393E+02  0.10500000000E+00 0.  1.
         13    1    6    6    0    0  0.15303992015E+01  0.99752339478E+01  0.20636763396E+01  0.10301320258E+02  0.10500000000E+00 0. -1.
</event>
<event>
11    0  0.3482687E-009  0.9118800E+02  0.7816531E-02  0.1126479E+00
         25   -1    0    0    0    0  0.00000000000E+00  0.00000000000E+00  0.99999998245E-14  0.12500000000E+03  0.12500000000E+03 0.  0.
    3000001    1    3    3    0    0  0.18208263433E+01 -0.13317272165E+02 -0.70464945149E+01  0.15209149596E+02  0.10000000000E+01 0.  1.
    1000022    2    1    0    0    0  0.77787916587E+01 -0.59912896548E+02 -0.12497410387E+02  0.62500000161E+02  0.99999990687E+01 0.  0.
    3000022    2    3    3    0    0  0.59579653154E+01 -0.46595624382E+02 -0.54509158717E+01  0.47290850565E+02  0.25000202655E+00 0.  0.
    1000022    2    1    0    0    0 -0.77787916587E+01  0.59912896548E+02  0.12497410387E+02  0.62499999839E+02  0.99999970555E+01 0.  0.
    3000022    2    5    5    0    0 -0.36867401557E+01  0.54461184292E+01  0.19227221048E+01  0.68565021384E+01  0.25000472150E+00 0.  0.
        -13    1    4    4    0    0  0.42106184432E+01 -0.32709193142E+02 -0.37910325032E+01  0.33196439208E+02  0.10500000000E+00 0.  1.
         13    1    4    4    0    0  0.17473468722E+01 -0.13886431240E+02 -0.16598833685E+01  0.14094411356E+02  0.10500000000E+00 0. -1.
    3000001    1    5    5    0    0 -0.40920515030E+01  0.54466778118E+02  0.10574688282E+02  0.55643497701E+02  0.10000000000E+01 0.  1.
        -13    1    6    6    0    0 -0.27627087818E+01  0.40452074593E+01  0.14536364750E+01  0.51108069034E+01  0.10500000000E+00 0.  1.
         13    1    6    6    0    0 -0.92403137391E+00  0.14009109699E+01  0.46908562977E+00  0.17456952350E+01  0.10500000000E+00 0. -1.
</event>
<event>
11    0  0.3482687E-009  0.9118800E+02  0.7816531E-02  0.1126479E+00
         25   -1    0    0    0    0  0.00000000000E+00  0.00000000000E+00  0.99999998245E-14  0.12500000000E+03  0.12500000000E+03 0.  0.
    3000001    1    3    3    0    0  0.76122799269E+01 -0.32040763829E+01 -0.48253062501E+02  0.48964997211E+02  0.10000000000E+01 0.  1.
    1000022    2    1    0    0    0  0.11551612340E+02  0.69134005096E+00 -0.60599770654E+02  0.62500000434E+02  0.10000007613E+02 0.  0.
    3000022    2    3    3    0    0  0.39393324132E+01  0.38954164338E+01 -0.12346708152E+02  0.13535003223E+02  0.25000196543E+00 0.  0.
    1000022    2    1    0    0    0 -0.11551612340E+02 -0.69134005096E+00  0.60599770654E+02  0.62499999566E+02  0.10000002186E+02 0.  0.
    3000022    2    5    5    0    0 -0.48669878770E+01 -0.47485518284E+01  0.19553732147E+02  0.20703798198E+02  0.25000703163E+00 0.  0.
        -13    1    4    4    0    0  0.21657769954E+01  0.22344460254E+01 -0.69389823106E+01  0.76055137592E+01  0.10500000000E+00 0.  1.
         13    1    4    4    0    0  0.17735554178E+01  0.16609704085E+01 -0.54077258417E+01  0.59294894634E+01  0.10500000000E+00 0. -1.
    3000001    1    5    5    0    0 -0.66846244631E+01  0.40572117774E+01  0.41046038507E+02  0.41796201367E+02  0.10000000000E+01 0. -1.
        -13    1    6    6    0    0 -0.33177169135E+01 -0.33000154126E+01  0.13508340473E+02  0.14296280445E+02  0.10500000000E+00 0.  1.
         13    1    6    6    0    0 -0.15492709635E+01 -0.14485364158E+01  0.60453916738E+01  0.64075177530E+01  0.10500000000E+00 0. -1.
</event>
<event>
11    0  0.3482687E-009  0.9118800E+02  0.7816531E-02  0.1126479E+00
         25   -1    0    0    0    0  0.00000000000E+00  0.00000000000E+00  0.99999998245E-14  0.12500000000E+03  0.12500000000E+03 0.  0.
    3000001    1    3    3    0    0  0.79223552082E+01 -0.32656167220E+02  0.26813990674E+02  0.43002082105E+02  0.10000000000E+01 0.  1.
    1000022    2    1    0    0    0  0.15107046214E+02 -0.42668706011E+02  0.41921458587E+02  0.62500000286E+02  0.10000001384E+02 0.  0.
    3000022    2    3    3    0    0  0.71846910057E+01 -0.10012538791E+02  0.15107467914E+02  0.19497918181E+02  0.25001745777E+00 0.  0.
    1000022    2    1    0    0    0 -0.15107046214E+02  0.42668706011E+02 -0.41921458587E+02  0.62499999714E+02  0.99999978072E+01 0.  0.
    3000022    2    5    5    0    0  0.96487259544E+00  0.23809784617E+01 -0.75029567631E+00  0.26880258225E+01  0.25000332003E+00 0.  0.
        -13    1    4    4    0    0  0.35405717789E+01 -0.48976377160E+01  0.75104231190E+01  0.96405385817E+01  0.10500000000E+00 0. -1.
         13    1    4    4    0    0  0.36441192268E+01 -0.51149010755E+01  0.75970447945E+01  0.98573795991E+01  0.10500000000E+00 0.  1.
    3000001    1    5    5    0    0 -0.16071918809E+02  0.40287727550E+02 -0.41171162911E+02  0.59811973891E+02  0.10000000000E+01 0.  1.
        -13    1    6    6    0    0  0.69373982195E+00  0.15895204027E+01 -0.53049419459E+00  0.18166725466E+01  0.10500000000E+00 0. -1.
         13    1    6    6    0    0  0.27113277349E+00  0.79145805897E+00 -0.21980148173E+00  0.87135327585E+00  0.10500000000E+00 0.  1.
</event>
<event>
11    0  0.3482687E-009  0.9118800E+02  0.7816531E-02  0.1126479E+00
         25   -1    0    0    0    0  0.00000000000E+00  0.00000000000E+00  0.99999998245E-14  0.12500000000E+03  0.12500000000E+03 0.  0.
    3000001    1    3    3    0    0  0.11344232431E+02  0.16821120947E+02  0.52215449695E+02  0.56027626277E+02  0.10000000000E+01 0. -1.
    1000022    2    1    0    0    0  0.11199440283E+02  0.15744793180E+02  0.58591159799E+02  0.62500000090E+02  0.10000001488E+02 0.  0.
    3000022    2    3    3    0    0 -0.14479214757E+00 -0.10763277667E+01  0.63757101037E+01  0.64723738134E+01  0.24999445275E+00 0.  0.
    1000022    2    1    0    0    0 -0.11199440283E+02 -0.15744793180E+02 -0.58591159799E+02  0.62499999910E+02  0.10000000361E+02 0.  0.
    3000022    2    5    5    0    0 -0.12891095910E+02 -0.14603050882E+02 -0.52158170512E+02  0.55677344605E+02  0.25000465944E+00 0.  0.
        -13    1    4    4    0    0 -0.19860960756E-01 -0.63356051396E+00  0.36995891570E+01  0.37549671520E+01  0.10500000000E+00 0. -1.
         13    1    4    4    0    0 -0.12493118681E+00 -0.44276725278E+00  0.26761209467E+01  0.27174066613E+01  0.10500000000E+00 0.  1.
    3000001    1    5    5    0    0  0.16916556273E+01 -0.11417422982E+01 -0.64329892871E+01  0.68226553045E+01  0.10000000000E+01 0.  1.
        -13    1    6    6    0    0 -0.50162005611E+01 -0.56114274618E+01 -0.20040463436E+02  0.21407512372E+02  0.10500000000E+00 0. -1.
         13    1    6    6    0    0 -0.78748953493E+01 -0.89916234203E+01 -0.32117707076E+02  0.34269832233E+02  0.10500000000E+00 0.  1.
</event>
<event>
11    0  0.3482687E-009  0.9118800E+02  0.7816531E-02  0.1126479E+00
         25   -1    0    0    0    0  0.00000000000E+00  0.00000000000E+00  0.99999998245E-14  0.12500000000E+03  0.12500000000E+03 0.  0.
    3000001    1    3    3    0    0 -0.24719914819E+02 -0.18957832229E+02 -0.17713332004E+02  0.35850184410E+02  0.10000000000E+01 0.  1.
    1000022    2    1    0    0    0 -0.43592039615E+02 -0.36927724676E+02 -0.23287919710E+02  0.62499999640E+02  0.99999991551E+01 0.  0.
    3000022    2    3    3    0    0 -0.18872124796E+02 -0.17969892446E+02 -0.55745877054E+01  0.26649815231E+02  0.24998980482E+00 0.  0.
    1000022    2    1    0    0    0  0.43592039615E+02  0.36927724676E+02  0.23287919710E+02  0.62500000360E+02  0.10000003651E+02 0.  0.
    3000022    2    5    5    0    0  0.15423720336E+02  0.19238071832E+02  0.11358227896E+02  0.27148966775E+02  0.24999838078E+00 0.  0.
        -13    1    4    4    0    0 -0.91621538713E+01 -0.86324767348E+01 -0.27063924814E+01  0.12876346664E+02  0.10500000000E+00 0.  1.
         13    1    4    4    0    0 -0.97099709246E+01 -0.93374157113E+01 -0.28681952240E+01  0.13773468567E+02  0.10500000000E+00 0. -1.
    3000001    1    5    5    0    0  0.28168319279E+02  0.17689652843E+02  0.11929691814E+02  0.35351033584E+02  0.10000000000E+01 0.  1.
        -13    1    6    6    0    0  0.63140346326E+01  0.77852984569E+01  0.45849722122E+01  0.11023198292E+02  0.10500000000E+00 0.  1.
         13    1    6    6    0    0  0.91096857038E+01  0.11452773375E+02  0.67732556835E+01  0.16125768483E+02  0.10500000000E+00 0. -1.
</event>
<event>
11    0  0.3482687E-009  0.9118800E+02  0.7816531E-02  0.1126479E+00
         25   -1    0    0    0    0  0.00000000000E+00  0.00000000000E+00  0.99999998245E-14  0.12500000000E+03  0.12500000000E+03 0.  0.
    3000001    1    3    3    0    0  0.10702591934E+02  0.36572453498E+01  0.19706476553E+02  0.22743485568E+02  0.10000000000E+01 0.  1.
    1000022    2    1    0    0    0  0.19938243934E+02  0.21426191225E+01  0.58344885028E+02  0.62500000079E+02  0.10000000652E+02 0.  0.
    3000022    2    3    3    0    0  0.92356519995E+01 -0.15146262273E+01  0.38638408475E+02  0.39756514511E+02  0.24995212708E+00 0.  0.
    1000022    2    1    0    0    0 -0.19938243934E+02 -0.21426191225E+01 -0.58344885028E+02  0.62499999921E+02  0.99999996680E+01 0.  0.
    3000022    2    5    5    0    0 -0.19371444756E+02 -0.15437430029E+01 -0.44052291925E+02  0.48148758458E+02  0.25000573986E+00 0.  0.
        -13    1    4    4    0    0  0.55035510985E+01 -0.96487472190E+00  0.22999766460E+02  0.23668974210E+02  0.10500000000E+00 0.  1.
         13    1    4    4    0    0  0.37321009009E+01 -0.54975150542E+00  0.15638642015E+02  0.16087540301E+02  0.10500000000E+00 0. -1.
    3000001    1    5    5    0    0 -0.56679917827E+00 -0.59887611952E+00 -0.14292593103E+02  0.14351241463E+02  0.10000000000E+01 0.  1.
        -13    1    6    6    0    0 -0.76250661597E+01 -0.56932556423E+00 -0.17211745372E+02  0.18834037520E+02  0.10500000000E+00 0. -1.
         13    1    6    6    0    0 -0.11746378596E+02 -0.97441743872E+00 -0.26840546552E+02  0.29314720938E+02  0.10500000000E+00 0.  1.
</event>
<event>
11    0  0.3482687E-009  0.9118800E+02  0.7816531E-02  0.1126479E+00
         25   -1    0    0    0    0  0.00000000000E+00  0.00000000000E+00  0.99999998245E-14  0.12500000000E+03  0.12500000000E+03 0.  0.
    3000001    1    3    3    0    0  0.50923385790E+02  0.25279748163E+02  0.14013830013E+02  0.58563165208E+02  0.10000000000E+01 0. -1.
    1000022    2    1    0    0    0  0.54179859697E+02  0.26775857890E+02  0.12403482750E+02  0.62500002413E+02  0.10000007738E+02 0.  0.
    3000022    2    3    3    0    0  0.32564739069E+01  0.14961097263E+01 -0.16103472632E+01  0.39368372049E+01  0.25000450120E+00 0.  0.
    1000022    2    1    0    0    0 -0.54179859697E+02 -0.26775857890E+02 -0.12403482750E+02  0.62499997587E+02  0.99999775785E+01 0.  0.
    3000022    2    5    5    0    0 -0.45660555090E+02 -0.23610469041E+02 -0.69980640041E+01  0.51878472773E+02  0.24999613241E+00 0.  0.
        -13    1    4    4    0    0  0.11255923023E+01  0.50412899943E+00 -0.61491079952E+00  0.13821159034E+01  0.10500000000E+00 0.  1.
         13    1    4    4    0    0  0.21308816046E+01  0.99198072687E+00 -0.99543646371E+00  0.25547213015E+01  0.10500000000E+00 0. -1.
    3000001    1    5    5    0    0 -0.85193046074E+01 -0.31653888486E+01 -0.54054187455E+01  0.10621524814E+02  0.10000000000E+01 0. -1.
        -13    1    6    6    0    0 -0.31657459018E+02 -0.16321327645E+02 -0.48278910920E+01  0.35943010516E+02  0.10500000000E+00 0. -1.
         13    1    6    6    0    0 -0.14003096072E+02 -0.72891413964E+01 -0.21701729122E+01  0.15935462257E+02  0.10500000000E+00 0.  1.
</event>
<event>
11    0  0.3482687E-009  0.9118800E+02  0.7816531E-02  0.1126479E+00
         25   -1    0    0    0    0  0.00000000000E+00  0.00000000000E+00  0.99999998245E-14  0.12500000000E+03  0.12500000000E+03 0.  0.
    3000001    1    3    3    0    0  0.19967047795E+02 -0.26229972197E+02  0.16979812692E+02  0.37094588260E+02  0.10000000000E+01 0.  1.
    1000022    2    1    0    0    0  0.29737337788E+02 -0.48863385327E+02  0.23115152923E+02  0.62499998206E+02  0.99999898381E+01 0.  0.
    3000022    2    3    3    0    0  0.97702899928E+01 -0.22633413130E+02  0.61353402305E+01  0.25405409946E+02  0.24999665104E+00 0.  0.
    1000022    2    1    0    0    0 -0.29737337788E+02  0.48863385327E+02 -0.23115152923E+02  0.62500001794E+02  0.10000012266E+02 0.  0.
    3000022    2    5    5    0    0 -0.17867370729E+02  0.20345593755E+02 -0.12475277487E+02  0.29814110290E+02  0.25000399438E+00 0.  0.
        -13    1    4    4    0    0  0.32804004552E+01 -0.76494563934E+01  0.21236311285E+01  0.85904624108E+01  0.10500000000E+00 0. -1.
         13    1    4    4    0    0  0.64898895375E+01 -0.14983956736E+02  0.40117091020E+01  0.16814947535E+02  0.10500000000E+00 0.  1.
    3000001    1    5    5    0    0 -0.11869967058E+02  0.28517791572E+02 -0.10639875435E+02  0.32685891504E+02  0.10000000000E+01 0.  1.
        -13    1    6    6    0    0 -0.60491356535E+01  0.68151176521E+01 -0.41713501552E+01  0.10022427744E+02  0.10500000000E+00 0. -1.
         13    1    6    6    0    0 -0.11818235076E+02  0.13530476102E+02 -0.83039273323E+01  0.19791682546E+02  0.10500000000E+00 0.  1.
</event>
<event>
11    0  0.3482687E-009  0.9118800E+02  0.7816531E-02  0.1126479E+00
         25   -1    0    0    0    0  0.00000000000E+00  0.00000000000E+00  0.99999998245E-14  0.12500000000E+03  0.12500000000E+03 0.  0.
    3000001    1    3    3    0    0 -0.20020401834E+02 -0.11869793487E+02  0.21907212105E+02  0.31978655839E+02  0.10000000000E+01 0. -1.
    1000022    2    1    0    0    0 -0.36989723567E+02 -0.31376466735E+02  0.38125159137E+02  0.62500000651E+02  0.10000000396E+02 0.  0.
    3000022    2    3    3    0    0 -0.16969321733E+02 -0.19506673247E+02  0.16217947031E+02  0.30521344812E+02  0.25000400555E+00 0.  0.
    1000022    2    1    0    0    0  0.36989723567E+02  0.31376466735E+02 -0.38125159137E+02  0.62499999349E+02  0.99999922536E+01 0.  0.
    3000022    2    5    5    0    0  0.33241338645E+02  0.26999533647E+02 -0.36887382899E+02  0.56521703371E+02  0.25004557842E+00 0.  0.
        -13    1    4    4    0    0 -0.74833327383E+01 -0.85376205924E+01  0.71812861265E+01  0.13434028796E+02  0.10500000000E+00 0. -1.
         13    1    4    4    0    0 -0.94859889946E+01 -0.10969052655E+02  0.90366609048E+01  0.17087316017E+02  0.10500000000E+00 0.  1.
    3000001    1    5    5    0    0  0.37483849221E+01  0.43769330875E+01 -0.12377762374E+01  0.59782959772E+01  0.10000000000E+01 0. -1.
        -13    1    6    6    0    0  0.24754311868E+02  0.20133062702E+02 -0.27510619325E+02  0.42130290415E+02  0.10500000000E+00 0.  1.
         13    1    6    6    0    0  0.84870267769E+01  0.68664709446E+01 -0.93767635743E+01  0.14391412956E+02  0.10500000000E+00 0. -1.
</event>
<event>
11    0  0.3482687E-009  0.9118800E+02  0.7816531E-02  0.1126479E+00
         25   -1    0    0    0    0  0.00000000000E+00  0.00000000000E+00  0.99999998245E-14  0.12500000000E+03  0.12500000000E+03 0.  0.
    3000001    1    3    3    0    0  0.20554806714E+02  0.96557564208E+01  0.12508123219E+02  0.25945844707E+02  0.10000000000E+01 0. -1.
    1000022    2    1    0    0    0  0.43630508591E+02  0.33221913695E+02  0.28265404565E+02  0.62499999082E+02  0.99999980271E+01 0.  0.
    3000022    2    3    3    0    0  0.23075701878E+02  0.23566157275E+02  0.15757281345E+02  0.36554154375E+02  0.25000168563E+00 0.  0.
    1000022    2    1    0    0    0 -0.43630508591E+02 -0.33221913695E+02 -0.28265404565E+02  0.62500000918E+02  0.10000009499E+02 0.  0.
    3000022    2    5    5    0    0 -0.12678073075E+02 -0.15628855209E+02 -0.10304804972E+02  0.22610752880E+02  0.24997647124E+00 0.  0.
        -13    1    4    4    0    0  0.14593976428E+02  0.14936296751E+02  0.10036939524E+02  0.23169555210E+02  0.10500000000E+00 0. -1.
         13    1    4    4    0    0  0.84817254499E+01  0.86298605235E+01  0.57203418219E+01  0.13384599165E+02  0.10500000000E+00 0.  1.
    3000001    1    5    5    0    0 -0.30952435517E+02 -0.17593058486E+02 -0.17960599593E+02  0.39889248038E+02  0.10000000000E+01 0.  1.
        -13    1    6    6    0    0 -0.82656773396E+01 -0.10261791474E+02 -0.67109083651E+01  0.14787599610E+02  0.10500000000E+00 0.  1.
         13    1    6    6    0    0 -0.44123957353E+01 -0.53670637357E+01 -0.35938966071E+01  0.78231532703E+01  0.10500000000E+00 0. -1.
</event>
<event>
11    0  0.3482687E-009  0.9118800E+02  0.7816531E-02  0.1126479E+00
         25   -1    0    0    0    0  0.00000000000E+00  0.00000000000E+00  0.99999998245E-14  0.12500000000E+03  0.12500000000E+03 0.  0.
    3000001    1    3    3    0    0  0.23538808239E+02 -0.55203477922E+02  0.64044525549E+00  0.60024242087E+02  0.10000000000E+01 0. -1.
    1000022    2    1    0    0    0  0.22862109451E+02 -0.57300632933E+02 -0.45996603446E+00  0.62500000379E+02  0.99999947792E+01 0.  0.
    3000022    2    3    3    0    0 -0.67669878810E+00 -0.20971550111E+01 -0.11004112899E+01  0.24757582923E+01  0.24998744840E+00 0.  0.
    1000022    2    1    0    0    0 -0.22862109451E+02  0.57300632933E+02  0.45996603446E+00  0.62499999621E+02  0.99999900389E+01 0.  0.
    3000022    2    5    5    0    0 -0.16716460746E+02  0.39404988833E+02 -0.41313443287E+01  0.43003763918E+02  0.25000057134E+00 0.  0.
        -13    1    4    4    0    0 -0.17939843899E+00 -0.68318764895E+00 -0.39129081928E+00  0.81428660117E+00  0.10500000000E+00 0.  1.
         13    1    4    4    0    0 -0.49730034911E+00 -0.14139673621E+01 -0.70912047067E+00  0.16614716911E+01  0.10500000000E+00 0. -1.
    3000001    1    5    5    0    0 -0.61456487052E+01  0.17895644099E+02  0.45913103632E+01  0.19496235703E+02  0.10000000000E+01 0. -1.
        -13    1    6    6    0    0 -0.47918939798E+01  0.11192310113E+02 -0.11670369016E+01  0.12231232714E+02  0.10500000000E+00 0.  1.
         13    1    6    6    0    0 -0.11924566766E+02  0.28212678720E+02 -0.29643074272E+01  0.30772531203E+02  0.10500000000E+00 0. -1.
</event>
<event>
11    0  0.3482687E-009  0.9118800E+02  0.7816531E-02  0.1126479E+00
         25   -1    0    0    0    0  0.00000000000E+00  0.00000000000E+00  0.99999998245E-14  0.12500000000E+03  0.12500000000E+03 0.  0.
    3000001    1    3    3    0    0 -0.16080251818E+02 -0.23772376151E+02  0.47750694069E+02  0.55720993804E+02  0.10000000000E+01 0. -1.
    1000022    2    1    0    0    0 -0.16001737052E+02 -0.24038030171E+02  0.54519422441E+02  0.62499999870E+02  0.10000003862E+02 0.  0.
    3000022    2    3    3    0    0  0.78514766142E-01 -0.26565402002E+00  0.67687283721E+01  0.67790060663E+01  0.25000568912E+00 0.  0.
    1000022    2    1    0    0    0  0.16001737052E+02  0.24038030171E+02 -0.54519422441E+02  0.62500000130E+02  0.10000005487E+02 0.  0.
    3000022    2    5    5    0    0  0.80453552956E+01  0.19996481894E+02 -0.39594804488E+02  0.45082125857E+02  0.24999881551E+00 0.  0.
        -13    1    4    4    0    0  0.81730614253E-02 -0.17615130944E+00  0.29448825797E+01  0.29520254896E+01  0.10500000000E+00 0. -1.
         13    1    4    4    0    0  0.70341704716E-01 -0.89502710585E-01  0.38238457924E+01  0.38269805767E+01  0.10500000000E+00 0.  1.
    3000001    1    5    5    0    0  0.79563817562E+01  0.40415482770E+01 -0.14924617953E+02  0.17417874273E+02  0.10000000000E+01 0.  1.
        -13    1    6    6    0    0  0.55586212854E+01  0.13716814608E+02 -0.27254848208E+02  0.31014303949E+02  0.10500000000E+00 0. -1.
         13    1    6    6    0    0  0.24867340102E+01  0.62796672853E+01 -0.12339956280E+02  0.14067821908E+02  0.10500000000E+00 0.  1.
</event>
<event>
11    0  0.3482687E-009  0.9118800E+02  0.7816531E-02  0.1126479E+00
         25   -1    0    0    0    0  0.00000000000E+00  0.00000000000E+00  0.99999998245E-14  0.12500000000E+03  0.12500000000E+03 0.  0.
    3000001    1    3    3    0    0 -0.10068252681E+02 -0.20656623688E+02 -0.20484845682E+02  0.30800888248E+02  0.10000000000E+01 0. -1.
    1000022    2    1    0    0    0 -0.16781802202E+02 -0.35053403536E+02 -0.47915342683E+02  0.62499999970E+02  0.99999973676E+01 0.  0.
    3000022    2    3    3    0    0 -0.67135495203E+01 -0.14396779848E+02 -0.27430497001E+02  0.31699111723E+02  0.25000231285E+00 0.  0.
    1000022    2    1    0    0    0  0.16781802202E+02  0.35053403536E+02  0.47915342683E+02  0.62500000030E+02  0.99999977369E+01 0.  0.
    3000022    2    5    5    0    0  0.11442321269E+02  0.29854940059E+02  0.33928518335E+02  0.46620285470E+02  0.24999798909E+00 0.  0.
        -13    1    4    4    0    0 -0.50495148810E+01 -0.10876948549E+02 -0.20684108667E+02  0.23909182057E+02  0.10500000000E+00 0.  1.
         13    1    4    4    0    0 -0.16640346393E+01 -0.35198312989E+01 -0.67463883337E+01  0.77899296661E+01  0.10500000000E+00 0. -1.
    3000001    1    5    5    0    0  0.53394809321E+01  0.51984634767E+01  0.13986824348E+02  0.15879714559E+02  0.10000000000E+01 0. -1.
        -13    1    6    6    0    0  0.30357015444E+01  0.78293406908E+01  0.89161851960E+01  0.12248405732E+02  0.10500000000E+00 0. -1.
         13    1    6    6    0    0  0.84066197250E+01  0.22025599368E+02  0.25012333139E+02  0.34371879739E+02  0.10500000000E+00 0.  1.
</event>
<event>
11    0  0.3482687E-009  0.9118800E+02  0.7816531E-02  0.1126479E+00
         25   -1    0    0    0    0  0.00000000000E+00  0.00000000000E+00  0.99999998245E-14  0.12500000000E+03  0.12500000000E+03 0.  0.
    3000001    1    3    3    0    0  0.38006705777E+01  0.12222182284E+00  0.17826748370E+02  0.18255218225E+02  0.10000000000E+01 0. -1.
    1000022    2    1    0    0    0 -0.22360755985E+01  0.14073778378E+01  0.61638208019E+02  0.62499996771E+02  0.10000008107E+02 0.  0.
    3000022    2    3    3    0    0 -0.60367461762E+01  0.12851560150E+01  0.43811459649E+02  0.44244778546E+02  0.25000320263E+00 0.  0.
    1000022    2    1    0    0    0  0.22360755985E+01 -0.14073778378E+01 -0.61638208019E+02  0.62500003229E+02  0.10000048465E+02 0.  0.
    3000022    2    5    5    0    0  0.50212128945E+01 -0.76324035551E+00 -0.54620568057E+02  0.54856759578E+02  0.25000367419E+00 0.  0.
        -13    1    4    4    0    0 -0.36706983086E+01  0.82277529924E+00  0.26355757400E+02  0.26623071919E+02  0.10500000000E+00 0. -1.
         13    1    4    4    0    0 -0.23660478675E+01  0.46238071576E+00  0.17455702249E+02  0.17621706627E+02  0.10500000000E+00 0.  1.
    3000001    1    5    5    0    0 -0.27851372960E+01 -0.64413748233E+00 -0.70176399625E+01  0.76432436502E+01  0.10000000000E+01 0.  1.
        -13    1    6    6    0    0  0.15075122921E+01 -0.24704395276E+00 -0.16913135107E+02  0.16982308093E+02  0.10500000000E+00 0.  1.
         13    1    6    6    0    0  0.35137006024E+01 -0.51619640275E+00 -0.37707432950E+02  0.37874451485E+02  0.10500000000E+00 0. -1.
</event>
<event>
11    0  0.3482687E-009  0.9118800E+02  0.7816531E-02  0.1126479E+00
         25   -1    0    0    0    0  0.00000000000E+00  0.00000000000E+00  0.99999998245E-14  0.12500000000E+03  0.12500000000E+03 0.  0.
    3000001    1    3    3    0    0  0.49436292371E+02  0.30038856296E+02 -0.39847740357E+01  0.57992743642E+02  0.10000000000E+01 0. -1.
    1000022    2    1    0    0    0  0.51406435092E+02  0.33595414396E+02 -0.59140994232E+01  0.62500000119E+02  0.10000000277E+02 0.  0.
    3000022    2    3    3    0    0  0.19701427212E+01  0.35565580994E+01 -0.19293253875E+01  0.45072564770E+01  0.24999328410E+00 0.  0.
    1000022    2    1    0    0    0 -0.51406435092E+02 -0.33595414396E+02  0.59140994232E+01  0.62499999881E+02  0.99999987941E+01 0.  0.
    3000022    2    5    5    0    0 -0.29902400958E+02 -0.23199461756E+02  0.73352462355E+01  0.38551743711E+02  0.24999403867E+00 0.  0.
        -13    1    4    4    0    0  0.60164770960E+00  0.99951540141E+00 -0.55772523535E+00  0.12973409121E+01  0.10500000000E+00 0. -1.
         13    1    4    4    0    0  0.13684950116E+01  0.25570426980E+01 -0.13716001522E+01  0.32099155648E+01  0.10500000000E+00 0.  1.
    3000001    1    5    5    0    0 -0.21504034134E+02 -0.10395952640E+02 -0.14211468123E+01  0.23948256170E+02  0.10000000000E+01 0.  1.
        -13    1    6    6    0    0 -0.68648657481E+01 -0.53196579417E+01  0.16828388318E+01  0.88469268048E+01  0.10500000000E+00 0.  1.
         13    1    6    6    0    0 -0.23037535210E+02 -0.17879803814E+02  0.56524074037E+01  0.29704816907E+02  0.10500000000E+00 0. -1.
</event>
<event>
11    0  0.3482687E-009  0.9118800E+02  0.7816531E-02  0.1126479E+00
         25   -1    0    0    0    0  0.00000000000E+00  0.00000000000E+00  0.99999998245E-14  0.12500000000E+03  0.12500000000E+03 0.  0.
    3000001    1    3    3    0    0 -0.58093565235E+01 -0.10418586922E+01  0.13536309715E+02  0.14800870699E+02  0.10000000000E+01 0.  1.
    1000022    2    1    0    0    0 -0.23063194836E+02 -0.21413275806E+02  0.53064211618E+02  0.62500001828E+02  0.10000016857E+02 0.  0.
    3000022    2    3    3    0    0 -0.17253838312E+02 -0.20371417113E+02  0.39527901903E+02  0.47699131129E+02  0.25001983393E+00 0.  0.
    1000022    2    1    0    0    0  0.23063194836E+02  0.21413275806E+02 -0.53064211618E+02  0.62499998172E+02  0.99999940089E+01 0.  0.
    3000022    2    5    5    0    0  0.76544659581E+01  0.14837430936E+01 -0.11912479595E+02  0.14239452711E+02  0.25000148098E+00 0.  0.
        -13    1    4    4    0    0 -0.45281276004E+01 -0.53928342019E+01  0.10401241527E+02  0.12561188264E+02  0.10500000000E+00 0.  1.
         13    1    4    4    0    0 -0.12725710712E+02 -0.14978582911E+02  0.29126660376E+02  0.35137942865E+02  0.10500000000E+00 0. -1.
    3000001    1    5    5    0    0  0.15408728877E+02  0.19929532712E+02 -0.41151732022E+02  0.48260545461E+02  0.10000000000E+01 0. -1.
        -13    1    6    6    0    0  0.25796631378E+01  0.51665195186E+00 -0.39269266135E+01  0.47279349374E+01  0.10500000000E+00 0. -1.
         13    1    6    6    0    0  0.50748028203E+01  0.96709114170E+00 -0.79855529815E+01  0.95115177738E+01  0.10500000000E+00 0.  1.
</event>
<event>
11    0  0.3482687E-009  0.9118800E+02  0.7816531E-02  0.1126479E+00
         25   -1    0    0    0    0  0.00000000000E+00  0.00000000000E+00  0.99999998245E-14  0.12500000000E+03  0.12500000000E+03 0.  0.
    3000001    1    3    3    0    0 -0.70234919966E+01  0.25090345266E+01 -0.76233535610E+01  0.10711685843E+02  0.10000000000E+01 0. -1.
    1000022    2    1    0    0    0 -0.22932262644E+02  0.22536138594E+02 -0.52654379081E+02  0.62500001530E+02  0.10000017104E+02 0.  0.
    3000022    2    3    3    0    0 -0.15908770647E+02  0.20027104067E+02 -0.45031025520E+02  0.51788315687E+02  0.25000284554E+00 0.  0.
    1000022    2    1    0    0    0  0.22932262644E+02 -0.22536138594E+02  0.52654379081E+02  0.62499998470E+02  0.99999979840E+01 0.  0.
    3000022    2    5    5    0    0  0.11000658285E+02 -0.14295636655E+02  0.36844785828E+02  0.41024144736E+02  0.24999711577E+00 0.  0.
        -13    1    4    4    0    0 -0.46821348384E+01  0.59648054126E+01 -0.13332865820E+02  0.15338762213E+02  0.10500000000E+00 0. -1.
         13    1    4    4    0    0 -0.11226635809E+02  0.14062298654E+02 -0.31698159701E+02  0.36449553474E+02  0.10500000000E+00 0.  1.
    3000001    1    5    5    0    0  0.11931604359E+02 -0.82405019390E+01  0.15809593254E+02  0.21475853735E+02  0.10000000000E+01 0. -1.
        -13    1    6    6    0    0  0.26584051195E+01 -0.34471551133E+01  0.88481902628E+01  0.98616171129E+01  0.10500000000E+00 0. -1.
         13    1    6    6    0    0  0.83422531656E+01 -0.10848481541E+02  0.27996595565E+02  0.31162527623E+02  0.10500000000E+00 0.  1.
</event>
<event>
11    0  0.3482687E-009  0.9118800E+02  0.7816531E-02  0.1126479E+00
         25   -1    0    0    0    0  0.00000000000E+00  0.00000000000E+00  0.99999998245E-14  0.12500000000E+03  0.12500000000E+03 0.  0.
    3000001    1    3    3    0    0 -0.39573093002E+02  0.23531872633E+02  0.77410761966E+01  0.46697997602E+02  0.10000000000E+01 0. -1.
    1000022    2    1    0    0    0 -0.54967612973E+02  0.27056345852E+02  0.72639995351E+01  0.62499999396E+02  0.99999954221E+01 0.  0.
    3000022    2    3    3    0    0 -0.15394519971E+02  0.35244732196E+01 -0.47707666145E+00  0.15802001794E+02  0.25000390210E+00 0.  0.
    1000022    2    1    0    0    0  0.54967612973E+02 -0.27056345852E+02 -0.72639995351E+01  0.62500000604E+02  0.10000002969E+02 0.  0.
    3000022    2    5    5    0    0  0.28351178063E+02 -0.84967406874E+01 -0.27866300677E+01  0.29728970889E+02  0.25000626194E+00 0.  0.
        -13    1    4    4    0    0 -0.10218512699E+02  0.23451641360E+01 -0.37049167593E+00  0.10491238520E+02  0.10500000000E+00 0.  1.
         13    1    4    4    0    0 -0.51760072718E+01  0.11793090836E+01 -0.10658498552E+00  0.53107632739E+01  0.10500000000E+00 0. -1.
    3000001    1    5    5    0    0  0.26616434910E+02 -0.18559605165E+02 -0.44773694674E+01  0.32771029715E+02  0.10000000000E+01 0.  1.
        -13    1    6    6    0    0  0.19179032791E+02 -0.57860142929E+01 -0.18497169720E+01  0.20118293617E+02  0.10500000000E+00 0. -1.
         13    1    6    6    0    0  0.91721452716E+01 -0.27107263945E+01 -0.93691309569E+00  0.96106772715E+01  0.10500000000E+00 0.  1.
</event>
<event>
11    0  0.3482687E-009  0.9118800E+02  0.7816531E-02  0.1126479E+00
         25   -1    0    0    0    0  0.00000000000E+00  0.00000000000E+00  0.99999998245E-14  0.12500000000E+03  0.12500000000E+03 0.  0.
    3000001    1    3    3    0    0 -0.32661415625E+02 -0.42571805817E+02 -0.13757621985E+02  0.55402155950E+02  0.10000000000E+01 0.  1.
    1000022    2    1    0    0    0 -0.39082578951E+02 -0.45524286150E+02 -0.14364584126E+02  0.62500000108E+02  0.10000006468E+02 0.  0.
    3000022    2    3    3    0    0 -0.64211633265E+01 -0.29524803329E+01 -0.60696214089E+00  0.70978441582E+01  0.25002014074E+00 0.  0.
    1000022    2    1    0    0    0  0.39082578951E+02  0.45524286150E+02  0.14364584126E+02  0.62499999892E+02  0.10000005122E+02 0.  0.
    3000022    2    5    5    0    0  0.19921675551E+02  0.25740407981E+02  0.29964954490E+01  0.32687661931E+02  0.24999553013E+00 0.  0.
        -13    1    4    4    0    0 -0.44980706016E+01 -0.21009514741E+01 -0.46038940040E+00  0.49869449199E+01  0.10500000000E+00 0.  1.
         13    1    4    4    0    0 -0.19230927249E+01 -0.85152885877E+00 -0.14657274049E+00  0.21108992383E+01  0.10500000000E+00 0. -1.
    3000001    1    5    5    0    0  0.19160903400E+02  0.19783878169E+02  0.11368088677E+02  0.29812337961E+02  0.10000000000E+01 0.  1.
        -13    1    6    6    0    0  0.14976746262E+02  0.19378343193E+02  0.22731640735E+01  0.24596776484E+02  0.10500000000E+00 0.  1.
         13    1    6    6    0    0  0.49449292888E+01  0.63620647878E+01  0.72333137548E+00  0.80908854469E+01  0.10500000000E+00 0. -1.
</event>
<event>
11    0  0.3482687E-009  0.9118800E+02  0.7816531E-02  0.1126479E+00
         25   -1    0    0    0    0  0.00000000000E+00  0.00000000000E+00  0.99999998245E-14  0.12500000000E+03  0.12500000000E+03 0.  0.
    3000001    1    3    3    0    0 -0.63736656170E+01 -0.23872443742E+02  0.71359430003E+01  0.25737887756E+02  0.10000000000E+01 0. -1.
    1000022    2    1    0    0    0 -0.23144822646E+02 -0.51929323403E+02  0.23956471908E+02  0.62499999979E+02  0.10000000333E+02 0.  0.
    3000022    2    3    3    0    0 -0.16771157029E+02 -0.28056879661E+02  0.16820528907E+02  0.36762112223E+02  0.24999595413E+00 0.  0.
    1000022    2    1    0    0    0  0.23144822646E+02  0.51929323403E+02 -0.23956471908E+02  0.62500000021E+02  0.10000000595E+02 0.  0.
    3000022    2    5    5    0    0  0.11768282130E+02  0.16017299426E+02 -0.60489195810E+01  0.20777349451E+02  0.24995381889E+00 0.  0.
        -13    1    4    4    0    0 -0.11180649156E+02 -0.18800927760E+02  0.11234799929E+02  0.24590924233E+02  0.10500000000E+00 0. -1.
         13    1    4    4    0    0 -0.55905078728E+01 -0.92559519011E+01  0.55857289788E+01  0.12171187990E+02  0.10500000000E+00 0.  1.
    3000001    1    5    5    0    0  0.11376540516E+02  0.35912023978E+02 -0.17907552327E+02  0.41722650570E+02  0.10000000000E+01 0.  1.
        -13    1    6    6    0    0  0.88449083031E+01  0.12046685605E+02 -0.45223585975E+01  0.15614665839E+02  0.10500000000E+00 0.  1.
         13    1    6    6    0    0  0.29233738268E+01  0.39706138204E+01 -0.15265609835E+01  0.51626836120E+01  0.10500000000E+00 0. -1.
</event>
<event>
11    0  0.3482687E-009  0.9118800E+02  0.7816531E-02  0.1126479E+00
         25   -1    0    0    0    0  0.00000000000E+00  0.00000000000E+00  0.99999998245E-14  0.12500000000E+03  0.12500000000E+03 0.  0.
    3000001    1    3    3    0    0 -0.10382102671E+02 -0.61728626375E+01 -0.10388365953E+02  0.15962782846E+02  0.10000000000E+01 0. -1.
    1000022    2    1    0    0    0 -0.26470182324E+02 -0.31063973653E+02 -0.46266718889E+02  0.62499998293E+02  0.99999749276E+01 0.  0.
    3000022    2    3    3    0    0 -0.16088079652E+02 -0.24891111015E+02 -0.35878352936E+02  0.46537215447E+02  0.24999539982E+00 0.  0.
    1000022    2    1    0    0    0  0.26470182324E+02  0.31063973653E+02  0.46266718889E+02  0.62500001707E+02  0.99999962610E+01 0.  0.
    3000022    2    5    5    0    0  0.85327549601E+01  0.13358601919E+02  0.11673630734E+02  0.19687465730E+02  0.24999983433E+00 0.  0.
        -13    1    4    4    0    0 -0.11585445279E+02 -0.17870739720E+02 -0.25824596912E+02  0.33473970651E+02  0.10500000000E+00 0.  1.
         13    1    4    4    0    0 -0.45026343731E+01 -0.70203712952E+01 -0.10053756023E+02  0.13063244796E+02  0.10500000000E+00 0. -1.
    3000001    1    5    5    0    0  0.17937427364E+02  0.17705371734E+02  0.34593088155E+02  0.42812535976E+02  0.10000000000E+01 0.  1.
        -13    1    6    6    0    0  0.56174540761E+01  0.88885261358E+01  0.77670261194E+01  0.13072849992E+02  0.10500000000E+00 0. -1.
         13    1    6    6    0    0  0.29153008840E+01  0.44700757831E+01  0.39066046150E+01  0.66146157386E+01  0.10500000000E+00 0.  1.
</event>
<event>
11    0  0.3482687E-009  0.9118800E+02  0.7816531E-02  0.1126479E+00
         25   -1    0    0    0    0  0.00000000000E+00  0.00000000000E+00  0.99999998245E-14  0.12500000000E+03  0.12500000000E+03 0.  0.
    3000001    1    3    3    0    0  0.12468461991E+02 -0.35798524551E+02 -0.95743049362E+01  0.39110921997E+02  0.10000000000E+01 0. -1.
    1000022    2    1    0    0    0  0.15839113505E+02 -0.55585321729E+02 -0.21578797000E+02  0.62499999831E+02  0.99999995280E+01 0.  0.
    3000022    2    3    3    0    0  0.33706515144E+01 -0.19786797178E+02 -0.12004492064E+02  0.23389077834E+02  0.24999603857E+00 0.  0.
    1000022    2    1    0    0    0 -0.15839113505E+02  0.55585321729E+02  0.21578797000E+02  0.62500000169E+02  0.10000001641E+02 0.  0.
    3000022    2    5    5    0    0 -0.11901326028E+02  0.33376516598E+02  0.86246659781E+01  0.36470272816E+02  0.25002914368E+00 0.  0.
        -13    1    4    4    0    0  0.18081842239E+01 -0.10732275039E+02 -0.64345073161E+01  0.12643779779E+02  0.10500000000E+00 0. -1.
         13    1    4    4    0    0  0.15624672905E+01 -0.90545221384E+01 -0.55699847475E+01  0.10745298054E+02  0.10500000000E+00 0.  1.
    3000001    1    5    5    0    0 -0.39377874773E+01  0.22208805131E+02  0.12954131022E+02  0.26029727353E+02  0.10000000000E+01 0. -1.
        -13    1    6    6    0    0 -0.64511691724E+01  0.18102230849E+02  0.46085078480E+01  0.19762533112E+02  0.10500000000E+00 0. -1.
         13    1    6    6    0    0 -0.54501568557E+01  0.15274285749E+02  0.40161581301E+01  0.16707739704E+02  0.10500000000E+00 0.  1.
</event>
<event>
11    0  0.3482687E-009  0.9118800E+02  0.7816531E-02  0.1126479E+00
         25   -1    0    0    0    0  0.00000000000E+00  0.00000000000E+00  0.99999998245E-14  0.12500000000E+03  0.12500000000E+03 0.  0.
    3000001    1    3    3    0    0  0.41647794646E+02 -0.39348409860E+02 -0.19936004094E+02  0.60673556156E+02  0.10000000000E+01 0.  1.
    1000022    2    1    0    0    0  0.41913771549E+02 -0.40988634016E+02 -0.19220238679E+02  0.62500000466E+02  0.10000005971E+02 0.  0.
    3000022    2    3    3    0    0  0.26597690246E+00 -0.16402241558E+01  0.71576541546E+00  0.18264443094E+01  0.24999938299E+00 0.  0.
    1000022    2    1    0    0    0 -0.41913771549E+02  0.40988634016E+02  0.19220238679E+02  0.62499999534E+02  0.10000000152E+02 0.  0.
    3000022    2    5    5    0    0 -0.35192981565E+00  0.40858740043E+00  0.17287847784E+01  0.18281128728E+01  0.25000321382E+00 0.  0.
        -13    1    4    4    0    0  0.13615024032E+00 -0.53922478760E+00  0.26776548570E+00  0.62611789212E+00  0.10500000000E+00 0. -1.
         13    1    4    4    0    0  0.12982666214E+00 -0.11009993682E+01  0.44799992976E+00  0.12003264173E+01  0.10500000000E+00 0. -1.
    3000001    1    5    5    0    0 -0.41561841733E+02  0.40580046615E+02  0.17491453900E+02  0.60671886662E+02  0.10000000000E+01 0.  1.
        -13    1    6    6    0    0 -0.22745225384E+00  0.25677870285E+00  0.12431802503E+01  0.12939057016E+01  0.10500000000E+00 0.  1.
         13    1    6    6    0    0 -0.12447756181E+00  0.15180869758E+00  0.48560452808E+00  0.53420717119E+00  0.10500000000E+00 0. -1.
</event>
<event>
11    0  0.3482687E-009  0.9118800E+02  0.7816531E-02  0.1126479E+00
         25   -1    0    0    0    0  0.00000000000E+00  0.00000000000E+00  0.99999998245E-14  0.12500000000E+03  0.12500000000E+03 0.  0.
    3000001    1    3    3    0    0  0.24492857956E+01  0.10154694408E+02 -0.26413292619E+02  0.28421450463E+02  0.10000000000E+01 0.  1.
    1000022    2    1    0    0    0  0.90213816819E+01  0.12279442763E+02 -0.59783608661E+02  0.62499999403E+02  0.10000000942E+02 0.  0.
    3000022    2    3    3    0    0  0.65720958863E+01  0.21247483554E+01 -0.33370316041E+02  0.34078548940E+02  0.25001047232E+00 0.  0.
    1000022    2    1    0    0    0 -0.90213816819E+01 -0.12279442763E+02  0.59783608661E+02  0.62500000597E+02  0.10000008408E+02 0.  0.
    3000022    2    5    5    0    0 -0.10417004038E+02 -0.97660174453E+01  0.39773525044E+02  0.42259730962E+02  0.24999329057E+00 0.  0.
        -13    1    4    4    0    0  0.26360661147E+01  0.86375828760E+00 -0.13713251451E+02  0.13991397832E+02  0.10500000000E+00 0. -1.
         13    1    4    4    0    0  0.39360297716E+01  0.12609900678E+01 -0.19657064591E+02  0.20087151108E+02  0.10500000000E+00 0.  1.
    3000001    1    5    5    0    0  0.13956223561E+01 -0.25134253177E+01  0.20010083616E+02  0.20240269636E+02  0.10000000000E+01 0.  1.
        -13    1    6    6    0    0 -0.49401666319E+01 -0.45473043747E+01  0.18619860834E+02  0.19793773412E+02  0.10500000000E+00 0. -1.
         13    1    6    6    0    0 -0.54768374062E+01 -0.52187130706E+01  0.21153664210E+02  0.22465957550E+02  0.10500000000E+00 0.  1.
</event>
<event>
11    0  0.3482687E-009  0.9118800E+02  0.7816531E-02  0.1126479E+00
         25   -1    0    0    0    0  0.00000000000E+00  0.00000000000E+00  0.99999998245E-14  0.12500000000E+03  0.12500000000E+03 0.  0.
    3000001    1    3    3    0    0 -0.33522428511E+02 -0.29758960889E+01 -0.38833744521E+02  0.51397168057E+02  0.10000000000E+01 0.  1.
    1000022    2    1    0    0    0 -0.41802854601E+02  0.47474039720E+00 -0.45371192242E+02  0.62500008186E+02  0.10000095329E+02 0.  0.
    3000022    2    3    3    0    0 -0.82804260900E+01  0.34506364861E+01 -0.65374477203E+01  0.11102840128E+02  0.24997565087E+00 0.  0.
    1000022    2    1    0    0    0  0.41802854601E+02 -0.47474039720E+00  0.45371192242E+02  0.62499991814E+02  0.99999930081E+01 0.  0.
    3000022    2    5    5    0    0  0.21664997452E+02 -0.26544896416E+01  0.29759907474E+02  0.36907086364E+02  0.25000231221E+00 0.  0.
        -13    1    4    4    0    0 -0.42166540164E+01  0.18245084661E+01 -0.33145856608E+01  0.56662602605E+01  0.10500000000E+00 0. -1.
         13    1    4    4    0    0 -0.40637720736E+01  0.16261280200E+01 -0.32228620595E+01  0.54365798678E+01  0.10500000000E+00 0.  1.
    3000001    1    5    5    0    0  0.20137857148E+02  0.21797492444E+01  0.15611284768E+02  0.25592905450E+02  0.10000000000E+01 0. -1.
        -13    1    6    6    0    0  0.83775694959E+01 -0.10203421270E+01  0.11610877947E+02  0.14354381924E+02  0.10500000000E+00 0. -1.
         13    1    6    6    0    0  0.13287427956E+02 -0.16341475147E+01  0.18149029527E+02  0.22552704440E+02  0.10500000000E+00 0.  1.
</event>
<event>
11    0  0.3482687E-009  0.9118800E+02  0.7816531E-02  0.1126479E+00
         25   -1    0    0    0    0  0.00000000000E+00  0.00000000000E+00  0.99999998245E-14  0.12500000000E+03  0.12500000000E+03 0.  0.
    3000001    1    3    3    0    0  0.18278304489E+02  0.61286289832E+01 -0.14462293470E+02  0.24120830015E+02  0.10000000000E+01 0. -1.
    1000022    2    1    0    0    0  0.52305413152E+02  0.57480572471E+01 -0.32207972127E+02  0.62499998456E+02  0.99999965669E+01 0.  0.
    3000022    2    3    3    0    0  0.34027108663E+02 -0.38057173608E+00 -0.17745678657E+02  0.38379168441E+02  0.25000080509E+00 0.  0.
    1000022    2    1    0    0    0 -0.52305413152E+02 -0.57480572471E+01  0.32207972127E+02  0.62500001544E+02  0.10000015869E+02 0.  0.
    3000022    2    5    5    0    0 -0.36891925453E+02 -0.13395722580E+01  0.18073106615E+02  0.41103628815E+02  0.25000310436E+00 0.  0.
        -13    1    4    4    0    0  0.85915066206E+01 -0.72426290847E-01 -0.44643129802E+01  0.96829926657E+01  0.10500000000E+00 0.  1.
         13    1    4    4    0    0  0.25435602042E+02 -0.30814544523E+00 -0.13281365677E+02  0.28696175775E+02  0.10500000000E+00 0. -1.
    3000001    1    5    5    0    0 -0.15413487699E+02 -0.44084849891E+01  0.14134865511E+02  0.21396372729E+02  0.10000000000E+01 0. -1.
        -13    1    6    6    0    0 -0.10752907012E+02 -0.37975404679E+00  0.52209409465E+01  0.11959869218E+02  0.10500000000E+00 0. -1.
         13    1    6    6    0    0 -0.26139018441E+02 -0.95981821118E+00  0.12852165669E+02  0.29143759597E+02  0.10500000000E+00 0.  1.
</event>
<event>
11    0  0.3482687E-009  0.9118800E+02  0.7816531E-02  0.1126479E+00
         25   -1    0    0    0    0  0.00000000000E+00  0.00000000000E+00  0.99999998245E-14  0.12500000000E+03  0.12500000000E+03 0.  0.
    3000001    1    3    3    0    0 -0.99452269152E+00 -0.62877191557E-02  0.14848821163E+00  0.14181550227E+01  0.10000000000E+01 0. -1.
    1000022    2    1    0    0    0 -0.30628956324E+02  0.11231141259E+02  0.52363906983E+02  0.62500001140E+02  0.99999944246E+01 0.  0.
    3000022    2    3    3    0    0 -0.29634433633E+02  0.11237428978E+02  0.52215418772E+02  0.61081846118E+02  0.25000173027E+00 0.  0.
    1000022    2    1    0    0    0  0.30628956324E+02 -0.11231141259E+02 -0.52363906983E+02  0.62499998860E+02  0.99999801702E+01 0.  0.
    3000022    2    5    5    0    0  0.72875657973E+01 -0.16991554596E+01 -0.20696786537E+02  0.22009434745E+02  0.25000055807E+00 0.  0.
        -13    1    4    4    0    0 -0.18924848764E+02  0.72374786946E+01  0.33359524486E+02  0.39030755790E+02  0.10500000000E+00 0. -1.
         13    1    4    4    0    0 -0.10709584868E+02  0.39999502838E+01  0.18855894286E+02  0.22051090328E+02  0.10500000000E+00 0.  1.
    3000001    1    5    5    0    0  0.23341390527E+02 -0.95319857996E+01 -0.31667120446E+02  0.40490564115E+02  0.10000000000E+01 0.  1.
        -13    1    6    6    0    0  0.51937239809E+01 -0.11700464176E+01 -0.14763414105E+02  0.15694368367E+02  0.10500000000E+00 0.  1.
         13    1    6    6    0    0  0.20938418164E+01 -0.52910904197E+00 -0.59333724327E+01  0.63150663778E+01  0.10500000000E+00 0. -1.
</event>
<event>
11    0  0.3482687E-009  0.9118800E+02  0.7816531E-02  0.1126479E+00
         25   -1    0    0    0    0  0.00000000000E+00  0.00000000000E+00  0.99999998245E-14  0.12500000000E+03  0.12500000000E+03 0.  0.
    3000001    1    3    3    0    0 -0.69814537386E+01 -0.51793051088E+02 -0.11453895238E+02  0.53511237637E+02  0.10000000000E+01 0.  1.
    1000022    2    1    0    0    0 -0.41112016129E+01 -0.60071136938E+02 -0.13446443181E+02  0.62499997191E+02  0.99999671500E+01 0.  0.
    3000022    2    3    3    0    0  0.28702521257E+01 -0.82780858500E+01 -0.19925479433E+01  0.89887595548E+01  0.24999684299E+00 0.  0.
    1000022    2    1    0    0    0  0.41112016129E+01  0.60071136938E+02  0.13446443181E+02  0.62500002809E+02  0.10000002258E+02 0.  0.
    3000022    2    5    5    0    0  0.33927703209E+01  0.65283349907E+01  0.37572622699E+00  0.73711408073E+01  0.24999680536E+00 0.  0.
        -13    1    4    4    0    0  0.13235220268E+01 -0.37564452373E+01 -0.84035968067E+00  0.40718326058E+01  0.10500000000E+00 0.  1.
         13    1    4    4    0    0  0.15467300989E+01 -0.45216406127E+01 -0.11521882626E+01  0.49169269490E+01  0.10500000000E+00 0. -1.
    3000001    1    5    5    0    0  0.71843129201E+00  0.53542801947E+02  0.13070716954E+02  0.55128862001E+02  0.10000000000E+01 0.  1.
        -13    1    6    6    0    0  0.15265814884E+01  0.30775542405E+01  0.15653549651E+00  0.34405405834E+01  0.10500000000E+00 0. -1.
         13    1    6    6    0    0  0.18661888325E+01  0.34507807501E+01  0.21919073048E+00  0.39306002239E+01  0.10500000000E+00 0.  1.
</event>
<event>
11    0  0.3482687E-009  0.9118800E+02  0.7816531E-02  0.1126479E+00
         25   -1    0    0    0    0  0.00000000000E+00  0.00000000000E+00  0.99999998245E-14  0.12500000000E+03  0.12500000000E+03 0.  0.
    3000001    1    3    3    0    0 -0.67025335389E+01 -0.50048705487E+02  0.18878146819E+02  0.53918283579E+02  0.10000000000E+01 0.  1.
    1000022    2    1    0    0    0 -0.86445585394E+01 -0.55736966182E+02  0.24998245043E+02  0.62500000112E+02  0.99999983635E+01 0.  0.
    3000022    2    3    3    0    0 -0.19420250005E+01 -0.56882606943E+01  0.61200982240E+01  0.85817165327E+01  0.24997109221E+00 0.  0.
    1000022    2    1    0    0    0  0.86445585394E+01  0.55736966182E+02 -0.24998245043E+02  0.62499999888E+02  0.99999969672E+01 0.  0.
    3000022    2    5    5    0    0 -0.11432993979E+01  0.27811000832E+01 -0.31884981666E+01  0.43898374721E+01  0.25000257385E+00 0.  0.
        -13    1    4    4    0    0 -0.91532529090E+00 -0.27526916977E+01  0.28631169802E+01  0.40772044115E+01  0.10500000000E+00 0. -1.
         13    1    4    4    0    0 -0.10266997096E+01 -0.29355689966E+01  0.32569812437E+01  0.45045121212E+01  0.10500000000E+00 0.  1.
    3000001    1    5    5    0    0  0.97878579373E+01  0.52955866098E+02 -0.21809746876E+02  0.58110162416E+02  0.10000000000E+01 0.  1.
        -13    1    6    6    0    0 -0.50830134903E+00  0.13983678982E+01 -0.15351337130E+01  0.21404353662E+01  0.10500000000E+00 0.  1.
         13    1    6    6    0    0 -0.63499804886E+00  0.13827321850E+01 -0.16533644535E+01  0.22494021058E+01  0.10500000000E+00 0. -1.
</event>
<event>
11    0  0.3482687E-009  0.9118800E+02  0.7816531E-02  0.1126479E+00
         25   -1    0    0    0    0  0.00000000000E+00  0.00000000000E+00  0.99999998245E-14  0.12500000000E+03  0.12500000000E+03 0.  0.
    3000001    1    3    3    0    0 -0.49611259858E+01 -0.20685788959E+02 -0.80797781223E+01  0.22777125595E+02  0.10000000000E+01 0. -1.
    1000022    2    1    0    0    0 -0.13902905424E+02 -0.50033671187E+02 -0.33310526818E+02  0.62500001415E+02  0.99999974135E+01 0.  0.
    3000022    2    3    3    0    0 -0.89417794378E+01 -0.29347882229E+02 -0.25230748695E+02  0.39722875819E+02  0.25014554754E+00 0.  0.
    1000022    2    1    0    0    0  0.13902905424E+02  0.50033671187E+02  0.33310526818E+02  0.62499998585E+02  0.99999797310E+01 0.  0.
    3000022    2    5    5    0    0  0.26326743829E+01  0.13100063199E+02  0.38137202045E+01  0.13897826750E+02  0.24999270850E+00 0.  0.
        -13    1    4    4    0    0 -0.31184947089E+01 -0.10054377986E+02 -0.86797623587E+01  0.13644223157E+02  0.10500000000E+00 0.  1.
         13    1    4    4    0    0 -0.58232847289E+01 -0.19293504242E+02 -0.16550986337E+02  0.26078652663E+02  0.10500000000E+00 0. -1.
    3000001    1    5    5    0    0  0.11270231041E+02  0.36933607989E+02  0.29496806613E+02  0.48602171836E+02  0.10000000000E+01 0. -1.
        -13    1    6    6    0    0  0.68234757965E+00  0.33358240917E+01  0.94450035405E+00  0.35350285019E+01  0.10500000000E+00 0.  1.
         13    1    6    6    0    0  0.19503268033E+01  0.97642391069E+01  0.28692198504E+01  0.10362798248E+02  0.10500000000E+00 0. -1.
</event>
<event>
11    0  0.3482687E-009  0.9118800E+02  0.7816531E-02  0.1126479E+00
         25   -1    0    0    0    0  0.00000000000E+00  0.00000000000E+00  0.99999998245E-14  0.12500000000E+03  0.12500000000E+03 0.  0.
    3000001    1    3    3    0    0 -0.62608636404E+01  0.15423559678E+02 -0.16068413061E+01  0.16753105553E+02  0.10000000000E+01 0.  1.
    1000022    2    1    0    0    0 -0.18856478069E+02  0.54741000502E+02 -0.21309766019E+02  0.62500000580E+02  0.10000002173E+02 0.  0.
    3000022    2    3    3    0    0 -0.12595614429E+02  0.39317440824E+02 -0.19702924713E+02  0.45746895027E+02  0.25001310856E+00 0.  0.
    1000022    2    1    0    0    0  0.18856478069E+02 -0.54741000502E+02  0.21309766019E+02  0.62499999420E+02  0.99999949295E+01 0.  0.
    3000022    2    5    5    0    0  0.13408568156E+02 -0.24366077779E+02  0.86187527268E+01  0.29117706641E+02  0.24999019468E+00 0.  0.
        -13    1    4    4    0    0 -0.79743721504E+01  0.24740614464E+02 -0.12363426438E+02  0.28784613139E+02  0.10500000000E+00 0.  1.
         13    1    4    4    0    0 -0.46212422785E+01  0.14576826360E+02 -0.73394982751E+01  0.16962281888E+02  0.10500000000E+00 0. -1.
    3000001    1    5    5    0    0  0.54479099132E+01 -0.30374922723E+02  0.12691013292E+02  0.33382292780E+02  0.10000000000E+01 0.  1.
        -13    1    6    6    0    0  0.33935455188E+01 -0.62140280996E+01  0.21757116473E+01  0.74077690692E+01  0.10500000000E+00 0. -1.
         13    1    6    6    0    0  0.10015022637E+02 -0.18152049680E+02  0.64430410795E+01  0.21709937571E+02  0.10500000000E+00 0.  1.
</event>
<event>
11    0  0.3482687E-009  0.9118800E+02  0.7816531E-02  0.1126479E+00
         25   -1    0    0    0    0  0.00000000000E+00  0.00000000000E+00  0.99999998245E-14  0.12500000000E+03  0.12500000000E+03 0.  0.
    3000001    1    3    3    0    0  0.17365396750E+02  0.16194195946E+02 -0.87023894144E+01  0.25308902942E+02  0.10000000000E+01 0.  1.
    1000022    2    1    0    0    0  0.45289639114E+02  0.30645975348E+02 -0.28564360471E+02  0.62499999073E+02  0.99999989459E+01 0.  0.
    3000022    2    3    3    0    0  0.27924242365E+02  0.14451779402E+02 -0.19861971056E+02  0.37191096131E+02  0.24999534432E+00 0.  0.
    1000022    2    1    0    0    0 -0.45289639114E+02 -0.30645975348E+02  0.28564360471E+02  0.62500000927E+02  0.10000010529E+02 0.  0.
    3000022    2    5    5    0    0 -0.18220500077E+02 -0.10841855284E+02  0.59046533168E+01  0.22010449336E+02  0.25000022244E+00 0.  0.
        -13    1    4    4    0    0  0.10911176822E+02  0.56465269324E+01 -0.76875101764E+01  0.14492959800E+02  0.10500000000E+00 0. -1.
         13    1    4    4    0    0  0.17013065542E+02  0.88052524696E+01 -0.12174460880E+02  0.22698136331E+02  0.10500000000E+00 0.  1.
    3000001    1    5    5    0    0 -0.27069139037E+02 -0.19804120064E+02  0.22659707154E+02  0.40489551591E+02  0.10000000000E+01 0.  1.
        -13    1    6    6    0    0 -0.13124685648E+02 -0.78079002261E+01  0.42117687837E+01  0.15842054809E+02  0.10500000000E+00 0. -1.
         13    1    6    6    0    0 -0.50958144293E+01 -0.30339550577E+01  0.16928845331E+01  0.61683945263E+01  0.10500000000E+00 0.  1.
</event>
<event>
11    0  0.3482687E-009  0.9118800E+02  0.7816531E-02  0.1126479E+00
         25   -1    0    0    0    0  0.00000000000E+00  0.00000000000E+00  0.99999998245E-14  0.12500000000E+03  0.12500000000E+03 0.  0.
    3000001    1    3    3    0    0 -0.22374841858E+02  0.36728358862E+02  0.13219255258E+02  0.45003939855E+02  0.10000000000E+01 0. -1.
    1000022    2    1    0    0    0 -0.28937897882E+02  0.49010281033E+02  0.23808413548E+02  0.62499999110E+02  0.99999876156E+01 0.  0.
    3000022    2    3    3    0    0 -0.65630560244E+01  0.12281922171E+02  0.10589158290E+02  0.17496059255E+02  0.24999917102E+00 0.  0.
    1000022    2    1    0    0    0  0.28937897882E+02 -0.49010281033E+02 -0.23808413548E+02  0.62500000890E+02  0.99999987405E+01 0.  0.
    3000022    2    5    5    0    0  0.55166255519E+01 -0.17110291517E+02 -0.49386748961E+01  0.18645327644E+02  0.24999992676E+00 0.  0.
        -13    1    4    4    0    0 -0.19166126595E+01  0.35076254300E+01  0.30156589295E+01  0.50081996789E+01  0.10500000000E+00 0. -1.
         13    1    4    4    0    0 -0.46464433648E+01  0.87742967409E+01  0.75734993605E+01  0.12487859577E+02  0.10500000000E+00 0.  1.
    3000001    1    5    5    0    0  0.23421272330E+02 -0.31899989516E+02 -0.18869738652E+02  0.43854673246E+02  0.10000000000E+01 0.  1.
        -13    1    6    6    0    0  0.36872523424E+01 -0.11582356333E+02 -0.33124492651E+01  0.12598815548E+02  0.10500000000E+00 0. -1.
         13    1    6    6    0    0  0.18293732095E+01 -0.55279351837E+01 -0.16262256310E+01  0.60465120969E+01  0.10500000000E+00 0.  1.
</event>
<event>
11    0  0.3482687E-009  0.9118800E+02  0.7816531E-02  0.1126479E+00
         25   -1    0    0    0    0  0.00000000000E+00  0.00000000000E+00  0.99999998245E-14  0.12500000000E+03  0.12500000000E+03 0.  0.
    3000001    1    3    3    0    0 -0.10840138490E+02 -0.67756432579E+01 -0.91042365295E+01  0.15725936119E+02  0.10000000000E+01 0. -1.
    1000022    2    1    0    0    0 -0.52899234385E+02 -0.16695098712E+02 -0.27003605043E+02  0.62499999704E+02  0.99999979103E+01 0.  0.
    3000022    2    3    3    0    0 -0.42059095894E+02 -0.99194554538E+01 -0.17899368513E+02  0.46774063584E+02  0.24997415892E+00 0.  0.
    1000022    2    1    0    0    0  0.52899234385E+02  0.16695098712E+02  0.27003605043E+02  0.62500000296E+02  0.10000001613E+02 0.  0.
    3000022    2    5    5    0    0  0.45257288940E+02  0.10565747570E+02  0.23198572188E+02  0.51943175460E+02  0.25000279084E+00 0.  0.
        -13    1    4    4    0    0 -0.20027992155E+02 -0.47296233697E+01 -0.85968595845E+01  0.22302619279E+02  0.10500000000E+00 0. -1.
         13    1    4    4    0    0 -0.22031103739E+02 -0.51898320841E+01 -0.93025089288E+01  0.24471444305E+02  0.10500000000E+00 0.  1.
    3000001    1    5    5    0    0  0.76419454447E+01  0.61293511417E+01  0.38050328544E+01  0.10556824836E+02  0.10000000000E+01 0.  1.
        -13    1    6    6    0    0  0.21648039813E+02  0.50271148851E+01  0.11163296755E+02  0.24870459007E+02  0.10500000000E+00 0. -1.
         13    1    6    6    0    0  0.23609249127E+02  0.55386326849E+01  0.12035275433E+02  0.27072716453E+02  0.10500000000E+00 0.  1.
</event>
<event>
11    0  0.3482687E-009  0.9118800E+02  0.7816531E-02  0.1126479E+00
         25   -1    0    0    0    0  0.00000000000E+00  0.00000000000E+00  0.99999998245E-14  0.12500000000E+03  0.12500000000E+03 0.  0.
    3000001    1    3    3    0    0  0.65273248087E-01 -0.30082810363E+01  0.29292045231E+01  0.43167411932E+01  0.10000000000E+01 0. -1.
    1000022    2    1    0    0    0  0.31527710920E+02 -0.28978427084E+02  0.44412885704E+02  0.62500001327E+02  0.99999978597E+01 0.  0.
    3000022    2    3    3    0    0  0.31462437672E+02 -0.25970146047E+02  0.41483681181E+02  0.58183260134E+02  0.24997096064E+00 0.  0.
    1000022    2    1    0    0    0 -0.31527710920E+02  0.28978427084E+02 -0.44412885704E+02  0.62499998673E+02  0.99999812713E+01 0.  0.
    3000022    2    5    5    0    0 -0.20710843096E+01  0.54329600465E+01 -0.32498276397E+01  0.66656076715E+01  0.25000171651E+00 0.  0.
        -13    1    4    4    0    0  0.86663900604E+01 -0.71340182414E+01  0.11464111176E+02  0.16044855967E+02  0.10500000000E+00 0. -1.
         13    1    4    4    0    0  0.22796047612E+02 -0.18836127806E+02  0.30019570005E+02  0.42138404167E+02  0.10500000000E+00 0.  1.
    3000001    1    5    5    0    0 -0.29456626611E+02  0.23545467037E+02 -0.41163058064E+02  0.55834391001E+02  0.10000000000E+01 0.  1.
        -13    1    6    6    0    0 -0.12507989627E+01  0.31880284838E+01 -0.19763109364E+01  0.39553575788E+01  0.10500000000E+00 0.  1.
         13    1    6    6    0    0 -0.82028534697E+00  0.22449315627E+01 -0.12735167032E+01  0.27102500927E+01  0.10500000000E+00 0. -1.
</event>
<event>
11    0  0.3482687E-009  0.9118800E+02  0.7816531E-02  0.1126479E+00
         25   -1    0    0    0    0  0.00000000000E+00  0.00000000000E+00  0.99999998245E-14  0.12500000000E+03  0.12500000000E+03 0.  0.
    3000001    1    3    3    0    0 -0.36332644345E+02  0.24354696860E+02 -0.25937049664E+01  0.43828525069E+02  0.10000000000E+01 0. -1.
    1000022    2    1    0    0    0 -0.53932804466E+02  0.29958081411E+02  0.12620869997E+00  0.62500000183E+02  0.10000002745E+02 0.  0.
    3000022    2    3    3    0    0 -0.17600160120E+02  0.56033845509E+01  0.27199136664E+01  0.18671475114E+02  0.24999580345E+00 0.  0.
    1000022    2    1    0    0    0  0.53932804466E+02 -0.29958081411E+02 -0.12620869997E+00  0.62499999817E+02  0.10000000455E+02 0.  0.
    3000022    2    5    5    0    0  0.84703701595E+01 -0.58533510412E+01  0.35699344499E+01  0.10900266935E+02  0.24999647371E+00 0.  0.
        -13    1    4    4    0    0 -0.12284568292E+02  0.39414806649E+01  0.19361124383E+01  0.13046280862E+02  0.10500000000E+00 0. -1.
         13    1    4    4    0    0 -0.53155918279E+01  0.16619038860E+01  0.78380122807E+00  0.56251942519E+01  0.10500000000E+00 0.  1.
    3000001    1    5    5    0    0  0.45462434306E+02 -0.24104730370E+02 -0.36961431499E+01  0.51599732881E+02  0.10000000000E+01 0. -1.
        -13    1    6    6    0    0  0.31404051422E+01 -0.22431411897E+01  0.13343307518E+01  0.40847632011E+01  0.10500000000E+00 0. -1.
         13    1    6    6    0    0  0.53299650173E+01 -0.36102098515E+01  0.22356036981E+01  0.68155037343E+01  0.10500000000E+00 0.  1.
</event>
<event>
11    0  0.3482687E-009  0.9118800E+02  0.7816531E-02  0.1126479E+00
         25   -1    0    0    0    0  0.00000000000E+00  0.00000000000E+00  0.99999998245E-14  0.12500000000E+03  0.12500000000E+03 0.  0.
    3000001    1    3    3    0    0 -0.11051707712E+02  0.42785497103E+02 -0.29355294500E+02  0.53061024499E+02  0.10000000000E+01 0.  1.
    1000022    2    1    0    0    0 -0.12032857324E+02  0.47524088682E+02 -0.37455591238E+02  0.62500000378E+02  0.10000003593E+02 0.  0.
    3000022    2    3    3    0    0 -0.98114961179E+00  0.47385915790E+01 -0.81002967380E+01  0.94389758792E+01  0.25010735655E+00 0.  0.
    1000022    2    1    0    0    0  0.12032857324E+02 -0.47524088682E+02  0.37455591238E+02  0.62499999622E+02  0.99999988668E+01 0.  0.
    3000022    2    5    5    0    0  0.26944444384E+01 -0.30171993464E+02  0.22086585622E+02  0.37489851736E+02  0.24999659347E+00 0.  0.
        -13    1    4    4    0    0 -0.64740224075E+00  0.32686886945E+01 -0.54964562798E+01  0.64284922088E+01  0.10500000000E+00 0.  1.
         13    1    4    4    0    0 -0.33374737104E+00  0.14699028846E+01 -0.26038404582E+01  0.30104836704E+01  0.10500000000E+00 0. -1.
    3000001    1    5    5    0    0  0.93384128858E+01 -0.17352095218E+02  0.15369005616E+02  0.25010147886E+02  0.10000000000E+01 0. -1.
        -13    1    6    6    0    0  0.14528163354E+01 -0.17009492642E+02  0.12445173352E+02  0.21126449773E+02  0.10500000000E+00 0.  1.
         13    1    6    6    0    0  0.12416281031E+01 -0.13162500822E+02  0.96414122702E+01  0.16363401963E+02  0.10500000000E+00 0. -1.
</event>
<event>
11    0  0.3482687E-009  0.9118800E+02  0.7816531E-02  0.1126479E+00
         25   -1    0    0    0    0  0.00000000000E+00  0.00000000000E+00  0.99999998245E-14  0.12500000000E+03  0.12500000000E+03 0.  0.
    3000001    1    3    3    0    0 -0.20025652831E+02  0.41889055201E+02 -0.51792320830E+01  0.46728408510E+02  0.10000000000E+01 0. -1.
    1000022    2    1    0    0    0 -0.25926122748E+02  0.54583175268E+02 -0.12440387075E+02  0.62499999536E+02  0.99999924182E+01 0.  0.
    3000022    2    3    3    0    0 -0.59004699169E+01  0.12694120067E+02 -0.72611549921E+01  0.15771591026E+02  0.24996429920E+00 0.  0.
    1000022    2    1    0    0    0  0.25926122748E+02 -0.54583175268E+02  0.12440387075E+02  0.62500000464E+02  0.99999982175E+01 0.  0.
    3000022    2    5    5    0    0  0.22699442069E+02 -0.47525259134E+02  0.14052420591E+02  0.54510989235E+02  0.24999389017E+00 0.  0.
        -13    1    4    4    0    0 -0.40315543830E+01  0.87727125306E+01 -0.49800628856E+01  0.10863975664E+02  0.10500000000E+00 0. -1.
         13    1    4    4    0    0 -0.18689155339E+01  0.39214075365E+01 -0.22810921064E+01  0.49076153617E+01  0.10500000000E+00 0.  1.
    3000001    1    5    5    0    0  0.32266806786E+01 -0.70579161342E+01 -0.16120335157E+01  0.79890112288E+01  0.10000000000E+01 0.  1.
        -13    1    6    6    0    0  0.10791158135E+02 -0.22612127715E+02  0.66155977462E+01  0.25913984106E+02  0.10500000000E+00 0. -1.
         13    1    6    6    0    0  0.11908283934E+02 -0.24913131419E+02  0.74368228445E+01  0.28597005130E+02  0.10500000000E+00 0.  1.
</event>
<event>
11    0  0.3482687E-009  0.9118800E+02  0.7816531E-02  0.1126479E+00
         25   -1    0    0    0    0  0.00000000000E+00  0.00000000000E+00  0.99999998245E-14  0.12500000000E+03  0.12500000000E+03 0.  0.
    3000001    1    3    3    0    0  0.33995083595E+00 -0.84578948012E+01 -0.27967553019E+00  0.85281750358E+01  0.10000000000E+01 0. -1.
    1000022    2    1    0    0    0  0.14050320327E+02 -0.55747368287E+02 -0.22384580529E+02  0.62499999721E+02  0.99999973708E+01 0.  0.
    3000022    2    3    3    0    0  0.13710369491E+02 -0.47289473486E+02 -0.22104904998E+02  0.53971824685E+02  0.25000134842E+00 0.  0.
    1000022    2    1    0    0    0 -0.14050320327E+02  0.55747368287E+02  0.22384580529E+02  0.62500000279E+02  0.10000000860E+02 0.  0.
    3000022    2    5    5    0    0 -0.20955328114E+01  0.66820372618E+01  0.64806533976E+01  0.95447498182E+01  0.25000180109E+00 0.  0.
        -13    1    4    4    0    0  0.97362208399E+01 -0.33728631166E+02 -0.15771359786E+02  0.38485859365E+02  0.10500000000E+00 0.  1.
         13    1    4    4    0    0  0.39741486510E+01 -0.13560842320E+02 -0.63335452129E+01  0.15485965320E+02  0.10500000000E+00 0. -1.
    3000001    1    5    5    0    0 -0.11954787515E+02  0.49065331026E+02  0.15903927131E+02  0.52955250461E+02  0.10000000000E+01 0.  1.
        -13    1    6    6    0    0 -0.86445637086E+00  0.25940043145E+01  0.24783362662E+01  0.36917907375E+01  0.10500000000E+00 0.  1.
         13    1    6    6    0    0 -0.12310764405E+01  0.40880329472E+01  0.40023171314E+01  0.58529590807E+01  0.10500000000E+00 0. -1.
</event>
<event>
11    0  0.3482687E-009  0.9118800E+02  0.7816531E-02  0.1126479E+00
         25   -1    0    0    0    0  0.00000000000E+00  0.00000000000E+00  0.99999998245E-14  0.12500000000E+03  0.12500000000E+03 0.  0.
    3000001    1    3    3    0    0 -0.44078233140E+02  0.14154739166E+02 -0.21217527335E+02  0.50935554810E+02  0.10000000000E+01 0.  1.
    1000022    2    1    0    0    0 -0.55246030100E+02  0.13231074667E+02 -0.24063765184E+02  0.62500001075E+02  0.10000008041E+02 0.  0.
    3000022    2    3    3    0    0 -0.11167796960E+02 -0.92366449849E+00 -0.28462378495E+01  0.11564446265E+02  0.25000493157E+00 0.  0.
    1000022    2    1    0    0    0  0.55246030100E+02 -0.13231074667E+02  0.24063765184E+02  0.62499998925E+02  0.99999946068E+01 0.  0.
    3000022    2    5    5    0    0  0.28979844464E+02 -0.47713348055E+01  0.75507907451E+01  0.30326127053E+02  0.25004039491E+00 0.  0.
        -13    1    4    4    0    0 -0.52221462170E+01 -0.49594767417E+00 -0.13100763167E+01  0.54077814455E+01  0.10500000000E+00 0. -1.
         13    1    4    4    0    0 -0.59456507429E+01 -0.42771682432E+00 -0.15361615328E+01  0.61566648190E+01  0.10500000000E+00 0.  1.
    3000001    1    5    5    0    0  0.26266185636E+02 -0.84597398619E+01  0.16512974439E+02  0.32173871872E+02  0.10000000000E+01 0. -1.
        -13    1    6    6    0    0  0.16664748908E+02 -0.27749564216E+01  0.44026518591E+01  0.17458768792E+02  0.10500000000E+00 0. -1.
         13    1    6    6    0    0  0.12315095555E+02 -0.19963783840E+01  0.31481388860E+01  0.12867358262E+02  0.10500000000E+00 0.  1.
</event>
<event>
11    0  0.3482687E-009  0.9118800E+02  0.7816531E-02  0.1126479E+00
         25   -1    0    0    0    0  0.00000000000E+00  0.00000000000E+00  0.99999998245E-14  0.12500000000E+03  0.12500000000E+03 0.  0.
    3000001    1    3    3    0    0 -0.55240858740E+01  0.55872870866E+01  0.39647238323E+01  0.88573323748E+01  0.10000000000E+01 0.  1.
    1000022    2    1    0    0    0 -0.45387459389E+02  0.18629364938E+02  0.37405551545E+02  0.62500000092E+02  0.10000000866E+02 0.  0.
    3000022    2    3    3    0    0 -0.39863373515E+02  0.13042077852E+02  0.33440827713E+02  0.53642667717E+02  0.24999804344E+00 0.  0.
    1000022    2    1    0    0    0  0.45387459389E+02 -0.18629364938E+02 -0.37405551545E+02  0.62499999908E+02  0.99999997148E+01 0.  0.
    3000022    2    5    5    0    0  0.11984987146E+02 -0.78175179166E+01 -0.15544950349E+02  0.21129635242E+02  0.25000166022E+00 0.  0.
        -13    1    4    4    0    0 -0.28881698629E+02  0.94702467624E+01  0.24192054143E+02  0.38847195499E+02  0.10500000000E+00 0. -1.
         13    1    4    4    0    0 -0.10981674886E+02  0.35718310892E+01  0.92487735697E+01  0.14795472219E+02  0.10500000000E+00 0.  1.
    3000001    1    5    5    0    0  0.33402472243E+02 -0.10811847022E+02 -0.21860601196E+02  0.41370364666E+02  0.10000000000E+01 0. -1.
        -13    1    6    6    0    0  0.73922055103E+01 -0.48278380020E+01 -0.96810378985E+01  0.13102909672E+02  0.10500000000E+00 0. -1.
         13    1    6    6    0    0  0.45927816361E+01 -0.29896799147E+01 -0.58639124502E+01  0.80267255698E+01  0.10500000000E+00 0.  1.
</event>
<event>
11    0  0.3482687E-009  0.9118800E+02  0.7816531E-02  0.1126479E+00
         25   -1    0    0    0    0  0.00000000000E+00  0.00000000000E+00  0.99999998245E-14  0.12500000000E+03  0.12500000000E+03 0.  0.
    3000001    1    3    3    0    0 -0.24922659270E+02 -0.64290439363E+01 -0.19857499948E-01  0.25757949168E+02  0.10000000000E+01 0.  1.
    1000022    2    1    0    0    0 -0.60655021053E+02 -0.74484620845E+01  0.84698529124E+01  0.62500003713E+02  0.10000044473E+02 0.  0.
    3000022    2    3    3    0    0 -0.35732361783E+02 -0.10194181482E+01  0.84897104124E+01  0.36742054545E+02  0.24999476095E+00 0.  0.
    1000022    2    1    0    0    0  0.60655021053E+02  0.74484620845E+01 -0.84698529124E+01  0.62499996287E+02  0.99999980544E+01 0.  0.
    3000022    2    5    5    0    0  0.29015177999E+02  0.79877324261E+01 -0.18315542372E+01  0.30151310219E+02  0.24998676256E+00 0.  0.
        -13    1    4    4    0    0 -0.83286635580E+01 -0.24841607998E+00  0.19846937800E+01  0.85661182347E+01  0.10500000000E+00 0. -1.
         13    1    4    4    0    0 -0.27403698225E+02 -0.77100206824E+00  0.65050166324E+01  0.28175936310E+02  0.10500000000E+00 0.  1.
    3000001    1    5    5    0    0  0.31639843054E+02 -0.53927034153E+00 -0.66382986753E+01  0.32348686067E+02  0.10000000000E+01 0.  1.
        -13    1    6    6    0    0  0.81122138293E+01  0.21924867730E+01 -0.51425034656E+00  0.84196490355E+01  0.10500000000E+00 0.  1.
         13    1    6    6    0    0  0.20902964170E+02  0.57952456531E+01 -0.13173038906E+01  0.21731661184E+02  0.10500000000E+00 0. -1.
</event>
<event>
11    0  0.3482687E-009  0.9118800E+02  0.7816531E-02  0.1126479E+00
         25   -1    0    0    0    0  0.00000000000E+00  0.00000000000E+00  0.99999998245E-14  0.12500000000E+03  0.12500000000E+03 0.  0.
    3000001    1    3    3    0    0 -0.36398528882E+02 -0.21399441837E+02  0.29494118057E+01  0.42337785083E+02  0.10000000000E+01 0.  1.
    1000022    2    1    0    0    0 -0.51330189150E+02 -0.34193701165E+02 -0.15008564933E+01  0.62500000245E+02  0.99999971412E+01 0.  0.
    3000022    2    3    3    0    0 -0.14931660268E+02 -0.12794259328E+02 -0.44502682990E+01  0.20162215162E+02  0.24996437305E+00 0.  0.
    1000022    2    1    0    0    0  0.51330189150E+02  0.34193701165E+02  0.15008564933E+01  0.62499999755E+02  0.99999940836E+01 0.  0.
    3000022    2    5    5    0    0  0.20676305097E+02  0.12155892603E+02  0.52295162079E+01  0.24549656977E+02  0.25000093480E+00 0.  0.
        -13    1    4    4    0    0 -0.71303332363E+01 -0.60800324749E+01 -0.20555060447E+01  0.95939865049E+01  0.10500000000E+00 0. -1.
         13    1    4    4    0    0 -0.78013270315E+01 -0.67142268533E+01 -0.23947622542E+01  0.10568228657E+02  0.10500000000E+00 0.  1.
    3000001    1    5    5    0    0  0.30653884053E+02  0.22037808561E+02 -0.37286597147E+01  0.37950342778E+02  0.10000000000E+01 0. -1.
        -13    1    6    6    0    0  0.12747401883E+02  0.74691915784E+01  0.31625765310E+01  0.15109533180E+02  0.10500000000E+00 0. -1.
         13    1    6    6    0    0  0.79289032145E+01  0.46867010250E+01  0.20669396769E+01  0.94401237974E+01  0.10500000000E+00 0.  1.
</event>
<event>
11    0  0.3482687E-009  0.9118800E+02  0.7816531E-02  0.1126479E+00
         25   -1    0    0    0    0  0.00000000000E+00  0.00000000000E+00  0.99999998245E-14  0.12500000000E+03  0.12500000000E+03 0.  0.
    3000001    1    3    3    0    0 -0.43926179448E+02  0.20210210404E+02  0.41658037468E+01  0.48541897020E+02  0.10000000000E+01 0.  1.
    1000022    2    1    0    0    0 -0.53586433869E+02  0.29479233324E+02  0.81067194749E+01  0.62499999525E+02  0.99999973915E+01 0.  0.
    3000022    2    3    3    0    0 -0.96602544214E+01  0.92690229200E+01  0.39409157280E+01  0.13958102505E+02  0.25001478501E+00 0.  0.
    1000022    2    1    0    0    0  0.53586433869E+02 -0.29479233324E+02 -0.81067194749E+01  0.62500000475E+02  0.10000003324E+02 0.  0.
    3000022    2    5    5    0    0  0.21225443858E+01 -0.35322266333E+01  0.70059327559E+00  0.41874989431E+01  0.24999360392E+00 0.  0.
        -13    1    4    4    0    0 -0.53834583309E+01  0.50931414566E+01  0.21383820693E+01  0.77139753935E+01  0.10500000000E+00 0.  1.
         13    1    4    4    0    0 -0.42767960905E+01  0.41758814634E+01  0.18025336587E+01  0.62441271117E+01  0.10500000000E+00 0. -1.
    3000001    1    5    5    0    0  0.51463889483E+02 -0.25947006691E+02 -0.88073127505E+01  0.58312501532E+02  0.10000000000E+01 0.  1.
        -13    1    6    6    0    0  0.83385760347E+00 -0.12728356084E+01  0.26459768510E+00  0.15480523001E+01  0.10500000000E+00 0. -1.
         13    1    6    6    0    0  0.12886867823E+01 -0.22593910249E+01  0.43599559049E+00  0.26394466430E+01  0.10500000000E+00 0.  1.
</event>
<event>
11    0  0.3482687E-009  0.9118800E+02  0.7816531E-02  0.1126479E+00
         25   -1    0    0    0    0  0.00000000000E+00  0.00000000000E+00  0.99999998245E-14  0.12500000000E+03  0.12500000000E+03 0.  0.
    3000001    1    3    3    0    0  0.19541122714E+02 -0.35331255124E+02  0.36702767414E+01  0.40553964010E+02  0.10000000000E+01 0.  1.
    1000022    2    1    0    0    0  0.24842181602E+02 -0.56462709444E+02  0.10384753965E+01  0.62499999433E+02  0.99999976719E+01 0.  0.
    3000022    2    3    3    0    0  0.53010588881E+01 -0.21131454320E+02 -0.26318013449E+01  0.21946035423E+02  0.25001089431E+00 0.  0.
    1000022    2    1    0    0    0 -0.24842181602E+02  0.56462709444E+02 -0.10384753965E+01  0.62500000567E+02  0.10000004755E+02 0.  0.
    3000022    2    5    5    0    0 -0.12767685183E+02  0.19550416841E+02 -0.33040682557E+01  0.23584146213E+02  0.25000398224E+00 0.  0.
        -13    1    4    4    0    0  0.15333018912E+01 -0.62497207501E+01 -0.80703018815E+00  0.64863199789E+01  0.10500000000E+00 0.  1.
         13    1    4    4    0    0  0.37677569969E+01 -0.14881733570E+02 -0.18247711568E+01  0.15459715444E+02  0.10500000000E+00 0. -1.
    3000001    1    5    5    0    0 -0.12074496419E+02  0.36912292604E+02  0.22655928591E+01  0.38915854353E+02  0.10000000000E+01 0.  1.
        -13    1    6    6    0    0 -0.95133113882E+01  0.14553660467E+02 -0.24888693738E+01  0.17564669719E+02  0.10500000000E+00 0.  1.
         13    1    6    6    0    0 -0.32543737952E+01  0.49967563733E+01 -0.81519888190E+00  0.60194764946E+01  0.10500000000E+00 0. -1.
</event>
<event>
11    0  0.3482687E-009  0.9118800E+02  0.7816531E-02  0.1126479E+00
         25   -1    0    0    0    0  0.00000000000E+00  0.00000000000E+00  0.99999998245E-14  0.12500000000E+03  0.12500000000E+03 0.  0.
    3000001    1    3    3    0    0 -0.14729064742E+02 -0.76557795239E+01 -0.15724805402E+01  0.16704161258E+02  0.10000000000E+01 0. -1.
    1000022    2    1    0    0    0 -0.56516949235E+02 -0.22943900352E+02  0.92553750617E+01  0.62500000406E+02  0.99999984511E+01 0.  0.
    3000022    2    3    3    0    0 -0.41787884494E+02 -0.15288120828E+02  0.10827855602E+02  0.45795839148E+02  0.24999490728E+00 0.  0.
    1000022    2    1    0    0    0  0.56516949235E+02  0.22943900352E+02 -0.92553750617E+01  0.62499999594E+02  0.99999933729E+01 0.  0.
    3000022    2    5    5    0    0  0.41057660760E+02  0.14695350708E+02 -0.10660423230E+02  0.44893116515E+02  0.24989492398E+00 0.  0.
        -13    1    4    4    0    0 -0.22329926312E+02 -0.81991932330E+01  0.57255285196E+01  0.24467224620E+02  0.10500000000E+00 0.  1.
         13    1    4    4    0    0 -0.19457958181E+02 -0.70889275951E+01  0.51023270823E+01  0.21328614528E+02  0.10500000000E+00 0. -1.
    3000001    1    5    5    0    0  0.15459288475E+02  0.82485496438E+01  0.14050481685E+01  0.17606883079E+02  0.10000000000E+01 0.  1.
        -13    1    6    6    0    0  0.22747923079E+02  0.81714680571E+01 -0.58467820245E+01  0.24868389165E+02  0.10500000000E+00 0. -1.
         13    1    6    6    0    0  0.18309737681E+02  0.65238826511E+01 -0.48136412057E+01  0.20024727350E+02  0.10500000000E+00 0.  1.
</event>
<event>
11    0  0.3482687E-009  0.9118800E+02  0.7816531E-02  0.1126479E+00
         25   -1    0    0    0    0  0.00000000000E+00  0.00000000000E+00  0.99999998245E-14  0.12500000000E+03  0.12500000000E+03 0.  0.
    3000001    1    3    3    0    0 -0.25144693766E+01  0.33548927952E+01 -0.21109837797E+01  0.47993868808E+01  0.10000000000E+01 0.  1.
    1000022    2    1    0    0    0 -0.12328812181E+02  0.33439058525E+02 -0.50359505688E+02  0.62499999646E+02  0.99999948878E+01 0.  0.
    3000022    2    3    3    0    0 -0.98143428049E+01  0.30084165730E+02 -0.48248521909E+02  0.57700612765E+02  0.24998957376E+00 0.  0.
    1000022    2    1    0    0    0  0.12328812181E+02 -0.33439058525E+02  0.50359505688E+02  0.62500000354E+02  0.99999993115E+01 0.  0.
    3000022    2    5    5    0    0  0.53489067298E+01 -0.90664534119E+01  0.84165758846E+01  0.13480082763E+02  0.25000200133E+00 0.  0.
        -13    1    4    4    0    0 -0.51676972150E+01  0.15661432215E+02 -0.25215302234E+02  0.30129853058E+02  0.10500000000E+00 0. -1.
         13    1    4    4    0    0 -0.46466455899E+01  0.14422733514E+02 -0.23033219675E+02  0.27570759708E+02  0.10500000000E+00 0.  1.
    3000001    1    5    5    0    0  0.69799054517E+01 -0.24372605113E+02  0.41942929804E+02  0.49019917591E+02  0.10000000000E+01 0. -1.
        -13    1    6    6    0    0  0.40073150553E+01 -0.68369865420E+01  0.63225635733E+01  0.10138480856E+02  0.10500000000E+00 0.  1.
         13    1    6    6    0    0  0.13415916745E+01 -0.22294668699E+01  0.20940123114E+01  0.33416019070E+01  0.10500000000E+00 0. -1.
</event>
<event>
11    0  0.3482687E-009  0.9118800E+02  0.7816531E-02  0.1126479E+00
         25   -1    0    0    0    0  0.00000000000E+00  0.00000000000E+00  0.99999998245E-14  0.12500000000E+03  0.12500000000E+03 0.  0.
    3000001    1    3    3    0    0  0.54255919618E+01  0.20326877766E+02  0.82243047984E+01  0.22611019377E+02  0.10000000000E+01 0. -1.
    1000022    2    1    0    0    0  0.17422382749E+02  0.58324500180E+02  0.10048040385E+02  0.62500000455E+02  0.10000009967E+02 0.  0.
    3000022    2    3    3    0    0  0.11996790787E+02  0.37997622414E+02  0.18237355867E+01  0.39888981077E+02  0.25000321270E+00 0.  0.
    1000022    2    1    0    0    0 -0.17422382749E+02 -0.58324500180E+02 -0.10048040385E+02  0.62499999545E+02  0.10000004282E+02 0.  0.
    3000022    2    5    5    0    0 -0.12465328055E+02 -0.34427711424E+02 -0.15871963847E+01  0.36650148766E+02  0.24998961305E+00 0.  0.
        -13    1    4    4    0    0  0.82671882989E+01  0.26339108750E+02  0.12743806165E+01  0.27635667589E+02  0.10500000000E+00 0.  1.
         13    1    4    4    0    0  0.37296024881E+01  0.11658513664E+02  0.54935497024E+00  0.12253313489E+02  0.10500000000E+00 0. -1.
    3000001    1    5    5    0    0 -0.49570546939E+01 -0.23896788756E+02 -0.84608440005E+01  0.25849850779E+02  0.10000000000E+01 0.  1.
        -13    1    6    6    0    0 -0.60603297324E+01 -0.16560565891E+02 -0.73385177607E+00  0.17650198370E+02  0.10500000000E+00 0. -1.
         13    1    6    6    0    0 -0.64049983226E+01 -0.17867145534E+02 -0.85334460862E+00  0.18999950396E+02  0.10500000000E+00 0.  1.
</event>
<event>
11    0  0.3482687E-009  0.9118800E+02  0.7816531E-02  0.1126479E+00
         25   -1    0    0    0    0  0.00000000000E+00  0.00000000000E+00  0.99999998245E-14  0.12500000000E+03  0.12500000000E+03 0.  0.
    3000001    1    3    3    0    0 -0.10251809283E+02  0.15195276114E+02 -0.72265519347E+01  0.19728635600E+02  0.10000000000E+01 0.  1.
    1000022    2    1    0    0    0 -0.32957357871E+02  0.39263880413E+02 -0.34327982197E+02  0.62500000687E+02  0.99999990596E+01 0.  0.
    3000022    2    3    3    0    0 -0.22705548587E+02  0.24068604299E+02 -0.27101430263E+02  0.42771365087E+02  0.24999912398E+00 0.  0.
    1000022    2    1    0    0    0  0.32957357871E+02 -0.39263880413E+02  0.34327982197E+02  0.62499999313E+02  0.99999904730E+01 0.  0.
    3000022    2    5    5    0    0  0.26367703353E+02 -0.24617613574E+02  0.22304715289E+02  0.42412798758E+02  0.24999231670E+00 0.  0.
        -13    1    4    4    0    0 -0.14272256994E+02  0.15200602469E+02 -0.17121306840E+02  0.26979729576E+02  0.10500000000E+00 0.  1.
         13    1    4    4    0    0 -0.84332915938E+01  0.88680018301E+01 -0.99801234226E+01  0.15791635510E+02  0.10500000000E+00 0. -1.
    3000001    1    5    5    0    0  0.65896545175E+01 -0.14646266839E+02  0.12023266908E+02  0.20087200555E+02  0.10000000000E+01 0.  1.
        -13    1    6    6    0    0  0.19751839815E+02 -0.18414640816E+02  0.16719561076E+02  0.31761437625E+02  0.10500000000E+00 0.  1.
         13    1    6    6    0    0  0.66158635387E+01 -0.62029727580E+01  0.55851542124E+01  0.10651361133E+02  0.10500000000E+00 0. -1.
</event>
<event>
11    0  0.3482687E-009  0.9118800E+02  0.7816531E-02  0.1126479E+00
         25   -1    0    0    0    0  0.00000000000E+00  0.00000000000E+00  0.99999998245E-14  0.12500000000E+03  0.12500000000E+03 0.  0.
    3000001    1    3    3    0    0 -0.10463843504E+02  0.21218418504E+02  0.29042949072E+01  0.23856827819E+02  0.10000000000E+01 0. -1.
    1000022    2    1    0    0    0 -0.22573515225E+02  0.54146469295E+02  0.19100943291E+02  0.62499997936E+02  0.99999990337E+01 0.  0.
    3000022    2    3    3    0    0 -0.12109671721E+02  0.32928050791E+02  0.16196648384E+02  0.38643170117E+02  0.24999944218E+00 0.  0.
    1000022    2    1    0    0    0  0.22573515225E+02 -0.54146469295E+02 -0.19100943291E+02  0.62500002064E+02  0.10000024831E+02 0.  0.
    3000022    2    5    5    0    0  0.14005282162E+02 -0.32467034078E+02 -0.16508730872E+02  0.39023799339E+02  0.24997912333E+00 0.  0.
        -13    1    4    4    0    0 -0.64662019457E+01  0.17461874789E+02  0.85378646653E+01  0.20484994430E+02  0.10500000000E+00 0. -1.
         13    1    4    4    0    0 -0.56434697752E+01  0.15466176002E+02  0.76587837188E+01  0.18158175687E+02  0.10500000000E+00 0.  1.
    3000001    1    5    5    0    0  0.85682330631E+01 -0.21679435217E+02 -0.25922124188E+01  0.23476202725E+02  0.10000000000E+01 0.  1.
        -13    1    6    6    0    0  0.33510610941E+01 -0.78024871195E+01 -0.39803454011E+01  0.93788373596E+01  0.10500000000E+00 0.  1.
         13    1    6    6    0    0  0.10654221068E+02 -0.24664546958E+02 -0.12528385471E+02  0.29644961979E+02  0.10500000000E+00 0. -1.
</event>
<event>
11    0  0.3482687E-009  0.9118800E+02  0.7816531E-02  0.1126479E+00
         25   -1    0    0    0    0  0.00000000000E+00  0.00000000000E+00  0.99999998245E-14  0.12500000000E+03  0.12500000000E+03 0.  0.
    3000001    1    3    3    0    0  0.16292294691E+02  0.12932930813E+02  0.52396298389E+00  0.20832045097E+02  0.10000000000E+01 0. -1.
    1000022    2    1    0    0    0  0.55398953694E+02  0.27068225871E+02 -0.21253408251E+01  0.62500002275E+02  0.10000014427E+02 0.  0.
    3000022    2    3    3    0    0  0.39106659003E+02  0.14135295058E+02 -0.26493038090E+01  0.41667957178E+02  0.24999989786E+00 0.  0.
    1000022    2    1    0    0    0 -0.55398953694E+02 -0.27068225871E+02  0.21253408251E+01  0.62499997725E+02  0.99999859946E+01 0.  0.
    3000022    2    5    5    0    0 -0.20427463673E+02 -0.47789655850E+01  0.58374358884E+00  0.20988640721E+02  0.24999706432E+00 0.  0.
        -13    1    4    4    0    0  0.22093106420E+02  0.79190848300E+01 -0.15158077633E+01  0.23518629934E+02  0.10500000000E+00 0.  1.
         13    1    4    4    0    0  0.17013552583E+02  0.62162102278E+01 -0.11334960456E+01  0.18149327243E+02  0.10500000000E+00 0. -1.
    3000001    1    5    5    0    0 -0.34971490020E+02 -0.22289260286E+02  0.15415972362E+01  0.41511357005E+02  0.10000000000E+01 0.  1.
        -13    1    6    6    0    0 -0.13970574001E+02 -0.32206571319E+01  0.38052369134E+00  0.14342433320E+02  0.10500000000E+00 0. -1.
         13    1    6    6    0    0 -0.64568896727E+01 -0.15583084531E+01  0.20321989751E+00  0.66462074003E+01  0.10500000000E+00 0.  1.
</event>
<event>
11    0  0.3482687E-009  0.9118800E+02  0.7816531E-02  0.1126479E+00
         25   -1    0    0    0    0  0.00000000000E+00  0.00000000000E+00  0.99999998245E-14  0.12500000000E+03  0.12500000000E+03 0.  0.
    3000001    1    3    3    0    0  0.11255734411E+01  0.22058523804E+01  0.32368764731E+01  0.41964353442E+01  0.10000000000E+01 0.  1.
    1000022    2    1    0    0    0  0.43270970828E+02  0.11762104272E+02  0.42373645813E+02  0.62500000296E+02  0.10000008211E+02 0.  0.
    3000022    2    3    3    0    0  0.42145397387E+02  0.95562518914E+01  0.39136769340E+02  0.58303564952E+02  0.25000125805E+00 0.  0.
    1000022    2    1    0    0    0 -0.43270970828E+02 -0.11762104272E+02 -0.42373645813E+02  0.62499999704E+02  0.10000004515E+02 0.  0.
    3000022    2    5    5    0    0 -0.28366897277E+02 -0.58662678003E+01 -0.32978389290E+02  0.43894539720E+02  0.24999605393E+00 0.  0.
        -13    1    4    4    0    0  0.16886164481E+02  0.38434173403E+01  0.15766735605E+02  0.23420405299E+02  0.10500000000E+00 0.  1.
         13    1    4    4    0    0  0.25259232906E+02  0.57128345512E+01  0.23370033735E+02  0.34883159653E+02  0.10500000000E+00 0. -1.
    3000001    1    5    5    0    0 -0.14904073551E+02 -0.58958364715E+01 -0.93952565225E+01  0.18605459984E+02  0.10000000000E+01 0.  1.
        -13    1    6    6    0    0 -0.17088406460E+02 -0.35173758489E+01 -0.19770367630E+02  0.26367859781E+02  0.10500000000E+00 0.  1.
         13    1    6    6    0    0 -0.11278490816E+02 -0.23488919514E+01 -0.13208021660E+02  0.17526679939E+02  0.10500000000E+00 0. -1.
</event>
<event>
11    0  0.3482687E-009  0.9118800E+02  0.7816531E-02  0.1126479E+00
         25   -1    0    0    0    0  0.00000000000E+00  0.00000000000E+00  0.99999998245E-14  0.12500000000E+03  0.12500000000E+03 0.  0.
    3000001    1    3    3    0    0 -0.15345084171E+02 -0.35897843966E+02 -0.11931778359E+02  0.40834962280E+02  0.10000000000E+01 0. -1.
    1000022    2    1    0    0    0 -0.25636589079E+02 -0.54952474662E+02 -0.11368414108E+02  0.62499999456E+02  0.99999960779E+01 0.  0.
    3000022    2    3    3    0    0 -0.10291504909E+02 -0.19054630696E+02  0.56336425098E+00  0.21665037176E+02  0.24986456848E+00 0.  0.
    1000022    2    1    0    0    0  0.25636589079E+02  0.54952474662E+02  0.11368414108E+02  0.62500000544E+02  0.10000002880E+02 0.  0.
    3000022    2    5    5    0    0  0.22517898585E+02  0.50454500376E+02  0.75816950879E+01  0.55769677816E+02  0.24999704641E+00 0.  0.
        -13    1    4    4    0    0 -0.64267980076E+01 -0.12024273064E+02  0.35421947071E+00  0.13639038521E+02  0.10500000000E+00 0.  1.
         13    1    4    4    0    0 -0.38647069010E+01 -0.70303576324E+01  0.20914478027E+00  0.80259986550E+01  0.10500000000E+00 0. -1.
    3000001    1    5    5    0    0  0.31186904947E+01  0.44979742863E+01  0.37867190202E+01  0.67303227277E+01  0.10000000000E+01 0.  1.
        -13    1    6    6    0    0  0.72155442505E+01  0.16159231645E+02  0.24796206492E+01  0.17870209561E+02  0.10500000000E+00 0.  1.
         13    1    6    6    0    0  0.15302354334E+02  0.34295268730E+02  0.51020744387E+01  0.37899468255E+02  0.10500000000E+00 0. -1.
</event>
<event>
11    0  0.3482687E-009  0.9118800E+02  0.7816531E-02  0.1126479E+00
         25   -1    0    0    0    0  0.00000000000E+00  0.00000000000E+00  0.99999998245E-14  0.12500000000E+03  0.12500000000E+03 0.  0.
    3000001    1    3    3    0    0 -0.25337357939E+02  0.21888175803E+02  0.34902660277E+02  0.48376333487E+02  0.10000000000E+01 0.  1.
    1000022    2    1    0    0    0 -0.35802186918E+02  0.23984457265E+02  0.44149736236E+02  0.62499999965E+02  0.10000000372E+02 0.  0.
    3000022    2    3    3    0    0 -0.10464828979E+02  0.20962814628E+01  0.92470759594E+01  0.14123666478E+02  0.24999885817E+00 0.  0.
    1000022    2    1    0    0    0  0.35802186918E+02 -0.23984457265E+02 -0.44149736236E+02  0.62500000035E+02  0.10000000812E+02 0.  0.
    3000022    2    5    5    0    0  0.10397474491E+02 -0.95713766128E+01 -0.20519254777E+02  0.24916280669E+02  0.24999943707E+00 0.  0.
        -13    1    4    4    0    0 -0.44967237715E+01  0.83469944994E+00  0.39504850837E+01  0.60443862588E+01  0.10500000000E+00 0.  1.
         13    1    4    4    0    0 -0.59681052079E+01  0.12615820129E+01  0.52965908758E+01  0.80792802188E+01  0.10500000000E+00 0. -1.
    3000001    1    5    5    0    0  0.25404712427E+02 -0.14413080653E+02 -0.23630481459E+02  0.37583719366E+02  0.10000000000E+01 0.  1.
        -13    1    6    6    0    0  0.80043890789E+01 -0.73659708758E+01 -0.15805009904E+02  0.19186900076E+02  0.10500000000E+00 0.  1.
         13    1    6    6    0    0  0.23930854121E+01 -0.22054057370E+01 -0.47142448734E+01  0.57293805931E+01  0.10500000000E+00 0. -1.
</event>
<event>
11    0  0.3482687E-009  0.9118800E+02  0.7816531E-02  0.1126479E+00
         25   -1    0    0    0    0  0.00000000000E+00  0.00000000000E+00  0.99999998245E-14  0.12500000000E+03  0.12500000000E+03 0.  0.
    3000001    1    3    3    0    0 -0.45219902252E+02 -0.45518584103E+01  0.39380044128E+02  0.60144383363E+02  0.10000000000E+01 0.  1.
    1000022    2    1    0    0    0 -0.47537760257E+02 -0.46279772220E+01  0.39051162936E+02  0.62499999052E+02  0.99999865720E+01 0.  0.
    3000022    2    3    3    0    0 -0.23178580054E+01 -0.76118811651E-01 -0.32888119165E+00  0.23556156890E+01  0.25000525852E+00 0.  0.
    1000022    2    1    0    0    0  0.47537760257E+02  0.46279772220E+01 -0.39051162936E+02  0.62500000948E+02  0.99999984180E+01 0.  0.
    3000022    2    5    5    0    0  0.12824784914E+02 -0.13752264667E+00 -0.54308891779E+01  0.13930221725E+02  0.24999894734E+00 0.  0.
        -13    1    4    4    0    0 -0.16750352039E+01 -0.19329238895E-01 -0.21977779851E+00  0.16927621908E+01  0.10500000000E+00 0.  1.
         13    1    4    4    0    0 -0.64282280152E+00 -0.56789572756E-01 -0.10910339314E+00  0.66285349823E+00  0.10500000000E+00 0. -1.
    3000001    1    5    5    0    0  0.34712975343E+02  0.47654998687E+01 -0.33620273758E+02  0.48569779223E+02  0.10000000000E+01 0.  1.
        -13    1    6    6    0    0  0.61959561067E+01 -0.13281343100E+00 -0.26096662272E+01  0.67252430664E+01  0.10500000000E+00 0.  1.
         13    1    6    6    0    0  0.66288288070E+01 -0.47092156704E-02 -0.28212229506E+01  0.72049786583E+01  0.10500000000E+00 0. -1.
</event>
<event>
11    0  0.3482687E-009  0.9118800E+02  0.7816531E-02  0.1126479E+00
         25   -1    0    0    0    0  0.00000000000E+00  0.00000000000E+00  0.99999998245E-14  0.12500000000E+03  0.12500000000E+03 0.  0.
    3000001    1    3    3    0    0  0.18223764373E+02  0.27549938764E+02 -0.29382962261E+01  0.33177376305E+02  0.10000000000E+01 0.  1.
    1000022    2    1    0    0    0  0.29948653812E+02  0.52158551535E+02 -0.13740937362E+02  0.62500002554E+02  0.10000029814E+02 0.  0.
    3000022    2    3    3    0    0  0.11724889440E+02  0.24608612771E+02 -0.10802641136E+02  0.29322626249E+02  0.24999942475E+00 0.  0.
    1000022    2    1    0    0    0 -0.29948653812E+02 -0.52158551535E+02  0.13740937362E+02  0.62499997446E+02  0.99999978898E+01 0.  0.
    3000022    2    5    5    0    0 -0.11018881699E+02 -0.14202163912E+02  0.24628509870E+00  0.17978887023E+02  0.25001707829E+00 0.  0.
        -13    1    4    4    0    0  0.75766506537E+01  0.16020925241E+02 -0.69971265221E+01  0.19053778766E+02  0.10500000000E+00 0.  1.
         13    1    4    4    0    0  0.41482387859E+01  0.85876875304E+01 -0.38055146137E+01  0.10268847483E+02  0.10500000000E+00 0. -1.
    3000001    1    5    5    0    0 -0.18929772113E+02 -0.37956387622E+02  0.13494652263E+02  0.44521110423E+02  0.10000000000E+01 0.  1.
        -13    1    6    6    0    0 -0.69057067691E+01 -0.88387509032E+01  0.20056469346E+00  0.11218892758E+02  0.10500000000E+00 0. -1.
         13    1    6    6    0    0 -0.41131749303E+01 -0.53634130093E+01  0.45720405242E-01  0.67599942656E+01  0.10500000000E+00 0.  1.
</event>
<event>
11    0  0.3482687E-009  0.9118800E+02  0.7816531E-02  0.1126479E+00
         25   -1    0    0    0    0  0.00000000000E+00  0.00000000000E+00  0.99999998245E-14  0.12500000000E+03  0.12500000000E+03 0.  0.
    3000001    1    3    3    0    0  0.10815711350E+01 -0.12928064203E+01  0.14303837264E+01  0.24263433734E+01  0.10000000000E+01 0. -1.
    1000022    2    1    0    0    0  0.22224323578E+02 -0.57520052906E+02  0.19425083670E+01  0.62499998215E+02  0.99999696639E+01 0.  0.
    3000022    2    3    3    0    0  0.21142752443E+02 -0.56227246486E+02  0.51212464060E+00  0.60073654842E+02  0.25001226336E+00 0.  0.
    1000022    2    1    0    0    0 -0.22224323578E+02  0.57520052906E+02 -0.19425083670E+01  0.62500001785E+02  0.99999919731E+01 0.  0.
    3000022    2    5    5    0    0 -0.18070349217E+02  0.53374703600E+02 -0.40956997122E+00  0.56352699612E+02  0.25000173694E+00 0.  0.
        -13    1    4    4    0    0  0.62838813777E+01 -0.16776632586E+02  0.19184810110E+00  0.17916204866E+02  0.10500000000E+00 0.  1.
         13    1    4    4    0    0  0.14858871066E+02 -0.39450613900E+02  0.32027653950E+00  0.42157449976E+02  0.10500000000E+00 0. -1.
    3000001    1    5    5    0    0 -0.41539743619E+01  0.41453493066E+01 -0.15329383958E+01  0.61473021723E+01  0.10000000000E+01 0. -1.
        -13    1    6    6    0    0 -0.10989225375E+02  0.32264799958E+02 -0.24207764825E+00  0.34085921101E+02  0.10500000000E+00 0. -1.
         13    1    6    6    0    0 -0.70811238412E+01  0.21109903642E+02 -0.16749232297E+00  0.22266778512E+02  0.10500000000E+00 0.  1.
</event>
<event>
11    0  0.3482687E-009  0.9118800E+02  0.7816531E-02  0.1126479E+00
         25   -1    0    0    0    0  0.00000000000E+00  0.00000000000E+00  0.99999998245E-14  0.12500000000E+03  0.12500000000E+03 0.  0.
    3000001    1    3    3    0    0  0.74717908702E+01 -0.60417787644E+01 -0.12690924173E+01  0.97437849427E+01  0.10000000000E+01 0. -1.
    1000022    2    1    0    0    0  0.35672716431E+02 -0.42742157344E+02 -0.26585997180E+02  0.62499999346E+02  0.99999980114E+01 0.  0.
    3000022    2    3    3    0    0  0.28200925560E+02 -0.36700378580E+02 -0.25316904763E+02  0.52756214403E+02  0.25000208425E+00 0.  0.
    1000022    2    1    0    0    0 -0.35672716431E+02  0.42742157344E+02  0.26585997180E+02  0.62500000654E+02  0.10000006184E+02 0.  0.
    3000022    2    5    5    0    0 -0.12925635791E+02  0.18582848868E+02  0.59330332069E+01  0.23402087863E+02  0.25000137677E+00 0.  0.
        -13    1    4    4    0    0  0.18274902055E+02 -0.23827895397E+02 -0.16368916901E+02  0.34200776449E+02  0.10500000000E+00 0.  1.
         13    1    4    4    0    0  0.99260235055E+01 -0.12872483182E+02 -0.89479878617E+01  0.18555437955E+02  0.10500000000E+00 0. -1.
    3000001    1    5    5    0    0 -0.22747080639E+02  0.24159308477E+02  0.20652963973E+02  0.39097912790E+02  0.10000000000E+01 0.  1.
        -13    1    6    6    0    0 -0.34715956614E+01  0.49469777466E+01  0.16089770057E+01  0.62549498212E+01  0.10500000000E+00 0.  1.
         13    1    6    6    0    0 -0.94540401297E+01  0.13635871121E+02  0.43240562012E+01  0.17147138042E+02  0.10500000000E+00 0. -1.
</event>
<event>
11    0  0.3482687E-009  0.9118800E+02  0.7816531E-02  0.1126479E+00
         25   -1    0    0    0    0  0.00000000000E+00  0.00000000000E+00  0.99999998245E-14  0.12500000000E+03  0.12500000000E+03 0.  0.
    3000001    1    3    3    0    0 -0.19624253353E+02  0.34423202441E+02 -0.38286168755E+02  0.55108065688E+02  0.10000000000E+01 0. -1.
    1000022    2    1    0    0    0 -0.24140759249E+02  0.39863150712E+02 -0.40427745810E+02  0.62500001554E+02  0.10000026057E+02 0.  0.
    3000022    2    3    3    0    0 -0.45165058962E+01  0.54399482710E+01 -0.21415770556E+01  0.73919358661E+01  0.25000172390E+00 0.  0.
    1000022    2    1    0    0    0  0.24140759249E+02 -0.39863150712E+02  0.40427745810E+02  0.62499998446E+02  0.10000006631E+02 0.  0.
    3000022    2    5    5    0    0  0.24109218201E+02 -0.35885826036E+02  0.38788862352E+02  0.58083433558E+02  0.24999760319E+00 0.  0.
        -13    1    4    4    0    0 -0.24110120310E+01  0.28101714878E+01 -0.11539360151E+01  0.38797726907E+01  0.10500000000E+00 0.  1.
         13    1    4    4    0    0 -0.21054938652E+01  0.26297767832E+01 -0.98764104048E+00  0.35121631754E+01  0.10500000000E+00 0. -1.
    3000001    1    5    5    0    0  0.31541047665E-01 -0.39773246762E+01  0.16388834589E+01  0.44165648880E+01  0.10000000000E+01 0.  1.
        -13    1    6    6    0    0  0.16506937242E+02 -0.24644995166E+02  0.26577995847E+02  0.39827825098E+02  0.10500000000E+00 0. -1.
         13    1    6    6    0    0  0.76022809596E+01 -0.11240830870E+02  0.12210866505E+02  0.18255608460E+02  0.10500000000E+00 0.  1.
</event>
<event>
11    0  0.3482687E-009  0.9118800E+02  0.7816531E-02  0.1126479E+00
         25   -1    0    0    0    0  0.00000000000E+00  0.00000000000E+00  0.99999998245E-14  0.12500000000E+03  0.12500000000E+03 0.  0.
    3000001    1    3    3    0    0  0.31447446821E+02  0.96098660586E+01 -0.12364646924E+02  0.35145069794E+02  0.10000000000E+01 0.  1.
    1000022    2    1    0    0    0  0.55785482856E+02  0.21878510608E+02 -0.14681981118E+02  0.62499999368E+02  0.10000001379E+02 0.  0.
    3000022    2    3    3    0    0  0.24338036035E+02  0.12268644550E+02 -0.23173341935E+01  0.27354929575E+02  0.24999429837E+00 0.  0.
    1000022    2    1    0    0    0 -0.55785482856E+02 -0.21878510608E+02  0.14681981118E+02  0.62500000632E+02  0.10000009274E+02 0.  0.
    3000022    2    5    5    0    0 -0.54142264112E+02 -0.20894616249E+02  0.15686389518E+02  0.60117344092E+02  0.24998637777E+00 0.  0.
        -13    1    4    4    0    0  0.11712601796E+02  0.58767206031E+01 -0.11774119758E+01  0.13157439334E+02  0.10500000000E+00 0.  1.
         13    1    4    4    0    0  0.12625434239E+02  0.63919239466E+01 -0.11399222177E+01  0.14197490240E+02  0.10500000000E+00 0. -1.
    3000001    1    5    5    0    0 -0.16432187439E+01 -0.98389435912E+00 -0.10044084004E+01  0.23826565395E+01  0.10000000000E+01 0.  1.
        -13    1    6    6    0    0 -0.23420563921E+02 -0.89794007218E+01  0.67428385526E+01  0.25973627941E+02  0.10500000000E+00 0.  1.
         13    1    6    6    0    0 -0.30721700191E+02 -0.11915215527E+02  0.89435509655E+01  0.34143716151E+02  0.10500000000E+00 0. -1.
</event>
<event>
11    0  0.3482687E-009  0.9118800E+02  0.7816531E-02  0.1126479E+00
         25   -1    0    0    0    0  0.00000000000E+00  0.00000000000E+00  0.99999998245E-14  0.12500000000E+03  0.12500000000E+03 0.  0.
    3000001    1    3    3    0    0 -0.62549503290E+01 -0.41620271529E+02  0.13968983236E+02  0.44356554177E+02  0.10000000000E+01 0. -1.
    1000022    2    1    0    0    0 -0.25978926155E+01 -0.58028184260E+02  0.20790159296E+02  0.62499999640E+02  0.10000000845E+02 0.  0.
    3000022    2    3    3    0    0  0.36570577135E+01 -0.16407912730E+02  0.68211760593E+01  0.18143445463E+02  0.24999828445E+00 0.  0.
    1000022    2    1    0    0    0  0.25978926155E+01  0.58028184260E+02 -0.20790159296E+02  0.62500000360E+02  0.10000005349E+02 0.  0.
    3000022    2    5    5    0    0  0.12021792291E+01  0.56829410928E+02 -0.20186333868E+02  0.60320624646E+02  0.25000260735E+00 0.  0.
        -13    1    4    4    0    0  0.15749039274E+01 -0.69523825269E+01  0.28276261281E+01  0.76695788477E+01  0.10500000000E+00 0. -1.
         13    1    4    4    0    0  0.20821537861E+01 -0.94555302035E+01  0.39935499313E+01  0.10473866615E+02  0.10500000000E+00 0.  1.
    3000001    1    5    5    0    0  0.13957133864E+01  0.11987733315E+01 -0.60382542810E+00  0.21793757145E+01  0.10000000000E+01 0. -1.
        -13    1    6    6    0    0  0.45667023939E+00  0.24050015942E+02 -0.85837936510E+01  0.25540249665E+02  0.10500000000E+00 0. -1.
         13    1    6    6    0    0  0.74550898968E+00  0.32779394987E+02 -0.11602540217E+02  0.34780374981E+02  0.10500000000E+00 0.  1.
</event>
<event>
11    0  0.3482687E-009  0.9118800E+02  0.7816531E-02  0.1126479E+00
         25   -1    0    0    0    0  0.00000000000E+00  0.00000000000E+00  0.99999998245E-14  0.12500000000E+03  0.12500000000E+03 0.  0.
    3000001    1    3    3    0    0 -0.49453067318E+00  0.68075809642E+01 -0.69844654161E+01  0.98168465568E+01  0.10000000000E+01 0. -1.
    1000022    2    1    0    0    0  0.14741858519E+02  0.31509662218E+02 -0.50951630319E+02  0.62499998155E+02  0.99999965725E+01 0.  0.
    3000022    2    3    3    0    0  0.15236389193E+02  0.24702081254E+02 -0.43967164903E+02  0.52683151598E+02  0.24999753817E+00 0.  0.
    1000022    2    1    0    0    0 -0.14741858519E+02 -0.31509662218E+02  0.50951630319E+02  0.62500001845E+02  0.10000019640E+02 0.  0.
    3000022    2    5    5    0    0 -0.21895592857E+01 -0.62325005313E+01  0.40495349953E+01  0.77523839543E+01  0.24998111386E+00 0.  0.
        -13    1    4    4    0    0  0.40369837885E+01  0.64830196113E+01 -0.11581085019E+02  0.13872971441E+02  0.10500000000E+00 0.  1.
         13    1    4    4    0    0  0.11199405404E+02  0.18219061642E+02 -0.32386079884E+02  0.38810180157E+02  0.10500000000E+00 0. -1.
    3000001    1    5    5    0    0 -0.12552299234E+02 -0.25277161687E+02  0.46902095324E+02  0.54747617891E+02  0.10000000000E+01 0.  1.
        -13    1    6    6    0    0 -0.70805914053E+00 -0.21439790150E+01  0.14257455167E+01  0.26724088463E+01  0.10500000000E+00 0.  1.
         13    1    6    6    0    0 -0.14815001452E+01 -0.40885215163E+01  0.26237894787E+01  0.50799751080E+01  0.10500000000E+00 0. -1.
</event>
<event>
11    0  0.3482687E-009  0.9118800E+02  0.7816531E-02  0.1126479E+00
         25   -1    0    0    0    0  0.00000000000E+00  0.00000000000E+00  0.99999998245E-14  0.12500000000E+03  0.12500000000E+03 0.  0.
    3000001    1    3    3    0    0 -0.27869269695E+02 -0.13708335523E+02 -0.17608091000E+02  0.35716376143E+02  0.10000000000E+01 0.  1.
    1000022    2    1    0    0    0 -0.46542128482E+02 -0.30874004323E+02 -0.26208325604E+02  0.62499997617E+02  0.99999752255E+01 0.  0.
    3000022    2    3    3    0    0 -0.18672858787E+02 -0.17165668800E+02 -0.86002346039E+01  0.26783621473E+02  0.25000667241E+00 0.  0.
    1000022    2    1    0    0    0  0.46542128482E+02  0.30874004323E+02  0.26208325604E+02  0.62500002383E+02  0.10000005019E+02 0.  0.
    3000022    2    5    5    0    0  0.86027293163E+01  0.16015322971E+01  0.50650243625E+01  0.10113794132E+02  0.25000512670E+00 0.  0.
        -13    1    4    4    0    0 -0.67440665062E+01 -0.62358223594E+01 -0.30596115185E+01  0.96819502778E+01  0.10500000000E+00 0.  1.
         13    1    4    4    0    0 -0.11928792281E+02 -0.10929846441E+02 -0.55406230854E+01  0.17101671196E+02  0.10500000000E+00 0. -1.
    3000001    1    5    5    0    0  0.37939399166E+02  0.29272472026E+02  0.21143301241E+02  0.52386208251E+02  0.10000000000E+01 0.  1.
        -13    1    6    6    0    0  0.54358648037E+01  0.10208783278E+01  0.32685789550E+01  0.64253756395E+01  0.10500000000E+00 0.  1.
         13    1    6    6    0    0  0.31668645126E+01  0.58065396925E+00  0.17964454075E+01  0.36884184925E+01  0.10500000000E+00 0. -1.
</event>
<event>
11    0  0.3482687E-009  0.9118800E+02  0.7816531E-02  0.1126479E+00
         25   -1    0    0    0    0  0.00000000000E+00  0.00000000000E+00  0.99999998245E-14  0.12500000000E+03  0.12500000000E+03 0.  0.
    3000001    1    3    3    0    0 -0.81834886904E+01  0.38220486051E+02 -0.82471707715E+01  0.39959865701E+02  0.10000000000E+01 0. -1.
    1000022    2    1    0    0    0 -0.18097016616E+02  0.56488346072E+02 -0.16965106607E+02  0.62499999952E+02  0.99999949786E+01 0.  0.
    3000022    2    3    3    0    0 -0.99135279255E+01  0.18267860021E+02 -0.87179358354E+01  0.22540134252E+02  0.25000235209E+00 0.  0.
    1000022    2    1    0    0    0  0.18097016616E+02 -0.56488346072E+02  0.16965106607E+02  0.62500000048E+02  0.99999955731E+01 0.  0.
    3000022    2    5    5    0    0  0.85233131933E+01 -0.20594567134E+02  0.17995043013E+01  0.22362552982E+02  0.24999383631E+00 0.  0.
        -13    1    4    4    0    0 -0.43817765074E+01  0.81186153503E+01 -0.38014747143E+01  0.99786830579E+01  0.10500000000E+00 0. -1.
         13    1    4    4    0    0 -0.55317514181E+01  0.10149244671E+02 -0.49164611211E+01  0.12561451194E+02  0.10500000000E+00 0. -1.
    3000001    1    5    5    0    0  0.95737034227E+01 -0.35893778938E+02  0.15165602306E+02  0.40137447066E+02  0.10000000000E+01 0.  1.
        -13    1    6    6    0    0  0.65032458487E+01 -0.15682072312E+02  0.13573352082E+01  0.17031529069E+02  0.10500000000E+00 0. -1.
         13    1    6    6    0    0  0.20200673446E+01 -0.49124948216E+01  0.44216909314E+00  0.53310239125E+01  0.10500000000E+00 0.  1.
</event>
<event>
11    0  0.3482687E-009  0.9118800E+02  0.7816531E-02  0.1126479E+00
         25   -1    0    0    0    0  0.00000000000E+00  0.00000000000E+00  0.99999998245E-14  0.12500000000E+03  0.12500000000E+03 0.  0.
    3000001    1    3    3    0    0  0.32588055345E+02  0.86185106217E+01  0.21898430439E+02  0.40209468191E+02  0.10000000000E+01 0.  1.
    1000022    2    1    0    0    0  0.45481688059E+02  0.13979069474E+02  0.39271509262E+02  0.62499998088E+02  0.99999994642E+01 0.  0.
    3000022    2    3    3    0    0  0.12893632714E+02  0.53605588526E+01  0.17373078823E+02  0.22290529898E+02  0.24999910063E+00 0.  0.
    1000022    2    1    0    0    0 -0.45481688059E+02 -0.13979069474E+02 -0.39271509262E+02  0.62500001912E+02  0.10000023359E+02 0.  0.
    3000022    2    5    5    0    0 -0.28126807359E+02 -0.10492437322E+02 -0.30204608643E+02  0.42586258549E+02  0.25000151720E+00 0.  0.
        -13    1    4    4    0    0  0.88319095950E+01  0.37248151221E+01  0.11934549398E+02  0.15307559215E+02  0.10500000000E+00 0. -1.
         13    1    4    4    0    0  0.40617231189E+01  0.16357437305E+01  0.54385294249E+01  0.69829706824E+01  0.10500000000E+00 0.  1.
    3000001    1    5    5    0    0 -0.17354880700E+02 -0.34866321523E+01 -0.90669006190E+01  0.19913743363E+02  0.10000000000E+01 0. -1.
        -13    1    6    6    0    0 -0.16636466043E+02 -0.62669004205E+01 -0.17845989992E+02  0.25190006492E+02  0.10500000000E+00 0. -1.
         13    1    6    6    0    0 -0.11490341316E+02 -0.42255369014E+01 -0.12358618652E+02  0.17396252057E+02  0.10500000000E+00 0.  1.
</event>
<event>
11    0  0.3482687E-009  0.9118800E+02  0.7816531E-02  0.1126479E+00
         25   -1    0    0    0    0  0.00000000000E+00  0.00000000000E+00  0.99999998245E-14  0.12500000000E+03  0.12500000000E+03 0.  0.
    3000001    1    3    3    0    0 -0.31867114253E+01 -0.17844898830E+01 -0.31978834545E+01  0.49564092284E+01  0.10000000000E+01 0.  1.
    1000022    2    1    0    0    0 -0.19954068499E+02 -0.46554823953E+02 -0.35224047407E+02  0.62499999190E+02  0.99999950079E+01 0.  0.
    3000022    2    3    3    0    0 -0.16767357073E+02 -0.44770334070E+02 -0.32026163952E+02  0.57543589962E+02  0.24998453396E+00 0.  0.
    1000022    2    1    0    0    0  0.19954068499E+02  0.46554823953E+02  0.35224047407E+02  0.62500000810E+02  0.10000005129E+02 0.  0.
    3000022    2    5    5    0    0  0.33837129577E+01  0.10257640429E+02  0.30296927388E+01  0.11220973059E+02  0.24999552641E+00 0.  0.
        -13    1    4    4    0    0 -0.98640495899E+01 -0.26403593480E+02 -0.18809903992E+02  0.33886173230E+02  0.10500000000E+00 0. -1.
         13    1    4    4    0    0 -0.69033074833E+01 -0.18366740590E+02 -0.13216259960E+02  0.23657416732E+02  0.10500000000E+00 0.  1.
    3000001    1    5    5    0    0  0.16570355541E+02  0.36297183524E+02  0.32194354668E+02  0.51279027750E+02  0.10000000000E+01 0. -1.
        -13    1    6    6    0    0  0.12855239993E+01  0.37665443188E+01  0.11611192150E+01  0.41471256178E+01  0.10500000000E+00 0.  1.
         13    1    6    6    0    0  0.20981889584E+01  0.64910961100E+01  0.18685735239E+01  0.70738474417E+01  0.10500000000E+00 0. -1.
</event>
<event>
11    0  0.3482687E-009  0.9118800E+02  0.7816531E-02  0.1126479E+00
         25   -1    0    0    0    0  0.00000000000E+00  0.00000000000E+00  0.99999998245E-14  0.12500000000E+03  0.12500000000E+03 0.  0.
    3000001    1    3    3    0    0  0.25686332272E+02  0.76374710091E+01 -0.39485850490E+02  0.47731027832E+02  0.10000000000E+01 0.  1.
    1000022    2    1    0    0    0  0.37372942278E+02  0.11136979929E+02 -0.47806704204E+02  0.62499999563E+02  0.99999921041E+01 0.  0.
    3000022    2    3    3    0    0  0.11686610006E+02  0.34995089195E+01 -0.83208537143E+01  0.14768971731E+02  0.25000669515E+00 0.  0.
    1000022    2    1    0    0    0 -0.37372942278E+02 -0.11136979929E+02  0.47806704204E+02  0.62500000437E+02  0.99999975663E+01 0.  0.
    3000022    2    5    5    0    0 -0.17929236832E+02 -0.27332119366E+01  0.15517995636E+02  0.23870456058E+02  0.25000598266E+00 0.  0.
        -13    1    4    4    0    0  0.39911827807E+01  0.12490154815E+01 -0.28288045357E+01  0.50500237388E+01  0.10500000000E+00 0. -1.
         13    1    4    4    0    0  0.76954272253E+01  0.22504934380E+01 -0.54920491786E+01  0.97189479922E+01  0.10500000000E+00 0.  1.
    3000001    1    5    5    0    0 -0.19443705446E+02 -0.84037679919E+01  0.32288708568E+02  0.38629544379E+02  0.10000000000E+01 0.  1.
        -13    1    6    6    0    0 -0.10447572973E+02 -0.15907403760E+01  0.89570403977E+01  0.13853585588E+02  0.10500000000E+00 0.  1.
         13    1    6    6    0    0 -0.74816638592E+01 -0.11424715606E+01  0.65609552383E+01  0.10016870470E+02  0.10500000000E+00 0. -1.
</event>
<event>
11    0  0.3482687E-009  0.9118800E+02  0.7816531E-02  0.1126479E+00
         25   -1    0    0    0    0  0.00000000000E+00  0.00000000000E+00  0.99999998245E-14  0.12500000000E+03  0.12500000000E+03 0.  0.
    3000001    1    3    3    0    0  0.33825709905E+01 -0.62326101785E+00  0.15668447239E+02  0.16072662495E+02  0.10000000000E+01 0.  1.
    1000022    2    1    0    0    0  0.25703347896E+02 -0.11552563455E+02  0.54882839290E+02  0.62500001225E+02  0.10000014455E+02 0.  0.
    3000022    2    3    3    0    0  0.22320776905E+02 -0.10929302437E+02  0.39214392051E+02  0.46427338730E+02  0.25000828540E+00 0.  0.
    1000022    2    1    0    0    0 -0.25703347896E+02  0.11552563455E+02 -0.54882839290E+02  0.62499998775E+02  0.99999991448E+01 0.  0.
    3000022    2    5    5    0    0 -0.23974944181E+02  0.75553483609E+01 -0.43058519688E+02  0.49859601552E+02  0.25002364737E+00 0.  0.
        -13    1    4    4    0    0  0.78298561560E+01 -0.38249476629E+01  0.13855049977E+02  0.16367965876E+02  0.10500000000E+00 0.  1.
         13    1    4    4    0    0  0.14490920749E+02 -0.71043547745E+01  0.25359342074E+02  0.30059372854E+02  0.10500000000E+00 0. -1.
    3000001    1    5    5    0    0 -0.17284037145E+01  0.39972150943E+01 -0.11824319602E+02  0.12640397223E+02  0.10000000000E+01 0. -1.
        -13    1    6    6    0    0 -0.12767856838E+02  0.40941547505E+01 -0.22962520118E+02  0.26590762052E+02  0.10500000000E+00 0. -1.
         13    1    6    6    0    0 -0.11207087343E+02  0.34611936104E+01 -0.20095999570E+02  0.23268839500E+02  0.10500000000E+00 0.  1.
</event>
<event>
11    0  0.3482687E-009  0.9118800E+02  0.7816531E-02  0.1126479E+00
         25   -1    0    0    0    0  0.00000000000E+00  0.00000000000E+00  0.99999998245E-14  0.12500000000E+03  0.12500000000E+03 0.  0.
    3000001    1    3    3    0    0  0.38314723830E+02  0.67678894003E+01  0.40826029954E+02  0.56405559220E+02  0.10000000000E+01 0. -1.
    1000022    2    1    0    0    0  0.41210487343E+02  0.45219192859E+01  0.45689144125E+02  0.62499999881E+02  0.10000003661E+02 0.  0.
    3000022    2    3    3    0    0  0.28957635123E+01 -0.22459701144E+01  0.48631141701E+01  0.60944406603E+01  0.24999891356E+00 0.  0.
    1000022    2    1    0    0    0 -0.41210487343E+02 -0.45219192859E+01 -0.45689144125E+02  0.62500000119E+02  0.10000005152E+02 0.  0.
    3000022    2    5    5    0    0 -0.25804286017E+02 -0.18568645597E+01 -0.21298845055E+02  0.33511377443E+02  0.24998920727E+00 0.  0.
        -13    1    4    4    0    0  0.14082454559E+01 -0.10589184452E+01  0.24417176807E+01  0.30128846261E+01  0.10500000000E+00 0.  1.
         13    1    4    4    0    0  0.14875180563E+01 -0.11870516692E+01  0.24213964894E+01  0.30815560343E+01  0.10500000000E+00 0. -1.
    3000001    1    5    5    0    0 -0.15406201326E+02 -0.26650547262E+01 -0.24390299070E+02  0.28988622677E+02  0.10000000000E+01 0.  1.
        -13    1    6    6    0    0 -0.15303026402E+02 -0.11444282449E+01 -0.12694193450E+02  0.19915971114E+02  0.10500000000E+00 0.  1.
         13    1    6    6    0    0 -0.10501259615E+02 -0.71243631477E+00 -0.86046516045E+01  0.13595406329E+02  0.10500000000E+00 0. -1.
</event>
<event>
11    0  0.3482687E-009  0.9118800E+02  0.7816531E-02  0.1126479E+00
         25   -1    0    0    0    0  0.00000000000E+00  0.00000000000E+00  0.99999998245E-14  0.12500000000E+03  0.12500000000E+03 0.  0.
    3000001    1    3    3    0    0 -0.13566159395E+02 -0.13638014127E+02  0.23130355798E+02  0.30100655631E+02  0.10000000000E+01 0.  1.
    1000022    2    1    0    0    0 -0.18467456154E+02 -0.28814933277E+02  0.51331302411E+02  0.62499999822E+02  0.10000002701E+02 0.  0.
    3000022    2    3    3    0    0 -0.49012967592E+01 -0.15176919150E+02  0.28200946613E+02  0.32399344191E+02  0.25005873804E+00 0.  0.
    1000022    2    1    0    0    0  0.18467456154E+02  0.28814933277E+02 -0.51331302411E+02  0.62500000178E+02  0.10000004927E+02 0.  0.
    3000022    2    5    5    0    0  0.17632523910E+02  0.28831741122E+02 -0.50953928759E+02  0.61143605977E+02  0.25000062266E+00 0.  0.
        -13    1    4    4    0    0 -0.16217204089E+01 -0.51867916041E+01  0.96528774161E+01  0.11077989512E+02  0.10500000000E+00 0.  1.
         13    1    4    4    0    0 -0.32795763504E+01 -0.99901275458E+01  0.18548069197E+02  0.21321354679E+02  0.10500000000E+00 0. -1.
    3000001    1    5    5    0    0  0.83493224416E+00 -0.16807844783E-01 -0.37737365120E+00  0.13563942010E+01  0.10000000000E+01 0. -1.
        -13    1    6    6    0    0  0.91703414139E+01  0.15030911005E+02 -0.26429004141E+02  0.31757309901E+02  0.10500000000E+00 0. -1.
         13    1    6    6    0    0  0.84621824960E+01  0.13800830116E+02 -0.24524924619E+02  0.29386296076E+02  0.10500000000E+00 0.  1.
</event>
<event>
11    0  0.3482687E-009  0.9118800E+02  0.7816531E-02  0.1126479E+00
         25   -1    0    0    0    0  0.00000000000E+00  0.00000000000E+00  0.99999998245E-14  0.12500000000E+03  0.12500000000E+03 0.  0.
    3000001    1    3    3    0    0 -0.80055875848E+01 -0.50545411482E+01 -0.41048092430E+01  0.10367607136E+02  0.10000000000E+01 0. -1.
    1000022    2    1    0    0    0 -0.33872938136E+02 -0.46550403259E+02 -0.22179586731E+02  0.62500000931E+02  0.10000003367E+02 0.  0.
    3000022    2    3    3    0    0 -0.25867350551E+02 -0.41495862111E+02 -0.18074777488E+02  0.52132393795E+02  0.25000956835E+00 0.  0.
    1000022    2    1    0    0    0  0.33872938136E+02  0.46550403259E+02  0.22179586731E+02  0.62499999069E+02  0.99999917291E+01 0.  0.
    3000022    2    5    5    0    0 -0.46062113376E+00  0.63467670190E+00  0.11705427218E+01  0.14309629908E+01  0.24999694530E+00 0.  0.
        -13    1    4    4    0    0 -0.67792481384E+01 -0.10858896578E+02 -0.47654032924E+01  0.13659939010E+02  0.10500000000E+00 0. -1.
         13    1    4    4    0    0 -0.19088102412E+02 -0.30636965533E+02 -0.13309374195E+02  0.38472454786E+02  0.10500000000E+00 0.  1.
    3000001    1    5    5    0    0  0.34333559269E+02  0.45915726557E+02  0.21009044009E+02  0.61069036078E+02  0.10000000000E+01 0.  1.
        -13    1    6    6    0    0 -0.15493370299E+00  0.16980573643E+00  0.29684037407E+00  0.38984310706E+00  0.10500000000E+00 0. -1.
         13    1    6    6    0    0 -0.30568743077E+00  0.46487096547E+00  0.87370234773E+00  0.10411198837E+01  0.10500000000E+00 0.  1.
</event>
<event>
11    0  0.3482687E-009  0.9118800E+02  0.7816531E-02  0.1126479E+00
         25   -1    0    0    0    0  0.00000000000E+00  0.00000000000E+00  0.99999998245E-14  0.12500000000E+03  0.12500000000E+03 0.  0.
    3000001    1    3    3    0    0 -0.33968719502E+02  0.10936922235E+02 -0.21821204490E+02  0.41840830991E+02  0.10000000000E+01 0. -1.
    1000022    2    1    0    0    0 -0.48244516744E+02  0.22660047850E+02 -0.31068293093E+02  0.62499998649E+02  0.99999915529E+01 0.  0.
    3000022    2    3    3    0    0 -0.14275797242E+02  0.11723125615E+02 -0.92470886023E+01  0.20659167658E+02  0.24999930287E+00 0.  0.
    1000022    2    1    0    0    0  0.48244516744E+02 -0.22660047850E+02  0.31068293093E+02  0.62500001351E+02  0.10000008439E+02 0.  0.
    3000022    2    5    5    0    0  0.26916689249E+02 -0.91614462940E+01  0.20811517861E+02  0.35236657687E+02  0.25002183608E+00 0.  0.
        -13    1    4    4    0    0 -0.48469820062E+01  0.39154904808E+01 -0.31427091364E+01  0.69793943856E+01  0.10500000000E+00 0.  1.
         13    1    4    4    0    0 -0.94288152354E+01  0.78076351343E+01 -0.61043794659E+01  0.13679773273E+02  0.10500000000E+00 0. -1.
    3000001    1    5    5    0    0  0.21327827494E+02 -0.13498601556E+02  0.10256775232E+02  0.27263343664E+02  0.10000000000E+01 0. -1.
        -13    1    6    6    0    0  0.98824158507E+01 -0.33289985567E+01  0.76939202313E+01  0.12959622215E+02  0.10500000000E+00 0. -1.
         13    1    6    6    0    0  0.17034273399E+02 -0.58324477373E+01  0.13117597629E+02  0.22277035471E+02  0.10500000000E+00 0.  1.
</event>
<event>
11    0  0.3482687E-009  0.9118800E+02  0.7816531E-02  0.1126479E+00
         25   -1    0    0    0    0  0.00000000000E+00  0.00000000000E+00  0.99999998245E-14  0.12500000000E+03  0.12500000000E+03 0.  0.
    3000001    1    3    3    0    0 -0.28588213213E+01  0.34700141097E+01 -0.10103737934E+01  0.47153698127E+01  0.10000000000E+01 0. -1.
    1000022    2    1    0    0    0 -0.48643565808E+02  0.34750256150E+02  0.15247072680E+02  0.62499999595E+02  0.99999963467E+01 0.  0.
    3000022    2    3    3    0    0 -0.45784744487E+02  0.31280242041E+02  0.16257446473E+02  0.57784629782E+02  0.25000661434E+00 0.  0.
    1000022    2    1    0    0    0  0.48643565808E+02 -0.34750256150E+02 -0.15247072680E+02  0.62500000405E+02  0.10000001415E+02 0.  0.
    3000022    2    5    5    0    0  0.42568390717E+02 -0.26780019231E+02 -0.10548242108E+02  0.51386430427E+02  0.25000427510E+00 0.  0.
        -13    1    4    4    0    0 -0.11214979481E+02  0.76344489526E+01  0.39754884532E+01  0.14137754737E+02  0.10500000000E+00 0.  1.
         13    1    4    4    0    0 -0.34569765006E+02  0.23645793088E+02  0.12281958020E+02  0.43646875045E+02  0.10500000000E+00 0. -1.
    3000001    1    5    5    0    0  0.60751750915E+01 -0.79702369189E+01 -0.46988305715E+01  0.11113569979E+02  0.10000000000E+01 0. -1.
        -13    1    6    6    0    0  0.12784637494E+02 -0.80943415196E+01 -0.31584208187E+01  0.15458071275E+02  0.10500000000E+00 0.  1.
         13    1    6    6    0    0  0.29783753223E+02 -0.18685677712E+02 -0.73898212898E+01  0.35928359151E+02  0.10500000000E+00 0. -1.
</event>
<event>
11    0  0.3482687E-009  0.9118800E+02  0.7816531E-02  0.1126479E+00
         25   -1    0    0    0    0  0.00000000000E+00  0.00000000000E+00  0.99999998245E-14  0.12500000000E+03  0.12500000000E+03 0.  0.
    3000001    1    3    3    0    0  0.61941113864E+01  0.15670026073E+02 -0.72168845115E+01  0.18357563974E+02  0.10000000000E+01 0.  1.
    1000022    2    1    0    0    0  0.28091491206E+02  0.43371349262E+02 -0.33705253260E+02  0.62500000801E+02  0.10000009391E+02 0.  0.
    3000022    2    3    3    0    0  0.21897379820E+02  0.27701323189E+02 -0.26488368748E+02  0.44142436827E+02  0.25000142053E+00 0.  0.
    1000022    2    1    0    0    0 -0.28091491206E+02 -0.43371349262E+02  0.33705253260E+02  0.62499999199E+02  0.99999993798E+01 0.  0.
    3000022    2    5    5    0    0 -0.13392648484E+02 -0.29429682833E+02  0.21422283371E+02  0.38787188537E+02  0.25000949763E+00 0.  0.
        -13    1    4    4    0    0  0.13033666451E+02  0.16530452043E+02 -0.15863217569E+02  0.26358774678E+02  0.10500000000E+00 0. -1.
         13    1    4    4    0    0  0.88637133687E+01  0.11170871146E+02 -0.10625151179E+02  0.17783662149E+02  0.10500000000E+00 0.  1.
    3000001    1    5    5    0    0 -0.14698842722E+02 -0.13941666429E+02  0.12282969889E+02  0.23712810662E+02  0.10000000000E+01 0.  1.
        -13    1    6    6    0    0 -0.46768656082E+01 -0.10327704789E+02  0.74484443536E+01  0.13565577998E+02  0.10500000000E+00 0.  1.
         13    1    6    6    0    0 -0.87157828760E+01 -0.19101978044E+02  0.13973839017E+02  0.25221610539E+02  0.10500000000E+00 0. -1.
</event>
<event>
11    0  0.3482687E-009  0.9118800E+02  0.7816531E-02  0.1126479E+00
         25   -1    0    0    0    0  0.00000000000E+00  0.00000000000E+00  0.99999998245E-14  0.12500000000E+03  0.12500000000E+03 0.  0.
    3000001    1    3    3    0    0  0.34045305052E+02  0.40733646370E+02  0.28960234021E+02  0.60481467387E+02  0.10000000000E+01 0.  1.
    1000022    2    1    0    0    0  0.36038505361E+02  0.40911743496E+02  0.28873953224E+02  0.62499999893E+02  0.10000009363E+02 0.  0.
    3000022    2    3    3    0    0  0.19932003089E+01  0.17809712560E+00 -0.86280796612E-01  0.20185325059E+01  0.24992607680E+00 0.  0.
    1000022    2    1    0    0    0 -0.36038505361E+02 -0.40911743496E+02 -0.28873953224E+02  0.62500000107E+02  0.10000010706E+02 0.  0.
    3000022    2    5    5    0    0 -0.29419197763E+02 -0.31770073620E+02 -0.18322154580E+02  0.47016918508E+02  0.25000532273E+00 0.  0.
        -13    1    4    4    0    0  0.64278706029E+00  0.10861189861E+00 -0.38450390189E-01  0.66141906678E+00  0.10500000000E+00 0.  1.
         13    1    4    4    0    0  0.13504132486E+01  0.69485226988E-01 -0.47830406424E-01  0.13571134391E+01  0.10500000000E+00 0. -1.
    3000001    1    5    5    0    0 -0.66193075981E+01 -0.91416698755E+01 -0.10551798645E+02  0.15483081600E+02  0.10000000000E+01 0.  1.
        -13    1    6    6    0    0 -0.14752377531E+02 -0.15832147475E+02 -0.91479844283E+01  0.23494386150E+02  0.10500000000E+00 0.  1.
         13    1    6    6    0    0 -0.14666820232E+02 -0.15937926145E+02 -0.91741701513E+01  0.23522532357E+02  0.10500000000E+00 0. -1.
</event>
<event>
11    0  0.3482687E-009  0.9118800E+02  0.7816531E-02  0.1126479E+00
         25   -1    0    0    0    0  0.00000000000E+00  0.00000000000E+00  0.99999998245E-14  0.12500000000E+03  0.12500000000E+03 0.  0.
    3000001    1    3    3    0    0  0.66530679591E+01  0.18038094096E+02 -0.12679269180E+02  0.23052115279E+02  0.10000000000E+01 0.  1.
    1000022    2    1    0    0    0  0.14486936019E+02  0.40908696298E+02 -0.43850396529E+02  0.62500000095E+02  0.99999994101E+01 0.  0.
    3000022    2    3    3    0    0  0.78338680599E+01  0.22870602202E+02 -0.31171127348E+02  0.39447884816E+02  0.25000494287E+00 0.  0.
    1000022    2    1    0    0    0 -0.14486936019E+02 -0.40908696298E+02  0.43850396529E+02  0.62499999905E+02  0.99999982194E+01 0.  0.
    3000022    2    5    5    0    0 -0.11567426577E+01 -0.14463988284E+02  0.10657806773E+02  0.18005453591E+02  0.25000630628E+00 0.  0.
        -13    1    4    4    0    0  0.34308965980E+01  0.10127937112E+02 -0.13878559648E+02  0.17520605141E+02  0.10500000000E+00 0.  1.
         13    1    4    4    0    0  0.44029714620E+01  0.12742665089E+02 -0.17292567700E+02  0.21927279675E+02  0.10500000000E+00 0. -1.
    3000001    1    5    5    0    0 -0.13330193361E+02 -0.26444708014E+02  0.33192589756E+02  0.44494546314E+02  0.10000000000E+01 0.  1.
        -13    1    6    6    0    0 -0.46169620483E+00 -0.57252751807E+01  0.41416630074E+01  0.70821138615E+01  0.10500000000E+00 0. -1.
         13    1    6    6    0    0 -0.69504645285E+00 -0.87387131032E+01  0.65161437655E+01  0.10923339729E+02  0.10500000000E+00 0.  1.
</event>
<event>
11    0  0.3482687E-009  0.9118800E+02  0.7816531E-02  0.1126479E+00
         25   -1    0    0    0    0  0.00000000000E+00  0.00000000000E+00  0.99999998245E-14  0.12500000000E+03  0.12500000000E+03 0.  0.
    3000001    1    3    3    0    0 -0.49011920426E+01  0.17715957357E+02 -0.68539476303E+01  0.19643152156E+02  0.10000000000E+01 0. -1.
    1000022    2    1    0    0    0 -0.11611565235E+01  0.57913422460E+02 -0.21235293056E+02  0.62500002866E+02  0.99999950754E+01 0.  0.
    3000022    2    3    3    0    0  0.37400355190E+01  0.40197465103E+02 -0.14381345426E+02  0.42856850709E+02  0.24998014553E+00 0.  0.
    1000022    2    1    0    0    0  0.11611565235E+01 -0.57913422460E+02  0.21235293056E+02  0.62499997134E+02  0.99999592521E+01 0.  0.
    3000022    2    5    5    0    0  0.54432649480E+01 -0.31583340915E+02  0.10477265357E+02  0.33719017187E+02  0.24994809574E+00 0.  0.
        -13    1    4    4    0    0  0.21976146870E+01  0.23995098165E+02 -0.86396512038E+01  0.25597828896E+02  0.10500000000E+00 0. -1.
         13    1    4    4    0    0  0.15424208321E+01  0.16202366938E+02 -0.57416942219E+01  0.17259021813E+02  0.10500000000E+00 0.  1.
    3000001    1    5    5    0    0 -0.42821084244E+01 -0.26330081546E+02  0.10758027699E+02  0.28780979947E+02  0.10000000000E+01 0. -1.
        -13    1    6    6    0    0  0.32201874707E+01 -0.18421320233E+02  0.61623494998E+01  0.19690104693E+02  0.10500000000E+00 0.  1.
         13    1    6    6    0    0  0.22230774772E+01 -0.13162020682E+02  0.43149158577E+01  0.14028912494E+02  0.10500000000E+00 0. -1.
</event>
<event>
11    0  0.3482687E-009  0.9118800E+02  0.7816531E-02  0.1126479E+00
         25   -1    0    0    0    0  0.00000000000E+00  0.00000000000E+00  0.99999998245E-14  0.12500000000E+03  0.12500000000E+03 0.  0.
    3000001    1    3    3    0    0 -0.14981842395E+02  0.15622322460E+01 -0.37902118040E+02  0.40797876452E+02  0.10000000000E+01 0.  1.
    1000022    2    1    0    0    0 -0.16823423259E+02  0.61048218691E+01 -0.59041964409E+02  0.62499999478E+02  0.99999976660E+01 0.  0.
    3000022    2    3    3    0    0 -0.18415808642E+01  0.45425896232E+01 -0.21139846369E+02  0.21702123026E+02  0.24999750447E+00 0.  0.
    1000022    2    1    0    0    0  0.16823423259E+02 -0.61048218691E+01  0.59041964409E+02  0.62500000522E+02  0.10000004189E+02 0.  0.
    3000022    2    5    5    0    0  0.13851768833E+02 -0.40523914674E+01  0.30848368068E+02  0.34058445093E+02  0.24998658949E+00 0.  0.
        -13    1    4    4    0    0 -0.14023618254E+01  0.34838876988E+01 -0.16138554345E+02  0.16570095157E+02  0.10500000000E+00 0. -1.
         13    1    4    4    0    0 -0.43921903875E+00  0.10587019244E+01 -0.50012920245E+01  0.51320278685E+01  0.10500000000E+00 0.  1.
    3000001    1    5    5    0    0  0.29716544263E+01 -0.20524304017E+01  0.28193596341E+02  0.28441555429E+02  0.10000000000E+01 0.  1.
        -13    1    6    6    0    0  0.96174707215E+01 -0.27711951694E+01  0.21333353936E+02  0.23564767788E+02  0.10500000000E+00 0. -1.
         13    1    6    6    0    0  0.42342981112E+01 -0.12811962980E+01  0.95150141320E+01  0.10493677305E+02  0.10500000000E+00 0.  1.
</event>
<event>
11    0  0.3482687E-009  0.9118800E+02  0.7816531E-02  0.1126479E+00
         25   -1    0    0    0    0  0.00000000000E+00  0.00000000000E+00  0.99999998245E-14  0.12500000000E+03  0.12500000000E+03 0.  0.
    3000001    1    3    3    0    0  0.23033343440E+02 -0.92419433140E+01  0.35518240922E+02  0.43341595084E+02  0.10000000000E+01 0.  1.
    1000022    2    1    0    0    0  0.34036160568E+02 -0.67883480936E+01  0.51006943644E+02  0.62500001775E+02  0.10000001295E+02 0.  0.
    3000022    2    3    3    0    0  0.11002817128E+02  0.24535952204E+01  0.15488702722E+02  0.19158406691E+02  0.25004131527E+00 0.  0.
    1000022    2    1    0    0    0 -0.34036160568E+02  0.67883480936E+01 -0.51006943644E+02  0.62499998225E+02  0.99999791096E+01 0.  0.
    3000022    2    5    5    0    0 -0.32745299621E+02  0.62759354071E+01 -0.43543622334E+02  0.54842971797E+02  0.24999409501E+00 0.  0.
        -13    1    4    4    0    0  0.56531594679E+01  0.13063732830E+01  0.80581566080E+01  0.99302435038E+01  0.10500000000E+00 0. -1.
         13    1    4    4    0    0  0.53496576606E+01  0.11472219374E+01  0.74305461138E+01  0.92281631872E+01  0.10500000000E+00 0.  1.
    3000001    1    5    5    0    0 -0.12908609468E+01  0.51241268652E+00 -0.74633213099E+01  0.76570264280E+01  0.10000000000E+01 0.  1.
        -13    1    6    6    0    0 -0.16412398932E+02  0.30833655240E+01 -0.21857746833E+02  0.27507200935E+02  0.10500000000E+00 0.  1.
         13    1    6    6    0    0 -0.16332900689E+02  0.31925698831E+01 -0.21685875501E+02  0.27335770862E+02  0.10500000000E+00 0. -1.
</event>
<event>
11    0  0.3482687E-009  0.9118800E+02  0.7816531E-02  0.1126479E+00
         25   -1    0    0    0    0  0.00000000000E+00  0.00000000000E+00  0.99999998245E-14  0.12500000000E+03  0.12500000000E+03 0.  0.
    3000001    1    3    3    0    0  0.57145906904E+01  0.16150690611E+02  0.20047365601E+01  0.17277740670E+02  0.10000000000E+01 0.  1.
    1000022    2    1    0    0    0  0.24077302747E+02  0.52536464926E+02  0.21597516003E+02  0.62500005936E+02  0.10000069500E+02 0.  0.
    3000022    2    3    3    0    0  0.18362712057E+02  0.36385774315E+02  0.19592779443E+02  0.45222265266E+02  0.25000589950E+00 0.  0.
    1000022    2    1    0    0    0 -0.24077302747E+02 -0.52536464926E+02 -0.21597516003E+02  0.62499994064E+02  0.99999953022E+01 0.  0.
    3000022    2    5    5    0    0 -0.87140553682E+01 -0.11486201317E+02 -0.85200881307E+01  0.16748790451E+02  0.24999627441E+00 0.  0.
        -13    1    4    4    0    0  0.11577375142E+02  0.23070162398E+02  0.12418505705E+02  0.28644341801E+02  0.10500000000E+00 0.  1.
         13    1    4    4    0    0  0.67853369146E+01  0.13315611917E+02  0.71742737380E+01  0.16577923466E+02  0.10500000000E+00 0. -1.
    3000001    1    5    5    0    0 -0.15363247379E+02 -0.41050263608E+02 -0.13077427873E+02  0.45751203614E+02  0.10000000000E+01 0.  1.
        -13    1    6    6    0    0 -0.66826746492E+01 -0.88013909882E+01 -0.65437717476E+01  0.12843465166E+02  0.10500000000E+00 0. -1.
         13    1    6    6    0    0 -0.20313807189E+01 -0.26848103293E+01 -0.19763163832E+01  0.39053252843E+01  0.10500000000E+00 0.  1.
</event>
<event>
11    0  0.3482687E-009  0.9118800E+02  0.7816531E-02  0.1126479E+00
         25   -1    0    0    0    0  0.00000000000E+00  0.00000000000E+00  0.99999998245E-14  0.12500000000E+03  0.12500000000E+03 0.  0.
    3000001    1    3    3    0    0 -0.35392193973E+02 -0.18884886880E+02  0.40141678654E+02  0.56759146504E+02  0.10000000000E+01 0. -1.
    1000022    2    1    0    0    0 -0.36113037369E+02 -0.21862279919E+02  0.44990432348E+02  0.62499999708E+02  0.10000010467E+02 0.  0.
    3000022    2    3    3    0    0 -0.72084339662E+00 -0.29773930398E+01  0.48487536935E+01  0.57408532042E+01  0.24999723155E+00 0.  0.
    1000022    2    1    0    0    0  0.36113037369E+02  0.21862279919E+02 -0.44990432348E+02  0.62500000292E+02  0.10000014116E+02 0.  0.
    3000022    2    5    5    0    0  0.36195463229E+02  0.22018817724E+02 -0.43901448131E+02  0.61010978891E+02  0.25000981568E+00 0.  0.
        -13    1    4    4    0    0 -0.33957107462E+00 -0.16820176370E+01  0.27258678448E+01  0.32227119562E+01  0.10500000000E+00 0.  1.
         13    1    4    4    0    0 -0.38127232200E+00 -0.12953754028E+01  0.21228858488E+01  0.25181412479E+01  0.10500000000E+00 0. -1.
    3000001    1    5    5    0    0 -0.82425860232E-01 -0.15653780470E+00 -0.10889842169E+01  0.14890214006E+01  0.10000000000E+01 0.  1.
        -13    1    6    6    0    0  0.23269794819E+02  0.14223029569E+02 -0.28256768456E+02  0.39271286070E+02  0.10500000000E+00 0. -1.
         13    1    6    6    0    0  0.12925668410E+02  0.77957881552E+01 -0.15644679675E+02  0.21739692821E+02  0.10500000000E+00 0.  1.
</event>
<event>
11    0  0.3482687E-009  0.9118800E+02  0.7816531E-02  0.1126479E+00
         25   -1    0    0    0    0  0.00000000000E+00  0.00000000000E+00  0.99999998245E-14  0.12500000000E+03  0.12500000000E+03 0.  0.
    3000001    1    3    3    0    0  0.22487635551E+02  0.21792054161E+02 -0.35544095776E+02  0.47381115666E+02  0.10000000000E+01 0. -1.
    1000022    2    1    0    0    0  0.26908299830E+02  0.33058440404E+02 -0.44601935220E+02  0.62500000848E+02  0.10000019946E+02 0.  0.
    3000022    2    3    3    0    0  0.44206642789E+01  0.11266386243E+02 -0.90578394437E+01  0.15118885181E+02  0.25000419774E+00 0.  0.
    1000022    2    1    0    0    0 -0.26908299830E+02 -0.33058440404E+02  0.44601935220E+02  0.62499999152E+02  0.10000009348E+02 0.  0.
    3000022    2    5    5    0    0 -0.29935301878E+01 -0.13029659839E+01  0.86259972303E+00  0.33860766600E+01  0.24998704940E+00 0.  0.
        -13    1    4    4    0    0  0.32575690590E+01  0.82149786032E+01 -0.66338165182E+01  0.11050618816E+02  0.10500000000E+00 0. -1.
         13    1    4    4    0    0  0.11630952199E+01  0.30514076398E+01 -0.24240229255E+01  0.40682663652E+01  0.10500000000E+00 0.  1.
    3000001    1    5    5    0    0 -0.23914769642E+02 -0.31755474420E+02  0.43739335497E+02  0.59113922492E+02  0.10000000000E+01 0.  1.
        -13    1    6    6    0    0 -0.92624175017E+00 -0.38428496341E+00  0.31198086457E+00  0.10554410323E+01  0.10500000000E+00 0.  1.
         13    1    6    6    0    0 -0.20672884376E+01 -0.91868102051E+00  0.55061885847E+00  0.23306356277E+01  0.10500000000E+00 0. -1.
</event>
<event>
11    0  0.3482687E-009  0.9118800E+02  0.7816531E-02  0.1126479E+00
         25   -1    0    0    0    0  0.00000000000E+00  0.00000000000E+00  0.99999998245E-14  0.12500000000E+03  0.12500000000E+03 0.  0.
    3000001    1    3    3    0    0  0.11696882036E+02 -0.20897234189E+02  0.27778144204E+02  0.36689736187E+02  0.10000000000E+01 0. -1.
    1000022    2    1    0    0    0  0.21185886637E+02 -0.40898254947E+02  0.41045595417E+02  0.62500001697E+02  0.10000012934E+02 0.  0.
    3000022    2    3    3    0    0  0.94890046009E+01 -0.20001020758E+02  0.13267451214E+02  0.25810265509E+02  0.25000858342E+00 0.  0.
    1000022    2    1    0    0    0 -0.21185886637E+02  0.40898254947E+02 -0.41045595417E+02  0.62499998303E+02  0.99999917221E+01 0.  0.
    3000022    2    5    5    0    0 -0.11443312060E+02  0.30704859973E+02 -0.31417457922E+02  0.45396662602E+02  0.24999249578E+00 0.  0.
        -13    1    4    4    0    0  0.41562781975E+01 -0.86558224394E+01  0.56986233217E+01  0.11166165113E+02  0.10500000000E+00 0.  1.
         13    1    4    4    0    0  0.53327264034E+01 -0.11345198318E+02  0.75688278920E+01  0.14644100397E+02  0.10500000000E+00 0. -1.
    3000001    1    5    5    0    0 -0.97425745770E+01  0.10193394973E+02 -0.96281374954E+01  0.17103335701E+02  0.10000000000E+01 0.  1.
        -13    1    6    6    0    0 -0.83259347478E+01  0.22346873092E+02 -0.22915191382E+02  0.33072963996E+02  0.10500000000E+00 0. -1.
         13    1    6    6    0    0 -0.31173773123E+01  0.83579868808E+01 -0.85022665401E+01  0.12323698606E+02  0.10500000000E+00 0.  1.
</event>
<event>
11    0  0.3482687E-009  0.9118800E+02  0.7816531E-02  0.1126479E+00
         25   -1    0    0    0    0  0.00000000000E+00  0.00000000000E+00  0.99999998245E-14  0.12500000000E+03  0.12500000000E+03 0.  0.
    3000001    1    3    3    0    0 -0.17069061282E+02 -0.76461886233E+01 -0.73290226400E+01  0.20112971595E+02  0.10000000000E+01 0.  1.
    1000022    2    1    0    0    0 -0.53442171136E+02 -0.10842456461E+02 -0.28855249901E+02  0.62500000391E+02  0.10000004210E+02 0.  0.
    3000022    2    3    3    0    0 -0.36373109854E+02 -0.31962678381E+01 -0.21526227261E+02  0.42387028797E+02  0.25000311008E+00 0.  0.
    1000022    2    1    0    0    0  0.53442171136E+02  0.10842456461E+02  0.28855249901E+02  0.62499999609E+02  0.99999993206E+01 0.  0.
    3000022    2    5    5    0    0  0.51911595769E+02  0.11979610110E+02  0.27966523121E+02  0.60170704723E+02  0.24991539606E+00 0.  0.
        -13    1    4    4    0    0 -0.89350978696E+01 -0.78052512385E+00 -0.53148211170E+01  0.10426099075E+02  0.10500000000E+00 0. -1.
         13    1    4    4    0    0 -0.27438011985E+02 -0.24157427143E+01 -0.16211406144E+02  0.31960929722E+02  0.10500000000E+00 0.  1.
    3000001    1    5    5    0    0  0.15305753669E+01 -0.11371536490E+01  0.88872677990E+00  0.23292948857E+01  0.10000000000E+01 0.  1.
        -13    1    6    6    0    0  0.38090383332E+02  0.87930088690E+01  0.20482167094E+02  0.44133031861E+02  0.10500000000E+00 0. -1.
         13    1    6    6    0    0  0.13821212437E+02  0.31866012414E+01  0.74843560269E+01  0.16037672862E+02  0.10500000000E+00 0.  1.
</event>
<event>
11    0  0.3482687E-009  0.9118800E+02  0.7816531E-02  0.1126479E+00
         25   -1    0    0    0    0  0.00000000000E+00  0.00000000000E+00  0.99999998245E-14  0.12500000000E+03  0.12500000000E+03 0.  0.
    3000001    1    3    3    0    0 -0.21045098437E+02 -0.20030330389E+02 -0.11337453535E+02  0.31203335661E+02  0.10000000000E+01 0. -1.
    1000022    2    1    0    0    0 -0.42737874656E+02 -0.42517856293E+02 -0.13113191339E+02  0.62499998903E+02  0.10000002096E+02 0.  0.
    3000022    2    3    3    0    0 -0.21692776218E+02 -0.22487525904E+02 -0.17757378041E+01  0.31296663242E+02  0.25004792379E+00 0.  0.
    1000022    2    1    0    0    0  0.42737874656E+02  0.42517856293E+02  0.13113191339E+02  0.62500001097E+02  0.10000015809E+02 0.  0.
    3000022    2    5    5    0    0  0.38703046134E+02  0.37376733075E+02  0.14542325161E+02  0.55735874204E+02  0.24999358405E+00 0.  0.
        -13    1    4    4    0    0 -0.74514812775E+01 -0.78043157149E+01 -0.60706463578E+00  0.10807935486E+02  0.10500000000E+00 0. -1.
         13    1    4    4    0    0 -0.14241294941E+02 -0.14683210189E+02 -0.11686731683E+01  0.20488727755E+02  0.10500000000E+00 0.  1.
    3000001    1    5    5    0    0  0.40348285220E+01  0.51411232182E+01 -0.14291338220E+01  0.67641268932E+01  0.10000000000E+01 0.  1.
        -13    1    6    6    0    0  0.24101051290E+02  0.23356126592E+02  0.90546216608E+01  0.34761566724E+02  0.10500000000E+00 0.  1.
         13    1    6    6    0    0  0.14601994844E+02  0.14020606483E+02  0.54877035004E+01  0.20974307480E+02  0.10500000000E+00 0. -1.
</event>
<event>
11    0  0.3482687E-009  0.9118800E+02  0.7816531E-02  0.1126479E+00
         25   -1    0    0    0    0  0.00000000000E+00  0.00000000000E+00  0.99999998245E-14  0.12500000000E+03  0.12500000000E+03 0.  0.
    3000001    1    3    3    0    0 -0.82011057674E+01 -0.61543700824E+01  0.81385473728E+01  0.13128989308E+02  0.10000000000E+01 0. -1.
    1000022    2    1    0    0    0 -0.49747126180E+02 -0.28174216878E+02  0.23188083152E+02  0.62499997898E+02  0.99999738590E+01 0.  0.
    3000022    2    3    3    0    0 -0.41546020413E+02 -0.22019846795E+02  0.15049535779E+02  0.49371008590E+02  0.24999400812E+00 0.  0.
    1000022    2    1    0    0    0  0.49747126180E+02  0.28174216878E+02 -0.23188083152E+02  0.62500002102E+02  0.10000000129E+02 0.  0.
    3000022    2    5    5    0    0  0.28358194679E+02  0.17193306648E+02 -0.82438440993E+01  0.34173388095E+02  0.24997880064E+00 0.  0.
        -13    1    4    4    0    0 -0.13850407134E+02 -0.73518571285E+01  0.49635758224E+01  0.16447847608E+02  0.10500000000E+00 0.  1.
         13    1    4    4    0    0 -0.27695613279E+02 -0.14667989667E+02  0.10085959956E+02  0.32923160982E+02  0.10500000000E+00 0. -1.
    3000001    1    5    5    0    0  0.21388931501E+02  0.10980910230E+02 -0.14944239052E+02  0.28326614007E+02  0.10000000000E+01 0.  1.
        -13    1    6    6    0    0  0.69524918278E+01  0.42097192529E+01 -0.20439017044E+01  0.83813744685E+01  0.10500000000E+00 0. -1.
         13    1    6    6    0    0  0.21405702851E+02  0.12983587395E+02 -0.61999423949E+01  0.25792013626E+02  0.10500000000E+00 0.  1.
</event>
<event>
11    0  0.3482687E-009  0.9118800E+02  0.7816531E-02  0.1126479E+00
         25   -1    0    0    0    0  0.00000000000E+00  0.00000000000E+00  0.99999998245E-14  0.12500000000E+03  0.12500000000E+03 0.  0.
    3000001    1    3    3    0    0  0.35986054322E+02  0.25816472370E+01 -0.25911921213E+02  0.44430717630E+02  0.10000000000E+01 0. -1.
    1000022    2    1    0    0    0  0.50341321868E+02 -0.26256753073E+01 -0.35568346617E+02  0.62500000024E+02  0.99999931872E+01 0.  0.
    3000022    2    3    3    0    0  0.14355267546E+02 -0.52073225443E+01 -0.96564254038E+01  0.18069282395E+02  0.25000057231E+00 0.  0.
    1000022    2    1    0    0    0 -0.50341321868E+02  0.26256753073E+01  0.35568346617E+02  0.62499999976E+02  0.99999928842E+01 0.  0.
    3000022    2    5    5    0    0 -0.19745684350E+02  0.52910382405E+01  0.11407834169E+02  0.23411286049E+02  0.24999586753E+00 0.  0.
        -13    1    4    4    0    0  0.86575360101E+01 -0.30900847760E+01 -0.58614271518E+01  0.10902701819E+02  0.10500000000E+00 0. -1.
         13    1    4    4    0    0  0.56977315356E+01 -0.21172377683E+01 -0.37949982519E+01  0.71665805759E+01  0.10500000000E+00 0.  1.
    3000001    1    5    5    0    0 -0.30595637518E+02 -0.26653629332E+01  0.24160512448E+02  0.39088713927E+02  0.10000000000E+01 0.  1.
        -13    1    6    6    0    0 -0.12206574162E+02  0.32094847523E+01  0.70260364406E+01  0.14445672646E+02  0.10500000000E+00 0. -1.
         13    1    6    6    0    0 -0.75391101884E+01  0.20815534882E+01  0.43817977281E+01  0.89656134027E+01  0.10500000000E+00 0.  1.
</event>
<event>
11    0  0.3482687E-009  0.9118800E+02  0.7816531E-02  0.1126479E+00
         25   -1    0    0    0    0  0.00000000000E+00  0.00000000000E+00  0.99999998245E-14  0.12500000000E+03  0.12500000000E+03 0.  0.
    3000001    1    3    3    0    0  0.54193254522E+01 -0.83769477860E+00  0.82615867578E+01  0.99661746250E+01  0.10000000000E+01 0. -1.
    1000022    2    1    0    0    0  0.48491443875E+02  0.42310831774E+01  0.37906831995E+02  0.62500001559E+02  0.10000004453E+02 0.  0.
    3000022    2    3    3    0    0  0.43072118423E+02  0.50687779560E+01  0.29645245237E+02  0.52533826934E+02  0.25002355137E+00 0.  0.
    1000022    2    1    0    0    0 -0.48491443875E+02 -0.42310831774E+01 -0.37906831995E+02  0.62499998441E+02  0.99999849629E+01 0.  0.
    3000022    2    5    5    0    0 -0.97778560524E+01 -0.12936822159E+01 -0.30845669781E+01  0.10337173101E+02  0.25002324488E+00 0.  0.
        -13    1    4    4    0    0  0.15467774649E+02  0.17756564814E+01  0.10597302039E+02  0.18833981099E+02  0.10500000000E+00 0. -1.
         13    1    4    4    0    0  0.27604343774E+02  0.32931214745E+01  0.19047943198E+02  0.33699845835E+02  0.10500000000E+00 0.  1.
    3000001    1    5    5    0    0 -0.38713587823E+02 -0.29374009615E+01 -0.34822265017E+02  0.52162825340E+02  0.10000000000E+01 0.  1.
        -13    1    6    6    0    0 -0.58026920855E+01 -0.80226324681E+00 -0.18880060833E+01  0.61555222140E+01  0.10500000000E+00 0.  1.
         13    1    6    6    0    0 -0.39751639668E+01 -0.49141896909E+00 -0.11965608948E+01  0.41816508871E+01  0.10500000000E+00 0. -1.
</event>
<event>
11    0  0.3482687E-009  0.9118800E+02  0.7816531E-02  0.1126479E+00
         25   -1    0    0    0    0  0.00000000000E+00  0.00000000000E+00  0.99999998245E-14  0.12500000000E+03  0.12500000000E+03 0.  0.
    3000001    1    3    3    0    0 -0.36470270565E+01 -0.41256403056E+01 -0.31387288457E+02  0.31882339797E+02  0.10000000000E+01 0. -1.
    1000022    2    1    0    0    0  0.14733504918E+01 -0.36519952328E+01 -0.61569003893E+02  0.62499999004E+02  0.99999902142E+01 0.  0.
    3000022    2    3    3    0    0  0.51203775483E+01  0.47364507280E+00 -0.30181715436E+02  0.30617659207E+02  0.25000547630E+00 0.  0.
    1000022    2    1    0    0    0 -0.14733504918E+01  0.36519952328E+01  0.61569003893E+02  0.62500000996E+02  0.10000002664E+02 0.  0.
    3000022    2    5    5    0    0 -0.13416492631E+01 -0.32696656238E+01  0.15273667184E+02  0.15679226384E+02  0.24998946104E+00 0.  0.
        -13    1    4    4    0    0  0.28034293032E+01  0.23363429020E+00 -0.16874396045E+02  0.17107602630E+02  0.10500000000E+00 0. -1.
         13    1    4    4    0    0  0.23169482451E+01  0.24001078260E+00 -0.13307319391E+02  0.13510056577E+02  0.10500000000E+00 0.  1.
    3000001    1    5    5    0    0 -0.13170122864E+00  0.69216608566E+01  0.46295336709E+02  0.46820774612E+02  0.10000000000E+01 0. -1.
        -13    1    6    6    0    0 -0.69391509368E+00 -0.15502563057E+01  0.71547556164E+01  0.73543433222E+01  0.10500000000E+00 0. -1.
         13    1    6    6    0    0 -0.64773416945E+00 -0.17194093181E+01  0.81189115675E+01  0.83248830621E+01  0.10500000000E+00 0.  1.
</event>
<event>
11    0  0.3482687E-009  0.9118800E+02  0.7816531E-02  0.1126479E+00
         25   -1    0    0    0    0  0.00000000000E+00  0.00000000000E+00  0.99999998245E-14  0.12500000000E+03  0.12500000000E+03 0.  0.
    3000001    1    3    3    0    0  0.30015863208E+02 -0.29248898448E+02  0.42871512350E+02  0.59961793467E+02  0.10000000000E+01 0.  1.
    1000022    2    1    0    0    0  0.31089302347E+02 -0.28495374576E+02  0.45030199874E+02  0.62500002068E+02  0.10000013257E+02 0.  0.
    3000022    2    3    3    0    0  0.10734391385E+01  0.75352387212E+00  0.21586875245E+01  0.25382086014E+01  0.25000253181E+00 0.  0.
    1000022    2    1    0    0    0 -0.31089302347E+02  0.28495374576E+02 -0.45030199874E+02  0.62499997932E+02  0.99999874076E+01 0.  0.
    3000022    2    5    5    0    0 -0.69961014310E+01  0.32115017790E+01 -0.12947870824E+02  0.15065491597E+02  0.24999853806E+00 0.  0.
        -13    1    4    4    0    0  0.73722777973E+00  0.54953577865E+00  0.15708149690E+01  0.18231782793E+01  0.10500000000E+00 0. -1.
         13    1    4    4    0    0  0.33621135879E+00  0.20398809347E+00  0.58787255549E+00  0.71503032212E+00  0.10500000000E+00 0.  1.
    3000001    1    5    5    0    0 -0.24093200916E+02  0.25283872797E+02 -0.32082329051E+02  0.47434506335E+02  0.10000000000E+01 0.  1.
        -13    1    6    6    0    0 -0.34834207479E+01  0.15247649285E+01 -0.63822325295E+01  0.74298751843E+01  0.10500000000E+00 0. -1.
         13    1    6    6    0    0 -0.35126806831E+01  0.16867368506E+01 -0.65656382943E+01  0.76356164123E+01  0.10500000000E+00 0.  1.
</event>
<event>
11    0  0.3482687E-009  0.9118800E+02  0.7816531E-02  0.1126479E+00
         25   -1    0    0    0    0  0.00000000000E+00  0.00000000000E+00  0.99999998245E-14  0.12500000000E+03  0.12500000000E+03 0.  0.
    3000001    1    3    3    0    0  0.35411478030E+01  0.37455248663E+01  0.74837729746E+00  0.53036546707E+01  0.10000000000E+01 0.  1.
    1000022    2    1    0    0    0  0.52337826460E+02  0.28670809613E+02 -0.15652049262E+02  0.62500002034E+02  0.10000010286E+02 0.  0.
    3000022    2    3    3    0    0  0.48796678657E+02  0.24925284747E+02 -0.16400426560E+02  0.57196347363E+02  0.24998541002E+00 0.  0.
    1000022    2    1    0    0    0 -0.52337826460E+02 -0.28670809613E+02  0.15652049262E+02  0.62499997966E+02  0.99999848615E+01 0.  0.
    3000022    2    5    5    0    0 -0.15439949726E+02 -0.63716210790E+01  0.24681534182E+00  0.16706675866E+02  0.24999597614E+00 0.  0.
        -13    1    4    4    0    0  0.13780039352E+02  0.70363891647E+01 -0.45889818024E+01  0.16139084113E+02  0.10500000000E+00 0.  1.
         13    1    4    4    0    0  0.35016639304E+02  0.17888895582E+02 -0.11811444757E+02  0.41057263250E+02  0.10500000000E+00 0. -1.
    3000001    1    5    5    0    0 -0.36897876734E+02 -0.22299188534E+02  0.15405233921E+02  0.45793322100E+02  0.10000000000E+01 0.  1.
        -13    1    6    6    0    0 -0.83196741861E+01 -0.34316499997E+01  0.65870171916E-01  0.90004757743E+01  0.10500000000E+00 0. -1.
         13    1    6    6    0    0 -0.71202755396E+01 -0.29399710793E+01  0.18094516991E+00  0.77062000922E+01  0.10500000000E+00 0.  1.
</event>
<event>
11    0  0.3482687E-009  0.9118800E+02  0.7816531E-02  0.1126479E+00
         25   -1    0    0    0    0  0.00000000000E+00  0.00000000000E+00  0.99999998245E-14  0.12500000000E+03  0.12500000000E+03 0.  0.
    3000001    1    3    3    0    0 -0.14123600601E+02  0.16406976061E+02 -0.18507461274E+02  0.28498966301E+02  0.10000000000E+01 0. -1.
    1000022    2    1    0    0    0 -0.23416705718E+02  0.43040843543E+02 -0.37488583159E+02  0.62499998434E+02  0.99999808680E+01 0.  0.
    3000022    2    3    3    0    0 -0.92931051170E+01  0.26633867481E+02 -0.18981121885E+02  0.34001032132E+02  0.24999665251E+00 0.  0.
    1000022    2    1    0    0    0  0.23416705718E+02 -0.43040843543E+02  0.37488583159E+02  0.62500001566E+02  0.10000000447E+02 0.  0.
    3000022    2    5    5    0    0  0.91179390549E+01 -0.13979270525E+02  0.18604041981E+02  0.24994593292E+02  0.24999749956E+00 0.  0.
        -13    1    4    4    0    0 -0.64202014589E+01  0.18392660565E+02 -0.13166262478E+02  0.23513197189E+02  0.10500000000E+00 0.  1.
         13    1    4    4    0    0 -0.28729036581E+01  0.82412069164E+01 -0.58148594071E+01  0.10487834943E+02  0.10500000000E+00 0. -1.
    3000001    1    5    5    0    0  0.14298766664E+02 -0.29061573018E+02  0.18884541178E+02  0.37505408275E+02  0.10000000000E+01 0. -1.
        -13    1    6    6    0    0  0.54874107910E+01 -0.83465910834E+01  0.11211331129E+02  0.15016065749E+02  0.10500000000E+00 0. -1.
         13    1    6    6    0    0  0.36305282639E+01 -0.56326794417E+01  0.73927108524E+01  0.99785275425E+01  0.10500000000E+00 0.  1.
</event>
<event>
11    0  0.3482687E-009  0.9118800E+02  0.7816531E-02  0.1126479E+00
         25   -1    0    0    0    0  0.00000000000E+00  0.00000000000E+00  0.99999998245E-14  0.12500000000E+03  0.12500000000E+03 0.  0.
    3000001    1    3    3    0    0  0.23290902344E+02  0.34976573615E+02 -0.29998717173E+02  0.51640583516E+02  0.10000000000E+01 0. -1.
    1000022    2    1    0    0    0  0.25909172682E+02  0.39832190816E+02 -0.39349225256E+02  0.62499997093E+02  0.99999727032E+01 0.  0.
    3000022    2    3    3    0    0  0.26182703378E+01  0.48556172017E+01 -0.93505080830E+01  0.10859413577E+02  0.25000771318E+00 0.  0.
    1000022    2    1    0    0    0 -0.25909172682E+02 -0.39832190816E+02  0.39349225256E+02  0.62500002907E+02  0.10000009044E+02 0.  0.
    3000022    2    5    5    0    0 -0.21099190664E+02 -0.37682896190E+02  0.35337801494E+02  0.55803218978E+02  0.25004371196E+00 0.  0.
        -13    1    4    4    0    0  0.11160711572E+01  0.19898268545E+01 -0.37660820912E+01  0.44044778416E+01  0.10500000000E+00 0. -1.
         13    1    4    4    0    0  0.15021991806E+01  0.28657903472E+01 -0.55844259917E+01  0.64549357355E+01  0.10500000000E+00 0.  1.
    3000001    1    5    5    0    0 -0.48099820180E+01 -0.21492946258E+01  0.40114237621E+01  0.66967839297E+01  0.10000000000E+01 0.  1.
        -13    1    6    6    0    0 -0.67132247183E+01 -0.12092891467E+02  0.11308691665E+02  0.17866251491E+02  0.10500000000E+00 0. -1.
         13    1    6    6    0    0 -0.14385965945E+02 -0.25590004723E+02  0.24029109829E+02  0.37936967486E+02  0.10500000000E+00 0.  1.
</event>
<event>
11    0  0.3482687E-009  0.9118800E+02  0.7816531E-02  0.1126479E+00
         25   -1    0    0    0    0  0.00000000000E+00  0.00000000000E+00  0.99999998245E-14  0.12500000000E+03  0.12500000000E+03 0.  0.
    3000001    1    3    3    0    0  0.31224882317E+02 -0.46937263401E+01 -0.19315663666E+02  0.37028626838E+02  0.10000000000E+01 0.  1.
    1000022    2    1    0    0    0  0.51390730257E+02 -0.15703082406E+02 -0.30309346440E+02  0.62500001041E+02  0.99999847577E+01 0.  0.
    3000022    2    3    3    0    0  0.20165847940E+02 -0.11009356066E+02 -0.10993682774E+02  0.25471374203E+02  0.24999746012E+00 0.  0.
    1000022    2    1    0    0    0 -0.51390730257E+02  0.15703082406E+02  0.30309346440E+02  0.62499998959E+02  0.99999717439E+01 0.  0.
    3000022    2    5    5    0    0 -0.36280641072E+02  0.63151337196E+01  0.19742247914E+02  0.41784981532E+02  0.24999699372E+00 0.  0.
        -13    1    4    4    0    0  0.57790600090E+01 -0.31619381960E+01 -0.31983741109E+01  0.73236609490E+01  0.10500000000E+00 0. -1.
         13    1    4    4    0    0  0.14386787931E+02 -0.78474178704E+01 -0.77953086626E+01  0.18147713254E+02  0.10500000000E+00 0.  1.
    3000001    1    5    5    0    0 -0.15110089185E+02  0.93879486869E+01  0.10567098526E+02  0.20715017427E+02  0.10000000000E+01 0.  1.
        -13    1    6    6    0    0 -0.27652790412E+02  0.48289145757E+01  0.15039373588E+02  0.31846334428E+02  0.10500000000E+00 0.  1.
         13    1    6    6    0    0 -0.86278506597E+01  0.14862191439E+01  0.47028743254E+01  0.99386471046E+01  0.10500000000E+00 0. -1.
</event>
<event>
11    0  0.3482687E-009  0.9118800E+02  0.7816531E-02  0.1126479E+00
         25   -1    0    0    0    0  0.00000000000E+00  0.00000000000E+00  0.99999998245E-14  0.12500000000E+03  0.12500000000E+03 0.  0.
    3000001    1    3    3    0    0  0.19688720422E+02  0.56734347617E+01  0.48482370687E+01  0.21079349528E+02  0.10000000000E+01 0.  1.
    1000022    2    1    0    0    0  0.54731874037E+02  0.10906849900E+02  0.26300428950E+02  0.62500000000E+02  0.10000001333E+02 0.  0.
    3000022    2    3    3    0    0  0.35043153616E+02  0.52334151386E+01  0.21452191881E+02  0.41420650472E+02  0.24999938810E+00 0.  0.
    1000022    2    1    0    0    0 -0.54731874037E+02 -0.10906849900E+02 -0.26300428950E+02  0.62500000000E+02  0.10000001336E+02 0.  0.
    3000022    2    5    5    0    0 -0.37801718370E+02 -0.11863483668E+02 -0.20004286754E+02  0.44384075358E+02  0.25000081300E+00 0.  0.
        -13    1    4    4    0    0  0.15830262387E+02  0.23194055516E+01  0.97452019222E+01  0.18733841967E+02  0.10500000000E+00 0.  1.
         13    1    4    4    0    0  0.19212891229E+02  0.29140095871E+01  0.11706989959E+02  0.22686808505E+02  0.10500000000E+00 0. -1.
    3000001    1    5    5    0    0 -0.16930155667E+02  0.95663376798E+00 -0.62961421962E+01  0.18115924642E+02  0.10000000000E+01 0. -1.
        -13    1    6    6    0    0 -0.14605210013E+02 -0.45203289060E+01 -0.77062076580E+01  0.17121395808E+02  0.10500000000E+00 0. -1.
         13    1    6    6    0    0 -0.23196508357E+02 -0.73431547623E+01 -0.12298079096E+02  0.27262679550E+02  0.10500000000E+00 0.  1.
</event>
<event>
11    0  0.3482687E-009  0.9118800E+02  0.7816531E-02  0.1126479E+00
         25   -1    0    0    0    0  0.00000000000E+00  0.00000000000E+00  0.99999998245E-14  0.12500000000E+03  0.12500000000E+03 0.  0.
    3000001    1    3    3    0    0 -0.18436446299E+02 -0.49052763448E+02 -0.15868364055E+02  0.54762040976E+02  0.10000000000E+01 0. -1.
    1000022    2    1    0    0    0 -0.20523995470E+02 -0.56360965971E+02 -0.14438040904E+02  0.62500000123E+02  0.10000005750E+02 0.  0.
    3000022    2    3    3    0    0 -0.20875491704E+01 -0.73082025225E+01  0.14303231505E+01  0.77379591470E+01  0.25000359454E+00 0.  0.
    1000022    2    1    0    0    0  0.20523995470E+02  0.56360965971E+02  0.14438040904E+02  0.62499999877E+02  0.10000004216E+02 0.  0.
    3000022    2    5    5    0    0  0.46171558709E+01  0.51706967292E+01 -0.14449834992E+00  0.69381274994E+01  0.25000084589E+00 0.  0.
        -13    1    4    4    0    0 -0.15782281317E+01 -0.54362804574E+01  0.10814245282E+01  0.57640656882E+01  0.10500000000E+00 0. -1.
         13    1    4    4    0    0 -0.50932103866E+00 -0.18719220651E+01  0.34889862227E+00  0.19738934588E+01  0.10500000000E+00 0.  1.
    3000001    1    5    5    0    0  0.15906839599E+02  0.51190269241E+02  0.14582539254E+02  0.55561872378E+02  0.10000000000E+01 0.  1.
        -13    1    6    6    0    0  0.18645209223E+01  0.20941290222E+01  0.49070668138E-02  0.28058623827E+01  0.10500000000E+00 0.  1.
         13    1    6    6    0    0  0.27526349487E+01  0.30765677070E+01 -0.14940541673E+00  0.41322651167E+01  0.10500000000E+00 0. -1.
</event>
<event>
11    0  0.3482687E-009  0.9118800E+02  0.7816531E-02  0.1126479E+00
         25   -1    0    0    0    0  0.00000000000E+00  0.00000000000E+00  0.99999998245E-14  0.12500000000E+03  0.12500000000E+03 0.  0.
    3000001    1    3    3    0    0  0.24491901576E+02 -0.22548459063E+02  0.12361316974E+02  0.35525883610E+02  0.10000000000E+01 0. -1.
    1000022    2    1    0    0    0  0.36342267834E+02 -0.45039213139E+02  0.21376595801E+02  0.62500000008E+02  0.10000000075E+02 0.  0.
    3000022    2    3    3    0    0  0.11850366258E+02 -0.22490754075E+02  0.90152788265E+01  0.26974116398E+02  0.25000759838E+00 0.  0.
    1000022    2    1    0    0    0 -0.36342267834E+02  0.45039213139E+02 -0.21376595801E+02  0.62499999992E+02  0.99999999755E+01 0.  0.
    3000022    2    5    5    0    0 -0.11167435350E+02  0.10926259262E+02 -0.10143386412E+02  0.18629157671E+02  0.24994774774E+00 0.  0.
        -13    1    4    4    0    0  0.52450667311E+01 -0.99969659503E+01  0.40708115365E+01  0.12001357623E+02  0.10500000000E+00 0. -1.
         13    1    4    4    0    0  0.66052995266E+01 -0.12493788125E+02  0.49444672900E+01  0.14972758775E+02  0.10500000000E+00 0.  1.
    3000001    1    5    5    0    0 -0.25174832484E+02  0.34112953876E+02 -0.11233209389E+02  0.43870842321E+02  0.10000000000E+01 0.  1.
        -13    1    6    6    0    0 -0.39127338782E+01  0.37582410067E+01 -0.35525510038E+01  0.64857925885E+01  0.10500000000E+00 0. -1.
         13    1    6    6    0    0 -0.72547014716E+01  0.71680182556E+01 -0.65908354079E+01  0.12143365083E+02  0.10500000000E+00 0.  1.
</event>
<event>
11    0  0.3482687E-009  0.9118800E+02  0.7816531E-02  0.1126479E+00
         25   -1    0    0    0    0  0.00000000000E+00  0.00000000000E+00  0.99999998245E-14  0.12500000000E+03  0.12500000000E+03 0.  0.
    3000001    1    3    3    0    0  0.21847816983E+02 -0.75068517794E+01 -0.38960073612E+02  0.45305267535E+02  0.10000000000E+01 0.  1.
    1000022    2    1    0    0    0  0.30758818496E+02 -0.42923114029E+01 -0.53307795713E+02  0.62500000670E+02  0.10000007374E+02 0.  0.
    3000022    2    3    3    0    0  0.89110015129E+01  0.32145403765E+01 -0.14347722101E+02  0.17194733135E+02  0.25000058563E+00 0.  0.
    1000022    2    1    0    0    0 -0.30758818496E+02  0.42923114029E+01  0.53307795713E+02  0.62499999330E+02  0.99999990022E+01 0.  0.
    3000022    2    5    5    0    0 -0.25015210249E+01  0.35211737720E+01  0.64450250524E+01  0.77625460865E+01  0.25000329702E+00 0.  0.
        -13    1    4    4    0    0  0.20525318175E+01  0.73342634881E+00 -0.32992769676E+01  0.39556357997E+01  0.10500000000E+00 0.  1.
         13    1    4    4    0    0  0.68584696954E+01  0.24811140277E+01 -0.11048445134E+02  0.13239097335E+02  0.10500000000E+00 0. -1.
    3000001    1    5    5    0    0 -0.28257297471E+02  0.77113763091E+00  0.46862770660E+02  0.54737453244E+02  0.10000000000E+01 0.  1.
        -13    1    6    6    0    0 -0.18652424449E+01  0.25998167909E+01  0.47195354452E+01  0.57029129875E+01  0.10500000000E+00 0.  1.
         13    1    6    6    0    0 -0.63627858001E+00  0.92135698111E+00  0.17254896072E+01  0.20596330991E+01  0.10500000000E+00 0. -1.
</event>
<event>
11    0  0.3482687E-009  0.9118800E+02  0.7816531E-02  0.1126479E+00
         25   -1    0    0    0    0  0.00000000000E+00  0.00000000000E+00  0.99999998245E-14  0.12500000000E+03  0.12500000000E+03 0.  0.
    3000001    1    3    3    0    0  0.34453360251E+02 -0.18972195459E+02  0.17269852958E+02  0.42967732711E+02  0.10000000000E+01 0. -1.
    1000022    2    1    0    0    0  0.45601078904E+02 -0.32459490595E+02  0.25945581886E+02  0.62500001764E+02  0.10000003709E+02 0.  0.
    3000022    2    3    3    0    0  0.11147718653E+02 -0.13487295136E+02  0.86757289279E+01  0.19532269053E+02  0.25000135505E+00 0.  0.
    1000022    2    1    0    0    0 -0.45601078904E+02  0.32459490595E+02 -0.25945581886E+02  0.62499998236E+02  0.99999816648E+01 0.  0.
    3000022    2    5    5    0    0 -0.45086268493E+02  0.30034469568E+02 -0.24445649668E+02  0.59434781540E+02  0.25000026509E+00 0.  0.
        -13    1    4    4    0    0  0.36073711098E+01 -0.44024761140E+01  0.28734993363E+01  0.63767504024E+01  0.10500000000E+00 0. -1.
         13    1    4    4    0    0  0.75403475429E+01 -0.90848190218E+01  0.58022295915E+01  0.13155518650E+02  0.10500000000E+00 0.  1.
    3000001    1    5    5    0    0 -0.51481041057E+00  0.24250210265E+01 -0.14999322177E+01  0.30652166963E+01  0.10000000000E+01 0. -1.
        -13    1    6    6    0    0 -0.10677258591E+02  0.70996435384E+01 -0.57726854170E+01  0.14062137509E+02  0.10500000000E+00 0.  1.
         13    1    6    6    0    0 -0.34409009902E+02  0.22934826030E+02 -0.18672964251E+02  0.45372644032E+02  0.10500000000E+00 0. -1.
</event>
<event>
11    0  0.3482687E-009  0.9118800E+02  0.7816531E-02  0.1126479E+00
         25   -1    0    0    0    0  0.00000000000E+00  0.00000000000E+00  0.99999998245E-14  0.12500000000E+03  0.12500000000E+03 0.  0.
    3000001    1    3    3    0    0 -0.30381316979E+01  0.23128715439E+02  0.84149876190E+00  0.23363986009E+02  0.10000000000E+01 0.  1.
    1000022    2    1    0    0    0 -0.68382868328E+01  0.59519580780E+02  0.14727777480E+02  0.62499998762E+02  0.99999876319E+01 0.  0.
    3000022    2    3    3    0    0 -0.38001551349E+01  0.36390865341E+02  0.13886278718E+02  0.39136012752E+02  0.24999637007E+00 0.  0.
    1000022    2    1    0    0    0  0.68382868328E+01 -0.59519580780E+02 -0.14727777480E+02  0.62500001238E+02  0.10000003110E+02 0.  0.
    3000022    2    5    5    0    0 -0.16922606683E+01 -0.23604066313E+02 -0.36484728223E+01  0.23945553870E+02  0.25000711227E+00 0.  0.
        -13    1    4    4    0    0 -0.18740017410E+01  0.18079920007E+02  0.68275246591E+01  0.19417041689E+02  0.10500000000E+00 0.  1.
         13    1    4    4    0    0 -0.19261533939E+01  0.18310945335E+02  0.70587540591E+01  0.19718971064E+02  0.10500000000E+00 0. -1.
    3000001    1    5    5    0    0  0.85305475011E+01 -0.35915514468E+02 -0.11079304658E+02  0.38554447368E+02  0.10000000000E+01 0. -1.
        -13    1    6    6    0    0 -0.38555587176E+00 -0.55427140022E+01 -0.86492693784E+00  0.56240070633E+01  0.10500000000E+00 0. -1.
         13    1    6    6    0    0 -0.13067047966E+01 -0.18061352311E+02 -0.27835458845E+01  0.18321546807E+02  0.10500000000E+00 0.  1.
</event>
<event>
11    0  0.3482687E-009  0.9118800E+02  0.7816531E-02  0.1126479E+00
         25   -1    0    0    0    0  0.00000000000E+00  0.00000000000E+00  0.99999998245E-14  0.12500000000E+03  0.12500000000E+03 0.  0.
    3000001    1    3    3    0    0 -0.42922874241E+02  0.66827287540E+01 -0.41295459849E+02  0.59944532702E+02  0.10000000000E+01 0.  1.
    1000022    2    1    0    0    0 -0.43974675637E+02  0.50858312391E+01 -0.42972224035E+02  0.62499998931E+02  0.10000002560E+02 0.  0.
    3000022    2    3    3    0    0 -0.10518013953E+01 -0.15968975149E+01 -0.16767641850E+01  0.25554662288E+01  0.25000333205E+00 0.  0.
    1000022    2    1    0    0    0  0.43974675637E+02 -0.50858312391E+01  0.42972224035E+02  0.62500001069E+02  0.10000015920E+02 0.  0.
    3000022    2    5    5    0    0  0.21103096846E+02  0.26402741499E+00  0.26079417773E+02  0.33550095933E+02  0.24999749723E+00 0.  0.
        -13    1    4    4    0    0 -0.71261853567E+00 -0.99125675812E+00 -0.11064634541E+01  0.16509698704E+01  0.10500000000E+00 0. -1.
         13    1    4    4    0    0 -0.33918285965E+00 -0.60564075681E+00 -0.57030073097E+00  0.90449635838E+00  0.10500000000E+00 0.  1.
    3000001    1    5    5    0    0  0.22871578791E+02 -0.53498586541E+01  0.16892806261E+02  0.28949905136E+02  0.10000000000E+01 0.  1.
        -13    1    6    6    0    0  0.13217291895E+02  0.13090021159E+00  0.16411185774E+02  0.21072540981E+02  0.10500000000E+00 0.  1.
         13    1    6    6    0    0  0.78858049502E+01  0.13312720340E+00  0.96682319998E+01  0.12477554951E+02  0.10500000000E+00 0. -1.
</event>
<event>
11    0  0.3482687E-009  0.9118800E+02  0.7816531E-02  0.1126479E+00
         25   -1    0    0    0    0  0.00000000000E+00  0.00000000000E+00  0.99999998245E-14  0.12500000000E+03  0.12500000000E+03 0.  0.
    3000001    1    3    3    0    0 -0.14934674377E+02 -0.11953846116E+02  0.38140697547E+02  0.42680812376E+02  0.10000000000E+01 0. -1.
    1000022    2    1    0    0    0 -0.18489525238E+02 -0.11932330105E+02  0.57636860318E+02  0.62500002371E+02  0.99999791861E+01 0.  0.
    3000022    2    3    3    0    0 -0.35548508609E+01  0.21516010416E-01  0.19496162771E+02  0.19819189994E+02  0.25000331927E+00 0.  0.
    1000022    2    1    0    0    0  0.18489525238E+02  0.11932330105E+02 -0.57636860318E+02  0.62499997629E+02  0.99999495500E+01 0.  0.
    3000022    2    5    5    0    0  0.11419003586E+02  0.11818091538E+02 -0.33271352785E+02  0.37109383532E+02  0.24999894539E+00 0.  0.
        -13    1    4    4    0    0 -0.21211201038E+01 -0.50445160092E-01  0.11599632507E+02  0.11792548262E+02  0.10500000000E+00 0.  1.
         13    1    4    4    0    0 -0.14337307571E+01  0.71961170508E-01  0.78965302641E+01  0.80266417327E+01  0.10500000000E+00 0. -1.
    3000001    1    5    5    0    0  0.70705216518E+01  0.11423856777E+00 -0.24365507533E+02  0.25390614097E+02  0.10000000000E+01 0. -1.
        -13    1    6    6    0    0  0.85686889642E+01  0.88324810143E+01 -0.24936944908E+02  0.27808225362E+02  0.10500000000E+00 0.  1.
         13    1    6    6    0    0  0.28503146220E+01  0.29856105232E+01 -0.83344078772E+01  0.93011581700E+01  0.10500000000E+00 0. -1.
</event>
<event>
11    0  0.3482687E-009  0.9118800E+02  0.7816531E-02  0.1126479E+00
         25   -1    0    0    0    0  0.00000000000E+00  0.00000000000E+00  0.99999998245E-14  0.12500000000E+03  0.12500000000E+03 0.  0.
    3000001    1    3    3    0    0  0.22650539128E+02  0.10350259533E+02  0.30635977398E+02  0.39493517269E+02  0.10000000000E+01 0. -1.
    1000022    2    1    0    0    0  0.30142957903E+02  0.21254998250E+02  0.49455810429E+02  0.62500000759E+02  0.10000002397E+02 0.  0.
    3000022    2    3    3    0    0  0.74924187748E+01  0.10904738718E+02  0.18819833031E+02  0.23006483490E+02  0.25000327982E+00 0.  0.
    1000022    2    1    0    0    0 -0.30142957903E+02 -0.21254998250E+02 -0.49455810429E+02  0.62499999241E+02  0.99999929104E+01 0.  0.
    3000022    2    5    5    0    0 -0.29043564704E+02 -0.21519444640E+02 -0.49060852243E+02  0.60939682200E+02  0.24999108037E+00 0.  0.
        -13    1    4    4    0    0  0.51783929844E+01  0.74836178414E+01  0.13010780054E+02  0.15878026090E+02  0.10500000000E+00 0.  1.
         13    1    4    4    0    0  0.23140257904E+01  0.34211208762E+01  0.58090529777E+01  0.71284574001E+01  0.10500000000E+00 0. -1.
    3000001    1    5    5    0    0 -0.10993931990E+01  0.26444638960E+00 -0.39495818562E+00  0.15603170407E+01  0.10000000000E+01 0.  1.
        -13    1    6    6    0    0 -0.85451249312E+01 -0.63136846620E+01 -0.14350360413E+02  0.17855689376E+02  0.10500000000E+00 0. -1.
         13    1    6    6    0    0 -0.20498439773E+02 -0.15205759978E+02 -0.34710491830E+02  0.43083992824E+02  0.10500000000E+00 0.  1.
</event>
<event>
11    0  0.3482687E-009  0.9118800E+02  0.7816531E-02  0.1126479E+00
         25   -1    0    0    0    0  0.00000000000E+00  0.00000000000E+00  0.99999998245E-14  0.12500000000E+03  0.12500000000E+03 0.  0.
    3000001    1    3    3    0    0 -0.41430131182E+01  0.15178695167E+02 -0.18804510032E+02  0.24539090086E+02  0.10000000000E+01 0.  1.
    1000022    2    1    0    0    0  0.14807672043E+01  0.40583812027E+02 -0.46443641874E+02  0.62500003884E+02  0.10000007243E+02 0.  0.
    3000022    2    3    3    0    0  0.56237803225E+01  0.25405116860E+02 -0.27639131841E+02  0.37960913799E+02  0.24999938831E+00 0.  0.
    1000022    2    1    0    0    0 -0.14807672043E+01 -0.40583812027E+02  0.46443641874E+02  0.62499996116E+02  0.99999586880E+01 0.  0.
    3000022    2    5    5    0    0  0.22681406887E+01 -0.24413058138E+02  0.22041658137E+02  0.32970275460E+02  0.25000121328E+00 0.  0.
        -13    1    4    4    0    0  0.18233655470E+01  0.84409266299E+01 -0.92167696606E+01  0.12630667926E+02  0.10500000000E+00 0. -1.
         13    1    4    4    0    0  0.38004147755E+01  0.16964190230E+02 -0.18422362181E+02  0.25330245872E+02  0.10500000000E+00 0.  1.
    3000001    1    5    5    0    0 -0.37489078931E+01 -0.16170753889E+02  0.24401983737E+02  0.29529720656E+02  0.10000000000E+01 0.  1.
        -13    1    6    6    0    0  0.12905719983E+01 -0.14255122663E+02  0.12793443890E+02  0.19197847009E+02  0.10500000000E+00 0. -1.
         13    1    6    6    0    0  0.97756869043E+00 -0.10157935475E+02  0.92482142475E+01  0.13772428451E+02  0.10500000000E+00 0.  1.
</event>
<event>
11    0  0.3482687E-009  0.9118800E+02  0.7816531E-02  0.1126479E+00
         25   -1    0    0    0    0  0.00000000000E+00  0.00000000000E+00  0.99999998245E-14  0.12500000000E+03  0.12500000000E+03 0.  0.
    3000001    1    3    3    0    0 -0.58776769891E+01 -0.16653760330E+02  0.38981135450E+02  0.42806818860E+02  0.10000000000E+01 0.  1.
    1000022    2    1    0    0    0 -0.14920816766E+02 -0.22635827400E+02  0.55418756326E+02  0.62500000024E+02  0.99999997618E+01 0.  0.
    3000022    2    3    3    0    0 -0.90431397765E+01 -0.59820670702E+01  0.16437620876E+02  0.19693181164E+02  0.25000171108E+00 0.  0.
    1000022    2    1    0    0    0  0.14920816766E+02  0.22635827400E+02 -0.55418756326E+02  0.62499999976E+02  0.99999994605E+01 0.  0.
    3000022    2    5    5    0    0  0.14737453202E+02  0.16401778480E+02 -0.47512309740E+02  0.52380272422E+02  0.24999602748E+00 0.  0.
        -13    1    4    4    0    0 -0.52521851178E+01 -0.35170674061E+01  0.94840708409E+01  0.11397975099E+02  0.10500000000E+00 0.  1.
         13    1    4    4    0    0 -0.37909546588E+01 -0.24649996642E+01  0.69535500349E+01  0.82952060647E+01  0.10500000000E+00 0. -1.
    3000001    1    5    5    0    0  0.18336356312E+00  0.62340489207E+01 -0.79064465863E+01  0.10119727554E+02  0.10000000000E+01 0. -1.
        -13    1    6    6    0    0  0.48039799277E+01  0.54039963718E+01 -0.15496105294E+02  0.17100342226E+02  0.10500000000E+00 0.  1.
         13    1    6    6    0    0  0.99334732748E+01  0.10997782108E+02 -0.32016204445E+02  0.35279930197E+02  0.10500000000E+00 0. -1.
</event>
<event>
11    0  0.3482687E-009  0.9118800E+02  0.7816531E-02  0.1126479E+00
         25   -1    0    0    0    0  0.00000000000E+00  0.00000000000E+00  0.99999998245E-14  0.12500000000E+03  0.12500000000E+03 0.  0.
    3000001    1    3    3    0    0  0.41396164290E+01 -0.42638275017E+01 -0.30719820303E+01  0.67641498164E+01  0.10000000000E+01 0. -1.
    1000022    2    1    0    0    0  0.19628591575E+02 -0.55931093355E+02 -0.17107931529E+02  0.62500000929E+02  0.99999991944E+01 0.  0.
    3000022    2    3    3    0    0  0.15488975146E+02 -0.51667265853E+02 -0.14035949498E+02  0.55735851113E+02  0.25001830003E+00 0.  0.
    1000022    2    1    0    0    0 -0.19628591575E+02  0.55931093355E+02  0.17107931529E+02  0.62499999071E+02  0.99999875757E+01 0.  0.
    3000022    2    5    5    0    0 -0.91472861426E+01  0.37815813045E+02  0.83651714496E+01  0.39796320997E+02  0.25002292004E+00 0.  0.
        -13    1    4    4    0    0  0.50374099445E+01 -0.16948317723E+02 -0.46339901745E+01  0.18278562923E+02  0.10500000000E+00 0.  1.
         13    1    4    4    0    0  0.10451565202E+02 -0.34718948130E+02 -0.94019593238E+01  0.37457288190E+02  0.10500000000E+00 0. -1.
    3000001    1    5    5    0    0 -0.10481305433E+02  0.18115280310E+02  0.87427600790E+01  0.22703678074E+02  0.10000000000E+01 0.  1.
        -13    1    6    6    0    0 -0.62051815960E+01  0.25864475460E+02  0.57232549601E+01  0.27207389470E+02  0.10500000000E+00 0. -1.
         13    1    6    6    0    0 -0.29421045465E+01  0.11951337585E+02  0.26419164895E+01  0.12588931526E+02  0.10500000000E+00 0.  1.
</event>
<event>
11    0  0.3482687E-009  0.9118800E+02  0.7816531E-02  0.1126479E+00
         25   -1    0    0    0    0  0.00000000000E+00  0.00000000000E+00  0.99999998245E-14  0.12500000000E+03  0.12500000000E+03 0.  0.
    3000001    1    3    3    0    0 -0.31723646522E+01  0.37821937759E+02  0.79829513002E+00  0.37976310359E+02  0.10000000000E+01 0.  1.
    1000022    2    1    0    0    0  0.23831449421E+01  0.61641127176E+02 -0.97114353780E+00  0.62499990219E+02  0.99998859143E+01 0.  0.
    3000022    2    3    3    0    0  0.55555095943E+01  0.23819189417E+02 -0.17694386678E+01  0.24523679860E+02  0.24997875786E+00 0.  0.
    1000022    2    1    0    0    0 -0.23831449421E+01 -0.61641127176E+02  0.97114353780E+00  0.62500009781E+02  0.10000008179E+02 0.  0.
    3000022    2    5    5    0    0  0.20593313352E+01 -0.29402917018E+01  0.39460030800E+00  0.36199954903E+01  0.24999421455E+00 0.  0.
        -13    1    4    4    0    0  0.35512614789E+01  0.15049251616E+02 -0.11622364424E+01  0.15506555093E+02  0.10500000000E+00 0.  1.
         13    1    4    4    0    0  0.20042481154E+01  0.87699378006E+01 -0.60720222538E+00  0.90171247678E+01  0.10500000000E+00 0. -1.
    3000001    1    5    5    0    0 -0.44424762773E+01 -0.58700835474E+02  0.57654322980E+00  0.58880014291E+02  0.10000000000E+01 0.  1.
        -13    1    6    6    0    0  0.63898962359E+00 -0.87604004578E+00  0.77737677963E-01  0.10921639288E+01  0.10500000000E+00 0. -1.
         13    1    6    6    0    0  0.14203417116E+01 -0.20642516560E+01  0.31686263004E+00  0.25278315615E+01  0.10500000000E+00 0.  1.
</event>
<event>
11    0  0.3482687E-009  0.9118800E+02  0.7816531E-02  0.1126479E+00
         25   -1    0    0    0    0  0.00000000000E+00  0.00000000000E+00  0.99999998245E-14  0.12500000000E+03  0.12500000000E+03 0.  0.
    3000001    1    3    3    0    0  0.12900205637E+02 -0.10616137179E+02  0.31213278060E+02  0.35417317816E+02  0.10000000000E+01 0.  1.
    1000022    2    1    0    0    0  0.29900123984E+02 -0.19652368471E+02  0.50259496694E+02  0.62499999448E+02  0.99999961143E+01 0.  0.
    3000022    2    3    3    0    0  0.16999918348E+02 -0.90362312920E+01  0.19046218634E+02  0.27082681632E+02  0.25000062287E+00 0.  0.
    1000022    2    1    0    0    0 -0.29900123984E+02  0.19652368471E+02 -0.50259496694E+02  0.62500000552E+02  0.10000003015E+02 0.  0.
    3000022    2    5    5    0    0 -0.20355170763E+02  0.15504223367E+02 -0.41977774696E+02  0.49162078711E+02  0.24999137823E+00 0.  0.
        -13    1    4    4    0    0  0.98684913372E+01 -0.52849064435E+01  0.10997626696E+02  0.15693188820E+02  0.10500000000E+00 0.  1.
         13    1    4    4    0    0  0.71314270107E+01 -0.37513248485E+01  0.80485919377E+01  0.11389492812E+02  0.10500000000E+00 0. -1.
    3000001    1    5    5    0    0 -0.95449532216E+01  0.41481451042E+01 -0.82817219973E+01  0.13337921841E+02  0.10000000000E+01 0.  1.
        -13    1    6    6    0    0 -0.12023098364E+02  0.90805448157E+01 -0.24682884930E+02  0.28918281794E+02  0.10500000000E+00 0.  1.
         13    1    6    6    0    0 -0.83320723993E+01  0.64236785511E+01 -0.17294889766E+02  0.20243796917E+02  0.10500000000E+00 0. -1.
</event>
<event>
11    0  0.3482687E-009  0.9118800E+02  0.7816531E-02  0.1126479E+00
         25   -1    0    0    0    0  0.00000000000E+00  0.00000000000E+00  0.99999998245E-14  0.12500000000E+03  0.12500000000E+03 0.  0.
    3000001    1    3    3    0    0  0.20256496599E+02  0.32595785320E+02 -0.10482022095E+02  0.39795523144E+02  0.10000000000E+01 0. -1.
    1000022    2    1    0    0    0  0.32975498756E+02  0.47008827813E+02 -0.22561838101E+02  0.62499999927E+02  0.10000002093E+02 0.  0.
    3000022    2    3    3    0    0  0.12719002157E+02  0.14413042493E+02 -0.12079816006E+02  0.22704476783E+02  0.25000299210E+00 0.  0.
    1000022    2    1    0    0    0 -0.32975498756E+02 -0.47008827813E+02  0.22561838101E+02  0.62500000073E+02  0.10000003004E+02 0.  0.
    3000022    2    5    5    0    0 -0.75094266075E+01 -0.17822160255E+02  0.51186854765E+01  0.20007106934E+02  0.25000548959E+00 0.  0.
        -13    1    4    4    0    0  0.85404160412E+01  0.97517277201E+01 -0.81666183155E+01  0.15321213379E+02  0.10500000000E+00 0.  1.
         13    1    4    4    0    0  0.41785861158E+01  0.46613147730E+01 -0.39131976904E+01  0.73832634047E+01  0.10500000000E+00 0. -1.
    3000001    1    5    5    0    0 -0.25466072149E+02 -0.29186667558E+02  0.17443152624E+02  0.42492893138E+02  0.10000000000E+01 0. -1.
        -13    1    6    6    0    0 -0.31734129600E+01 -0.74614993095E+01  0.20853068402E+01  0.83728162155E+01  0.10500000000E+00 0. -1.
         13    1    6    6    0    0 -0.43360136475E+01 -0.10360660946E+02  0.30333786363E+01  0.11634290719E+02  0.10500000000E+00 0.  1.
</event>
<event>
11    0  0.3482687E-009  0.9118800E+02  0.7816531E-02  0.1126479E+00
         25   -1    0    0    0    0  0.00000000000E+00  0.00000000000E+00  0.99999998245E-14  0.12500000000E+03  0.12500000000E+03 0.  0.
    3000001    1    3    3    0    0  0.15733940519E+02  0.38953475507E+02 -0.11325644650E+02  0.43522412215E+02  0.10000000000E+01 0. -1.
    1000022    2    1    0    0    0  0.28073812315E+02  0.52368004068E+02 -0.16604310321E+02  0.62499999400E+02  0.10000000789E+02 0.  0.
    3000022    2    3    3    0    0  0.12339871797E+02  0.13414528562E+02 -0.52786656704E+01  0.18977587185E+02  0.24998321467E+00 0.  0.
    1000022    2    1    0    0    0 -0.28073812315E+02 -0.52368004068E+02  0.16604310321E+02  0.62500000600E+02  0.10000008286E+02 0.  0.
    3000022    2    5    5    0    0 -0.21976374220E+02 -0.30988391142E+02  0.10979554866E+02  0.39545600713E+02  0.25000260945E+00 0.  0.
        -13    1    4    4    0    0  0.86622893617E+01  0.94592826159E+01 -0.37500351406E+01  0.13363647449E+02  0.10500000000E+00 0.  1.
         13    1    4    4    0    0  0.36775824350E+01  0.39552459459E+01 -0.15286305298E+01  0.56139397356E+01  0.10500000000E+00 0. -1.
    3000001    1    5    5    0    0 -0.60974380949E+01 -0.21379612927E+02  0.56247554551E+01  0.22954399886E+02  0.10000000000E+01 0.  1.
        -13    1    6    6    0    0 -0.14855861629E+02 -0.20870578194E+02  0.74313081984E+01  0.26674201495E+02  0.10500000000E+00 0.  1.
         13    1    6    6    0    0 -0.71205125918E+01 -0.10117812948E+02  0.35482466672E+01  0.12871399218E+02  0.10500000000E+00 0. -1.
</event>
<event>
11    0  0.3482687E-009  0.9118800E+02  0.7816531E-02  0.1126479E+00
         25   -1    0    0    0    0  0.00000000000E+00  0.00000000000E+00  0.99999998245E-14  0.12500000000E+03  0.12500000000E+03 0.  0.
    3000001    1    3    3    0    0 -0.22670764077E+02  0.30756718431E+02  0.20044228059E+02  0.43159128246E+02  0.10000000000E+01 0.  1.
    1000022    2    1    0    0    0 -0.37479086138E+02  0.39823468351E+02  0.28559761011E+02  0.62499995819E+02  0.99999499519E+01 0.  0.
    3000022    2    3    3    0    0 -0.14808322061E+02  0.90667499201E+01  0.85155329529E+01  0.19340867572E+02  0.25000123752E+00 0.  0.
    1000022    2    1    0    0    0  0.37479086138E+02 -0.39823468351E+02 -0.28559761011E+02  0.62500004181E+02  0.10000002219E+02 0.  0.
    3000022    2    5    5    0    0  0.18271591738E+02 -0.15847976226E+02 -0.17414237279E+02  0.29804824674E+02  0.24999744239E+00 0.  0.
        -13    1    4    4    0    0 -0.72308059466E+01  0.45066798195E+01  0.41806849786E+01  0.94912522632E+01  0.10500000000E+00 0. -1.
         13    1    4    4    0    0 -0.75775161141E+01  0.45600701005E+01  0.43348479743E+01  0.98496153093E+01  0.10500000000E+00 0.  1.
    3000001    1    5    5    0    0  0.19207494399E+02 -0.23975492126E+02 -0.11145523733E+02  0.32695179508E+02  0.10000000000E+01 0. -1.
        -13    1    6    6    0    0  0.73271193332E+01 -0.63376987749E+01 -0.68992086410E+01  0.11893830685E+02  0.10500000000E+00 0. -1.
         13    1    6    6    0    0  0.10944472405E+02 -0.95102774510E+01 -0.10515028638E+02  0.17910993989E+02  0.10500000000E+00 0.  1.
</event>
<event>
11    0  0.3482687E-009  0.9118800E+02  0.7816531E-02  0.1126479E+00
         25   -1    0    0    0    0  0.00000000000E+00  0.00000000000E+00  0.99999998245E-14  0.12500000000E+03  0.12500000000E+03 0.  0.
    3000001    1    3    3    0    0  0.23427953440E+01  0.25257279090E+01  0.38069268106E+01  0.52307440423E+01  0.10000000000E+01 0. -1.
    1000022    2    1    0    0    0  0.51311574454E+02  0.17279263277E+02  0.29577007789E+02  0.62500000277E+02  0.10000001623E+02 0.  0.
    3000022    2    3    3    0    0  0.48968779110E+02  0.14753535368E+02  0.25770080979E+02  0.57269256235E+02  0.25000521231E+00 0.  0.
    1000022    2    1    0    0    0 -0.51311574454E+02 -0.17279263277E+02 -0.29577007789E+02  0.62499999723E+02  0.99999981633E+01 0.  0.
    3000022    2    5    5    0    0 -0.42938805960E+02 -0.11646689611E+02 -0.26979526691E+02  0.52032141948E+02  0.24999797717E+00 0.  0.
        -13    1    4    4    0    0  0.24154774302E+02  0.72077394949E+01  0.12688147974E+02  0.28220644114E+02  0.10500000000E+00 0. -1.
         13    1    4    4    0    0  0.24814004808E+02  0.75457958726E+01  0.13081933005E+02  0.29048612120E+02  0.10500000000E+00 0.  1.
    3000001    1    5    5    0    0 -0.83727684940E+01 -0.56325736657E+01 -0.25974810980E+01  0.10467857776E+02  0.10000000000E+01 0.  1.
        -13    1    6    6    0    0 -0.20703204130E+02 -0.56593508048E+01 -0.13077099372E+02  0.25133095030E+02  0.10500000000E+00 0. -1.
         13    1    6    6    0    0 -0.22235601830E+02 -0.59873388062E+01 -0.13902427320E+02  0.26899046918E+02  0.10500000000E+00 0.  1.
</event>
<event>
11    0  0.3482687E-009  0.9118800E+02  0.7816531E-02  0.1126479E+00
         25   -1    0    0    0    0  0.00000000000E+00  0.00000000000E+00  0.99999998245E-14  0.12500000000E+03  0.12500000000E+03 0.  0.
    3000001    1    3    3    0    0  0.25743531176E+02  0.29311397577E+02 -0.92421816988E+01  0.40103682473E+02  0.10000000000E+01 0. -1.
    1000022    2    1    0    0    0  0.39658578272E+02  0.46725385518E+02 -0.70841727585E+01  0.62499999526E+02  0.99999977346E+01 0.  0.
    3000022    2    3    3    0    0  0.13915047096E+02  0.17413987942E+02  0.21580089404E+01  0.22396317053E+02  0.25000651434E+00 0.  0.
    1000022    2    1    0    0    0 -0.39658578272E+02 -0.46725385518E+02  0.70841727585E+01  0.62500000474E+02  0.10000003658E+02 0.  0.
    3000022    2    5    5    0    0 -0.27706250767E+02 -0.38807605597E+02  0.44739337222E+01  0.47893059675E+02  0.24999673951E+00 0.  0.
        -13    1    4    4    0    0  0.66643204435E+01  0.82329701189E+01  0.10351188842E+01  0.10643188435E+02  0.10500000000E+00 0.  1.
         13    1    4    4    0    0  0.72507266522E+01  0.91810178226E+01  0.11228900562E+01  0.11753128618E+02  0.10500000000E+00 0. -1.
    3000001    1    5    5    0    0 -0.11952327505E+02 -0.79177799219E+01  0.26102390362E+01  0.14606940799E+02  0.10000000000E+01 0. -1.
        -13    1    6    6    0    0 -0.15950264134E+02 -0.22355679337E+02  0.26415505319E+01  0.27589420776E+02  0.10500000000E+00 0. -1.
         13    1    6    6    0    0 -0.11755986633E+02 -0.16451926260E+02  0.18323831904E+01  0.20303638899E+02  0.10500000000E+00 0.  1.
</event>
<event>
11    0  0.3482687E-009  0.9118800E+02  0.7816531E-02  0.1126479E+00
         25   -1    0    0    0    0  0.00000000000E+00  0.00000000000E+00  0.99999998245E-14  0.12500000000E+03  0.12500000000E+03 0.  0.
    3000001    1    3    3    0    0  0.59337558873E+01 -0.10595184062E+01 -0.23964659157E+02  0.24731294480E+02  0.10000000000E+01 0.  1.
    1000022    2    1    0    0    0  0.14815218343E+02 -0.14614830869E+02 -0.58078961837E+02  0.62499998715E+02  0.10000002775E+02 0.  0.
    3000022    2    3    3    0    0  0.88814624553E+01 -0.13555312463E+02 -0.34114302680E+02  0.37768704235E+02  0.25000182532E+00 0.  0.
    1000022    2    1    0    0    0 -0.14815218343E+02  0.14614830869E+02  0.58078961837E+02  0.62500001285E+02  0.10000018834E+02 0.  0.
    3000022    2    5    5    0    0 -0.14296306677E+02  0.12322347337E+02  0.39865986454E+02  0.44108774508E+02  0.24996833122E+00 0.  0.
        -13    1    4    4    0    0  0.45576585475E+01 -0.70661278940E+01 -0.17628271011E+02  0.19531241095E+02  0.10500000000E+00 0. -1.
         13    1    4    4    0    0  0.43238039077E+01 -0.64891845693E+01 -0.16486031669E+02  0.18237463140E+02  0.10500000000E+00 0.  1.
    3000001    1    5    5    0    0 -0.51891166604E+00  0.22924835328E+01  0.18212975383E+02  0.18391226777E+02  0.10000000000E+01 0. -1.
        -13    1    6    6    0    0 -0.59556149161E+01  0.51605146013E+01  0.16502628161E+02  0.18287920090E+02  0.10500000000E+00 0.  1.
         13    1    6    6    0    0 -0.83406917605E+01  0.71618327353E+01  0.23363358293E+02  0.25820854418E+02  0.10500000000E+00 0. -1.
</event>
<event>
11    0  0.3482687E-009  0.9118800E+02  0.7816531E-02  0.1126479E+00
         25   -1    0    0    0    0  0.00000000000E+00  0.00000000000E+00  0.99999998245E-14  0.12500000000E+03  0.12500000000E+03 0.  0.
    3000001    1    3    3    0    0 -0.32813451538E+01  0.16346383721E+01  0.59349396105E-01  0.38003672160E+01  0.10000000000E+01 0. -1.
    1000022    2    1    0    0    0 -0.36406370527E+02  0.40286631497E+02  0.29288454409E+02  0.62500000576E+02  0.10000000896E+02 0.  0.
    3000022    2    3    3    0    0 -0.33125025373E+02  0.38651993125E+02  0.29229105013E+02  0.58699633359E+02  0.24999631499E+00 0.  0.
    1000022    2    1    0    0    0  0.36406370527E+02 -0.40286631497E+02 -0.29288454409E+02  0.62499999424E+02  0.99999937020E+01 0.  0.
    3000022    2    5    5    0    0  0.12876536235E+02 -0.21359464556E+02 -0.11837327201E+02  0.27608272740E+02  0.24999372226E+00 0.  0.
        -13    1    4    4    0    0 -0.11948783736E+02  0.13855169088E+02  0.10519036705E+02  0.21104509030E+02  0.10500000000E+00 0. -1.
         13    1    4    4    0    0 -0.21176241637E+02  0.24796824037E+02  0.18710068308E+02  0.37595124329E+02  0.10500000000E+00 0.  1.
    3000001    1    5    5    0    0  0.23529834292E+02 -0.18927166941E+02 -0.17451127208E+02  0.34891726684E+02  0.10000000000E+01 0.  1.
        -13    1    6    6    0    0  0.89373704184E+01 -0.14857354644E+02 -0.82776993795E+01  0.19213248268E+02  0.10500000000E+00 0. -1.
         13    1    6    6    0    0  0.39391658170E+01 -0.65021099129E+01 -0.35596278219E+01  0.83950244719E+01  0.10500000000E+00 0.  1.
</event>
<event>
11    0  0.3482687E-009  0.9118800E+02  0.7816531E-02  0.1126479E+00
         25   -1    0    0    0    0  0.00000000000E+00  0.00000000000E+00  0.99999998245E-14  0.12500000000E+03  0.12500000000E+03 0.  0.
    3000001    1    3    3    0    0 -0.20333895539E+02 -0.17596568925E+02 -0.14879431472E+01  0.26950334330E+02  0.10000000000E+01 0. -1.
    1000022    2    1    0    0    0 -0.52649691063E+02 -0.31444629560E+02 -0.67450151312E+01  0.62499999992E+02  0.10000003633E+02 0.  0.
    3000022    2    3    3    0    0 -0.32315795524E+02 -0.13848060635E+02 -0.52570719840E+01  0.35549665661E+02  0.24999816261E+00 0.  0.
    1000022    2    1    0    0    0  0.52649691063E+02  0.31444629560E+02  0.67450151312E+01  0.62500000008E+02  0.10000003739E+02 0.  0.
    3000022    2    5    5    0    0  0.33469291333E+02  0.16116639328E+02  0.75754409577E+01  0.37912917518E+02  0.24996690582E+00 0.  0.
        -13    1    4    4    0    0 -0.15520674587E+02 -0.65851785694E+01 -0.24903836033E+01  0.17043149706E+02  0.10500000000E+00 0. -1.
         13    1    4    4    0    0 -0.16795120937E+02 -0.72628820659E+01 -0.27666883808E+01  0.18506515955E+02  0.10500000000E+00 0.  1.
    3000001    1    5    5    0    0  0.19180399730E+02  0.15327990232E+02 -0.83042582644E+00  0.24587082491E+02  0.10000000000E+01 0.  1.
        -13    1    6    6    0    0  0.22981405099E+02  0.11063735612E+02  0.51511678458E+01  0.26021083397E+02  0.10500000000E+00 0. -1.
         13    1    6    6    0    0  0.10487886234E+02  0.50529037160E+01  0.24242731118E+01  0.11891834120E+02  0.10500000000E+00 0.  1.
</event>
<event>
11    0  0.3482687E-009  0.9118800E+02  0.7816531E-02  0.1126479E+00
         25   -1    0    0    0    0  0.00000000000E+00  0.00000000000E+00  0.99999998245E-14  0.12500000000E+03  0.12500000000E+03 0.  0.
    3000001    1    3    3    0    0 -0.14595291782E+01 -0.20290746602E+01 -0.34442206124E+01  0.43715014612E+01  0.10000000000E+01 0.  1.
    1000022    2    1    0    0    0 -0.42836736454E+02 -0.38923563111E+01 -0.44227973545E+02  0.62499998023E+02  0.99999840609E+01 0.  0.
    3000022    2    3    3    0    0 -0.41377207276E+02 -0.18632816509E+01 -0.40783752933E+02  0.58128496561E+02  0.25001747319E+00 0.  0.
    1000022    2    1    0    0    0  0.42836736454E+02  0.38923563111E+01  0.44227973545E+02  0.62500001977E+02  0.10000008780E+02 0.  0.
    3000022    2    5    5    0    0  0.14815636744E+02  0.18004766059E+01  0.22340441805E+02  0.26868245982E+02  0.24998791446E+00 0.  0.
        -13    1    4    4    0    0 -0.15725150254E+02 -0.67265277414E+00 -0.15567628896E+02  0.22138087241E+02  0.10500000000E+00 0. -1.
         13    1    4    4    0    0 -0.25652057022E+02 -0.11906288767E+01 -0.25216124037E+02  0.35990409320E+02  0.10500000000E+00 0.  1.
    3000001    1    5    5    0    0  0.28021099710E+02  0.20918797052E+01  0.21887531740E+02  0.35631755996E+02  0.10000000000E+01 0.  1.
        -13    1    6    6    0    0  0.91688502472E+01  0.11682067763E+01  0.13782495661E+02  0.16595202125E+02  0.10500000000E+00 0. -1.
         13    1    6    6    0    0  0.56467864969E+01  0.63226982964E+00  0.85579461444E+01  0.10273043857E+02  0.10500000000E+00 0.  1.
</event>
<event>
11    0  0.3482687E-009  0.9118800E+02  0.7816531E-02  0.1126479E+00
         25   -1    0    0    0    0  0.00000000000E+00  0.00000000000E+00  0.99999998245E-14  0.12500000000E+03  0.12500000000E+03 0.  0.
    3000001    1    3    3    0    0  0.57041951770E+01 -0.22178127615E+02  0.37851460540E+02  0.44250878546E+02  0.10000000000E+01 0. -1.
    1000022    2    1    0    0    0  0.12953574948E+02 -0.27265985299E+02  0.53805398172E+02  0.62499999510E+02  0.10000000402E+02 0.  0.
    3000022    2    3    3    0    0  0.72493797707E+01 -0.50878576843E+01  0.15953937632E+02  0.18249120964E+02  0.24997420504E+00 0.  0.
    1000022    2    1    0    0    0 -0.12953574948E+02  0.27265985299E+02 -0.53805398172E+02  0.62500000490E+02  0.10000006530E+02 0.  0.
    3000022    2    5    5    0    0 -0.18394563464E+01  0.24901742769E+01 -0.12744976114E+01  0.33572920826E+01  0.24999677482E+00 0.  0.
        -13    1    4    4    0    0  0.38954592713E+01 -0.28035508171E+01  0.87169561712E+01  0.99514245215E+01  0.10500000000E+00 0. -1.
         13    1    4    4    0    0  0.33539204995E+01 -0.22843068673E+01  0.72369814611E+01  0.82976964423E+01  0.10500000000E+00 0.  1.
    3000001    1    5    5    0    0 -0.11114118601E+02  0.24775811022E+02 -0.52530900560E+02  0.59142708408E+02  0.10000000000E+01 0. -1.
        -13    1    6    6    0    0 -0.43382679069E+00  0.57139011470E+00 -0.29061806309E+00  0.78113776384E+00  0.10500000000E+00 0.  1.
         13    1    6    6    0    0 -0.14056295557E+01  0.19187841622E+01 -0.98387954827E+00  0.25761543188E+01  0.10500000000E+00 0. -1.
</event>
<event>
11    0  0.3482687E-009  0.9118800E+02  0.7816531E-02  0.1126479E+00
         25   -1    0    0    0    0  0.00000000000E+00  0.00000000000E+00  0.99999998245E-14  0.12500000000E+03  0.12500000000E+03 0.  0.
    3000001    1    3    3    0    0  0.80353012882E+01  0.69468304456E+01  0.47509529146E+01  0.11678872961E+02  0.10000000000E+01 0. -1.
    1000022    2    1    0    0    0  0.31730970128E+02  0.32612387871E+02  0.41663266243E+02  0.62499999832E+02  0.99999958549E+01 0.  0.
    3000022    2    3    3    0    0  0.23695668840E+02  0.25665557425E+02  0.36912313328E+02  0.50821126872E+02  0.25000309950E+00 0.  0.
    1000022    2    1    0    0    0 -0.31730970128E+02 -0.32612387871E+02 -0.41663266243E+02  0.62500000168E+02  0.99999979512E+01 0.  0.
    3000022    2    5    5    0    0 -0.44942357230E+01 -0.26234647519E+01 -0.14455430510E+01  0.54067390100E+01  0.25001994065E+00 0.  0.
        -13    1    4    4    0    0  0.10002005541E+02  0.10751983867E+02  0.15566908640E+02  0.21400582738E+02  0.10500000000E+00 0.  1.
         13    1    4    4    0    0  0.13693663299E+02  0.14913573559E+02  0.21345404688E+02  0.29420544134E+02  0.10500000000E+00 0. -1.
    3000001    1    5    5    0    0 -0.27236734405E+02 -0.29988923119E+02 -0.40217723192E+02  0.57093261158E+02  0.10000000000E+01 0. -1.
        -13    1    6    6    0    0 -0.31842990971E+01 -0.18938516660E+01 -0.10592901250E+01  0.38548093910E+01  0.10500000000E+00 0.  1.
         13    1    6    6    0    0 -0.13099366260E+01 -0.72961308595E+00 -0.38625292593E+00  0.15519296189E+01  0.10500000000E+00 0. -1.
</event>
<event>
11    0  0.3482687E-009  0.9118800E+02  0.7816531E-02  0.1126479E+00
         25   -1    0    0    0    0  0.00000000000E+00  0.00000000000E+00  0.99999998245E-14  0.12500000000E+03  0.12500000000E+03 0.  0.
    3000001    1    3    3    0    0 -0.46706091537E+02 -0.21557810599E+02 -0.17262973243E+02  0.54269774549E+02  0.10000000000E+01 0. -1.
    1000022    2    1    0    0    0 -0.51482080359E+02 -0.25064817243E+02 -0.22969534180E+02  0.62499993438E+02  0.10000000890E+02 0.  0.
    3000022    2    3    3    0    0 -0.47759888220E+01 -0.35070066431E+01 -0.57065609373E+01  0.82302188882E+01  0.25000078678E+00 0.  0.
    1000022    2    1    0    0    0  0.51482080359E+02  0.25064817243E+02  0.22969534180E+02  0.62500006562E+02  0.10000082919E+02 0.  0.
    3000022    2    5    5    0    0  0.31958280753E+02  0.12041875430E+02  0.17528634592E+02  0.38388201303E+02  0.24999224854E+00 0.  0.
        -13    1    4    4    0    0 -0.28623750502E+01 -0.21749835415E+01 -0.34889721762E+01  0.50107580445E+01  0.10500000000E+00 0. -1.
         13    1    4    4    0    0 -0.19136137717E+01 -0.13320231016E+01 -0.22175887611E+01  0.32194608437E+01  0.10500000000E+00 0.  1.
    3000001    1    5    5    0    0  0.19523799606E+02  0.13022941813E+02  0.54408995884E+01  0.24111805259E+02  0.10000000000E+01 0.  1.
        -13    1    6    6    0    0  0.17173152083E+02  0.64690311343E+01  0.93433750349E+01  0.20593086178E+02  0.10500000000E+00 0.  1.
         13    1    6    6    0    0  0.14785128670E+02  0.55728442954E+01  0.81852595569E+01  0.17795115126E+02  0.10500000000E+00 0. -1.
</event>
<event>
11    0  0.3482687E-009  0.9118800E+02  0.7816531E-02  0.1126479E+00
         25   -1    0    0    0    0  0.00000000000E+00  0.00000000000E+00  0.99999998245E-14  0.12500000000E+03  0.12500000000E+03 0.  0.
    3000001    1    3    3    0    0 -0.13763829888E+02 -0.24625948797E+02 -0.60296906551E+01  0.28865854166E+02  0.10000000000E+01 0. -1.
    1000022    2    1    0    0    0 -0.36197191267E+02 -0.46518470197E+02 -0.18222109660E+02  0.62500000087E+02  0.10000000268E+02 0.  0.
    3000022    2    3    3    0    0 -0.22433361379E+02 -0.21892521400E+02 -0.12192419005E+02  0.33634145921E+02  0.24998928321E+00 0.  0.
    1000022    2    1    0    0    0  0.36197191267E+02  0.46518470197E+02  0.18222109660E+02  0.62499999913E+02  0.99999991769E+01 0.  0.
    3000022    2    5    5    0    0  0.10000152962E+01  0.42083305386E+01 -0.49171750481E+00  0.43605430749E+01  0.24994657280E+00 0.  0.
        -13    1    4    4    0    0 -0.55805778938E+01 -0.54111202332E+01 -0.30212574456E+01  0.83403892811E+01  0.10500000000E+00 0.  1.
         13    1    4    4    0    0 -0.16852783485E+02 -0.16481401167E+02 -0.91711615598E+01  0.25293756640E+02  0.10500000000E+00 0. -1.
    3000001    1    5    5    0    0  0.35197175971E+02  0.42310139658E+02  0.18713827165E+02  0.58139456838E+02  0.10000000000E+01 0. -1.
        -13    1    6    6    0    0  0.58751619403E+00  0.22739111883E+01 -0.31588491536E+00  0.23720572612E+01  0.10500000000E+00 0.  1.
         13    1    6    6    0    0  0.41249910213E+00  0.19344193503E+01 -0.17583258945E+00  0.19884858137E+01  0.10500000000E+00 0. -1.
</event>
<event>
11    0  0.3482687E-009  0.9118800E+02  0.7816531E-02  0.1126479E+00
         25   -1    0    0    0    0  0.00000000000E+00  0.00000000000E+00  0.99999998245E-14  0.12500000000E+03  0.12500000000E+03 0.  0.
    3000001    1    3    3    0    0  0.11375176447E+02 -0.21969276464E+01 -0.12642161566E+02  0.17176885030E+02  0.10000000000E+01 0.  1.
    1000022    2    1    0    0    0  0.27878720511E+02 -0.10857358411E+02 -0.53955022058E+02  0.62500002537E+02  0.10000031146E+02 0.  0.
    3000022    2    3    3    0    0  0.16503544064E+02 -0.86604307648E+01 -0.41312860492E+02  0.45323117507E+02  0.25002169006E+00 0.  0.
    1000022    2    1    0    0    0 -0.27878720511E+02  0.10857358411E+02  0.53955022058E+02  0.62499997463E+02  0.99999994303E+01 0.  0.
    3000022    2    5    5    0    0 -0.22967952218E+02  0.92957899584E+01  0.35357358051E+02  0.43175731687E+02  0.24999671388E+00 0.  0.
        -13    1    4    4    0    0  0.12255830469E+02 -0.64652054797E+01 -0.30715868202E+02  0.33696881856E+02  0.10500000000E+00 0. -1.
         13    1    4    4    0    0  0.42477135951E+01 -0.21952252851E+01 -0.10596992290E+02  0.11626235651E+02  0.10500000000E+00 0.  1.
    3000001    1    5    5    0    0 -0.49107682936E+01  0.15615684528E+01  0.18597664006E+02  0.19324265775E+02  0.10000000000E+01 0.  1.
        -13    1    6    6    0    0 -0.13701981765E+02  0.55327487161E+01  0.20977404188E+02  0.25659659470E+02  0.10500000000E+00 0. -1.
         13    1    6    6    0    0 -0.92659704527E+01  0.37630412423E+01  0.14379953863E+02  0.17516072218E+02  0.10500000000E+00 0.  1.
</event>
<event>
11    0  0.3482687E-009  0.9118800E+02  0.7816531E-02  0.1126479E+00
         25   -1    0    0    0    0  0.00000000000E+00  0.00000000000E+00  0.99999998245E-14  0.12500000000E+03  0.12500000000E+03 0.  0.
    3000001    1    3    3    0    0  0.10960731305E+02 -0.21130679516E+02  0.30623940642E+01  0.24021271926E+02  0.10000000000E+01 0.  1.
    1000022    2    1    0    0    0  0.17468093585E+02 -0.57702018454E+02  0.13099372662E+02  0.62499993619E+02  0.99999205577E+01 0.  0.
    3000022    2    3    3    0    0  0.65073622805E+01 -0.36571338937E+02  0.10036978598E+02  0.38478721693E+02  0.24997648304E+00 0.  0.
    1000022    2    1    0    0    0 -0.17468093585E+02  0.57702018454E+02 -0.13099372662E+02  0.62500006381E+02  0.10000000315E+02 0.  0.
    3000022    2    5    5    0    0 -0.37597375131E+01  0.19721830208E+02 -0.86582477630E+01  0.21865817380E+02  0.25000488584E+00 0.  0.
        -13    1    4    4    0    0  0.23923460368E+01 -0.13257692791E+02  0.35900716652E+01  0.13942359100E+02  0.10500000000E+00 0. -1.
         13    1    4    4    0    0  0.41150162437E+01 -0.23313646146E+02  0.64469069324E+01  0.24536362593E+02  0.10500000000E+00 0.  1.
    3000001    1    5    5    0    0 -0.13708356072E+02  0.37980188246E+02 -0.44411248987E+01  0.40634189001E+02  0.10000000000E+01 0. -1.
        -13    1    6    6    0    0 -0.19619555804E+01  0.10521916460E+02 -0.45594487941E+01  0.11634414209E+02  0.10500000000E+00 0.  1.
         13    1    6    6    0    0 -0.17977819327E+01  0.91999137483E+01 -0.40987989690E+01  0.10231403171E+02  0.10500000000E+00 0. -1.
</event>
<event>
11    0  0.3482687E-009  0.9118800E+02  0.7816531E-02  0.1126479E+00
         25   -1    0    0    0    0  0.00000000000E+00  0.00000000000E+00  0.99999998245E-14  0.12500000000E+03  0.12500000000E+03 0.  0.
    3000001    1    3    3    0    0  0.41383255015E+02  0.11642550452E+02  0.18070640900E+02  0.46644086863E+02  0.10000000000E+01 0.  1.
    1000022    2    1    0    0    0  0.56029846334E+02  0.98556588086E+01  0.23869921055E+02  0.62499993305E+02  0.99999170578E+01 0.  0.
    3000022    2    3    3    0    0  0.14646591319E+02 -0.17868916437E+01  0.57992801545E+01  0.15855906442E+02  0.24999957500E+00 0.  0.
    1000022    2    1    0    0    0 -0.56029846334E+02 -0.98556588086E+01 -0.23869921055E+02  0.62500006695E+02  0.10000000748E+02 0.  0.
    3000022    2    5    5    0    0  0.19743053887E+00  0.31759879604E+00 -0.70150934200E+00  0.83334523097E+00  0.25000220829E+00 0.  0.
        -13    1    4    4    0    0  0.10560661499E+02 -0.12542715699E+01  0.42011518180E+01  0.11435098166E+02  0.10500000000E+00 0. -1.
         13    1    4    4    0    0  0.40859298200E+01 -0.53262007379E+00  0.15981283365E+01  0.44208082765E+01  0.10500000000E+00 0.  1.
    3000001    1    5    5    0    0 -0.56227276873E+02 -0.10173257605E+02 -0.23168411713E+02  0.61666661464E+02  0.10000000000E+01 0.  1.
        -13    1    6    6    0    0  0.12707004081E+00  0.18498405178E+00 -0.28084271229E+00  0.37451772151E+00  0.10500000000E+00 0. -1.
         13    1    6    6    0    0  0.70360498063E-01  0.13261474426E+00 -0.42066662971E+00  0.45882750946E+00  0.10500000000E+00 0.  1.
</event>
<event>
11    0  0.3482687E-009  0.9118800E+02  0.7816531E-02  0.1126479E+00
         25   -1    0    0    0    0  0.00000000000E+00  0.00000000000E+00  0.99999998245E-14  0.12500000000E+03  0.12500000000E+03 0.  0.
    3000001    1    3    3    0    0  0.76888886523E+01 -0.22921922026E+02  0.33830303259E+02  0.41593544411E+02  0.10000000000E+01 0. -1.
    1000022    2    1    0    0    0  0.47317905886E+01 -0.35893670189E+02  0.49955026176E+02  0.62499999397E+02  0.99999941254E+01 0.  0.
    3000022    2    3    3    0    0 -0.29570980637E+01 -0.12971748163E+02  0.16124722917E+02  0.20906454985E+02  0.24998309593E+00 0.  0.
    1000022    2    1    0    0    0 -0.47317905886E+01  0.35893670189E+02 -0.49955026176E+02  0.62500000603E+02  0.10000001668E+02 0.  0.
    3000022    2    5    5    0    0 -0.61154439293E+01  0.25995290967E+02 -0.41601271576E+02  0.49435635954E+02  0.24999696205E+00 0.  0.
        -13    1    4    4    0    0 -0.21595518686E+01 -0.94630832533E+01  0.11819208919E+02  0.15294388951E+02  0.10500000000E+00 0.  1.
         13    1    4    4    0    0 -0.79754619504E+00 -0.35086649095E+01  0.43055139982E+01  0.56120660339E+01  0.10500000000E+00 0. -1.
    3000001    1    5    5    0    0  0.13836533406E+01  0.98983792212E+01 -0.83537546000E+01  0.13064364649E+02  0.10000000000E+01 0.  1.
        -13    1    6    6    0    0 -0.40847411197E+01  0.17144977946E+02 -0.27496963167E+02  0.32660823431E+02  0.10500000000E+00 0.  1.
         13    1    6    6    0    0 -0.20307028095E+01  0.88503130216E+01 -0.14104308410E+02  0.16774812524E+02  0.10500000000E+00 0. -1.
</event>
<event>
11    0  0.3482687E-009  0.9118800E+02  0.7816531E-02  0.1126479E+00
         25   -1    0    0    0    0  0.00000000000E+00  0.00000000000E+00  0.99999998245E-14  0.12500000000E+03  0.12500000000E+03 0.  0.
    3000001    1    3    3    0    0  0.92672059622E+01  0.36766732218E+02  0.25577474853E+02  0.45748015522E+02  0.10000000000E+01 0. -1.
    1000022    2    1    0    0    0  0.71132887623E+01  0.51581494277E+02  0.33090794517E+02  0.62499999496E+02  0.99999913201E+01 0.  0.
    3000022    2    3    3    0    0 -0.21539171999E+01  0.14814762059E+02  0.75133196637E+01  0.16751983974E+02  0.24992105639E+00 0.  0.
    1000022    2    1    0    0    0 -0.71132887623E+01 -0.51581494277E+02 -0.33090794517E+02  0.62500000504E+02  0.99999976192E+01 0.  0.
    3000022    2    5    5    0    0 -0.62415290310E+00 -0.28806185135E+02 -0.13845119485E+02  0.31967729083E+02  0.25000054461E+00 0.  0.
        -13    1    4    4    0    0 -0.56892547564E+00  0.38554359197E+01  0.19905930314E+01  0.43773905405E+01  0.10500000000E+00 0.  1.
         13    1    4    4    0    0 -0.15849917242E+01  0.10959326139E+02  0.55227266323E+01  0.12374593434E+02  0.10500000000E+00 0. -1.
    3000001    1    5    5    0    0 -0.64891358592E+01 -0.22775309142E+02 -0.19245675032E+02  0.30532271421E+02  0.10000000000E+01 0.  1.
        -13    1    6    6    0    0 -0.16541744778E+00 -0.96368636046E+01 -0.46666919484E+01  0.10709133569E+02  0.10500000000E+00 0.  1.
         13    1    6    6    0    0 -0.45873545532E+00 -0.19169321531E+02 -0.91784275365E+01  0.21258595514E+02  0.10500000000E+00 0. -1.
</event>
<event>
11    0  0.3482687E-009  0.9118800E+02  0.7816531E-02  0.1126479E+00
         25   -1    0    0    0    0  0.00000000000E+00  0.00000000000E+00  0.99999998245E-14  0.12500000000E+03  0.12500000000E+03 0.  0.
    3000001    1    3    3    0    0  0.32870862163E+02 -0.67535596446E+01 -0.15155395561E+02  0.36834632641E+02  0.10000000000E+01 0. -1.
    1000022    2    1    0    0    0  0.51864317104E+02 -0.18418334704E+02 -0.27876652077E+02  0.62500001896E+02  0.10000003202E+02 0.  0.
    3000022    2    3    3    0    0  0.18993454941E+02 -0.11664775059E+02 -0.12721256517E+02  0.25665369255E+02  0.25000769447E+00 0.  0.
    1000022    2    1    0    0    0 -0.51864317104E+02  0.18418334704E+02  0.27876652077E+02  0.62499998104E+02  0.99999795006E+01 0.  0.
    3000022    2    5    5    0    0 -0.75016653135E+01  0.48362431030E+01  0.13015967248E+01  0.90233522374E+01  0.25000347697E+00 0.  0.
        -13    1    4    4    0    0  0.11675951717E+02 -0.71351226322E+01 -0.78710501668E+01  0.15786141999E+02  0.10500000000E+00 0. -1.
         13    1    4    4    0    0  0.73175032240E+01 -0.45296524269E+01 -0.48502063497E+01  0.98792272560E+01  0.10500000000E+00 0.  1.
    3000001    1    5    5    0    0 -0.44362651791E+02  0.13582091601E+02  0.26575055352E+02  0.53476645867E+02  0.10000000000E+01 0.  1.
        -13    1    6    6    0    0 -0.52270870714E+01  0.33132311145E+01  0.90344050172E+00  0.62551714133E+01  0.10500000000E+00 0. -1.
         13    1    6    6    0    0 -0.22745782422E+01  0.15230119885E+01  0.39815622309E+00  0.27681808241E+01  0.10500000000E+00 0.  1.
</event>
<event>
11    0  0.3482687E-009  0.9118800E+02  0.7816531E-02  0.1126479E+00
         25   -1    0    0    0    0  0.00000000000E+00  0.00000000000E+00  0.99999998245E-14  0.12500000000E+03  0.12500000000E+03 0.  0.
    3000001    1    3    3    0    0 -0.38697980124E+01 -0.14151001741E+02  0.55805456659E+01  0.15727958445E+02  0.10000000000E+01 0.  1.
    1000022    2    1    0    0    0 -0.29567665486E+02 -0.52338258181E+02  0.13882006295E+02  0.62499998283E+02  0.99999787492E+01 0.  0.
    3000022    2    3    3    0    0 -0.25697867473E+02 -0.38187256440E+02  0.83014606288E+01  0.46772039838E+02  0.25002992810E+00 0.  0.
    1000022    2    1    0    0    0  0.29567665486E+02  0.52338258181E+02 -0.13882006295E+02  0.62500001717E+02  0.10000000206E+02 0.  0.
    3000022    2    5    5    0    0  0.22692051496E+00 -0.18245736645E+00  0.50560114510E+00  0.63476006274E+00  0.25000841714E+00 0.  0.
        -13    1    4    4    0    0 -0.15514827020E+02 -0.23034152987E+02  0.49461288800E+01  0.28209170091E+02  0.10500000000E+00 0.  1.
         13    1    4    4    0    0 -0.10183040453E+02 -0.15153103453E+02  0.33553317488E+01  0.18562869747E+02  0.10500000000E+00 0. -1.
    3000001    1    5    5    0    0  0.29340744971E+02  0.52520715547E+02 -0.14387607440E+02  0.61865241654E+02  0.10000000000E+01 0. -1.
        -13    1    6    6    0    0  0.11001100827E+00 -0.16503390535E+00  0.27102933736E+00  0.35188139133E+00  0.10500000000E+00 0.  1.
         13    1    6    6    0    0  0.11690950669E+00 -0.17423461099E-01  0.23457180774E+00  0.28287867141E+00  0.10500000000E+00 0. -1.
</event>
<event>
11    0  0.3482687E-009  0.9118800E+02  0.7816531E-02  0.1126479E+00
         25   -1    0    0    0    0  0.00000000000E+00  0.00000000000E+00  0.99999998245E-14  0.12500000000E+03  0.12500000000E+03 0.  0.
    3000001    1    3    3    0    0  0.20023762171E+02 -0.45678983186E+02 -0.21725446868E+02  0.54410620268E+02  0.10000000000E+01 0. -1.
    1000022    2    1    0    0    0  0.20130202037E+02 -0.53698935322E+02 -0.22747512970E+02  0.62500000516E+02  0.10000001472E+02 0.  0.
    3000022    2    3    3    0    0  0.10643986637E+00 -0.80199521359E+01 -0.10220661026E+01  0.80893802480E+01  0.24998394058E+00 0.  0.
    1000022    2    1    0    0    0 -0.20130202037E+02  0.53698935322E+02  0.22747512970E+02  0.62499999484E+02  0.99999950198E+01 0.  0.
    3000022    2    5    5    0    0 -0.13418107613E+02  0.45819475844E+02  0.19836868940E+02  0.51701391152E+02  0.24999846083E+00 0.  0.
        -13    1    4    4    0    0  0.52048019563E-01 -0.27783017592E+01 -0.40849289438E+00  0.28106157878E+01  0.10500000000E+00 0.  1.
         13    1    4    4    0    0  0.54391846809E-01 -0.52416503767E+01 -0.61357320819E+00  0.52787644602E+01  0.10500000000E+00 0. -1.
    3000001    1    5    5    0    0 -0.67120944244E+01  0.78794594780E+01  0.29106440304E+01  0.10798608332E+02  0.10000000000E+01 0.  1.
        -13    1    6    6    0    0 -0.39471975788E+01  0.13426721851E+02  0.58595939284E+01  0.15172445234E+02  0.10500000000E+00 0.  1.
         13    1    6    6    0    0 -0.94709100338E+01  0.32392753993E+02  0.13977275012E+02  0.36528945918E+02  0.10500000000E+00 0. -1.
</event>
<event>
11    0  0.3482687E-009  0.9118800E+02  0.7816531E-02  0.1126479E+00
         25   -1    0    0    0    0  0.00000000000E+00  0.00000000000E+00  0.99999998245E-14  0.12500000000E+03  0.12500000000E+03 0.  0.
    3000001    1    3    3    0    0  0.27808871212E+00 -0.33247437574E+01  0.20275779836E+00  0.34888916734E+01  0.10000000000E+01 0. -1.
    1000022    2    1    0    0    0  0.34979710885E+02 -0.46187370288E+02  0.21198974843E+02  0.62500000500E+02  0.10000009021E+02 0.  0.
    3000022    2    3    3    0    0  0.34701622173E+02 -0.42862626530E+02  0.20996217045E+02  0.59011108827E+02  0.25000051761E+00 0.  0.
    1000022    2    1    0    0    0 -0.34979710885E+02  0.46187370288E+02 -0.21198974843E+02  0.62499999500E+02  0.10000002770E+02 0.  0.
    3000022    2    5    5    0    0 -0.23379647906E+02  0.31102140269E+02 -0.19049893348E+02  0.43323342411E+02  0.24999116169E+00 0.  0.
        -13    1    4    4    0    0  0.24888004121E+02 -0.30676332746E+02  0.15043605161E+02  0.42270216715E+02  0.10500000000E+00 0.  1.
         13    1    4    4    0    0  0.98136180523E+01 -0.12186293784E+02  0.59526118842E+01  0.16740892112E+02  0.10500000000E+00 0. -1.
    3000001    1    5    5    0    0 -0.11600062979E+02  0.15085230019E+02 -0.21490814956E+01  0.19176657089E+02  0.10000000000E+01 0. -1.
        -13    1    6    6    0    0 -0.15673535503E+02  0.20783732382E+02 -0.12783117732E+02  0.29000730522E+02  0.10500000000E+00 0.  1.
         13    1    6    6    0    0 -0.77061124037E+01  0.10318407887E+02 -0.62667756160E+01  0.14322611889E+02  0.10500000000E+00 0. -1.
</event>
<event>
11    0  0.3482687E-009  0.9118800E+02  0.7816531E-02  0.1126479E+00
         25   -1    0    0    0    0  0.00000000000E+00  0.00000000000E+00  0.99999998245E-14  0.12500000000E+03  0.12500000000E+03 0.  0.
    3000001    1    3    3    0    0  0.18963727366E+02  0.30460732613E+02  0.27489988952E+02  0.45212594257E+02  0.10000000000E+01 0.  1.
    1000022    2    1    0    0    0  0.20366928298E+02  0.42505680656E+02  0.39808356190E+02  0.62500000544E+02  0.10000009458E+02 0.  0.
    3000022    2    3    3    0    0  0.14032009324E+01  0.12044948043E+02  0.12318367238E+02  0.17287406287E+02  0.24999699284E+00 0.  0.
    1000022    2    1    0    0    0 -0.20366928298E+02 -0.42505680656E+02 -0.39808356190E+02  0.62499999456E+02  0.10000002660E+02 0.  0.
    3000022    2    5    5    0    0 -0.18802298781E+02 -0.38648859141E+02 -0.39208592064E+02  0.58177632659E+02  0.24999560569E+00 0.  0.
        -13    1    4    4    0    0  0.84423775320E+00  0.73338925951E+01  0.74112247133E+01  0.10461166031E+02  0.10500000000E+00 0. -1.
         13    1    4    4    0    0  0.55896317922E+00  0.47110554480E+01  0.49071425247E+01  0.68262402556E+01  0.10500000000E+00 0.  1.
    3000001    1    5    5    0    0 -0.15646295171E+01 -0.38568215147E+01 -0.59976412532E+00  0.43223667970E+01  0.10000000000E+01 0.  1.
        -13    1    6    6    0    0 -0.97759174372E+01 -0.20222879459E+02 -0.20541990839E+02  0.30438755362E+02  0.10500000000E+00 0.  1.
         13    1    6    6    0    0 -0.90263813437E+01 -0.18425979682E+02 -0.18666601225E+02  0.27738877297E+02  0.10500000000E+00 0. -1.
</event>
<event>
11    0  0.3482687E-009  0.9118800E+02  0.7816531E-02  0.1126479E+00
         25   -1    0    0    0    0  0.00000000000E+00  0.00000000000E+00  0.99999998245E-14  0.12500000000E+03  0.12500000000E+03 0.  0.
    3000001    1    3    3    0    0  0.17269141665E+01  0.86455476099E+01  0.92086554258E+01  0.12787769968E+02  0.10000000000E+01 0. -1.
    1000022    2    1    0    0    0 -0.32681685348E+01  0.51896801653E+02  0.33200767845E+02  0.62499999677E+02  0.10000001337E+02 0.  0.
    3000022    2    3    3    0    0 -0.49950827013E+01  0.43251254043E+02  0.23992112419E+02  0.49712229709E+02  0.24999352779E+00 0.  0.
    1000022    2    1    0    0    0  0.32681685348E+01 -0.51896801653E+02 -0.33200767845E+02  0.62500000323E+02  0.10000005375E+02 0.  0.
    3000022    2    5    5    0    0  0.11043668453E+01 -0.45163986153E+02 -0.31731017408E+02  0.55208017832E+02  0.24999156371E+00 0.  0.
        -13    1    4    4    0    0 -0.24079045881E+01  0.21433402750E+02  0.11873192193E+02  0.24620570176E+02  0.10500000000E+00 0.  1.
         13    1    4    4    0    0 -0.25871781132E+01  0.21817851293E+02  0.12118920227E+02  0.25091659533E+02  0.10500000000E+00 0. -1.
    3000001    1    5    5    0    0  0.21638016895E+01 -0.67328154996E+01 -0.14697504369E+01  0.72919824911E+01  0.10000000000E+01 0. -1.
        -13    1    6    6    0    0  0.49983407945E+00 -0.18075686457E+02 -0.12669826375E+02  0.22079759971E+02  0.10500000000E+00 0.  1.
         13    1    6    6    0    0  0.60453276590E+00 -0.27088299696E+02 -0.19061191034E+02  0.33128257861E+02  0.10500000000E+00 0. -1.
</event>
<event>
11    0  0.3482687E-009  0.9118800E+02  0.7816531E-02  0.1126479E+00
         25   -1    0    0    0    0  0.00000000000E+00  0.00000000000E+00  0.99999998245E-14  0.12500000000E+03  0.12500000000E+03 0.  0.
    3000001    1    3    3    0    0  0.30131434554E+02  0.15314333119E+02  0.56891459892E+01  0.34289918770E+02  0.10000000000E+01 0. -1.
    1000022    2    1    0    0    0  0.49468269296E+02  0.34230640880E+02  0.13689526030E+02  0.62499995842E+02  0.99999957555E+01 0.  0.
    3000022    2    3    3    0    0  0.19336834742E+02  0.18916307761E+02  0.80003800404E+01  0.28210077072E+02  0.24998091801E+00 0.  0.
    1000022    2    1    0    0    0 -0.49468269296E+02 -0.34230640880E+02 -0.13689526030E+02  0.62500004158E+02  0.10000047731E+02 0.  0.
    3000022    2    5    5    0    0 -0.23471719828E+02 -0.19482482593E+02 -0.26412024501E+01  0.30619066107E+02  0.24999839928E+00 0.  0.
        -13    1    4    4    0    0  0.14448401172E+02  0.14140431100E+02  0.60076169666E+01  0.21090532823E+02  0.10500000000E+00 0.  1.
         13    1    4    4    0    0  0.48884335704E+01  0.47758766604E+01  0.19927630738E+01  0.71195442492E+01  0.10500000000E+00 0. -1.
    3000001    1    5    5    0    0 -0.25996549468E+02 -0.14748158287E+02 -0.11048323580E+02  0.31880938051E+02  0.10000000000E+01 0. -1.
        -13    1    6    6    0    0 -0.14074941092E+02 -0.11763796748E+02 -0.15967327488E+01  0.18413350079E+02  0.10500000000E+00 0. -1.
         13    1    6    6    0    0 -0.93967787367E+01 -0.77186858446E+01 -0.10444697012E+01  0.12205716028E+02  0.10500000000E+00 0.  1.
</event>
<event>
11    0  0.3482687E-009  0.9118800E+02  0.7816531E-02  0.1126479E+00
         25   -1    0    0    0    0  0.00000000000E+00  0.00000000000E+00  0.99999998245E-14  0.12500000000E+03  0.12500000000E+03 0.  0.
    3000001    1    3    3    0    0 -0.10522539386E+02 -0.31926558450E+02  0.30256182202E+02  0.45237877172E+02  0.10000000000E+01 0. -1.
    1000022    2    1    0    0    0 -0.16838935335E+02 -0.46634004417E+02  0.36714710011E+02  0.62500000572E+02  0.10000001459E+02 0.  0.
    3000022    2    3    3    0    0 -0.63163959488E+01 -0.14707445966E+02  0.64585278088E+01  0.17262123400E+02  0.24999635596E+00 0.  0.
    1000022    2    1    0    0    0  0.16838935335E+02  0.46634004417E+02 -0.36714710011E+02  0.62499999428E+02  0.99999943070E+01 0.  0.
    3000022    2    5    5    0    0  0.10291968078E+02  0.22117165496E+02 -0.23493707105E+02  0.33869018153E+02  0.25000124785E+00 0.  0.
        -13    1    4    4    0    0 -0.19058031177E+01 -0.45559857288E+01  0.20049615279E+01  0.53310399748E+01  0.10500000000E+00 0.  1.
         13    1    4    4    0    0 -0.44105928311E+01 -0.10151460238E+02  0.44535662809E+01  0.11931083425E+02  0.10500000000E+00 0. -1.
    3000001    1    5    5    0    0  0.65469672573E+01  0.24516838920E+02 -0.13221002906E+02  0.28630981275E+02  0.10000000000E+01 0. -1.
        -13    1    6    6    0    0  0.76106703636E+01  0.16422250290E+02 -0.17414681837E+02  0.25117618845E+02  0.10500000000E+00 0.  1.
         13    1    6    6    0    0  0.26812977140E+01  0.56949152061E+01 -0.60790252679E+01  0.87513993077E+01  0.10500000000E+00 0. -1.
</event>
<event>
11    0  0.3482687E-009  0.9118800E+02  0.7816531E-02  0.1126479E+00
         25   -1    0    0    0    0  0.00000000000E+00  0.00000000000E+00  0.99999998245E-14  0.12500000000E+03  0.12500000000E+03 0.  0.
    3000001    1    3    3    0    0 -0.98422702462E+01  0.36895908716E+02  0.81782927387E+01  0.39064854226E+02  0.10000000000E+01 0. -1.
    1000022    2    1    0    0    0 -0.12305142500E+02  0.57160000480E+02  0.19686742397E+02  0.62500000411E+02  0.10000001919E+02 0.  0.
    3000022    2    3    3    0    0 -0.24628722535E+01  0.20264091764E+02  0.11508449658E+02  0.23435146185E+02  0.25001685394E+00 0.  0.
    1000022    2    1    0    0    0  0.12305142500E+02 -0.57160000480E+02 -0.19686742397E+02  0.62499999589E+02  0.99999967781E+01 0.  0.
    3000022    2    5    5    0    0 -0.12962225232E+01 -0.19498396569E+01 -0.11775763418E+00  0.23576338782E+01  0.25000625231E+00 0.  0.
        -13    1    4    4    0    0 -0.75613547296E+00  0.62769666062E+01  0.36196882585E+01  0.72859603841E+01  0.10500000000E+00 0.  1.
         13    1    4    4    0    0 -0.17067367805E+01  0.13987125158E+02  0.78887613997E+01  0.16149185801E+02  0.10500000000E+00 0. -1.
    3000001    1    5    5    0    0  0.13601365023E+02 -0.55210160823E+02 -0.19568984763E+02  0.60142365711E+02  0.10000000000E+01 0.  1.
        -13    1    6    6    0    0 -0.69720053925E+00 -0.11639025792E+01 -0.80465441401E-01  0.13631791860E+01  0.10500000000E+00 0. -1.
         13    1    6    6    0    0 -0.59902198391E+00 -0.78593707767E+00 -0.37292192775E-01  0.99445469223E+00  0.10500000000E+00 0.  1.
</event>
<event>
11    0  0.3482687E-009  0.9118800E+02  0.7816531E-02  0.1126479E+00
         25   -1    0    0    0    0  0.00000000000E+00  0.00000000000E+00  0.99999998245E-14  0.12500000000E+03  0.12500000000E+03 0.  0.
    3000001    1    3    3    0    0  0.39964571725E+01 -0.35740857614E+01  0.63055585778E+01  0.83370155295E+01  0.10000000000E+01 0.  1.
    1000022    2    1    0    0    0  0.41582851111E+02 -0.36106261702E+02  0.27811057083E+02  0.62499995980E+02  0.99999480379E+01 0.  0.
    3000022    2    3    3    0    0  0.37586393939E+02 -0.32532175941E+02  0.21505498505E+02  0.54162980450E+02  0.25000908827E+00 0.  0.
    1000022    2    1    0    0    0 -0.41582851111E+02  0.36106261702E+02 -0.27811057083E+02  0.62500004020E+02  0.99999982892E+01 0.  0.
    3000022    2    5    5    0    0 -0.40011503231E+02  0.36031789452E+02 -0.25638239885E+02  0.59637170659E+02  0.25007573416E+00 0.  0.
        -13    1    4    4    0    0  0.13692483512E+02 -0.11925211082E+02  0.78754258357E+01  0.19792122704E+02  0.10500000000E+00 0.  1.
         13    1    4    4    0    0  0.23893910427E+02 -0.20606964859E+02  0.13630072669E+02  0.34370857746E+02  0.10500000000E+00 0. -1.
    3000001    1    5    5    0    0 -0.15713478801E+01  0.74472250015E-01 -0.21728171983E+01  0.28628333612E+01  0.10000000000E+01 0. -1.
        -13    1    6    6    0    0 -0.20160670402E+02  0.18165709649E+02 -0.12846960355E+02  0.30025007135E+02  0.10500000000E+00 0. -1.
         13    1    6    6    0    0 -0.19850832830E+02  0.17866079803E+02 -0.12791279530E+02  0.29612163524E+02  0.10500000000E+00 0.  1.
</event>
<event>
11    0  0.3482687E-009  0.9118800E+02  0.7816531E-02  0.1126479E+00
         25   -1    0    0    0    0  0.00000000000E+00  0.00000000000E+00  0.99999998245E-14  0.12500000000E+03  0.12500000000E+03 0.  0.
    3000001    1    3    3    0    0 -0.64986957952E+01 -0.41338010101E+01  0.43321024297E+01  0.88931698112E+01  0.10000000000E+01 0.  1.
    1000022    2    1    0    0    0 -0.53767485608E+02 -0.68369800870E+01  0.29471396024E+02  0.62500000008E+02  0.10000000608E+02 0.  0.
    3000022    2    3    3    0    0 -0.47268789813E+02 -0.27031790769E+01  0.25139293594E+02  0.53606830197E+02  0.24998782286E+00 0.  0.
    1000022    2    1    0    0    0  0.53767485608E+02  0.68369800870E+01 -0.29471396024E+02  0.62499999992E+02  0.10000000502E+02 0.  0.
    3000022    2    5    5    0    0  0.48142225180E+02  0.64010574479E+01 -0.29394867139E+02  0.56769429331E+02  0.25002133491E+00 0.  0.
        -13    1    4    4    0    0 -0.32245741443E+02 -0.18940761910E+01  0.17156923528E+02  0.36575215867E+02  0.10500000000E+00 0. -1.
         13    1    4    4    0    0 -0.15023048370E+02 -0.80910288586E+00  0.79823700662E+01  0.17031614330E+02  0.10500000000E+00 0.  1.
    3000001    1    5    5    0    0  0.56252604278E+01  0.43592263908E+00 -0.76528884587E-01  0.57305706608E+01  0.10000000000E+01 0. -1.
        -13    1    6    6    0    0  0.11067675408E+02  0.14663139745E+01 -0.67530744105E+01  0.13048316159E+02  0.10500000000E+00 0. -1.
         13    1    6    6    0    0  0.37074549773E+02  0.49347434734E+01 -0.22641792729E+02  0.43721113171E+02  0.10500000000E+00 0.  1.
</event>
<event>
11    0  0.3482687E-009  0.9118800E+02  0.7816531E-02  0.1126479E+00
         25   -1    0    0    0    0  0.00000000000E+00  0.00000000000E+00  0.99999998245E-14  0.12500000000E+03  0.12500000000E+03 0.  0.
    3000001    1    3    3    0    0  0.28465869771E+01 -0.47879807246E+01 -0.32964516712E+01  0.65493824486E+01  0.10000000000E+01 0.  1.
    1000022    2    1    0    0    0  0.36155618427E+02 -0.22841706921E+02 -0.44466583272E+02  0.62499993221E+02  0.99999902914E+01 0.  0.
    3000022    2    3    3    0    0  0.33309031450E+02 -0.18053726196E+02 -0.41170131601E+02  0.55950610772E+02  0.25000813208E+00 0.  0.
    1000022    2    1    0    0    0 -0.36155618427E+02  0.22841706921E+02  0.44466583272E+02  0.62500006779E+02  0.10000075033E+02 0.  0.
    3000022    2    5    5    0    0 -0.24254597908E+02  0.16464549740E+02  0.23642418423E+02  0.37661563496E+02  0.24999648451E+00 0.  0.
        -13    1    4    4    0    0  0.16229138091E+02 -0.87479985284E+01 -0.20112255444E+02  0.27284175734E+02  0.10500000000E+00 0. -1.
         13    1    4    4    0    0  0.17079893358E+02 -0.93057276678E+01 -0.21057876156E+02  0.28666435038E+02  0.10500000000E+00 0.  1.
    3000001    1    5    5    0    0 -0.11901020518E+02  0.63771571807E+01  0.20824164849E+02  0.24838443283E+02  0.10000000000E+01 0. -1.
        -13    1    6    6    0    0 -0.11846546117E+02  0.79751548438E+01  0.11466710043E+02  0.18315026996E+02  0.10500000000E+00 0.  1.
         13    1    6    6    0    0 -0.12408051792E+02  0.84893948964E+01  0.12175708381E+02  0.19346536500E+02  0.10500000000E+00 0. -1.
</event>
<event>
11    0  0.3482687E-009  0.9118800E+02  0.7816531E-02  0.1126479E+00
         25   -1    0    0    0    0  0.00000000000E+00  0.00000000000E+00  0.99999998245E-14  0.12500000000E+03  0.12500000000E+03 0.  0.
    3000001    1    3    3    0    0 -0.66496140773E+01  0.26969048172E+02 -0.16673310147E+02  0.32412130414E+02  0.10000000000E+01 0.  1.
    1000022    2    1    0    0    0 -0.40871346910E+01  0.54264219793E+02 -0.29067850792E+02  0.62499998987E+02  0.99999852002E+01 0.  0.
    3000022    2    3    3    0    0  0.25624793863E+01  0.27295171620E+02 -0.12394540645E+02  0.30087868573E+02  0.25000617543E+00 0.  0.
    1000022    2    1    0    0    0  0.40871346910E+01 -0.54264219793E+02  0.29067850792E+02  0.62500001013E+02  0.99999978632E+01 0.  0.
    3000022    2    5    5    0    0  0.54689509712E+01 -0.22383353523E+02  0.87051694518E+01  0.24632629284E+02  0.25002113544E+00 0.  0.
        -13    1    4    4    0    0  0.14217451723E+01  0.14686139106E+02 -0.66138743247E+01  0.16169675314E+02  0.10500000000E+00 0. -1.
         13    1    4    4    0    0  0.11407342139E+01  0.12609032514E+02 -0.57806663207E+01  0.13918193259E+02  0.10500000000E+00 0.  1.
    3000001    1    5    5    0    0 -0.13818162802E+01 -0.31880866269E+02  0.20362681341E+02  0.37867371729E+02  0.10000000000E+01 0.  1.
        -13    1    6    6    0    0  0.15495624540E+01 -0.61805083287E+01  0.24039023878E+01  0.68109910211E+01  0.10500000000E+00 0.  1.
         13    1    6    6    0    0  0.39193885172E+01 -0.16202845195E+02  0.63012670639E+01  0.17821638263E+02  0.10500000000E+00 0. -1.
</event>
<event>
11    0  0.3482687E-009  0.9118800E+02  0.7816531E-02  0.1126479E+00
         25   -1    0    0    0    0  0.00000000000E+00  0.00000000000E+00  0.99999998245E-14  0.12500000000E+03  0.12500000000E+03 0.  0.
    3000001    1    3    3    0    0 -0.20485348307E+01  0.14579571866E+02 -0.26030214329E+01  0.14984529734E+02  0.10000000000E+01 0.  1.
    1000022    2    1    0    0    0 -0.56843137491E+01  0.61105548695E+02  0.63285126099E+01  0.62500003065E+02  0.10000040359E+02 0.  0.
    3000022    2    3    3    0    0 -0.36357789184E+01  0.46525976829E+02  0.89315340428E+01  0.47515473332E+02  0.24999473287E+00 0.  0.
    1000022    2    1    0    0    0  0.56843137491E+01 -0.61105548695E+02 -0.63285126099E+01  0.62499996935E+02  0.10000002042E+02 0.  0.
    3000022    2    5    5    0    0  0.18491798459E+01 -0.47234957249E+02 -0.15279824383E+01  0.47296489147E+02  0.25000575840E+00 0.  0.
        -13    1    4    4    0    0 -0.15264083885E+01  0.20337053326E+02  0.38821125213E+01  0.20760719718E+02  0.10500000000E+00 0. -1.
         13    1    4    4    0    0 -0.21093705299E+01  0.26188923503E+02  0.50494215215E+01  0.26754753614E+02  0.10500000000E+00 0.  1.
    3000001    1    5    5    0    0  0.38351339032E+01 -0.13870591446E+02 -0.48005301715E+01  0.15203507788E+02  0.10000000000E+01 0.  1.
        -13    1    6    6    0    0  0.69692747637E+00 -0.18148183015E+02 -0.52719638778E+00  0.18169513359E+02  0.10500000000E+00 0. -1.
         13    1    6    6    0    0  0.11522523695E+01 -0.29086774234E+02 -0.10007860506E+01  0.29126975788E+02  0.10500000000E+00 0.  1.
</event>
<event>
11    0  0.3482687E-009  0.9118800E+02  0.7816531E-02  0.1126479E+00
         25   -1    0    0    0    0  0.00000000000E+00  0.00000000000E+00  0.99999998245E-14  0.12500000000E+03  0.12500000000E+03 0.  0.
    3000001    1    3    3    0    0 -0.66416375012E+01 -0.35629036132E+02 -0.32729959246E+02  0.48844547256E+02  0.10000000000E+01 0. -1.
    1000022    2    1    0    0    0 -0.99103110331E+01 -0.48016750657E+02 -0.37448993145E+02  0.62500003275E+02  0.10000035667E+02 0.  0.
    3000022    2    3    3    0    0 -0.32686735319E+01 -0.12387714525E+02 -0.47190338986E+01  0.13655456018E+02  0.25000065917E+00 0.  0.
    1000022    2    1    0    0    0  0.99103110331E+01  0.48016750657E+02  0.37448993145E+02  0.62499996725E+02  0.99999947356E+01 0.  0.
    3000022    2    5    5    0    0  0.23688657541E+00  0.15219805971E+02  0.16193023938E+02  0.22225551374E+02  0.25000114290E+00 0.  0.
        -13    1    4    4    0    0 -0.15637237985E+01 -0.59152630985E+01 -0.23256682017E+01  0.65463980345E+01  0.10500000000E+00 0.  1.
         13    1    4    4    0    0 -0.17049497334E+01 -0.64724514264E+01 -0.23933656970E+01  0.71090579840E+01  0.10500000000E+00 0. -1.
    3000001    1    5    5    0    0  0.96734244577E+01  0.32796944685E+02  0.21255969207E+02  0.40274445351E+02  0.10000000000E+01 0.  1.
        -13    1    6    6    0    0  0.12264522112E+00  0.91390860474E+01  0.96352936629E+01  0.13281108561E+02  0.10500000000E+00 0.  1.
         13    1    6    6    0    0  0.11424135429E+00  0.60807199240E+01  0.65577302752E+01  0.89444428134E+01  0.10500000000E+00 0. -1.
</event>
<event>
11    0  0.3482687E-009  0.9118800E+02  0.7816531E-02  0.1126479E+00
         25   -1    0    0    0    0  0.00000000000E+00  0.00000000000E+00  0.99999998245E-14  0.12500000000E+03  0.12500000000E+03 0.  0.
    3000001    1    3    3    0    0  0.43882393909E+01 -0.19600428131E+01 -0.19237226384E+01  0.52724872281E+01  0.10000000000E+01 0.  1.
    1000022    2    1    0    0    0  0.52905876447E+02  0.65507713395E+01 -0.31053271505E+02  0.62499999674E+02  0.99999960157E+01 0.  0.
    3000022    2    3    3    0    0  0.48517637056E+02  0.85108141525E+01 -0.29129548866E+02  0.57227512445E+02  0.25000105274E+00 0.  0.
    1000022    2    1    0    0    0 -0.52905876447E+02 -0.65507713395E+01  0.31053271505E+02  0.62500000326E+02  0.10000000097E+02 0.  0.
    3000022    2    5    5    0    0 -0.34414140123E+02 -0.58265929505E+01  0.25248236866E+02  0.43079208021E+02  0.24994618856E+00 0.  0.
        -13    1    4    4    0    0  0.29010468161E+02  0.51392321831E+01 -0.17377046489E+02  0.34205142011E+02  0.10500000000E+00 0. -1.
         13    1    4    4    0    0  0.19507168895E+02  0.33715819694E+01 -0.11752502378E+02  0.23022370434E+02  0.10500000000E+00 0.  1.
    3000001    1    5    5    0    0 -0.18491736324E+02 -0.72417838894E+00  0.58050346389E+01  0.19420792305E+02  0.10000000000E+01 0. -1.
        -13    1    6    6    0    0 -0.14308564203E+02 -0.23724494332E+01  0.10440672646E+02  0.17871267336E+02  0.10500000000E+00 0.  1.
         13    1    6    6    0    0 -0.20105575920E+02 -0.34541435173E+01  0.14807564220E+02  0.25207940686E+02  0.10500000000E+00 0. -1.
</event>
<event>
11    0  0.3482687E-009  0.9118800E+02  0.7816531E-02  0.1126479E+00
         25   -1    0    0    0    0  0.00000000000E+00  0.00000000000E+00  0.99999998245E-14  0.12500000000E+03  0.12500000000E+03 0.  0.
    3000001    1    3    3    0    0 -0.60342379628E+01  0.11786244440E+02 -0.44630066616E+01  0.14008783468E+02  0.10000000000E+01 0.  1.
    1000022    2    1    0    0    0 -0.28923114602E+02  0.42087692761E+02 -0.34616899252E+02  0.62500000808E+02  0.99999973492E+01 0.  0.
    3000022    2    3    3    0    0 -0.22888876639E+02  0.30301448320E+02 -0.30153892590E+02  0.48491217340E+02  0.24995325440E+00 0.  0.
    1000022    2    1    0    0    0  0.28923114602E+02 -0.42087692761E+02  0.34616899252E+02  0.62499999192E+02  0.99999872507E+01 0.  0.
    3000022    2    5    5    0    0  0.20023278029E+02 -0.23059374066E+02  0.16338493945E+02  0.34636329227E+02  0.25004515106E+00 0.  0.
        -13    1    4    4    0    0 -0.16556348239E+02  0.21854058277E+02 -0.21776788442E+02  0.35013598359E+02  0.10500000000E+00 0.  1.
         13    1    4    4    0    0 -0.63325284002E+01  0.84473900435E+01 -0.83771041477E+01  0.13477618981E+02  0.10500000000E+00 0. -1.
    3000001    1    5    5    0    0  0.88998365729E+01 -0.19028318695E+02  0.18278405307E+02  0.27863669966E+02  0.10000000000E+01 0.  1.
        -13    1    6    6    0    0  0.54113810026E+01 -0.61911875705E+01  0.43724188798E+01  0.93135879095E+01  0.10500000000E+00 0.  1.
         13    1    6    6    0    0  0.14611897026E+02 -0.16868186495E+02  0.11966075065E+02  0.25322741317E+02  0.10500000000E+00 0. -1.
</event>
<event>
11    0  0.3482687E-009  0.9118800E+02  0.7816531E-02  0.1126479E+00
         25   -1    0    0    0    0  0.00000000000E+00  0.00000000000E+00  0.99999998245E-14  0.12500000000E+03  0.12500000000E+03 0.  0.
    3000001    1    3    3    0    0  0.24880270028E+01 -0.20154047136E+02 -0.21936726580E+02  0.29909795508E+02  0.10000000000E+01 0.  1.
    1000022    2    1    0    0    0  0.14552573667E+02 -0.43170492728E+02 -0.41602655818E+02  0.62499998450E+02  0.99999996211E+01 0.  0.
    3000022    2    3    3    0    0  0.12064546664E+02 -0.23016445593E+02 -0.19665929238E+02  0.32590202942E+02  0.25000210819E+00 0.  0.
    1000022    2    1    0    0    0 -0.14552573667E+02  0.43170492728E+02  0.41602655818E+02  0.62500001550E+02  0.10000018996E+02 0.  0.
    3000022    2    5    5    0    0 -0.11422067231E+02  0.23289285429E+02  0.18603772260E+02  0.31922050030E+02  0.25000043838E+00 0.  0.
        -13    1    4    4    0    0  0.65317982369E+01 -0.12602470081E+02 -0.10725688169E+02  0.17791516294E+02  0.10500000000E+00 0. -1.
         13    1    4    4    0    0  0.55327484273E+01 -0.10413975512E+02 -0.89402410688E+01  0.14798686647E+02  0.10500000000E+00 0.  1.
    3000001    1    5    5    0    0 -0.31305064355E+01  0.19881207300E+02  0.22998883558E+02  0.30577951519E+02  0.10000000000E+01 0. -1.
        -13    1    6    6    0    0 -0.61003066475E+01  0.12495969434E+02  0.98963461687E+01  0.17067855336E+02  0.10500000000E+00 0. -1.
         13    1    6    6    0    0 -0.53217605840E+01  0.10793315995E+02  0.87074260913E+01  0.14854194694E+02  0.10500000000E+00 0.  1.
</event>
<event>
11    0  0.3482687E-009  0.9118800E+02  0.7816531E-02  0.1126479E+00
         25   -1    0    0    0    0  0.00000000000E+00  0.00000000000E+00  0.99999998245E-14  0.12500000000E+03  0.12500000000E+03 0.  0.
    3000001    1    3    3    0    0  0.16398369229E+01 -0.18365926281E+01 -0.50502096374E+00  0.27050293509E+01  0.10000000000E+01 0. -1.
    1000022    2    1    0    0    0  0.45128420754E+02 -0.13306321515E+02 -0.39907612795E+02  0.62499998582E+02  0.99999855842E+01 0.  0.
    3000022    2    3    3    0    0  0.43488583831E+02 -0.11469728887E+02 -0.39402591832E+02  0.59794969231E+02  0.24999580354E+00 0.  0.
    1000022    2    1    0    0    0 -0.45128420754E+02  0.13306321515E+02  0.39907612795E+02  0.62500001418E+02  0.10000003310E+02 0.  0.
    3000022    2    5    5    0    0 -0.31467267297E+02  0.59218935987E+01  0.22409486005E+02  0.39083312271E+02  0.25000026922E+00 0.  0.
        -13    1    4    4    0    0  0.15621453048E+02 -0.41109744844E+01 -0.14228060557E+02  0.21526231411E+02  0.10500000000E+00 0.  1.
         13    1    4    4    0    0  0.27867130783E+02 -0.73587544027E+01 -0.25174531275E+02  0.38268737820E+02  0.10500000000E+00 0. -1.
    3000001    1    5    5    0    0 -0.13661153457E+02  0.73844279164E+01  0.17498126791E+02  0.23416689147E+02  0.10000000000E+01 0.  1.
        -13    1    6    6    0    0 -0.23144476568E+02  0.43641677719E+01  0.16522944439E+02  0.28770322798E+02  0.10500000000E+00 0.  1.
         13    1    6    6    0    0 -0.83227907286E+01  0.15577258268E+01  0.58865415660E+01  0.10312989473E+02  0.10500000000E+00 0. -1.
</event>
<event>
11    0  0.3482687E-009  0.9118800E+02  0.7816531E-02  0.1126479E+00
         25   -1    0    0    0    0  0.00000000000E+00  0.00000000000E+00  0.99999998245E-14  0.12500000000E+03  0.12500000000E+03 0.  0.
    3000001    1    3    3    0    0  0.13416834989E+01  0.23248511218E+02  0.10952479276E+02  0.25753644222E+02  0.10000000000E+01 0.  1.
    1000022    2    1    0    0    0  0.14132926408E+02  0.55856428650E+02  0.22058330466E+02  0.62499999193E+02  0.99999862879E+01 0.  0.
    3000022    2    3    3    0    0  0.12791242909E+02  0.32607917433E+02  0.11105851190E+02  0.36746354970E+02  0.24999702288E+00 0.  0.
    1000022    2    1    0    0    0 -0.14132926408E+02 -0.55856428650E+02 -0.22058330466E+02  0.62500000807E+02  0.99999963778E+01 0.  0.
    3000022    2    5    5    0    0 -0.53342874256E+01 -0.38685301291E+02 -0.16513214162E+02  0.42399951615E+02  0.24999328185E+00 0.  0.
        -13    1    4    4    0    0  0.95740208075E+01  0.24331922371E+02  0.82986179570E+01  0.27433235421E+02  0.10500000000E+00 0. -1.
         13    1    4    4    0    0  0.32172221014E+01  0.82759950621E+01  0.28072332329E+01  0.93131195494E+01  0.10500000000E+00 0.  1.
    3000001    1    5    5    0    0 -0.87986389822E+01 -0.17171127359E+02 -0.55451163041E+01  0.20100049192E+02  0.10000000000E+01 0.  1.
        -13    1    6    6    0    0 -0.19618418730E+01 -0.14005038110E+02 -0.59259192986E+01  0.15333540379E+02  0.10500000000E+00 0.  1.
         13    1    6    6    0    0 -0.33724455526E+01 -0.24680263181E+02 -0.10587294863E+02  0.27066411236E+02  0.10500000000E+00 0. -1.
</event>
<event>
11    0  0.3482687E-009  0.9118800E+02  0.7816531E-02  0.1126479E+00
         25   -1    0    0    0    0  0.00000000000E+00  0.00000000000E+00  0.99999998245E-14  0.12500000000E+03  0.12500000000E+03 0.  0.
    3000001    1    3    3    0    0  0.75998987474E+00 -0.23404564422E+01 -0.98558348657E+00  0.28331423855E+01  0.10000000000E+01 0.  1.
    1000022    2    1    0    0    0 -0.14648553271E+02 -0.59880534736E+02  0.24477312707E+01  0.62500000579E+02  0.10000006539E+02 0.  0.
    3000022    2    3    3    0    0 -0.15408543146E+02 -0.57540078294E+02  0.34333147573E+01  0.59666858194E+02  0.25000902875E+00 0.  0.
    1000022    2    1    0    0    0  0.14648553271E+02  0.59880534736E+02 -0.24477312707E+01  0.62499999421E+02  0.99999992984E+01 0.  0.
    3000022    2    5    5    0    0  0.10438784377E+02  0.29281251445E+02 -0.50175072424E+01  0.31489645655E+02  0.24999827651E+00 0.  0.
        -13    1    4    4    0    0 -0.54622082554E+01 -0.20351501388E+02  0.11585582267E+01  0.21103852964E+02  0.10500000000E+00 0. -1.
         13    1    4    4    0    0 -0.99463348905E+01 -0.37188576906E+02  0.22747565306E+01  0.38563005230E+02  0.10500000000E+00 0.  1.
    3000001    1    5    5    0    0  0.42097688940E+01  0.30599283292E+02  0.25697759717E+01  0.31010353765E+02  0.10000000000E+01 0. -1.
        -13    1    6    6    0    0  0.78168554782E+01  0.21854161097E+02 -0.37316064908E+01  0.23508370824E+02  0.10500000000E+00 0.  1.
         13    1    6    6    0    0  0.26219288989E+01  0.74270903480E+01 -0.12859007516E+01  0.79812748312E+01  0.10500000000E+00 0. -1.
</event>
<event>
11    0  0.3482687E-009  0.9118800E+02  0.7816531E-02  0.1126479E+00
         25   -1    0    0    0    0  0.00000000000E+00  0.00000000000E+00  0.99999998245E-14  0.12500000000E+03  0.12500000000E+03 0.  0.
    3000001    1    3    3    0    0 -0.33120465373E+02 -0.40454905660E+02 -0.30932918663E+02  0.60756975530E+02  0.10000000000E+01 0.  1.
    1000022    2    1    0    0    0 -0.34842693115E+02 -0.40504345103E+02 -0.30848579141E+02  0.62499999393E+02  0.99999926680E+01 0.  0.
    3000022    2    3    3    0    0 -0.17222277419E+01 -0.49439443024E-01  0.84339522423E-01  0.17430238631E+01  0.25001275702E+00 0.  0.
    1000022    2    1    0    0    0  0.34842693115E+02  0.40504345103E+02  0.30848579141E+02  0.62500000607E+02  0.10000000256E+02 0.  0.
    3000022    2    5    5    0    0  0.28745475077E+02  0.35932211918E+02  0.22743649374E+02  0.51329935424E+02  0.24998612989E+00 0.  0.
        -13    1    4    4    0    0 -0.99326765373E+00 -0.51664175007E-01 -0.12375464056E-01  0.10002139626E+01  0.10500000000E+00 0. -1.
         13    1    4    4    0    0 -0.72896008821E+00  0.22247319828E-02  0.96714986479E-01  0.74280990047E+00  0.10500000000E+00 0.  1.
    3000001    1    5    5    0    0  0.60972180377E+01  0.45721331852E+01  0.81049297668E+01  0.11170065183E+02  0.10000000000E+01 0. -1.
        -13    1    6    6    0    0  0.19707913902E+02  0.24693492772E+02  0.15652348352E+02  0.35258722177E+02  0.10500000000E+00 0. -1.
         13    1    6    6    0    0  0.90375611758E+01  0.11238719146E+02  0.70913010218E+01  0.16071213247E+02  0.10500000000E+00 0.  1.
</event>
<event>
11    0  0.3482687E-009  0.9118800E+02  0.7816531E-02  0.1126479E+00
         25   -1    0    0    0    0  0.00000000000E+00  0.00000000000E+00  0.99999998245E-14  0.12500000000E+03  0.12500000000E+03 0.  0.
    3000001    1    3    3    0    0 -0.26034646307E+01  0.61215453516E+00 -0.25093021856E+00  0.28663089912E+01  0.10000000000E+01 0.  1.
    1000022    2    1    0    0    0 -0.36942306429E+02  0.47481733641E+02 -0.13674832770E+02  0.62500000482E+02  0.99999987591E+01 0.  0.
    3000022    2    3    3    0    0 -0.34338841798E+02  0.46869579106E+02 -0.13423902551E+02  0.59633691491E+02  0.24999914118E+00 0.  0.
    1000022    2    1    0    0    0  0.36942306429E+02 -0.47481733641E+02  0.13674832770E+02  0.62499999518E+02  0.99999927312E+01 0.  0.
    3000022    2    5    5    0    0  0.20720979398E+02 -0.30449112390E+02  0.40036456658E+01  0.37048604717E+02  0.25000060016E+00 0.  0.
        -13    1    4    4    0    0 -0.11683859101E+02  0.15941624997E+02 -0.45103256978E+01  0.20273185096E+02  0.10500000000E+00 0.  1.
         13    1    4    4    0    0 -0.22654982697E+02  0.30927954109E+02 -0.89135768534E+01  0.39360506395E+02  0.10500000000E+00 0. -1.
    3000001    1    5    5    0    0  0.16221327031E+02 -0.17032621251E+02  0.96711871040E+01  0.25451394801E+02  0.10000000000E+01 0. -1.
        -13    1    6    6    0    0  0.70628042997E+01 -0.10337284398E+02  0.14108206745E+01  0.12599368765E+02  0.10500000000E+00 0.  1.
         13    1    6    6    0    0  0.13658175098E+02 -0.20111827991E+02  0.25928249914E+01  0.24449235951E+02  0.10500000000E+00 0. -1.
</event>
<event>
11    0  0.3482687E-009  0.9118800E+02  0.7816531E-02  0.1126479E+00
         25   -1    0    0    0    0  0.00000000000E+00  0.00000000000E+00  0.99999998245E-14  0.12500000000E+03  0.12500000000E+03 0.  0.
    3000001    1    3    3    0    0 -0.11836839509E+02  0.37142304737E+02 -0.38898399892E+02  0.55079461553E+02  0.10000000000E+01 0.  1.
    1000022    2    1    0    0    0 -0.16200248020E+02  0.42396319318E+02 -0.41789402154E+02  0.62499999921E+02  0.99999965062E+01 0.  0.
    3000022    2    3    3    0    0 -0.43634085109E+01  0.52540145809E+01 -0.28910022615E+01  0.74205383684E+01  0.24998510110E+00 0.  0.
    1000022    2    1    0    0    0  0.16200248020E+02 -0.42396319318E+02  0.41789402154E+02  0.62500000079E+02  0.99999974894E+01 0.  0.
    3000022    2    5    5    0    0  0.36664021450E+01 -0.17861040463E+02  0.21937997797E+02  0.28527136556E+02  0.25000336353E+00 0.  0.
        -13    1    4    4    0    0 -0.23729053515E+01  0.28734761738E+01 -0.16489936858E+01  0.40764874959E+01  0.10500000000E+00 0.  1.
         13    1    4    4    0    0 -0.19905031593E+01  0.23805384072E+01 -0.12420085757E+01  0.33440508724E+01  0.10500000000E+00 0. -1.
    3000001    1    5    5    0    0  0.12533845875E+02 -0.24535278855E+02  0.19851404357E+02  0.33972863522E+02  0.10000000000E+01 0.  1.
        -13    1    6    6    0    0  0.83699856763E+00 -0.41047632896E+01  0.50454691917E+01  0.65587676152E+01  0.10500000000E+00 0. -1.
         13    1    6    6    0    0  0.28294035774E+01 -0.13756277173E+02  0.16892528605E+02  0.21968368941E+02  0.10500000000E+00 0.  1.
</event>
<event>
11    0  0.3482687E-009  0.9118800E+02  0.7816531E-02  0.1126479E+00
         25   -1    0    0    0    0  0.00000000000E+00  0.00000000000E+00  0.99999998245E-14  0.12500000000E+03  0.12500000000E+03 0.  0.
    3000001    1    3    3    0    0 -0.23510271413E+02 -0.19593014122E+01 -0.30754330364E+02  0.38773709650E+02  0.10000000000E+01 0.  1.
    1000022    2    1    0    0    0 -0.34132216235E+02  0.34007551207E+01 -0.51280373806E+02  0.62500000524E+02  0.10000000363E+02 0.  0.
    3000022    2    3    3    0    0 -0.10621944823E+02  0.53600565328E+01 -0.20526043442E+02  0.23726290873E+02  0.25000274441E+00 0.  0.
    1000022    2    1    0    0    0  0.34132216235E+02 -0.34007551207E+01  0.51280373806E+02  0.62499999476E+02  0.99999938155E+01 0.  0.
    3000022    2    5    5    0    0  0.33353294129E+02 -0.47106458465E+01  0.49934782124E+02  0.60234353799E+02  0.24999639176E+00 0.  0.
        -13    1    4    4    0    0 -0.79791203056E+01  0.40333481858E+01 -0.15372773200E+02  0.17783909562E+02  0.10500000000E+00 0. -1.
         13    1    4    4    0    0 -0.26428245170E+01  0.13267083470E+01 -0.51532702416E+01  0.59423813113E+01  0.10500000000E+00 0.  1.
    3000001    1    5    5    0    0  0.77892210578E+00  0.13098907259E+01  0.13455916817E+01  0.22656456772E+01  0.10000000000E+01 0. -1.
        -13    1    6    6    0    0  0.14349174335E+02 -0.20656901241E+01  0.21396519053E+02  0.25845462511E+02  0.10500000000E+00 0. -1.
         13    1    6    6    0    0  0.19004119794E+02 -0.26449557225E+01  0.28538263071E+02  0.34388891288E+02  0.10500000000E+00 0.  1.
</event>
<event>
11    0  0.3482687E-009  0.9118800E+02  0.7816531E-02  0.1126479E+00
         25   -1    0    0    0    0  0.00000000000E+00  0.00000000000E+00  0.99999998245E-14  0.12500000000E+03  0.12500000000E+03 0.  0.
    3000001    1    3    3    0    0 -0.15369233921E+02  0.18999205307E+02  0.17152338435E+02  0.29872828246E+02  0.10000000000E+01 0.  1.
    1000022    2    1    0    0    0 -0.39253468767E+02  0.32295461314E+02  0.34963094092E+02  0.62500004128E+02  0.10000046791E+02 0.  0.
    3000022    2    3    3    0    0 -0.23884234846E+02  0.13296256007E+02  0.17810755657E+02  0.32627175883E+02  0.24998201717E+00 0.  0.
    1000022    2    1    0    0    0  0.39253468767E+02 -0.32295461314E+02 -0.34963094092E+02  0.62499995872E+02  0.99999951905E+01 0.  0.
    3000022    2    5    5    0    0  0.23106797240E+02 -0.24756837014E+02 -0.21105502846E+02  0.39904007448E+02  0.25000473050E+00 0.  0.
        -13    1    4    4    0    0 -0.93418336907E+01  0.52638888450E+01  0.69525620813E+01  0.12779965844E+02  0.10500000000E+00 0.  1.
         13    1    4    4    0    0 -0.14542401156E+02  0.80323671622E+01  0.10858193575E+02  0.19847210039E+02  0.10500000000E+00 0. -1.
    3000001    1    5    5    0    0  0.16146671527E+02 -0.75386242995E+01 -0.13857591246E+02  0.22595988424E+02  0.10000000000E+01 0.  1.
        -13    1    6    6    0    0  0.84264004595E+01 -0.91120395918E+01 -0.77519637026E+01  0.14633436250E+02  0.10500000000E+00 0.  1.
         13    1    6    6    0    0  0.14680396781E+02 -0.15644797422E+02 -0.13353539143E+02  0.25270571198E+02  0.10500000000E+00 0. -1.
</event>
<event>
11    0  0.3482687E-009  0.9118800E+02  0.7816531E-02  0.1126479E+00
         25   -1    0    0    0    0  0.00000000000E+00  0.00000000000E+00  0.99999998245E-14  0.12500000000E+03  0.12500000000E+03 0.  0.
    3000001    1    3    3    0    0 -0.12114777952E+01 -0.16940874342E+02 -0.29003124911E+02  0.33625022774E+02  0.10000000000E+01 0. -1.
    1000022    2    1    0    0    0 -0.63344684634E+01 -0.37643408882E+02 -0.48467494378E+02  0.62499997218E+02  0.99999959009E+01 0.  0.
    3000022    2    3    3    0    0 -0.51229906682E+01 -0.20702534540E+02 -0.19464369467E+02  0.28874974445E+02  0.25000133479E+00 0.  0.
    1000022    2    1    0    0    0  0.63344684634E+01  0.37643408882E+02  0.48467494378E+02  0.62500002782E+02  0.10000030671E+02 0.  0.
    3000022    2    5    5    0    0  0.19805876477E+00 -0.61126454502E+00  0.64003349771E+00  0.94075020922E+00  0.24999291919E+00 0.  0.
        -13    1    4    4    0    0 -0.20016977083E+01 -0.80798616538E+01 -0.75134885106E+01  0.11214031062E+02  0.10500000000E+00 0.  1.
         13    1    4    4    0    0 -0.31212929598E+01 -0.12622672886E+02 -0.11950880957E+02  0.17660943383E+02  0.10500000000E+00 0. -1.
    3000001    1    5    5    0    0  0.61364096986E+01  0.38254673427E+02  0.47827460881E+02  0.61559252572E+02  0.10000000000E+01 0. -1.
        -13    1    6    6    0    0  0.37346356358E-01 -0.19731370459E+00  0.27545399409E+00  0.35668943244E+00  0.10500000000E+00 0. -1.
         13    1    6    6    0    0  0.16071240841E+00 -0.41395084043E+00  0.36457950362E+00  0.58406077678E+00  0.10500000000E+00 0.  1.
</event>
<event>
11    0  0.3482687E-009  0.9118800E+02  0.7816531E-02  0.1126479E+00
         25   -1    0    0    0    0  0.00000000000E+00  0.00000000000E+00  0.99999998245E-14  0.12500000000E+03  0.12500000000E+03 0.  0.
    3000001    1    3    3    0    0 -0.48680193664E+02 -0.13909911521E+02  0.87931336672E+01  0.51396168080E+02  0.10000000000E+01 0. -1.
    1000022    2    1    0    0    0 -0.57502969838E+02 -0.20643620749E+02  0.85731802241E+01  0.62500000144E+02  0.99999990526E+01 0.  0.
    3000022    2    3    3    0    0 -0.88227761747E+01 -0.67337092277E+01 -0.21995344316E+00  0.11103832064E+02  0.24997519433E+00 0.  0.
    1000022    2    1    0    0    0  0.57502969838E+02  0.20643620749E+02 -0.85731802241E+01  0.62499999856E+02  0.99999972468E+01 0.  0.
    3000022    2    5    5    0    0  0.36027248147E+02  0.17518682097E+02 -0.74321937107E+01  0.40745144904E+02  0.24999684827E+00 0.  0.
        -13    1    4    4    0    0 -0.44425681732E+01 -0.34682556645E+01 -0.13975482317E+00  0.56387734250E+01  0.10500000000E+00 0.  1.
         13    1    4    4    0    0 -0.43802080015E+01 -0.32654535632E+01 -0.80198619988E-01  0.54650586391E+01  0.10500000000E+00 0. -1.
    3000001    1    5    5    0    0  0.21475721691E+02  0.31249386516E+01 -0.11409865134E+01  0.21754854951E+02  0.10000000000E+01 0.  1.
        -13    1    6    6    0    0  0.20729809667E+02  0.10046807689E+02 -0.43325744651E+01  0.23440255546E+02  0.10500000000E+00 0. -1.
         13    1    6    6    0    0  0.15297438480E+02  0.74718744082E+01 -0.30996192456E+01  0.17304889358E+02  0.10500000000E+00 0.  1.
</event>
<event>
11    0  0.3482687E-009  0.9118800E+02  0.7816531E-02  0.1126479E+00
         25   -1    0    0    0    0  0.00000000000E+00  0.00000000000E+00  0.99999998245E-14  0.12500000000E+03  0.12500000000E+03 0.  0.
    3000001    1    3    3    0    0  0.87704225463E+01  0.10491719098E+02  0.95564433864E+01  0.16712931863E+02  0.10000000000E+01 0. -1.
    1000022    2    1    0    0    0  0.38750613902E+02  0.25060493091E+02  0.40946444965E+02  0.62500001488E+02  0.10000021949E+02 0.  0.
    3000022    2    3    3    0    0  0.29980191356E+02  0.14568773993E+02  0.31390001579E+02  0.45787069625E+02  0.24999263249E+00 0.  0.
    1000022    2    1    0    0    0 -0.38750613902E+02 -0.25060493091E+02 -0.40946444965E+02  0.62499998512E+02  0.10000003351E+02 0.  0.
    3000022    2    5    5    0    0 -0.60511188867E+01 -0.16225689349E+01 -0.96988819501E+01  0.11549007772E+02  0.24999943244E+00 0.  0.
        -13    1    4    4    0    0  0.19296307492E+02  0.94080731243E+01  0.20147299469E+02  0.29441196029E+02  0.10500000000E+00 0.  1.
         13    1    4    4    0    0  0.10683883864E+02  0.51607008682E+01  0.11242702110E+02  0.16345873595E+02  0.10500000000E+00 0. -1.
    3000001    1    5    5    0    0 -0.32699495015E+02 -0.23437924156E+02 -0.31247563015E+02  0.50950990740E+02  0.10000000000E+01 0.  1.
        -13    1    6    6    0    0 -0.39910054215E+01 -0.11248507018E+01 -0.64407495070E+01  0.76607892927E+01  0.10500000000E+00 0.  1.
         13    1    6    6    0    0 -0.20601134653E+01 -0.49771823310E+00 -0.32581324431E+01  0.38882184797E+01  0.10500000000E+00 0.  1.
</event>
<event>
11    0  0.3482687E-009  0.9118800E+02  0.7816531E-02  0.1126479E+00
         25   -1    0    0    0    0  0.00000000000E+00  0.00000000000E+00  0.99999998245E-14  0.12500000000E+03  0.12500000000E+03 0.  0.
    3000001    1    3    3    0    0  0.98881944191E+01 -0.13799054816E+02  0.12883410753E+01  0.17054328641E+02  0.10000000000E+01 0.  1.
    1000022    2    1    0    0    0  0.26778741809E+02 -0.52767648094E+02  0.17456354297E+02  0.62499999556E+02  0.99999970476E+01 0.  0.
    3000022    2    3    3    0    0  0.16890547389E+02 -0.38968593278E+02  0.16168013222E+02  0.45445670915E+02  0.25000031807E+00 0.  0.
    1000022    2    1    0    0    0 -0.26778741809E+02  0.52767648094E+02 -0.17456354297E+02  0.62500000444E+02  0.10000002600E+02 0.  0.
    3000022    2    5    5    0    0 -0.15862084106E+02  0.33866030452E+02 -0.15763432302E+02  0.40584011994E+02  0.25000166416E+00 0.  0.
        -13    1    4    4    0    0  0.10140639859E+02 -0.23339863740E+02  0.96240550465E+01  0.27206897594E+02  0.10500000000E+00 0.  1.
         13    1    4    4    0    0  0.67499075301E+01 -0.15628729538E+02  0.65439581757E+01  0.18238773321E+02  0.10500000000E+00 0. -1.
    3000001    1    5    5    0    0 -0.10916657703E+02  0.18901617641E+02 -0.16929219953E+01  0.21915988450E+02  0.10000000000E+01 0. -1.
        -13    1    6    6    0    0 -0.59449081428E+01  0.12624655421E+02 -0.58250410538E+01  0.15121705777E+02  0.10500000000E+00 0. -1.
         13    1    6    6    0    0 -0.99171759631E+01  0.21241375031E+02 -0.99383912483E+01  0.25462306217E+02  0.10500000000E+00 0.  1.
</event>
<event>
11    0  0.3482687E-009  0.9118800E+02  0.7816531E-02  0.1126479E+00
         25   -1    0    0    0    0  0.00000000000E+00  0.00000000000E+00  0.99999998245E-14  0.12500000000E+03  0.12500000000E+03 0.  0.
    3000001    1    3    3    0    0 -0.16076615270E+02 -0.34129397193E+02  0.15652265193E+01  0.37771990222E+02  0.10000000000E+01 0. -1.
    1000022    2    1    0    0    0 -0.20303292344E+02 -0.57789822704E+02  0.73730892238E+01  0.62499996679E+02  0.99999926014E+01 0.  0.
    3000022    2    3    3    0    0 -0.42266770740E+01 -0.23660425511E+02  0.58078627046E+01  0.24728006457E+02  0.24999936946E+00 0.  0.
    1000022    2    1    0    0    0  0.20303292344E+02  0.57789822704E+02 -0.73730892238E+01  0.62500003321E+02  0.10000034115E+02 0.  0.
    3000022    2    5    5    0    0  0.14492025586E+02  0.29507585773E+02 -0.86990307187E+00  0.32886709393E+02  0.24999922435E+00 0.  0.
        -13    1    4    4    0    0 -0.16061914602E+01 -0.92958816033E+01  0.23122538531E+01  0.97134344426E+01  0.10500000000E+00 0. -1.
         13    1    4    4    0    0 -0.26204856139E+01 -0.14364543908E+02  0.34956088514E+01  0.15014572014E+02  0.10500000000E+00 0.  1.
    3000001    1    5    5    0    0  0.58112667582E+01  0.28282236930E+02 -0.65031861520E+01  0.29613293928E+02  0.10000000000E+01 0. -1.
        -13    1    6    6    0    0  0.59016553080E+01  0.12135250071E+02 -0.32019933700E+00  0.13498421474E+02  0.10500000000E+00 0. -1.
         13    1    6    6    0    0  0.85903702782E+01  0.17372335702E+02 -0.54970373487E+00  0.19388287920E+02  0.10500000000E+00 0.  1.
</event>
<event>
11    0  0.3482687E-009  0.9118800E+02  0.7816531E-02  0.1126479E+00
         25   -1    0    0    0    0  0.00000000000E+00  0.00000000000E+00  0.99999998245E-14  0.12500000000E+03  0.12500000000E+03 0.  0.
    3000001    1    3    3    0    0  0.18391248881E+02  0.90469402510E+01 -0.41776082971E+02  0.46543810241E+02  0.10000000000E+01 0.  1.
    1000022    2    1    0    0    0  0.29506283731E+02  0.11944973342E+02 -0.52848339373E+02  0.62499998948E+02  0.99999863133E+01 0.  0.
    3000022    2    3    3    0    0  0.11115034850E+02  0.28980330913E+01 -0.11072256401E+02  0.15956188707E+02  0.25000143343E+00 0.  0.
    1000022    2    1    0    0    0 -0.29506283731E+02 -0.11944973342E+02  0.52848339373E+02  0.62500001052E+02  0.99999994658E+01 0.  0.
    3000022    2    5    5    0    0 -0.11495603776E+02 -0.24488317552E+01  0.11737788578E+02  0.16612762258E+02  0.25001202884E+00 0.  0.
        -13    1    4    4    0    0  0.48389141086E+01  0.12945809638E+01 -0.47484953529E+01  0.69029169732E+01  0.10500000000E+00 0.  1.
         13    1    4    4    0    0  0.62761207419E+01  0.16034521275E+01 -0.63237610485E+01  0.90532717341E+01  0.10500000000E+00 0. -1.
    3000001    1    5    5    0    0 -0.18010679955E+02 -0.94961415871E+01  0.41110550794E+02  0.45887238794E+02  0.10000000000E+01 0. -1.
        -13    1    6    6    0    0 -0.65931660364E+01 -0.13746032499E+01  0.68080223571E+01  0.95770332511E+01  0.10500000000E+00 0. -1.
         13    1    6    6    0    0 -0.49024377394E+01 -0.10742285053E+01  0.49297662211E+01  0.70357290073E+01  0.10500000000E+00 0.  1.
</event>
<event>
11    0  0.3482687E-009  0.9118800E+02  0.7816531E-02  0.1126479E+00
         25   -1    0    0    0    0  0.00000000000E+00  0.00000000000E+00  0.99999998245E-14  0.12500000000E+03  0.12500000000E+03 0.  0.
    3000001    1    3    3    0    0 -0.11127249655E+02 -0.12796733454E+00 -0.13275012316E+02  0.17351023385E+02  0.10000000000E+01 0.  1.
    1000022    2    1    0    0    0 -0.27347349119E+02 -0.66477203323E+01 -0.54901551212E+02  0.62499999500E+02  0.99999961262E+01 0.  0.
    3000022    2    3    3    0    0 -0.16220099464E+02 -0.65197529978E+01 -0.41626538896E+02  0.45148976115E+02  0.24999590319E+00 0.  0.
    1000022    2    1    0    0    0  0.27347349119E+02  0.66477203323E+01  0.54901551212E+02  0.62500000500E+02  0.10000002378E+02 0.  0.
    3000022    2    5    5    0    0  0.85942472872E+01 -0.16378004925E+01  0.22517255068E+02  0.24158491396E+02  0.24990763845E+00 0.  0.
        -13    1    4    4    0    0 -0.78400759388E+01 -0.31589324479E+01 -0.19953415796E+02  0.21670151635E+02  0.10500000000E+00 0.  1.
         13    1    4    4    0    0 -0.83800235252E+01 -0.33608205498E+01 -0.21673123100E+02  0.23478824480E+02  0.10500000000E+00 0. -1.
    3000001    1    5    5    0    0  0.18753101832E+02  0.82855208249E+01  0.32384296144E+02  0.38341509104E+02  0.10000000000E+01 0.  1.
        -13    1    6    6    0    0  0.35842268151E+01 -0.64858844873E+00  0.95270749029E+01  0.10200173040E+02  0.10500000000E+00 0. -1.
         13    1    6    6    0    0  0.50100204722E+01 -0.98921204382E+00  0.12990180165E+02  0.13958318356E+02  0.10500000000E+00 0.  1.
</event>
<event>
11    0  0.3482687E-009  0.9118800E+02  0.7816531E-02  0.1126479E+00
         25   -1    0    0    0    0  0.00000000000E+00  0.00000000000E+00  0.99999998245E-14  0.12500000000E+03  0.12500000000E+03 0.  0.
    3000001    1    3    3    0    0 -0.28339865324E+01  0.32057806274E+01  0.10708728717E+01  0.45227511322E+01  0.10000000000E+01 0.  1.
    1000022    2    1    0    0    0 -0.55507879376E+02  0.25864994084E+02 -0.74918255398E+01  0.62499998795E+02  0.99999903864E+01 0.  0.
    3000022    2    3    3    0    0 -0.52673892843E+02  0.22659213457E+02 -0.85626984114E+01  0.57977247663E+02  0.25000149581E+00 0.  0.
    1000022    2    1    0    0    0  0.55507879376E+02 -0.25864994084E+02  0.74918255398E+01  0.62500001205E+02  0.10000005448E+02 0.  0.
    3000022    2    5    5    0    0  0.48280175876E+02 -0.25751943667E+02  0.59536654724E+01  0.55042225755E+02  0.24999646156E+00 0.  0.
        -13    1    4    4    0    0 -0.12500298025E+02  0.53751838008E+01 -0.20149610133E+01  0.13755767681E+02  0.10500000000E+00 0.  1.
         13    1    4    4    0    0 -0.40173594819E+02  0.17284029656E+02 -0.65477373982E+01  0.44221479982E+02  0.10500000000E+00 0. -1.
    3000001    1    5    5    0    0  0.72277034994E+01 -0.11305041715E+00  0.15381600674E+01  0.74577754502E+01  0.10000000000E+01 0.  1.
        -13    1    6    6    0    0  0.34186306288E+02 -0.18218544018E+02  0.42563072216E+01  0.38971092619E+02  0.10500000000E+00 0.  1.
         13    1    6    6    0    0  0.14093869588E+02 -0.75333996487E+01  0.16973582508E+01  0.16071133135E+02  0.10500000000E+00 0. -1.
</event>
<event>
11    0  0.3482687E-009  0.9118800E+02  0.7816531E-02  0.1126479E+00
         25   -1    0    0    0    0  0.00000000000E+00  0.00000000000E+00  0.99999998245E-14  0.12500000000E+03  0.12500000000E+03 0.  0.
    3000001    1    3    3    0    0  0.27942750148E+02  0.12145393123E+02 -0.95424286738E+01  0.31943165231E+02  0.10000000000E+01 0.  1.
    1000022    2    1    0    0    0  0.48719080753E+02  0.29737129706E+02 -0.23418046238E+02  0.62500003571E+02  0.99999922099E+01 0.  0.
    3000022    2    3    3    0    0  0.20776330605E+02  0.17591736583E+02 -0.13875617564E+02  0.30556838340E+02  0.24999433143E+00 0.  0.
    1000022    2    1    0    0    0 -0.48719080753E+02 -0.29737129706E+02  0.23418046238E+02  0.62499996429E+02  0.99999475772E+01 0.  0.
    3000022    2    5    5    0    0 -0.29075647762E+01 -0.24962292043E+01  0.45435282268E+01  0.59490540292E+01  0.25000385247E+00 0.  0.
        -13    1    4    4    0    0  0.54404048785E+01  0.45884074426E+01 -0.36604895109E+01  0.80038551062E+01  0.10500000000E+00 0. -1.
         13    1    4    4    0    0  0.15335925726E+02  0.13003329140E+02 -0.10215128053E+02  0.22552983234E+02  0.10500000000E+00 0.  1.
    3000001    1    5    5    0    0 -0.45811515977E+02 -0.27240900502E+02  0.18874518011E+02  0.56550942400E+02  0.10000000000E+01 0.  1.
        -13    1    6    6    0    0 -0.17166031910E+01 -0.15476216506E+01  0.26937229319E+01  0.35509192504E+01  0.10500000000E+00 0. -1.
         13    1    6    6    0    0 -0.11909615851E+01 -0.94860755366E+00  0.18498052949E+01  0.23981347787E+01  0.10500000000E+00 0.  1.
</event>
<event>
11    0  0.3482687E-009  0.9118800E+02  0.7816531E-02  0.1126479E+00
         25   -1    0    0    0    0  0.00000000000E+00  0.00000000000E+00  0.99999998245E-14  0.12500000000E+03  0.12500000000E+03 0.  0.
    3000001    1    3    3    0    0  0.40086326785E+02  0.47092308779E+01 -0.38678833200E+02  0.55911918123E+02  0.10000000000E+01 0.  1.
    1000022    2    1    0    0    0  0.46457888314E+02  0.46082291918E+01 -0.40332115795E+02  0.62500001407E+02  0.99999724214E+01 0.  0.
    3000022    2    3    3    0    0  0.63715615290E+01 -0.10100168612E+00 -0.16532825957E+01  0.65880832831E+01  0.25000068983E+00 0.  0.
    1000022    2    1    0    0    0 -0.46457888314E+02 -0.46082291918E+01  0.40332115795E+02  0.62499998593E+02  0.99999548397E+01 0.  0.
    3000022    2    5    5    0    0 -0.29040613463E+02 -0.39100018136E+01  0.31171596324E+02  0.42782896837E+02  0.24999976350E+00 0.  0.
        -13    1    4    4    0    0  0.23286041872E+01 -0.84385675345E-01 -0.56868298671E+00  0.24008214723E+01  0.10500000000E+00 0. -1.
         13    1    4    4    0    0  0.40429573419E+01 -0.16616010771E-01 -0.10845996090E+01  0.41872618107E+01  0.10500000000E+00 0.  1.
    3000001    1    5    5    0    0 -0.17417274851E+02 -0.69822737821E+00  0.91605194717E+01  0.19717101757E+02  0.10000000000E+01 0.  1.
        -13    1    6    6    0    0 -0.17913375302E+02 -0.23500514734E+01  0.19220285004E+02  0.26378819861E+02  0.10500000000E+00 0. -1.
         13    1    6    6    0    0 -0.11127238161E+02 -0.15599503402E+01  0.11951311319E+02  0.16404076975E+02  0.10500000000E+00 0.  1.
</event>
<event>
11    0  0.3482687E-009  0.9118800E+02  0.7816531E-02  0.1126479E+00
         25   -1    0    0    0    0  0.00000000000E+00  0.00000000000E+00  0.99999998245E-14  0.12500000000E+03  0.12500000000E+03 0.  0.
    3000001    1    3    3    0    0  0.98864809583E+00  0.18582011492E+01  0.87957957105E+00  0.24907823651E+01  0.10000000000E+01 0. -1.
    1000022    2    1    0    0    0  0.56881207745E+02  0.20740432018E+02  0.11858035451E+02  0.62499997168E+02  0.99999663196E+01 0.  0.
    3000022    2    3    3    0    0  0.55892559649E+02  0.18882230869E+02  0.10978455880E+02  0.60009214803E+02  0.25000202617E+00 0.  0.
    1000022    2    1    0    0    0 -0.56881207745E+02 -0.20740432018E+02 -0.11858035451E+02  0.62500002832E+02  0.10000001719E+02 0.  0.
    3000022    2    5    5    0    0 -0.30901744661E+02 -0.14214482455E+02 -0.10743989580E+02  0.35671629455E+02  0.25000267364E+00 0.  0.
        -13    1    4    4    0    0  0.27987163742E+02  0.94161480146E+01  0.55529400986E+01  0.30046486425E+02  0.10500000000E+00 0.  1.
         13    1    4    4    0    0  0.27905395908E+02  0.94660828543E+01  0.54255157816E+01  0.29962728378E+02  0.10500000000E+00 0. -1.
    3000001    1    5    5    0    0 -0.25979463084E+02 -0.65259495635E+01 -0.11140458715E+01  0.26828373377E+02  0.10000000000E+01 0. -1.
        -13    1    6    6    0    0 -0.19511368108E+02 -0.90368729456E+01 -0.67721742846E+01  0.22543999814E+02  0.10500000000E+00 0.  1.
         13    1    6    6    0    0 -0.11390376553E+02 -0.51776095090E+01 -0.39718152951E+01  0.13127629641E+02  0.10500000000E+00 0. -1.
</event>
<event>
11    0  0.3482687E-009  0.9118800E+02  0.7816531E-02  0.1126479E+00
         25   -1    0    0    0    0  0.00000000000E+00  0.00000000000E+00  0.99999998245E-14  0.12500000000E+03  0.12500000000E+03 0.  0.
    3000001    1    3    3    0    0 -0.15911119053E+02 -0.12948778626E+02 -0.14970160095E+02  0.25415355018E+02  0.10000000000E+01 0. -1.
    1000022    2    1    0    0    0 -0.40111791000E+02 -0.38390410104E+02 -0.26897407951E+02  0.62499999712E+02  0.10000002218E+02 0.  0.
    3000022    2    3    3    0    0 -0.24200671947E+02 -0.25441631478E+02 -0.11927247856E+02  0.37084644694E+02  0.24999144391E+00 0.  0.
    1000022    2    1    0    0    0  0.40111791000E+02  0.38390410104E+02  0.26897407951E+02  0.62500000288E+02  0.10000005814E+02 0.  0.
    3000022    2    5    5    0    0  0.14214438095E+01 -0.75200956306E-01  0.21330714230E+01  0.25765611035E+01  0.25003147224E+00 0.  0.
        -13    1    4    4    0    0 -0.81079023209E+01 -0.85157474822E+01 -0.40506443123E+01  0.12436831573E+02  0.10500000000E+00 0.  1.
         13    1    4    4    0    0 -0.16092769626E+02 -0.16925883996E+02 -0.78766035432E+01  0.24647813121E+02  0.10500000000E+00 0. -1.
    3000001    1    5    5    0    0  0.38690347191E+02  0.38465611060E+02  0.24764336528E+02  0.59923439184E+02  0.10000000000E+01 0. -1.
        -13    1    6    6    0    0  0.64635320781E+00  0.26834912863E-01  0.10170531838E+01  0.12099234523E+01  0.10500000000E+00 0.  1.
         13    1    6    6    0    0  0.77509060170E+00 -0.10203586917E+00  0.11160182392E+01  0.13666376512E+01  0.10500000000E+00 0. -1.
</event>
<event>
11    0  0.3482687E-009  0.9118800E+02  0.7816531E-02  0.1126479E+00
         25   -1    0    0    0    0  0.00000000000E+00  0.00000000000E+00  0.99999998245E-14  0.12500000000E+03  0.12500000000E+03 0.  0.
    3000001    1    3    3    0    0  0.34837465451E+02  0.34598001339E+01  0.40306132636E+02  0.53396662294E+02  0.10000000000E+01 0. -1.
    1000022    2    1    0    0    0  0.43110761601E+02  0.28259977418E+01  0.44042320809E+02  0.62499999553E+02  0.99999946390E+01 0.  0.
    3000022    2    3    3    0    0  0.82732961496E+01 -0.63380239216E+00  0.37361881729E+01  0.91033372588E+01  0.25002506363E+00 0.  0.
    1000022    2    1    0    0    0 -0.43110761601E+02 -0.28259977418E+01 -0.44042320809E+02  0.62500000447E+02  0.10000000232E+02 0.  0.
    3000022    2    5    5    0    0 -0.30904055571E+02  0.13871338925E+01 -0.34951481048E+02  0.46676046522E+02  0.25000062712E+00 0.  0.
        -13    1    4    4    0    0  0.47806878375E+01 -0.30624595208E+00  0.21286190427E+01  0.52431676315E+01  0.10500000000E+00 0. -1.
         13    1    4    4    0    0  0.34926083121E+01 -0.32755644008E+00  0.16075691302E+01  0.38601696273E+01  0.10500000000E+00 0.  1.
    3000001    1    5    5    0    0 -0.12206706030E+02 -0.42131316343E+01 -0.90908397605E+01  0.15823953925E+02  0.10000000000E+01 0.  1.
        -13    1    6    6    0    0 -0.19069194945E+02  0.81931144961E+00 -0.21490495842E+02  0.28742962681E+02  0.10500000000E+00 0. -1.
         13    1    6    6    0    0 -0.11834860625E+02  0.56782244294E+00 -0.13460985206E+02  0.17933083842E+02  0.10500000000E+00 0.  1.
</event>
<event>
11    0  0.3482687E-009  0.9118800E+02  0.7816531E-02  0.1126479E+00
         25   -1    0    0    0    0  0.00000000000E+00  0.00000000000E+00  0.99999998245E-14  0.12500000000E+03  0.12500000000E+03 0.  0.
    3000001    1    3    3    0    0 -0.70337329681E+01  0.22709665935E+01 -0.90076442158E+01  0.11694799830E+02  0.10000000000E+01 0. -1.
    1000022    2    1    0    0    0 -0.50508825585E+02  0.32758766288E+01 -0.35275733545E+02  0.62500001706E+02  0.10000000322E+02 0.  0.
    3000022    2    3    3    0    0 -0.43475092617E+02  0.10049100353E+01 -0.26268089329E+02  0.50805201876E+02  0.24999692579E+00 0.  0.
    1000022    2    1    0    0    0  0.50508825585E+02 -0.32758766288E+01  0.35275733545E+02  0.62499998294E+02  0.99999789987E+01 0.  0.
    3000022    2    5    5    0    0  0.73240716007E+01  0.30426333084E+01  0.52062632784E+01  0.94903804251E+01  0.25000205585E+00 0.  0.
        -13    1    4    4    0    0 -0.25584659836E+02  0.53144033880E+00 -0.15484231548E+02  0.29910361071E+02  0.10500000000E+00 0.  1.
         13    1    4    4    0    0 -0.17890432781E+02  0.47346969649E+00 -0.10783857781E+02  0.20894840806E+02  0.10500000000E+00 0. -1.
    3000001    1    5    5    0    0  0.43184753984E+02 -0.63185099372E+01  0.30069470266E+02  0.53009617869E+02  0.10000000000E+01 0.  1.
        -13    1    6    6    0    0  0.27691806922E+01  0.10966596886E+01  0.19964639385E+01  0.35871879567E+01  0.10500000000E+00 0.  1.
         13    1    6    6    0    0  0.45548909085E+01  0.19459736198E+01  0.32097993398E+01  0.59031924684E+01  0.10500000000E+00 0. -1.
</event>
<event>
11    0  0.3482687E-009  0.9118800E+02  0.7816531E-02  0.1126479E+00
         25   -1    0    0    0    0  0.00000000000E+00  0.00000000000E+00  0.99999998245E-14  0.12500000000E+03  0.12500000000E+03 0.  0.
    3000001    1    3    3    0    0 -0.64498355122E+00  0.82983343450E+00  0.47284600190E+00  0.15258475192E+01  0.10000000000E+01 0. -1.
    1000022    2    1    0    0    0 -0.59509031339E+02  0.13242835981E+02 -0.94632335166E+01  0.62499997197E+02  0.99999672669E+01 0.  0.
    3000022    2    3    3    0    0 -0.58864047788E+02  0.12413002547E+02 -0.99360795185E+01  0.60974149678E+02  0.24999716019E+00 0.  0.
    1000022    2    1    0    0    0  0.59509031339E+02 -0.13242835981E+02  0.94632335166E+01  0.62500002803E+02  0.10000002302E+02 0.  0.
    3000022    2    5    5    0    0  0.39617939295E+02 -0.10120406583E+02  0.17915951704E+01  0.40930136254E+02  0.24999414648E+00 0.  0.
        -13    1    4    4    0    0 -0.25402059152E+02  0.52896437656E+01 -0.42839812556E+01  0.26298449778E+02  0.10500000000E+00 0.  1.
         13    1    4    4    0    0 -0.33461988635E+02  0.71233587812E+01 -0.56520982629E+01  0.34675699900E+02  0.10500000000E+00 0. -1.
    3000001    1    5    5    0    0  0.19891092043E+02 -0.31224293987E+01  0.76716383463E+01  0.21569866549E+02  0.10000000000E+01 0. -1.
        -13    1    6    6    0    0  0.24090464041E+02 -0.62122705015E+01  0.11159002265E+01  0.24903795309E+02  0.10500000000E+00 0.  1.
         13    1    6    6    0    0  0.15527475255E+02 -0.39081360811E+01  0.67569494388E+00  0.16026340945E+02  0.10500000000E+00 0. -1.
</event>
<event>
11    0  0.3482687E-009  0.9118800E+02  0.7816531E-02  0.1126479E+00
         25   -1    0    0    0    0  0.00000000000E+00  0.00000000000E+00  0.99999998245E-14  0.12500000000E+03  0.12500000000E+03 0.  0.
    3000001    1    3    3    0    0 -0.12162126442E+02 -0.10859651712E+02  0.17323341007E+02  0.23810659347E+02  0.10000000000E+01 0.  1.
    1000022    2    1    0    0    0 -0.20273280010E+02 -0.31889089512E+02  0.48768125700E+02  0.62499999519E+02  0.99999971658E+01 0.  0.
    3000022    2    3    3    0    0 -0.81111535686E+01 -0.21029437800E+02  0.31444784693E+02  0.38689340172E+02  0.24998435907E+00 0.  0.
    1000022    2    1    0    0    0  0.20273280010E+02  0.31889089512E+02 -0.48768125700E+02  0.62500000481E+02  0.10000003175E+02 0.  0.
    3000022    2    5    5    0    0  0.72141346323E+01  0.20452440181E+02 -0.26301953021E+02  0.34091073349E+02  0.25000303261E+00 0.  0.
        -13    1    4    4    0    0 -0.26754155391E+01 -0.70849593537E+01  0.10552480577E+02  0.12989240497E+02  0.10500000000E+00 0.  1.
         13    1    4    4    0    0 -0.54357380295E+01 -0.13944478446E+02  0.20892304116E+02  0.25700099675E+02  0.10500000000E+00 0. -1.
    3000001    1    5    5    0    0  0.13059145378E+02  0.11436649331E+02 -0.22466172680E+02  0.28408927132E+02  0.10000000000E+01 0. -1.
        -13    1    6    6    0    0  0.40123861405E+01  0.11279521790E+02 -0.14427113237E+02  0.18747785888E+02  0.10500000000E+00 0. -1.
         13    1    6    6    0    0  0.32017484918E+01  0.91729183914E+01 -0.11874839783E+02  0.15343287460E+02  0.10500000000E+00 0.  1.
</event>
<event>
11    0  0.3482687E-009  0.9118800E+02  0.7816531E-02  0.1126479E+00
         25   -1    0    0    0    0  0.00000000000E+00  0.00000000000E+00  0.99999998245E-14  0.12500000000E+03  0.12500000000E+03 0.  0.
    3000001    1    3    3    0    0 -0.48119242989E+02 -0.79169560128E+01  0.24943175960E+02  0.54784137899E+02  0.10000000000E+01 0.  1.
    1000022    2    1    0    0    0 -0.55830545699E+02 -0.79711062340E+01  0.25013234946E+02  0.62500000102E+02  0.99999861337E+01 0.  0.
    3000022    2    3    3    0    0 -0.77113027104E+01 -0.54150221195E-01  0.70058985702E-01  0.77158622037E+01  0.24999909345E+00 0.  0.
    1000022    2    1    0    0    0  0.55830545699E+02  0.79711062340E+01 -0.25013234946E+02  0.62499999898E+02  0.99999848543E+01 0.  0.
    3000022    2    5    5    0    0  0.43583092782E+02  0.28138013377E+01 -0.16506100697E+02  0.46689584664E+02  0.25000281463E+00 0.  0.
        -13    1    4    4    0    0 -0.38234512565E+01 -0.79877140486E-01 -0.75337662122E-02  0.38257341290E+01  0.10500000000E+00 0. -1.
         13    1    4    4    0    0 -0.38878514539E+01  0.25726919291E-01  0.77592751914E-01  0.38901280747E+01  0.10500000000E+00 0.  1.
    3000001    1    5    5    0    0  0.12247452917E+02  0.51573048963E+01 -0.85071342484E+01  0.15810415234E+02  0.10000000000E+01 0. -1.
        -13    1    6    6    0    0  0.19074729108E+02  0.12966124516E+01 -0.72382024164E+01  0.20443314155E+02  0.10500000000E+00 0.  1.
         13    1    6    6    0    0  0.24508363674E+02  0.15171888862E+01 -0.92678982809E+01  0.26246270509E+02  0.10500000000E+00 0. -1.
</event>
<event>
11    0  0.3482687E-009  0.9118800E+02  0.7816531E-02  0.1126479E+00
         25   -1    0    0    0    0  0.00000000000E+00  0.00000000000E+00  0.99999998245E-14  0.12500000000E+03  0.12500000000E+03 0.  0.
    3000001    1    3    3    0    0  0.16877115269E+02  0.75546999482E+01 -0.48666078415E+01  0.19146654616E+02  0.10000000000E+01 0. -1.
    1000022    2    1    0    0    0  0.46803367356E+02  0.36913710128E+02 -0.15908259787E+02  0.62500000909E+02  0.10000009642E+02 0.  0.
    3000022    2    3    3    0    0  0.29926252088E+02  0.29359010180E+02 -0.11041651945E+02  0.43353346293E+02  0.25002869514E+00 0.  0.
    1000022    2    1    0    0    0 -0.46803367356E+02 -0.36913710128E+02  0.15908259787E+02  0.62499999091E+02  0.99999982816E+01 0.  0.
    3000022    2    5    5    0    0 -0.10802891067E+02 -0.50425931235E+01  0.61935754721E+01  0.13437004039E+02  0.24999918387E+00 0.  0.
        -13    1    4    4    0    0  0.14985927884E+02  0.14793189199E+02 -0.55266154963E+01  0.21770874697E+02  0.10500000000E+00 0.  1.
         13    1    4    4    0    0  0.14940324204E+02  0.14565820981E+02 -0.55150364489E+01  0.21582471596E+02  0.10500000000E+00 0. -1.
    3000001    1    5    5    0    0 -0.36000476289E+02 -0.31871117005E+02  0.97146843145E+01  0.49062995052E+02  0.10000000000E+01 0. -1.
        -13    1    6    6    0    0 -0.69753766212E+01 -0.32535647645E+01  0.39337931046E+01  0.86444962765E+01  0.10500000000E+00 0. -1.
         13    1    6    6    0    0 -0.38275144459E+01 -0.17890283589E+01  0.22597823675E+01  0.47925077622E+01  0.10500000000E+00 0.  1.
</event>
<event>
11    0  0.3482687E-009  0.9118800E+02  0.7816531E-02  0.1126479E+00
         25   -1    0    0    0    0  0.00000000000E+00  0.00000000000E+00  0.99999998245E-14  0.12500000000E+03  0.12500000000E+03 0.  0.
    3000001    1    3    3    0    0  0.26387617470E+02 -0.27741125048E+02  0.15262257251E+02  0.41228786922E+02  0.10000000000E+01 0.  1.
    1000022    2    1    0    0    0  0.41782297488E+02 -0.36413233208E+02  0.27102881113E+02  0.62500000074E+02  0.99999954286E+01 0.  0.
    3000022    2    3    3    0    0  0.15394680018E+02 -0.86721081600E+01  0.11840623861E+02  0.21271213151E+02  0.25000543040E+00 0.  0.
    1000022    2    1    0    0    0 -0.41782297488E+02  0.36413233208E+02 -0.27102881113E+02  0.62499999926E+02  0.99999945091E+01 0.  0.
    3000022    2    5    5    0    0 -0.39033911421E+02  0.33263503293E+02 -0.27483210259E+02  0.58185017334E+02  0.25000780800E+00 0.  0.
        -13    1    4    4    0    0  0.88371423216E+01 -0.49621365845E+01  0.68683199611E+01  0.12243476957E+02  0.10500000000E+00 0. -1.
         13    1    4    4    0    0  0.65575376960E+01 -0.37099715755E+01  0.49723039003E+01  0.90277361948E+01  0.10500000000E+00 0.  1.
    3000001    1    5    5    0    0 -0.27483860669E+01  0.31497299151E+01  0.38032914665E+00  0.43149825921E+01  0.10000000000E+01 0. -1.
        -13    1    6    6    0    0 -0.27583639642E+02  0.23458512093E+02 -0.19433423694E+02  0.41095351891E+02  0.10500000000E+00 0.  1.
         13    1    6    6    0    0 -0.11450271778E+02  0.98049912000E+01 -0.80497865653E+01  0.17089665444E+02  0.10500000000E+00 0. -1.
</event>
<event>
11    0  0.3482687E-009  0.9118800E+02  0.7816531E-02  0.1126479E+00
         25   -1    0    0    0    0  0.00000000000E+00  0.00000000000E+00  0.99999998245E-14  0.12500000000E+03  0.12500000000E+03 0.  0.
    3000001    1    3    3    0    0 -0.25257015154E+02  0.45031827315E+02 -0.16368131592E+02  0.54172853143E+02  0.10000000000E+01 0. -1.
    1000022    2    1    0    0    0 -0.29850680755E+02  0.49419425801E+02 -0.21746428784E+02  0.62499999555E+02  0.99999995761E+01 0.  0.
    3000022    2    3    3    0    0 -0.45936656007E+01  0.43875984860E+01 -0.53782971917E+01  0.83271464123E+01  0.25000512812E+00 0.  0.
    1000022    2    1    0    0    0  0.29850680755E+02 -0.49419425801E+02  0.21746428784E+02  0.62500000445E+02  0.10000005139E+02 0.  0.
    3000022    2    5    5    0    0  0.92693122551E+01 -0.18188891300E+02  0.12569697726E+02  0.23975314756E+02  0.25000064475E+00 0.  0.
        -13    1    4    4    0    0 -0.15802712270E+01  0.14363906068E+01 -0.17935039064E+01  0.27907268566E+01  0.10500000000E+00 0. -1.
         13    1    4    4    0    0 -0.30133943737E+01  0.29512078792E+01 -0.35847932853E+01  0.55364195556E+01  0.10500000000E+00 0.  1.
    3000001    1    5    5    0    0  0.20581368500E+02 -0.31230534500E+02  0.91767310576E+01  0.38524685689E+02  0.10000000000E+01 0.  1.
        -13    1    6    6    0    0  0.67070394960E+01 -0.13092468037E+02  0.90856305976E+01  0.17290367447E+02  0.10500000000E+00 0. -1.
         13    1    6    6    0    0  0.25622727590E+01 -0.50964232631E+01  0.34840671285E+01  0.66849473090E+01  0.10500000000E+00 0.  1.
</event>
<event>
11    0  0.3482687E-009  0.9118800E+02  0.7816531E-02  0.1126479E+00
         25   -1    0    0    0    0  0.00000000000E+00  0.00000000000E+00  0.99999998245E-14  0.12500000000E+03  0.12500000000E+03 0.  0.
    3000001    1    3    3    0    0 -0.12106568817E+02 -0.49729576533E+02  0.72576148567E+01  0.51703701648E+02  0.10000000000E+01 0.  1.
    1000022    2    1    0    0    0 -0.15875050325E+02 -0.58246044918E+02  0.12713423804E+02  0.62499999033E+02  0.99999881427E+01 0.  0.
    3000022    2    3    3    0    0 -0.37684815082E+01 -0.85164683848E+01  0.54558089474E+01  0.10796297385E+02  0.24999864715E+00 0.  0.
    1000022    2    1    0    0    0  0.15875050325E+02  0.58246044918E+02 -0.12713423804E+02  0.62500000967E+02  0.10000000236E+02 0.  0.
    3000022    2    5    5    0    0  0.19952161903E+01  0.24136763661E+02 -0.30249894902E+01  0.24408550182E+02  0.25002582348E+00 0.  0.
        -13    1    4    4    0    0 -0.23799756195E+01 -0.54648490051E+01  0.34374730633E+01  0.68815771927E+01  0.10500000000E+00 0. -1.
         13    1    4    4    0    0 -0.13885058887E+01 -0.30516193797E+01  0.20183358841E+01  0.39147201922E+01  0.10500000000E+00 0.  1.
    3000001    1    5    5    0    0  0.13879834135E+02  0.34109281257E+02 -0.96884343139E+01  0.38091450785E+02  0.10000000000E+01 0.  1.
        -13    1    6    6    0    0  0.11993896640E+01  0.14116435393E+02 -0.17133316496E+01  0.14270907964E+02  0.10500000000E+00 0. -1.
         13    1    6    6    0    0  0.79582652634E+00  0.10020328267E+02 -0.13116578406E+01  0.10137642218E+02  0.10500000000E+00 0.  1.
</event>
<event>
11    0  0.3482687E-009  0.9118800E+02  0.7816531E-02  0.1126479E+00
         25   -1    0    0    0    0  0.00000000000E+00  0.00000000000E+00  0.99999998245E-14  0.12500000000E+03  0.12500000000E+03 0.  0.
    3000001    1    3    3    0    0  0.24160992033E+01  0.19841553249E+02 -0.38356334256E+02  0.43263531389E+02  0.10000000000E+01 0.  1.
    1000022    2    1    0    0    0 -0.30543516828E+01  0.27819202850E+02 -0.54981931851E+02  0.62499999921E+02  0.10000002431E+02 0.  0.
    3000022    2    3    3    0    0 -0.54704508860E+01  0.79776496011E+01 -0.16625597595E+02  0.19236468532E+02  0.25000026253E+00 0.  0.
    1000022    2    1    0    0    0  0.30543516828E+01 -0.27819202850E+02  0.54981931851E+02  0.62500000079E+02  0.10000003415E+02 0.  0.
    3000022    2    5    5    0    0  0.27867454909E+01 -0.28335441803E+02  0.53636846196E+02  0.60725916893E+02  0.24999993946E+00 0.  0.
        -13    1    4    4    0    0 -0.27356932631E+01  0.38756877944E+01 -0.81107729521E+01  0.93968418306E+01  0.10500000000E+00 0. -1.
         13    1    4    4    0    0 -0.27347576230E+01  0.41019618066E+01 -0.85148246429E+01  0.98396267012E+01  0.10500000000E+00 0.  1.
    3000001    1    5    5    0    0  0.26760619184E+00  0.51623895311E+00  0.13450856554E+01  0.17740831860E+01  0.10000000000E+01 0.  1.
        -13    1    6    6    0    0  0.21497074587E+01 -0.21830185085E+02  0.41312239229E+02  0.46774890252E+02  0.10500000000E+00 0. -1.
         13    1    6    6    0    0  0.63703803222E+00 -0.65052567189E+01  0.12324606967E+02  0.13951026640E+02  0.10500000000E+00 0.  1.
</event>
<event>
11    0  0.3482687E-009  0.9118800E+02  0.7816531E-02  0.1126479E+00
         25   -1    0    0    0    0  0.00000000000E+00  0.00000000000E+00  0.99999998245E-14  0.12500000000E+03  0.12500000000E+03 0.  0.
    3000001    1    3    3    0    0 -0.10498407410E+02  0.67972290358E+01  0.11429958700E+02  0.16972413988E+02  0.10000000000E+01 0. -1.
    1000022    2    1    0    0    0 -0.35887782274E+02  0.10796615467E+02  0.49007653344E+02  0.62499999892E+02  0.10000003905E+02 0.  0.
    3000022    2    3    3    0    0 -0.25389374863E+02  0.39993864313E+01  0.37577694645E+02  0.45527585903E+02  0.24999122635E+00 0.  0.
    1000022    2    1    0    0    0  0.35887782274E+02 -0.10796615467E+02 -0.49007653344E+02  0.62500000108E+02  0.10000005258E+02 0.  0.
    3000022    2    5    5    0    0  0.17598301326E+02 -0.15192175023E+00 -0.21930995002E+02  0.28120354319E+02  0.24999086498E+00 0.  0.
        -13    1    4    4    0    0 -0.68570232767E+01  0.11038829122E+01  0.10203474483E+02  0.12343388604E+02  0.10500000000E+00 0. -1.
         13    1    4    4    0    0 -0.18532351587E+02  0.28955035191E+01  0.27374220162E+02  0.33184197300E+02  0.10500000000E+00 0.  1.
    3000001    1    5    5    0    0  0.18289480947E+02 -0.10644693717E+02 -0.27076658342E+02  0.34379645789E+02  0.10000000000E+01 0.  1.
        -13    1    6    6    0    0  0.10336738329E+02 -0.35865925438E-01 -0.12937708139E+02  0.16560337029E+02  0.10500000000E+00 0. -1.
         13    1    6    6    0    0  0.72615629977E+01 -0.11605582479E+00 -0.89932868637E+01  0.11560017290E+02  0.10500000000E+00 0.  1.
</event>
<event>
11    0  0.3482687E-009  0.9118800E+02  0.7816531E-02  0.1126479E+00
         25   -1    0    0    0    0  0.00000000000E+00  0.00000000000E+00  0.99999998245E-14  0.12500000000E+03  0.12500000000E+03 0.  0.
    3000001    1    3    3    0    0 -0.16866900504E+02 -0.48375263021E+02 -0.34739239633E+02  0.61906971944E+02  0.10000000000E+01 0. -1.
    1000022    2    1    0    0    0 -0.17019197139E+02 -0.48426962245E+02 -0.34226104404E+02  0.62499999881E+02  0.10000000949E+02 0.  0.
    3000022    2    3    3    0    0 -0.15229663487E+00 -0.51699223379E-01  0.51313522894E+00  0.59302793735E+00  0.25001459278E+00 0.  0.
    1000022    2    1    0    0    0  0.17019197139E+02  0.48426962245E+02  0.34226104404E+02  0.62500000119E+02  0.10000002434E+02 0.  0.
    3000022    2    5    5    0    0  0.23400676188E+01  0.14947542476E+02  0.58931700224E+01  0.16238746762E+02  0.25000187116E+00 0.  0.
        -13    1    4    4    0    0 -0.14372493881E+00 -0.67879479547E-01  0.33926166391E+00  0.38908605524E+00  0.10500000000E+00 0. -1.
         13    1    4    4    0    0 -0.85716960645E-02  0.16180256168E-01  0.17387356503E+00  0.20394188211E+00  0.10500000000E+00 0.  1.
    3000001    1    5    5    0    0  0.14679129520E+02  0.33479419768E+02  0.28332934382E+02  0.46261253357E+02  0.10000000000E+01 0. -1.
        -13    1    6    6    0    0  0.74895286549E+00  0.44972985285E+01  0.17622474295E+01  0.48890863617E+01  0.10500000000E+00 0. -1.
         13    1    6    6    0    0  0.15911147533E+01  0.10450243948E+02  0.41309225929E+01  0.11349660400E+02  0.10500000000E+00 0.  1.
</event>
<event>
11    0  0.3482687E-009  0.9118800E+02  0.7816531E-02  0.1126479E+00
         25   -1    0    0    0    0  0.00000000000E+00  0.00000000000E+00  0.99999998245E-14  0.12500000000E+03  0.12500000000E+03 0.  0.
    3000001    1    3    3    0    0 -0.33671965650E+01  0.14367946690E+01  0.12416739491E+02  0.12983751816E+02  0.10000000000E+01 0. -1.
    1000022    2    1    0    0    0 -0.17962048727E+02  0.24829576934E+02  0.53545371770E+02  0.62500000328E+02  0.10000005893E+02 0.  0.
    3000022    2    3    3    0    0 -0.14594852162E+02  0.23392782265E+02  0.41128632278E+02  0.49516248512E+02  0.25000376455E+00 0.  0.
    1000022    2    1    0    0    0  0.17962048727E+02 -0.24829576934E+02 -0.53545371770E+02  0.62499999672E+02  0.10000001793E+02 0.  0.
    3000022    2    5    5    0    0  0.74020681492E+01 -0.38303252315E+01 -0.18476105917E+02  0.20270446403E+02  0.25000649973E+00 0.  0.
        -13    1    4    4    0    0 -0.10338797177E+02  0.16651301301E+02  0.29227460215E+02  0.35191078667E+02  0.10500000000E+00 0.  1.
         13    1    4    4    0    0 -0.42560549848E+01  0.67414809633E+01  0.11901172064E+02  0.14325169845E+02  0.10500000000E+00 0. -1.
    3000001    1    5    5    0    0  0.10559980578E+02 -0.20999251702E+02 -0.35069265852E+02  0.42229553269E+02  0.10000000000E+01 0. -1.
        -13    1    6    6    0    0  0.44757461153E+01 -0.22906465639E+01 -0.11001901383E+02  0.12096785689E+02  0.10500000000E+00 0.  1.
         13    1    6    6    0    0  0.29263220339E+01 -0.15396786676E+01 -0.74742045346E+01  0.81736607142E+01  0.10500000000E+00 0. -1.
</event>
<event>
11    0  0.3482687E-009  0.9118800E+02  0.7816531E-02  0.1126479E+00
         25   -1    0    0    0    0  0.00000000000E+00  0.00000000000E+00  0.99999998245E-14  0.12500000000E+03  0.12500000000E+03 0.  0.
    3000001    1    3    3    0    0  0.25219464432E+02 -0.20846390967E+02  0.36712025746E+02  0.49187053551E+02  0.10000000000E+01 0.  1.
    1000022    2    1    0    0    0  0.35179706051E+02 -0.27384556518E+02  0.42646504052E+02  0.62500000472E+02  0.10000004883E+02 0.  0.
    3000022    2    3    3    0    0  0.99602416186E+01 -0.65381655506E+01  0.59344783056E+01  0.13312946921E+02  0.25000220448E+00 0.  0.
    1000022    2    1    0    0    0 -0.35179706051E+02  0.27384556518E+02 -0.42646504052E+02  0.62499999528E+02  0.99999989826E+01 0.  0.
    3000022    2    5    5    0    0 -0.32714114774E+02  0.26996821734E+02 -0.37164805939E+02  0.56394387945E+02  0.25000399250E+00 0.  0.
        -13    1    4    4    0    0  0.54323764530E+01 -0.35605608749E+01  0.31605648777E+01  0.72241610598E+01  0.10500000000E+00 0.  1.
         13    1    4    4    0    0  0.45278651655E+01 -0.29776046757E+01  0.27739134279E+01  0.60887858615E+01  0.10500000000E+00 0. -1.
    3000001    1    5    5    0    0 -0.24655912771E+01  0.38773478404E+00 -0.54816981127E+01  0.61056115834E+01  0.10000000000E+01 0. -1.
        -13    1    6    6    0    0 -0.21216587643E+02  0.17566661721E+02 -0.24089078700E+02  0.36592703274E+02  0.10500000000E+00 0.  1.
         13    1    6    6    0    0 -0.11497527130E+02  0.94301600123E+01 -0.13075727239E+02  0.19801684671E+02  0.10500000000E+00 0. -1.
</event>
<event>
11    0  0.3482687E-009  0.9118800E+02  0.7816531E-02  0.1126479E+00
         25   -1    0    0    0    0  0.00000000000E+00  0.00000000000E+00  0.99999998245E-14  0.12500000000E+03  0.12500000000E+03 0.  0.
    3000001    1    3    3    0    0  0.34896236738E+02  0.33146777474E+02  0.18573621625E+02  0.51598794711E+02  0.10000000000E+01 0.  1.
    1000022    2    1    0    0    0  0.43943327924E+02  0.39219503638E+02  0.18359312669E+02  0.62500001240E+02  0.10000012937E+02 0.  0.
    3000022    2    3    3    0    0  0.90470911855E+01  0.60727261642E+01 -0.21430895565E+00  0.10901206529E+02  0.25002695691E+00 0.  0.
    1000022    2    1    0    0    0 -0.43943327924E+02 -0.39219503638E+02 -0.18359312669E+02  0.62499998760E+02  0.99999974321E+01 0.  0.
    3000022    2    5    5    0    0 -0.24641786137E+02 -0.26992006974E+02 -0.81117720401E+01  0.37438608555E+02  0.25000088414E+00 0.  0.
        -13    1    4    4    0    0  0.46995502655E+01  0.30980365260E+01 -0.15958029312E+00  0.56320594710E+01  0.10500000000E+00 0.  1.
         13    1    4    4    0    0  0.43475409199E+01  0.29746896382E+01 -0.54728662523E-01  0.52691470582E+01  0.10500000000E+00 0. -1.
    3000001    1    5    5    0    0 -0.19301541787E+02 -0.12227496664E+02 -0.10247540629E+02  0.25061390204E+02  0.10000000000E+01 0. -1.
        -13    1    6    6    0    0 -0.94996714894E+01 -0.10496363963E+02 -0.31334546290E+01  0.14499895785E+02  0.10500000000E+00 0. -1.
         13    1    6    6    0    0 -0.15142114648E+02 -0.16495643011E+02 -0.49783174111E+01  0.22938712771E+02  0.10500000000E+00 0.  1.
</event>
<event>
11    0  0.3482687E-009  0.9118800E+02  0.7816531E-02  0.1126479E+00
         25   -1    0    0    0    0  0.00000000000E+00  0.00000000000E+00  0.99999998245E-14  0.12500000000E+03  0.12500000000E+03 0.  0.
    3000001    1    3    3    0    0 -0.24788734161E+01  0.10569589016E+01 -0.33364247052E+00  0.28936642568E+01  0.10000000000E+01 0.  1.
    1000022    2    1    0    0    0 -0.41332298624E+02  0.35542272888E+02  0.28890101591E+02  0.62499999885E+02  0.99999972060E+01 0.  0.
    3000022    2    3    3    0    0 -0.38853425208E+02  0.34485313986E+02  0.29223744062E+02  0.59606335628E+02  0.24999789483E+00 0.  0.
    1000022    2    1    0    0    0  0.41332298624E+02 -0.35542272888E+02 -0.28890101591E+02  0.62500000115E+02  0.99999986433E+01 0.  0.
    3000022    2    5    5    0    0  0.11144704908E+02 -0.11031188450E+02 -0.35619455359E+01  0.16082335763E+02  0.25000302447E+00 0.  0.
        -13    1    4    4    0    0 -0.18388599729E+02  0.16373455728E+02  0.13913751522E+02  0.28281339411E+02  0.10500000000E+00 0. -1.
         13    1    4    4    0    0 -0.20464825479E+02  0.18111858258E+02  0.15309992540E+02  0.31324996217E+02  0.10500000000E+00 0.  1.
    3000001    1    5    5    0    0  0.30187593716E+02 -0.24511084438E+02 -0.25328156055E+02  0.46417664351E+02  0.10000000000E+01 0.  1.
        -13    1    6    6    0    0  0.72392292561E+01 -0.72439191846E+01 -0.23316550310E+01  0.10503734839E+02  0.10500000000E+00 0.  1.
         13    1    6    6    0    0  0.39054756519E+01 -0.37872692651E+01 -0.12302905049E+01  0.55786009250E+01  0.10500000000E+00 0. -1.
</event>
<event>
11    0  0.3482687E-009  0.9118800E+02  0.7816531E-02  0.1126479E+00
         25   -1    0    0    0    0  0.00000000000E+00  0.00000000000E+00  0.99999998245E-14  0.12500000000E+03  0.12500000000E+03 0.  0.
    3000001    1    3    3    0    0  0.62030469113E+01 -0.14319311524E+02 -0.98694106529E+01  0.18491234144E+02  0.10000000000E+01 0. -1.
    1000022    2    1    0    0    0  0.69686568735E+01 -0.53314826197E+02 -0.30252556762E+02  0.62500000617E+02  0.10000000774E+02 0.  0.
    3000022    2    3    3    0    0  0.76560996221E+00 -0.38995514672E+02 -0.20383146109E+02  0.44008766473E+02  0.25011603022E+00 0.  0.
    1000022    2    1    0    0    0 -0.69686568735E+01  0.53314826197E+02  0.30252556762E+02  0.62499999383E+02  0.99999930650E+01 0.  0.
    3000022    2    5    5    0    0 -0.51746824683E+01  0.51929412675E+02  0.28469210899E+02  0.59447453354E+02  0.25000335977E+00 0.  0.
        -13    1    4    4    0    0  0.33190691381E+00 -0.14134522461E+02 -0.73643052470E+01  0.15941734666E+02  0.10500000000E+00 0.  1.
         13    1    4    4    0    0  0.43370304840E+00 -0.24860992211E+02 -0.13018840862E+02  0.28067031807E+02  0.10500000000E+00 0. -1.
    3000001    1    5    5    0    0 -0.17939744052E+01  0.13854135214E+01  0.17833458631E+01  0.30525460290E+01  0.10000000000E+01 0.  1.
        -13    1    6    6    0    0 -0.11962067897E+01  0.11946244560E+02  0.65456562885E+01  0.13674805703E+02  0.10500000000E+00 0. -1.
         13    1    6    6    0    0 -0.39784756786E+01  0.39983168115E+02  0.21923554610E+02  0.45772647651E+02  0.10500000000E+00 0.  1.
</event>
<event>
11    0  0.3482687E-009  0.9118800E+02  0.7816531E-02  0.1126479E+00
         25   -1    0    0    0    0  0.00000000000E+00  0.00000000000E+00  0.99999998245E-14  0.12500000000E+03  0.12500000000E+03 0.  0.
    3000001    1    3    3    0    0  0.22049527398E+02 -0.24845119180E+02  0.64285896011E+01  0.33849495857E+02  0.10000000000E+01 0.  1.
    1000022    2    1    0    0    0  0.44223372400E+02 -0.39411192650E+02  0.17242423777E+02  0.62500000288E+02  0.10000004291E+02 0.  0.
    3000022    2    3    3    0    0  0.22173845002E+02 -0.14566073470E+02  0.10813834176E+02  0.28650504431E+02  0.24999210691E+00 0.  0.
    1000022    2    1    0    0    0 -0.44223372400E+02  0.39411192650E+02 -0.17242423777E+02  0.62499999712E+02  0.10000000692E+02 0.  0.
    3000022    2    5    5    0    0 -0.55351301403E+01  0.88183171023E+01 -0.58463348115E+00  0.10430948435E+02  0.25001351338E+00 0.  0.
        -13    1    4    4    0    0  0.16051417697E+02 -0.10585571734E+02  0.78540882535E+01  0.20770172515E+02  0.10500000000E+00 0.  1.
         13    1    4    4    0    0  0.61224273051E+01 -0.39805017355E+01  0.29597459226E+01  0.78803319155E+01  0.10500000000E+00 0. -1.
    3000001    1    5    5    0    0 -0.38688242259E+02  0.30592875547E+02 -0.16657790296E+02  0.52069051277E+02  0.10000000000E+01 0.  1.
        -13    1    6    6    0    0 -0.30228307600E+01  0.46996885762E+01 -0.28715089429E+00  0.55962540286E+01  0.10500000000E+00 0.  1.
         13    1    6    6    0    0 -0.25122993803E+01  0.41186285260E+01 -0.29748258686E+00  0.48346944062E+01  0.10500000000E+00 0. -1.
</event>
<event>
11    0  0.3482687E-009  0.9118800E+02  0.7816531E-02  0.1126479E+00
         25   -1    0    0    0    0  0.00000000000E+00  0.00000000000E+00  0.99999998245E-14  0.12500000000E+03  0.12500000000E+03 0.  0.
    3000001    1    3    3    0    0  0.12178615328E+02  0.38071122964E+02  0.15545456642E+02  0.42899770363E+02  0.10000000000E+01 0. -1.
    1000022    2    1    0    0    0  0.16023548016E+02  0.52397650026E+02  0.28354580067E+02  0.62500000621E+02  0.10000002382E+02 0.  0.
    3000022    2    3    3    0    0  0.38449326883E+01  0.14326527062E+02  0.12809123425E+02  0.19600230258E+02  0.24999642545E+00 0.  0.
    1000022    2    1    0    0    0 -0.16023548016E+02 -0.52397650026E+02 -0.28354580067E+02  0.62499999379E+02  0.99999946137E+01 0.  0.
    3000022    2    5    5    0    0 -0.17081255134E+02 -0.46286480809E+02 -0.26167267065E+02  0.55847971739E+02  0.24999819515E+00 0.  0.
        -13    1    4    4    0    0  0.89132293055E+00  0.33790778359E+01  0.30218559453E+01  0.46211753853E+01  0.10500000000E+00 0.  1.
         13    1    4    4    0    0  0.29536097577E+01  0.10947449226E+02  0.97872674796E+01  0.14979054873E+02  0.10500000000E+00 0. -1.
    3000001    1    5    5    0    0  0.10577071177E+01 -0.61111692173E+01 -0.21873130016E+01  0.66520276395E+01  0.10000000000E+01 0.  1.
        -13    1    6    6    0    0 -0.99309647431E+01 -0.26766036137E+02 -0.15188184818E+02  0.32337852963E+02  0.10500000000E+00 0. -1.
         13    1    6    6    0    0 -0.71502903908E+01 -0.19520444672E+02 -0.10979082247E+02  0.23510118776E+02  0.10500000000E+00 0.  1.
</event>
<event>
11    0  0.3482687E-009  0.9118800E+02  0.7816531E-02  0.1126479E+00
         25   -1    0    0    0    0  0.00000000000E+00  0.00000000000E+00  0.99999998245E-14  0.12500000000E+03  0.12500000000E+03 0.  0.
    3000001    1    3    3    0    0  0.81325639098E+01  0.32768904843E+01 -0.39440430940E+01  0.96660272564E+01  0.10000000000E+01 0. -1.
    1000022    2    1    0    0    0  0.36909285307E+02  0.31830454536E+02 -0.37825613731E+02  0.62500003462E+02  0.10000010036E+02 0.  0.
    3000022    2    3    3    0    0  0.28776721397E+02  0.28553564051E+02 -0.33881570637E+02  0.52833976205E+02  0.24999677176E+00 0.  0.
    1000022    2    1    0    0    0 -0.36909285307E+02 -0.31830454536E+02  0.37825613731E+02  0.62499996538E+02  0.99999667643E+01 0.  0.
    3000022    2    5    5    0    0 -0.36846394350E+02 -0.31806115480E+02  0.37500871034E+02  0.61446428561E+02  0.24999223946E+00 0.  0.
        -13    1    4    4    0    0  0.12568729634E+02  0.12395305213E+02 -0.14704411585E+02  0.22974927661E+02  0.10500000000E+00 0. -1.
         13    1    4    4    0    0  0.16207991763E+02  0.16158258839E+02 -0.19177159052E+02  0.29859048545E+02  0.10500000000E+00 0.  1.
    3000001    1    5    5    0    0 -0.62890956792E-01 -0.24339055797E-01  0.32474269764E+00  0.10535679768E+01  0.10000000000E+01 0. -1.
        -13    1    6    6    0    0 -0.10155490525E+02 -0.88035516781E+01  0.10387562058E+02  0.16986729540E+02  0.10500000000E+00 0.  1.
         13    1    6    6    0    0 -0.26690903825E+02 -0.23002563802E+02  0.27113308976E+02  0.44459699021E+02  0.10500000000E+00 0. -1.
</event>
<event>
11    0  0.3482687E-009  0.9118800E+02  0.7816531E-02  0.1126479E+00
         25   -1    0    0    0    0  0.00000000000E+00  0.00000000000E+00  0.99999998245E-14  0.12500000000E+03  0.12500000000E+03 0.  0.
    3000001    1    3    3    0    0 -0.38562929196E+01 -0.48503900181E+01 -0.55937881183E+01  0.84076003665E+01  0.10000000000E+01 0. -1.
    1000022    2    1    0    0    0 -0.42451203556E+02 -0.39158498837E+02 -0.21696944685E+02  0.62499999200E+02  0.99999888392E+01 0.  0.
    3000022    2    3    3    0    0 -0.38594910637E+02 -0.34308108819E+02 -0.16103156566E+02  0.54092398834E+02  0.25000472812E+00 0.  0.
    1000022    2    1    0    0    0  0.42451203556E+02  0.39158498837E+02  0.21696944685E+02  0.62500000800E+02  0.99999988374E+01 0.  0.
    3000022    2    5    5    0    0  0.32173696450E+02  0.26374211297E+02  0.19409462220E+02  0.45907902191E+02  0.24999015068E+00 0.  0.
        -13    1    4    4    0    0 -0.21682951289E+02 -0.19362654328E+02 -0.90698903168E+01  0.30452203444E+02  0.10500000000E+00 0. -1.
         13    1    4    4    0    0 -0.16911959348E+02 -0.14945454491E+02 -0.70332662495E+01  0.23640195390E+02  0.10500000000E+00 0.  1.
    3000001    1    5    5    0    0  0.10277507106E+02  0.12784287540E+02  0.22874824650E+01  0.16592098609E+02  0.10000000000E+01 0. -1.
        -13    1    6    6    0    0  0.14521728915E+02  0.11845973939E+02  0.87977107536E+01  0.20703102394E+02  0.10500000000E+00 0. -1.
         13    1    6    6    0    0  0.17651967535E+02  0.14528237358E+02  0.10611751466E+02  0.25204799796E+02  0.10500000000E+00 0.  1.
</event>
<event>
11    0  0.3482687E-009  0.9118800E+02  0.7816531E-02  0.1126479E+00
         25   -1    0    0    0    0  0.00000000000E+00  0.00000000000E+00  0.99999998245E-14  0.12500000000E+03  0.12500000000E+03 0.  0.
    3000001    1    3    3    0    0 -0.32500758468E+02  0.21112906096E+02 -0.18896763333E+02  0.43129360873E+02  0.10000000000E+01 0. -1.
    1000022    2    1    0    0    0 -0.50452380805E+02  0.27335131348E+02 -0.22662700589E+02  0.62499998512E+02  0.99999840668E+01 0.  0.
    3000022    2    3    3    0    0 -0.17951622337E+02  0.62222252521E+01 -0.37659372560E+01  0.19370637639E+02  0.24997506805E+00 0.  0.
    1000022    2    1    0    0    0  0.50452380805E+02 -0.27335131348E+02  0.22662700589E+02  0.62500001488E+02  0.10000002663E+02 0.  0.
    3000022    2    5    5    0    0  0.48951848707E+02 -0.24237907103E+02  0.20709144010E+02  0.58418239869E+02  0.24994237463E+00 0.  0.
        -13    1    4    4    0    0 -0.54259531494E+01  0.19295314090E+01 -0.11484286624E+01  0.58731569390E+01  0.10500000000E+00 0. -1.
         13    1    4    4    0    0 -0.12525669187E+02  0.42926938432E+01 -0.26175085936E+01  0.13497480701E+02  0.10500000000E+00 0.  1.
    3000001    1    5    5    0    0  0.15005320974E+01 -0.30972242455E+01  0.19535565794E+01  0.40817616187E+01  0.10000000000E+01 0.  1.
        -13    1    6    6    0    0  0.14881696656E+02 -0.74174544824E+01  0.62862331872E+01  0.17776706080E+02  0.10500000000E+00 0.  1.
         13    1    6    6    0    0  0.34070152051E+02 -0.16820452620E+02  0.14422910823E+02  0.40641533789E+02  0.10500000000E+00 0. -1.
</event>
<event>
11    0  0.3482687E-009  0.9118800E+02  0.7816531E-02  0.1126479E+00
         25   -1    0    0    0    0  0.00000000000E+00  0.00000000000E+00  0.99999998245E-14  0.12500000000E+03  0.12500000000E+03 0.  0.
    3000001    1    3    3    0    0  0.10248490906E+01  0.11883488034E+02 -0.48985476245E+02  0.50426624778E+02  0.10000000000E+01 0. -1.
    1000022    2    1    0    0    0 -0.35040643563E+01  0.14548368211E+02 -0.59852455778E+02  0.62500000154E+02  0.10000003599E+02 0.  0.
    3000022    2    3    3    0    0 -0.45289134469E+01  0.26648801773E+01 -0.10866979532E+02  0.12073375376E+02  0.25001087874E+00 0.  0.
    1000022    2    1    0    0    0  0.35040643563E+01 -0.14548368211E+02  0.59852455778E+02  0.62499999846E+02  0.10000001678E+02 0.  0.
    3000022    2    5    5    0    0  0.62668179782E+01 -0.13483280697E+02  0.49073708453E+02  0.51277316884E+02  0.24999909964E+00 0.  0.
        -13    1    4    4    0    0 -0.17481130910E+01  0.98491243910E+00 -0.40412827922E+01  0.45131965943E+01  0.10500000000E+00 0. -1.
         13    1    4    4    0    0 -0.27808003558E+01  0.16799677382E+01 -0.68256967401E+01  0.75601787815E+01  0.10500000000E+00 0.  1.
    3000001    1    5    5    0    0 -0.27627536219E+01 -0.10650875138E+01  0.10778747325E+02  0.11222682963E+02  0.10000000000E+01 0.  1.
        -13    1    6    6    0    0  0.31355715935E+01 -0.65888766830E+01  0.24034932879E+02  0.25118402191E+02  0.10500000000E+00 0.  1.
         13    1    6    6    0    0  0.31312463847E+01 -0.68944040144E+01  0.25038775574E+02  0.26158914692E+02  0.10500000000E+00 0. -1.
</event>
<event>
11    0  0.3482687E-009  0.9118800E+02  0.7816531E-02  0.1126479E+00
         25   -1    0    0    0    0  0.00000000000E+00  0.00000000000E+00  0.99999998245E-14  0.12500000000E+03  0.12500000000E+03 0.  0.
    3000001    1    3    3    0    0  0.21746518985E+02  0.33898970320E+02 -0.23407486180E+02  0.46593579879E+02  0.10000000000E+01 0.  1.
    1000022    2    1    0    0    0  0.27631803758E+02  0.41990707840E+02 -0.35770282370E+02  0.62499994423E+02  0.10000003911E+02 0.  0.
    3000022    2    3    3    0    0  0.58852847733E+01  0.80917375197E+01 -0.12362796191E+02  0.15906414544E+02  0.25000207343E+00 0.  0.
    1000022    2    1    0    0    0 -0.27631803758E+02 -0.41990707840E+02  0.35770282370E+02  0.62500005577E+02  0.10000073621E+02 0.  0.
    3000022    2    5    5    0    0 -0.81005624045E+00  0.49313811139E+00  0.93008165035E+00  0.13516377089E+01  0.24999262011E+00 0.  0.
        -13    1    4    4    0    0  0.25568105868E+01  0.34789100335E+01 -0.54335600606E+01  0.69407993294E+01  0.10500000000E+00 0.  1.
         13    1    4    4    0    0  0.33284741865E+01  0.46128274862E+01 -0.69292361302E+01  0.89656152146E+01  0.10500000000E+00 0. -1.
    3000001    1    5    5    0    0 -0.26821747517E+02 -0.42483845951E+02  0.34840200720E+02  0.61148367868E+02  0.10000000000E+01 0.  1.
        -13    1    6    6    0    0 -0.55204178739E+00  0.26797128367E+00  0.58860745993E+00  0.85676279435E+00  0.10500000000E+00 0. -1.
         13    1    6    6    0    0 -0.25801445306E+00  0.22516682772E+00  0.34147419042E+00  0.49487491452E+00  0.10500000000E+00 0. -1.
</event>
<event>
11    0  0.3482687E-009  0.9118800E+02  0.7816531E-02  0.1126479E+00
         25   -1    0    0    0    0  0.00000000000E+00  0.00000000000E+00  0.99999998245E-14  0.12500000000E+03  0.12500000000E+03 0.  0.
    3000001    1    3    3    0    0  0.15042570031E+02 -0.55407867942E+02  0.84404039121E+01  0.58039220887E+02  0.10000000000E+01 0.  1.
    1000022    2    1    0    0    0  0.18212730989E+02 -0.58442653575E+02  0.76813202317E+01  0.62500000579E+02  0.10000003246E+02 0.  0.
    3000022    2    3    3    0    0  0.31701609584E+01 -0.30347856333E+01 -0.75908368043E+00  0.44607796920E+01  0.25000616936E+00 0.  0.
    1000022    2    1    0    0    0 -0.18212730989E+02  0.58442653575E+02 -0.76813202317E+01  0.62499999421E+02  0.99999960061E+01 0.  0.
    3000022    2    5    5    0    0 -0.38101697022E+01  0.27734228696E+02 -0.17306500027E+01  0.28049286709E+02  0.25000185967E+00 0.  0.
        -13    1    4    4    0    0  0.24121802647E+01 -0.23207634753E+01 -0.56292905137E+00  0.33959491831E+01  0.10500000000E+00 0. -1.
         13    1    4    4    0    0  0.75798069377E+00 -0.71402215799E+00 -0.19615462906E+00  0.10648305089E+01  0.10500000000E+00 0.  1.
    3000001    1    5    5    0    0 -0.14402561287E+02  0.30708424879E+02 -0.59506702290E+01  0.34450712712E+02  0.10000000000E+01 0.  1.
        -13    1    6    6    0    0 -0.19013006771E+01  0.14323770838E+02 -0.90881160931E+00  0.14478339643E+02  0.10500000000E+00 0. -1.
         13    1    6    6    0    0 -0.19088690251E+01  0.13410457858E+02 -0.82183839342E+00  0.13570947066E+02  0.10500000000E+00 0.  1.
</event>
<event>
11    0  0.3482687E-009  0.9118800E+02  0.7816531E-02  0.1126479E+00
         25   -1    0    0    0    0  0.00000000000E+00  0.00000000000E+00  0.99999998245E-14  0.12500000000E+03  0.12500000000E+03 0.  0.
    3000001    1    3    3    0    0 -0.16904116804E+02  0.44629471712E+02  0.20004529925E+02  0.51756353501E+02  0.10000000000E+01 0. -1.
    1000022    2    1    0    0    0 -0.24264551767E+02  0.51907355595E+02  0.22871554778E+02  0.62499999440E+02  0.99999937372E+01 0.  0.
    3000022    2    3    3    0    0 -0.73604349633E+01  0.72778838822E+01  0.28670248531E+01  0.10743645939E+02  0.24999978596E+00 0.  0.
    1000022    2    1    0    0    0  0.24264551767E+02 -0.51907355595E+02 -0.22871554778E+02  0.62500000560E+02  0.10000000738E+02 0.  0.
    3000022    2    5    5    0    0  0.63780092531E+01 -0.23497479083E+02 -0.68895410330E+01  0.25304916881E+02  0.25003488677E+00 0.  0.
        -13    1    4    4    0    0 -0.26998508644E+01  0.26430834205E+01  0.98887150697E+00  0.39069139375E+01  0.10500000000E+00 0. -1.
         13    1    4    4    0    0 -0.46605840989E+01  0.46348004618E+01  0.18781533461E+01  0.68367320011E+01  0.10500000000E+00 0.  1.
    3000001    1    5    5    0    0  0.17886542514E+02 -0.28409876512E+02 -0.15982013745E+02  0.37195083679E+02  0.10000000000E+01 0. -1.
        -13    1    6    6    0    0  0.48321677190E+01 -0.17712054895E+02 -0.51981494792E+01  0.19081365687E+02  0.10500000000E+00 0.  1.
         13    1    6    6    0    0  0.15458415342E+01 -0.57854241882E+01 -0.16913915538E+01  0.62235511948E+01  0.10500000000E+00 0. -1.
</event>
<event>
11    0  0.3482687E-009  0.9118800E+02  0.7816531E-02  0.1126479E+00
         25   -1    0    0    0    0  0.00000000000E+00  0.00000000000E+00  0.99999998245E-14  0.12500000000E+03  0.12500000000E+03 0.  0.
    3000001    1    3    3    0    0  0.89317870683E+01  0.39123848503E+01 -0.21836318993E+02  0.23935505063E+02  0.10000000000E+01 0.  1.
    1000022    2    1    0    0    0  0.23578465216E+02 -0.23012165393E+01 -0.56964992390E+02  0.62499999332E+02  0.99999969467E+01 0.  0.
    3000022    2    3    3    0    0  0.14646678147E+02 -0.62136013896E+01 -0.35128673398E+02  0.38564494269E+02  0.25000113519E+00 0.  0.
    1000022    2    1    0    0    0 -0.23578465216E+02  0.23012165393E+01  0.56964992390E+02  0.62500000668E+02  0.10000005301E+02 0.  0.
    3000022    2    5    5    0    0 -0.22589562784E+02  0.41793710131E+01  0.47727342806E+02  0.52969021595E+02  0.25001719692E+00 0.  0.
        -13    1    4    4    0    0  0.42771118341E+01 -0.18186017960E+01 -0.10368836003E+02  0.11363308638E+02  0.10500000000E+00 0. -1.
         13    1    4    4    0    0  0.10369566313E+02 -0.43949995936E+01 -0.24759837394E+02  0.27201185631E+02  0.10500000000E+00 0.  1.
    3000001    1    5    5    0    0 -0.98890243159E+00 -0.18781544738E+01  0.92376495844E+01  0.95309790731E+01  0.10000000000E+01 0. -1.
        -13    1    6    6    0    0 -0.15344327997E+02  0.28302498630E+01  0.32531090139E+02  0.36079655854E+02  0.10500000000E+00 0. -1.
         13    1    6    6    0    0 -0.72452347872E+01  0.13491211501E+01  0.15196252667E+02  0.16889365741E+02  0.10500000000E+00 0.  1.
</event>
<event>
11    0  0.3482687E-009  0.9118800E+02  0.7816531E-02  0.1126479E+00
         25   -1    0    0    0    0  0.00000000000E+00  0.00000000000E+00  0.99999998245E-14  0.12500000000E+03  0.12500000000E+03 0.  0.
    3000001    1    3    3    0    0  0.60285069369E+01 -0.16146087583E+01 -0.75543856718E+01  0.98498020391E+01  0.10000000000E+01 0. -1.
    1000022    2    1    0    0    0  0.39272725061E+02 -0.29786388445E+02 -0.37103560053E+02  0.62500000680E+02  0.10000002301E+02 0.  0.
    3000022    2    3    3    0    0  0.33244218124E+02 -0.28171779687E+02 -0.29549174381E+02  0.52650198640E+02  0.25000174114E+00 0.  0.
    1000022    2    1    0    0    0 -0.39272725061E+02  0.29786388445E+02  0.37103560053E+02  0.62499999320E+02  0.99999938070E+01 0.  0.
    3000022    2    5    5    0    0 -0.26409149572E+02  0.16147093510E+02  0.27524061206E+02  0.41422315889E+02  0.24999676454E+00 0.  0.
        -13    1    4    4    0    0  0.16375647563E+02 -0.13949396283E+02 -0.14539681777E+02  0.25964607853E+02  0.10500000000E+00 0.  1.
         13    1    4    4    0    0  0.16868570561E+02 -0.14222383404E+02 -0.15009492604E+02  0.26685590788E+02  0.10500000000E+00 0. -1.
    3000001    1    5    5    0    0 -0.12863575488E+02  0.13639294935E+02  0.95794988465E+01  0.21077683431E+02  0.10000000000E+01 0. -1.
        -13    1    6    6    0    0 -0.10180463840E+02  0.61552961256E+01  0.10600447778E+02  0.15934554669E+02  0.10500000000E+00 0. -1.
         13    1    6    6    0    0 -0.16228685733E+02  0.99917973848E+01  0.16923613428E+02  0.25487761221E+02  0.10500000000E+00 0.  1.
</event>
<event>
11    0  0.3482687E-009  0.9118800E+02  0.7816531E-02  0.1126479E+00
         25   -1    0    0    0    0  0.00000000000E+00  0.00000000000E+00  0.99999998245E-14  0.12500000000E+03  0.12500000000E+03 0.  0.
    3000001    1    3    3    0    0 -0.76652364495E+00  0.15104992954E+02  0.28585555372E+01  0.15424646200E+02  0.10000000000E+01 0.  1.
    1000022    2    1    0    0    0  0.13783877647E+02  0.59363684244E+02  0.96024827541E+01  0.62500000574E+02  0.10000005331E+02 0.  0.
    3000022    2    3    3    0    0  0.14550401292E+02  0.44258691290E+02  0.67439272169E+01  0.47075354373E+02  0.25000520545E+00 0.  0.
    1000022    2    1    0    0    0 -0.13783877647E+02 -0.59363684244E+02 -0.96024827541E+01  0.62499999426E+02  0.99999981594E+01 0.  0.
    3000022    2    5    5    0    0 -0.14783481156E+02 -0.57747724244E+02 -0.92392636681E+01  0.60322279976E+02  0.24999590046E+00 0.  0.
        -13    1    4    4    0    0  0.71224303659E+01  0.21879580092E+02  0.33404434876E+01  0.23251120984E+02  0.10500000000E+00 0.  1.
         13    1    4    4    0    0  0.74279709257E+01  0.22379111198E+02  0.34034837292E+01  0.23824233389E+02  0.10500000000E+00 0. -1.
    3000001    1    5    5    0    0  0.99960350933E+00 -0.16159600007E+01 -0.36321908602E+00  0.21777194503E+01  0.10000000000E+01 0. -1.
        -13    1    6    6    0    0 -0.78929276505E+01 -0.30691711158E+02 -0.48534251887E+01  0.32060040576E+02  0.10500000000E+00 0. -1.
         13    1    6    6    0    0 -0.68905535055E+01 -0.27056013086E+02 -0.43858384794E+01  0.28262239400E+02  0.10500000000E+00 0.  1.
</event>
<event>
11    0  0.3482687E-009  0.9118800E+02  0.7816531E-02  0.1126479E+00
         25   -1    0    0    0    0  0.00000000000E+00  0.00000000000E+00  0.99999998245E-14  0.12500000000E+03  0.12500000000E+03 0.  0.
    3000001    1    3    3    0    0  0.18244577539E+02  0.16823127068E+02 -0.55892412530E+02  0.61162439392E+02  0.10000000000E+01 0. -1.
    1000022    2    1    0    0    0  0.18893276403E+02  0.17965595179E+02 -0.55915393983E+02  0.62500000439E+02  0.10000013363E+02 0.  0.
    3000022    2    3    3    0    0  0.64869886349E+00  0.11424681106E+01 -0.22981452708E-01  0.13375610470E+01  0.24999561605E+00 0.  0.
    1000022    2    1    0    0    0 -0.18893276403E+02 -0.17965595179E+02  0.55915393983E+02  0.62499999561E+02  0.10000007879E+02 0.  0.
    3000022    2    5    5    0    0 -0.16913548663E+02 -0.13024855193E+02  0.35932229527E+02  0.41795963839E+02  0.24998658195E+00 0.  0.
        -13    1    4    4    0    0  0.32915123225E+00  0.52544098516E+00  0.51061256791E-01  0.63092076723E+00  0.10500000000E+00 0.  1.
         13    1    4    4    0    0  0.31954763124E+00  0.61702712543E+00 -0.74042709499E-01  0.70664027976E+00  0.10500000000E+00 0. -1.
    3000001    1    5    5    0    0 -0.19797277402E+01 -0.49407399854E+01  0.19983164455E+02  0.20704035722E+02  0.10000000000E+01 0.  1.
        -13    1    6    6    0    0 -0.69850174448E+01 -0.53114046055E+01  0.14839086549E+02  0.17239808647E+02  0.10500000000E+00 0. -1.
         13    1    6    6    0    0 -0.99285312179E+01 -0.77134505879E+01  0.21093142978E+02  0.24556155192E+02  0.10500000000E+00 0.  1.
</event>
<event>
11    0  0.3482687E-009  0.9118800E+02  0.7816531E-02  0.1126479E+00
         25   -1    0    0    0    0  0.00000000000E+00  0.00000000000E+00  0.99999998245E-14  0.12500000000E+03  0.12500000000E+03 0.  0.
    3000001    1    3    3    0    0  0.13220171244E+02  0.40449724147E+02 -0.34631532362E+01  0.42707687149E+02  0.10000000000E+01 0.  1.
    1000022    2    1    0    0    0  0.21922434619E+02  0.56654382102E+02 -0.10767452228E+02  0.62499999098E+02  0.99999854391E+01 0.  0.
    3000022    2    3    3    0    0  0.87022633743E+01  0.16204657954E+02 -0.73042989921E+01  0.19792311948E+02  0.25000246369E+00 0.  0.
    1000022    2    1    0    0    0 -0.21922434619E+02 -0.56654382102E+02  0.10767452228E+02  0.62500000902E+02  0.99999967191E+01 0.  0.
    3000022    2    5    5    0    0 -0.79993615878E+01 -0.22670002347E+02 -0.57932696432E+00  0.24048220346E+02  0.24997968129E+00 0.  0.
        -13    1    4    4    0    0  0.44096621246E+01  0.80679868877E+01 -0.36525294686E+01  0.98939137349E+01  0.10500000000E+00 0.  1.
         13    1    4    4    0    0  0.42926012497E+01  0.81366710667E+01 -0.36517695234E+01  0.98983982132E+01  0.10500000000E+00 0. -1.
    3000001    1    5    5    0    0 -0.13923073031E+02 -0.33984379755E+02  0.11346779193E+02  0.38451780557E+02  0.10000000000E+01 0.  1.
        -13    1    6    6    0    0 -0.37145846235E+01 -0.10582655982E+02 -0.20557113996E+00  0.11218022599E+02  0.10500000000E+00 0.  1.
         13    1    6    6    0    0 -0.42847769643E+01 -0.12087346365E+02 -0.37375582436E+00  0.12830197746E+02  0.10500000000E+00 0. -1.
</event>
<event>
11    0  0.3482687E-009  0.9118800E+02  0.7816531E-02  0.1126479E+00
         25   -1    0    0    0    0  0.00000000000E+00  0.00000000000E+00  0.99999998245E-14  0.12500000000E+03  0.12500000000E+03 0.  0.
    3000001    1    3    3    0    0  0.65213544601E+01 -0.14516848458E+02  0.18253533567E+02  0.24237541972E+02  0.10000000000E+01 0.  1.
    1000022    2    1    0    0    0  0.25046554534E+02 -0.41126273036E+02  0.38568766759E+02  0.62500000181E+02  0.10000001272E+02 0.  0.
    3000022    2    3    3    0    0  0.18525200074E+02 -0.26609424578E+02  0.20315233192E+02  0.38262458209E+02  0.24998882536E+00 0.  0.
    1000022    2    1    0    0    0 -0.25046554534E+02  0.41126273036E+02 -0.38568766759E+02  0.62499999819E+02  0.99999990090E+01 0.  0.
    3000022    2    5    5    0    0 -0.20229986895E+02  0.31236359547E+02 -0.34444205080E+02  0.50709252528E+02  0.25000153764E+00 0.  0.
        -13    1    4    4    0    0  0.63644446550E+01 -0.92251241955E+01  0.70567464227E+01  0.13244537261E+02  0.10500000000E+00 0.  1.
         13    1    4    4    0    0  0.12160755419E+02 -0.17384300383E+02  0.13258486769E+02  0.25017920948E+02  0.10500000000E+00 0. -1.
    3000001    1    5    5    0    0 -0.48165676389E+01  0.98899134893E+01 -0.41245616785E+01  0.11790747291E+02  0.10000000000E+01 0.  1.
        -13    1    6    6    0    0 -0.96939873941E+01  0.14992128703E+02 -0.16614392682E+02  0.24388242738E+02  0.10500000000E+00 0. -1.
         13    1    6    6    0    0 -0.10535999501E+02  0.16244230844E+02 -0.17829812399E+02  0.26321009790E+02  0.10500000000E+00 0.  1.
</event>
<event>
11    0  0.3482687E-009  0.9118800E+02  0.7816531E-02  0.1126479E+00
         25   -1    0    0    0    0  0.00000000000E+00  0.00000000000E+00  0.99999998245E-14  0.12500000000E+03  0.12500000000E+03 0.  0.
    3000001    1    3    3    0    0 -0.96070893993E+01 -0.41092609292E+02  0.35773720435E+01  0.42363856008E+02  0.10000000000E+01 0.  1.
    1000022    2    1    0    0    0 -0.16068027469E+02 -0.59553515156E+02 -0.12031156677E+01  0.62500000834E+02  0.99999971335E+01 0.  0.
    3000022    2    3    3    0    0 -0.64609380699E+01 -0.18460905864E+02 -0.47804877112E+01  0.20136144825E+02  0.24999919424E+00 0.  0.
    1000022    2    1    0    0    0  0.16068027469E+02  0.59553515156E+02  0.12031156677E+01  0.62499999166E+02  0.99999867130E+01 0.  0.
    3000022    2    5    5    0    0  0.28168850586E+01  0.27841653893E+02 -0.13844284222E+01  0.28019130494E+02  0.24999732574E+00 0.  0.
        -13    1    4    4    0    0 -0.30427764468E+01 -0.87378800544E+01 -0.23293406798E+01  0.95417969667E+01  0.10500000000E+00 0.  1.
         13    1    4    4    0    0 -0.34181616231E+01 -0.97230258097E+01 -0.24511470313E+01  0.10594347858E+02  0.10500000000E+00 0. -1.
    3000001    1    5    5    0    0  0.13251142411E+02  0.31711861263E+02  0.25875440899E+01  0.34480868672E+02  0.10000000000E+01 0. -1.
        -13    1    6    6    0    0  0.11503530547E+01  0.11278633476E+02 -0.49793913087E+00  0.11348561742E+02  0.10500000000E+00 0. -1.
         13    1    6    6    0    0  0.16665320039E+01  0.16563020418E+02 -0.88648929133E+00  0.16670568753E+02  0.10500000000E+00 0.  1.
</event>
<event>
11    0  0.3482687E-009  0.9118800E+02  0.7816531E-02  0.1126479E+00
         25   -1    0    0    0    0  0.00000000000E+00  0.00000000000E+00  0.99999998245E-14  0.12500000000E+03  0.12500000000E+03 0.  0.
    3000001    1    3    3    0    0 -0.24390720700E+02  0.34300473495E+02  0.12244343074E+02  0.43844653899E+02  0.10000000000E+01 0. -1.
    1000022    2    1    0    0    0 -0.39431325531E+02  0.44811352655E+02  0.15600097596E+02  0.62500000653E+02  0.10000013836E+02 0.  0.
    3000022    2    3    3    0    0 -0.15040604830E+02  0.10510879160E+02  0.33557545221E+01  0.18655346753E+02  0.24999939211E+00 0.  0.
    1000022    2    1    0    0    0  0.39431325531E+02 -0.44811352655E+02 -0.15600097596E+02  0.62499999347E+02  0.10000005677E+02 0.  0.
    3000022    2    5    5    0    0  0.10429236491E+02 -0.10344155494E+02  0.37225792627E+00  0.14695972428E+02  0.25000592491E+00 0.  0.
        -13    1    4    4    0    0 -0.93054147788E+01  0.64713720998E+01  0.20164998873E+01  0.11512892680E+02  0.10500000000E+00 0. -1.
         13    1    4    4    0    0 -0.57351900514E+01  0.40395070603E+01  0.13392546348E+01  0.71424540736E+01  0.10500000000E+00 0.  1.
    3000001    1    5    5    0    0  0.29002089040E+02 -0.34467197161E+02 -0.15972355523E+02  0.47804026920E+02  0.10000000000E+01 0. -1.
        -13    1    6    6    0    0  0.67516579171E+01 -0.66740461637E+01  0.29543147960E+00  0.94987410525E+01  0.10500000000E+00 0. -1.
         13    1    6    6    0    0  0.36775785737E+01 -0.36701093303E+01  0.76826446672E-01  0.51972313750E+01  0.10500000000E+00 0.  1.
</event>
<event>
11    0  0.3482687E-009  0.9118800E+02  0.7816531E-02  0.1126479E+00
         25   -1    0    0    0    0  0.00000000000E+00  0.00000000000E+00  0.99999998245E-14  0.12500000000E+03  0.12500000000E+03 0.  0.
    3000001    1    3    3    0    0 -0.46738893030E+01 -0.36771620896E+02 -0.16039174101E+02  0.40401144171E+02  0.10000000000E+01 0.  1.
    1000022    2    1    0    0    0 -0.83879524214E+01 -0.58487259171E+02 -0.17751979137E+02  0.62500000245E+02  0.10000001806E+02 0.  0.
    3000022    2    3    3    0    0 -0.37140631184E+01 -0.21715638276E+02 -0.17128050358E+01  0.22098856073E+02  0.25005618166E+00 0.  0.
    1000022    2    1    0    0    0  0.83879524214E+01  0.58487259171E+02  0.17751979137E+02  0.62499999755E+02  0.99999987478E+01 0.  0.
    3000022    2    5    5    0    0  0.50185320909E+01  0.10092054387E+02  0.49792556511E+01  0.12324395079E+02  0.25000221877E+00 0.  0.
        -13    1    4    4    0    0 -0.13082956577E+01 -0.76803676247E+01 -0.66284383345E+00  0.78198511064E+01  0.10500000000E+00 0. -1.
         13    1    4    4    0    0 -0.24057674607E+01 -0.14035270651E+02 -0.10499612024E+01  0.14279004967E+02  0.10500000000E+00 0.  1.
    3000001    1    5    5    0    0  0.33694203305E+01  0.48395204784E+02  0.12772723486E+02  0.50175604677E+02  0.10000000000E+01 0.  1.
        -13    1    6    6    0    0  0.19083725787E+01  0.37431023307E+01  0.19029358701E+01  0.46135551241E+01  0.10500000000E+00 0. -1.
         13    1    6    6    0    0  0.31101595122E+01  0.63489520567E+01  0.30763197810E+01  0.77108399545E+01  0.10500000000E+00 0.  1.
</event>
<event>
11    0  0.3482687E-009  0.9118800E+02  0.7816531E-02  0.1126479E+00
         25   -1    0    0    0    0  0.00000000000E+00  0.00000000000E+00  0.99999998245E-14  0.12500000000E+03  0.12500000000E+03 0.  0.
    3000001    1    3    3    0    0  0.62356828325E+01  0.80602062544E+01 -0.20779487053E-01  0.10239682468E+02  0.10000000000E+01 0. -1.
    1000022    2    1    0    0    0  0.42644411174E+02  0.40096942236E+02 -0.19492041918E+02  0.62499997378E+02  0.99999696554E+01 0.  0.
    3000022    2    3    3    0    0  0.36408728341E+02  0.32036735982E+02 -0.19471262431E+02  0.52260314911E+02  0.25000423022E+00 0.  0.
    1000022    2    1    0    0    0 -0.42644411174E+02 -0.40096942236E+02  0.19492041918E+02  0.62500002622E+02  0.10000002426E+02 0.  0.
    3000022    2    5    5    0    0 -0.12473957709E+02 -0.61462822378E+01  0.35535267336E+01  0.14355014898E+02  0.24998841378E+00 0.  0.
        -13    1    4    4    0    0  0.21376945604E+02  0.18785080119E+02 -0.11359414096E+02  0.30641480905E+02  0.10500000000E+00 0.  1.
         13    1    4    4    0    0  0.15031782737E+02  0.13251655863E+02 -0.81118483344E+01  0.21618834006E+02  0.10500000000E+00 0. -1.
    3000001    1    5    5    0    0 -0.30170453464E+02 -0.33950659999E+02  0.15938515184E+02  0.48144987723E+02  0.10000000000E+01 0.  1.
        -13    1    6    6    0    0 -0.43497383493E+01 -0.21715264560E+01  0.11904661326E+01  0.50063944581E+01  0.10500000000E+00 0.  1.
         13    1    6    6    0    0 -0.81242193598E+01 -0.39747557817E+01  0.23630606010E+01  0.93486204402E+01  0.10500000000E+00 0. -1.
</event>
<event>
11    0  0.3482687E-009  0.9118800E+02  0.7816531E-02  0.1126479E+00
         25   -1    0    0    0    0  0.00000000000E+00  0.00000000000E+00  0.99999998245E-14  0.12500000000E+03  0.12500000000E+03 0.  0.
    3000001    1    3    3    0    0 -0.41701291076E+00  0.22278232697E+01  0.73444804205E+00  0.25838943893E+01  0.10000000000E+01 0.  1.
    1000022    2    1    0    0    0 -0.19710780603E+02  0.53736450268E+02 -0.23024530976E+02  0.62500000015E+02  0.10000000796E+02 0.  0.
    3000022    2    3    3    0    0 -0.19293767692E+02  0.51508626998E+02 -0.23758979018E+02  0.59916105626E+02  0.25000490647E+00 0.  0.
    1000022    2    1    0    0    0  0.19710780603E+02 -0.53736450268E+02  0.23024530976E+02  0.62499999985E+02  0.10000000606E+02 0.  0.
    3000022    2    5    5    0    0  0.58895323050E+01 -0.10555324895E+02  0.11338240447E+01  0.12142879904E+02  0.25000195158E+00 0.  0.
        -13    1    4    4    0    0 -0.55559533078E+01  0.14892071322E+02 -0.69064139371E+01  0.17330665996E+02  0.10500000000E+00 0. -1.
         13    1    4    4    0    0 -0.13737814384E+02  0.36616555676E+02 -0.16852565081E+02  0.42585439630E+02  0.10500000000E+00 0.  1.
    3000001    1    5    5    0    0  0.13821248298E+02 -0.43181125372E+02  0.21890706931E+02  0.50357120081E+02  0.10000000000E+01 0.  1.
        -13    1    6    6    0    0  0.19406439133E+01 -0.33730457286E+01  0.36408030033E+00  0.39098741349E+01  0.10500000000E+00 0.  1.
         13    1    6    6    0    0  0.39488883917E+01 -0.71822791665E+01  0.76974374436E+00  0.82330057687E+01  0.10500000000E+00 0. -1.
</event>
<event>
11    0  0.3482687E-009  0.9118800E+02  0.7816531E-02  0.1126479E+00
         25   -1    0    0    0    0  0.00000000000E+00  0.00000000000E+00  0.99999998245E-14  0.12500000000E+03  0.12500000000E+03 0.  0.
    3000001    1    3    3    0    0  0.43516092577E+01  0.16618395217E+00 -0.85251153097E+01  0.96250564300E+01  0.10000000000E+01 0. -1.
    1000022    2    1    0    0    0  0.45325360080E+02  0.62499354340E+01 -0.41385986809E+02  0.62500000063E+02  0.10000007225E+02 0.  0.
    3000022    2    3    3    0    0  0.40973750822E+02  0.60837514818E+01 -0.32860871499E+02  0.52874943633E+02  0.25000007372E+00 0.  0.
    1000022    2    1    0    0    0 -0.45325360080E+02 -0.62499354340E+01  0.41385986809E+02  0.62499999937E+02  0.10000006433E+02 0.  0.
    3000022    2    5    5    0    0 -0.13190938994E+02 -0.72067449748E+00  0.18144134315E+02  0.22445319157E+02  0.24999749717E+00 0.  0.
        -13    1    4    4    0    0  0.20233723551E+02  0.29895209889E+01 -0.16141177723E+02  0.26055507052E+02  0.10500000000E+00 0. -1.
         13    1    4    4    0    0  0.20740027271E+02  0.30942304928E+01 -0.16719693776E+02  0.26819436581E+02  0.10500000000E+00 0.  1.
    3000001    1    5    5    0    0 -0.32134421086E+02 -0.55292609365E+01  0.23241852494E+02  0.40054680780E+02  0.10000000000E+01 0. -1.
        -13    1    6    6    0    0 -0.68457423184E+01 -0.41598215991E+00  0.93291220613E+01  0.11579325217E+02  0.10500000000E+00 0.  1.
         13    1    6    6    0    0 -0.63451966759E+01 -0.30469233757E+00  0.88150122536E+01  0.10865993940E+02  0.10500000000E+00 0. -1.
</event>
<event>
11    0  0.3482687E-009  0.9118800E+02  0.7816531E-02  0.1126479E+00
         25   -1    0    0    0    0  0.00000000000E+00  0.00000000000E+00  0.99999998245E-14  0.12500000000E+03  0.12500000000E+03 0.  0.
    3000001    1    3    3    0    0  0.17712406245E+02  0.22201153052E+02 -0.24038243289E+02  0.37221736556E+02  0.10000000000E+01 0. -1.
    1000022    2    1    0    0    0  0.34619781431E+02  0.30744042166E+02 -0.40774068415E+02  0.62500000573E+02  0.10000001071E+02 0.  0.
    3000022    2    3    3    0    0  0.16907375186E+02  0.85428891141E+01 -0.16735825125E+02  0.25278264016E+02  0.24999787587E+00 0.  0.
    1000022    2    1    0    0    0 -0.34619781431E+02 -0.30744042166E+02  0.40774068415E+02  0.62499999427E+02  0.99999939126E+01 0.  0.
    3000022    2    5    5    0    0 -0.28872068515E+02 -0.22123656260E+02  0.27332049844E+02  0.45498966512E+02  0.24999665970E+00 0.  0.
        -13    1    4    4    0    0  0.11069322984E+02  0.55879853901E+01 -0.10880411701E+02  0.16496965656E+02  0.10500000000E+00 0. -1.
         13    1    4    4    0    0  0.58380522023E+01  0.29549037240E+01 -0.58554134238E+01  0.87812983606E+01  0.10500000000E+00 0.  1.
    3000001    1    5    5    0    0 -0.57477129166E+01 -0.86203859066E+01  0.13442018570E+02  0.17001032915E+02  0.10000000000E+01 0.  1.
        -13    1    6    6    0    0 -0.13413378639E+02 -0.10251387443E+02  0.12765469234E+02  0.21165488437E+02  0.10500000000E+00 0. -1.
         13    1    6    6    0    0 -0.15458689876E+02 -0.11872268817E+02  0.14566580610E+02  0.24333478075E+02  0.10500000000E+00 0.  1.
</event>
<event>
11    0  0.3482687E-009  0.9118800E+02  0.7816531E-02  0.1126479E+00
         25   -1    0    0    0    0  0.00000000000E+00  0.00000000000E+00  0.99999998245E-14  0.12500000000E+03  0.12500000000E+03 0.  0.
    3000001    1    3    3    0    0 -0.12129739714E+01 -0.29097835730E+02 -0.45182137506E+02  0.53764122792E+02  0.10000000000E+01 0. -1.
    1000022    2    1    0    0    0 -0.49818803659E+01 -0.32029099525E+02 -0.52493503350E+02  0.62499997826E+02  0.99999742938E+01 0.  0.
    3000022    2    3    3    0    0 -0.37689063945E+01 -0.29312637949E+01 -0.73113658447E+01  0.87358750337E+01  0.24995848297E+00 0.  0.
    1000022    2    1    0    0    0  0.49818803659E+01  0.32029099525E+02  0.52493503350E+02  0.62500002174E+02  0.10000001470E+02 0.  0.
    3000022    2    5    5    0    0  0.35636481905E+01  0.17890120527E+02  0.38134965661E+02  0.42274035839E+02  0.24999852163E+00 0.  0.
        -13    1    4    4    0    0 -0.21322939365E+01 -0.16718132695E+01 -0.42661395685E+01  0.50549588383E+01  0.10500000000E+00 0. -1.
         13    1    4    4    0    0 -0.16366124580E+01 -0.12594505254E+01 -0.30452262762E+01  0.36809161953E+01  0.10500000000E+00 0.  1.
    3000001    1    5    5    0    0  0.14182321754E+01  0.14138978998E+02  0.14358537689E+02  0.20225966335E+02  0.10000000000E+01 0. -1.
        -13    1    6    6    0    0  0.19335284427E+01  0.94303737984E+01  0.20218074102E+02  0.22393124561E+02  0.10500000000E+00 0. -1.
         13    1    6    6    0    0  0.16301197478E+01  0.84597467290E+01  0.17916891559E+02  0.19880911278E+02  0.10500000000E+00 0.  1.
</event>
<event>
11    0  0.3482687E-009  0.9118800E+02  0.7816531E-02  0.1126479E+00
         25   -1    0    0    0    0  0.00000000000E+00  0.00000000000E+00  0.99999998245E-14  0.12500000000E+03  0.12500000000E+03 0.  0.
    3000001    1    3    3    0    0  0.10214396200E+02 -0.46157908721E+02  0.27791895106E+02  0.54847751648E+02  0.10000000000E+01 0.  1.
    1000022    2    1    0    0    0  0.79512885281E+01 -0.52274038621E+02  0.31787612642E+02  0.62500003707E+02  0.10000002143E+02 0.  0.
    3000022    2    3    3    0    0 -0.22631076721E+01 -0.61161299000E+01  0.39957175360E+01  0.76522520590E+01  0.25000331556E+00 0.  0.
    1000022    2    1    0    0    0 -0.79512885281E+01  0.52274038621E+02 -0.31787612642E+02  0.62499996293E+02  0.99999558110E+01 0.  0.
    3000022    2    5    5    0    0 -0.21659238089E+00  0.28134028840E+02 -0.13371976413E+02  0.31151930094E+02  0.25000875616E+00 0.  0.
        -13    1    4    4    0    0 -0.64076250488E+00 -0.16791568845E+01  0.11417821589E+01  0.21318620802E+01  0.10500000000E+00 0. -1.
         13    1    4    4    0    0 -0.16223451672E+01 -0.44369730154E+01  0.28539353771E+01  0.55203899788E+01  0.10500000000E+00 0.  1.
    3000001    1    5    5    0    0 -0.77346961473E+01  0.24140009781E+02 -0.18415636229E+02  0.31348066199E+02  0.10000000000E+01 0.  1.
        -13    1    6    6    0    0 -0.99741323498E-01  0.15845153787E+02 -0.75997410573E+01  0.17574013088E+02  0.10500000000E+00 0. -1.
         13    1    6    6    0    0 -0.11685105739E+00  0.12288875053E+02 -0.57722353553E+01  0.13577917007E+02  0.10500000000E+00 0.  1.
</event>
<event>
11    0  0.3482687E-009  0.9118800E+02  0.7816531E-02  0.1126479E+00
         25   -1    0    0    0    0  0.00000000000E+00  0.00000000000E+00  0.99999998245E-14  0.12500000000E+03  0.12500000000E+03 0.  0.
    3000001    1    3    3    0    0  0.41339603428E+01 -0.46258311896E+01  0.57106837624E+01  0.84911631326E+01  0.10000000000E+01 0.  1.
    1000022    2    1    0    0    0  0.47438398347E+02 -0.30414833665E+02  0.25115454020E+02  0.62500001391E+02  0.10000019929E+02 0.  0.
    3000022    2    3    3    0    0  0.43304438005E+02 -0.25789002476E+02  0.19404770258E+02  0.54008838258E+02  0.25000334359E+00 0.  0.
    1000022    2    1    0    0    0 -0.47438398347E+02  0.30414833665E+02 -0.25115454020E+02  0.62499998609E+02  0.10000002542E+02 0.  0.
    3000022    2    5    5    0    0 -0.17713249631E+02  0.10994118348E+02 -0.14607487126E+02  0.25457239291E+02  0.25000289209E+00 0.  0.
        -13    1    4    4    0    0  0.20238087292E+02 -0.12013579241E+02  0.89983998433E+01  0.25196993633E+02  0.10500000000E+00 0.  1.
         13    1    4    4    0    0  0.23066350713E+02 -0.13775423235E+02  0.10406370415E+02  0.28811844625E+02  0.10500000000E+00 0. -1.
    3000001    1    5    5    0    0 -0.29725148716E+02  0.19420715317E+02 -0.10507966894E+02  0.37042759318E+02  0.10000000000E+01 0.  1.
        -13    1    6    6    0    0 -0.62607366644E+01  0.38221753905E+01 -0.51609453081E+01  0.89695166966E+01  0.10500000000E+00 0. -1.
         13    1    6    6    0    0 -0.11452512967E+02  0.71719429577E+01 -0.94465418179E+01  0.16487722595E+02  0.10500000000E+00 0.  1.
</event>
<event>
11    0  0.3482687E-009  0.9118800E+02  0.7816531E-02  0.1126479E+00
         25   -1    0    0    0    0  0.00000000000E+00  0.00000000000E+00  0.99999998245E-14  0.12500000000E+03  0.12500000000E+03 0.  0.
    3000001    1    3    3    0    0  0.32028398899E+02 -0.13167498428E+02 -0.74712322207E+00  0.34651977490E+02  0.10000000000E+01 0. -1.
    1000022    2    1    0    0    0  0.58642468557E+02 -0.18322091871E+02  0.56224369292E+01  0.62499999657E+02  0.99999995557E+01 0.  0.
    3000022    2    3    3    0    0  0.26614069659E+02 -0.51545934433E+01  0.63695601513E+01  0.27848022168E+02  0.25000949918E+00 0.  0.
    1000022    2    1    0    0    0 -0.58642468557E+02  0.18322091871E+02 -0.56224369292E+01  0.62500000343E+02  0.10000003837E+02 0.  0.
    3000022    2    5    5    0    0 -0.53636713725E+02  0.19367201352E+02 -0.48515247605E+01  0.57232729622E+02  0.25000012889E+00 0.  0.
        -13    1    4    4    0    0  0.96400126493E+01 -0.18447228065E+01  0.22506168642E+01  0.10070210891E+02  0.10500000000E+00 0.  1.
         13    1    4    4    0    0  0.16974057010E+02 -0.33098706367E+01  0.41189432871E+01  0.17777811277E+02  0.10500000000E+00 0. -1.
    3000001    1    5    5    0    0 -0.50057548325E+01 -0.10451094811E+01 -0.77091216877E+00  0.52672707204E+01  0.10000000000E+01 0. -1.
        -13    1    6    6    0    0 -0.35516536731E+02  0.12867956981E+02 -0.32495197305E+01  0.37915420369E+02  0.10500000000E+00 0.  1.
         13    1    6    6    0    0 -0.18120176994E+02  0.64992443711E+01 -0.16020050300E+01  0.19317309254E+02  0.10500000000E+00 0. -1.
</event>
<event>
11    0  0.3482687E-009  0.9118800E+02  0.7816531E-02  0.1126479E+00
         25   -1    0    0    0    0  0.00000000000E+00  0.00000000000E+00  0.99999998245E-14  0.12500000000E+03  0.12500000000E+03 0.  0.
    3000001    1    3    3    0    0 -0.10513133898E+02 -0.69130914977E+01 -0.83202796251E+01  0.15117667527E+02  0.10000000000E+01 0.  1.
    1000022    2    1    0    0    0 -0.46720373498E+02 -0.12051503216E+02 -0.38447600259E+02  0.62499999938E+02  0.99999998477E+01 0.  0.
    3000022    2    3    3    0    0 -0.36207239600E+02 -0.51384117179E+01 -0.30127320634E+02  0.47382332411E+02  0.25000330100E+00 0.  0.
    1000022    2    1    0    0    0  0.46720373498E+02  0.12051503216E+02  0.38447600259E+02  0.62500000062E+02  0.10000000627E+02 0.  0.
    3000022    2    5    5    0    0  0.13798337088E+02 -0.99277623774E+00  0.11438962829E+02  0.17952495041E+02  0.24999303621E+00 0.  0.
        -13    1    4    4    0    0 -0.16994937474E+02 -0.23996378942E+01 -0.14053881461E+02  0.22183524762E+02  0.10500000000E+00 0. -1.
         13    1    4    4    0    0 -0.19212302127E+02 -0.27387738237E+01 -0.16073439174E+02  0.25198807649E+02  0.10500000000E+00 0.  1.
    3000001    1    5    5    0    0  0.32922036410E+02  0.13044279453E+02  0.27008637430E+02  0.44547505022E+02  0.10000000000E+01 0. -1.
        -13    1    6    6    0    0  0.38398310808E+01 -0.30508201879E+00  0.31513143521E+01  0.49778695155E+01  0.10500000000E+00 0.  1.
         13    1    6    6    0    0  0.99585060076E+01 -0.68769421896E+00  0.82876484770E+01  0.12974625525E+02  0.10500000000E+00 0. -1.
</event>
<event>
11    0  0.3482687E-009  0.9118800E+02  0.7816531E-02  0.1126479E+00
         25   -1    0    0    0    0  0.00000000000E+00  0.00000000000E+00  0.99999998245E-14  0.12500000000E+03  0.12500000000E+03 0.  0.
    3000001    1    3    3    0    0  0.14663978405E+02  0.94832709571E+01 -0.32578282070E+01  0.17792642731E+02  0.10000000000E+01 0.  1.
    1000022    2    1    0    0    0  0.56787131480E+02  0.24113668584E+02 -0.52084962406E-01  0.62500000667E+02  0.10000002808E+02 0.  0.
    3000022    2    3    3    0    0  0.42123153075E+02  0.14630397627E+02  0.32057432446E+01  0.44707357936E+02  0.25000834676E+00 0.  0.
    1000022    2    1    0    0    0 -0.56787131480E+02 -0.24113668584E+02  0.52084962406E-01  0.62499999333E+02  0.99999944701E+01 0.  0.
    3000022    2    5    5    0    0 -0.19800622810E+02 -0.12560899348E+02 -0.28869107083E+01  0.23627052490E+02  0.24999971725E+00 0.  0.
        -13    1    4    4    0    0  0.25459006086E+02  0.88480057386E+01  0.20002044129E+01  0.27027024237E+02  0.10500000000E+00 0. -1.
         13    1    4    4    0    0  0.16664146989E+02  0.57823918887E+01  0.12055388317E+01  0.17680333699E+02  0.10500000000E+00 0.  1.
    3000001    1    5    5    0    0 -0.36986508671E+02 -0.11552769236E+02  0.29389956707E+01  0.38872946843E+02  0.10000000000E+01 0. -1.
        -13    1    6    6    0    0 -0.12229089043E+02 -0.77319600276E+01 -0.18388628820E+01  0.14585138546E+02  0.10500000000E+00 0.  1.
         13    1    6    6    0    0 -0.75715337664E+01 -0.48289393204E+01 -0.10480478263E+01  0.90419139447E+01  0.10500000000E+00 0. -1.
</event>
<event>
11    0  0.3482687E-009  0.9118800E+02  0.7816531E-02  0.1126479E+00
         25   -1    0    0    0    0  0.00000000000E+00  0.00000000000E+00  0.99999998245E-14  0.12500000000E+03  0.12500000000E+03 0.  0.
    3000001    1    3    3    0    0 -0.30419614485E+01  0.55855396142E+01  0.26084441951E+01  0.69466368377E+01  0.10000000000E+01 0. -1.
    1000022    2    1    0    0    0 -0.16993983837E+01  0.58066072189E+02  0.20777228209E+02  0.62499998369E+02  0.99999944859E+01 0.  0.
    3000022    2    3    3    0    0  0.13425630648E+01  0.52480532575E+02  0.18168784014E+02  0.55553361531E+02  0.24997987111E+00 0.  0.
    1000022    2    1    0    0    0  0.16993983837E+01 -0.58066072189E+02 -0.20777228209E+02  0.62500001631E+02  0.10000014872E+02 0.  0.
    3000022    2    5    5    0    0 -0.61189370398E+00 -0.43594653233E+02 -0.19481179495E+02  0.47754026587E+02  0.24999270017E+00 0.  0.
        -13    1    4    4    0    0  0.55924695780E+00  0.20626156681E+02  0.71979517188E+01  0.21853435211E+02  0.10500000000E+00 0. -1.
         13    1    4    4    0    0  0.78331610700E+00  0.31854375894E+02  0.10970832295E+02  0.33699926320E+02  0.10500000000E+00 0.  1.
    3000001    1    5    5    0    0  0.23112920877E+01 -0.14471418957E+02 -0.12960487142E+01  0.14745975044E+02  0.10000000000E+01 0. -1.
        -13    1    6    6    0    0 -0.28699994362E+00 -0.16801058362E+02 -0.75455939795E+01  0.18420231936E+02  0.10500000000E+00 0.  1.
         13    1    6    6    0    0 -0.32489376036E+00 -0.26793594870E+02 -0.11935585516E+02  0.29333794651E+02  0.10500000000E+00 0. -1.
</event>
<event>
11    0  0.3482687E-009  0.9118800E+02  0.7816531E-02  0.1126479E+00
         25   -1    0    0    0    0  0.00000000000E+00  0.00000000000E+00  0.99999998245E-14  0.12500000000E+03  0.12500000000E+03 0.  0.
    3000001    1    3    3    0    0 -0.29859680287E+02  0.27761572595E+02 -0.71955051543E+01  0.41413532984E+02  0.10000000000E+01 0.  1.
    1000022    2    1    0    0    0 -0.47549328380E+02  0.39003783800E+02 -0.49007354166E+01  0.62500007989E+02  0.10000000544E+02 0.  0.
    3000022    2    3    3    0    0 -0.17689648093E+02  0.11242211205E+02  0.22947697377E+01  0.21086475005E+02  0.24999509531E+00 0.  0.
    1000022    2    1    0    0    0  0.47549328380E+02 -0.39003783800E+02  0.49007354166E+01  0.62499992011E+02  0.99999006800E+01 0.  0.
    3000022    2    5    5    0    0  0.10584149889E+02 -0.13001522466E+02 -0.15422388005E+01  0.16837601226E+02  0.24999847579E+00 0.  0.
        -13    1    4    4    0    0 -0.96499266502E+01  0.60566115752E+01  0.12285319951E+01  0.11459665963E+02  0.10500000000E+00 0. -1.
         13    1    4    4    0    0 -0.80397214433E+01  0.51855996299E+01  0.10662377426E+01  0.96268090420E+01  0.10500000000E+00 0.  1.
    3000001    1    5    5    0    0  0.36965178492E+02 -0.26002261334E+02  0.64429742171E+01  0.45662390785E+02  0.10000000000E+01 0. -1.
        -13    1    6    6    0    0  0.77741621767E+01 -0.95988361427E+01 -0.11244962979E+01  0.12403659531E+02  0.10500000000E+00 0. -1.
         13    1    6    6    0    0  0.28099877119E+01 -0.34026863235E+01 -0.41774250268E+00  0.44339416951E+01  0.10500000000E+00 0.  1.
</event>
<event>
11    0  0.3482687E-009  0.9118800E+02  0.7816531E-02  0.1126479E+00
         25   -1    0    0    0    0  0.00000000000E+00  0.00000000000E+00  0.99999998245E-14  0.12500000000E+03  0.12500000000E+03 0.  0.
    3000001    1    3    3    0    0 -0.15237448252E+01  0.10382693707E+01  0.15360119150E+02  0.15502679184E+02  0.10000000000E+01 0. -1.
    1000022    2    1    0    0    0  0.59391755390E+01 -0.78004633880E+01  0.60910829935E+02  0.62499999633E+02  0.99999857817E+01 0.  0.
    3000022    2    3    3    0    0  0.74629203642E+01 -0.88387327587E+01  0.45550710785E+02  0.46997320449E+02  0.24999849956E+00 0.  0.
    1000022    2    1    0    0    0 -0.59391755390E+01  0.78004633880E+01 -0.60910829935E+02  0.62500000367E+02  0.99999903668E+01 0.  0.
    3000022    2    5    5    0    0 -0.13316118779E+01  0.14071817386E+00 -0.54401408767E+00  0.14667815825E+01  0.25001017026E+00 0.  0.
        -13    1    4    4    0    0  0.37508927874E+01 -0.45461741076E+01  0.23248741231E+02  0.23984409302E+02  0.10500000000E+00 0. -1.
         13    1    4    4    0    0  0.37120275768E+01 -0.42925586511E+01  0.22301969553E+02  0.23012911147E+02  0.10500000000E+00 0.  1.
    3000001    1    5    5    0    0 -0.46075636611E+01  0.76597452141E+01 -0.60366815847E+02  0.61033218784E+02  0.10000000000E+01 0. -1.
        -13    1    6    6    0    0 -0.95882255101E+00  0.13890065433E+00 -0.40451251846E+00  0.10551253261E+01  0.10500000000E+00 0.  1.
         13    1    6    6    0    0 -0.37278932691E+00  0.18175195275E-02 -0.13950156921E+00  0.41165625641E+00  0.10500000000E+00 0.  1.
</event>
<event>
11    0  0.3482687E-009  0.9118800E+02  0.7816531E-02  0.1126479E+00
         25   -1    0    0    0    0  0.00000000000E+00  0.00000000000E+00  0.99999998245E-14  0.12500000000E+03  0.12500000000E+03 0.  0.
    3000001    1    3    3    0    0  0.62961992482E+01 -0.81847484420E+00  0.43491173940E+02  0.43963555779E+02  0.10000000000E+01 0.  1.
    1000022    2    1    0    0    0  0.85499506288E+01 -0.74803285141E+01  0.60639863998E+02  0.62499999932E+02  0.99999957718E+01 0.  0.
    3000022    2    3    3    0    0  0.22537513806E+01 -0.66618536699E+01  0.17148690057E+02  0.18536444153E+02  0.25000309918E+00 0.  0.
    1000022    2    1    0    0    0 -0.85499506288E+01  0.74803285141E+01 -0.60639863998E+02  0.62500000068E+02  0.99999966197E+01 0.  0.
    3000022    2    5    5    0    0 -0.13699576408E+01  0.41338611461E+01 -0.68515555581E+01  0.81223091649E+01  0.25000138245E+00 0.  0.
        -13    1    4    4    0    0  0.12382545137E+01 -0.37066017050E+01  0.96983162105E+01  0.10456602353E+02  0.10500000000E+00 0. -1.
         13    1    4    4    0    0  0.10154968669E+01 -0.29552519649E+01  0.74503738467E+01  0.80798418004E+01  0.10500000000E+00 0.  1.
    3000001    1    5    5    0    0 -0.71799929881E+01  0.33464673680E+01 -0.53788308439E+02  0.54377690903E+02  0.10000000000E+01 0.  1.
        -13    1    6    6    0    0 -0.60253166136E+00  0.16376340452E+01 -0.26948124845E+01  0.32121533269E+01  0.10500000000E+00 0.  1.
         13    1    6    6    0    0 -0.76742597940E+00  0.24962271009E+01 -0.41567430737E+01  0.49101558380E+01  0.10500000000E+00 0. -1.
</event>
<event>
11    0  0.3482687E-009  0.9118800E+02  0.7816531E-02  0.1126479E+00
         25   -1    0    0    0    0  0.00000000000E+00  0.00000000000E+00  0.99999998245E-14  0.12500000000E+03  0.12500000000E+03 0.  0.
    3000001    1    3    3    0    0 -0.13371882141E+02 -0.30164633383E+01  0.29816227110E+02  0.32831595791E+02  0.10000000000E+01 0. -1.
    1000022    2    1    0    0    0 -0.32884589073E+02 -0.22648159124E+01  0.52150977062E+02  0.62500000969E+02  0.10000006149E+02 0.  0.
    3000022    2    3    3    0    0 -0.19512706931E+02  0.75164742590E+00  0.22334749951E+02  0.29668405178E+02  0.25000952416E+00 0.  0.
    1000022    2    1    0    0    0  0.32884589073E+02  0.22648159124E+01 -0.52150977062E+02  0.62499999031E+02  0.99999940428E+01 0.  0.
    3000022    2    5    5    0    0  0.21031156783E+02 -0.29978512555E+01 -0.29067981684E+02  0.36004259782E+02  0.24999098946E+00 0.  0.
        -13    1    4    4    0    0 -0.98655196334E+01  0.36670122614E+00  0.11392745890E+02  0.15075431381E+02  0.10500000000E+00 0.  1.
         13    1    4    4    0    0 -0.96471872980E+01  0.38494619976E+00  0.10942004061E+02  0.14592973796E+02  0.10500000000E+00 0. -1.
    3000001    1    5    5    0    0  0.11853432289E+02  0.52626671678E+01 -0.23082995377E+02  0.26495739249E+02  0.10000000000E+01 0.  1.
        -13    1    6    6    0    0  0.14387214605E+02 -0.20777168718E+01 -0.19960825865E+02  0.24693206469E+02  0.10500000000E+00 0.  1.
         13    1    6    6    0    0  0.66439421781E+01 -0.92013438361E+00 -0.91071558189E+01  0.11311053313E+02  0.10500000000E+00 0. -1.
</event>
<event>
11    0  0.3482687E-009  0.9118800E+02  0.7816531E-02  0.1126479E+00
         25   -1    0    0    0    0  0.00000000000E+00  0.00000000000E+00  0.99999998245E-14  0.12500000000E+03  0.12500000000E+03 0.  0.
    3000001    1    3    3    0    0  0.36068121651E+02  0.48018242612E+02  0.24325525253E+01  0.60113046294E+02  0.10000000000E+01 0.  1.
    1000022    2    1    0    0    0  0.36407426353E+02  0.49798988839E+02  0.89995601419E+00  0.62499999615E+02  0.10000002400E+02 0.  0.
    3000022    2    3    3    0    0  0.33930470196E+00  0.17807462275E+01 -0.15325965112E+01  0.23869533211E+01  0.25001856657E+00 0.  0.
    1000022    2    1    0    0    0 -0.36407426353E+02 -0.49798988839E+02 -0.89995601419E+00  0.62500000385E+02  0.10000007213E+02 0.  0.
    3000022    2    5    5    0    0 -0.78857610233E+01 -0.18255031004E+02 -0.16473268725E+01  0.19955138976E+02  0.25000373356E+00 0.  0.
        -13    1    4    4    0    0  0.81219674425E-01  0.76471547262E+00 -0.66964628491E+00  0.10251036711E+01  0.10500000000E+00 0.  1.
         13    1    4    4    0    0  0.25808502754E+00  0.10160307549E+01 -0.86295022624E+00  0.13618496500E+01  0.10500000000E+00 0. -1.
    3000001    1    5    5    0    0 -0.28521665330E+02 -0.31543957835E+02  0.74737085828E+00  0.42544861409E+02  0.10000000000E+01 0. -1.
        -13    1    6    6    0    0 -0.22511451003E+01 -0.52287082623E+01 -0.51299305743E+00  0.57167500586E+01  0.10500000000E+00 0. -1.
         13    1    6    6    0    0 -0.56346159230E+01 -0.13026322742E+02 -0.11343338150E+01  0.14238388918E+02  0.10500000000E+00 0.  1.
</event>
<event>
11    0  0.3482687E-009  0.9118800E+02  0.7816531E-02  0.1126479E+00
         25   -1    0    0    0    0  0.00000000000E+00  0.00000000000E+00  0.99999998245E-14  0.12500000000E+03  0.12500000000E+03 0.  0.
    3000001    1    3    3    0    0 -0.89670121612E+01 -0.54060541615E+01 -0.56971698559E+01  0.11962043014E+02  0.10000000000E+01 0. -1.
    1000022    2    1    0    0    0 -0.53565689606E+02 -0.94152621760E+01 -0.29125930555E+02  0.62500000111E+02  0.99999959162E+01 0.  0.
    3000022    2    3    3    0    0 -0.44598677445E+02 -0.40092080145E+01 -0.23428760699E+02  0.50537957097E+02  0.25000180243E+00 0.  0.
    1000022    2    1    0    0    0  0.53565689606E+02  0.94152621760E+01  0.29125930555E+02  0.62499999889E+02  0.99999945320E+01 0.  0.
    3000022    2    5    5    0    0  0.36769988566E+02  0.18651499592E+01  0.20500788149E+02  0.42140902428E+02  0.24999839590E+00 0.  0.
        -13    1    4    4    0    0 -0.18556149472E+02 -0.16287793484E+01 -0.96883912915E+01  0.20996655834E+02  0.10500000000E+00 0. -1.
         13    1    4    4    0    0 -0.26042527973E+02 -0.23804286662E+01 -0.13740369408E+02  0.29541301263E+02  0.10500000000E+00 0.  1.
    3000001    1    5    5    0    0  0.16795701040E+02  0.75501122168E+01  0.86251424067E+01  0.20359097461E+02  0.10000000000E+01 0.  1.
        -13    1    6    6    0    0  0.14408145612E+02  0.67059683792E+00  0.80135696883E+01  0.16500687387E+02  0.10500000000E+00 0.  1.
         13    1    6    6    0    0  0.22361842954E+02  0.11945531213E+01  0.12487218460E+02  0.25640215041E+02  0.10500000000E+00 0. -1.
</event>
<event>
11    0  0.3482687E-009  0.9118800E+02  0.7816531E-02  0.1126479E+00
         25   -1    0    0    0    0  0.00000000000E+00  0.00000000000E+00  0.99999998245E-14  0.12500000000E+03  0.12500000000E+03 0.  0.
    3000001    1    3    3    0    0 -0.52699002407E+01 -0.35672778994E+01  0.36429038729E+01  0.74005451681E+01  0.10000000000E+01 0.  1.
    1000022    2    1    0    0    0 -0.42290561227E+02 -0.44048668665E+02  0.88018855035E+01  0.62500000113E+02  0.10000002281E+02 0.  0.
    3000022    2    3    3    0    0 -0.37020660987E+02 -0.40481390765E+02  0.51589816306E+01  0.55099454945E+02  0.25001108770E+00 0.  0.
    1000022    2    1    0    0    0  0.42290561227E+02  0.44048668665E+02 -0.88018855035E+01  0.62499999887E+02  0.10000000870E+02 0.  0.
    3000022    2    5    5    0    0  0.27528236458E+02  0.24214353521E+02 -0.14756929037E+01  0.36693035947E+02  0.24999699887E+00 0.  0.
        -13    1    4    4    0    0 -0.17451730126E+02 -0.19066218500E+02  0.24975692630E+01  0.25967911921E+02  0.10500000000E+00 0. -1.
         13    1    4    4    0    0 -0.19568930861E+02 -0.21415172265E+02  0.26614123676E+01  0.29131543024E+02  0.10500000000E+00 0.  1.
    3000001    1    5    5    0    0  0.14762324769E+02  0.19834315144E+02 -0.73261925998E+01  0.25806963941E+02  0.10000000000E+01 0. -1.
        -13    1    6    6    0    0  0.17620093436E+02  0.15559797196E+02 -0.98179499643E+00  0.23527641784E+02  0.10500000000E+00 0. -1.
         13    1    6    6    0    0  0.99081430222E+01  0.86545563246E+01 -0.49389790726E+00  0.13165394163E+02  0.10500000000E+00 0.  1.
</event>
<event>
11    0  0.3482687E-009  0.9118800E+02  0.7816531E-02  0.1126479E+00
         25   -1    0    0    0    0  0.00000000000E+00  0.00000000000E+00  0.99999998245E-14  0.12500000000E+03  0.12500000000E+03 0.  0.
    3000001    1    3    3    0    0  0.35116747007E+01 -0.22689970053E+02  0.20834138318E+02  0.31019798834E+02  0.10000000000E+01 0.  1.
    1000022    2    1    0    0    0  0.94527540540E+01 -0.50784125198E+02  0.33732299779E+02  0.62499999692E+02  0.99999990906E+01 0.  0.
    3000022    2    3    3    0    0  0.59410793532E+01 -0.28094155144E+02  0.12898161461E+02  0.31480200858E+02  0.24999968803E+00 0.  0.
    1000022    2    1    0    0    0 -0.94527540540E+01  0.50784125198E+02 -0.33732299779E+02  0.62500000308E+02  0.10000002940E+02 0.  0.
    3000022    2    5    5    0    0  0.98277911227E+00  0.27037788706E+01 -0.42374093910E+01  0.51278065691E+01  0.24997379604E+00 0.  0.
        -13    1    4    4    0    0  0.45230980862E+01 -0.21460446300E+02  0.98446948977E+01  0.24040345553E+02  0.10500000000E+00 0. -1.
         13    1    4    4    0    0  0.14179812670E+01 -0.66337088443E+01  0.30534665631E+01  0.74398553048E+01  0.10500000000E+00 0.  1.
    3000001    1    5    5    0    0 -0.10435533166E+02  0.48080346327E+02 -0.29494890388E+02  0.57372193739E+02  0.10000000000E+01 0.  1.
        -13    1    6    6    0    0  0.44917747362E+00  0.11718207583E+01 -0.17397950302E+01  0.21477513915E+01  0.10500000000E+00 0.  1.
         13    1    6    6    0    0  0.53360163865E+00  0.15319581122E+01 -0.24976143608E+01  0.29800551776E+01  0.10500000000E+00 0. -1.
</event>
<event>
11    0  0.3482687E-009  0.9118800E+02  0.7816531E-02  0.1126479E+00
         25   -1    0    0    0    0  0.00000000000E+00  0.00000000000E+00  0.99999998245E-14  0.12500000000E+03  0.12500000000E+03 0.  0.
    3000001    1    3    3    0    0  0.84211308882E+01 -0.17478554610E+02  0.58616047369E+01  0.20292208524E+02  0.10000000000E+01 0. -1.
    1000022    2    1    0    0    0  0.24801476351E+02 -0.56338884312E+02  0.41311499412E+01  0.62500003302E+02  0.10000044907E+02 0.  0.
    3000022    2    3    3    0    0  0.16380345463E+02 -0.38860329702E+02 -0.17304547957E+01  0.42207794778E+02  0.25004828354E+00 0.  0.
    1000022    2    1    0    0    0 -0.24801476351E+02  0.56338884312E+02 -0.41311499412E+01  0.62499996698E+02  0.10000003634E+02 0.  0.
    3000022    2    5    5    0    0 -0.10326725608E+02  0.34683955034E+02 -0.59085743337E+00  0.36194331108E+02  0.24998648552E+00 0.  0.
        -13    1    4    4    0    0  0.55573246429E+01 -0.13045753468E+02 -0.58846771592E+00  0.14192704463E+02  0.10500000000E+00 0. -1.
         13    1    4    4    0    0  0.10823020820E+02 -0.25814576235E+02 -0.11419870798E+01  0.28015090314E+02  0.10500000000E+00 0.  1.
    3000001    1    5    5    0    0 -0.14474750742E+02  0.21654929278E+02 -0.35402925078E+01  0.26305665590E+02  0.10000000000E+01 0.  1.
        -13    1    6    6    0    0 -0.68704593690E+01  0.22884697480E+02 -0.38482518991E+00  0.23897106647E+02  0.10500000000E+00 0. -1.
         13    1    6    6    0    0 -0.34562662394E+01  0.11799257554E+02 -0.20603224346E+00  0.12297224461E+02  0.10500000000E+00 0. -1.
</event>
<event>
11    0  0.3482687E-009  0.9118800E+02  0.7816531E-02  0.1126479E+00
         25   -1    0    0    0    0  0.00000000000E+00  0.00000000000E+00  0.99999998245E-14  0.12500000000E+03  0.12500000000E+03 0.  0.
    3000001    1    3    3    0    0  0.12571163370E+02 -0.19767904090E+01 -0.56388696613E+02  0.57815456018E+02  0.10000000000E+01 0.  1.
    1000022    2    1    0    0    0  0.12332512104E+02  0.33442733600E+00 -0.60448717387E+02  0.62499998939E+02  0.99999868624E+01 0.  0.
    3000022    2    3    3    0    0 -0.23865126598E+00  0.23112177450E+01 -0.40600207738E+01  0.46845429216E+01  0.24998361876E+00 0.  0.
    1000022    2    1    0    0    0 -0.12332512104E+02 -0.33442733600E+00  0.60448717387E+02  0.62500001061E+02  0.10000000122E+02 0.  0.
    3000022    2    5    5    0    0 -0.76954356052E+01 -0.57418369782E+00  0.53672068855E+02  0.54224559871E+02  0.25000379826E+00 0.  0.
        -13    1    4    4    0    0 -0.16534541383E+00  0.10616361635E+01 -0.18007580384E+01  0.20995630409E+01  0.10500000000E+00 0.  1.
         13    1    4    4    0    0 -0.73305852152E-01  0.12495815815E+01 -0.22592627353E+01  0.25849798808E+01  0.10500000000E+00 0. -1.
    3000001    1    5    5    0    0 -0.46370764990E+01  0.23975636182E+00  0.67766485318E+01  0.82754411903E+01  0.10000000000E+01 0. -1.
        -13    1    6    6    0    0 -0.40947625835E+01 -0.35351021769E+00  0.28914777616E+02  0.29205606306E+02  0.10500000000E+00 0. -1.
         13    1    6    6    0    0 -0.36006730217E+01 -0.22067348013E+00  0.24757291239E+02  0.25018953565E+02  0.10500000000E+00 0.  1.
</event>
<event>
11    0  0.3482687E-009  0.9118800E+02  0.7816531E-02  0.1126479E+00
         25   -1    0    0    0    0  0.00000000000E+00  0.00000000000E+00  0.99999998245E-14  0.12500000000E+03  0.12500000000E+03 0.  0.
    3000001    1    3    3    0    0  0.55454855077E+01 -0.24300393743E+02  0.29489220039E+02  0.38624806071E+02  0.10000000000E+01 0.  1.
    1000022    2    1    0    0    0  0.79974676171E+01 -0.44499265792E+02  0.41977449914E+02  0.62500003470E+02  0.99999994066E+01 0.  0.
    3000022    2    3    3    0    0  0.24519821094E+01 -0.20198872050E+02  0.12488229876E+02  0.23875197399E+02  0.25003412698E+00 0.  0.
    1000022    2    1    0    0    0 -0.79974676171E+01  0.44499265792E+02 -0.41977449914E+02  0.62499996530E+02  0.99999560292E+01 0.  0.
    3000022    2    5    5    0    0  0.38427696728E+00 -0.13509567584E+00 -0.17786586308E+01  0.18417515288E+01  0.25000507994E+00 0.  0.
        -13    1    4    4    0    0  0.15382345130E+01 -0.12418066921E+02  0.76171250382E+01  0.14649442662E+02  0.10500000000E+00 0. -1.
         13    1    4    4    0    0  0.91374759637E+00 -0.77808051291E+01  0.48711048374E+01  0.92257547369E+01  0.10500000000E+00 0.  1.
    3000001    1    5    5    0    0 -0.83817445844E+01  0.44634361468E+02 -0.40198791283E+02  0.60658245001E+02  0.10000000000E+01 0.  1.
        -13    1    6    6    0    0  0.18974730160E+00 -0.64277052139E-01 -0.61759066894E+00  0.65770723902E+00  0.10500000000E+00 0. -1.
         13    1    6    6    0    0  0.19452966568E+00 -0.70818623699E-01 -0.11610679618E+01  0.11840442898E+01  0.10500000000E+00 0.  1.
</event>
<event>
11    0  0.3482687E-009  0.9118800E+02  0.7816531E-02  0.1126479E+00
         25   -1    0    0    0    0  0.00000000000E+00  0.00000000000E+00  0.99999998245E-14  0.12500000000E+03  0.12500000000E+03 0.  0.
    3000001    1    3    3    0    0  0.18601146443E+02 -0.11334616073E+02 -0.22760913755E+02  0.31520396023E+02  0.10000000000E+01 0.  1.
    1000022    2    1    0    0    0  0.42000245482E+02 -0.14430635984E+02 -0.42825064864E+02  0.62499999743E+02  0.99999955880E+01 0.  0.
    3000022    2    3    3    0    0  0.23399099039E+02 -0.30960199111E+01 -0.20064151109E+02  0.30979603719E+02  0.25002349171E+00 0.  0.
    1000022    2    1    0    0    0 -0.42000245482E+02  0.14430635984E+02  0.42825064864E+02  0.62500000257E+02  0.99999988057E+01 0.  0.
    3000022    2    5    5    0    0 -0.19952522399E+02  0.11992106551E+02  0.20657984127E+02  0.31124404847E+02  0.24999859105E+00 0.  0.
        -13    1    4    4    0    0  0.54176480962E+01 -0.70697856787E+00 -0.46438911157E+01  0.71712955095E+01  0.10500000000E+00 0.  1.
         13    1    4    4    0    0  0.17981450942E+02 -0.23890413433E+01 -0.15420259994E+02  0.23808308210E+02  0.10500000000E+00 0. -1.
    3000001    1    5    5    0    0 -0.22047723082E+02  0.24385294331E+01  0.22167080737E+02  0.31375595410E+02  0.10000000000E+01 0.  1.
        -13    1    6    6    0    0 -0.73522056427E+01  0.44868543678E+01  0.76600281898E+01  0.11527091862E+02  0.10500000000E+00 0.  1.
         13    1    6    6    0    0 -0.12600316757E+02  0.75052521827E+01  0.12997955937E+02  0.19597312985E+02  0.10500000000E+00 0. -1.
</event>
<event>
11    0  0.3482687E-009  0.9118800E+02  0.7816531E-02  0.1126479E+00
         25   -1    0    0    0    0  0.00000000000E+00  0.00000000000E+00  0.99999998245E-14  0.12500000000E+03  0.12500000000E+03 0.  0.
    3000001    1    3    3    0    0  0.11230452427E+02 -0.19183213811E+01 -0.20569834502E+02  0.23535528677E+02  0.10000000000E+01 0. -1.
    1000022    2    1    0    0    0  0.19482628601E+02 -0.11940445775E+02 -0.57307092969E+02  0.62500000170E+02  0.10000002705E+02 0.  0.
    3000022    2    3    3    0    0  0.82521761743E+01 -0.10022124394E+02 -0.36737258467E+02  0.38964471493E+02  0.24998018000E+00 0.  0.
    1000022    2    1    0    0    0 -0.19482628601E+02  0.11940445775E+02  0.57307092969E+02  0.62499999830E+02  0.10000000582E+02 0.  0.
    3000022    2    5    5    0    0 -0.19427456292E+02  0.12582989038E+02  0.56511620645E+02  0.61068678047E+02  0.24999867513E+00 0.  0.
        -13    1    4    4    0    0  0.21980880728E+01 -0.26266195040E+01 -0.96373563847E+01  0.10228410643E+02  0.10500000000E+00 0. -1.
         13    1    4    4    0    0  0.60540881015E+01 -0.73955048903E+01 -0.27099902082E+02  0.28736060850E+02  0.10500000000E+00 0.  1.
    3000001    1    5    5    0    0 -0.55172309580E-01 -0.64254326306E+00  0.79547232416E+00  0.14313217832E+01  0.10000000000E+01 0. -1.
        -13    1    6    6    0    0 -0.71286495270E+01  0.46634607279E+01  0.20916538170E+02  0.22584908768E+02  0.10500000000E+00 0. -1.
         13    1    6    6    0    0 -0.12298806765E+02  0.79195283105E+01  0.35595082476E+02  0.38483769279E+02  0.10500000000E+00 0.  1.
</event>
<event>
11    0  0.3482687E-009  0.9118800E+02  0.7816531E-02  0.1126479E+00
         25   -1    0    0    0    0  0.00000000000E+00  0.00000000000E+00  0.99999998245E-14  0.12500000000E+03  0.12500000000E+03 0.  0.
    3000001    1    3    3    0    0 -0.33832873651E+02  0.80195027623E+01  0.34852796032E+02  0.49241173374E+02  0.10000000000E+01 0. -1.
    1000022    2    1    0    0    0 -0.39102931889E+02  0.13201217217E+02  0.45857809489E+02  0.62500000740E+02  0.99999991567E+01 0.  0.
    3000022    2    3    3    0    0 -0.52700582374E+01  0.51817144550E+01  0.11005013457E+02  0.13258827366E+02  0.25000682883E+00 0.  0.
    1000022    2    1    0    0    0  0.39102931889E+02 -0.13201217217E+02 -0.45857809489E+02  0.62499999260E+02  0.99999899027E+01 0.  0.
    3000022    2    5    5    0    0  0.53321083146E+01 -0.29244029299E+01 -0.12588421962E+02  0.13982645837E+02  0.25001105026E+00 0.  0.
        -13    1    4    4    0    0 -0.20408384546E+01  0.20307910652E+01  0.41816139763E+01  0.50779970850E+01  0.10500000000E+00 0.  1.
         13    1    4    4    0    0 -0.32292197829E+01  0.31509233898E+01  0.68233994805E+01  0.81808302809E+01  0.10500000000E+00 0. -1.
    3000001    1    5    5    0    0  0.33770823574E+02 -0.10276814287E+02 -0.33269387526E+02  0.48517353423E+02  0.10000000000E+01 0. -1.
        -13    1    6    6    0    0  0.27869991416E+01 -0.14970769090E+01 -0.66899036340E+01  0.74009755519E+01  0.10500000000E+00 0.  1.
         13    1    6    6    0    0  0.25451091730E+01 -0.14273260209E+01 -0.58985183284E+01  0.65816702852E+01  0.10500000000E+00 0. -1.
</event>
<event>
11    0  0.3482687E-009  0.9118800E+02  0.7816531E-02  0.1126479E+00
         25   -1    0    0    0    0  0.00000000000E+00  0.00000000000E+00  0.99999998245E-14  0.12500000000E+03  0.12500000000E+03 0.  0.
    3000001    1    3    3    0    0  0.38113955560E+02 -0.97384112502E+01 -0.14682239617E+02  0.42000933588E+02  0.10000000000E+01 0.  1.
    1000022    2    1    0    0    0  0.52962790693E+02 -0.15506991611E+02 -0.27581263704E+02  0.62500000571E+02  0.99999988560E+01 0.  0.
    3000022    2    3    3    0    0  0.14848835133E+02 -0.57685803609E+01 -0.12899024087E+02  0.20499066983E+02  0.25000121062E+00 0.  0.
    1000022    2    1    0    0    0 -0.52962790693E+02  0.15506991611E+02  0.27581263704E+02  0.62499999429E+02  0.99999917135E+01 0.  0.
    3000022    2    5    5    0    0 -0.20923795922E+02  0.30020993358E+01  0.63639438158E+01  0.22076687095E+02  0.24999202881E+00 0.  0.
        -13    1    4    4    0    0  0.40077139126E+01 -0.15188018066E+01 -0.34688799189E+01  0.55147694988E+01  0.10500000000E+00 0.  1.
         13    1    4    4    0    0  0.10841121220E+02 -0.42497785543E+01 -0.94301441681E+01  0.14984297485E+02  0.10500000000E+00 0. -1.
    3000001    1    5    5    0    0 -0.32038994771E+02  0.12504892275E+02  0.21217319888E+02  0.40423312333E+02  0.10000000000E+01 0.  1.
        -13    1    6    6    0    0 -0.78513379310E+01  0.11305496663E+01  0.24510102234E+01  0.83030190877E+01  0.10500000000E+00 0.  1.
         13    1    6    6    0    0 -0.13072457991E+02  0.18715496695E+01  0.39129335924E+01  0.13773668008E+02  0.10500000000E+00 0. -1.
</event>
<event>
11    0  0.3482687E-009  0.9118800E+02  0.7816531E-02  0.1126479E+00
         25   -1    0    0    0    0  0.00000000000E+00  0.00000000000E+00  0.99999998245E-14  0.12500000000E+03  0.12500000000E+03 0.  0.
    3000001    1    3    3    0    0  0.15210327421E+02  0.39770832077E+02  0.94755040861E+00  0.42602476409E+02  0.10000000000E+01 0.  1.
    1000022    2    1    0    0    0  0.27817946338E+02  0.54960191258E+02  0.34335589686E+01  0.62499999634E+02  0.99999932739E+01 0.  0.
    3000022    2    3    3    0    0  0.12607618917E+02  0.15189359181E+02  0.24860085600E+01  0.19897523226E+02  0.25000973042E+00 0.  0.
    1000022    2    1    0    0    0 -0.27817946338E+02 -0.54960191258E+02 -0.34335589686E+01  0.62500000366E+02  0.99999978457E+01 0.  0.
    3000022    2    5    5    0    0 -0.51996270565E+01 -0.15427608635E+02  0.27921583933E+01  0.16519863212E+02  0.25000467024E+00 0.  0.
        -13    1    4    4    0    0  0.32502108513E+01  0.39532555525E+01  0.62429964434E+00  0.51568280064E+01  0.10500000000E+00 0.  1.
         13    1    4    4    0    0  0.93574080657E+01  0.11236103629E+02  0.18617089157E+01  0.14740695219E+02  0.10500000000E+00 0. -1.
    3000001    1    5    5    0    0 -0.22618319281E+02 -0.39532582623E+02 -0.62257173619E+01  0.45980137153E+02  0.10000000000E+01 0.  1.
        -13    1    6    6    0    0 -0.34855390184E+01 -0.10478118021E+02  0.19209520530E+01  0.11208970573E+02  0.10500000000E+00 0. -1.
         13    1    6    6    0    0 -0.17140880382E+01 -0.49494906145E+01  0.87120634033E+00  0.53108926399E+01  0.10500000000E+00 0.  1.
</event>
<event>
11    0  0.3482687E-009  0.9118800E+02  0.7816531E-02  0.1126479E+00
         25   -1    0    0    0    0  0.00000000000E+00  0.00000000000E+00  0.99999998245E-14  0.12500000000E+03  0.12500000000E+03 0.  0.
    3000001    1    3    3    0    0 -0.79341955439E+01 -0.70719548907E+01  0.25676401314E+00  0.10678479885E+02  0.10000000000E+01 0. -1.
    1000022    2    1    0    0    0 -0.51285922134E+02 -0.30282394427E+02 -0.16092876035E+02  0.62499999836E+02  0.10000004954E+02 0.  0.
    3000022    2    3    3    0    0 -0.43351726590E+02 -0.23210439536E+02 -0.16349640048E+02  0.51821519951E+02  0.24999699622E+00 0.  0.
    1000022    2    1    0    0    0  0.51285922134E+02  0.30282394427E+02  0.16092876035E+02  0.62500000164E+02  0.10000007000E+02 0.  0.
    3000022    2    5    5    0    0  0.41825707124E+02  0.27279749274E+02  0.16278794966E+02  0.52522720384E+02  0.24998818051E+00 0.  0.
        -13    1    4    4    0    0 -0.26957258880E+02 -0.14385621181E+02 -0.10112713164E+02  0.32185678424E+02  0.10500000000E+00 0. -1.
         13    1    4    4    0    0 -0.16394467710E+02 -0.88248183548E+01 -0.62369268847E+01  0.19635841527E+02  0.10500000000E+00 0.  1.
    3000001    1    5    5    0    0  0.94602150105E+01  0.30026451523E+01 -0.18591893135E+00  0.99772797798E+01  0.10000000000E+01 0.  1.
        -13    1    6    6    0    0  0.26238770643E+02  0.17184723150E+02  0.10220098266E+02  0.32988622708E+02  0.10500000000E+00 0.  1.
         13    1    6    6    0    0  0.15586936481E+02  0.10095026124E+02  0.60586967007E+01  0.19534097676E+02  0.10500000000E+00 0. -1.
</event>
<event>
11    0  0.3482687E-009  0.9118800E+02  0.7816531E-02  0.1126479E+00
         25   -1    0    0    0    0  0.00000000000E+00  0.00000000000E+00  0.99999998245E-14  0.12500000000E+03  0.12500000000E+03 0.  0.
    3000001    1    3    3    0    0 -0.24729440898E+02 -0.39081908351E+01 -0.16307325964E+02  0.29895619793E+02  0.10000000000E+01 0.  1.
    1000022    2    1    0    0    0 -0.50073905048E+02  0.18494022336E+01 -0.35992129628E+02  0.62500001931E+02  0.10000029542E+02 0.  0.
    3000022    2    3    3    0    0 -0.25344464150E+02  0.57575930688E+01 -0.19684803664E+02  0.32604382137E+02  0.24999658619E+00 0.  0.
    1000022    2    1    0    0    0  0.50073905048E+02 -0.18494022336E+01  0.35992129628E+02  0.62499998069E+02  0.10000005405E+02 0.  0.
    3000022    2    5    5    0    0  0.12473615557E+02  0.37823858761E+01  0.10073243942E+02  0.16475141281E+02  0.25001749576E+00 0.  0.
        -13    1    4    4    0    0 -0.18609217925E+02  0.42035597124E+01 -0.14417662180E+02  0.23913446296E+02  0.10500000000E+00 0. -1.
         13    1    4    4    0    0 -0.67352462250E+01  0.15540333563E+01 -0.52671414840E+01  0.86909358413E+01  0.10500000000E+00 0.  1.
    3000001    1    5    5    0    0  0.37600289491E+02 -0.56317881097E+01  0.25918885687E+02  0.46024856788E+02  0.10000000000E+01 0.  1.
        -13    1    6    6    0    0  0.62386400406E+01  0.19137667829E+01  0.51245276443E+01  0.82978877694E+01  0.10500000000E+00 0. -1.
         13    1    6    6    0    0  0.62349755160E+01  0.18686190931E+01  0.49487162973E+01  0.81772535115E+01  0.10500000000E+00 0.  1.
</event>
<event>
11    0  0.3482687E-009  0.9118800E+02  0.7816531E-02  0.1126479E+00
         25   -1    0    0    0    0  0.00000000000E+00  0.00000000000E+00  0.99999998245E-14  0.12500000000E+03  0.12500000000E+03 0.  0.
    3000001    1    3    3    0    0 -0.83427356615E+01 -0.81791457785E+01  0.54776754356E+01  0.12942356515E+02  0.10000000000E+01 0.  1.
    1000022    2    1    0    0    0 -0.51561105721E+02 -0.24384189957E+02  0.23518367894E+02  0.62500000259E+02  0.10000003048E+02 0.  0.
    3000022    2    3    3    0    0 -0.43218370060E+02 -0.16205044178E+02  0.18040692458E+02  0.49557643744E+02  0.25000332246E+00 0.  0.
    1000022    2    1    0    0    0  0.51561105721E+02  0.24384189957E+02 -0.23518367894E+02  0.62499999741E+02  0.99999998117E+01 0.  0.
    3000022    2    5    5    0    0  0.50361462168E+02  0.21950517299E+02 -0.21609255467E+02  0.59034943101E+02  0.25000742155E+00 0.  0.
        -13    1    4    4    0    0 -0.26300069243E+02 -0.97979873297E+01  0.10989643353E+02  0.30140960235E+02  0.10500000000E+00 0.  1.
         13    1    4    4    0    0 -0.16918300817E+02 -0.64070568486E+01  0.70510491052E+01  0.19416683509E+02  0.10500000000E+00 0. -1.
    3000001    1    5    5    0    0  0.11996435527E+01  0.24336726582E+01 -0.19091124264E+01  0.34650566399E+01  0.10000000000E+01 0. -1.
        -13    1    6    6    0    0  0.35869052454E+02  0.15671764741E+02 -0.15422350395E+02  0.42071998416E+02  0.10500000000E+00 0.  1.
         13    1    6    6    0    0  0.14492409715E+02  0.62787525577E+01 -0.61869050717E+01  0.16962944685E+02  0.10500000000E+00 0. -1.
</event>
<event>
11    0  0.3482687E-009  0.9118800E+02  0.7816531E-02  0.1126479E+00
         25   -1    0    0    0    0  0.00000000000E+00  0.00000000000E+00  0.99999998245E-14  0.12500000000E+03  0.12500000000E+03 0.  0.
    3000001    1    3    3    0    0 -0.94089995198E+01  0.92458812740E+01 -0.52004031341E+01  0.14214773486E+02  0.10000000000E+01 0.  1.
    1000022    2    1    0    0    0 -0.50894602608E+02  0.25398348695E+02 -0.23893796825E+02  0.62499998298E+02  0.99999784759E+01 0.  0.
    3000022    2    3    3    0    0 -0.41485603088E+02  0.16152467421E+02 -0.18693393691E+02  0.48285224813E+02  0.25000026443E+00 0.  0.
    1000022    2    1    0    0    0  0.50894602608E+02 -0.25398348695E+02  0.23893796825E+02  0.62500001702E+02  0.99999997449E+01 0.  0.
    3000022    2    5    5    0    0  0.11970108836E+02 -0.89105998964E+01  0.10106943287E+02  0.18024846769E+02  0.25000469953E+00 0.  0.
        -13    1    4    4    0    0 -0.28735902444E+02  0.11137174513E+02 -0.12936244082E+02  0.33423736796E+02  0.10500000000E+00 0.  1.
         13    1    4    4    0    0 -0.12749700644E+02  0.50152929076E+01 -0.57571496089E+01  0.14861488017E+02  0.10500000000E+00 0. -1.
    3000001    1    5    5    0    0  0.38924493772E+02 -0.16487748799E+02  0.13786853537E+02  0.44475154933E+02  0.10000000000E+01 0.  1.
        -13    1    6    6    0    0  0.56271875944E+01 -0.42348163470E+01  0.47016905159E+01  0.84685198484E+01  0.10500000000E+00 0. -1.
         13    1    6    6    0    0  0.63429212420E+01 -0.46757835494E+01  0.54052527714E+01  0.95563269202E+01  0.10500000000E+00 0.  1.
</event>
<event>
11    0  0.3482687E-009  0.9118800E+02  0.7816531E-02  0.1126479E+00
         25   -1    0    0    0    0  0.00000000000E+00  0.00000000000E+00  0.99999998245E-14  0.12500000000E+03  0.12500000000E+03 0.  0.
    3000001    1    3    3    0    0 -0.32286739750E+02 -0.30030466063E+02  0.24212051175E+02  0.50313873611E+02  0.10000000000E+01 0. -1.
    1000022    2    1    0    0    0 -0.38119542648E+02 -0.34816339697E+02  0.33778295132E+02  0.62500001072E+02  0.99999935160E+01 0.  0.
    3000022    2    3    3    0    0 -0.58328028985E+01 -0.47858736339E+01  0.95662439566E+01  0.12186127461E+02  0.25000590906E+00 0.  0.
    1000022    2    1    0    0    0  0.38119542648E+02  0.34816339697E+02 -0.33778295132E+02  0.62499998928E+02  0.99999801205E+01 0.  0.
    3000022    2    5    5    0    0  0.17913086517E+02  0.22949716810E+02 -0.17911338644E+02  0.34182549956E+02  0.24999848466E+00 0.  0.
        -13    1    4    4    0    0 -0.44999052174E+01 -0.36918984977E+01  0.73771358412E+01  0.93974687923E+01  0.10500000000E+00 0.  1.
         13    1    4    4    0    0 -0.13328976811E+01 -0.10939751362E+01  0.21891081154E+01  0.27886586682E+01  0.10500000000E+00 0. -1.
    3000001    1    5    5    0    0  0.20206456131E+02  0.11866622887E+02 -0.15866956488E+02  0.28317448972E+02  0.10000000000E+01 0. -1.
        -13    1    6    6    0    0  0.79524339010E+01  0.10274677619E+02 -0.80405664991E+01  0.15279788603E+02  0.10500000000E+00 0. -1.
         13    1    6    6    0    0  0.99606526164E+01  0.12675039191E+02 -0.98707721451E+01  0.18902761353E+02  0.10500000000E+00 0.  1.
</event>
<event>
11    0  0.3482687E-009  0.9118800E+02  0.7816531E-02  0.1126479E+00
         25   -1    0    0    0    0  0.00000000000E+00  0.00000000000E+00  0.99999998245E-14  0.12500000000E+03  0.12500000000E+03 0.  0.
    3000001    1    3    3    0    0 -0.60342182293E+01  0.31386939390E+02  0.79865238806E+01  0.32959616466E+02  0.10000000000E+01 0.  1.
    1000022    2    1    0    0    0 -0.19157537101E+02  0.55577947116E+02  0.18717109742E+02  0.62500001210E+02  0.10000026039E+02 0.  0.
    3000022    2    3    3    0    0 -0.13123318872E+02  0.24191007726E+02  0.10730585861E+02  0.29540384744E+02  0.25000977086E+00 0.  0.
    1000022    2    1    0    0    0  0.19157537101E+02 -0.55577947116E+02 -0.18717109742E+02  0.62499998790E+02  0.10000010910E+02 0.  0.
    3000022    2    5    5    0    0  0.16042902405E+02 -0.33476423566E+02 -0.94119252727E+01  0.38297421437E+02  0.24999802919E+00 0.  0.
        -13    1    4    4    0    0 -0.47163934228E+01  0.85808429626E+01  0.37966402092E+01  0.10502415662E+02  0.10500000000E+00 0.  1.
         13    1    4    4    0    0 -0.84069254488E+01  0.15610164764E+02  0.69339456521E+01  0.19037969082E+02  0.10500000000E+00 0. -1.
    3000001    1    5    5    0    0  0.31146346962E+01 -0.22101523550E+02 -0.93051844691E+01  0.24202577353E+02  0.10000000000E+01 0. -1.
        -13    1    6    6    0    0  0.51002355159E+01 -0.10710444331E+02 -0.30503547067E+01  0.12249151355E+02  0.10500000000E+00 0.  1.
         13    1    6    6    0    0  0.10942666889E+02 -0.22765979236E+02 -0.63615705660E+01  0.26048270082E+02  0.10500000000E+00 0. -1.
</event>
<event>
11    0  0.3482687E-009  0.9118800E+02  0.7816531E-02  0.1126479E+00
         25   -1    0    0    0    0  0.00000000000E+00  0.00000000000E+00  0.99999998245E-14  0.12500000000E+03  0.12500000000E+03 0.  0.
    3000001    1    3    3    0    0  0.13261469841E+02 -0.35474294283E+02  0.73461211696E+01  0.38590900915E+02  0.10000000000E+01 0.  1.
    1000022    2    1    0    0    0  0.22592249795E+02 -0.54208000063E+02  0.18903260371E+02  0.62500002700E+02  0.10000003156E+02 0.  0.
    3000022    2    3    3    0    0  0.93307799544E+01 -0.18733705780E+02  0.11557139201E+02  0.23909101784E+02  0.24998958603E+00 0.  0.
    1000022    2    1    0    0    0 -0.22592249795E+02  0.54208000063E+02 -0.18903260371E+02  0.62499997300E+02  0.99999694102E+01 0.  0.
    3000022    2    5    5    0    0 -0.23221710353E+01  0.37326373695E+01  0.10966430581E+01  0.45376434042E+01  0.25004322981E+00 0.  0.
        -13    1    4    4    0    0  0.51805632157E+01 -0.10439725232E+02  0.63624660691E+01  0.13278482505E+02  0.10500000000E+00 0. -1.
         13    1    4    4    0    0  0.41502167387E+01 -0.82939805485E+01  0.51946731323E+01  0.10630619280E+02  0.10500000000E+00 0.  1.
    3000001    1    5    5    0    0 -0.20270078760E+02  0.50475362694E+02 -0.19999903429E+02  0.57962353896E+02  0.10000000000E+01 0.  1.
        -13    1    6    6    0    0 -0.76779455521E+00  0.12060353235E+01  0.30592422697E+00  0.14658254716E+01  0.10500000000E+00 0.  1.
         13    1    6    6    0    0 -0.15543764801E+01  0.25266020460E+01  0.79071883115E+00  0.30718179326E+01  0.10500000000E+00 0. -1.
</event>
<event>
11    0  0.3482687E-009  0.9118800E+02  0.7816531E-02  0.1126479E+00
         25   -1    0    0    0    0  0.00000000000E+00  0.00000000000E+00  0.99999998245E-14  0.12500000000E+03  0.12500000000E+03 0.  0.
    3000001    1    3    3    0    0  0.15997650859E+01  0.15842593357E+01 -0.17563664518E+01  0.30255493858E+01  0.10000000000E+01 0. -1.
    1000022    2    1    0    0    0  0.23730639308E+00  0.53812055713E+02 -0.30173768386E+02  0.62499999706E+02  0.10000000511E+02 0.  0.
    3000022    2    3    3    0    0 -0.13624586928E+01  0.52227796377E+02 -0.28417401934E+02  0.59474450320E+02  0.25000009656E+00 0.  0.
    1000022    2    1    0    0    0 -0.23730639308E+00 -0.53812055713E+02  0.30173768386E+02  0.62500000294E+02  0.10000004192E+02 0.  0.
    3000022    2    5    5    0    0  0.44723955614E+00 -0.51682377529E+02  0.30523064905E+02  0.60024896179E+02  0.24999969989E+00 0.  0.
        -13    1    4    4    0    0 -0.98427869303E+00  0.36954942702E+02 -0.20151570421E+02  0.42103840800E+02  0.10500000000E+00 0.  1.
         13    1    4    4    0    0 -0.37817999980E+00  0.15272853675E+02 -0.82658315123E+01  0.17370609520E+02  0.10500000000E+00 0. -1.
    3000001    1    5    5    0    0 -0.68454594922E+00 -0.21296781845E+01 -0.34929651915E+00  0.24751041158E+01  0.10000000000E+01 0.  1.
        -13    1    6    6    0    0  0.17087849513E+00 -0.15299989191E+02  0.90098779049E+01  0.17756908334E+02  0.10500000000E+00 0. -1.
         13    1    6    6    0    0  0.27636106101E+00 -0.36382388338E+02  0.21513187000E+02  0.42267987845E+02  0.10500000000E+00 0.  1.
</event>
<event>
11    0  0.3482687E-009  0.9118800E+02  0.7816531E-02  0.1126479E+00
         25   -1    0    0    0    0  0.00000000000E+00  0.00000000000E+00  0.99999998245E-14  0.12500000000E+03  0.12500000000E+03 0.  0.
    3000001    1    3    3    0    0 -0.39424328030E+01  0.11835217333E+02  0.43640917882E+01  0.13253695442E+02  0.10000000000E+01 0. -1.
    1000022    2    1    0    0    0 -0.34926007922E-01  0.57099727535E+02  0.23363866093E+02  0.62499999042E+02  0.99999768533E+01 0.  0.
    3000022    2    3    3    0    0  0.39075067951E+01  0.45264510201E+02  0.18999774305E+02  0.49246303600E+02  0.25000299782E+00 0.  0.
    1000022    2    1    0    0    0  0.34926007922E-01 -0.57099727535E+02 -0.23363866093E+02  0.62500000958E+02  0.99999888283E+01 0.  0.
    3000022    2    5    5    0    0 -0.17686891238E+01 -0.29077888333E+02 -0.16859208894E+02  0.33659282086E+02  0.24998973001E+00 0.  0.
        -13    1    4    4    0    0  0.20644858372E+01  0.23836024166E+02  0.10078191371E+02  0.25961492948E+02  0.10500000000E+00 0. -1.
         13    1    4    4    0    0  0.18430209579E+01  0.21428486036E+02  0.89215829337E+01  0.23284810652E+02  0.10500000000E+00 0.  1.
    3000001    1    5    5    0    0  0.18036151318E+01 -0.28021839201E+02 -0.65046571986E+01  0.28840718872E+02  0.10000000000E+01 0.  1.
        -13    1    6    6    0    0 -0.95842906722E+00 -0.15249947968E+02 -0.89123486725E+01  0.17689558592E+02  0.10500000000E+00 0. -1.
         13    1    6    6    0    0 -0.81026005662E+00 -0.13827940365E+02 -0.79468602219E+01  0.15969723494E+02  0.10500000000E+00 0.  1.
</event>
<event>
11    0  0.3482687E-009  0.9118800E+02  0.7816531E-02  0.1126479E+00
         25   -1    0    0    0    0  0.00000000000E+00  0.00000000000E+00  0.99999998245E-14  0.12500000000E+03  0.12500000000E+03 0.  0.
    3000001    1    3    3    0    0  0.47445436024E+02 -0.22589709430E+02  0.14677577088E+02  0.54569182153E+02  0.10000000000E+01 0. -1.
    1000022    2    1    0    0    0  0.52728739481E+02 -0.28498918342E+02  0.14619906205E+02  0.62500000271E+02  0.10000003124E+02 0.  0.
    3000022    2    3    3    0    0  0.52833034575E+01 -0.59092089117E+01 -0.57670883477E-01  0.79308181182E+01  0.25000941347E+00 0.  0.
    1000022    2    1    0    0    0 -0.52728739481E+02  0.28498918342E+02 -0.14619906205E+02  0.62499999729E+02  0.99999997364E+01 0.  0.
    3000022    2    5    5    0    0 -0.43161267511E+02  0.24585983935E+02 -0.15609275233E+02  0.52068009188E+02  0.24997652870E+00 0.  0.
        -13    1    4    4    0    0  0.21268206274E+01 -0.22932683159E+01 -0.48404328087E-01  0.31298264375E+01  0.10500000000E+00 0. -1.
         13    1    4    4    0    0  0.31564828302E+01 -0.36159405958E+01 -0.92665553904E-02  0.48009916807E+01  0.10500000000E+00 0.  1.
    3000001    1    5    5    0    0 -0.95674719703E+01  0.39129344065E+01  0.98936902831E+00  0.10431990541E+02  0.10000000000E+01 0. -1.
        -13    1    6    6    0    0 -0.31742118197E+02  0.18049192004E+02 -0.11494489119E+02  0.38281453796E+02  0.10500000000E+00 0. -1.
         13    1    6    6    0    0 -0.11419149314E+02  0.65367919316E+01 -0.41147861144E+01  0.13786555392E+02  0.10500000000E+00 0.  1.
</event>
<event>
11    0  0.3482687E-009  0.9118800E+02  0.7816531E-02  0.1126479E+00
         25   -1    0    0    0    0  0.00000000000E+00  0.00000000000E+00  0.99999998245E-14  0.12500000000E+03  0.12500000000E+03 0.  0.
    3000001    1    3    3    0    0  0.79591543827E+01 -0.14336355136E+02  0.15192968941E+02  0.22376450173E+02  0.10000000000E+01 0. -1.
    1000022    2    1    0    0    0  0.93177175560E+01 -0.41381016943E+02  0.44800018282E+02  0.62500000514E+02  0.10000000123E+02 0.  0.
    3000022    2    3    3    0    0  0.13585631734E+01 -0.27044661807E+02  0.29607049340E+02  0.40123550341E+02  0.24999033583E+00 0.  0.
    1000022    2    1    0    0    0 -0.93177175560E+01  0.41381016943E+02 -0.44800018282E+02  0.62499999486E+02  0.99999937013E+01 0.  0.
    3000022    2    5    5    0    0 -0.80839352480E+01  0.14974687373E+02 -0.19695446336E+02  0.26030066764E+02  0.24999674246E+00 0.  0.
        -13    1    4    4    0    0  0.61255273729E+00 -0.11980364029E+02  0.13019250069E+02  0.17703565756E+02  0.10500000000E+00 0. -1.
         13    1    4    4    0    0  0.74601043609E+00 -0.15064297779E+02  0.16587799271E+02  0.22419984585E+02  0.10500000000E+00 0.  1.
    3000001    1    5    5    0    0 -0.12337823080E+01  0.26406329571E+02 -0.25104571946E+02  0.36469932722E+02  0.10000000000E+01 0. -1.
        -13    1    6    6    0    0 -0.35908509645E+01  0.65329961501E+01 -0.86805589065E+01  0.11442787129E+02  0.10500000000E+00 0.  1.
         13    1    6    6    0    0 -0.44930842835E+01  0.84416912227E+01 -0.11014887429E+02  0.14587279635E+02  0.10500000000E+00 0. -1.
</event>
<event>
11    0  0.3482687E-009  0.9118800E+02  0.7816531E-02  0.1126479E+00
         25   -1    0    0    0    0  0.00000000000E+00  0.00000000000E+00  0.99999998245E-14  0.12500000000E+03  0.12500000000E+03 0.  0.
    3000001    1    3    3    0    0  0.64744522027E+01 -0.12580559742E+01 -0.99059764129E+00  0.67440729420E+01  0.10000000000E+01 0.  1.
    1000022    2    1    0    0    0  0.59399627340E+02  0.15533038102E+02 -0.60547330124E+01  0.62499996364E+02  0.99999376395E+01 0.  0.
    3000022    2    3    3    0    0  0.52925175137E+02  0.16791094076E+02 -0.50641353711E+01  0.55755923422E+02  0.25005191984E+00 0.  0.
    1000022    2    1    0    0    0 -0.59399627340E+02 -0.15533038102E+02  0.60547330124E+01  0.62500003636E+02  0.99999830958E+01 0.  0.
    3000022    2    5    5    0    0 -0.29015223349E+01 -0.32277375686E+01 -0.47879139460E-01  0.43476333886E+01  0.25000399630E+00 0.  0.
        -13    1    4    4    0    0  0.22089236847E+02  0.70757983842E+01 -0.21117671583E+01  0.23291026014E+02  0.10500000000E+00 0.  1.
         13    1    4    4    0    0  0.30835938290E+02  0.97152956916E+01 -0.29523682128E+01  0.32464897408E+02  0.10500000000E+00 0. -1.
    3000001    1    5    5    0    0 -0.56498105005E+02 -0.12305300533E+02  0.61026121518E+01  0.58152370248E+02  0.10000000000E+01 0.  1.
        -13    1    6    6    0    0 -0.14833531223E+01 -0.15802163972E+01 -0.73062135868E-01  0.21711249211E+01  0.10500000000E+00 0.  1.
         13    1    6    6    0    0 -0.14181692126E+01 -0.16475211714E+01  0.25182996407E-01  0.21765084674E+01  0.10500000000E+00 0. -1.
</event>
<event>
11    0  0.3482687E-009  0.9118800E+02  0.7816531E-02  0.1126479E+00
         25   -1    0    0    0    0  0.00000000000E+00  0.00000000000E+00  0.99999998245E-14  0.12500000000E+03  0.12500000000E+03 0.  0.
    3000001    1    3    3    0    0  0.16948351143E+02  0.69859297298E+01 -0.47509445779E+02  0.50933262794E+02  0.10000000000E+01 0.  1.
    1000022    2    1    0    0    0  0.21000634197E+02  0.38672128851E+01 -0.57881498568E+02  0.62499998226E+02  0.99999964805E+01 0.  0.
    3000022    2    3    3    0    0  0.40522830542E+01 -0.31187168447E+01 -0.10372052789E+02  0.11566735432E+02  0.24999356371E+00 0.  0.
    1000022    2    1    0    0    0 -0.21000634197E+02 -0.38672128851E+01  0.57881498568E+02  0.62500001774E+02  0.10000018653E+02 0.  0.
    3000022    2    5    5    0    0  0.14254191764E+00 -0.25519702415E+00 -0.29660111569E+00  0.48571440699E+00  0.25000508776E+00 0.  0.
        -13    1    4    4    0    0  0.29522489543E+01 -0.22289046887E+01 -0.74573355737E+01  0.83250626939E+01  0.10500000000E+00 0.  1.
         13    1    4    4    0    0  0.11000340999E+01 -0.88981215603E+00 -0.29147172158E+01  0.32416727383E+01  0.10500000000E+00 0. -1.
    3000001    1    5    5    0    0 -0.21143176114E+02 -0.36120158609E+01  0.58178099684E+02  0.62014287367E+02  0.10000000000E+01 0.  1.
        -13    1    6    6    0    0  0.10564084197E+00 -0.17585433342E+00 -0.25304698379E+00  0.34226088015E+00  0.10500000000E+00 0. -1.
         13    1    6    6    0    0  0.36901075673E-01 -0.79342690730E-01 -0.43554131906E-01  0.14345352684E+00  0.10500000000E+00 0.  1.
</event>
<event>
11    0  0.3482687E-009  0.9118800E+02  0.7816531E-02  0.1126479E+00
         25   -1    0    0    0    0  0.00000000000E+00  0.00000000000E+00  0.99999998245E-14  0.12500000000E+03  0.12500000000E+03 0.  0.
    3000001    1    3    3    0    0 -0.15106523353E+02  0.27142795796E+01  0.23358832881E+02  0.27968007348E+02  0.10000000000E+01 0.  1.
    1000022    2    1    0    0    0 -0.30440947046E+02  0.16471879766E+02  0.51071283162E+02  0.62499999986E+02  0.99999977219E+01 0.  0.
    3000022    2    3    3    0    0 -0.15334423693E+02  0.13757600186E+02  0.27712450280E+02  0.34531992638E+02  0.25000427846E+00 0.  0.
    1000022    2    1    0    0    0  0.30440947046E+02 -0.16471879766E+02 -0.51071283162E+02  0.62500000014E+02  0.99999978951E+01 0.  0.
    3000022    2    5    5    0    0  0.12235976280E+01 -0.20302195927E+01 -0.67909078973E+00  0.24784363255E+01  0.24999913837E+00 0.  0.
        -13    1    4    4    0    0 -0.72945514227E+01  0.65849914638E+01  0.13320617006E+02  0.16553623635E+02  0.10500000000E+00 0.  1.
         13    1    4    4    0    0 -0.80398722700E+01  0.71726087225E+01  0.14391833275E+02  0.17978369003E+02  0.10500000000E+00 0. -1.
    3000001    1    5    5    0    0  0.29217349418E+02 -0.14441660173E+02 -0.50392192372E+02  0.60021563688E+02  0.10000000000E+01 0.  1.
        -13    1    6    6    0    0  0.58767596761E+00 -0.10191319890E+01 -0.27056016656E+00  0.12117016372E+01  0.10500000000E+00 0.  1.
         13    1    6    6    0    0  0.63592166038E+00 -0.10110876037E+01 -0.40853062318E+00  0.12667346883E+01  0.10500000000E+00 0. -1.
</event>
<event>
11    0  0.3482687E-009  0.9118800E+02  0.7816531E-02  0.1126479E+00
         25   -1    0    0    0    0  0.00000000000E+00  0.00000000000E+00  0.99999998245E-14  0.12500000000E+03  0.12500000000E+03 0.  0.
    3000001    1    3    3    0    0  0.24351750421E+02 -0.13251124373E+02 -0.19633723636E+01  0.27811056736E+02  0.10000000000E+01 0. -1.
    1000022    2    1    0    0    0  0.51380459235E+02 -0.30736503008E+02 -0.14885091508E+02  0.62500001492E+02  0.10000001445E+02 0.  0.
    3000022    2    3    3    0    0  0.27028708814E+02 -0.17485378635E+02 -0.12921719144E+02  0.34688944756E+02  0.24999295984E+00 0.  0.
    1000022    2    1    0    0    0 -0.51380459235E+02  0.30736503008E+02  0.14885091508E+02  0.62499998508E+02  0.99999827971E+01 0.  0.
    3000022    2    5    5    0    0 -0.39862695420E+02  0.19915542518E+02  0.13702980771E+02  0.46620783949E+02  0.24998811872E+00 0.  0.
        -13    1    4    4    0    0  0.15268132032E+02 -0.99320400803E+01 -0.73618646412E+01  0.19646102715E+02  0.10500000000E+00 0. -1.
         13    1    4    4    0    0  0.11760576782E+02 -0.75533385549E+01 -0.55598545032E+01  0.15042842041E+02  0.10500000000E+00 0.  1.
    3000001    1    5    5    0    0 -0.11517763815E+02  0.10820960490E+02  0.11821107374E+01  0.15879214559E+02  0.10000000000E+01 0. -1.
        -13    1    6    6    0    0 -0.18908496466E+02  0.93715539767E+01  0.64952669454E+01  0.22080687947E+02  0.10500000000E+00 0.  1.
         13    1    6    6    0    0 -0.20954198954E+02  0.10543988542E+02  0.72077138252E+01  0.24540096002E+02  0.10500000000E+00 0. -1.
</event>
<event>
11    0  0.3482687E-009  0.9118800E+02  0.7816531E-02  0.1126479E+00
         25   -1    0    0    0    0  0.00000000000E+00  0.00000000000E+00  0.99999998245E-14  0.12500000000E+03  0.12500000000E+03 0.  0.
    3000001    1    3    3    0    0 -0.18846526740E+02 -0.34896734844E+02  0.43454632110E+01  0.39910609159E+02  0.10000000000E+01 0.  1.
    1000022    2    1    0    0    0 -0.25480074926E+02 -0.54644225106E+02  0.13077629770E+02  0.62499999633E+02  0.99999999022E+01 0.  0.
    3000022    2    3    3    0    0 -0.66335481857E+01 -0.19747490263E+02  0.87321665593E+01  0.22589390474E+02  0.24999195146E+00 0.  0.
    1000022    2    1    0    0    0  0.25480074926E+02  0.54644225106E+02 -0.13077629770E+02  0.62500000367E+02  0.10000004488E+02 0.  0.
    3000022    2    5    5    0    0  0.23479552032E+01  0.11588152941E+02 -0.54502598114E+01  0.13021751755E+02  0.25000909862E+00 0.  0.
        -13    1    4    4    0    0 -0.30237498136E+01 -0.88296833240E+01  0.38710450549E+01  0.10104572497E+02  0.10500000000E+00 0.  1.
         13    1    4    4    0    0 -0.36097983721E+01 -0.10917806939E+02  0.48611215045E+01  0.12484817977E+02  0.10500000000E+00 0. -1.
    3000001    1    5    5    0    0  0.23132119723E+02  0.43056072166E+02 -0.76273699590E+01  0.49478248612E+02  0.10000000000E+01 0. -1.
        -13    1    6    6    0    0  0.16375105782E+01  0.82480064705E+01 -0.38460394351E+01  0.92473831956E+01  0.10500000000E+00 0.  1.
         13    1    6    6    0    0  0.71044462501E+00  0.33401464703E+01 -0.16042203763E+01  0.37743685596E+01  0.10500000000E+00 0. -1.
</event>
<event>
11    0  0.3482687E-009  0.9118800E+02  0.7816531E-02  0.1126479E+00
         25   -1    0    0    0    0  0.00000000000E+00  0.00000000000E+00  0.99999998245E-14  0.12500000000E+03  0.12500000000E+03 0.  0.
    3000001    1    3    3    0    0 -0.78731985706E+01  0.12276927674E+02 -0.46915093324E+01  0.15353190830E+02  0.10000000000E+01 0. -1.
    1000022    2    1    0    0    0 -0.36431100301E+02  0.38729633119E+02 -0.31289622425E+02  0.62499998762E+02  0.99999911548E+01 0.  0.
    3000022    2    3    3    0    0 -0.28557901730E+02  0.26452705445E+02 -0.26598113093E+02  0.47146807933E+02  0.25000302645E+00 0.  0.
    1000022    2    1    0    0    0  0.36431100301E+02 -0.38729633119E+02  0.31289622425E+02  0.62500001238E+02  0.10000006627E+02 0.  0.
    3000022    2    5    5    0    0  0.11115019544E+02 -0.79327167647E+01  0.12087875215E+02  0.18238719086E+02  0.24998388076E+00 0.  0.
        -13    1    4    4    0    0 -0.15293329328E+02  0.14240306371E+02 -0.14325839539E+02  0.25336001084E+02  0.10500000000E+00 0. -1.
         13    1    4    4    0    0 -0.13264572403E+02  0.12212399075E+02 -0.12272273554E+02  0.21810806848E+02  0.10500000000E+00 0.  1.
    3000001    1    5    5    0    0  0.25316080757E+02 -0.30796916354E+02  0.19201747210E+02  0.44261282152E+02  0.10000000000E+01 0.  1.
        -13    1    6    6    0    0  0.30892548362E+01 -0.21916695171E+01  0.34035563154E+01  0.50933418604E+01  0.10500000000E+00 0. -1.
         13    1    6    6    0    0  0.80257647078E+01 -0.57410472476E+01  0.86843188998E+01  0.13145377225E+02  0.10500000000E+00 0.  1.
</event>
<event>
11    0  0.3482687E-009  0.9118800E+02  0.7816531E-02  0.1126479E+00
         25   -1    0    0    0    0  0.00000000000E+00  0.00000000000E+00  0.99999998245E-14  0.12500000000E+03  0.12500000000E+03 0.  0.
    3000001    1    3    3    0    0 -0.20509584330E+02  0.17296385003E+02  0.29026520930E+02  0.39539181843E+02  0.10000000000E+01 0.  1.
    1000022    2    1    0    0    0 -0.34510200568E+02  0.20167992934E+02  0.46995193652E+02  0.62499998316E+02  0.99999840492E+01 0.  0.
    3000022    2    3    3    0    0 -0.14000616238E+02  0.28716079304E+01  0.17968672722E+02  0.22960816473E+02  0.25001313003E+00 0.  0.
    1000022    2    1    0    0    0  0.34510200568E+02 -0.20167992934E+02 -0.46995193652E+02  0.62500001684E+02  0.10000005095E+02 0.  0.
    3000022    2    5    5    0    0  0.16090850398E+02 -0.10726859193E+02 -0.15432740795E+02  0.24742937480E+02  0.24998397941E+00 0.  0.
        -13    1    4    4    0    0 -0.68663110517E+01  0.14665179257E+01  0.88860566516E+01  0.11325631554E+02  0.10500000000E+00 0.  1.
         13    1    4    4    0    0 -0.71343051862E+01  0.14050900047E+01  0.90826160705E+01  0.11635184919E+02  0.10500000000E+00 0. -1.
    3000001    1    5    5    0    0  0.18419350170E+02 -0.94411337405E+01 -0.31562452856E+02  0.37757064204E+02  0.10000000000E+01 0.  1.
        -13    1    6    6    0    0  0.11058187562E+02 -0.73177480100E+01 -0.10555383254E+02  0.16948748883E+02  0.10500000000E+00 0. -1.
         13    1    6    6    0    0  0.50326628366E+01 -0.34091111834E+01 -0.48773575417E+01  0.77941885965E+01  0.10500000000E+00 0.  1.
</event>
<event>
11    0  0.3482687E-009  0.9118800E+02  0.7816531E-02  0.1126479E+00
         25   -1    0    0    0    0  0.00000000000E+00  0.00000000000E+00  0.99999998245E-14  0.12500000000E+03  0.12500000000E+03 0.  0.
    3000001    1    3    3    0    0 -0.21161724228E+02 -0.19880241663E+02  0.15931608970E+02  0.33133951549E+02  0.10000000000E+01 0. -1.
    1000022    2    1    0    0    0 -0.36840197192E+02 -0.43491697178E+02  0.23611908367E+02  0.62500000817E+02  0.10000001644E+02 0.  0.
    3000022    2    3    3    0    0 -0.15678472964E+02 -0.23611455515E+02  0.76802993977E+01  0.29366049269E+02  0.25000959146E+00 0.  0.
    1000022    2    1    0    0    0  0.36840197192E+02  0.43491697178E+02 -0.23611908367E+02  0.62499999183E+02  0.99999914301E+01 0.  0.
    3000022    2    5    5    0    0  0.12818786756E+02  0.15162846873E+02 -0.13437772747E+02  0.23976435556E+02  0.25001274635E+00 0.  0.
        -13    1    4    4    0    0 -0.81538899985E+01 -0.12399502598E+02  0.40347063039E+01  0.15379319450E+02  0.10500000000E+00 0. -1.
         13    1    4    4    0    0 -0.75245829652E+01 -0.11211952917E+02  0.36455930938E+01  0.13986729819E+02  0.10500000000E+00 0.  1.
    3000001    1    5    5    0    0  0.24021410436E+02  0.28328850305E+02 -0.10174135620E+02  0.38523563627E+02  0.10000000000E+01 0.  1.
        -13    1    6    6    0    0  0.71704456804E+01  0.85777781163E+01 -0.75392179629E+01  0.13484969453E+02  0.10500000000E+00 0.  1.
         13    1    6    6    0    0  0.56483410752E+01  0.65850687566E+01 -0.58985547842E+01  0.10491466102E+02  0.10500000000E+00 0. -1.
</event>
<event>
11    0  0.3482687E-009  0.9118800E+02  0.7816531E-02  0.1126479E+00
         25   -1    0    0    0    0  0.00000000000E+00  0.00000000000E+00  0.99999998245E-14  0.12500000000E+03  0.12500000000E+03 0.  0.
    3000001    1    3    3    0    0  0.30021501706E+02 -0.30814812374E+01  0.32606287656E+02  0.44440478012E+02  0.10000000000E+01 0. -1.
    1000022    2    1    0    0    0  0.44483428086E+02 -0.86786518380E+01  0.41858753017E+02  0.62499997651E+02  0.10000006512E+02 0.  0.
    3000022    2    3    3    0    0  0.14461926380E+02 -0.55971706007E+01  0.92524653608E+01  0.18059519638E+02  0.25000190411E+00 0.  0.
    1000022    2    1    0    0    0 -0.44483428086E+02  0.86786518380E+01 -0.41858753017E+02  0.62500002349E+02  0.10000035880E+02 0.  0.
    3000022    2    5    5    0    0 -0.35172552656E+02  0.33808739755E+01 -0.28840489454E+02  0.45611129156E+02  0.25000359951E+00 0.  0.
        -13    1    4    4    0    0  0.35953037334E+01 -0.14178202421E+01  0.22969365714E+01  0.44970396693E+01  0.10500000000E+00 0.  1.
         13    1    4    4    0    0  0.10866622647E+02 -0.41793503585E+01  0.69555287894E+01  0.13562479969E+02  0.10500000000E+00 0. -1.
    3000001    1    5    5    0    0 -0.93108754302E+01  0.52977778625E+01 -0.13018263563E+02  0.16888873193E+02  0.10000000000E+01 0. -1.
        -13    1    6    6    0    0 -0.24429509489E+02  0.23630424755E+01 -0.19974418523E+02  0.31644483310E+02  0.10500000000E+00 0. -1.
         13    1    6    6    0    0 -0.10743043166E+02  0.10178315001E+01 -0.88660709310E+01  0.13966645846E+02  0.10500000000E+00 0.  1.
</event>
<event>
11    0  0.3482687E-009  0.9118800E+02  0.7816531E-02  0.1126479E+00
         25   -1    0    0    0    0  0.00000000000E+00  0.00000000000E+00  0.99999998245E-14  0.12500000000E+03  0.12500000000E+03 0.  0.
    3000001    1    3    3    0    0 -0.46474903306E+02  0.88942010917E+01 -0.85825341252E+01  0.48100762389E+02  0.10000000000E+01 0. -1.
    1000022    2    1    0    0    0 -0.58101024812E+02  0.16063530511E+02 -0.13133309253E+02  0.62499999893E+02  0.10000003901E+02 0.  0.
    3000022    2    3    3    0    0 -0.11626121506E+02  0.71693294198E+01 -0.45507751274E+01  0.14399237504E+02  0.25000169292E+00 0.  0.
    1000022    2    1    0    0    0  0.58101024812E+02 -0.16063530511E+02  0.13133309253E+02  0.62500000107E+02  0.10000005237E+02 0.  0.
    3000022    2    5    5    0    0  0.15549357743E+01  0.37836240865E+00  0.19777137350E+01  0.25563320542E+01  0.24999715867E+00 0.  0.
        -13    1    4    4    0    0 -0.81475784355E+01  0.49721155516E+01 -0.31663850638E+01  0.10056937247E+02  0.10500000000E+00 0. -1.
         13    1    4    4    0    0 -0.34785430706E+01  0.21972138683E+01 -0.13843900636E+01  0.43423002573E+01  0.10500000000E+00 0.  1.
    3000001    1    5    5    0    0  0.56546089038E+02 -0.16441892920E+02  0.11155595518E+02  0.59943668053E+02  0.10000000000E+01 0. -1.
        -13    1    6    6    0    0  0.81068076970E+00  0.14692454404E+00  0.10896872702E+01  0.13701217022E+01  0.10500000000E+00 0.  1.
         13    1    6    6    0    0  0.74425500458E+00  0.23143786461E+00  0.88802646474E+00  0.11862103520E+01  0.10500000000E+00 0. -1.
</event>
<event>
11    0  0.3482687E-009  0.9118800E+02  0.7816531E-02  0.1126479E+00
         25   -1    0    0    0    0  0.00000000000E+00  0.00000000000E+00  0.99999998245E-14  0.12500000000E+03  0.12500000000E+03 0.  0.
    3000001    1    3    3    0    0 -0.44941728541E+01  0.60367181004E+00 -0.23686343207E+01  0.52127188531E+01  0.10000000000E+01 0.  1.
    1000022    2    1    0    0    0 -0.42042863565E+02  0.35961519480E+02 -0.27302317405E+02  0.62500000345E+02  0.10000012371E+02 0.  0.
    3000022    2    3    3    0    0 -0.37548690711E+02  0.35357847670E+02 -0.24933683084E+02  0.57287281492E+02  0.25000531646E+00 0.  0.
    1000022    2    1    0    0    0  0.42042863565E+02 -0.35961519480E+02  0.27302317405E+02  0.62499999655E+02  0.10000008054E+02 0.  0.
    3000022    2    5    5    0    0  0.48473725109E+01 -0.61597036036E+00  0.20847726813E+01  0.53183858331E+01  0.25002198562E+00 0.  0.
        -13    1    4    4    0    0 -0.22628498532E+02  0.21315565754E+02 -0.14959046534E+02  0.34499078067E+02  0.10500000000E+00 0.  1.
         13    1    4    4    0    0 -0.14920192179E+02  0.14042281916E+02 -0.99746365502E+01  0.22788203426E+02  0.10500000000E+00 0. -1.
    3000001    1    5    5    0    0  0.37195491054E+02 -0.35345549120E+02  0.25217544724E+02  0.57181613822E+02  0.10000000000E+01 0.  1.
        -13    1    6    6    0    0  0.26242738560E+01 -0.31726430107E+00  0.10567847267E+01  0.28487346079E+01  0.10500000000E+00 0.  1.
         13    1    6    6    0    0  0.22230986549E+01 -0.29870605929E+00  0.10279879546E+01  0.24696512252E+01  0.10500000000E+00 0. -1.
</event>
<event>
11    0  0.3482687E-009  0.9118800E+02  0.7816531E-02  0.1126479E+00
         25   -1    0    0    0    0  0.00000000000E+00  0.00000000000E+00  0.99999998245E-14  0.12500000000E+03  0.12500000000E+03 0.  0.
    3000001    1    3    3    0    0  0.18840277801E+01  0.16856842260E+02 -0.74726095343E+01  0.18561858337E+02  0.10000000000E+01 0.  1.
    1000022    2    1    0    0    0 -0.87134610793E+01  0.55472387138E+02 -0.25556596564E+02  0.62499998528E+02  0.10000002469E+02 0.  0.
    3000022    2    3    3    0    0 -0.10597488859E+02  0.38615544877E+02 -0.18083987030E+02  0.43938140192E+02  0.25000059277E+00 0.  0.
    1000022    2    1    0    0    0  0.87134610793E+01 -0.55472387138E+02  0.25556596564E+02  0.62500001472E+02  0.10000020864E+02 0.  0.
    3000022    2    5    5    0    0 -0.21782412609E+01 -0.95071446791E+01  0.51560915261E+01  0.11035321351E+02  0.25000509919E+00 0.  0.
        -13    1    4    4    0    0 -0.71090428395E+01  0.25724219948E+02 -0.12079504728E+02  0.29295041244E+02  0.10500000000E+00 0. -1.
         13    1    4    4    0    0 -0.34884460198E+01  0.12891324930E+02 -0.60044823017E+01  0.14643098947E+02  0.10500000000E+00 0.  1.
    3000001    1    5    5    0    0  0.10891702340E+02 -0.45965242459E+02  0.20400505038E+02  0.51464680121E+02  0.10000000000E+01 0.  1.
        -13    1    6    6    0    0 -0.16002695358E+01 -0.68127072659E+01  0.37136075072E+01  0.79231148291E+01  0.10500000000E+00 0. -1.
         13    1    6    6    0    0 -0.57797172506E+00 -0.26944374132E+01  0.14424840190E+01  0.31122065217E+01  0.10500000000E+00 0.  1.
</event>
<event>
11    0  0.3482687E-009  0.9118800E+02  0.7816531E-02  0.1126479E+00
         25   -1    0    0    0    0  0.00000000000E+00  0.00000000000E+00  0.99999998245E-14  0.12500000000E+03  0.12500000000E+03 0.  0.
    3000001    1    3    3    0    0 -0.47238795090E+02  0.31764178326E+02 -0.32418381982E+01  0.57026101929E+02  0.10000000000E+01 0.  1.
    1000022    2    1    0    0    0 -0.51797799653E+02  0.32971604587E+02 -0.60092656033E+01  0.62499999870E+02  0.99999976372E+01 0.  0.
    3000022    2    3    3    0    0 -0.45590045629E+01  0.12074262608E+01 -0.27674274052E+01  0.54738979413E+01  0.25000689675E+00 0.  0.
    1000022    2    1    0    0    0  0.51797799653E+02 -0.32971604587E+02  0.60092656033E+01  0.62500000130E+02  0.99999992631E+01 0.  0.
    3000022    2    5    5    0    0  0.44923732996E+02 -0.25666312312E+02  0.24080814266E+01  0.51795392940E+02  0.24999924546E+00 0.  0.
        -13    1    4    4    0    0 -0.16924712537E+01  0.44601892403E+00 -0.10972006406E+01  0.20683969810E+01  0.10500000000E+00 0. -1.
         13    1    4    4    0    0 -0.28665333093E+01  0.76140733677E+00 -0.16702267646E+01  0.34055009603E+01  0.10500000000E+00 0.  1.
    3000001    1    5    5    0    0  0.68740666565E+01 -0.73052922752E+01  0.36011841767E+01  0.10704607190E+02  0.10000000000E+01 0. -1.
        -13    1    6    6    0    0  0.11608477120E+02 -0.66032718889E+01  0.63920385667E+00  0.13370846916E+02  0.10500000000E+00 0.  1.
         13    1    6    6    0    0  0.33315255877E+02 -0.19063040423E+02  0.17688775700E+01  0.38424546024E+02  0.10500000000E+00 0. -1.
</event>
<event>
11    0  0.3482687E-009  0.9118800E+02  0.7816531E-02  0.1126479E+00
         25   -1    0    0    0    0  0.00000000000E+00  0.00000000000E+00  0.99999998245E-14  0.12500000000E+03  0.12500000000E+03 0.  0.
    3000001    1    3    3    0    0  0.73429384862E+01  0.35341100126E+01 -0.13557599447E+01  0.83214640672E+01  0.10000000000E+01 0.  1.
    1000022    2    1    0    0    0  0.60145012408E+02  0.27529840714E+01 -0.13462874228E+02  0.62500001210E+02  0.99999864930E+01 0.  0.
    3000022    2    3    3    0    0  0.52802073922E+02 -0.78112594113E+00 -0.12107114283E+02  0.54178537143E+02  0.25000489051E+00 0.  0.
    1000022    2    1    0    0    0 -0.60145012408E+02 -0.27529840714E+01  0.13462874228E+02  0.62499998790E+02  0.99999713683E+01 0.  0.
    3000022    2    5    5    0    0 -0.28110140736E+02  0.35035002059E+01  0.50104987528E+01  0.28768422340E+02  0.25000066588E+00 0.  0.
        -13    1    4    4    0    0  0.19134462701E+02 -0.33386958041E+00 -0.44172713122E+01  0.19640836097E+02  0.10500000000E+00 0. -1.
         13    1    4    4    0    0  0.33667611221E+02 -0.44725636073E+00 -0.76898429707E+01  0.34537701046E+02  0.10500000000E+00 0.  1.
    3000001    1    5    5    0    0 -0.32034871673E+02 -0.62564842773E+01  0.84523754749E+01  0.33731576450E+02  0.10000000000E+01 0. -1.
        -13    1    6    6    0    0 -0.20656999040E+02  0.25495290757E+01  0.36578135191E+01  0.21132967908E+02  0.10500000000E+00 0. -1.
         13    1    6    6    0    0 -0.74531416955E+01  0.95397113020E+00  0.13526852337E+01  0.76354544326E+01  0.10500000000E+00 0.  1.
</event>
<event>
11    0  0.3482687E-009  0.9118800E+02  0.7816531E-02  0.1126479E+00
         25   -1    0    0    0    0  0.00000000000E+00  0.00000000000E+00  0.99999998245E-14  0.12500000000E+03  0.12500000000E+03 0.  0.
    3000001    1    3    3    0    0 -0.39926597594E+02  0.22327668882E+02  0.34927451178E+02  0.57563745873E+02  0.10000000000E+01 0. -1.
    1000022    2    1    0    0    0 -0.43010688357E+02  0.26092402049E+02  0.35714383778E+02  0.62499998918E+02  0.99999949244E+01 0.  0.
    3000022    2    3    3    0    0 -0.30840907626E+01  0.37647331672E+01  0.78693259951E+00  0.49362530446E+01  0.24999910435E+00 0.  0.
    1000022    2    1    0    0    0  0.43010688357E+02 -0.26092402049E+02 -0.35714383778E+02  0.62500001082E+02  0.10000008449E+02 0.  0.
    3000022    2    5    5    0    0  0.13424454338E+02 -0.31466892806E+01 -0.10792446930E+02  0.17511625760E+02  0.24999663278E+00 0.  0.
        -13    1    4    4    0    0 -0.78469699414E+00  0.10008397662E+01  0.18837803942E+00  0.12899383303E+01  0.10500000000E+00 0.  1.
         13    1    4    4    0    0 -0.22993937685E+01  0.27638934010E+01  0.59855456009E+00  0.36463147144E+01  0.10500000000E+00 0. -1.
    3000001    1    5    5    0    0  0.29586234019E+02 -0.22945712769E+02 -0.24921936848E+02  0.44988375322E+02  0.10000000000E+01 0. -1.
        -13    1    6    6    0    0  0.68009641929E+01 -0.16613406660E+01 -0.54569760598E+01  0.88770929633E+01  0.10500000000E+00 0.  1.
         13    1    6    6    0    0  0.66234901447E+01 -0.14853486147E+01 -0.53354708700E+01  0.86345327962E+01  0.10500000000E+00 0. -1.
</event>
<event>
11    0  0.3482687E-009  0.9118800E+02  0.7816531E-02  0.1126479E+00
         25   -1    0    0    0    0  0.00000000000E+00  0.00000000000E+00  0.99999998245E-14  0.12500000000E+03  0.12500000000E+03 0.  0.
    3000001    1    3    3    0    0  0.60185219743E+01  0.38682908581E+02  0.24326409944E+01  0.39236561588E+02  0.10000000000E+01 0.  1.
    1000022    2    1    0    0    0  0.16208347293E+02  0.59523399765E+02  0.71030423400E+00  0.62499999818E+02  0.99999901846E+01 0.  0.
    3000022    2    3    3    0    0  0.10189825319E+02  0.20840491184E+02 -0.17223367604E+01  0.23263438231E+02  0.25000317533E+00 0.  0.
    1000022    2    1    0    0    0 -0.16208347293E+02 -0.59523399765E+02 -0.71030423400E+00  0.62500000182E+02  0.99999924538E+01 0.  0.
    3000022    2    5    5    0    0 -0.14647019949E+02 -0.54427093436E+02 -0.33601651029E+01  0.56464120470E+02  0.24999524650E+00 0.  0.
        -13    1    4    4    0    0  0.47302696695E+01  0.97673812511E+01 -0.85945829501E+00  0.10887005153E+02  0.10500000000E+00 0. -1.
         13    1    4    4    0    0  0.54595556492E+01  0.11073109933E+02 -0.86287846534E+00  0.12376433077E+02  0.10500000000E+00 0.  1.
    3000001    1    5    5    0    0 -0.15613273443E+01 -0.50963063283E+01  0.26498608689E+01  0.60358797115E+01  0.10000000000E+01 0. -1.
        -13    1    6    6    0    0 -0.54460756763E+01 -0.20050271623E+02 -0.12727803420E+01  0.20815958475E+02  0.10500000000E+00 0. -1.
         13    1    6    6    0    0 -0.92009442724E+01 -0.34376821813E+02 -0.20873847609E+01  0.35648161995E+02  0.10500000000E+00 0.  1.
</event>
<event>
11    0  0.3482687E-009  0.9118800E+02  0.7816531E-02  0.1126479E+00
         25   -1    0    0    0    0  0.00000000000E+00  0.00000000000E+00  0.99999998245E-14  0.12500000000E+03  0.12500000000E+03 0.  0.
    3000001    1    3    3    0    0 -0.24916546383E+02 -0.25107630287E+02  0.34626048443E+02  0.49509500231E+02  0.10000000000E+01 0. -1.
    1000022    2    1    0    0    0 -0.31403445057E+02 -0.35050321279E+02  0.39894215831E+02  0.62499998613E+02  0.99999993307E+01 0.  0.
    3000022    2    3    3    0    0 -0.64868986737E+01 -0.99426909916E+01  0.52681673880E+01  0.12990498382E+02  0.25000405449E+00 0.  0.
    1000022    2    1    0    0    0  0.31403445057E+02  0.35050321279E+02 -0.39894215831E+02  0.62500001387E+02  0.10000016672E+02 0.  0.
    3000022    2    5    5    0    0  0.10242512741E+02  0.18739665369E+02 -0.16878241952E+02  0.27221713358E+02  0.25000268667E+00 0.  0.
        -13    1    4    4    0    0 -0.29506687713E+01 -0.46441867024E+01  0.24305128914E+01  0.60160896136E+01  0.10500000000E+00 0. -1.
         13    1    4    4    0    0 -0.35362299025E+01 -0.52985042892E+01  0.28376544966E+01  0.69744087684E+01  0.10500000000E+00 0.  1.
    3000001    1    5    5    0    0  0.21160932316E+02  0.16310655910E+02 -0.23015973879E+02  0.35278288030E+02  0.10000000000E+01 0.  1.
        -13    1    6    6    0    0  0.46505980307E+01  0.86265880957E+01 -0.77913155799E+01  0.12520451577E+02  0.10500000000E+00 0.  1.
         13    1    6    6    0    0  0.55919147101E+01  0.10113077274E+02 -0.90869263719E+01  0.14701261781E+02  0.10500000000E+00 0. -1.
</event>
<event>
11    0  0.3482687E-009  0.9118800E+02  0.7816531E-02  0.1126479E+00
         25   -1    0    0    0    0  0.00000000000E+00  0.00000000000E+00  0.99999998245E-14  0.12500000000E+03  0.12500000000E+03 0.  0.
    3000001    1    3    3    0    0 -0.12162343908E+02  0.11219532048E+02  0.31342886414E+02  0.35456692422E+02  0.10000000000E+01 0.  1.
    1000022    2    1    0    0    0 -0.19422267167E+02  0.27421708397E+02  0.51740460581E+02  0.62500000971E+02  0.10000015345E+02 0.  0.
    3000022    2    3    3    0    0 -0.72599232594E+01  0.16202176349E+02  0.20397574167E+02  0.27043308549E+02  0.25000246414E+00 0.  0.
    1000022    2    1    0    0    0  0.19422267167E+02 -0.27421708397E+02 -0.51740460581E+02  0.62499999029E+02  0.10000003209E+02 0.  0.
    3000022    2    5    5    0    0  0.15832126525E+02 -0.23578447161E+02 -0.35881440007E+02  0.45761770319E+02  0.24997000567E+00 0.  0.
        -13    1    4    4    0    0 -0.30629267441E+01  0.66984590470E+01  0.85103762771E+01  0.11255594308E+02  0.10500000000E+00 0. -1.
         13    1    4    4    0    0 -0.41969965153E+01  0.95037173017E+01  0.11887197890E+02  0.15787714242E+02  0.10500000000E+00 0.  1.
    3000001    1    5    5    0    0  0.35901406424E+01 -0.38432612362E+01 -0.15859020574E+02  0.16738228710E+02  0.10000000000E+01 0. -1.
        -13    1    6    6    0    0  0.11923110072E+02 -0.17725007297E+02 -0.27016386416E+02  0.34441727562E+02  0.10500000000E+00 0.  1.
         13    1    6    6    0    0  0.39090164528E+01 -0.58534398634E+01 -0.88650535910E+01  0.11320042758E+02  0.10500000000E+00 0. -1.
</event>
<event>
11    0  0.3482687E-009  0.9118800E+02  0.7816531E-02  0.1126479E+00
         25   -1    0    0    0    0  0.00000000000E+00  0.00000000000E+00  0.99999998245E-14  0.12500000000E+03  0.12500000000E+03 0.  0.
    3000001    1    3    3    0    0  0.27374472915E+02 -0.87183801583E+01  0.51569021217E+01  0.29205574116E+02  0.10000000000E+01 0.  1.
    1000022    2    1    0    0    0  0.58371966213E+02 -0.19966118205E+02  0.56343987293E+00  0.62499997583E+02  0.99999958838E+01 0.  0.
    3000022    2    3    3    0    0  0.30997493298E+02 -0.11247738047E+02 -0.45934622487E+01  0.33294423467E+02  0.25007330184E+00 0.  0.
    1000022    2    1    0    0    0 -0.58371966213E+02  0.19966118205E+02 -0.56343987293E+00  0.62500002417E+02  0.10000026092E+02 0.  0.
    3000022    2    5    5    0    0 -0.58694108675E+01 -0.64928364427E+00 -0.14241912901E+01  0.60796691651E+01  0.25000628815E+00 0.  0.
        -13    1    4    4    0    0  0.20060585298E+02 -0.72902790475E+01 -0.29166198807E+01  0.21542816613E+02  0.10500000000E+00 0.  1.
         13    1    4    4    0    0  0.10936908000E+02 -0.39574589994E+01 -0.16768423680E+01  0.11751606854E+02  0.10500000000E+00 0. -1.
    3000001    1    5    5    0    0 -0.52502555345E+02  0.20615401849E+02  0.86075141716E+00  0.56420333252E+02  0.10000000000E+01 0.  1.
        -13    1    6    6    0    0 -0.36214425397E+01 -0.33984176464E+00 -0.88785403995E+00  0.37456172107E+01  0.10500000000E+00 0. -1.
         13    1    6    6    0    0 -0.22479683278E+01 -0.30944187962E+00 -0.53633725014E+00  0.23340519544E+01  0.10500000000E+00 0.  1.
</event>
<event>
11    0  0.3482687E-009  0.9118800E+02  0.7816531E-02  0.1126479E+00
         25   -1    0    0    0    0  0.00000000000E+00  0.00000000000E+00  0.99999998245E-14  0.12500000000E+03  0.12500000000E+03 0.  0.
    3000001    1    3    3    0    0  0.40969810130E+02 -0.15431937207E+02  0.11056808093E+02  0.45165507118E+02  0.10000000000E+01 0. -1.
    1000022    2    1    0    0    0  0.58169627392E+02 -0.17545629912E+02  0.10709569400E+02  0.62499995663E+02  0.99999950589E+01 0.  0.
    3000022    2    3    3    0    0  0.17199817262E+02 -0.21136927050E+01 -0.34723869329E+00  0.17334488544E+02  0.25001537635E+00 0.  0.
    1000022    2    1    0    0    0 -0.58169627392E+02  0.17545629912E+02 -0.10709569400E+02  0.62500004337E+02  0.10000049277E+02 0.  0.
    3000022    2    5    5    0    0 -0.72128319048E+01  0.14796439813E+01 -0.46658213377E+01  0.87204747665E+01  0.25000199735E+00 0.  0.
        -13    1    4    4    0    0  0.79077032508E+01 -0.92449242238E+00 -0.20745921143E+00  0.79649558233E+01  0.10500000000E+00 0.  1.
         13    1    4    4    0    0  0.92921140111E+01 -0.11892002826E+01 -0.13977948186E+00  0.93695327211E+01  0.10500000000E+00 0. -1.
    3000001    1    5    5    0    0 -0.50956795487E+02  0.16065985931E+02 -0.60437480619E+01  0.53779529571E+02  0.10000000000E+01 0. -1.
        -13    1    6    6    0    0 -0.26831829573E+01  0.58597000928E+00 -0.16831448208E+01  0.32228610150E+01  0.10500000000E+00 0. -1.
         13    1    6    6    0    0 -0.45296489475E+01  0.89367397202E+00 -0.29826765169E+01  0.54976137514E+01  0.10500000000E+00 0.  1.
</event>
<event>
11    0  0.3482687E-009  0.9118800E+02  0.7816531E-02  0.1126479E+00
         25   -1    0    0    0    0  0.00000000000E+00  0.00000000000E+00  0.99999998245E-14  0.12500000000E+03  0.12500000000E+03 0.  0.
    3000001    1    3    3    0    0 -0.24785199160E+02 -0.31534914405E+02 -0.19126623855E+02  0.44447549583E+02  0.10000000000E+01 0.  1.
    1000022    2    1    0    0    0 -0.30550232113E+02 -0.43415572524E+02 -0.31432823507E+02  0.62499992427E+02  0.99999019983E+01 0.  0.
    3000022    2    3    3    0    0 -0.57650329532E+01 -0.11880658120E+02 -0.12306199652E+02  0.18052442844E+02  0.25000085243E+00 0.  0.
    1000022    2    1    0    0    0  0.30550232113E+02  0.43415572524E+02  0.31432823507E+02  0.62500007573E+02  0.99999966615E+01 0.  0.
    3000022    2    5    5    0    0  0.87180475007E+01  0.98910809702E+01  0.33361698386E+01  0.13602586718E+02  0.25000249208E+00 0.  0.
        -13    1    4    4    0    0 -0.27345268249E+01 -0.54818032267E+01 -0.57154769379E+01  0.83788725495E+01  0.10500000000E+00 0.  1.
         13    1    4    4    0    0 -0.30305061283E+01 -0.63988548930E+01 -0.65907227144E+01  0.96735702940E+01  0.10500000000E+00 0. -1.
    3000001    1    5    5    0    0  0.21832184612E+02  0.33524491554E+02  0.28096653668E+02  0.48897420855E+02  0.10000000000E+01 0.  1.
        -13    1    6    6    0    0  0.51783913039E+01  0.57985551651E+01  0.19266005246E+01  0.80101056848E+01  0.10500000000E+00 0. -1.
         13    1    6    6    0    0  0.35396561967E+01  0.40925258050E+01  0.14095693140E+01  0.55924810332E+01  0.10500000000E+00 0.  1.
</event>
<event>
11    0  0.3482687E-009  0.9118800E+02  0.7816531E-02  0.1126479E+00
         25   -1    0    0    0    0  0.00000000000E+00  0.00000000000E+00  0.99999998245E-14  0.12500000000E+03  0.12500000000E+03 0.  0.
    3000001    1    3    3    0    0 -0.31540814878E+02 -0.75558504032E+01 -0.23960334963E+02  0.40336230984E+02  0.10000000000E+01 0. -1.
    1000022    2    1    0    0    0 -0.52277221672E+02 -0.11666217375E+02 -0.30614414310E+02  0.62500007202E+02  0.10000000157E+02 0.  0.
    3000022    2    3    3    0    0 -0.20736406795E+02 -0.41103669713E+01 -0.66540793463E+01  0.22163776218E+02  0.25004179228E+00 0.  0.
    1000022    2    1    0    0    0  0.52277221672E+02  0.11666217375E+02  0.30614414310E+02  0.62499992798E+02  0.99999101305E+01 0.  0.
    3000022    2    5    5    0    0  0.10902980695E+02  0.31121216331E+01  0.11384439314E+02  0.16069482261E+02  0.25002509654E+00 0.  0.
        -13    1    4    4    0    0 -0.87608927880E+01 -0.16708225874E+01 -0.28156320608E+01  0.93532721260E+01  0.10500000000E+00 0. -1.
         13    1    4    4    0    0 -0.11975514007E+02 -0.24395443839E+01 -0.38384472855E+01  0.12810504092E+02  0.10500000000E+00 0.  1.
    3000001    1    5    5    0    0  0.41374240977E+02  0.85540957415E+01  0.19229974996E+02  0.46430510537E+02  0.10000000000E+01 0. -1.
        -13    1    6    6    0    0  0.82059104642E+01  0.23392671320E+01  0.85310680278E+01  0.12066452832E+02  0.10500000000E+00 0.  1.
         13    1    6    6    0    0  0.26970702312E+01  0.77285450108E+00  0.28533712859E+01  0.40030294287E+01  0.10500000000E+00 0. -1.
</event>
<event>
11    0  0.3482687E-009  0.9118800E+02  0.7816531E-02  0.1126479E+00
         25   -1    0    0    0    0  0.00000000000E+00  0.00000000000E+00  0.99999998245E-14  0.12500000000E+03  0.12500000000E+03 0.  0.
    3000001    1    3    3    0    0 -0.95738940128E+01  0.64932747796E+01 -0.26825937689E+01  0.11917146188E+02  0.10000000000E+01 0.  1.
    1000022    2    1    0    0    0 -0.55345375843E+02  0.16305661544E+02 -0.21846392622E+02  0.62500000685E+02  0.99999994682E+01 0.  0.
    3000022    2    3    3    0    0 -0.45771481830E+02  0.98123867646E+01 -0.19163798854E+02  0.50582854497E+02  0.24999919281E+00 0.  0.
    1000022    2    1    0    0    0  0.55345375843E+02 -0.16305661544E+02  0.21846392622E+02  0.62499999315E+02  0.99999909106E+01 0.  0.
    3000022    2    5    5    0    0  0.44376183771E+02 -0.16120975814E+02  0.20230009444E+02  0.51365818694E+02  0.25000144041E+00 0.  0.
        -13    1    4    4    0    0 -0.19062834301E+02  0.40691096783E+01 -0.80470614091E+01  0.21088279387E+02  0.10500000000E+00 0.  1.
         13    1    4    4    0    0 -0.26708647529E+02  0.57432770863E+01 -0.11116737444E+02  0.29494575110E+02  0.10500000000E+00 0. -1.
    3000001    1    5    5    0    0  0.10969192072E+02 -0.18468573003E+00  0.16163831786E+01  0.11134180622E+02  0.10000000000E+01 0.  1.
        -13    1    6    6    0    0  0.23137445779E+02 -0.84564732784E+01  0.10503497440E+02  0.26780362599E+02  0.10500000000E+00 0. -1.
         13    1    6    6    0    0  0.21238737992E+02 -0.76645025358E+01  0.97265120037E+01  0.24585456094E+02  0.10500000000E+00 0.  1.
</event>
<event>
11    0  0.3482687E-009  0.9118800E+02  0.7816531E-02  0.1126479E+00
         25   -1    0    0    0    0  0.00000000000E+00  0.00000000000E+00  0.99999998245E-14  0.12500000000E+03  0.12500000000E+03 0.  0.
    3000001    1    3    3    0    0 -0.17612535620E+02  0.74652038728E+01 -0.41779579746E+02  0.45961548751E+02  0.10000000000E+01 0. -1.
    1000022    2    1    0    0    0 -0.28943009046E+02  0.98095600179E+01 -0.53594066734E+02  0.62499996009E+02  0.10000013583E+02 0.  0.
    3000022    2    3    3    0    0 -0.11330473426E+02  0.23443561450E+01 -0.11814486988E+02  0.16538447258E+02  0.25000225115E+00 0.  0.
    1000022    2    1    0    0    0  0.28943009046E+02 -0.98095600179E+01  0.53594066734E+02  0.62500003991E+02  0.10000063473E+02 0.  0.
    3000022    2    5    5    0    0  0.85972583544E+01 -0.67635142157E+01  0.24712683041E+02  0.27026601417E+02  0.25001054733E+00 0.  0.
        -13    1    4    4    0    0 -0.65082022428E+01  0.13582912563E+01 -0.68799685151E+01  0.95680010106E+01  0.10500000000E+00 0.  1.
         13    1    4    4    0    0 -0.48222711832E+01  0.98606488871E+00 -0.49345184726E+01  0.69704462472E+01  0.10500000000E+00 0. -1.
    3000001    1    5    5    0    0  0.20345750691E+02 -0.30460458021E+01  0.28881383693E+02  0.35473402575E+02  0.10000000000E+01 0. -1.
        -13    1    6    6    0    0  0.46921033652E+01 -0.36106810768E+01  0.13428339313E+02  0.14675972661E+02  0.10500000000E+00 0.  1.
         13    1    6    6    0    0  0.39051549892E+01 -0.31528331389E+01  0.11284343728E+02  0.12350628756E+02  0.10500000000E+00 0. -1.
</event>
<event>
11    0  0.3482687E-009  0.9118800E+02  0.7816531E-02  0.1126479E+00
         25   -1    0    0    0    0  0.00000000000E+00  0.00000000000E+00  0.99999998245E-14  0.12500000000E+03  0.12500000000E+03 0.  0.
    3000001    1    3    3    0    0  0.36680274929E+01  0.38592773582E+01  0.31836104917E+01  0.62836154544E+01  0.10000000000E+01 0.  1.
    1000022    2    1    0    0    0  0.51264028807E+02  0.33388150690E+02  0.79674973862E+01  0.62499998973E+02  0.99999800538E+01 0.  0.
    3000022    2    3    3    0    0  0.47596001314E+02  0.29528873332E+02  0.47838868945E+01  0.56216383519E+02  0.25000163569E+00 0.  0.
    1000022    2    1    0    0    0 -0.51264028807E+02 -0.33388150690E+02 -0.79674973862E+01  0.62500001027E+02  0.99999928851E+01 0.  0.
    3000022    2    5    5    0    0 -0.39771106613E+02 -0.29821613728E+02 -0.43789789989E+01  0.49902981114E+02  0.25000090238E+00 0.  0.
        -13    1    4    4    0    0  0.26661562575E+02  0.16507692066E+02  0.26182476925E+01  0.31467587487E+02  0.10500000000E+00 0.  1.
         13    1    4    4    0    0  0.20934438739E+02  0.13021181266E+02  0.21656392020E+01  0.24748796032E+02  0.10500000000E+00 0. -1.
    3000001    1    5    5    0    0 -0.11492922194E+02 -0.35665369622E+01 -0.35885183873E+01  0.12597019912E+02  0.10000000000E+01 0. -1.
        -13    1    6    6    0    0 -0.30368043333E+02 -0.22765092738E+02 -0.33278018602E+01  0.38099249251E+02  0.10500000000E+00 0. -1.
         13    1    6    6    0    0 -0.94030632799E+01 -0.70565209902E+01 -0.10511771387E+01  0.11803731864E+02  0.10500000000E+00 0.  1.
</event>
<event>
11    0  0.3482687E-009  0.9118800E+02  0.7816531E-02  0.1126479E+00
         25   -1    0    0    0    0  0.00000000000E+00  0.00000000000E+00  0.99999998245E-14  0.12500000000E+03  0.12500000000E+03 0.  0.
    3000001    1    3    3    0    0 -0.27769045110E+02  0.48616570352E+02  0.16383606410E+02  0.58344779871E+02  0.10000000000E+01 0. -1.
    1000022    2    1    0    0    0 -0.31479069545E+02  0.50084864923E+02  0.17516389720E+02  0.62500002852E+02  0.10000046701E+02 0.  0.
    3000022    2    3    3    0    0 -0.37100244347E+01  0.14682945703E+01  0.11327833094E+01  0.41552229819E+01  0.25001950278E+00 0.  0.
    1000022    2    1    0    0    0  0.31479069545E+02 -0.50084864923E+02 -0.17516389720E+02  0.62499997148E+02  0.10000011046E+02 0.  0.
    3000022    2    5    5    0    0  0.73250565582E+01 -0.11610305731E+02  0.19384877883E+00  0.13731558624E+02  0.24994429317E+00 0.  0.
        -13    1    4    4    0    0 -0.18126947639E+01  0.72857925843E+00  0.48505740529E+00  0.20156874086E+01  0.10500000000E+00 0. -1.
         13    1    4    4    0    0 -0.18973296708E+01  0.73971531191E+00  0.64772590409E+00  0.21395355733E+01  0.10500000000E+00 0.  1.
    3000001    1    5    5    0    0  0.24154012986E+02 -0.38474559192E+02 -0.17710238499E+02  0.48768438524E+02  0.10000000000E+01 0. -1.
        -13    1    6    6    0    0  0.44259506739E+01 -0.70392320813E+01  0.56322623657E-01  0.83158899043E+01  0.10500000000E+00 0. -1.
         13    1    6    6    0    0  0.28991058843E+01 -0.45710736493E+01  0.13752615517E+00  0.54156687195E+01  0.10500000000E+00 0.  1.
</event>
<event>
11    0  0.3482687E-009  0.9118800E+02  0.7816531E-02  0.1126479E+00
         25   -1    0    0    0    0  0.00000000000E+00  0.00000000000E+00  0.99999998245E-14  0.12500000000E+03  0.12500000000E+03 0.  0.
    3000001    1    3    3    0    0 -0.12060582745E+02 -0.28439198359E+02  0.14001211504E+02  0.33930511093E+02  0.10000000000E+01 0. -1.
    1000022    2    1    0    0    0 -0.26232019859E+02 -0.52973189862E+02  0.17662739697E+02  0.62499999439E+02  0.99999923103E+01 0.  0.
    3000022    2    3    3    0    0 -0.14171437114E+02 -0.24533991503E+02  0.36615281934E+01  0.28569488346E+02  0.25001338603E+00 0.  0.
    1000022    2    1    0    0    0  0.26232019859E+02  0.52973189862E+02 -0.17662739697E+02  0.62500000561E+02  0.99999993250E+01 0.  0.
    3000022    2    5    5    0    0  0.23434521986E+02  0.38058030674E+02 -0.14271611800E+02  0.46918353781E+02  0.24999737499E+00 0.  0.
        -13    1    4    4    0    0 -0.77448104242E+01 -0.13287027233E+02  0.20164439975E+01  0.15511423294E+02  0.10500000000E+00 0.  1.
         13    1    4    4    0    0 -0.64266266898E+01 -0.11246964270E+02  0.16450841959E+01  0.13058065052E+02  0.10500000000E+00 0. -1.
    3000001    1    5    5    0    0  0.27974978729E+01  0.14915159188E+02 -0.33911278971E+01  0.15581646780E+02  0.10000000000E+01 0.  1.
        -13    1    6    6    0    0  0.90913010748E+01  0.14756906938E+02 -0.55992948537E+01  0.18214861665E+02  0.10500000000E+00 0.  1.
         13    1    6    6    0    0  0.14343220912E+02  0.23301123735E+02 -0.86723169464E+01  0.28703492116E+02  0.10500000000E+00 0. -1.
</event>
<event>
11    0  0.3482687E-009  0.9118800E+02  0.7816531E-02  0.1126479E+00
         25   -1    0    0    0    0  0.00000000000E+00  0.00000000000E+00  0.99999998245E-14  0.12500000000E+03  0.12500000000E+03 0.  0.
    3000001    1    3    3    0    0 -0.34888810845E+02  0.61347757341E+01 -0.36284951079E+02  0.50719446668E+02  0.10000000000E+01 0. -1.
    1000022    2    1    0    0    0 -0.41017211008E+02  0.11909980559E+02 -0.44519554811E+02  0.62500001680E+02  0.10000010681E+02 0.  0.
    3000022    2    3    3    0    0 -0.61284001630E+01  0.57752048245E+01 -0.82346037316E+01  0.11780555012E+02  0.24999688370E+00 0.  0.
    1000022    2    1    0    0    0  0.41017211008E+02 -0.11909980559E+02  0.44519554811E+02  0.62499998320E+02  0.99999896854E+01 0.  0.
    3000022    2    5    5    0    0  0.20750859793E+02 -0.10952156759E+02  0.25825590944E+02  0.34893718182E+02  0.25000232248E+00 0.  0.
        -13    1    4    4    0    0 -0.26306763677E+01  0.23953453924E+01 -0.34475649095E+01  0.49552867229E+01  0.10500000000E+00 0.  1.
         13    1    4    4    0    0 -0.34977237953E+01  0.33798594321E+01 -0.47870388221E+01  0.68252682887E+01  0.10500000000E+00 0. -1.
    3000001    1    5    5    0    0  0.20266351216E+02 -0.95782379978E+00  0.18693963867E+02  0.27606280138E+02  0.10000000000E+01 0.  1.
        -13    1    6    6    0    0  0.13757397066E+02 -0.72493553203E+01  0.17194570290E+02  0.23183688211E+02  0.10500000000E+00 0.  1.
         13    1    6    6    0    0  0.69934627271E+01 -0.37028014386E+01  0.86310206537E+01  0.11710029972E+02  0.10500000000E+00 0. -1.
</event>
<event>
11    0  0.3482687E-009  0.9118800E+02  0.7816531E-02  0.1126479E+00
         25   -1    0    0    0    0  0.00000000000E+00  0.00000000000E+00  0.99999998245E-14  0.12500000000E+03  0.12500000000E+03 0.  0.
    3000001    1    3    3    0    0 -0.11985196412E+02 -0.21292557435E+01  0.13751700360E+01  0.12291043718E+02  0.10000000000E+01 0. -1.
    1000022    2    1    0    0    0 -0.55087185388E+02 -0.27754084958E+02 -0.11672391627E+01  0.62500003795E+02  0.10000040062E+02 0.  0.
    3000022    2    3    3    0    0 -0.43101988976E+02 -0.25624829215E+02 -0.25424091987E+01  0.50208960077E+02  0.25000293133E+00 0.  0.
    1000022    2    1    0    0    0  0.55087185388E+02  0.27754084958E+02  0.11672391627E+01  0.62499996205E+02  0.99999926233E+01 0.  0.
    3000022    2    5    5    0    0  0.39831032990E+02  0.21834981125E+02 -0.31908831428E+01  0.45535939903E+02  0.24999563163E+00 0.  0.
        -13    1    4    4    0    0 -0.31619809361E+02 -0.18822281995E+02 -0.18380430953E+01  0.36843996403E+02  0.10500000000E+00 0.  1.
         13    1    4    4    0    0 -0.11482179615E+02 -0.68025472193E+01 -0.70436610337E+00  0.13364963674E+02  0.10500000000E+00 0. -1.
    3000001    1    5    5    0    0  0.15256152399E+02  0.59191038328E+01  0.43581223055E+01  0.16964056302E+02  0.10000000000E+01 0. -1.
        -13    1    6    6    0    0  0.14620354470E+02  0.80317712919E+01 -0.11144651217E+01  0.16718767073E+02  0.10500000000E+00 0. -1.
         13    1    6    6    0    0  0.25210678520E+02  0.13803209833E+02 -0.20764180211E+01  0.28817172830E+02  0.10500000000E+00 0.  1.
</event>
<event>
11    0  0.3482687E-009  0.9118800E+02  0.7816531E-02  0.1126479E+00
         25   -1    0    0    0    0  0.00000000000E+00  0.00000000000E+00  0.99999998245E-14  0.12500000000E+03  0.12500000000E+03 0.  0.
    3000001    1    3    3    0    0  0.16665113171E+02  0.29345373253E+02 -0.10298623706E+02  0.35297855156E+02  0.10000000000E+01 0.  1.
    1000022    2    1    0    0    0  0.31794447448E+02  0.46707257677E+02 -0.24774892074E+02  0.62499999150E+02  0.99999904103E+01 0.  0.
    3000022    2    3    3    0    0  0.15129334277E+02  0.17361884425E+02 -0.14476268368E+02  0.27202143994E+02  0.25001119283E+00 0.  0.
    1000022    2    1    0    0    0 -0.31794447448E+02 -0.46707257677E+02  0.24774892074E+02  0.62500000850E+02  0.10000001036E+02 0.  0.
    3000022    2    5    5    0    0 -0.13288449487E+02 -0.27417305291E+02  0.10855066780E+02  0.32344806276E+02  0.24999807563E+00 0.  0.
        -13    1    4    4    0    0  0.40869377892E+01  0.47406554740E+01 -0.39532087396E+01  0.74037665519E+01  0.10500000000E+00 0. -1.
         13    1    4    4    0    0  0.11042396487E+02  0.12621228951E+02 -0.10523059628E+02  0.19798377443E+02  0.10500000000E+00 0.  1.
    3000001    1    5    5    0    0 -0.18505997960E+02 -0.19289952387E+02  0.13919825294E+02  0.30155194574E+02  0.10000000000E+01 0.  1.
        -13    1    6    6    0    0 -0.10247816165E+02 -0.21146262985E+02  0.83722736033E+01  0.24945704333E+02  0.10500000000E+00 0. -1.
         13    1    6    6    0    0 -0.30406333217E+01 -0.62710423062E+01  0.24827931766E+01  0.73991019429E+01  0.10500000000E+00 0.  1.
</event>
<event>
11    0  0.3482687E-009  0.9118800E+02  0.7816531E-02  0.1126479E+00
         25   -1    0    0    0    0  0.00000000000E+00  0.00000000000E+00  0.99999998245E-14  0.12500000000E+03  0.12500000000E+03 0.  0.
    3000001    1    3    3    0    0 -0.78286080583E+01  0.21282700701E+02  0.11082749098E+02  0.25260003579E+02  0.10000000000E+01 0.  1.
    1000022    2    1    0    0    0 -0.29181636171E+02  0.45964655629E+02  0.29016073521E+02  0.62499999923E+02  0.10000000550E+02 0.  0.
    3000022    2    3    3    0    0 -0.21353028113E+02  0.24681954928E+02  0.17933324423E+02  0.37239996343E+02  0.24998822017E+00 0.  0.
    1000022    2    1    0    0    0  0.29181636171E+02 -0.45964655629E+02 -0.29016073521E+02  0.62500000077E+02  0.10000001516E+02 0.  0.
    3000022    2    5    5    0    0  0.17490199059E+02 -0.24865864751E+02 -0.10825781207E+02  0.32271943362E+02  0.24999341857E+00 0.  0.
        -13    1    4    4    0    0 -0.97318987564E+01  0.11270749608E+02  0.82570039612E+01  0.17027295427E+02  0.10500000000E+00 0. -1.
         13    1    4    4    0    0 -0.11621129357E+02  0.13411205320E+02  0.96763204618E+01  0.20212700917E+02  0.10500000000E+00 0.  1.
    3000001    1    5    5    0    0  0.11691437113E+02 -0.21098790878E+02 -0.18190292314E+02  0.30228056715E+02  0.10000000000E+01 0. -1.
        -13    1    6    6    0    0  0.78223270364E+01 -0.11236896331E+02 -0.48766695485E+01  0.14534427072E+02  0.10500000000E+00 0. -1.
         13    1    6    6    0    0  0.96678720222E+01 -0.13628968420E+02 -0.59491116581E+01  0.17737516291E+02  0.10500000000E+00 0.  1.
</event>
<event>
11    0  0.3482687E-009  0.9118800E+02  0.7816531E-02  0.1126479E+00
         25   -1    0    0    0    0  0.00000000000E+00  0.00000000000E+00  0.99999998245E-14  0.12500000000E+03  0.12500000000E+03 0.  0.
    3000001    1    3    3    0    0  0.44682110039E+01 -0.43101813102E+02  0.69777438639E+01  0.43902393007E+02  0.10000000000E+01 0.  1.
    1000022    2    1    0    0    0 -0.76155643572E-01 -0.60881222575E+02  0.99860361298E+01  0.62500000462E+02  0.10000003916E+02 0.  0.
    3000022    2    3    3    0    0 -0.45443666475E+01 -0.17779409472E+02  0.30082922659E+01  0.18597607455E+02  0.25002259972E+00 0.  0.
    1000022    2    1    0    0    0  0.76155643572E-01  0.60881222575E+02 -0.99860361298E+01  0.62499999538E+02  0.99999981393E+01 0.  0.
    3000022    2    5    5    0    0  0.46773487389E+01  0.30199919271E+02 -0.32157618174E+01  0.30729730975E+02  0.25005301878E+00 0.  0.
        -13    1    4    4    0    0 -0.23894376371E+01 -0.91950822505E+01  0.16141882790E+01  0.96371976536E+01  0.10500000000E+00 0.  1.
         13    1    4    4    0    0 -0.21549290104E+01 -0.85843272217E+01  0.13941039869E+01  0.89604098018E+01  0.10500000000E+00 0. -1.
    3000001    1    5    5    0    0 -0.46011930954E+01  0.30681303303E+02 -0.67702743124E+01  0.31770268563E+02  0.10000000000E+01 0.  1.
        -13    1    6    6    0    0  0.17089556330E+01  0.11192882037E+02 -0.11367015739E+01  0.11379993547E+02  0.10500000000E+00 0. -1.
         13    1    6    6    0    0  0.29683931059E+01  0.19007037234E+02 -0.20790602435E+01  0.19349737428E+02  0.10500000000E+00 0.  1.
</event>
<event>
11    0  0.3482687E-009  0.9118800E+02  0.7816531E-02  0.1126479E+00
         25   -1    0    0    0    0  0.00000000000E+00  0.00000000000E+00  0.99999998245E-14  0.12500000000E+03  0.12500000000E+03 0.  0.
    3000001    1    3    3    0    0 -0.52121586720E+01 -0.18236171134E+02  0.37550501573E+02  0.42080455131E+02  0.10000000000E+01 0. -1.
    1000022    2    1    0    0    0 -0.23388095325E+01 -0.23021895710E+02  0.57190664918E+02  0.62499999441E+02  0.10000003209E+02 0.  0.
    3000022    2    3    3    0    0  0.28733491395E+01 -0.47857245758E+01  0.19640163346E+02  0.20419544310E+02  0.24995717746E+00 0.  0.
    1000022    2    1    0    0    0  0.23388095325E+01  0.23021895710E+02 -0.57190664918E+02  0.62500000559E+02  0.10000010199E+02 0.  0.
    3000022    2    5    5    0    0 -0.10441481024E+01  0.69601132163E+01 -0.29189918082E+02  0.30027441642E+02  0.25002538470E+00 0.  0.
        -13    1    4    4    0    0  0.12031913298E+01 -0.20971217488E+01  0.86718499855E+01  0.90031992190E+01  0.10500000000E+00 0.  1.
         13    1    4    4    0    0  0.16701578097E+01 -0.26886028270E+01  0.10968313360E+02  0.11416345091E+02  0.10500000000E+00 0. -1.
    3000001    1    5    5    0    0  0.33829576349E+01  0.16061782493E+02 -0.28000746836E+02  0.32472558917E+02  0.10000000000E+01 0.  1.
        -13    1    6    6    0    0 -0.37027597524E+00  0.22320389744E+01 -0.95479619320E+01  0.98129355616E+01  0.10500000000E+00 0.  1.
         13    1    6    6    0    0 -0.67387212720E+00  0.47280742420E+01 -0.19641956150E+02  0.20214506081E+02  0.10500000000E+00 0. -1.
</event>
<event>
11    0  0.3482687E-009  0.9118800E+02  0.7816531E-02  0.1126479E+00
         25   -1    0    0    0    0  0.00000000000E+00  0.00000000000E+00  0.99999998245E-14  0.12500000000E+03  0.12500000000E+03 0.  0.
    3000001    1    3    3    0    0  0.12730027191E+02  0.81450049112E+01  0.29702027088E+02  0.33340742500E+02  0.10000000000E+01 0. -1.
    1000022    2    1    0    0    0  0.21554515877E+02  0.23728445855E+02  0.52712558608E+02  0.62499999866E+02  0.99999925434E+01 0.  0.
    3000022    2    3    3    0    0  0.88244886852E+01  0.15583440944E+02  0.23010531520E+02  0.29159257366E+02  0.24999421923E+00 0.  0.
    1000022    2    1    0    0    0 -0.21554515877E+02 -0.23728445855E+02 -0.52712558608E+02  0.62500000134E+02  0.99999942244E+01 0.  0.
    3000022    2    5    5    0    0 -0.15254856569E+02 -0.94636849201E+01 -0.27981014713E+02  0.33245626524E+02  0.25003482329E+00 0.  0.
        -13    1    4    4    0    0  0.64901326638E+01  0.11483641840E+02  0.16998582427E+02  0.21516474651E+02  0.10500000000E+00 0.  1.
         13    1    4    4    0    0  0.23343560215E+01  0.40997991039E+01  0.60119490931E+01  0.76427827147E+01  0.10500000000E+00 0. -1.
    3000001    1    5    5    0    0 -0.62996593077E+01 -0.14264760935E+02 -0.24731543895E+02  0.29254373611E+02  0.10000000000E+01 0. -1.
        -13    1    6    6    0    0 -0.56420664348E+01 -0.35088956581E+01 -0.10466222299E+02  0.12397503644E+02  0.10500000000E+00 0. -1.
         13    1    6    6    0    0 -0.96127901340E+01 -0.59547892620E+01 -0.17514792414E+02  0.20848122880E+02  0.10500000000E+00 0.  1.
</event>
<event>
11    0  0.3482687E-009  0.9118800E+02  0.7816531E-02  0.1126479E+00
         25   -1    0    0    0    0  0.00000000000E+00  0.00000000000E+00  0.99999998245E-14  0.12500000000E+03  0.12500000000E+03 0.  0.
    3000001    1    3    3    0    0  0.11446116720E+02  0.39608852468E+02 -0.24985654098E-01  0.41241670748E+02  0.10000000000E+01 0.  1.
    1000022    2    1    0    0    0  0.12352760662E+02  0.60235786499E+02  0.50308576904E+01  0.62499998335E+02  0.99999795842E+01 0.  0.
    3000022    2    3    3    0    0  0.90664394170E+00  0.20626934031E+02  0.50558433445E+01  0.21258327587E+02  0.25005824741E+00 0.  0.
    1000022    2    1    0    0    0 -0.12352760662E+02 -0.60235786499E+02 -0.50308576904E+01  0.62500001665E+02  0.10000000392E+02 0.  0.
    3000022    2    5    5    0    0 -0.10546870994E+02 -0.52364974698E+02 -0.76269862187E+01  0.53958877662E+02  0.24999365297E+00 0.  0.
        -13    1    4    4    0    0  0.67736927425E+00  0.14383922065E+02  0.35139053201E+01  0.14822772977E+02  0.10500000000E+00 0.  1.
         13    1    4    4    0    0  0.22927466745E+00  0.62430119653E+01  0.15419380244E+01  0.64355546104E+01  0.10500000000E+00 0. -1.
    3000001    1    5    5    0    0 -0.18058896676E+01 -0.78708118008E+01  0.25961285283E+01  0.85411240028E+01  0.10000000000E+01 0. -1.
        -13    1    6    6    0    0 -0.43218140520E+01 -0.21774439678E+02 -0.31854196778E+01  0.22426819291E+02  0.10500000000E+00 0. -1.
         13    1    6    6    0    0 -0.62250569422E+01 -0.30590535020E+02 -0.44415665409E+01  0.31532058371E+02  0.10500000000E+00 0.  1.
</event>
<event>
11    0  0.3482687E-009  0.9118800E+02  0.7816531E-02  0.1126479E+00
         25   -1    0    0    0    0  0.00000000000E+00  0.00000000000E+00  0.99999998245E-14  0.12500000000E+03  0.12500000000E+03 0.  0.
    3000001    1    3    3    0    0  0.21067974803E+01 -0.16276311384E+01 -0.20739906817E+01  0.35198318275E+01  0.10000000000E+01 0.  1.
    1000022    2    1    0    0    0  0.56617534952E+02 -0.23889942788E+02 -0.54749656274E+01  0.62499999240E+02  0.10000001298E+02 0.  0.
    3000022    2    3    3    0    0  0.54510737471E+02 -0.22262311650E+02 -0.34009749458E+01  0.58980167412E+02  0.24999554126E+00 0.  0.
    1000022    2    1    0    0    0 -0.56617534952E+02  0.23889942788E+02  0.54749656274E+01  0.62500000760E+02  0.10000010799E+02 0.  0.
    3000022    2    5    5    0    0 -0.13070107936E+01  0.20421274657E+01 -0.10728564258E+01  0.26630966737E+01  0.25000236536E+00 0.  0.
        -13    1    4    4    0    0  0.14401840582E+02 -0.58754497051E+01 -0.86535958738E+00  0.15578632597E+02  0.10500000000E+00 0.  1.
         13    1    4    4    0    0  0.40108896889E+02 -0.16386861945E+02 -0.25356153584E+01  0.43401534815E+02  0.10500000000E+00 0. -1.
    3000001    1    5    5    0    0 -0.55310524158E+02  0.21847815322E+02  0.65478220532E+01  0.59836904086E+02  0.10000000000E+01 0. -1.
        -13    1    6    6    0    0 -0.80806285604E+00  0.13359328570E+01 -0.73482849299E+00  0.17287799431E+01  0.10500000000E+00 0. -1.
         13    1    6    6    0    0 -0.49894793754E+00  0.70619460867E+00 -0.33802793281E+00  0.93431673058E+00  0.10500000000E+00 0.  1.
</event>
<event>
11    0  0.3482687E-009  0.9118800E+02  0.7816531E-02  0.1126479E+00
         25   -1    0    0    0    0  0.00000000000E+00  0.00000000000E+00  0.99999998245E-14  0.12500000000E+03  0.12500000000E+03 0.  0.
    3000001    1    3    3    0    0  0.20091040153E+02  0.14138041150E+02  0.10031431657E+02  0.26554919000E+02  0.10000000000E+01 0.  1.
    1000022    2    1    0    0    0  0.39584660518E+02  0.34874182026E+02  0.31985875205E+02  0.62500000186E+02  0.99999945142E+01 0.  0.
    3000022    2    3    3    0    0  0.19493620365E+02  0.20736140876E+02  0.21954443547E+02  0.35945081186E+02  0.24999322746E+00 0.  0.
    1000022    2    1    0    0    0 -0.39584660518E+02 -0.34874182026E+02 -0.31985875205E+02  0.62499999814E+02  0.99999921943E+01 0.  0.
    3000022    2    5    5    0    0 -0.20083052889E+02 -0.17449891180E+02 -0.21873514869E+02  0.34443299311E+02  0.24999827635E+00 0.  0.
        -13    1    4    4    0    0  0.13590090923E+02  0.14408898074E+02  0.15321413839E+02  0.25041239227E+02  0.10500000000E+00 0. -1.
         13    1    4    4    0    0  0.59035294419E+01  0.63272428028E+01  0.66330297085E+01  0.10903841959E+02  0.10500000000E+00 0.  1.
    3000001    1    5    5    0    0 -0.19501607629E+02 -0.17424290846E+02 -0.10112360336E+02  0.28056700504E+02  0.10000000000E+01 0. -1.
        -13    1    6    6    0    0 -0.13258060876E+02 -0.11463571182E+02 -0.14454784281E+02  0.22718746798E+02  0.10500000000E+00 0. -1.
         13    1    6    6    0    0 -0.68249920127E+01 -0.59863199981E+01 -0.74187305884E+01  0.11724552513E+02  0.10500000000E+00 0.  1.
</event>
<event>
11    0  0.3482687E-009  0.9118800E+02  0.7816531E-02  0.1126479E+00
         25   -1    0    0    0    0  0.00000000000E+00  0.00000000000E+00  0.99999998245E-14  0.12500000000E+03  0.12500000000E+03 0.  0.
    3000001    1    3    3    0    0  0.82168411611E+01 -0.63042283437E+01 -0.28571382781E+02  0.30406967749E+02  0.10000000000E+01 0. -1.
    1000022    2    1    0    0    0  0.26088690908E+02 -0.12835972773E+02 -0.54413859287E+02  0.62500000877E+02  0.10000001835E+02 0.  0.
    3000022    2    3    3    0    0  0.17871849747E+02 -0.65317444298E+01 -0.25842476507E+02  0.32093033128E+02  0.24996934957E+00 0.  0.
    1000022    2    1    0    0    0 -0.26088690908E+02  0.12835972773E+02  0.54413859287E+02  0.62499999123E+02  0.99999908772E+01 0.  0.
    3000022    2    5    5    0    0 -0.11480749605E+02  0.10885328472E+02  0.25022906095E+02  0.29605849312E+02  0.24999315306E+00 0.  0.
        -13    1    4    4    0    0  0.43495029310E+01 -0.15996468397E+01 -0.63288333699E+01  0.78448838476E+01  0.10500000000E+00 0.  1.
         13    1    4    4    0    0  0.13522346816E+02 -0.49320975901E+01 -0.19513643137E+02  0.24248149280E+02  0.10500000000E+00 0. -1.
    3000001    1    5    5    0    0 -0.14607941303E+02  0.19506443017E+01  0.29390953192E+02  0.32894149812E+02  0.10000000000E+01 0. -1.
        -13    1    6    6    0    0 -0.62838432273E+01  0.58906070102E+01  0.13536914696E+02  0.16045093366E+02  0.10500000000E+00 0. -1.
         13    1    6    6    0    0 -0.51969063779E+01  0.49947214615E+01  0.11485991400E+02  0.13560755945E+02  0.10500000000E+00 0.  1.
</event>
<event>
11    0  0.3482687E-009  0.9118800E+02  0.7816531E-02  0.1126479E+00
         25   -1    0    0    0    0  0.00000000000E+00  0.00000000000E+00  0.99999998245E-14  0.12500000000E+03  0.12500000000E+03 0.  0.
    3000001    1    3    3    0    0  0.39434183297E+01  0.14641301136E+02  0.16322639461E+02  0.22301273642E+02  0.10000000000E+01 0. -1.
    1000022    2    1    0    0    0  0.15183964381E+02  0.29984864152E+02  0.51735917508E+02  0.62499999478E+02  0.99999960935E+01 0.  0.
    3000022    2    3    3    0    0  0.11240546052E+02  0.15343563016E+02  0.35413278047E+02  0.40198725836E+02  0.24999057690E+00 0.  0.
    1000022    2    1    0    0    0 -0.15183964381E+02 -0.29984864152E+02 -0.51735917508E+02  0.62500000522E+02  0.10000002618E+02 0.  0.
    3000022    2    5    5    0    0 -0.82254313208E+01 -0.17855611387E+02 -0.38451672399E+02  0.43186504643E+02  0.24998905111E+00 0.  0.
        -13    1    4    4    0    0  0.78584241545E+01  0.10725768740E+02  0.24852358141E+02  0.28185948191E+02  0.10500000000E+00 0. -1.
         13    1    4    4    0    0  0.33821218971E+01  0.46177942765E+01  0.10560919905E+02  0.12012777645E+02  0.10500000000E+00 0.  1.
    3000001    1    5    5    0    0 -0.69585330604E+01 -0.12129252765E+02 -0.13284245108E+02  0.19313495879E+02  0.10000000000E+01 0. -1.
        -13    1    6    6    0    0 -0.27376292803E+01 -0.60285303535E+01 -0.12861849583E+02  0.14466374528E+02  0.10500000000E+00 0.  1.
         13    1    6    6    0    0 -0.54878020405E+01 -0.11827081034E+02 -0.25589822816E+02  0.28720130115E+02  0.10500000000E+00 0. -1.
</event>
<event>
11    0  0.3482687E-009  0.9118800E+02  0.7816531E-02  0.1126479E+00
         25   -1    0    0    0    0  0.00000000000E+00  0.00000000000E+00  0.99999998245E-14  0.12500000000E+03  0.12500000000E+03 0.  0.
    3000001    1    3    3    0    0  0.27275711240E+02  0.12581112472E+02 -0.12496503426E+02  0.32548600777E+02  0.10000000000E+01 0. -1.
    1000022    2    1    0    0    0  0.55068056733E+02  0.15075438168E+02 -0.23377126097E+02  0.62500003964E+02  0.10000038127E+02 0.  0.
    3000022    2    3    3    0    0  0.27792345494E+02  0.24943256962E+01 -0.10880622672E+02  0.29951403187E+02  0.24994882221E+00 0.  0.
    1000022    2    1    0    0    0 -0.55068056733E+02 -0.15075438168E+02  0.23377126097E+02  0.62499996036E+02  0.99999885827E+01 0.  0.
    3000022    2    5    5    0    0 -0.98970403042E+01 -0.48183423193E+01  0.10242814609E+01  0.11058005369E+02  0.25000148611E+00 0.  0.
        -13    1    4    4    0    0  0.17617500375E+02  0.15309814415E+01 -0.68617374739E+01  0.18968781979E+02  0.10500000000E+00 0.  1.
         13    1    4    4    0    0  0.10174845119E+02  0.96334425471E+00 -0.40188851978E+01  0.10982621207E+02  0.10500000000E+00 0. -1.
    3000001    1    5    5    0    0 -0.45171016429E+02 -0.10257095849E+02  0.22352844636E+02  0.51441990667E+02  0.10000000000E+01 0. -1.
        -13    1    6    6    0    0 -0.52053422195E+01 -0.24795052369E+01  0.48995272681E+00  0.57874530250E+01  0.10500000000E+00 0. -1.
         13    1    6    6    0    0 -0.46916980847E+01 -0.23388370825E+01  0.53432873412E+00  0.52705523442E+01  0.10500000000E+00 0.  1.
</event>
<event>
11    0  0.3482687E-009  0.9118800E+02  0.7816531E-02  0.1126479E+00
         25   -1    0    0    0    0  0.00000000000E+00  0.00000000000E+00  0.99999998245E-14  0.12500000000E+03  0.12500000000E+03 0.  0.
    3000001    1    3    3    0    0  0.14028395058E+02  0.12536494552E+02 -0.31433951701E+02  0.36647685918E+02  0.10000000000E+01 0. -1.
    1000022    2    1    0    0    0  0.16016283087E+02  0.20368447138E+02 -0.55989775853E+02  0.62500000744E+02  0.10000006513E+02 0.  0.
    3000022    2    3    3    0    0  0.19878880287E+01  0.78319525852E+01 -0.24555824152E+02  0.25852314827E+02  0.25000401815E+00 0.  0.
    1000022    2    1    0    0    0 -0.16016283087E+02 -0.20368447138E+02  0.55989775853E+02  0.62499999256E+02  0.99999972081E+01 0.  0.
    3000022    2    5    5    0    0 -0.59337578825E+01 -0.97606813286E+01  0.35551721912E+02  0.37342573735E+02  0.24999918407E+00 0.  0.
        -13    1    4    4    0    0  0.79967105342E+00  0.30294822944E+01 -0.96970565464E+01  0.10191229927E+02  0.10500000000E+00 0. -1.
         13    1    4    4    0    0  0.11882169753E+01  0.48024702908E+01 -0.14858767606E+02  0.15661084900E+02  0.10500000000E+00 0.  1.
    3000001    1    5    5    0    0 -0.10082525205E+02 -0.10607765809E+02  0.20438053941E+02  0.25157425521E+02  0.10000000000E+01 0.  1.
        -13    1    6    6    0    0 -0.31962464722E+01 -0.51956071334E+01  0.19177619884E+02  0.20124672777E+02  0.10500000000E+00 0. -1.
         13    1    6    6    0    0 -0.27375114103E+01 -0.45650741952E+01  0.16374102029E+02  0.17217900957E+02  0.10500000000E+00 0.  1.
</event>
<event>
11    0  0.3482687E-009  0.9118800E+02  0.7816531E-02  0.1126479E+00
         25   -1    0    0    0    0  0.00000000000E+00  0.00000000000E+00  0.99999998245E-14  0.12500000000E+03  0.12500000000E+03 0.  0.
    3000001    1    3    3    0    0  0.20219430206E+02 -0.88865708922E+01  0.71562499760E+01  0.23238081113E+02  0.10000000000E+01 0.  1.
    1000022    2    1    0    0    0  0.58784304746E+02 -0.15215643787E+02  0.10915113080E+02  0.62499999868E+02  0.99999994805E+01 0.  0.
    3000022    2    3    3    0    0  0.38564874540E+02 -0.63290728950E+01  0.37588631036E+01  0.39261918755E+02  0.25000103321E+00 0.  0.
    1000022    2    1    0    0    0 -0.58784304746E+02  0.15215643787E+02 -0.10915113080E+02  0.62500000132E+02  0.10000001129E+02 0.  0.
    3000022    2    5    5    0    0 -0.49987426883E+02  0.12267970209E+02 -0.12663348214E+02  0.53006309293E+02  0.24999477640E+00 0.  0.
        -13    1    4    4    0    0  0.17346313736E+02 -0.28175853463E+01  0.17506448124E+01  0.17660950418E+02  0.10500000000E+00 0.  1.
         13    1    4    4    0    0  0.21218560804E+02 -0.35114875487E+01  0.20082182912E+01  0.21600968337E+02  0.10500000000E+00 0. -1.
    3000001    1    5    5    0    0 -0.87968778630E+01  0.29476735777E+01  0.17482351348E+01  0.94936908389E+01  0.10000000000E+01 0.  1.
        -13    1    6    6    0    0 -0.34538365607E+02  0.84284404637E+01 -0.87594802624E+01  0.36615254020E+02  0.10500000000E+00 0.  1.
         13    1    6    6    0    0 -0.15449061276E+02  0.38395297457E+01 -0.39038679519E+01  0.16391055273E+02  0.10500000000E+00 0. -1.
</event>
<event>
11    0  0.3482687E-009  0.9118800E+02  0.7816531E-02  0.1126479E+00
         25   -1    0    0    0    0  0.00000000000E+00  0.00000000000E+00  0.99999998245E-14  0.12500000000E+03  0.12500000000E+03 0.  0.
    3000001    1    3    3    0    0 -0.23803067250E+02 -0.21227167479E+02 -0.50201723561E+02  0.59484381969E+02  0.10000000000E+01 0. -1.
    1000022    2    1    0    0    0 -0.26361647066E+02 -0.20855258150E+02 -0.51733661191E+02  0.62500000937E+02  0.10000009421E+02 0.  0.
    3000022    2    3    3    0    0 -0.25585798160E+01  0.37190932911E+00 -0.15319376300E+01  0.30156189688E+01  0.24995527348E+00 0.  0.
    1000022    2    1    0    0    0  0.26361647066E+02  0.20855258150E+02  0.51733661191E+02  0.62499999063E+02  0.99999977030E+01 0.  0.
    3000022    2    5    5    0    0  0.64139522591E+00  0.13716443041E+01  0.79790039766E+01  0.81252568456E+01  0.24999683096E+00 0.  0.
        -13    1    4    4    0    0 -0.14240238344E+01  0.14627983945E+00 -0.87972936756E+00  0.16835054002E+01  0.10500000000E+00 0. -1.
         13    1    4    4    0    0 -0.11345559817E+01  0.22562948966E+00 -0.65220826239E+00  0.13321135686E+01  0.10500000000E+00 0.  1.
    3000001    1    5    5    0    0  0.25720251840E+02  0.19483613845E+02  0.43754657215E+02  0.54374742217E+02  0.10000000000E+01 0. -1.
        -13    1    6    6    0    0  0.43556503492E+00  0.83073182838E+00  0.51444161933E+01  0.52302844321E+01  0.10500000000E+00 0.  1.
         13    1    6    6    0    0  0.20583019100E+00  0.54091247570E+00  0.28345877833E+01  0.28949724135E+01  0.10500000000E+00 0. -1.
</event>
<event>
11    0  0.3482687E-009  0.9118800E+02  0.7816531E-02  0.1126479E+00
         25   -1    0    0    0    0  0.00000000000E+00  0.00000000000E+00  0.99999998245E-14  0.12500000000E+03  0.12500000000E+03 0.  0.
    3000001    1    3    3    0    0  0.50632980619E+02  0.24086181977E+02 -0.66639814598E+01  0.56473458699E+02  0.10000000000E+01 0.  1.
    1000022    2    1    0    0    0  0.56598877545E+02  0.23835862007E+02 -0.58880183258E+01  0.62499999993E+02  0.99999991145E+01 0.  0.
    3000022    2    3    3    0    0  0.59658969265E+01 -0.25031996928E+00  0.77596313400E+00  0.60265412938E+01  0.24998990960E+00 0.  0.
    1000022    2    1    0    0    0 -0.56598877545E+02 -0.23835862007E+02  0.58880183258E+01  0.62500000007E+02  0.99999992017E+01 0.  0.
    3000022    2    5    5    0    0 -0.51737819136E+02 -0.24432777888E+02  0.51772604238E+01  0.57451101689E+02  0.24999112877E+00 0.  0.
        -13    1    4    4    0    0  0.29159324546E+01 -0.18874842637E+00  0.39355030913E+00  0.29502872562E+01  0.10500000000E+00 0.  1.
         13    1    4    4    0    0  0.30499644719E+01 -0.61571542909E-01  0.38241282487E+00  0.30762540375E+01  0.10500000000E+00 0. -1.
    3000001    1    5    5    0    0 -0.48610584094E+01  0.59691588010E+00  0.71075790202E+00  0.50488983178E+01  0.10000000000E+01 0. -1.
        -13    1    6    6    0    0 -0.23051907038E+02 -0.10911845901E+02  0.23702224519E+01  0.25614210480E+02  0.10500000000E+00 0. -1.
         13    1    6    6    0    0 -0.28685912098E+02 -0.13520931986E+02  0.28070379719E+01  0.31836891209E+02  0.10500000000E+00 0.  1.
</event>
<event>
11    0  0.3482687E-009  0.9118800E+02  0.7816531E-02  0.1126479E+00
         25   -1    0    0    0    0  0.00000000000E+00  0.00000000000E+00  0.99999998245E-14  0.12500000000E+03  0.12500000000E+03 0.  0.
    3000001    1    3    3    0    0 -0.26683260259E+00  0.28988197301E+02 -0.26863568344E+01  0.29130796341E+02  0.10000000000E+01 0. -1.
    1000022    2    1    0    0    0  0.24846260400E+01  0.59646633326E+02 -0.15567779404E+02  0.62500000304E+02  0.10000002438E+02 0.  0.
    3000022    2    3    3    0    0  0.27514586426E+01  0.30658436024E+02 -0.12881422569E+02  0.33369203963E+02  0.25000315345E+00 0.  0.
    1000022    2    1    0    0    0 -0.24846260400E+01 -0.59646633326E+02  0.15567779404E+02  0.62499999696E+02  0.99999986416E+01 0.  0.
    3000022    2    5    5    0    0  0.34126562319E+01 -0.11450947968E+02  0.25530119736E+01  0.12220916604E+02  0.25000118968E+00 0.  0.
        -13    1    4    4    0    0  0.11379447989E+01  0.13031804187E+02 -0.55361874375E+01  0.14205042593E+02  0.10500000000E+00 0.  1.
         13    1    4    4    0    0  0.16135138437E+01  0.17626631837E+02 -0.73452351320E+01  0.19164161370E+02  0.10500000000E+00 0. -1.
    3000001    1    5    5    0    0 -0.58972822719E+01 -0.48195685358E+02  0.13014767430E+02  0.50279083092E+02  0.10000000000E+01 0.  1.
        -13    1    6    6    0    0  0.18971531165E+01 -0.63551049724E+01  0.14848563672E+01  0.67972327155E+01  0.10500000000E+00 0. -1.
         13    1    6    6    0    0  0.15155031154E+01 -0.50958429955E+01  0.10681556064E+01  0.54236838889E+01  0.10500000000E+00 0.  1.
</event>
<event>
11    0  0.3482687E-009  0.9118800E+02  0.7816531E-02  0.1126479E+00
         25   -1    0    0    0    0  0.00000000000E+00  0.00000000000E+00  0.99999998245E-14  0.12500000000E+03  0.12500000000E+03 0.  0.
    3000001    1    3    3    0    0 -0.34228148629E+02 -0.75303821930E+01 -0.44669899927E+02  0.56786202321E+02  0.10000000000E+01 0. -1.
    1000022    2    1    0    0    0 -0.35260671984E+02 -0.10262726325E+02 -0.49574303528E+02  0.62499999994E+02  0.99999944284E+01 0.  0.
    3000022    2    3    3    0    0 -0.10325233549E+01 -0.27323441324E+01 -0.49044036011E+01  0.57137976732E+01  0.25000046131E+00 0.  0.
    1000022    2    1    0    0    0  0.35260671984E+02  0.10262726325E+02  0.49574303528E+02  0.62500000006E+02  0.99999945035E+01 0.  0.
    3000022    2    5    5    0    0  0.67470249940E+01  0.46241497899E+01  0.61516453059E+01  0.10237691818E+02  0.24997249888E+00 0.  0.
        -13    1    4    4    0    0 -0.51834975390E+00 -0.14862669023E+01 -0.27450453385E+01  0.31660661210E+01  0.10500000000E+00 0.  1.
         13    1    4    4    0    0 -0.51417360104E+00 -0.12460772301E+01 -0.21593582626E+01  0.25477315522E+01  0.10500000000E+00 0. -1.
    3000001    1    5    5    0    0  0.28513646990E+02  0.56385765355E+01  0.43422658222E+02  0.52262308188E+02  0.10000000000E+01 0. -1.
        -13    1    6    6    0    0  0.26585303095E+01  0.18956620291E+01  0.24350740145E+01  0.40745464032E+01  0.10500000000E+00 0. -1.
         13    1    6    6    0    0  0.40884946845E+01  0.27284877608E+01  0.37165712914E+01  0.61631454153E+01  0.10500000000E+00 0.  1.
</event>
<event>
11    0  0.3482687E-009  0.9118800E+02  0.7816531E-02  0.1126479E+00
         25   -1    0    0    0    0  0.00000000000E+00  0.00000000000E+00  0.99999998245E-14  0.12500000000E+03  0.12500000000E+03 0.  0.
    3000001    1    3    3    0    0  0.11637137149E+02 -0.12611383860E+01 -0.32645342014E+00  0.11752446677E+02  0.10000000000E+01 0. -1.
    1000022    2    1    0    0    0  0.60158395395E+02  0.10393066056E+02  0.88995286283E+01  0.62500000483E+02  0.10000004600E+02 0.  0.
    3000022    2    3    3    0    0  0.48521258246E+02  0.11654204442E+02  0.92259820485E+01  0.50747553806E+02  0.24997917387E+00 0.  0.
    1000022    2    1    0    0    0 -0.60158395395E+02 -0.10393066056E+02 -0.88995286283E+01  0.62499999517E+02  0.99999985614E+01 0.  0.
    3000022    2    5    5    0    0 -0.36834749105E+02 -0.30495301554E+01 -0.17449315049E+01  0.37002778966E+02  0.24997898170E+00 0.  0.
        -13    1    4    4    0    0  0.28340464806E+02  0.68079867936E+01  0.53232162829E+01  0.29629010888E+02  0.10500000000E+00 0.  1.
         13    1    4    4    0    0  0.20180793441E+02  0.48462176484E+01  0.39027657656E+01  0.21118542919E+02  0.10500000000E+00 0. -1.
    3000001    1    5    5    0    0 -0.23323646291E+02 -0.73435359006E+01 -0.71545971235E+01  0.25497220551E+02  0.10000000000E+01 0. -1.
        -13    1    6    6    0    0 -0.11263575475E+02 -0.88517481565E+00 -0.52980887845E+00  0.11311206363E+02  0.10500000000E+00 0. -1.
         13    1    6    6    0    0 -0.25571173629E+02 -0.21643553398E+01 -0.12151226264E+01  0.25691572603E+02  0.10500000000E+00 0.  1.
</event>
<event>
11    0  0.3482687E-009  0.9118800E+02  0.7816531E-02  0.1126479E+00
         25   -1    0    0    0    0  0.00000000000E+00  0.00000000000E+00  0.99999998245E-14  0.12500000000E+03  0.12500000000E+03 0.  0.
    3000001    1    3    3    0    0  0.11451184485E+02 -0.23799469588E+02 -0.40452906814E+02  0.48321651964E+02  0.10000000000E+01 0. -1.
    1000022    2    1    0    0    0  0.16380105328E+02 -0.25802085871E+02 -0.53592858470E+02  0.62499999962E+02  0.10000001520E+02 0.  0.
    3000022    2    3    3    0    0  0.49289208424E+01 -0.20026162833E+01 -0.13139951656E+02  0.14178347998E+02  0.24997958431E+00 0.  0.
    1000022    2    1    0    0    0 -0.16380105328E+02  0.25802085871E+02  0.53592858470E+02  0.62500000038E+02  0.10000001993E+02 0.  0.
    3000022    2    5    5    0    0 -0.10658351959E+02  0.80049802882E+01  0.24792771234E+02  0.28150029826E+02  0.24999567169E+00 0.  0.
        -13    1    4    4    0    0  0.30397285357E+01 -0.12798129924E+01 -0.80232564595E+01  0.86753409202E+01  0.10500000000E+00 0. -1.
         13    1    4    4    0    0  0.18891923067E+01 -0.72280329091E+00 -0.51166951963E+01  0.55030070780E+01  0.10500000000E+00 0.  1.
    3000001    1    5    5    0    0 -0.57217533686E+01  0.17797105583E+02  0.28800087236E+02  0.34349970212E+02  0.10000000000E+01 0.  1.
        -13    1    6    6    0    0 -0.43916072667E+01  0.32209723123E+01  0.10096399851E+02  0.11472104949E+02  0.10500000000E+00 0.  1.
         13    1    6    6    0    0 -0.62667446926E+01  0.47840079759E+01  0.14696371383E+02  0.16677924877E+02  0.10500000000E+00 0. -1.
</event>
<event>
11    0  0.3482687E-009  0.9118800E+02  0.7816531E-02  0.1126479E+00
         25   -1    0    0    0    0  0.00000000000E+00  0.00000000000E+00  0.99999998245E-14  0.12500000000E+03  0.12500000000E+03 0.  0.
    3000001    1    3    3    0    0  0.37442625477E+02  0.18631022721E+02 -0.29573038654E+02  0.51231141169E+02  0.10000000000E+01 0.  1.
    1000022    2    1    0    0    0  0.42642078175E+02  0.26254693572E+02 -0.36036012997E+02  0.62500001716E+02  0.10000010802E+02 0.  0.
    3000022    2    3    3    0    0  0.51994526978E+01  0.76236708509E+01 -0.64629743436E+01  0.11268860546E+02  0.25003009709E+00 0.  0.
    1000022    2    1    0    0    0 -0.42642078175E+02 -0.26254693572E+02  0.36036012997E+02  0.62499998284E+02  0.99999893579E+01 0.  0.
    3000022    2    5    5    0    0 -0.20120645317E+02 -0.82560675379E+01  0.19716286477E+02  0.29356387274E+02  0.25000438061E+00 0.  0.
        -13    1    4    4    0    0  0.20221848389E+01  0.29927788838E+01 -0.24567033186E+01  0.43694820249E+01  0.10500000000E+00 0.  1.
         13    1    4    4    0    0  0.31772678589E+01  0.46308919670E+01 -0.40062710250E+01  0.68993785215E+01  0.10500000000E+00 0. -1.
    3000001    1    5    5    0    0 -0.22521432858E+02 -0.17998626034E+02  0.16319726521E+02  0.33143611010E+02  0.10000000000E+01 0.  1.
        -13    1    6    6    0    0 -0.90179923184E+01 -0.36507945309E+01  0.88849500848E+01  0.13175957239E+02  0.10500000000E+00 0.  1.
         13    1    6    6    0    0 -0.11102652999E+02 -0.46052730070E+01  0.10831336392E+02  0.16180430035E+02  0.10500000000E+00 0. -1.
</event>
<event>
11    0  0.3482687E-009  0.9118800E+02  0.7816531E-02  0.1126479E+00
         25   -1    0    0    0    0  0.00000000000E+00  0.00000000000E+00  0.99999998245E-14  0.12500000000E+03  0.12500000000E+03 0.  0.
    3000001    1    3    3    0    0 -0.73137182422E+01  0.31406145618E+01  0.17573689453E+01  0.82123248816E+01  0.10000000000E+01 0. -1.
    1000022    2    1    0    0    0 -0.47614377312E+02  0.16583043904E+02  0.35554500302E+02  0.62499990290E+02  0.10000001130E+02 0.  0.
    3000022    2    3    3    0    0 -0.40300659069E+02  0.13442429342E+02  0.33797131357E+02  0.54287665408E+02  0.24999895867E+00 0.  0.
    1000022    2    1    0    0    0  0.47614377312E+02 -0.16583043904E+02 -0.35554500302E+02  0.62500009710E+02  0.10000122510E+02 0.  0.
    3000022    2    5    5    0    0  0.12782762212E+02 -0.92810338599E+01 -0.10866757943E+02  0.19175127900E+02  0.25000501183E+00 0.  0.
        -13    1    4    4    0    0 -0.20261348691E+02  0.68293557997E+01  0.17018490898E+02  0.27327685757E+02  0.10500000000E+00 0.  1.
         13    1    4    4    0    0 -0.20039310379E+02  0.66130735422E+01  0.16778640459E+02  0.26959979651E+02  0.10500000000E+00 0. -1.
    3000001    1    5    5    0    0  0.34831615100E+02 -0.73020100438E+01 -0.24687742358E+02  0.43324881810E+02  0.10000000000E+01 0.  1.
        -13    1    6    6    0    0  0.52027388543E+01 -0.36995031046E+01 -0.43836600990E+01  0.77448250897E+01  0.10500000000E+00 0.  1.
         13    1    6    6    0    0  0.75800233576E+01 -0.55815307553E+01 -0.64830978444E+01  0.11430302810E+02  0.10500000000E+00 0. -1.
</event>
<event>
11    0  0.3482687E-009  0.9118800E+02  0.7816531E-02  0.1126479E+00
         25   -1    0    0    0    0  0.00000000000E+00  0.00000000000E+00  0.99999998245E-14  0.12500000000E+03  0.12500000000E+03 0.  0.
    3000001    1    3    3    0    0  0.37636451015E+02 -0.73929850795E+01 -0.80504218647E+01  0.39204183011E+02  0.10000000000E+01 0.  1.
    1000022    2    1    0    0    0  0.56701386953E+02 -0.16568471677E+02 -0.17795738244E+02  0.62499998697E+02  0.10000000073E+02 0.  0.
    3000022    2    3    3    0    0  0.19064935938E+02 -0.91754865973E+01 -0.97453163790E+01  0.23295815686E+02  0.25000108009E+00 0.  0.
    1000022    2    1    0    0    0 -0.56701386953E+02  0.16568471677E+02  0.17795738244E+02  0.62500001303E+02  0.10000016358E+02 0.  0.
    3000022    2    5    5    0    0 -0.10512904322E+02  0.68741805625E+01  0.55329360179E+01  0.13727759952E+02  0.24999327855E+00 0.  0.
        -13    1    4    4    0    0  0.80934637988E+01 -0.39335055491E+01 -0.40839515666E+01  0.98826265519E+01  0.10500000000E+00 0.  1.
         13    1    4    4    0    0  0.10971472139E+02 -0.52419810482E+01 -0.56613648124E+01  0.13413189134E+02  0.10500000000E+00 0. -1.
    3000001    1    5    5    0    0 -0.46188482631E+02  0.96942911143E+01  0.12262802226E+02  0.48772241351E+02  0.10000000000E+01 0. -1.
        -13    1    6    6    0    0 -0.76972049301E+01  0.49936812065E+01  0.40563243427E+01  0.10032377978E+02  0.10500000000E+00 0. -1.
         13    1    6    6    0    0 -0.28156993918E+01  0.18804993560E+01  0.14766116752E+01  0.36953819738E+01  0.10500000000E+00 0.  1.
</event>
<event>
11    0  0.3482687E-009  0.9118800E+02  0.7816531E-02  0.1126479E+00
         25   -1    0    0    0    0  0.00000000000E+00  0.00000000000E+00  0.99999998245E-14  0.12500000000E+03  0.12500000000E+03 0.  0.
    3000001    1    3    3    0    0  0.96899955696E+01 -0.11003809468E+02  0.34515173494E+02  0.37513691344E+02  0.10000000000E+01 0.  1.
    1000022    2    1    0    0    0  0.81751525270E+01 -0.17496243989E+02  0.58594350916E+02  0.62500002413E+02  0.10000033492E+02 0.  0.
    3000022    2    3    3    0    0 -0.15148430426E+01 -0.64924345207E+01  0.24079177422E+02  0.24986311069E+02  0.25000015205E+00 0.  0.
    1000022    2    1    0    0    0 -0.81751525270E+01  0.17496243989E+02 -0.58594350916E+02  0.62499997587E+02  0.10000003328E+02 0.  0.
    3000022    2    5    5    0    0  0.31854266416E+00 -0.11554125110E+01 -0.30262694766E+01  0.32645451701E+01  0.25000144549E+00 0.  0.
        -13    1    4    4    0    0 -0.85690276572E+00 -0.34785005002E+01  0.13126786930E+02  0.13607270417E+02  0.10500000000E+00 0.  1.
         13    1    4    4    0    0 -0.65794027685E+00 -0.30139340204E+01  0.10952390491E+02  0.11379040652E+02  0.10500000000E+00 0. -1.
    3000001    1    5    5    0    0 -0.84936951912E+01  0.18651656500E+02 -0.55568081439E+02  0.59235452417E+02  0.10000000000E+01 0.  1.
        -13    1    6    6    0    0  0.19903816438E+00 -0.60959740223E+00 -0.14522881556E+01  0.15910345913E+01  0.10500000000E+00 0.  1.
         13    1    6    6    0    0  0.11950449979E+00 -0.54581510880E+00 -0.15739813210E+01  0.16735105788E+01  0.10500000000E+00 0. -1.
</event>
<event>
11    0  0.3482687E-009  0.9118800E+02  0.7816531E-02  0.1126479E+00
         25   -1    0    0    0    0  0.00000000000E+00  0.00000000000E+00  0.99999998245E-14  0.12500000000E+03  0.12500000000E+03 0.  0.
    3000001    1    3    3    0    0  0.70975923347E+01 -0.55824788047E+01  0.53981644867E+01  0.10567878992E+02  0.10000000000E+01 0.  1.
    1000022    2    1    0    0    0  0.48095634385E+02 -0.12907634328E+02  0.36420485784E+02  0.62499991143E+02  0.10000001863E+02 0.  0.
    3000022    2    3    3    0    0  0.40998042050E+02 -0.73251555236E+01  0.31022321297E+02  0.51932112151E+02  0.24999682553E+00 0.  0.
    1000022    2    1    0    0    0 -0.48095634385E+02  0.12907634328E+02 -0.36420485784E+02  0.62500008857E+02  0.10000112575E+02 0.  0.
    3000022    2    5    5    0    0 -0.20270390828E+02  0.79577313095E+01 -0.21162955646E+02  0.30366880394E+02  0.25000251190E+00 0.  0.
        -13    1    4    4    0    0  0.14684405855E+02 -0.25742730792E+01  0.11066145387E+02  0.18566886005E+02  0.10500000000E+00 0. -1.
         13    1    4    4    0    0  0.26313636195E+02 -0.47508824444E+01  0.19956175911E+02  0.33365226146E+02  0.10500000000E+00 0.  1.
    3000001    1    5    5    0    0 -0.27825243558E+02  0.49499030188E+01 -0.15257530138E+02  0.32133128463E+02  0.10000000000E+01 0. -1.
        -13    1    6    6    0    0 -0.57886791827E+01  0.23145032322E+01 -0.60796756410E+01  0.87085712256E+01  0.10500000000E+00 0. -1.
         13    1    6    6    0    0 -0.14481711645E+02  0.56432280773E+01 -0.15083280005E+02  0.21658309168E+02  0.10500000000E+00 0.  1.
</event>
<event>
11    0  0.3482687E-009  0.9118800E+02  0.7816531E-02  0.1126479E+00
         25   -1    0    0    0    0  0.00000000000E+00  0.00000000000E+00  0.99999998245E-14  0.12500000000E+03  0.12500000000E+03 0.  0.
    3000001    1    3    3    0    0  0.21076520742E+01  0.18216331435E+02  0.12374435045E+02  0.22145057482E+02  0.10000000000E+01 0.  1.
    1000022    2    1    0    0    0  0.17882229238E+02  0.45949587987E+02  0.37082492095E+02  0.62500000054E+02  0.10000001400E+02 0.  0.
    3000022    2    3    3    0    0  0.15774577164E+02  0.27733256552E+02  0.24708057051E+02  0.40354942571E+02  0.25000609656E+00 0.  0.
    1000022    2    1    0    0    0 -0.17882229238E+02 -0.45949587987E+02 -0.37082492095E+02  0.62499999946E+02  0.10000000728E+02 0.  0.
    3000022    2    5    5    0    0 -0.34252791909E+01 -0.22086754162E+02 -0.17727070059E+02  0.28528385250E+02  0.25001035590E+00 0.  0.
        -13    1    4    4    0    0  0.59678029863E+01  0.10474596777E+02  0.94118048058E+01  0.15294605089E+02  0.10500000000E+00 0. -1.
         13    1    4    4    0    0  0.98067741774E+01  0.17258659775E+02  0.15296252245E+02  0.25060337482E+02  0.10500000000E+00 0.  1.
    3000001    1    5    5    0    0 -0.14456950047E+02 -0.23862833825E+02 -0.19355422036E+02  0.33971614696E+02  0.10000000000E+01 0. -1.
        -13    1    6    6    0    0 -0.25764401978E+01 -0.16704630248E+02 -0.13382831327E+02  0.21559079645E+02  0.10500000000E+00 0. -1.
         13    1    6    6    0    0 -0.84883899316E+00 -0.53821239136E+01 -0.43442387318E+01  0.69693056050E+01  0.10500000000E+00 0.  1.
</event>
<event>
11    0  0.3482687E-009  0.9118800E+02  0.7816531E-02  0.1126479E+00
         25   -1    0    0    0    0  0.00000000000E+00  0.00000000000E+00  0.99999998245E-14  0.12500000000E+03  0.12500000000E+03 0.  0.
    3000001    1    3    3    0    0 -0.13080631505E+02  0.37920283365E+01 -0.67120687905E+01  0.15216250094E+02  0.10000000000E+01 0.  1.
    1000022    2    1    0    0    0 -0.50756084313E+02  0.32365675531E+00 -0.35070859728E+02  0.62499998553E+02  0.99999884251E+01 0.  0.
    3000022    2    3    3    0    0 -0.37675452808E+02 -0.34683715812E+01 -0.28358790938E+02  0.47283748459E+02  0.24999824331E+00 0.  0.
    1000022    2    1    0    0    0  0.50756084313E+02 -0.32365675531E+00  0.35070859728E+02  0.62500001447E+02  0.10000006513E+02 0.  0.
    3000022    2    5    5    0    0  0.25995913126E+02  0.45678576927E+01  0.19645406728E+02  0.32903758593E+02  0.25000173131E+00 0.  0.
        -13    1    4    4    0    0 -0.16336443552E+02 -0.15642595644E+01 -0.12334298363E+02  0.20529789016E+02  0.10500000000E+00 0. -1.
         13    1    4    4    0    0 -0.21339009256E+02 -0.19041120168E+01 -0.16024492575E+02  0.26753959443E+02  0.10500000000E+00 0.  1.
    3000001    1    5    5    0    0  0.24760171187E+02 -0.48915144480E+01  0.15425453000E+02  0.29596242854E+02  0.10000000000E+01 0. -1.
        -13    1    6    6    0    0  0.12691302982E+02  0.22013458610E+01  0.96640515559E+01  0.16103416173E+02  0.10500000000E+00 0. -1.
         13    1    6    6    0    0  0.13304610144E+02  0.23665118316E+01  0.99813551720E+01  0.16800342420E+02  0.10500000000E+00 0.  1.
</event>
<event>
11    0  0.3482687E-009  0.9118800E+02  0.7816531E-02  0.1126479E+00
         25   -1    0    0    0    0  0.00000000000E+00  0.00000000000E+00  0.99999998245E-14  0.12500000000E+03  0.12500000000E+03 0.  0.
    3000001    1    3    3    0    0  0.29433907366E+02  0.18427910417E+02  0.29261368062E+02  0.45422136079E+02  0.10000000000E+01 0.  1.
    1000022    2    1    0    0    0  0.35290425230E+02  0.27700613817E+02  0.42349876717E+02  0.62499998542E+02  0.99999820549E+01 0.  0.
    3000022    2    3    3    0    0  0.58565178639E+01  0.92727033999E+01  0.13088508655E+02  0.17077862463E+02  0.24999530258E+00 0.  0.
    1000022    2    1    0    0    0 -0.35290425230E+02 -0.27700613817E+02 -0.42349876717E+02  0.62500001458E+02  0.10000000280E+02 0.  0.
    3000022    2    5    5    0    0 -0.20491338262E+02 -0.20779234376E+02 -0.31034576392E+02  0.42601396233E+02  0.25000837298E+00 0.  0.
        -13    1    4    4    0    0  0.34981363744E+01  0.54480903666E+01  0.77910157352E+01  0.10130626729E+02  0.10500000000E+00 0. -1.
         13    1    4    4    0    0  0.23583814895E+01  0.38246130333E+01  0.52974929200E+01  0.69472357339E+01  0.10500000000E+00 0.  1.
    3000001    1    5    5    0    0 -0.14799086968E+02 -0.69213794409E+01 -0.11315300325E+02  0.19898605225E+02  0.10000000000E+01 0. -1.
        -13    1    6    6    0    0 -0.12980057778E+02 -0.13082366608E+02 -0.19569939595E+02  0.26881662463E+02  0.10500000000E+00 0.  1.
         13    1    6    6    0    0 -0.75112804837E+01 -0.76968677678E+01 -0.11464636797E+02  0.15719733771E+02  0.10500000000E+00 0. -1.
</event>
<event>
11    0  0.3482687E-009  0.9118800E+02  0.7816531E-02  0.1126479E+00
         25   -1    0    0    0    0  0.00000000000E+00  0.00000000000E+00  0.99999998245E-14  0.12500000000E+03  0.12500000000E+03 0.  0.
    3000001    1    3    3    0    0  0.32629716347E+02  0.18872217147E+02  0.35488188017E+02  0.51780985484E+02  0.10000000000E+01 0. -1.
    1000022    2    1    0    0    0  0.40302085383E+02  0.18360842206E+02  0.42951972643E+02  0.62500004057E+02  0.99999970277E+01 0.  0.
    3000022    2    3    3    0    0  0.76723690356E+01 -0.51137494079E+00  0.74637846254E+01  0.10719018573E+02  0.25005458393E+00 0.  0.
    1000022    2    1    0    0    0 -0.40302085383E+02 -0.18360842206E+02 -0.42951972643E+02  0.62499995943E+02  0.99999463122E+01 0.  0.
    3000022    2    5    5    0    0 -0.29700408073E+02 -0.16957366811E+02 -0.36260596526E+02  0.49845359666E+02  0.24998189269E+00 0.  0.
        -13    1    4    4    0    0  0.25240358273E+01 -0.13552128532E+00  0.23970632087E+01  0.34851197831E+01  0.10500000000E+00 0. -1.
         13    1    4    4    0    0  0.51483332083E+01 -0.37585365547E+00  0.50667214167E+01  0.72338987903E+01  0.10500000000E+00 0.  1.
    3000001    1    5    5    0    0 -0.10601677310E+02 -0.14034753946E+01 -0.66913761170E+01  0.12654636277E+02  0.10000000000E+01 0.  1.
        -13    1    6    6    0    0 -0.16464020065E+02 -0.93240558216E+01 -0.20071885152E+02  0.27584299379E+02  0.10500000000E+00 0. -1.
         13    1    6    6    0    0 -0.13236388008E+02 -0.76333109898E+01 -0.16188711373E+02  0.22261060287E+02  0.10500000000E+00 0.  1.
</event>
<event>
11    0  0.3482687E-009  0.9118800E+02  0.7816531E-02  0.1126479E+00
         25   -1    0    0    0    0  0.00000000000E+00  0.00000000000E+00  0.99999998245E-14  0.12500000000E+03  0.12500000000E+03 0.  0.
    3000001    1    3    3    0    0  0.22199204883E+02 -0.26087753699E+00 -0.30072091127E+02  0.37392558341E+02  0.10000000000E+01 0.  1.
    1000022    2    1    0    0    0  0.33752679241E+02  0.69016936610E+01 -0.51179813216E+02  0.62500000044E+02  0.99999996680E+01 0.  0.
    3000022    2    3    3    0    0  0.11553474358E+02  0.71625711979E+01 -0.21107722089E+02  0.25107441703E+02  0.25000238014E+00 0.  0.
    1000022    2    1    0    0    0 -0.33752679241E+02 -0.69016936610E+01  0.51179813216E+02  0.62499999956E+02  0.99999991165E+01 0.  0.
    3000022    2    5    5    0    0 -0.24629123432E+02 -0.34638005523E+01  0.28710391888E+02  0.37986059546E+02  0.24996428140E+00 0.  0.
        -13    1    4    4    0    0  0.54021917727E+01  0.33689957172E+01 -0.10006506629E+02  0.11860649561E+02  0.10500000000E+00 0. -1.
         13    1    4    4    0    0  0.61512825855E+01  0.37935754807E+01 -0.11101215460E+02  0.13246792142E+02  0.10500000000E+00 0.  1.
    3000001    1    5    5    0    0 -0.91235558090E+01 -0.34378931087E+01  0.22469421328E+02  0.24513940410E+02  0.10000000000E+01 0. -1.
        -13    1    6    6    0    0 -0.15551637866E+02 -0.22468977150E+01  0.18142998781E+02  0.24001696178E+02  0.10500000000E+00 0.  1.
         13    1    6    6    0    0 -0.90774855664E+01 -0.12169028373E+01  0.10567393107E+02  0.13984363367E+02  0.10500000000E+00 0. -1.
</event>
<event>
11    0  0.3482687E-009  0.9118800E+02  0.7816531E-02  0.1126479E+00
         25   -1    0    0    0    0  0.00000000000E+00  0.00000000000E+00  0.99999998245E-14  0.12500000000E+03  0.12500000000E+03 0.  0.
    3000001    1    3    3    0    0 -0.97928501937E+01  0.11497904193E+02 -0.55023687636E+02  0.57067573251E+02  0.10000000000E+01 0.  1.
    1000022    2    1    0    0    0 -0.13457753312E+02  0.12108816908E+02 -0.58978939491E+02  0.62499999516E+02  0.10000003243E+02 0.  0.
    3000022    2    3    3    0    0 -0.36649031184E+01  0.61091271507E+00 -0.39552518547E+01  0.54324262641E+01  0.25001733473E+00 0.  0.
    1000022    2    1    0    0    0  0.13457753312E+02 -0.12108816908E+02  0.58978939491E+02  0.62500000484E+02  0.10000009299E+02 0.  0.
    3000022    2    5    5    0    0  0.13398471106E+02 -0.88075482789E+01  0.54707627730E+02  0.57009463799E+02  0.24999224201E+00 0.  0.
        -13    1    4    4    0    0 -0.12864605495E+01  0.24994796805E+00 -0.13315986038E+01  0.18712655007E+01  0.10500000000E+00 0. -1.
         13    1    4    4    0    0 -0.23784425688E+01  0.36096474701E+00 -0.26236532509E+01  0.35611607634E+01  0.10500000000E+00 0.  1.
    3000001    1    5    5    0    0  0.59282206588E-01 -0.33012686289E+01  0.42713117607E+01  0.54905366857E+01  0.10000000000E+01 0. -1.
        -13    1    6    6    0    0  0.52613239139E+01 -0.34827164959E+01  0.21319531977E+02  0.22233855091E+02  0.10500000000E+00 0.  1.
         13    1    6    6    0    0  0.81371471917E+01 -0.53248317831E+01  0.33388095753E+02  0.34775608707E+02  0.10500000000E+00 0. -1.
</event>
<event>
11    0  0.3482687E-009  0.9118800E+02  0.7816531E-02  0.1126479E+00
         25   -1    0    0    0    0  0.00000000000E+00  0.00000000000E+00  0.99999998245E-14  0.12500000000E+03  0.12500000000E+03 0.  0.
    3000001    1    3    3    0    0 -0.81832799711E+00  0.13206653406E+02  0.14567150115E+02  0.19705004882E+02  0.10000000000E+01 0.  1.
    1000022    2    1    0    0    0  0.54409051245E+01  0.31693664165E+02  0.52651288371E+02  0.62500000617E+02  0.10000005659E+02 0.  0.
    3000022    2    3    3    0    0  0.62592331216E+01  0.18487010758E+02  0.38084138256E+02  0.42794995735E+02  0.25001442781E+00 0.  0.
    1000022    2    1    0    0    0 -0.54409051245E+01 -0.31693664165E+02 -0.52651288371E+02  0.62499999383E+02  0.99999979526E+01 0.  0.
    3000022    2    5    5    0    0 -0.72276384963E+01 -0.26136246970E+02 -0.47277056323E+02  0.54502520273E+02  0.24999523974E+00 0.  0.
        -13    1    4    4    0    0  0.22773846041E+01  0.65720692938E+01  0.13507963326E+02  0.15193902516E+02  0.10500000000E+00 0. -1.
         13    1    4    4    0    0  0.39818485175E+01  0.11914941464E+02  0.24576174929E+02  0.27601093219E+02  0.10500000000E+00 0.  1.
    3000001    1    5    5    0    0  0.17867333718E+01 -0.55574171948E+01 -0.53742320479E+01  0.79974791106E+01  0.10000000000E+01 0. -1.
        -13    1    6    6    0    0 -0.38062074400E+01 -0.13555052858E+02 -0.24468754073E+02  0.28230437898E+02  0.10500000000E+00 0. -1.
         13    1    6    6    0    0 -0.34214310563E+01 -0.12581194112E+02 -0.22808302251E+02  0.26272082375E+02  0.10500000000E+00 0.  1.
</event>
<event>
11    0  0.3482687E-009  0.9118800E+02  0.7816531E-02  0.1126479E+00
         25   -1    0    0    0    0  0.00000000000E+00  0.00000000000E+00  0.99999998245E-14  0.12500000000E+03  0.12500000000E+03 0.  0.
    3000001    1    3    3    0    0  0.31676041451E+01  0.14197909900E+00  0.67215995174E+01  0.74989181991E+01  0.10000000000E+01 0.  1.
    1000022    2    1    0    0    0  0.34395524055E+01 -0.98485625726E+01  0.60806456534E+02  0.62500001269E+02  0.10000014849E+02 0.  0.
    3000022    2    3    3    0    0  0.27194826045E+00 -0.99905416716E+01  0.54084857016E+02  0.55001083070E+02  0.25000334104E+00 0.  0.
    1000022    2    1    0    0    0 -0.34395524055E+01  0.98485625726E+01 -0.60806456534E+02  0.62499998731E+02  0.99999989839E+01 0.  0.
    3000022    2    5    5    0    0 -0.51882416354E+01  0.26473114025E+01 -0.15108804220E+02  0.16194584799E+02  0.25000583709E+00 0.  0.
        -13    1    4    4    0    0  0.18287875133E+00 -0.58199716584E+01  0.31178828737E+02  0.31718069001E+02  0.10500000000E+00 0.  1.
         13    1    4    4    0    0  0.89069509114E-01 -0.41705700131E+01  0.22906028279E+02  0.23283014069E+02  0.10500000000E+00 0. -1.
    3000001    1    5    5    0    0  0.17486892298E+01  0.72012511700E+01 -0.45697652313E+02  0.46305413932E+02  0.10000000000E+01 0.  1.
        -13    1    6    6    0    0 -0.26128066036E+01  0.13890211829E+01 -0.78024275222E+01  0.83453602938E+01  0.10500000000E+00 0. -1.
         13    1    6    6    0    0 -0.25754350318E+01  0.12582902197E+01 -0.73063766981E+01  0.78492245053E+01  0.10500000000E+00 0.  1.
</event>
<event>
11    0  0.3482687E-009  0.9118800E+02  0.7816531E-02  0.1126479E+00
         25   -1    0    0    0    0  0.00000000000E+00  0.00000000000E+00  0.99999998245E-14  0.12500000000E+03  0.12500000000E+03 0.  0.
    3000001    1    3    3    0    0 -0.35997141211E+02 -0.31766463418E+01  0.11581985783E+02  0.37960870011E+02  0.10000000000E+01 0. -1.
    1000022    2    1    0    0    0 -0.60211452971E+02  0.33180746986E+00  0.13443244691E+02  0.62499999739E+02  0.99999987226E+01 0.  0.
    3000022    2    3    3    0    0 -0.24214311760E+02  0.35084538117E+01  0.18612589083E+01  0.24539129728E+02  0.24992178365E+00 0.  0.
    1000022    2    1    0    0    0  0.60211452971E+02 -0.33180746986E+00 -0.13443244691E+02  0.62500000261E+02  0.10000001984E+02 0.  0.
    3000022    2    5    5    0    0  0.14284108494E+02  0.31572553890E+00 -0.76058078600E+01  0.16187842695E+02  0.24999960966E+00 0.  0.
        -13    1    4    4    0    0 -0.83592154431E+01  0.12352733849E+01  0.69325940633E+00  0.84790339523E+01  0.10500000000E+00 0. -1.
         13    1    4    4    0    0 -0.15855096317E+02  0.22731804268E+01  0.11679995019E+01  0.16060095776E+02  0.10500000000E+00 0.  1.
    3000001    1    5    5    0    0  0.45927344477E+02 -0.64753300876E+00 -0.58374368312E+01  0.46312157566E+02  0.10000000000E+01 0. -1.
        -13    1    6    6    0    0  0.50228688616E+01  0.70282800243E-01 -0.26295649712E+01  0.56709600783E+01  0.10500000000E+00 0. -1.
         13    1    6    6    0    0  0.92612396329E+01  0.24544273866E+00 -0.49762428888E+01  0.10516882616E+02  0.10500000000E+00 0.  1.
</event>
<event>
11    0  0.3482687E-009  0.9118800E+02  0.7816531E-02  0.1126479E+00
         25   -1    0    0    0    0  0.00000000000E+00  0.00000000000E+00  0.99999998245E-14  0.12500000000E+03  0.12500000000E+03 0.  0.
    3000001    1    3    3    0    0  0.45981291065E+02  0.62133817090E+01  0.10110551736E-01  0.46409970292E+02  0.10000000000E+01 0. -1.
    1000022    2    1    0    0    0  0.61133476633E+02  0.63110663667E+01 -0.53961981095E+01  0.62499996846E+02  0.99999563865E+01 0.  0.
    3000022    2    3    3    0    0  0.15152185568E+02  0.97684657679E-01 -0.54063086613E+01  0.16090026554E+02  0.25002275522E+00 0.  0.
    1000022    2    1    0    0    0 -0.61133476633E+02 -0.63110663667E+01  0.53961981095E+01  0.62500003154E+02  0.99999958141E+01 0.  0.
    3000022    2    5    5    0    0 -0.37042390154E+02  0.97483918905E+00  0.40270258015E+01  0.37274232594E+02  0.24999788480E+00 0.  0.
        -13    1    4    4    0    0  0.11602104681E+02  0.66747902990E-01 -0.41511514380E+01  0.12323001728E+02  0.10500000000E+00 0. -1.
         13    1    4    4    0    0  0.35500808868E+01  0.30936754689E-01 -0.12551572232E+01  0.37670248261E+01  0.10500000000E+00 0.  1.
    3000001    1    5    5    0    0 -0.24091086479E+02 -0.72859055557E+01  0.13691723081E+01  0.25225770560E+02  0.10000000000E+01 0.  1.
        -13    1    6    6    0    0 -0.13634383162E+02  0.30983755924E+00  0.14485526354E+01  0.13715018529E+02  0.10500000000E+00 0.  1.
         13    1    6    6    0    0 -0.23408006992E+02  0.66500162981E+00  0.25784731660E+01  0.23559214065E+02  0.10500000000E+00 0. -1.
</event>
<event>
11    0  0.3482687E-009  0.9118800E+02  0.7816531E-02  0.1126479E+00
         25   -1    0    0    0    0  0.00000000000E+00  0.00000000000E+00  0.99999998245E-14  0.12500000000E+03  0.12500000000E+03 0.  0.
    3000001    1    3    3    0    0  0.15296453530E+02 -0.20906613094E+02 -0.30129422692E+02  0.39747327878E+02  0.10000000000E+01 0.  1.
    1000022    2    1    0    0    0  0.16929324605E+02 -0.35187796783E+02 -0.47764703337E+02  0.62500000098E+02  0.10000002667E+02 0.  0.
    3000022    2    3    3    0    0  0.16328710753E+01 -0.14281183688E+02 -0.17635280645E+02  0.22752672220E+02  0.24998847394E+00 0.  0.
    1000022    2    1    0    0    0 -0.16929324605E+02  0.35187796783E+02  0.47764703337E+02  0.62499999902E+02  0.10000001442E+02 0.  0.
    3000022    2    5    5    0    0 -0.10173792731E+02  0.14679955064E+02  0.27990434993E+02  0.33204429052E+02  0.25003673861E+00 0.  0.
        -13    1    4    4    0    0  0.67015862684E+00 -0.64443539654E+01 -0.79610291929E+01  0.10264882923E+02  0.10500000000E+00 0.  1.
         13    1    4    4    0    0  0.96271244850E+00 -0.78368297229E+01 -0.96742514521E+01  0.12487789297E+02  0.10500000000E+00 0. -1.
    3000001    1    5    5    0    0 -0.67555318740E+01  0.20507841719E+02  0.19774268344E+02  0.29295570850E+02  0.10000000000E+01 0. -1.
        -13    1    6    6    0    0 -0.34259773350E+01  0.50394557843E+01  0.95611291293E+01  0.11338414816E+02  0.10500000000E+00 0.  1.
         13    1    6    6    0    0 -0.67478153959E+01  0.96404992793E+01  0.18429305864E+02  0.21866014236E+02  0.10500000000E+00 0. -1.
</event>
<event>
11    0  0.3482687E-009  0.9118800E+02  0.7816531E-02  0.1126479E+00
         25   -1    0    0    0    0  0.00000000000E+00  0.00000000000E+00  0.99999998245E-14  0.12500000000E+03  0.12500000000E+03 0.  0.
    3000001    1    3    3    0    0  0.90444161012E+01 -0.33715620898E+00 -0.38605279987E+01  0.98903393950E+01  0.10000000000E+01 0. -1.
    1000022    2    1    0    0    0  0.51263350153E+02  0.18976771444E+02 -0.28604189795E+02  0.62500010586E+02  0.10000136303E+02 0.  0.
    3000022    2    3    3    0    0  0.42218934052E+02  0.19313927653E+02 -0.24743661796E+02  0.52609671191E+02  0.25001974648E+00 0.  0.
    1000022    2    1    0    0    0 -0.51263350153E+02 -0.18976771444E+02  0.28604189795E+02  0.62499989414E+02  0.10000003980E+02 0.  0.
    3000022    2    5    5    0    0 -0.36741504776E+02 -0.17753847623E+02  0.23088596216E+02  0.46885851323E+02  0.25000075876E+00 0.  0.
        -13    1    4    4    0    0  0.20460016221E+02  0.94343281235E+01 -0.12009694426E+02  0.25531599952E+02  0.10500000000E+00 0. -1.
         13    1    4    4    0    0  0.21758917831E+02  0.98795995298E+01 -0.12733967370E+02  0.27078071239E+02  0.10500000000E+00 0.  1.
    3000001    1    5    5    0    0 -0.14521845377E+02 -0.12229238218E+01  0.55155935788E+01  0.15614138091E+02  0.10000000000E+01 0.  1.
        -13    1    6    6    0    0 -0.21523565472E+02 -0.10329701436E+02  0.13496779562E+02  0.27425183426E+02  0.10500000000E+00 0. -1.
         13    1    6    6    0    0 -0.15217939304E+02 -0.74241461863E+01  0.95918166540E+01  0.19460667897E+02  0.10500000000E+00 0.  1.
</event>
<event>
11    0  0.3482687E-009  0.9118800E+02  0.7816531E-02  0.1126479E+00
         25   -1    0    0    0    0  0.00000000000E+00  0.00000000000E+00  0.99999998245E-14  0.12500000000E+03  0.12500000000E+03 0.  0.
    3000001    1    3    3    0    0  0.11240106981E+02 -0.17870964861E+02  0.14391478630E+02  0.25570022432E+02  0.10000000000E+01 0. -1.
    1000022    2    1    0    0    0  0.22584374248E+02 -0.37139839892E+02  0.43781595779E+02  0.62500002522E+02  0.10000025946E+02 0.  0.
    3000022    2    3    3    0    0  0.11344267267E+02 -0.19268875031E+02  0.29390117149E+02  0.36929980090E+02  0.24999726483E+00 0.  0.
    1000022    2    1    0    0    0 -0.22584374248E+02  0.37139839892E+02 -0.43781595779E+02  0.62499997478E+02  0.99999944212E+01 0.  0.
    3000022    2    5    5    0    0 -0.20189660908E+02  0.33300771493E+02 -0.42599292796E+02  0.57717640476E+02  0.24997152690E+00 0.  0.
        -13    1    4    4    0    0  0.60074326892E+01 -0.10130403764E+02  0.15573188863E+02  0.19525613033E+02  0.10500000000E+00 0. -1.
         13    1    4    4    0    0  0.53368345778E+01 -0.91384712665E+01  0.13816928286E+02  0.17404367057E+02  0.10500000000E+00 0.  1.
    3000001    1    5    5    0    0 -0.23947133398E+01  0.38390683990E+01 -0.11823029829E+01  0.47823570021E+01  0.10000000000E+01 0.  1.
        -13    1    6    6    0    0 -0.10904790668E+02  0.17884361009E+02 -0.22974499547E+02  0.31090247388E+02  0.10500000000E+00 0.  1.
         13    1    6    6    0    0 -0.92848702408E+01  0.15416410484E+02 -0.19624793249E+02  0.26627393088E+02  0.10500000000E+00 0. -1.
</event>
<event>
11    0  0.3482687E-009  0.9118800E+02  0.7816531E-02  0.1126479E+00
         25   -1    0    0    0    0  0.00000000000E+00  0.00000000000E+00  0.99999998245E-14  0.12500000000E+03  0.12500000000E+03 0.  0.
    3000001    1    3    3    0    0  0.31521346196E+01  0.42068322951E+02 -0.31741205020E+02  0.52803256005E+02  0.10000000000E+01 0.  1.
    1000022    2    1    0    0    0  0.42231730370E+01  0.46547632800E+02 -0.40270742095E+02  0.62499999852E+02  0.10000000146E+02 0.  0.
    3000022    2    3    3    0    0  0.10710384174E+01  0.44793098485E+01 -0.85295370748E+01  0.96967438475E+01  0.24999704403E+00 0.  0.
    1000022    2    1    0    0    0 -0.42231730370E+01 -0.46547632800E+02  0.40270742095E+02  0.62500000148E+02  0.10000001991E+02 0.  0.
    3000022    2    5    5    0    0  0.30965339063E+01 -0.19769487446E+02  0.17352504404E+02  0.26487602322E+02  0.25002308953E+00 0.  0.
        -13    1    4    4    0    0  0.61865620765E+00  0.24871690064E+01 -0.46144038158E+01  0.52794405712E+01  0.10500000000E+00 0. -1.
         13    1    4    4    0    0  0.45238220977E+00  0.19921408421E+01 -0.39151332590E+01  0.44173032763E+01  0.10500000000E+00 0.  1.
    3000001    1    5    5    0    0 -0.73197069433E+01 -0.26778145353E+02  0.22918237691E+02  0.36012397826E+02  0.10000000000E+01 0. -1.
        -13    1    6    6    0    0  0.22106167024E+01 -0.13818066976E+02  0.12141686183E+02  0.18527206198E+02  0.10500000000E+00 0. -1.
         13    1    6    6    0    0  0.88591720383E+00 -0.59514204707E+01  0.52108182210E+01  0.79603961236E+01  0.10500000000E+00 0.  1.
</event>
<event>
11    0  0.3482687E-009  0.9118800E+02  0.7816531E-02  0.1126479E+00
         25   -1    0    0    0    0  0.00000000000E+00  0.00000000000E+00  0.99999998245E-14  0.12500000000E+03  0.12500000000E+03 0.  0.
    3000001    1    3    3    0    0  0.13212399300E+01 -0.20411985748E+01 -0.16735807325E+01  0.31165748896E+01  0.10000000000E+01 0. -1.
    1000022    2    1    0    0    0 -0.13808228853E+01 -0.25578568797E+02 -0.56125575488E+02  0.62499999978E+02  0.99999959936E+01 0.  0.
    3000022    2    3    3    0    0 -0.27020628153E+01 -0.23537370222E+02 -0.54451994756E+02  0.59383425089E+02  0.25000393237E+00 0.  0.
    1000022    2    1    0    0    0  0.13808228853E+01  0.25578568797E+02  0.56125575488E+02  0.62500000022E+02  0.99999962637E+01 0.  0.
    3000022    2    5    5    0    0 -0.43706612602E+00  0.69768642491E+00 -0.20481707707E+00  0.88444878143E+00  0.25001293147E+00 0.  0.
        -13    1    4    4    0    0 -0.17626896350E+01 -0.15251186404E+02 -0.35424098169E+02  0.38608075808E+02  0.10500000000E+00 0. -1.
         13    1    4    4    0    0 -0.93937318026E+00 -0.82861838188E+01 -0.19027896586E+02  0.20775349281E+02  0.10500000000E+00 0.  1.
    3000001    1    5    5    0    0  0.18178890113E+01  0.24880882372E+02  0.56330392565E+02  0.61615551240E+02  0.10000000000E+01 0.  1.
        -13    1    6    6    0    0 -0.25169677622E+00  0.41771205212E+00 -0.54352554201E-01  0.50181054771E+00  0.10500000000E+00 0.  1.
         13    1    6    6    0    0 -0.18536934980E+00  0.27997437279E+00 -0.15046452286E+00  0.38263823372E+00  0.10500000000E+00 0.  1.
</event>
<event>
11    0  0.3482687E-009  0.9118800E+02  0.7816531E-02  0.1126479E+00
         25   -1    0    0    0    0  0.00000000000E+00  0.00000000000E+00  0.99999998245E-14  0.12500000000E+03  0.12500000000E+03 0.  0.
    3000001    1    3    3    0    0  0.46421233956E+02 -0.12996265116E+01 -0.47066678597E+01  0.46688036084E+02  0.10000000000E+01 0.  1.
    1000022    2    1    0    0    0  0.61589314946E+02 -0.35088477199E+01 -0.83311898887E+00  0.62500000565E+02  0.10000012778E+02 0.  0.
    3000022    2    3    3    0    0  0.15168080990E+02 -0.22092212083E+01  0.38735488708E+01  0.15811964480E+02  0.25000124772E+00 0.  0.
    1000022    2    1    0    0    0 -0.61589314946E+02  0.35088477199E+01  0.83311898887E+00  0.62499999435E+02  0.10000005716E+02 0.  0.
    3000022    2    5    5    0    0 -0.46239828175E+00 -0.73614391960E+00 -0.78303201902E+00  0.11963956344E+01  0.25000665962E+00 0.  0.
        -13    1    4    4    0    0  0.10600893947E+02 -0.15886609990E+01  0.27219090178E+01  0.11059955242E+02  0.10500000000E+00 0.  1.
         13    1    4    4    0    0  0.45671870426E+01 -0.62056020931E+00  0.11516398530E+01  0.47520092389E+01  0.10500000000E+00 0. -1.
    3000001    1    5    5    0    0 -0.61126916664E+02  0.42449916395E+01  0.16161510079E+01  0.61303603801E+02  0.10000000000E+01 0.  1.
        -13    1    6    6    0    0 -0.24844351465E+00 -0.47841261203E+00 -0.41994875934E+00  0.69136442473E+00  0.10500000000E+00 0.  1.
         13    1    6    6    0    0 -0.21395476710E+00 -0.25773130758E+00 -0.36308325968E+00  0.50503120966E+00  0.10500000000E+00 0. -1.
</event>
<event>
11    0  0.3482687E-009  0.9118800E+02  0.7816531E-02  0.1126479E+00
         25   -1    0    0    0    0  0.00000000000E+00  0.00000000000E+00  0.99999998245E-14  0.12500000000E+03  0.12500000000E+03 0.  0.
    3000001    1    3    3    0    0 -0.39592904254E+02 -0.38027024824E+02  0.15535583742E+02  0.57061432215E+02  0.10000000000E+01 0. -1.
    1000022    2    1    0    0    0 -0.42209574439E+02 -0.40500531166E+02  0.19603795913E+02  0.62500001970E+02  0.10000011651E+02 0.  0.
    3000022    2    3    3    0    0 -0.26166701846E+01 -0.24735063418E+01  0.40682121710E+01  0.54385697546E+01  0.24998845993E+00 0.  0.
    1000022    2    1    0    0    0  0.42209574439E+02  0.40500531166E+02 -0.19603795913E+02  0.62499998030E+02  0.99999870250E+01 0.  0.
    3000022    2    5    5    0    0  0.23190149278E+02  0.17651812960E+02 -0.58401464739E+01  0.29724389675E+02  0.25001287535E+00 0.  0.
        -13    1    4    4    0    0 -0.15333177379E+01 -0.13834924529E+01  0.22644487292E+01  0.30665726308E+01  0.10500000000E+00 0.  1.
         13    1    4    4    0    0 -0.10833524467E+01 -0.10900138889E+01  0.18037634418E+01  0.23719971239E+01  0.10500000000E+00 0. -1.
    3000001    1    5    5    0    0  0.19019425161E+02  0.22848718207E+02 -0.13763649440E+02  0.32775608355E+02  0.10000000000E+01 0.  1.
        -13    1    6    6    0    0  0.14050143465E+02  0.10675010266E+02 -0.34742025036E+01  0.17984534567E+02  0.10500000000E+00 0.  1.
         13    1    6    6    0    0  0.91400058130E+01  0.69768026936E+01 -0.23659439703E+01  0.11739855108E+02  0.10500000000E+00 0. -1.
</event>
<event>
11    0  0.3482687E-009  0.9118800E+02  0.7816531E-02  0.1126479E+00
         25   -1    0    0    0    0  0.00000000000E+00  0.00000000000E+00  0.99999998245E-14  0.12500000000E+03  0.12500000000E+03 0.  0.
    3000001    1    3    3    0    0 -0.17231018921E+02 -0.49491504293E+02 -0.89766808882E+01  0.53177982380E+02  0.10000000000E+01 0. -1.
    1000022    2    1    0    0    0 -0.17279372827E+02 -0.57687157962E+02 -0.13411357602E+02  0.62499996388E+02  0.10000005834E+02 0.  0.
    3000022    2    3    3    0    0 -0.48353906136E-01 -0.81956536698E+01 -0.44346767140E+01  0.93220140082E+01  0.25002087259E+00 0.  0.
    1000022    2    1    0    0    0  0.17279372827E+02  0.57687157962E+02  0.13411357602E+02  0.62500003612E+02  0.10000050985E+02 0.  0.
    3000022    2    5    5    0    0  0.17308095932E+02  0.53536325996E+02  0.10259301645E+02  0.57192868058E+02  0.25000109395E+00 0.  0.
        -13    1    4    4    0    0  0.34598794027E-02 -0.40700568666E+01 -0.22727540556E+01  0.46628114765E+01  0.10500000000E+00 0. -1.
         13    1    4    4    0    0 -0.51813785538E-01 -0.41255968032E+01 -0.21619226583E+01  0.46592025317E+01  0.10500000000E+00 0.  1.
    3000001    1    5    5    0    0 -0.28723104329E-01  0.41508319661E+01  0.31520559574E+01  0.53071355537E+01  0.10000000000E+01 0. -1.
        -13    1    6    6    0    0  0.65754924062E+01  0.20531314043E+02  0.39151365662E+01  0.21911441670E+02  0.10500000000E+00 0.  1.
         13    1    6    6    0    0  0.10732603526E+02  0.33005011953E+02  0.63441650785E+01  0.35281426389E+02  0.10500000000E+00 0. -1.
</event>
<event>
11    0  0.3482687E-009  0.9118800E+02  0.7816531E-02  0.1126479E+00
         25   -1    0    0    0    0  0.00000000000E+00  0.00000000000E+00  0.99999998245E-14  0.12500000000E+03  0.12500000000E+03 0.  0.
    3000001    1    3    3    0    0  0.16635380703E+01  0.18647716705E+02  0.30586008202E+01  0.18996308489E+02  0.10000000000E+01 0. -1.
    1000022    2    1    0    0    0  0.17455876290E+02  0.59154105120E+02  0.15278422826E+01  0.62499999947E+02  0.99999960845E+01 0.  0.
    3000022    2    3    3    0    0  0.15792338220E+02  0.40506388415E+02 -0.15307585376E+01  0.43503691458E+02  0.24999977910E+00 0.  0.
    1000022    2    1    0    0    0 -0.17455876290E+02 -0.59154105120E+02 -0.15278422826E+01  0.62500000053E+02  0.99999967518E+01 0.  0.
    3000022    2    5    5    0    0 -0.11831891321E+02 -0.25479561756E+02 -0.33672404394E+01  0.28294920558E+02  0.25000341561E+00 0.  0.
        -13    1    4    4    0    0  0.84982399346E+01  0.21625769272E+02 -0.84333798371E+00  0.23251155295E+02  0.10500000000E+00 0.  1.
         13    1    4    4    0    0  0.72940982855E+01  0.18880619143E+02 -0.68742055387E+00  0.20252536163E+02  0.10500000000E+00 0. -1.
    3000001    1    5    5    0    0 -0.56239849697E+01 -0.33674543364E+02  0.18393981568E+01  0.34205079495E+02  0.10000000000E+01 0.  1.
        -13    1    6    6    0    0 -0.87177438979E+01 -0.18845443886E+02 -0.24784434279E+01  0.20911803384E+02  0.10500000000E+00 0. -1.
         13    1    6    6    0    0 -0.31141474227E+01 -0.66341178699E+01 -0.88879701153E+00  0.73831171743E+01  0.10500000000E+00 0.  1.
</event>
<event>
11    0  0.3482687E-009  0.9118800E+02  0.7816531E-02  0.1126479E+00
         25   -1    0    0    0    0  0.00000000000E+00  0.00000000000E+00  0.99999998245E-14  0.12500000000E+03  0.12500000000E+03 0.  0.
    3000001    1    3    3    0    0 -0.90270733682E+01 -0.18653826182E+02  0.47073446944E+02  0.51442809916E+02  0.10000000000E+01 0.  1.
    1000022    2    1    0    0    0 -0.68905985489E+01 -0.24539574270E+02  0.56183451017E+02  0.62499989933E+02  0.99998759851E+01 0.  0.
    3000022    2    3    3    0    0  0.21364748194E+01 -0.58857480884E+01  0.91100040724E+01  0.11057180017E+02  0.25000102568E+00 0.  0.
    1000022    2    1    0    0    0  0.68905985489E+01  0.24539574270E+02 -0.56183451017E+02  0.62500010067E+02  0.10000001826E+02 0.  0.
    3000022    2    5    5    0    0  0.10861359077E+01  0.19189712895E+02 -0.43010763874E+02  0.47110647187E+02  0.24999436279E+00 0.  0.
        -13    1    4    4    0    0  0.93859333416E+00 -0.27830302821E+01  0.42676884303E+01  0.51817375981E+01  0.10500000000E+00 0.  1.
         13    1    4    4    0    0  0.11978814852E+01 -0.31027178063E+01  0.48423156421E+01  0.58754424188E+01  0.10500000000E+00 0. -1.
    3000001    1    5    5    0    0  0.58044626412E+01  0.53498613752E+01 -0.13172687143E+02  0.15389362880E+02  0.10000000000E+01 0. -1.
        -13    1    6    6    0    0  0.75901182774E+00  0.12723059820E+02 -0.28427846527E+02  0.31154547554E+02  0.10500000000E+00 0. -1.
         13    1    6    6    0    0  0.32712407994E+00  0.64666530749E+01 -0.14582917347E+02  0.15956099633E+02  0.10500000000E+00 0.  1.
</event>
<event>
11    0  0.3482687E-009  0.9118800E+02  0.7816531E-02  0.1126479E+00
         25   -1    0    0    0    0  0.00000000000E+00  0.00000000000E+00  0.99999998245E-14  0.12500000000E+03  0.12500000000E+03 0.  0.
    3000001    1    3    3    0    0 -0.10679039956E+02 -0.47096950904E+02 -0.13632967022E+02  0.50189864202E+02  0.10000000000E+01 0.  1.
    1000022    2    1    0    0    0 -0.14661779025E+02 -0.56137117297E+02 -0.20973952236E+02  0.62499997203E+02  0.99999637662E+01 0.  0.
    3000022    2    3    3    0    0 -0.39827390694E+01 -0.90401663929E+01 -0.73409852142E+01  0.12310133000E+02  0.24998332231E+00 0.  0.
    1000022    2    1    0    0    0  0.14661779025E+02  0.56137117297E+02  0.20973952236E+02  0.62500002797E+02  0.99999987345E+01 0.  0.
    3000022    2    5    5    0    0  0.73489022998E+01  0.30695404273E+02  0.16559457310E+02  0.35643966362E+02  0.25000618516E+00 0.  0.
        -13    1    4    4    0    0 -0.14729264788E+01 -0.34095322601E+01 -0.28278839954E+01  0.46693013970E+01  0.10500000000E+00 0.  1.
         13    1    4    4    0    0 -0.25098125906E+01 -0.56306341328E+01 -0.45131012188E+01  0.76408316032E+01  0.10500000000E+00 0. -1.
    3000001    1    5    5    0    0  0.73128767253E+01  0.25441713024E+02  0.44144949264E+01  0.26856036436E+02  0.10000000000E+01 0. -1.
        -13    1    6    6    0    0  0.17848537333E+01  0.73887500061E+01  0.40027333987E+01  0.85914043766E+01  0.10500000000E+00 0. -1.
         13    1    6    6    0    0  0.55640485665E+01  0.23306654267E+02  0.12556723911E+02  0.27052561985E+02  0.10500000000E+00 0.  1.
</event>
<event>
11    0  0.3482687E-009  0.9118800E+02  0.7816531E-02  0.1126479E+00
         25   -1    0    0    0    0  0.00000000000E+00  0.00000000000E+00  0.99999998245E-14  0.12500000000E+03  0.12500000000E+03 0.  0.
    3000001    1    3    3    0    0 -0.50291789424E+01 -0.11910409540E+02  0.41197777631E+02  0.43190362096E+02  0.10000000000E+01 0. -1.
    1000022    2    1    0    0    0 -0.45895484769E+01 -0.11236689833E+02  0.60489031235E+02  0.62500000604E+02  0.10000001105E+02 0.  0.
    3000022    2    3    3    0    0  0.43963046556E+00  0.67371970701E+00  0.19291253604E+02  0.19309638508E+02  0.25000099706E+00 0.  0.
    1000022    2    1    0    0    0  0.45895484769E+01  0.11236689833E+02 -0.60489031235E+02  0.62499999396E+02  0.99999935595E+01 0.  0.
    3000022    2    5    5    0    0  0.65101118457E+00 -0.73137150913E+00 -0.38496802055E+00  0.10813948603E+01  0.24998924015E+00 0.  0.
        -13    1    4    4    0    0  0.33200461880E+00  0.51722146761E+00  0.13724595032E+02  0.13738750995E+02  0.10500000000E+00 0. -1.
         13    1    4    4    0    0  0.10762584676E+00  0.15649823940E+00  0.55666585724E+01  0.55708875131E+01  0.10500000000E+00 0.  1.
    3000001    1    5    5    0    0  0.39385372923E+01  0.11968061342E+02 -0.60104063214E+02  0.61418604536E+02  0.10000000000E+01 0. -1.
        -13    1    6    6    0    0  0.38546155543E+00 -0.43365078225E+00 -0.29442154598E+00  0.65904678013E+00  0.10500000000E+00 0. -1.
         13    1    6    6    0    0  0.26554962914E+00 -0.29772072688E+00 -0.90546474568E-01  0.42234808015E+00  0.10500000000E+00 0.  1.
</event>
<event>
11    0  0.3482687E-009  0.9118800E+02  0.7816531E-02  0.1126479E+00
         25   -1    0    0    0    0  0.00000000000E+00  0.00000000000E+00  0.99999998245E-14  0.12500000000E+03  0.12500000000E+03 0.  0.
    3000001    1    3    3    0    0  0.24531890988E+02  0.10635553633E+02  0.44569079811E+02  0.51983954753E+02  0.10000000000E+01 0.  1.
    1000022    2    1    0    0    0  0.32889202247E+02  0.12252647597E+02  0.50738772628E+02  0.62500002196E+02  0.10000011456E+02 0.  0.
    3000022    2    3    3    0    0  0.83573112597E+01  0.16170939638E+01  0.61696928169E+01  0.10516047444E+02  0.24999999933E+00 0.  0.
    1000022    2    1    0    0    0 -0.32889202247E+02 -0.12252647597E+02 -0.50738772628E+02  0.62499997804E+02  0.99999840013E+01 0.  0.
    3000022    2    5    5    0    0 -0.17575977929E+02 -0.15614890804E+01 -0.27414326206E+02  0.32603083074E+02  0.24999256559E+00 0.  0.
        -13    1    4    4    0    0  0.25289017001E+01  0.53686579141E+00  0.18698255008E+01  0.31923096795E+01  0.10500000000E+00 0. -1.
         13    1    4    4    0    0  0.58284095596E+01  0.10802281724E+01  0.42998673161E+01  0.73237377640E+01  0.10500000000E+00 0.  1.
    3000001    1    5    5    0    0 -0.15313224318E+02 -0.10691158517E+02 -0.23324446422E+02  0.29896914729E+02  0.10000000000E+01 0. -1.
        -13    1    6    6    0    0 -0.74596026867E+01 -0.72423679978E+00 -0.11603117280E+02  0.13813527674E+02  0.10500000000E+00 0. -1.
         13    1    6    6    0    0 -0.10116375242E+02 -0.83725228058E+00 -0.15811208927E+02  0.18789555401E+02  0.10500000000E+00 0.  1.
</event>
<event>
11    0  0.3482687E-009  0.9118800E+02  0.7816531E-02  0.1126479E+00
         25   -1    0    0    0    0  0.00000000000E+00  0.00000000000E+00  0.99999998245E-14  0.12500000000E+03  0.12500000000E+03 0.  0.
    3000001    1    3    3    0    0 -0.17624610679E+02 -0.19830970593E+02  0.10453086035E+02  0.28533511945E+02  0.10000000000E+01 0.  1.
    1000022    2    1    0    0    0 -0.44876297128E+02 -0.39584297162E+02  0.15015044002E+02  0.62499999673E+02  0.99999893505E+01 0.  0.
    3000022    2    3    3    0    0 -0.27251686449E+02 -0.19753326568E+02  0.45619579673E+01  0.33966487728E+02  0.25000648227E+00 0.  0.
    1000022    2    1    0    0    0  0.44876297128E+02  0.39584297162E+02 -0.15015044002E+02  0.62500000327E+02  0.99999934417E+01 0.  0.
    3000022    2    5    5    0    0  0.19581801769E+02  0.15751190392E+02 -0.11228698180E+02  0.27526226033E+02  0.24999494113E+00 0.  0.
        -13    1    4    4    0    0 -0.92117398500E+01 -0.66332042421E+01  0.15799869550E+01  0.11461366994E+02  0.10500000000E+00 0. -1.
         13    1    4    4    0    0 -0.18039946599E+02 -0.13120122326E+02  0.29819710124E+01  0.22505120735E+02  0.10500000000E+00 0.  1.
    3000001    1    5    5    0    0  0.25294495358E+02  0.23833106770E+02 -0.37863458217E+01  0.34973774295E+02  0.10000000000E+01 0.  1.
        -13    1    6    6    0    0  0.11411057626E+02  0.90958556722E+01 -0.65159543461E+01  0.15981724331E+02  0.10500000000E+00 0. -1.
         13    1    6    6    0    0  0.81707441438E+01  0.66553347197E+01 -0.47127438342E+01  0.11544501702E+02  0.10500000000E+00 0.  1.
</event>
<event>
11    0  0.3482687E-009  0.9118800E+02  0.7816531E-02  0.1126479E+00
         25   -1    0    0    0    0  0.00000000000E+00  0.00000000000E+00  0.99999998245E-14  0.12500000000E+03  0.12500000000E+03 0.  0.
    3000001    1    3    3    0    0  0.24251008620E+02 -0.49059554742E+01  0.13879622287E+02  0.28387034594E+02  0.10000000000E+01 0.  1.
    1000022    2    1    0    0    0  0.48402568223E+02 -0.46718293152E+01  0.37968599067E+02  0.62499993205E+02  0.10000001789E+02 0.  0.
    3000022    2    3    3    0    0  0.24151559603E+02  0.23412615903E+00  0.24088976780E+02  0.34112958611E+02  0.24999316958E+00 0.  0.
    1000022    2    1    0    0    0 -0.48402568223E+02  0.46718293152E+01 -0.37968599067E+02  0.62500006795E+02  0.10000086725E+02 0.  0.
    3000022    2    5    5    0    0 -0.11811918503E+02 -0.12930111911E+01 -0.13895448998E+02  0.18284946879E+02  0.24996562854E+00 0.  0.
        -13    1    4    4    0    0  0.18533473390E+02  0.17367113895E+00  0.18498517636E+02  0.26186370067E+02  0.10500000000E+00 0. -1.
         13    1    4    4    0    0  0.56180862129E+01  0.60455020080E-01  0.55904591438E+01  0.79265885439E+01  0.10500000000E+00 0.  1.
    3000001    1    5    5    0    0 -0.36590649720E+02  0.59648405063E+01 -0.24073150069E+02  0.44215059916E+02  0.10000000000E+01 0. -1.
        -13    1    6    6    0    0 -0.53769321291E+01 -0.65469147306E+00 -0.63148022735E+01  0.83203228783E+01  0.10500000000E+00 0.  1.
         13    1    6    6    0    0 -0.64349863742E+01 -0.63831971806E+00 -0.75806467249E+01  0.99646240002E+01  0.10500000000E+00 0. -1.
</event>
<event>
11    0  0.3482687E-009  0.9118800E+02  0.7816531E-02  0.1126479E+00
         25   -1    0    0    0    0  0.00000000000E+00  0.00000000000E+00  0.99999998245E-14  0.12500000000E+03  0.12500000000E+03 0.  0.
    3000001    1    3    3    0    0 -0.43893027965E+02  0.32840101397E+02  0.24172791612E+01  0.54880901981E+02  0.10000000000E+01 0. -1.
    1000022    2    1    0    0    0 -0.50566132858E+02  0.34925215573E+02  0.54355783180E+01  0.62499999969E+02  0.10000000470E+02 0.  0.
    3000022    2    3    3    0    0 -0.66731048933E+01  0.20851141761E+01  0.30182991567E+01  0.76190979879E+01  0.24998861301E+00 0.  0.
    1000022    2    1    0    0    0  0.50566132858E+02 -0.34925215573E+02 -0.54355783180E+01  0.62500000031E+02  0.10000000863E+02 0.  0.
    3000022    2    5    5    0    0  0.37752982398E+02 -0.26208030509E+02 -0.83173803975E+01  0.46705351464E+02  0.24999117665E+00 0.  0.
        -13    1    4    4    0    0 -0.36015711796E+01  0.11575579219E+01  0.16978887800E+01  0.41479038819E+01  0.10500000000E+00 0. -1.
         13    1    4    4    0    0 -0.30715337136E+01  0.92755625428E+00  0.13204103767E+01  0.34711941060E+01  0.10500000000E+00 0.  1.
    3000001    1    5    5    0    0  0.12813150460E+02 -0.87171850638E+01  0.28818020795E+01  0.15794648568E+02  0.10000000000E+01 0.  1.
        -13    1    6    6    0    0  0.18400375746E+02 -0.12752506176E+02 -0.39850623159E+01  0.22739656726E+02  0.10500000000E+00 0.  1.
         13    1    6    6    0    0  0.19352606652E+02 -0.13455524333E+02 -0.43323180816E+01  0.23965694738E+02  0.10500000000E+00 0. -1.
</event>
<event>
11    0  0.3482687E-009  0.9118800E+02  0.7816531E-02  0.1126479E+00
         25   -1    0    0    0    0  0.00000000000E+00  0.00000000000E+00  0.99999998245E-14  0.12500000000E+03  0.12500000000E+03 0.  0.
    3000001    1    3    3    0    0  0.11920723000E+02  0.63742736258E+01 -0.19925587671E+02  0.24099046561E+02  0.10000000000E+01 0.  1.
    1000022    2    1    0    0    0  0.21356454719E+02  0.24472836119E+02 -0.52452188093E+02  0.62500000110E+02  0.10000005605E+02 0.  0.
    3000022    2    3    3    0    0  0.94357317192E+01  0.18098562493E+02 -0.32526600422E+02  0.38400953549E+02  0.25000215283E+00 0.  0.
    1000022    2    1    0    0    0 -0.21356454719E+02 -0.24472836119E+02  0.52452188093E+02  0.62499999890E+02  0.10000004234E+02 0.  0.
    3000022    2    5    5    0    0 -0.35195887987E+01 -0.11017720175E+02  0.16275231704E+02  0.19968057723E+02  0.24999811231E+00 0.  0.
        -13    1    4    4    0    0  0.41347930624E+01  0.78391887679E+01 -0.14218749009E+02  0.16755096018E+02  0.10500000000E+00 0. -1.
         13    1    4    4    0    0  0.53009386568E+01  0.10259373725E+02 -0.18307851413E+02  0.21645857531E+02  0.10500000000E+00 0.  1.
    3000001    1    5    5    0    0 -0.17836865920E+02 -0.13455115944E+02  0.36176956389E+02  0.42531942167E+02  0.10000000000E+01 0. -1.
        -13    1    6    6    0    0 -0.19488491262E+01 -0.62719643668E+01  0.91719721526E+01  0.11281473667E+02  0.10500000000E+00 0. -1.
         13    1    6    6    0    0 -0.15707396724E+01 -0.47457558083E+01  0.71032595512E+01  0.86865840560E+01  0.10500000000E+00 0.  1.
</event>
<event>
11    0  0.3482687E-009  0.9118800E+02  0.7816531E-02  0.1126479E+00
         25   -1    0    0    0    0  0.00000000000E+00  0.00000000000E+00  0.99999998245E-14  0.12500000000E+03  0.12500000000E+03 0.  0.
    3000001    1    3    3    0    0 -0.41231188558E+01  0.74349859550E+01  0.31404129769E+01  0.91181861637E+01  0.10000000000E+01 0. -1.
    1000022    2    1    0    0    0 -0.38417127176E+02  0.48269144221E+02  0.68115102602E+00  0.62499999141E+02  0.99999990804E+01 0.  0.
    3000022    2    3    3    0    0 -0.34294008320E+02  0.40834158266E+02 -0.24592619509E+01  0.53381812977E+02  0.24999886460E+00 0.  0.
    1000022    2    1    0    0    0  0.38417127176E+02 -0.48269144221E+02 -0.68115102602E+00  0.62500000859E+02  0.10000009817E+02 0.  0.
    3000022    2    5    5    0    0  0.30836063658E+02 -0.32015457729E+02  0.96850267300E+00  0.44461813423E+02  0.24999983775E+00 0.  0.
        -13    1    4    4    0    0 -0.12629042024E+02  0.15090923870E+02 -0.85903428420E+00  0.19697148286E+02  0.10500000000E+00 0.  1.
         13    1    4    4    0    0 -0.21664966297E+02  0.25743234396E+02 -0.16002276667E+01  0.33684664692E+02  0.10500000000E+00 0. -1.
    3000001    1    5    5    0    0  0.75810635182E+01 -0.16253686492E+02 -0.16496536990E+01  0.18038187436E+02  0.10000000000E+01 0.  1.
        -13    1    6    6    0    0  0.15613930498E+02 -0.16113550798E+02  0.48471926142E+00  0.22442979362E+02  0.10500000000E+00 0. -1.
         13    1    6    6    0    0  0.15222133160E+02 -0.15901906932E+02  0.48378341158E+00  0.22018834061E+02  0.10500000000E+00 0.  1.
</event>
<event>
11    0  0.3482687E-009  0.9118800E+02  0.7816531E-02  0.1126479E+00
         25   -1    0    0    0    0  0.00000000000E+00  0.00000000000E+00  0.99999998245E-14  0.12500000000E+03  0.12500000000E+03 0.  0.
    3000001    1    3    3    0    0  0.19784342748E+01 -0.11845502517E+02  0.47533679874E+02  0.49037545354E+02  0.10000000000E+01 0.  1.
    1000022    2    1    0    0    0 -0.23508551354E+01 -0.16476193941E+02  0.59407563204E+02  0.62499998891E+02  0.99999904403E+01 0.  0.
    3000022    2    3    3    0    0 -0.43292894102E+01 -0.46306914238E+01  0.11873883331E+02  0.13462453536E+02  0.25000000568E+00 0.  0.
    1000022    2    1    0    0    0  0.23508551354E+01  0.16476193941E+02 -0.59407563204E+02  0.62500001109E+02  0.10000004306E+02 0.  0.
    3000022    2    5    5    0    0 -0.32247100164E+01  0.77872780840E+01 -0.34572856893E+02  0.35586308997E+02  0.24999929901E+00 0.  0.
        -13    1    4    4    0    0 -0.18486636856E+01 -0.20595369110E+01  0.52573866673E+01  0.59422545620E+01  0.10500000000E+00 0. -1.
         13    1    4    4    0    0 -0.24806257246E+01 -0.25711545128E+01  0.66164966636E+01  0.75201989743E+01  0.10500000000E+00 0.  1.
    3000001    1    5    5    0    0  0.55755651518E+01  0.86889158568E+01 -0.24834706312E+02  0.26913692112E+02  0.10000000000E+01 0.  1.
        -13    1    6    6    0    0 -0.13460247348E+01  0.30925430172E+01 -0.13759405970E+02  0.14167140944E+02  0.10500000000E+00 0.  1.
         13    1    6    6    0    0 -0.18786852816E+01  0.46947350667E+01 -0.20813450923E+02  0.21419168053E+02  0.10500000000E+00 0. -1.
</event>
<event>
11    0  0.3482687E-009  0.9118800E+02  0.7816531E-02  0.1126479E+00
         25   -1    0    0    0    0  0.00000000000E+00  0.00000000000E+00  0.99999998245E-14  0.12500000000E+03  0.12500000000E+03 0.  0.
    3000001    1    3    3    0    0 -0.17207029924E+02  0.39270410159E+02  0.13979084787E+02  0.45107225633E+02  0.10000000000E+01 0. -1.
    1000022    2    1    0    0    0 -0.24738355310E+02  0.54931214391E+02  0.13297574032E+02  0.62499999751E+02  0.99999977859E+01 0.  0.
    3000022    2    3    3    0    0 -0.75313253866E+01  0.15660804232E+02 -0.68151075501E+00  0.17392774117E+02  0.24996660186E+00 0.  0.
    1000022    2    1    0    0    0  0.24738355310E+02 -0.54931214391E+02 -0.13297574032E+02  0.62500000249E+02  0.10000000905E+02 0.  0.
    3000022    2    5    5    0    0  0.14540960765E+02 -0.22473392348E+02 -0.29802369922E+01  0.26933941839E+02  0.25001365284E+00 0.  0.
        -13    1    4    4    0    0 -0.31802412968E+01  0.65048967734E+01 -0.32832376439E+00  0.72488922073E+01  0.10500000000E+00 0. -1.
         13    1    4    4    0    0 -0.43510840898E+01  0.91559074589E+01 -0.35318699061E+00  0.10143881910E+02  0.10500000000E+00 0.  1.
    3000001    1    5    5    0    0  0.10197394545E+02 -0.32457822043E+02 -0.10317337040E+02  0.35566058411E+02  0.10000000000E+01 0. -1.
        -13    1    6    6    0    0  0.10297579815E+02 -0.15925743325E+02 -0.21547646822E+01  0.19087259791E+02  0.10500000000E+00 0. -1.
         13    1    6    6    0    0  0.42433809505E+01 -0.65476490233E+01 -0.82547231000E+00  0.78466820478E+01  0.10500000000E+00 0.  1.
</event>
<event>
11    0  0.3482687E-009  0.9118800E+02  0.7816531E-02  0.1126479E+00
         25   -1    0    0    0    0  0.00000000000E+00  0.00000000000E+00  0.99999998245E-14  0.12500000000E+03  0.12500000000E+03 0.  0.
    3000001    1    3    3    0    0 -0.60079941160E+01 -0.54809853223E+00 -0.27512626840E+00  0.61214458882E+01  0.10000000000E+01 0.  1.
    1000022    2    1    0    0    0 -0.54292836521E+02  0.37657361796E+01 -0.29057821763E+02  0.62499998827E+02  0.99999990657E+01 0.  0.
    3000022    2    3    3    0    0 -0.48284842405E+02  0.43138347118E+01 -0.28782695495E+02  0.56378552939E+02  0.24999111048E+00 0.  0.
    1000022    2    1    0    0    0  0.54292836521E+02 -0.37657361796E+01  0.29057821763E+02  0.62500001173E+02  0.10000013726E+02 0.  0.
    3000022    2    5    5    0    0  0.53166708908E+02 -0.22835812884E+01  0.27784250764E+02  0.60032830807E+02  0.25000927297E+00 0.  0.
        -13    1    4    4    0    0 -0.34308605365E+02  0.31068738005E+01 -0.20441739373E+02  0.40057568580E+02  0.10500000000E+00 0. -1.
         13    1    4    4    0    0 -0.13976237040E+02  0.12069609113E+01 -0.83409561215E+01  0.16320984359E+02  0.10500000000E+00 0.  1.
    3000001    1    5    5    0    0  0.11261276131E+01 -0.14821548912E+01  0.12735709993E+01  0.24671703656E+01  0.10000000000E+01 0. -1.
        -13    1    6    6    0    0  0.36032672170E+02 -0.15676853564E+01  0.18883781262E+02  0.40711415117E+02  0.10500000000E+00 0.  1.
         13    1    6    6    0    0  0.17134036737E+02 -0.71589593195E+00  0.89004695023E+01  0.19321415690E+02  0.10500000000E+00 0. -1.
</event>
<event>
11    0  0.3482687E-009  0.9118800E+02  0.7816531E-02  0.1126479E+00
         25   -1    0    0    0    0  0.00000000000E+00  0.00000000000E+00  0.99999998245E-14  0.12500000000E+03  0.12500000000E+03 0.  0.
    3000001    1    3    3    0    0  0.31377181011E+02 -0.23620414241E+02  0.34809050062E+01  0.39440691637E+02  0.10000000000E+01 0.  1.
    1000022    2    1    0    0    0  0.47901776489E+02 -0.36699956309E+02  0.12836792742E+02  0.62500002109E+02  0.10000001597E+02 0.  0.
    3000022    2    3    3    0    0  0.16524595477E+02 -0.13079542067E+02  0.93558877357E+01  0.23059310472E+02  0.24997549943E+00 0.  0.
    1000022    2    1    0    0    0 -0.47901776489E+02  0.36699956309E+02 -0.12836792742E+02  0.62499997891E+02  0.99999752318E+01 0.  0.
    3000022    2    5    5    0    0 -0.30955157601E+02  0.27385031593E+02 -0.12325923517E+02  0.43129486758E+02  0.25000003182E+00 0.  0.
        -13    1    4    4    0    0  0.75445617806E+01 -0.60414154420E+01  0.42484857211E+01  0.10558398028E+02  0.10500000000E+00 0.  1.
         13    1    4    4    0    0  0.89800336969E+01 -0.70381266253E+01  0.51074020146E+01  0.12500912444E+02  0.10500000000E+00 0. -1.
    3000001    1    5    5    0    0 -0.16946618887E+02  0.93149247158E+01 -0.51086922458E+00  0.19370511132E+02  0.10000000000E+01 0. -1.
        -13    1    6    6    0    0 -0.22529804259E+02  0.19979676031E+02 -0.89858597341E+01  0.31425089251E+02  0.10500000000E+00 0.  1.
         13    1    6    6    0    0 -0.84253533424E+01  0.74053555616E+01 -0.33400637832E+01  0.11704397508E+02  0.10500000000E+00 0. -1.
</event>
<event>
11    0  0.3482687E-009  0.9118800E+02  0.7816531E-02  0.1126479E+00
         25   -1    0    0    0    0  0.00000000000E+00  0.00000000000E+00  0.99999998245E-14  0.12500000000E+03  0.12500000000E+03 0.  0.
    3000001    1    3    3    0    0  0.17544848914E+02  0.51837039360E+01  0.18352071232E+02  0.25932431980E+02  0.10000000000E+01 0. -1.
    1000022    2    1    0    0    0  0.42994530787E+02  0.79036989205E+00  0.44239073670E+02  0.62500000749E+02  0.10000004617E+02 0.  0.
    3000022    2    3    3    0    0  0.25449681873E+02 -0.43933340439E+01  0.25887002438E+02  0.36567568769E+02  0.24999799817E+00 0.  0.
    1000022    2    1    0    0    0 -0.42994530787E+02 -0.79036989205E+00 -0.44239073670E+02  0.62499999251E+02  0.99999952517E+01 0.  0.
    3000022    2    5    5    0    0 -0.18816385493E+02 -0.21853853606E+01 -0.13071445111E+02  0.23016460301E+02  0.24999061244E+00 0.  0.
        -13    1    4    4    0    0  0.17809909245E+02 -0.30278617397E+01  0.18108840519E+02  0.25579326496E+02  0.10500000000E+00 0.  1.
         13    1    4    4    0    0  0.76397726272E+01 -0.13654723042E+01  0.77781619194E+01  0.10988242273E+02  0.10500000000E+00 0.  1.
    3000001    1    5    5    0    0 -0.24178145294E+02  0.13950154685E+01 -0.31167628559E+02  0.39483538950E+02  0.10000000000E+01 0.  1.
        -13    1    6    6    0    0 -0.11711833103E+02 -0.13676284994E+01 -0.82093093512E+01  0.14368062757E+02  0.10500000000E+00 0.  1.
         13    1    6    6    0    0 -0.71045523897E+01 -0.81775686121E+00 -0.48621357599E+01  0.86483975446E+01  0.10500000000E+00 0. -1.
</event>
<event>
11    0  0.3482687E-009  0.9118800E+02  0.7816531E-02  0.1126479E+00
         25   -1    0    0    0    0  0.00000000000E+00  0.00000000000E+00  0.99999998245E-14  0.12500000000E+03  0.12500000000E+03 0.  0.
    3000001    1    3    3    0    0  0.19577350382E+02  0.52570852610E+01  0.31044997998E+02  0.37090450174E+02  0.10000000000E+01 0. -1.
    1000022    2    1    0    0    0  0.37903438408E+02  0.12703075655E+02  0.46991602613E+02  0.62499995073E+02  0.99999946882E+01 0.  0.
    3000022    2    3    3    0    0  0.18326088027E+02  0.74459903944E+01  0.15946604615E+02  0.25409544899E+02  0.24999586922E+00 0.  0.
    1000022    2    1    0    0    0 -0.37903438408E+02 -0.12703075655E+02 -0.46991602613E+02  0.62500004927E+02  0.10000056271E+02 0.  0.
    3000022    2    5    5    0    0 -0.19927325163E+02 -0.35574292440E+01 -0.17512118764E+02  0.26767338308E+02  0.25001100846E+00 0.  0.
        -13    1    4    4    0    0  0.13948592501E+02  0.56761116286E+01  0.12160485112E+02  0.19356391687E+02  0.10500000000E+00 0. -1.
         13    1    4    4    0    0  0.43774955257E+01  0.17698787658E+01  0.37861195025E+01  0.60531532122E+01  0.10500000000E+00 0.  1.
    3000001    1    5    5    0    0 -0.17976113246E+02 -0.91456464115E+01 -0.29479483849E+02  0.35732666619E+02  0.10000000000E+01 0.  1.
        -13    1    6    6    0    0 -0.97291805407E+01 -0.16692614947E+01 -0.85566903886E+01  0.13064125051E+02  0.10500000000E+00 0.  1.
         13    1    6    6    0    0 -0.10198144622E+02 -0.18881677492E+01 -0.89554283751E+01  0.13703213257E+02  0.10500000000E+00 0. -1.
</event>
<event>
11    0  0.3482687E-009  0.9118800E+02  0.7816531E-02  0.1126479E+00
         25   -1    0    0    0    0  0.00000000000E+00  0.00000000000E+00  0.99999998245E-14  0.12500000000E+03  0.12500000000E+03 0.  0.
    3000001    1    3    3    0    0 -0.15879698181E+02  0.36864768238E+02 -0.40594705583E+02  0.57097338580E+02  0.10000000000E+01 0. -1.
    1000022    2    1    0    0    0 -0.14686687873E+02  0.41321924326E+02 -0.43394121206E+02  0.62499999263E+02  0.99999960992E+01 0.  0.
    3000022    2    3    3    0    0  0.11930103079E+01  0.44571560878E+01 -0.27994156225E+01  0.54026606827E+01  0.25000127868E+00 0.  0.
    1000022    2    1    0    0    0  0.14686687873E+02 -0.41321924326E+02  0.43394121206E+02  0.62500000737E+02  0.10000005311E+02 0.  0.
    3000022    2    5    5    0    0  0.37123995867E+00  0.52235365627E+00  0.11047266506E+01  0.13014015644E+01  0.25010519800E+00 0.  0.
        -13    1    4    4    0    0  0.44244813316E+00  0.16443316939E+01 -0.96476439213E+00  0.19599444897E+01  0.10500000000E+00 0.  1.
         13    1    4    4    0    0  0.75056217471E+00  0.28128243938E+01 -0.18346512304E+01  0.34427161930E+01  0.10500000000E+00 0. -1.
    3000001    1    5    5    0    0  0.14315447915E+02 -0.41844277982E+02  0.42289394555E+02  0.61198599173E+02  0.10000000000E+01 0. -1.
        -13    1    6    6    0    0  0.72958611208E-01  0.17587563262E+00  0.38912066184E+00  0.44575227040E+00  0.10500000000E+00 0.  1.
         13    1    6    6    0    0  0.29828134746E+00  0.34647802365E+00  0.71560598879E+00  0.85564929399E+00  0.10500000000E+00 0. -1.
</event>
<event>
11    0  0.3482687E-009  0.9118800E+02  0.7816531E-02  0.1126479E+00
         25   -1    0    0    0    0  0.00000000000E+00  0.00000000000E+00  0.99999998245E-14  0.12500000000E+03  0.12500000000E+03 0.  0.
    3000001    1    3    3    0    0  0.21096168446E+02  0.12027435346E+02 -0.13857939710E+02  0.27977669973E+02  0.10000000000E+01 0. -1.
    1000022    2    1    0    0    0  0.44209521760E+02  0.19370998131E+02 -0.38425676943E+02  0.62499999302E+02  0.99999940706E+01 0.  0.
    3000022    2    3    3    0    0  0.23113353315E+02  0.73435627855E+01 -0.24567737232E+02  0.34522329330E+02  0.24998759046E+00 0.  0.
    1000022    2    1    0    0    0 -0.44209521760E+02 -0.19370998131E+02  0.38425676943E+02  0.62500000698E+02  0.10000002790E+02 0.  0.
    3000022    2    5    5    0    0 -0.38046778848E+02 -0.16435405772E+02  0.28069993903E+02  0.50056638052E+02  0.25002352068E+00 0.  0.
        -13    1    4    4    0    0  0.10523262141E+02  0.33674476512E+01 -0.11282387982E+02  0.15791835021E+02  0.10500000000E+00 0. -1.
         13    1    4    4    0    0  0.12590091174E+02  0.39761151343E+01 -0.13285349251E+02  0.18730494309E+02  0.10500000000E+00 0.  1.
    3000001    1    5    5    0    0 -0.61627429119E+01 -0.29355923593E+01  0.10355683040E+02  0.12443362645E+02  0.10000000000E+01 0. -1.
        -13    1    6    6    0    0 -0.20303159360E+02 -0.87449548054E+01  0.14896064151E+02  0.26657011587E+02  0.10500000000E+00 0. -1.
         13    1    6    6    0    0 -0.17743619488E+02 -0.76904509667E+01  0.13173929752E+02  0.23399626465E+02  0.10500000000E+00 0.  1.
</event>
<event>
11    0  0.3482687E-009  0.9118800E+02  0.7816531E-02  0.1126479E+00
         25   -1    0    0    0    0  0.00000000000E+00  0.00000000000E+00  0.99999998245E-14  0.12500000000E+03  0.12500000000E+03 0.  0.
    3000001    1    3    3    0    0 -0.16066075519E+02  0.37148367382E+01  0.18350117563E+02  0.24691002595E+02  0.10000000000E+01 0. -1.
    1000022    2    1    0    0    0 -0.47514584837E+02  0.22676854259E+01  0.39287043244E+02  0.62500000697E+02  0.10000007546E+02 0.  0.
    3000022    2    3    3    0    0 -0.31448509318E+02 -0.14471513122E+01  0.20936925681E+02  0.37808998102E+02  0.24999061818E+00 0.  0.
    1000022    2    1    0    0    0  0.47514584837E+02 -0.22676854259E+01 -0.39287043244E+02  0.62499999303E+02  0.99999988298E+01 0.  0.
    3000022    2    5    5    0    0  0.16308507441E+02 -0.55027171949E+01 -0.13465115784E+02  0.21854499740E+02  0.25000864372E+00 0.  0.
        -13    1    4    4    0    0 -0.21102651308E+02 -0.98450457624E+00  0.14110453808E+02  0.25404863179E+02  0.10500000000E+00 0. -1.
         13    1    4    4    0    0 -0.10345858010E+02 -0.46264673597E+00  0.68264718731E+01  0.12404134924E+02  0.10500000000E+00 0.  1.
    3000001    1    5    5    0    0  0.31206077396E+02  0.32350317689E+01 -0.25821927460E+02  0.40645499563E+02  0.10000000000E+01 0. -1.
        -13    1    6    6    0    0  0.97059706401E+01 -0.32712299950E+01 -0.79320013244E+01  0.12955094819E+02  0.10500000000E+00 0. -1.
         13    1    6    6    0    0  0.66025368012E+01 -0.22314871999E+01 -0.55331144593E+01  0.88994049213E+01  0.10500000000E+00 0.  1.
</event>
<event>
11    0  0.3482687E-009  0.9118800E+02  0.7816531E-02  0.1126479E+00
         25   -1    0    0    0    0  0.00000000000E+00  0.00000000000E+00  0.99999998245E-14  0.12500000000E+03  0.12500000000E+03 0.  0.
    3000001    1    3    3    0    0  0.17091322758E+02 -0.52831562689E+02  0.22864872737E+02  0.60059052066E+02  0.10000000000E+01 0. -1.
    1000022    2    1    0    0    0  0.19257874536E+02 -0.53656960087E+02  0.23586332948E+02  0.62500001291E+02  0.99999981016E+01 0.  0.
    3000022    2    3    3    0    0  0.21665517780E+01 -0.82539739836E+00  0.72146021043E+00  0.24409492252E+01  0.25000162632E+00 0.  0.
    1000022    2    1    0    0    0 -0.19257874536E+02  0.53656960087E+02 -0.23586332948E+02  0.62499998709E+02  0.99999819597E+01 0.  0.
    3000022    2    5    5    0    0 -0.18250883450E+01  0.12375475354E+02 -0.88186618231E+01  0.15307339040E+02  0.24998884971E+00 0.  0.
        -13    1    4    4    0    0  0.15154361682E+01 -0.58412100491E+00  0.55142307809E+00  0.17183819539E+01  0.10500000000E+00 0. -1.
         13    1    4    4    0    0  0.65111560976E+00 -0.24127639345E+00  0.17003713234E+00  0.72256727139E+00  0.10500000000E+00 0.  1.
    3000001    1    5    5    0    0 -0.17432786191E+02  0.41281484733E+02 -0.14767671125E+02  0.47192659669E+02  0.10000000000E+01 0. -1.
        -13    1    6    6    0    0 -0.71701580451E+00  0.46111666748E+01 -0.32320545343E+01  0.56775145336E+01  0.10500000000E+00 0. -1.
         13    1    6    6    0    0 -0.11080725405E+01  0.77643086796E+01 -0.55866072888E+01  0.96298245065E+01  0.10500000000E+00 0.  1.
</event>
<event>
11    0  0.3482687E-009  0.9118800E+02  0.7816531E-02  0.1126479E+00
         25   -1    0    0    0    0  0.00000000000E+00  0.00000000000E+00  0.99999998245E-14  0.12500000000E+03  0.12500000000E+03 0.  0.
    3000001    1    3    3    0    0  0.11965445222E+02 -0.35451509422E+02  0.23724490387E+02  0.44315153659E+02  0.10000000000E+01 0.  1.
    1000022    2    1    0    0    0  0.11141996925E+02 -0.48878728979E+02  0.35957965717E+02  0.62500002270E+02  0.10000037159E+02 0.  0.
    3000022    2    3    3    0    0 -0.82344829695E+00 -0.13427219557E+02  0.12233475330E+02  0.18184848611E+02  0.25001648575E+00 0.  0.
    1000022    2    1    0    0    0 -0.11141996925E+02  0.48878728979E+02 -0.35957965717E+02  0.62499997730E+02  0.10000008784E+02 0.  0.
    3000022    2    5    5    0    0 -0.22073913765E+01  0.22622275408E+02 -0.11344005433E+02  0.25404505130E+02  0.25000054746E+00 0.  0.
        -13    1    4    4    0    0 -0.43191654429E+00 -0.80716314988E+01  0.73487545022E+01  0.10924880077E+02  0.10500000000E+00 0. -1.
         13    1    4    4    0    0 -0.39153175266E+00 -0.53555880577E+01  0.48847208281E+01  0.72599685348E+01  0.10500000000E+00 0.  1.
    3000001    1    5    5    0    0 -0.89346055487E+01  0.26256453570E+02 -0.24613960284E+02  0.37095492600E+02  0.10000000000E+01 0.  1.
        -13    1    6    6    0    0 -0.14503084418E+01  0.15327982601E+02 -0.76564854991E+01  0.17195442431E+02  0.10500000000E+00 0. -1.
         13    1    6    6    0    0 -0.75708293470E+00  0.72942928078E+01 -0.36875199338E+01  0.82090626991E+01  0.10500000000E+00 0.  1.
</event>
<event>
11    0  0.3482687E-009  0.9118800E+02  0.7816531E-02  0.1126479E+00
         25   -1    0    0    0    0  0.00000000000E+00  0.00000000000E+00  0.99999998245E-14  0.12500000000E+03  0.12500000000E+03 0.  0.
    3000001    1    3    3    0    0 -0.31113774053E+02 -0.14871816236E+02  0.34382306763E+01  0.34670726617E+02  0.10000000000E+01 0.  1.
    1000022    2    1    0    0    0 -0.57905761464E+02 -0.21281994974E+02 -0.49940207476E+00  0.62499999510E+02  0.10000000771E+02 0.  0.
    3000022    2    3    3    0    0 -0.26791987412E+02 -0.64101787384E+01 -0.39376327510E+01  0.27829272893E+02  0.24999426543E+00 0.  0.
    1000022    2    1    0    0    0  0.57905761464E+02  0.21281994974E+02  0.49940207476E+00  0.62500000490E+02  0.10000006901E+02 0.  0.
    3000022    2    5    5    0    0  0.30406698741E+02  0.76512124876E+01  0.39292988653E+01  0.31600795422E+02  0.25000177148E+00 0.  0.
        -13    1    4    4    0    0 -0.16550429439E+02 -0.40055008944E+01 -0.23916149503E+01  0.17195685479E+02  0.10500000000E+00 0. -1.
         13    1    4    4    0    0 -0.10241557973E+02 -0.24046778440E+01 -0.15460178007E+01  0.10633587414E+02  0.10500000000E+00 0.  1.
    3000001    1    5    5    0    0  0.27499062724E+02  0.13630782486E+02 -0.34298967905E+01  0.30899205069E+02  0.10000000000E+01 0. -1.
        -13    1    6    6    0    0  0.22533023964E+02  0.56582689500E+01  0.28821497616E+01  0.23410916016E+02  0.10500000000E+00 0.  1.
         13    1    6    6    0    0  0.78736747769E+01  0.19929435375E+01  0.10471491037E+01  0.81898794058E+01  0.10500000000E+00 0. -1.
</event>
<event>
11    0  0.3482687E-009  0.9118800E+02  0.7816531E-02  0.1126479E+00
         25   -1    0    0    0    0  0.00000000000E+00  0.00000000000E+00  0.99999998245E-14  0.12500000000E+03  0.12500000000E+03 0.  0.
    3000001    1    3    3    0    0  0.20523914856E+01 -0.24322986994E+02  0.71788433954E+01  0.25462831729E+02  0.10000000000E+01 0.  1.
    1000022    2    1    0    0    0 -0.66580019131E+01 -0.58224762268E+02  0.19282068562E+02  0.62500000670E+02  0.99999992553E+01 0.  0.
    3000022    2    3    3    0    0 -0.87103933987E+01 -0.33901775273E+02  0.12103225166E+02  0.37037168941E+02  0.25000784008E+00 0.  0.
    1000022    2    1    0    0    0  0.66580019131E+01  0.58224762268E+02 -0.19282068562E+02  0.62499999330E+02  0.99999908802E+01 0.  0.
    3000022    2    5    5    0    0 -0.21389198994E+01  0.97730850485E+01 -0.51709443236E+01  0.11264516645E+02  0.25000067288E+00 0.  0.
        -13    1    4    4    0    0 -0.51268744127E+01 -0.19884540161E+02  0.70349601977E+01  0.21706714828E+02  0.10500000000E+00 0.  1.
         13    1    4    4    0    0 -0.35835189860E+01 -0.14017235113E+02  0.50682649687E+01  0.15330454113E+02  0.10500000000E+00 0. -1.
    3000001    1    5    5    0    0  0.87969218125E+01  0.48451677219E+02 -0.14111124238E+02  0.51235482685E+02  0.10000000000E+01 0.  1.
        -13    1    6    6    0    0 -0.10372295580E+01  0.50438127404E+01 -0.26402904074E+01  0.57877500423E+01  0.10500000000E+00 0. -1.
         13    1    6    6    0    0 -0.11016903414E+01  0.47292723080E+01 -0.25306539162E+01  0.54767666022E+01  0.10500000000E+00 0.  1.
</event>
<event>
11    0  0.3482687E-009  0.9118800E+02  0.7816531E-02  0.1126479E+00
         25   -1    0    0    0    0  0.00000000000E+00  0.00000000000E+00  0.99999998245E-14  0.12500000000E+03  0.12500000000E+03 0.  0.
    3000001    1    3    3    0    0  0.21095434540E+01 -0.47760006973E+01  0.99775272948E+01  0.11305370722E+02  0.10000000000E+01 0.  1.
    1000022    2    1    0    0    0 -0.75405607791E+01 -0.33131983826E+02  0.51494284105E+02  0.62499998197E+02  0.10000003500E+02 0.  0.
    3000022    2    3    3    0    0 -0.96501042331E+01 -0.28355983129E+02  0.41516756810E+02  0.51194627475E+02  0.24999067391E+00 0.  0.
    1000022    2    1    0    0    0  0.75405607791E+01  0.33131983826E+02 -0.51494284105E+02  0.62500001803E+02  0.10000026035E+02 0.  0.
    3000022    2    5    5    0    0  0.34353719827E+00  0.11890964382E+02 -0.25594001079E+02  0.28224606600E+02  0.24994951293E+00 0.  0.
        -13    1    4    4    0    0 -0.40704130885E+01 -0.12155521863E+02  0.17736810300E+02  0.21884479411E+02  0.10500000000E+00 0.  1.
         13    1    4    4    0    0 -0.55796911446E+01 -0.16200461266E+02  0.23779946511E+02  0.29310148064E+02  0.10500000000E+00 0. -1.
    3000001    1    5    5    0    0  0.71970235808E+01  0.21241019445E+02 -0.25900283026E+02  0.34275395203E+02  0.10000000000E+01 0.  1.
        -13    1    6    6    0    0  0.14661308307E+00  0.35965052240E+01 -0.77895083798E+01  0.85815972302E+01  0.10500000000E+00 0. -1.
         13    1    6    6    0    0  0.19692411520E+00  0.82944591579E+01 -0.17804492699E+02  0.19643009370E+02  0.10500000000E+00 0.  1.
</event>
<event>
11    0  0.3482687E-009  0.9118800E+02  0.7816531E-02  0.1126479E+00
         25   -1    0    0    0    0  0.00000000000E+00  0.00000000000E+00  0.99999998245E-14  0.12500000000E+03  0.12500000000E+03 0.  0.
    3000001    1    3    3    0    0  0.35871219199E+01 -0.15790212158E+02 -0.17839979910E+01  0.16321179262E+02  0.10000000000E+01 0. -1.
    1000022    2    1    0    0    0  0.26594862755E+02 -0.53710392560E+02 -0.14634097831E+02  0.62500003163E+02  0.10000029103E+02 0.  0.
    3000022    2    3    3    0    0  0.23007740835E+02 -0.37920180402E+02 -0.12850099840E+02  0.46178823901E+02  0.24998179877E+00 0.  0.
    1000022    2    1    0    0    0 -0.26594862755E+02  0.53710392560E+02  0.14634097831E+02  0.62499996837E+02  0.99999895714E+01 0.  0.
    3000022    2    5    5    0    0 -0.14041081687E+02  0.31152751560E+02  0.13175871747E+02  0.36623926619E+02  0.25000010720E+00 0.  0.
        -13    1    4    4    0    0  0.13846177450E+02 -0.22700719195E+02 -0.77146794244E+01  0.27686938898E+02  0.10500000000E+00 0.  1.
         13    1    4    4    0    0  0.91615633849E+01 -0.15219461208E+02 -0.51354204154E+01  0.18491885003E+02  0.10500000000E+00 0. -1.
    3000001    1    5    5    0    0 -0.12553781068E+02  0.22557641001E+02  0.14582260836E+01  0.25876070218E+02  0.10000000000E+01 0. -1.
        -13    1    6    6    0    0 -0.32950962783E+01  0.72862026965E+01  0.30929808596E+01  0.85746116422E+01  0.10500000000E+00 0. -1.
         13    1    6    6    0    0 -0.10745985409E+02  0.23866548863E+02  0.10082890888E+02  0.28049314977E+02  0.10500000000E+00 0.  1.
</event>
<event>
11    0  0.3482687E-009  0.9118800E+02  0.7816531E-02  0.1126479E+00
         25   -1    0    0    0    0  0.00000000000E+00  0.00000000000E+00  0.99999998245E-14  0.12500000000E+03  0.12500000000E+03 0.  0.
    3000001    1    3    3    0    0  0.51049025145E+02  0.17297506253E+02  0.69887421932E+01  0.54360364313E+02  0.10000000000E+01 0. -1.
    1000022    2    1    0    0    0  0.58055030812E+02  0.17677403826E+02  0.11107324344E+02  0.62499999328E+02  0.10000002666E+02 0.  0.
    3000022    2    3    3    0    0  0.70060056670E+01  0.37989757303E+00  0.41185821508E+01  0.81396350148E+01  0.25000333859E+00 0.  0.
    1000022    2    1    0    0    0 -0.58055030812E+02 -0.17677403826E+02 -0.11107324344E+02  0.62500000672E+02  0.10000011063E+02 0.  0.
    3000022    2    5    5    0    0 -0.41098664969E+02 -0.16996773407E+02 -0.89113645094E+01  0.45359293569E+02  0.25005438668E+00 0.  0.
        -13    1    4    4    0    0  0.32802353874E+01  0.24529126862E+00  0.19336994066E+01  0.38171102156E+01  0.10500000000E+00 0. -1.
         13    1    4    4    0    0  0.37257702796E+01  0.13460630441E+00  0.21848827442E+01  0.43225247992E+01  0.10500000000E+00 0.  1.
    3000001    1    5    5    0    0 -0.16956365843E+02 -0.68063041853E+00 -0.21959598346E+01  0.17140707103E+02  0.10000000000E+01 0.  1.
        -13    1    6    6    0    0 -0.26752621349E+02 -0.11007758940E+02 -0.58193747175E+01  0.29508467480E+02  0.10500000000E+00 0. -1.
         13    1    6    6    0    0 -0.14346043620E+02 -0.59890144671E+01 -0.30919897919E+01  0.15850826089E+02  0.10500000000E+00 0.  1.
</event>
<event>
11    0  0.3482687E-009  0.9118800E+02  0.7816531E-02  0.1126479E+00
         25   -1    0    0    0    0  0.00000000000E+00  0.00000000000E+00  0.99999998245E-14  0.12500000000E+03  0.12500000000E+03 0.  0.
    3000001    1    3    3    0    0  0.25238485872E+02 -0.11094174121E+02 -0.19505970758E+02  0.33786754265E+02  0.10000000000E+01 0. -1.
    1000022    2    1    0    0    0  0.39865642371E+02 -0.21036057106E+02 -0.42124397942E+02  0.62500000226E+02  0.99999993051E+01 0.  0.
    3000022    2    3    3    0    0  0.14627156499E+02 -0.99418829843E+01 -0.22618427184E+02  0.28713245961E+02  0.25000169236E+00 0.  0.
    1000022    2    1    0    0    0 -0.39865642371E+02  0.21036057106E+02  0.42124397942E+02  0.62499999774E+02  0.99999964809E+01 0.  0.
    3000022    2    5    5    0    0 -0.49391838881E+01  0.41535572917E+01  0.21972481771E+01  0.68218748915E+01  0.25000365579E+00 0.  0.
        -13    1    4    4    0    0  0.63906799412E+01 -0.42715348563E+01 -0.98757385877E+01  0.12515112376E+02  0.10500000000E+00 0. -1.
         13    1    4    4    0    0  0.82364765579E+01 -0.56703481281E+01 -0.12742688596E+02  0.16198133585E+02  0.10500000000E+00 0.  1.
    3000001    1    5    5    0    0 -0.34926458483E+02  0.16882499814E+02  0.39927149765E+02  0.55678124883E+02  0.10000000000E+01 0. -1.
        -13    1    6    6    0    0 -0.22340833627E+01  0.19494942780E+01  0.10512727063E+01  0.31476746520E+01  0.10500000000E+00 0. -1.
         13    1    6    6    0    0 -0.27051005254E+01  0.22040630137E+01  0.11459754708E+01  0.36742002395E+01  0.10500000000E+00 0.  1.
</event>
<event>
11    0  0.3482687E-009  0.9118800E+02  0.7816531E-02  0.1126479E+00
         25   -1    0    0    0    0  0.00000000000E+00  0.00000000000E+00  0.99999998245E-14  0.12500000000E+03  0.12500000000E+03 0.  0.
    3000001    1    3    3    0    0  0.31188959379E+02  0.17735112977E+02  0.25796493140E-01  0.35892702391E+02  0.10000000000E+01 0.  1.
    1000022    2    1    0    0    0  0.57185135977E+02  0.23080089377E+02 -0.18492704224E+01  0.62500001078E+02  0.10000001563E+02 0.  0.
    3000022    2    3    3    0    0  0.25996176598E+02  0.53449763999E+01 -0.18750669155E+01  0.26607298687E+02  0.24999408621E+00 0.  0.
    1000022    2    1    0    0    0 -0.57185135977E+02 -0.23080089377E+02  0.18492704224E+01  0.62499998922E+02  0.99999880896E+01 0.  0.
    3000022    2    5    5    0    0 -0.45505396241E+02 -0.17943544769E+02  0.54131746025E+01  0.49214600026E+02  0.25002109183E+00 0.  0.
        -13    1    4    4    0    0  0.16824535370E+02  0.34024094891E+01 -0.12001885151E+01  0.17207348959E+02  0.10500000000E+00 0.  1.
         13    1    4    4    0    0  0.91716412288E+01  0.19425669108E+01 -0.67487840046E+00  0.93999497280E+01  0.10500000000E+00 0. -1.
    3000001    1    5    5    0    0 -0.11679739736E+02 -0.51365446087E+01 -0.35639041801E+01  0.13285398896E+02  0.10000000000E+01 0. -1.
        -13    1    6    6    0    0 -0.24482085551E+02 -0.96150582668E+01  0.29678407543E+01  0.26469623385E+02  0.10500000000E+00 0. -1.
         13    1    6    6    0    0 -0.21023310690E+02 -0.83284865018E+01  0.24453338482E+01  0.22744976641E+02  0.10500000000E+00 0.  1.
</event>
<event>
11    0  0.3482687E-009  0.9118800E+02  0.7816531E-02  0.1126479E+00
         25   -1    0    0    0    0  0.00000000000E+00  0.00000000000E+00  0.99999998245E-14  0.12500000000E+03  0.12500000000E+03 0.  0.
    3000001    1    3    3    0    0 -0.35880244817E+01  0.22830841410E+02  0.13471129365E+02  0.26769246637E+02  0.10000000000E+01 0. -1.
    1000022    2    1    0    0    0  0.20289157689E+01  0.55324535863E+02  0.27227363747E+02  0.62499999854E+02  0.99999938737E+01 0.  0.
    3000022    2    3    3    0    0  0.56169402506E+01  0.32493694454E+02  0.13756234382E+02  0.35730753217E+02  0.25008810254E+00 0.  0.
    1000022    2    1    0    0    0 -0.20289157689E+01 -0.55324535863E+02 -0.27227363747E+02  0.62500000146E+02  0.99999956956E+01 0.  0.
    3000022    2    5    5    0    0 -0.25307811576E+00 -0.32467838518E+02 -0.21187436342E+02  0.38771052930E+02  0.24999997661E+00 0.  0.
        -13    1    4    4    0    0  0.23769764352E+01  0.13419874054E+02  0.56517758949E+01  0.14754546159E+02  0.10500000000E+00 0.  1.
         13    1    4    4    0    0  0.32399638154E+01  0.19073820400E+02  0.81044584874E+01  0.20976207058E+02  0.10500000000E+00 0. -1.
    3000001    1    5    5    0    0 -0.17758376532E+01 -0.22856697346E+02 -0.60399274048E+01  0.23728947216E+02  0.10000000000E+01 0. -1.
        -13    1    6    6    0    0 -0.37171629521E-01 -0.11817144578E+02 -0.76867513641E+01  0.14097640201E+02  0.10500000000E+00 0.  1.
         13    1    6    6    0    0 -0.21590648624E+00 -0.20650693940E+02 -0.13500684978E+02  0.24673412729E+02  0.10500000000E+00 0. -1.
</event>
<event>
11    0  0.3482687E-009  0.9118800E+02  0.7816531E-02  0.1126479E+00
         25   -1    0    0    0    0  0.00000000000E+00  0.00000000000E+00  0.99999998245E-14  0.12500000000E+03  0.12500000000E+03 0.  0.
    3000001    1    3    3    0    0 -0.29521133119E+01  0.91534477485E+01  0.30648058605E+01  0.10143648932E+02  0.10000000000E+01 0.  1.
    1000022    2    1    0    0    0 -0.31978061246E+02  0.43378371436E+02  0.30032822982E+02  0.62500000023E+02  0.10000001858E+02 0.  0.
    3000022    2    3    3    0    0 -0.29025947934E+02  0.34224923687E+02  0.26968017122E+02  0.52356351091E+02  0.24999451148E+00 0.  0.
    1000022    2    1    0    0    0  0.31978061246E+02 -0.43378371436E+02 -0.30032822982E+02  0.62499999977E+02  0.10000001567E+02 0.  0.
    3000022    2    5    5    0    0  0.14212685186E+02 -0.22570126277E+02 -0.20008585274E+02  0.33343920083E+02  0.25000296517E+00 0.  0.
        -13    1    4    4    0    0 -0.20895130831E+02  0.24689377237E+02  0.19461590043E+02  0.37748329139E+02  0.10500000000E+00 0. -1.
         13    1    4    4    0    0 -0.81308171033E+01  0.95355464506E+01  0.75064270786E+01  0.14608021953E+02  0.10500000000E+00 0.  1.
    3000001    1    5    5    0    0  0.17765376060E+02 -0.20808245158E+02 -0.10024237709E+02  0.29156079893E+02  0.10000000000E+01 0.  1.
        -13    1    6    6    0    0  0.82795111057E+01 -0.13105839915E+02 -0.11704765258E+02  0.19424878347E+02  0.10500000000E+00 0. -1.
         13    1    6    6    0    0  0.59331740806E+01 -0.94642863623E+01 -0.83038200153E+01  0.13919041737E+02  0.10500000000E+00 0.  1.
</event>
<event>
11    0  0.3482687E-009  0.9118800E+02  0.7816531E-02  0.1126479E+00
         25   -1    0    0    0    0  0.00000000000E+00  0.00000000000E+00  0.99999998245E-14  0.12500000000E+03  0.12500000000E+03 0.  0.
    3000001    1    3    3    0    0  0.55921158740E+01 -0.24676585043E+00  0.87656200976E+01  0.10448384996E+02  0.10000000000E+01 0. -1.
    1000022    2    1    0    0    0  0.17466371945E+02 -0.15263403485E+02  0.57168211173E+02  0.62500000605E+02  0.10000003596E+02 0.  0.
    3000022    2    3    3    0    0  0.11874256072E+02 -0.15016637635E+02  0.48402591076E+02  0.52051615608E+02  0.25000296907E+00 0.  0.
    1000022    2    1    0    0    0 -0.17466371945E+02  0.15263403485E+02 -0.57168211173E+02  0.62499999395E+02  0.99999960382E+01 0.  0.
    3000022    2    5    5    0    0 -0.11011624803E+02  0.48669078285E+01 -0.19882702181E+02  0.23244935220E+02  0.24998947590E+00 0.  0.
        -13    1    4    4    0    0  0.86300891202E+01 -0.10952454572E+02  0.35328485221E+02  0.37980884566E+02  0.10500000000E+00 0. -1.
         13    1    4    4    0    0  0.32441669514E+01 -0.40641830629E+01  0.13074105854E+02  0.14070731042E+02  0.10500000000E+00 0.  1.
    3000001    1    5    5    0    0 -0.64547471424E+01  0.10396495657E+02 -0.37285508992E+02  0.39255064175E+02  0.10000000000E+01 0. -1.
        -13    1    6    6    0    0 -0.58289808650E+01  0.25825716170E+01 -0.10399158288E+02  0.12198369243E+02  0.10500000000E+00 0. -1.
         13    1    6    6    0    0 -0.51826439380E+01  0.22843362116E+01 -0.94835438935E+01  0.11046565978E+02  0.10500000000E+00 0.  1.
</event>
<event>
11    0  0.3482687E-009  0.9118800E+02  0.7816531E-02  0.1126479E+00
         25   -1    0    0    0    0  0.00000000000E+00  0.00000000000E+00  0.99999998245E-14  0.12500000000E+03  0.12500000000E+03 0.  0.
    3000001    1    3    3    0    0  0.53308511941E+01 -0.65426014939E+01 -0.42036786993E+02  0.42887236674E+02  0.10000000000E+01 0. -1.
    1000022    2    1    0    0    0  0.14608959148E+01 -0.11700414536E+02 -0.60557543505E+02  0.62500000892E+02  0.10000005944E+02 0.  0.
    3000022    2    3    3    0    0 -0.38699552793E+01 -0.51578130425E+01 -0.18520756512E+02  0.19612764218E+02  0.25001852546E+00 0.  0.
    1000022    2    1    0    0    0 -0.14608959148E+01  0.11700414536E+02  0.60557543505E+02  0.62499999108E+02  0.99999947988E+01 0.  0.
    3000022    2    5    5    0    0 -0.51657837304E+01  0.10003388362E+02  0.44705074904E+02  0.46101619545E+02  0.25000441841E+00 0.  0.
        -13    1    4    4    0    0 -0.10546471316E+01 -0.13500822381E+01 -0.49020917255E+01  0.51938936172E+01  0.10500000000E+00 0. -1.
         13    1    4    4    0    0 -0.28153081477E+01 -0.38077308044E+01 -0.13618664786E+02  0.14418870601E+02  0.10500000000E+00 0.  1.
    3000001    1    5    5    0    0  0.37048878156E+01  0.16970261745E+01  0.15852468601E+02  0.16398379564E+02  0.10000000000E+01 0.  1.
        -13    1    6    6    0    0 -0.32946420569E+01  0.62700658708E+01  0.28251932651E+02  0.29126467617E+02  0.10500000000E+00 0. -1.
         13    1    6    6    0    0 -0.18711416735E+01  0.37333224911E+01  0.16453142253E+02  0.16975151928E+02  0.10500000000E+00 0.  1.
</event>
<event>
11    0  0.3482687E-009  0.9118800E+02  0.7816531E-02  0.1126479E+00
         25   -1    0    0    0    0  0.00000000000E+00  0.00000000000E+00  0.99999998245E-14  0.12500000000E+03  0.12500000000E+03 0.  0.
    3000001    1    3    3    0    0  0.24996923817E+01  0.42887077388E+01 -0.11566856317E+02  0.12626703494E+02  0.10000000000E+01 0. -1.
    1000022    2    1    0    0    0  0.18228875095E+02  0.28377915087E+01 -0.58871939662E+02  0.62500000532E+02  0.99999919504E+01 0.  0.
    3000022    2    3    3    0    0  0.15729182713E+02 -0.14509162302E+01 -0.47305083345E+02  0.49873297038E+02  0.25000073705E+00 0.  0.
    1000022    2    1    0    0    0 -0.18228875095E+02 -0.28377915087E+01  0.58871939662E+02  0.62499999468E+02  0.99999853039E+01 0.  0.
    3000022    2    5    5    0    0 -0.14799600058E+02  0.18094734903E+01  0.45992023134E+02  0.48349054305E+02  0.25000802676E+00 0.  0.
        -13    1    4    4    0    0  0.38181565043E+01 -0.33504429524E+00 -0.11522459726E+02  0.12143668182E+02  0.10500000000E+00 0. -1.
         13    1    4    4    0    0  0.11911026209E+02 -0.11158719349E+01 -0.35782623619E+02  0.37729628856E+02  0.10500000000E+00 0.  1.
    3000001    1    5    5    0    0 -0.34292750364E+01 -0.46472649990E+01  0.12879916528E+02  0.14150945163E+02  0.10000000000E+01 0.  1.
        -13    1    6    6    0    0 -0.85717753242E+01  0.98262830467E+00  0.26611036457E+02  0.27974974119E+02  0.10500000000E+00 0.  1.
         13    1    6    6    0    0 -0.62278247342E+01  0.82684518561E+00  0.19380986677E+02  0.20374080186E+02  0.10500000000E+00 0. -1.
</event>
<event>
11    0  0.3482687E-009  0.9118800E+02  0.7816531E-02  0.1126479E+00
         25   -1    0    0    0    0  0.00000000000E+00  0.00000000000E+00  0.99999998245E-14  0.12500000000E+03  0.12500000000E+03 0.  0.
    3000001    1    3    3    0    0 -0.15478942740E+02  0.47934516653E+01  0.87574800296E-01  0.16235224562E+02  0.10000000000E+01 0. -1.
    1000022    2    1    0    0    0 -0.52437121487E+02  0.31695322234E+02  0.72114298392E+01  0.62499999781E+02  0.10000004547E+02 0.  0.
    3000022    2    3    3    0    0 -0.36958178747E+02  0.26901870568E+02  0.71238550389E+01  0.46264775219E+02  0.24999820063E+00 0.  0.
    1000022    2    1    0    0    0  0.52437121487E+02 -0.31695322234E+02 -0.72114298392E+01  0.62500000219E+02  0.10000007281E+02 0.  0.
    3000022    2    5    5    0    0  0.24168995781E+02 -0.13755227651E+02  0.16284358383E+01  0.27857870524E+02  0.25000411578E+00 0.  0.
        -13    1    4    4    0    0 -0.96421486178E+01  0.70551782801E+01  0.18748821984E+01  0.12094328373E+02  0.10500000000E+00 0. -1.
         13    1    4    4    0    0 -0.27316030129E+02  0.19846692288E+02  0.52489728404E+01  0.34170446847E+02  0.10500000000E+00 0.  1.
    3000001    1    5    5    0    0  0.28268125706E+02 -0.17940094582E+02 -0.88398656775E+01  0.34642129695E+02  0.10000000000E+01 0. -1.
        -13    1    6    6    0    0  0.11967721107E+02 -0.68833379161E+01  0.78263066262E+00  0.13828601705E+02  0.10500000000E+00 0. -1.
         13    1    6    6    0    0  0.12201274674E+02 -0.68718897352E+01  0.84580517571E+00  0.14029268819E+02  0.10500000000E+00 0.  1.
</event>
<event>
11    0  0.3482687E-009  0.9118800E+02  0.7816531E-02  0.1126479E+00
         25   -1    0    0    0    0  0.00000000000E+00  0.00000000000E+00  0.99999998245E-14  0.12500000000E+03  0.12500000000E+03 0.  0.
    3000001    1    3    3    0    0  0.11546679829E+02 -0.79283045385E+01  0.38349601175E+02  0.40839634404E+02  0.10000000000E+01 0. -1.
    1000022    2    1    0    0    0  0.10507421707E+02 -0.12572476467E+02  0.59479214283E+02  0.62499999983E+02  0.99999995361E+01 0.  0.
    3000022    2    3    3    0    0 -0.10392581222E+01 -0.46441719288E+01  0.21129613108E+02  0.21660365579E+02  0.24999320001E+00 0.  0.
    1000022    2    1    0    0    0 -0.10507421707E+02  0.12572476467E+02 -0.59479214283E+02  0.62500000017E+02  0.99999997449E+01 0.  0.
    3000022    2    5    5    0    0 -0.34562324465E+01  0.55732535852E+01 -0.40751267916E+02  0.41276325357E+02  0.24999988943E+00 0.  0.
        -13    1    4    4    0    0 -0.51608284176E+00 -0.20101563961E+01  0.92714919167E+01  0.95015081749E+01  0.10500000000E+00 0. -1.
         13    1    4    4    0    0 -0.52317528047E+00 -0.26340155327E+01  0.11858121191E+02  0.12158857405E+02  0.10500000000E+00 0.  1.
    3000001    1    5    5    0    0 -0.70511892605E+01  0.69992228822E+01 -0.18727946367E+02  0.21223674660E+02  0.10000000000E+01 0.  1.
        -13    1    6    6    0    0 -0.24255471905E+01  0.38195988684E+01 -0.28128664739E+02  0.28490444358E+02  0.10500000000E+00 0.  1.
         13    1    6    6    0    0 -0.10306852559E+01  0.17536547167E+01 -0.12622603177E+02  0.12785880999E+02  0.10500000000E+00 0. -1.
</event>
<event>
11    0  0.3482687E-009  0.9118800E+02  0.7816531E-02  0.1126479E+00
         25   -1    0    0    0    0  0.00000000000E+00  0.00000000000E+00  0.99999998245E-14  0.12500000000E+03  0.12500000000E+03 0.  0.
    3000001    1    3    3    0    0  0.44915233755E+02 -0.12219178332E+01  0.32115021646E+02  0.55238083980E+02  0.10000000000E+01 0. -1.
    1000022    2    1    0    0    0  0.52081622248E+02 -0.58174248484E+00  0.33066843955E+02  0.62499999340E+02  0.99999974056E+01 0.  0.
    3000022    2    3    3    0    0  0.71663884935E+01  0.64017534840E+00  0.95182230836E+00  0.72619153605E+01  0.25000096039E+00 0.  0.
    1000022    2    1    0    0    0 -0.52081622248E+02  0.58174248484E+00 -0.33066843955E+02  0.62500000660E+02  0.10000005651E+02 0.  0.
    3000022    2    5    5    0    0 -0.10662894119E+02 -0.34135173813E+01 -0.93867387067E+01  0.14612418493E+02  0.24999751926E+00 0.  0.
        -13    1    4    4    0    0  0.38650521394E+01  0.31817824241E+00  0.57497738290E+00  0.39219241993E+01  0.10500000000E+00 0.  1.
         13    1    4    4    0    0  0.33013363541E+01  0.32199710600E+00  0.37684492546E+00  0.33399911612E+01  0.10500000000E+00 0.  1.
    3000001    1    5    5    0    0 -0.41418728129E+02  0.39952598662E+01 -0.23680105248E+02  0.47887582166E+02  0.10000000000E+01 0. -1.
        -13    1    6    6    0    0 -0.80442165612E+01 -0.25519451292E+01 -0.70864436800E+01  0.11020460655E+02  0.10500000000E+00 0. -1.
         13    1    6    6    0    0 -0.26186775583E+01 -0.86157225216E+00 -0.23002950266E+01  0.35919578379E+01  0.10500000000E+00 0.  1.
</event>
<event>
11    0  0.3482687E-009  0.9118800E+02  0.7816531E-02  0.1126479E+00
         25   -1    0    0    0    0  0.00000000000E+00  0.00000000000E+00  0.99999998245E-14  0.12500000000E+03  0.12500000000E+03 0.  0.
    3000001    1    3    3    0    0  0.14369854689E+02  0.40827376924E+02 -0.22771917787E+02  0.48917559935E+02  0.10000000000E+01 0. -1.
    1000022    2    1    0    0    0  0.16541617769E+02  0.49357106513E+02 -0.33113453340E+02  0.62500000776E+02  0.10000011157E+02 0.  0.
    3000022    2    3    3    0    0  0.21717630793E+01  0.85297295893E+01 -0.10341535552E+02  0.13582440841E+02  0.24999975341E+00 0.  0.
    1000022    2    1    0    0    0 -0.16541617769E+02 -0.49357106513E+02  0.33113453340E+02  0.62499999224E+02  0.10000001457E+02 0.  0.
    3000022    2    5    5    0    0 -0.98372948222E+01 -0.35874227009E+02  0.28023799780E+02  0.46573902425E+02  0.25000010567E+00 0.  0.
        -13    1    4    4    0    0  0.12840956714E+01  0.49333234046E+01 -0.58977922909E+01  0.77962529727E+01  0.10500000000E+00 0.  1.
         13    1    4    4    0    0  0.88766740786E+00  0.35964061847E+01 -0.44437432615E+01  0.57861878682E+01  0.10500000000E+00 0. -1.
    3000001    1    5    5    0    0 -0.67043229464E+01 -0.13482879504E+02  0.50896535596E+01  0.15926096799E+02  0.10000000000E+01 0.  1.
        -13    1    6    6    0    0 -0.44992847727E+01 -0.16575738289E+02  0.13002360590E+02  0.21542308818E+02  0.10500000000E+00 0. -1.
         13    1    6    6    0    0 -0.53380100495E+01 -0.19298488720E+02  0.15021439190E+02  0.25031593607E+02  0.10500000000E+00 0.  1.
</event>
<event>
11    0  0.3482687E-009  0.9118800E+02  0.7816531E-02  0.1126479E+00
         25   -1    0    0    0    0  0.00000000000E+00  0.00000000000E+00  0.99999998245E-14  0.12500000000E+03  0.12500000000E+03 0.  0.
    3000001    1    3    3    0    0  0.91548528451E+01 -0.10150926241E+02 -0.63506467501E+01  0.15105738919E+02  0.10000000000E+01 0. -1.
    1000022    2    1    0    0    0  0.46194348391E+02 -0.39299917632E+02 -0.11307020084E+02  0.62500000884E+02  0.10000002908E+02 0.  0.
    3000022    2    3    3    0    0  0.37039495546E+02 -0.29148991392E+02 -0.49563733335E+01  0.47394261965E+02  0.25000220803E+00 0.  0.
    1000022    2    1    0    0    0 -0.46194348391E+02  0.39299917632E+02  0.11307020084E+02  0.62499999116E+02  0.99999918552E+01 0.  0.
    3000022    2    5    5    0    0 -0.14314232407E+02  0.99217005974E+01 -0.92829812628E+00  0.17443096836E+02  0.24999537472E+00 0.  0.
        -13    1    4    4    0    0  0.95392315122E+01 -0.74760660316E+01 -0.12924592125E+01  0.12188928459E+02  0.10500000000E+00 0.  1.
         13    1    4    4    0    0  0.27500264034E+02 -0.21672925360E+02 -0.36639141210E+01  0.35205333506E+02  0.10500000000E+00 0. -1.
    3000001    1    5    5    0    0 -0.31880115985E+02  0.29378217035E+02  0.12235318210E+02  0.45056902280E+02  0.10000000000E+01 0.  1.
        -13    1    6    6    0    0 -0.56640532267E+01  0.38765449922E+01 -0.31834814833E+00  0.68717880188E+01  0.10500000000E+00 0. -1.
         13    1    6    6    0    0 -0.86501791800E+01  0.60451556052E+01 -0.60994997795E+00  0.10571308817E+02  0.10500000000E+00 0.  1.
</event>
<event>
11    0  0.3482687E-009  0.9118800E+02  0.7816531E-02  0.1126479E+00
         25   -1    0    0    0    0  0.00000000000E+00  0.00000000000E+00  0.99999998245E-14  0.12500000000E+03  0.12500000000E+03 0.  0.
    3000001    1    3    3    0    0  0.15670211586E+01 -0.19722469852E+02 -0.30904353196E+01  0.20049492832E+02  0.10000000000E+01 0. -1.
    1000022    2    1    0    0    0  0.17710667355E+02 -0.57308693214E+02 -0.14432459990E+02  0.62499999587E+02  0.99999995487E+01 0.  0.
    3000022    2    3    3    0    0  0.16143646196E+02 -0.37586223362E+02 -0.11342024671E+02  0.42450506755E+02  0.25000194408E+00 0.  0.
    1000022    2    1    0    0    0 -0.17710667355E+02  0.57308693214E+02  0.14432459990E+02  0.62500000413E+02  0.10000004711E+02 0.  0.
    3000022    2    5    5    0    0 -0.19965809589E+01  0.21884674582E+02  0.38067811869E+01  0.22304246193E+02  0.24999629015E+00 0.  0.
        -13    1    4    4    0    0  0.84567275870E+01 -0.19719450488E+02 -0.60181119373E+01  0.22284561143E+02  0.10500000000E+00 0.  1.
         13    1    4    4    0    0  0.76869186092E+01 -0.17866772874E+02 -0.53239127333E+01  0.20165945612E+02  0.10500000000E+00 0. -1.
    3000001    1    5    5    0    0 -0.15714086396E+02  0.35424018632E+02  0.10625678803E+02  0.40195754220E+02  0.10000000000E+01 0. -1.
        -13    1    6    6    0    0 -0.71084790542E+00  0.84161553471E+01  0.14394520493E+01  0.85685484636E+01  0.10500000000E+00 0.  1.
         13    1    6    6    0    0 -0.12857330534E+01  0.13468519235E+02  0.23673291376E+01  0.13735697729E+02  0.10500000000E+00 0. -1.
</event>
<event>
11    0  0.3482687E-009  0.9118800E+02  0.7816531E-02  0.1126479E+00
         25   -1    0    0    0    0  0.00000000000E+00  0.00000000000E+00  0.99999998245E-14  0.12500000000E+03  0.12500000000E+03 0.  0.
    3000001    1    3    3    0    0  0.38781010260E+02 -0.36883997134E+02 -0.10892921486E+02  0.54626474716E+02  0.10000000000E+01 0. -1.
    1000022    2    1    0    0    0  0.42094987722E+02 -0.42371205039E+02 -0.15457785530E+02  0.62500001596E+02  0.10000002910E+02 0.  0.
    3000022    2    3    3    0    0  0.33139774618E+01 -0.54872079049E+01 -0.45648640445E+01  0.78735268800E+01  0.25008913533E+00 0.  0.
    1000022    2    1    0    0    0 -0.42094987722E+02  0.42371205039E+02  0.15457785530E+02  0.62499998404E+02  0.99999829618E+01 0.  0.
    3000022    2    5    5    0    0 -0.39568368021E+02  0.35465102243E+02  0.13627148012E+02  0.54856092553E+02  0.25000443945E+00 0.  0.
        -13    1    4    4    0    0  0.23724997832E+01 -0.38764224623E+01 -0.31930573241E+01  0.55553619506E+01  0.10500000000E+00 0.  1.
         13    1    4    4    0    0  0.94147767858E+00 -0.16107854426E+01 -0.13718067204E+01  0.23181649293E+01  0.10500000000E+00 0. -1.
    3000001    1    5    5    0    0 -0.25266197006E+01  0.69061027965E+01  0.18306375177E+01  0.76439058516E+01  0.10000000000E+01 0. -1.
        -13    1    6    6    0    0 -0.17611609711E+02  0.15837490213E+02  0.61299437967E+01  0.24465938135E+02  0.10500000000E+00 0. -1.
         13    1    6    6    0    0 -0.21956758310E+02  0.19627612030E+02  0.74972042158E+01  0.30390154418E+02  0.10500000000E+00 0.  1.
</event>
<event>
11    0  0.3482687E-009  0.9118800E+02  0.7816531E-02  0.1126479E+00
         25   -1    0    0    0    0  0.00000000000E+00  0.00000000000E+00  0.99999998245E-14  0.12500000000E+03  0.12500000000E+03 0.  0.
    3000001    1    3    3    0    0 -0.23818440486E+02 -0.14591711880E+02  0.34759093079E+02  0.44603034812E+02  0.10000000000E+01 0. -1.
    1000022    2    1    0    0    0 -0.28393105411E+02 -0.24252696603E+02  0.49110980190E+02  0.62499999492E+02  0.99999916972E+01 0.  0.
    3000022    2    3    3    0    0 -0.45746649252E+01 -0.96609847225E+01  0.14351887111E+02  0.17896964681E+02  0.24999227244E+00 0.  0.
    1000022    2    1    0    0    0  0.28393105411E+02  0.24252696603E+02 -0.49110980190E+02  0.62500000508E+02  0.99999980415E+01 0.  0.
    3000022    2    5    5    0    0  0.25343136195E+02  0.24602399860E+02 -0.43591872626E+02  0.56105850612E+02  0.24996547939E+00 0.  0.
        -13    1    4    4    0    0 -0.32709272896E+01 -0.69387300611E+01  0.10361733272E+02  0.12892691015E+02  0.10500000000E+00 0.  1.
         13    1    4    4    0    0 -0.13037376355E+01 -0.27222546614E+01  0.39901538389E+01  0.50042736658E+01  0.10500000000E+00 0. -1.
    3000001    1    5    5    0    0  0.30499692161E+01 -0.34970325747E+00 -0.55191075641E+01  0.63941498959E+01  0.10000000000E+01 0.  1.
        -13    1    6    6    0    0  0.13595637268E+02  0.13291554015E+02 -0.23473147038E+02  0.30207721161E+02  0.10500000000E+00 0.  1.
         13    1    6    6    0    0  0.11747498927E+02  0.11310845845E+02 -0.20118725588E+02  0.25898129451E+02  0.10500000000E+00 0. -1.
</event>
<event>
11    0  0.3482687E-009  0.9118800E+02  0.7816531E-02  0.1126479E+00
         25   -1    0    0    0    0  0.00000000000E+00  0.00000000000E+00  0.99999998245E-14  0.12500000000E+03  0.12500000000E+03 0.  0.
    3000001    1    3    3    0    0  0.10016109303E+02 -0.35656196636E+01 -0.32979277628E+02  0.34665095442E+02  0.10000000000E+01 0. -1.
    1000022    2    1    0    0    0  0.11536149302E+02 -0.52243794568E+00 -0.60604408869E+02  0.62499998947E+02  0.99999905938E+01 0.  0.
    3000022    2    3    3    0    0  0.15200399990E+01  0.30431817179E+01 -0.27625131242E+02  0.27834903505E+02  0.25000092755E+00 0.  0.
    1000022    2    1    0    0    0 -0.11536149302E+02  0.52243794568E+00  0.60604408869E+02  0.62500001053E+02  0.10000003752E+02 0.  0.
    3000022    2    5    5    0    0  0.68175371737E+00 -0.23428099748E+01  0.64262618158E+01  0.68784367272E+01  0.25000835233E+00 0.  0.
        -13    1    4    4    0    0  0.52101360586E+00  0.11723553089E+01 -0.10280425398E+02  0.10360697057E+02  0.10500000000E+00 0. -1.
         13    1    4    4    0    0  0.99902639317E+00  0.18708264090E+01 -0.17344705844E+02  0.17474206448E+02  0.10500000000E+00 0.  1.
    3000001    1    5    5    0    0 -0.12217903019E+02  0.28652479205E+01  0.54178147054E+02  0.55621564325E+02  0.10000000000E+01 0. -1.
        -13    1    6    6    0    0  0.45271484596E+00 -0.15974530452E+01  0.42219561041E+01  0.45379230170E+01  0.10500000000E+00 0.  1.
         13    1    6    6    0    0  0.22903887141E+00 -0.74535692955E+00  0.22043057117E+01  0.23405137102E+01  0.10500000000E+00 0. -1.
</event>
<event>
11    0  0.3482687E-009  0.9118800E+02  0.7816531E-02  0.1126479E+00
         25   -1    0    0    0    0  0.00000000000E+00  0.00000000000E+00  0.99999998245E-14  0.12500000000E+03  0.12500000000E+03 0.  0.
    3000001    1    3    3    0    0 -0.50402880933E+01  0.40285459171E+02 -0.36816869128E+01  0.40778395545E+02  0.10000000000E+01 0.  1.
    1000022    2    1    0    0    0 -0.74273932335E+01  0.61226013178E+02  0.15681339089E+01  0.62500002114E+02  0.10000018018E+02 0.  0.
    3000022    2    3    3    0    0 -0.23871051401E+01  0.20940554007E+02  0.52498208217E+01  0.21721606569E+02  0.25000043155E+00 0.  0.
    1000022    2    1    0    0    0  0.74273932335E+01 -0.61226013178E+02 -0.15681339089E+01  0.62499997886E+02  0.99999915910E+01 0.  0.
    3000022    2    5    5    0    0 -0.16129126444E+01 -0.13979351395E+02 -0.28886959189E+01  0.14367700372E+02  0.24999443522E+00 0.  0.
        -13    1    4    4    0    0 -0.14165976381E+01  0.12833907806E+02  0.32583543472E+01  0.13317050592E+02  0.10500000000E+00 0. -1.
         13    1    4    4    0    0 -0.97050750208E+00  0.81066462016E+01  0.19914664745E+01  0.84045559769E+01  0.10500000000E+00 0.  1.
    3000001    1    5    5    0    0  0.90403058778E+01 -0.47246661783E+02  0.13205620099E+01  0.48132297514E+02  0.10000000000E+01 0. -1.
        -13    1    6    6    0    0 -0.50167946839E+00 -0.43169964628E+01 -0.94131951526E+00  0.44480611707E+01  0.10500000000E+00 0. -1.
         13    1    6    6    0    0 -0.11112331760E+01 -0.96623549327E+01 -0.19473764036E+01  0.99196392008E+01  0.10500000000E+00 0.  1.
</event>
<event>
11    0  0.3482687E-009  0.9118800E+02  0.7816531E-02  0.1126479E+00
         25   -1    0    0    0    0  0.00000000000E+00  0.00000000000E+00  0.99999998245E-14  0.12500000000E+03  0.12500000000E+03 0.  0.
    3000001    1    3    3    0    0  0.35214615606E+02  0.56025637169E+01  0.27865346125E+02  0.45265167482E+02  0.10000000000E+01 0. -1.
    1000022    2    1    0    0    0  0.47229308896E+02  0.13578687360E+02  0.37299620045E+02  0.62499999392E+02  0.99999949651E+01 0.  0.
    3000022    2    3    3    0    0  0.12014693291E+02  0.79761236431E+01  0.94342739193E+01  0.17234831911E+02  0.25000672159E+00 0.  0.
    1000022    2    1    0    0    0 -0.47229308896E+02 -0.13578687360E+02 -0.37299620045E+02  0.62500000608E+02  0.10000002562E+02 0.  0.
    3000022    2    5    5    0    0 -0.20711482993E+02 -0.41444303606E+01 -0.10363692705E+02  0.23528928292E+02  0.25001862964E+00 0.  0.
        -13    1    4    4    0    0  0.73694246793E+01  0.48184689411E+01  0.57508568384E+01  0.10517102377E+02  0.10500000000E+00 0. -1.
         13    1    4    4    0    0  0.46452686114E+01  0.31576547020E+01  0.36834170809E+01  0.67177295332E+01  0.10500000000E+00 0.  1.
    3000001    1    5    5    0    0 -0.26517825904E+02 -0.94342569994E+01 -0.26935927340E+02  0.38971072316E+02  0.10000000000E+01 0. -1.
        -13    1    6    6    0    0 -0.74450887909E+01 -0.14456151669E+01 -0.36784323900E+01  0.84297710623E+01  0.10500000000E+00 0. -1.
         13    1    6    6    0    0 -0.13266394202E+02 -0.26988151937E+01 -0.66852603146E+01  0.15099157229E+02  0.10500000000E+00 0.  1.
</event>
<event>
11    0  0.3482687E-009  0.9118800E+02  0.7816531E-02  0.1126479E+00
         25   -1    0    0    0    0  0.00000000000E+00  0.00000000000E+00  0.99999998245E-14  0.12500000000E+03  0.12500000000E+03 0.  0.
    3000001    1    3    3    0    0 -0.68780534588E+01 -0.41479391277E+01 -0.31086524824E+01  0.86704520439E+01  0.10000000000E+01 0. -1.
    1000022    2    1    0    0    0 -0.38327227288E+02 -0.47248299753E+02 -0.10240699277E+02  0.62499999821E+02  0.99999937401E+01 0.  0.
    3000022    2    3    3    0    0 -0.31449173829E+02 -0.43100360625E+02 -0.71320467943E+01  0.53829547777E+02  0.25000366130E+00 0.  0.
    1000022    2    1    0    0    0  0.38327227288E+02  0.47248299753E+02  0.10240699277E+02  0.62500000179E+02  0.99999959782E+01 0.  0.
    3000022    2    5    5    0    0  0.22161360252E+02  0.31103897856E+02  0.10573907799E+02  0.39628883076E+02  0.24999524663E+00 0.  0.
        -13    1    4    4    0    0 -0.14185046524E+02 -0.19547461154E+02 -0.32503132889E+01  0.24369947558E+02  0.10500000000E+00 0. -1.
         13    1    4    4    0    0 -0.17264127305E+02 -0.23552899471E+02 -0.38817335054E+01  0.29459600219E+02  0.10500000000E+00 0.  1.
    3000001    1    5    5    0    0  0.16165867036E+02  0.16144401897E+02 -0.33320852215E+00  0.22871117103E+02  0.10000000000E+01 0.  1.
        -13    1    6    6    0    0  0.13011431211E+02  0.18166461326E+02  0.62208477095E+01  0.23195422620E+02  0.10500000000E+00 0.  1.
         13    1    6    6    0    0  0.91499290404E+01  0.12937436530E+02  0.43530600893E+01  0.16433460456E+02  0.10500000000E+00 0. -1.
</event>
<event>
11    0  0.3482687E-009  0.9118800E+02  0.7816531E-02  0.1126479E+00
         25   -1    0    0    0    0  0.00000000000E+00  0.00000000000E+00  0.99999998245E-14  0.12500000000E+03  0.12500000000E+03 0.  0.
    3000001    1    3    3    0    0  0.59338715327E+01 -0.54576443230E+02  0.62510913049E+01  0.55261877723E+02  0.10000000000E+01 0.  1.
    1000022    2    1    0    0    0  0.92631354199E+01 -0.60812751438E+02  0.47173535838E+01  0.62499998756E+02  0.10000000219E+02 0.  0.
    3000022    2    3    3    0    0  0.33292638872E+01 -0.62363082080E+01 -0.15337377211E+01  0.72381210326E+01  0.25001317731E+00 0.  0.
    1000022    2    1    0    0    0 -0.92631354199E+01  0.60812751438E+02 -0.47173535838E+01  0.62500001244E+02  0.10000015771E+02 0.  0.
    3000022    2    5    5    0    0 -0.11043252554E+02  0.56000610056E+02 -0.39440495818E+01  0.57215730171E+02  0.24999660260E+00 0.  0.
        -13    1    4    4    0    0  0.14101872657E+01 -0.27153196702E+01 -0.72098323506E+00  0.31452234993E+01  0.10500000000E+00 0. -1.
         13    1    4    4    0    0  0.19190766216E+01 -0.35209885378E+01 -0.81275448601E+00  0.40928975332E+01  0.10500000000E+00 0.  1.
    3000001    1    5    5    0    0  0.17801171344E+01  0.48121413821E+01 -0.77330400199E+00  0.52842710730E+01  0.10000000000E+01 0.  1.
        -13    1    6    6    0    0 -0.43975243910E+01  0.22286758217E+02 -0.16326096081E+01  0.22775299157E+02  0.10500000000E+00 0.  1.
         13    1    6    6    0    0 -0.66457281633E+01  0.33713851839E+02 -0.23114399737E+01  0.34440431014E+02  0.10500000000E+00 0. -1.
</event>
<event>
11    0  0.3482687E-009  0.9118800E+02  0.7816531E-02  0.1126479E+00
         25   -1    0    0    0    0  0.00000000000E+00  0.00000000000E+00  0.99999998245E-14  0.12500000000E+03  0.12500000000E+03 0.  0.
    3000001    1    3    3    0    0 -0.60760074977E+01 -0.12370965100E+02 -0.34311306680E+02  0.36989517578E+02  0.10000000000E+01 0. -1.
    1000022    2    1    0    0    0 -0.12411564194E+02 -0.27628283066E+02 -0.53748313511E+02  0.62500000864E+02  0.99999975856E+01 0.  0.
    3000022    2    3    3    0    0 -0.63355566961E+01 -0.15257317966E+02 -0.19437006832E+02  0.25510483285E+02  0.24998539131E+00 0.  0.
    1000022    2    1    0    0    0  0.12411564194E+02  0.27628283066E+02  0.53748313511E+02  0.62499999136E+02  0.99999867899E+01 0.  0.
    3000022    2    5    5    0    0  0.10325222340E+02  0.18297794631E+02  0.44254147211E+02  0.48988891465E+02  0.24987367032E+00 0.  0.
        -13    1    4    4    0    0 -0.40357203150E+01 -0.95632950324E+01 -0.12216915538E+02  0.16031459715E+02  0.10500000000E+00 0.  1.
         13    1    4    4    0    0 -0.22998363811E+01 -0.56940229339E+01 -0.72200912935E+01  0.94790235699E+01  0.10500000000E+00 0. -1.
    3000001    1    5    5    0    0  0.20863418538E+01  0.93304884351E+01  0.94941663001E+01  0.13511107671E+02  0.10000000000E+01 0. -1.
        -13    1    6    6    0    0  0.75999243275E+01  0.13498938112E+02  0.32560865204E+02  0.36058302064E+02  0.10500000000E+00 0.  1.
         13    1    6    6    0    0  0.27252980124E+01  0.47988565190E+01  0.11693282008E+02  0.12930589401E+02  0.10500000000E+00 0. -1.
</event>
<event>
11    0  0.3482687E-009  0.9118800E+02  0.7816531E-02  0.1126479E+00
         25   -1    0    0    0    0  0.00000000000E+00  0.00000000000E+00  0.99999998245E-14  0.12500000000E+03  0.12500000000E+03 0.  0.
    3000001    1    3    3    0    0 -0.10463306958E+02 -0.11602977637E+01  0.24257894341E+02  0.26462662777E+02  0.10000000000E+01 0.  1.
    1000022    2    1    0    0    0 -0.15455588282E+02  0.37210942468E+01  0.59611482691E+02  0.62499998561E+02  0.99999599981E+01 0.  0.
    3000022    2    3    3    0    0 -0.49922813237E+01  0.48813920105E+01  0.35353588350E+02  0.36037335784E+02  0.25000077807E+00 0.  0.
    1000022    2    1    0    0    0  0.15455588282E+02 -0.37210942468E+01 -0.59611482691E+02  0.62500001439E+02  0.99999779824E+01 0.  0.
    3000022    2    5    5    0    0  0.18197319509E+01 -0.46083218410E+01 -0.19127714600E+02  0.19760567311E+02  0.25000014425E+00 0.  0.
        -13    1    4    4    0    0 -0.12678929411E+01  0.12282860508E+01  0.88110915370E+01  0.89868013334E+01  0.10500000000E+00 0. -1.
         13    1    4    4    0    0 -0.37243883825E+01  0.36531059598E+01  0.26542496813E+02  0.27050534451E+02  0.10500000000E+00 0.  1.
    3000001    1    5    5    0    0  0.13635856331E+02  0.88722759416E+00 -0.40483768092E+02  0.42739434128E+02  0.10000000000E+01 0. -1.
        -13    1    6    6    0    0  0.95012624123E+00 -0.24982399033E+01 -0.10085088958E+02  0.10433790624E+02  0.10500000000E+00 0. -1.
         13    1    6    6    0    0  0.86960570970E+00 -0.21100819376E+01 -0.90426256415E+01  0.93267766868E+01  0.10500000000E+00 0.  1.
</event>
<event>
11    0  0.3482687E-009  0.9118800E+02  0.7816531E-02  0.1126479E+00
         25   -1    0    0    0    0  0.00000000000E+00  0.00000000000E+00  0.99999998245E-14  0.12500000000E+03  0.12500000000E+03 0.  0.
    3000001    1    3    3    0    0 -0.81901335977E+01  0.64316627232E+01  0.28080112663E+02  0.29965601962E+02  0.10000000000E+01 0.  1.
    1000022    2    1    0    0    0 -0.72858371051E+01  0.16583065415E+02  0.58975996404E+02  0.62499997108E+02  0.10000000292E+02 0.  0.
    3000022    2    3    3    0    0  0.90429649258E+00  0.10151402692E+02  0.30895883740E+02  0.32534395147E+02  0.25001341679E+00 0.  0.
    1000022    2    1    0    0    0  0.72858371051E+01 -0.16583065415E+02 -0.58975996404E+02  0.62500002892E+02  0.10000036441E+02 0.  0.
    3000022    2    5    5    0    0  0.27373600961E+01 -0.14316127923E+02 -0.34012458951E+02  0.37004790580E+02  0.25000593144E+00 0.  0.
        -13    1    4    4    0    0  0.29329990961E+00  0.28570766138E+01  0.86730448140E+01  0.91368289335E+01  0.10500000000E+00 0. -1.
         13    1    4    4    0    0  0.61099658297E+00  0.72943260779E+01  0.22222838926E+02  0.23397566213E+02  0.10500000000E+00 0.  1.
    3000001    1    5    5    0    0  0.45484770090E+01 -0.22669374922E+01 -0.24963537453E+02  0.25495212312E+02  0.10000000000E+01 0. -1.
        -13    1    6    6    0    0  0.77142262711E+00 -0.40249800406E+01 -0.94638757753E+01  0.10313657299E+02  0.10500000000E+00 0.  1.
         13    1    6    6    0    0  0.19659374690E+01 -0.10291147882E+02 -0.24548583175E+02  0.26691133280E+02  0.10500000000E+00 0. -1.
</event>
<event>
11    0  0.3482687E-009  0.9118800E+02  0.7816531E-02  0.1126479E+00
         25   -1    0    0    0    0  0.00000000000E+00  0.00000000000E+00  0.99999998245E-14  0.12500000000E+03  0.12500000000E+03 0.  0.
    3000001    1    3    3    0    0  0.48720523914E+01  0.10997092913E+02  0.86963921847E+01  0.14876161604E+02  0.10000000000E+01 0.  1.
    1000022    2    1    0    0    0  0.60902459545E+01  0.41431116926E+02  0.45305863984E+02  0.62499997431E+02  0.99999911003E+01 0.  0.
    3000022    2    3    3    0    0  0.12181935631E+01  0.30434024013E+02  0.36609471800E+02  0.47623835827E+02  0.25000050527E+00 0.  0.
    1000022    2    1    0    0    0 -0.60902459545E+01 -0.41431116926E+02 -0.45305863984E+02  0.62500002569E+02  0.10000023214E+02 0.  0.
    3000022    2    5    5    0    0 -0.56933586131E+01 -0.37546367513E+02 -0.35867154577E+02  0.52236570743E+02  0.24999971934E+00 0.  0.
        -13    1    4    4    0    0  0.46847948482E+00  0.10452260671E+02  0.12613056062E+02  0.16388088186E+02  0.10500000000E+00 0.  1.
         13    1    4    4    0    0  0.74971407828E+00  0.19981763342E+02  0.23996415737E+02  0.31235747641E+02  0.10500000000E+00 0. -1.
    3000001    1    5    5    0    0 -0.39688734137E+00 -0.38847494124E+01 -0.94387094076E+01  0.10263431826E+02  0.10000000000E+01 0. -1.
        -13    1    6    6    0    0 -0.21225077839E+01 -0.14149214268E+02 -0.13590332203E+02  0.19733561718E+02  0.10500000000E+00 0.  1.
         13    1    6    6    0    0 -0.35708508293E+01 -0.23397153245E+02 -0.22276822373E+02  0.32503009025E+02  0.10500000000E+00 0. -1.
</event>
<event>
11    0  0.3482687E-009  0.9118800E+02  0.7816531E-02  0.1126479E+00
         25   -1    0    0    0    0  0.00000000000E+00  0.00000000000E+00  0.99999998245E-14  0.12500000000E+03  0.12500000000E+03 0.  0.
    3000001    1    3    3    0    0  0.29741337822E+02  0.37378461154E+02  0.11128083564E+02  0.49056404041E+02  0.10000000000E+01 0.  1.
    1000022    2    1    0    0    0  0.40613959151E+02  0.45251494733E+02  0.10443114584E+02  0.62499998572E+02  0.99999862876E+01 0.  0.
    3000022    2    3    3    0    0  0.10872621330E+02  0.78730335791E+01 -0.68496898002E+00  0.13443594531E+02  0.24999816202E+00 0.  0.
    1000022    2    1    0    0    0 -0.40613959151E+02 -0.45251494733E+02 -0.10443114584E+02  0.62500001428E+02  0.10000004136E+02 0.  0.
    3000022    2    5    5    0    0 -0.38967124756E+02 -0.43680703775E+02 -0.11731142874E+02  0.59700275614E+02  0.25000235915E+00 0.  0.
        -13    1    4    4    0    0  0.52272322908E+01  0.37220127646E+01 -0.28313422364E+00  0.64240584081E+01  0.10500000000E+00 0. -1.
         13    1    4    4    0    0  0.56453890390E+01  0.41510208145E+01 -0.40183475638E+00  0.70195361225E+01  0.10500000000E+00 0.  1.
    3000001    1    5    5    0    0 -0.16468343953E+01 -0.15707909578E+01  0.12880282895E+01  0.27997258139E+01  0.10000000000E+01 0.  1.
        -13    1    6    6    0    0 -0.23136618575E+02 -0.25939540274E+02 -0.70307915486E+01  0.35462739932E+02  0.10500000000E+00 0.  1.
         13    1    6    6    0    0 -0.15830506182E+02 -0.17741163502E+02 -0.47003513251E+01  0.24237535682E+02  0.10500000000E+00 0. -1.
</event>
<event>
11    0  0.3482687E-009  0.9118800E+02  0.7816531E-02  0.1126479E+00
         25   -1    0    0    0    0  0.00000000000E+00  0.00000000000E+00  0.99999998245E-14  0.12500000000E+03  0.12500000000E+03 0.  0.
    3000001    1    3    3    0    0  0.17924210265E+02 -0.16602530560E+02 -0.85385453827E+01  0.25900349262E+02  0.10000000000E+01 0.  1.
    1000022    2    1    0    0    0  0.33744788730E+02 -0.46850123386E+02 -0.21739475386E+02  0.62500002674E+02  0.10000035826E+02 0.  0.
    3000022    2    3    3    0    0  0.15820578465E+02 -0.30247592825E+02 -0.13200930004E+02  0.36599653412E+02  0.25000450085E+00 0.  0.
    1000022    2    1    0    0    0 -0.33744788730E+02  0.46850123386E+02  0.21739475386E+02  0.62499997326E+02  0.10000002397E+02 0.  0.
    3000022    2    5    5    0    0 -0.12771883647E+02  0.10461349531E+02  0.75592240908E+01  0.18159438724E+02  0.25000006471E+00 0.  0.
        -13    1    4    4    0    0  0.95267382372E+01 -0.18334108249E+02 -0.80210277299E+01  0.22164074029E+02  0.10500000000E+00 0. -1.
         13    1    4    4    0    0  0.62938402278E+01 -0.11913484577E+02 -0.51799022737E+01  0.14435579383E+02  0.10500000000E+00 0.  1.
    3000001    1    5    5    0    0 -0.20972905084E+02  0.36388773854E+02  0.14180251295E+02  0.44340558601E+02  0.10000000000E+01 0.  1.
        -13    1    6    6    0    0 -0.39405394414E+01  0.31740461357E+01  0.22915057898E+01  0.55555777148E+01  0.10500000000E+00 0.  1.
         13    1    6    6    0    0 -0.88313442053E+01  0.72873033956E+01  0.52677183010E+01  0.12603861010E+02  0.10500000000E+00 0. -1.
</event>
<event>
11    0  0.3482687E-009  0.9118800E+02  0.7816531E-02  0.1126479E+00
         25   -1    0    0    0    0  0.00000000000E+00  0.00000000000E+00  0.99999998245E-14  0.12500000000E+03  0.12500000000E+03 0.  0.
    3000001    1    3    3    0    0 -0.18366415341E+02  0.88617531317E+01 -0.46524073674E+01  0.20940410105E+02  0.10000000000E+01 0. -1.
    1000022    2    1    0    0    0 -0.47212244872E+02  0.37881017304E+02 -0.11928218986E+02  0.62499999964E+02  0.10000002474E+02 0.  0.
    3000022    2    3    3    0    0 -0.28845829531E+02  0.29019264173E+02 -0.72758116185E+01  0.41559589860E+02  0.25000023406E+00 0.  0.
    1000022    2    1    0    0    0  0.47212244872E+02 -0.37881017304E+02  0.11928218986E+02  0.62500000036E+02  0.10000002923E+02 0.  0.
    3000022    2    5    5    0    0  0.88348974482E+01 -0.28887377825E+01  0.31560168339E+01  0.98195297266E+01  0.25000579808E+00 0.  0.
        -13    1    4    4    0    0 -0.21795946492E+02  0.21899373581E+02 -0.54814948637E+01  0.31379988171E+02  0.10500000000E+00 0. -1.
         13    1    4    4    0    0 -0.70498830398E+01  0.71198905920E+01 -0.17943167548E+01  0.10179601688E+02  0.10500000000E+00 0.  1.
    3000001    1    5    5    0    0  0.38377347424E+02 -0.34992279522E+02  0.87722021520E+01  0.52680470309E+02  0.10000000000E+01 0. -1.
        -13    1    6    6    0    0  0.54249747197E+01 -0.18283596388E+01  0.19088211885E+01  0.60355507625E+01  0.10500000000E+00 0.  1.
         13    1    6    6    0    0  0.34099227286E+01 -0.10603781437E+01  0.12471956454E+01  0.37839789641E+01  0.10500000000E+00 0. -1.
</event>
<event>
11    0  0.3482687E-009  0.9118800E+02  0.7816531E-02  0.1126479E+00
         25   -1    0    0    0    0  0.00000000000E+00  0.00000000000E+00  0.99999998245E-14  0.12500000000E+03  0.12500000000E+03 0.  0.
    3000001    1    3    3    0    0  0.35205162508E+02 -0.21834828602E+02  0.18604370831E+02  0.45423406095E+02  0.10000000000E+01 0.  1.
    1000022    2    1    0    0    0  0.50795388003E+02 -0.24462527688E+02  0.25053212987E+02  0.62499998221E+02  0.99999796706E+01 0.  0.
    3000022    2    3    3    0    0  0.15590225495E+02 -0.26276990859E+01  0.64488421554E+01  0.17076592125E+02  0.25000000658E+00 0.  0.
    1000022    2    1    0    0    0 -0.50795388003E+02  0.24462527688E+02 -0.25053212987E+02  0.62500001779E+02  0.10000001910E+02 0.  0.
    3000022    2    5    5    0    0 -0.53009240814E+01  0.73903787587E+00  0.78237475675E-01  0.53585980626E+01  0.24995798771E+00 0.  0.
        -13    1    4    4    0    0  0.11073802279E+02 -0.19007792394E+01  0.46108310271E+01  0.12145486667E+02  0.10500000000E+00 0. -1.
         13    1    4    4    0    0  0.45164232164E+01 -0.72691984654E+00  0.18380111283E+01  0.49311054583E+01  0.10500000000E+00 0.  1.
    3000001    1    5    5    0    0 -0.45494463921E+02  0.23723489812E+02 -0.25131450462E+02  0.57141403717E+02  0.10000000000E+01 0. -1.
        -13    1    6    6    0    0 -0.28644915652E+01  0.45679519539E+00  0.70355873517E-02  0.29025933710E+01  0.10500000000E+00 0. -1.
         13    1    6    6    0    0 -0.24364325162E+01  0.28224268048E+00  0.71201888324E-01  0.24560046917E+01  0.10500000000E+00 0.  1.
</event>
<event>
11    0  0.3482687E-009  0.9118800E+02  0.7816531E-02  0.1126479E+00
         25   -1    0    0    0    0  0.00000000000E+00  0.00000000000E+00  0.99999998245E-14  0.12500000000E+03  0.12500000000E+03 0.  0.
    3000001    1    3    3    0    0  0.40434333966E+01  0.24786291713E+02 -0.55523181367E+01  0.25739810551E+02  0.10000000000E+01 0.  1.
    1000022    2    1    0    0    0  0.15160335110E+02  0.55289333711E+02 -0.22792600739E+02  0.62499991675E+02  0.10000006402E+02 0.  0.
    3000022    2    3    3    0    0  0.11116901713E+02  0.30503041998E+02 -0.17240282602E+02  0.36760181124E+02  0.24999441356E+00 0.  0.
    1000022    2    1    0    0    0 -0.15160335110E+02 -0.55289333711E+02  0.22792600739E+02  0.62500008325E+02  0.10000110466E+02 0.  0.
    3000022    2    5    5    0    0 -0.87667277973E+01 -0.34133320660E+02  0.88046275433E+01  0.36325240001E+02  0.24999885284E+00 0.  0.
        -13    1    4    4    0    0  0.62114191264E+01  0.16891010922E+02 -0.96034955674E+01  0.20399169827E+02  0.10500000000E+00 0.  1.
         13    1    4    4    0    0  0.49054825869E+01  0.13612031077E+02 -0.76367870345E+01  0.16361011297E+02  0.10500000000E+00 0. -1.
    3000001    1    5    5    0    0 -0.63936073126E+01 -0.21156013051E+02  0.13987973195E+02  0.26174768324E+02  0.10000000000E+01 0.  1.
        -13    1    6    6    0    0 -0.44657490795E+01 -0.17116922012E+02  0.44108864307E+01  0.18231809512E+02  0.10500000000E+00 0.  1.
         13    1    6    6    0    0 -0.43009787178E+01 -0.17016398648E+02  0.43937411126E+01  0.18093430489E+02  0.10500000000E+00 0. -1.
</event>
<event>
11    0  0.3482687E-009  0.9118800E+02  0.7816531E-02  0.1126479E+00
         25   -1    0    0    0    0  0.00000000000E+00  0.00000000000E+00  0.99999998245E-14  0.12500000000E+03  0.12500000000E+03 0.  0.
    3000001    1    3    3    0    0 -0.29725405407E+02 -0.27837103207E+02 -0.35280296964E+02  0.53890661487E+02  0.10000000000E+01 0.  1.
    1000022    2    1    0    0    0 -0.33894288115E+02 -0.28814673151E+02 -0.42745080153E+02  0.62500000312E+02  0.10000000302E+02 0.  0.
    3000022    2    3    3    0    0 -0.41688827079E+01 -0.97756994331E+00 -0.74647831892E+01  0.86093388250E+01  0.25000182923E+00 0.  0.
    1000022    2    1    0    0    0  0.33894288115E+02  0.28814673151E+02  0.42745080153E+02  0.62499999688E+02  0.99999964057E+01 0.  0.
    3000022    2    5    5    0    0  0.29443739168E+02  0.23227255083E+02  0.39865388445E+02  0.54733452777E+02  0.25000421950E+00 0.  0.
        -13    1    4    4    0    0 -0.21509359825E+01 -0.50137206183E+00 -0.39856404805E+01  0.45578782986E+01  0.10500000000E+00 0. -1.
         13    1    4    4    0    0 -0.20179467255E+01 -0.47619788148E+00 -0.34791427087E+01  0.40514605264E+01  0.10500000000E+00 0.  1.
    3000001    1    5    5    0    0  0.44505489478E+01  0.55874180674E+01  0.28796917080E+01  0.77665469115E+01  0.10000000000E+01 0. -1.
        -13    1    6    6    0    0  0.12074722295E+02  0.95783372849E+01  0.16312472165E+02  0.22442175402E+02  0.10500000000E+00 0. -1.
         13    1    6    6    0    0  0.17369016872E+02  0.13648917798E+02  0.23552916280E+02  0.32291277375E+02  0.10500000000E+00 0.  1.
</event>
<event>
11    0  0.3482687E-009  0.9118800E+02  0.7816531E-02  0.1126479E+00
         25   -1    0    0    0    0  0.00000000000E+00  0.00000000000E+00  0.99999998245E-14  0.12500000000E+03  0.12500000000E+03 0.  0.
    3000001    1    3    3    0    0  0.64916917935E+00 -0.38444230377E+00 -0.16249876566E+01  0.20517800546E+01  0.10000000000E+01 0.  1.
    1000022    2    1    0    0    0  0.21302235132E+02  0.33449733281E+02 -0.47260766194E+02  0.62500000232E+02  0.10000006481E+02 0.  0.
    3000022    2    3    3    0    0  0.20653065952E+02  0.33834175584E+02 -0.45635778537E+02  0.60448220177E+02  0.24993842239E+00 0.  0.
    1000022    2    1    0    0    0 -0.21302235132E+02 -0.33449733281E+02  0.47260766194E+02  0.62499999768E+02  0.10000003582E+02 0.  0.
    3000022    2    5    5    0    0 -0.69913551751E+01 -0.10869320908E+02  0.87502253848E+01  0.15609296410E+02  0.25001186130E+00 0.  0.
        -13    1    4    4    0    0  0.10822724569E+02  0.17720569354E+02 -0.23802356967E+02  0.31586597910E+02  0.10500000000E+00 0. -1.
         13    1    4    4    0    0  0.98303413831E+01  0.16113606230E+02 -0.21833421570E+02  0.28861622268E+02  0.10500000000E+00 0.  1.
    3000001    1    5    5    0    0 -0.14310879957E+02 -0.22580412372E+02  0.38510540809E+02  0.46890703358E+02  0.10000000000E+01 0. -1.
        -13    1    6    6    0    0 -0.26191725084E+01 -0.40564691420E+01  0.33414612526E+01  0.58729374959E+01  0.10500000000E+00 0. -1.
         13    1    6    6    0    0 -0.43721826667E+01 -0.68128517665E+01  0.54087641322E+01  0.97363589140E+01  0.10500000000E+00 0.  1.
</event>
<event>
11    0  0.3482687E-009  0.9118800E+02  0.7816531E-02  0.1126479E+00
         25   -1    0    0    0    0  0.00000000000E+00  0.00000000000E+00  0.99999998245E-14  0.12500000000E+03  0.12500000000E+03 0.  0.
    3000001    1    3    3    0    0  0.49276134074E+02  0.43232102635E-01  0.85829297390E+01  0.50028051543E+02  0.10000000000E+01 0. -1.
    1000022    2    1    0    0    0  0.59770124802E+02 -0.74647654935E+00  0.15271695453E+02  0.62500002765E+02  0.10000030876E+02 0.  0.
    3000022    2    3    3    0    0  0.10493990728E+02 -0.78970865198E+00  0.66887657137E+01  0.12471951222E+02  0.24999870286E+00 0.  0.
    1000022    2    1    0    0    0 -0.59770124802E+02  0.74647654935E+00 -0.15271695453E+02  0.62499997235E+02  0.99999963151E+01 0.  0.
    3000022    2    5    5    0    0 -0.34872877296E+02  0.50221418972E+01 -0.72043378030E+01  0.35962542440E+02  0.24999089375E+00 0.  0.
        -13    1    4    4    0    0  0.43725186033E+01 -0.38831896283E+00  0.28209693119E+01  0.52190615451E+01  0.10500000000E+00 0.  1.
         13    1    4    4    0    0  0.61214721248E+01 -0.40138968915E+00  0.38677964018E+01  0.72528896768E+01  0.10500000000E+00 0. -1.
    3000001    1    5    5    0    0 -0.24897247506E+02 -0.42756653479E+01 -0.80673576497E+01  0.26537454795E+02  0.10000000000E+01 0. -1.
        -13    1    6    6    0    0 -0.11422226744E+02  0.16978765185E+01 -0.23617545275E+01  0.11787237078E+02  0.10500000000E+00 0. -1.
         13    1    6    6    0    0 -0.23450650551E+02  0.33242653788E+01 -0.48425832755E+01  0.24175305363E+02  0.10500000000E+00 0.  1.
</event>
<event>
11    0  0.3482687E-009  0.9118800E+02  0.7816531E-02  0.1126479E+00
         25   -1    0    0    0    0  0.00000000000E+00  0.00000000000E+00  0.99999998245E-14  0.12500000000E+03  0.12500000000E+03 0.  0.
    3000001    1    3    3    0    0  0.78590374405E+00  0.61653649365E+01 -0.33350838295E+00  0.63040143827E+01  0.10000000000E+01 0.  1.
    1000022    2    1    0    0    0  0.34310659198E+02  0.51166151203E+02 -0.33246160176E+01  0.62500003718E+02  0.10000051476E+02 0.  0.
    3000022    2    3    3    0    0  0.33524755454E+02  0.45000786267E+02 -0.29911076347E+01  0.56195989335E+02  0.24999922663E+00 0.  0.
    1000022    2    1    0    0    0 -0.34310659198E+02 -0.51166151203E+02  0.33246160176E+01  0.62499996282E+02  0.10000005000E+02 0.  0.
    3000022    2    5    5    0    0 -0.13442376167E+02 -0.13748664954E+02  0.39918572341E+01  0.19639773176E+02  0.25000235661E+00 0.  0.
        -13    1    4    4    0    0  0.24002056375E+02  0.32154408048E+02 -0.21546327779E+01  0.40182808943E+02  0.10500000000E+00 0.  1.
         13    1    4    4    0    0  0.95226990792E+01  0.12846378219E+02 -0.83647485676E+00  0.16013180393E+02  0.10500000000E+00 0. -1.
    3000001    1    5    5    0    0 -0.20868283031E+02 -0.37417486249E+02 -0.66724121646E+00  0.42860223106E+02  0.10000000000E+01 0. -1.
        -13    1    6    6    0    0 -0.48289539464E+01 -0.50189860340E+01  0.14287158835E+01  0.71106449146E+01  0.10500000000E+00 0. -1.
         13    1    6    6    0    0 -0.86134222206E+01 -0.87296789199E+01  0.25631413505E+01  0.12529128261E+02  0.10500000000E+00 0.  1.
</event>
<event>
11    0  0.3482687E-009  0.9118800E+02  0.7816531E-02  0.1126479E+00
         25   -1    0    0    0    0  0.00000000000E+00  0.00000000000E+00  0.99999998245E-14  0.12500000000E+03  0.12500000000E+03 0.  0.
    3000001    1    3    3    0    0 -0.15423350228E+02 -0.20648789351E+02 -0.33425885344E+01  0.26008174331E+02  0.10000000000E+01 0. -1.
    1000022    2    1    0    0    0 -0.40852105607E+02 -0.46165023796E+02  0.24789831864E+01  0.62499995585E+02  0.10000006792E+02 0.  0.
    3000022    2    3    3    0    0 -0.25428755379E+02 -0.25516234445E+02  0.58215717208E+01  0.36491821254E+02  0.25000148728E+00 0.  0.
    1000022    2    1    0    0    0  0.40852105607E+02  0.46165023796E+02 -0.24789831864E+01  0.62500004415E+02  0.10000061984E+02 0.  0.
    3000022    2    5    5    0    0  0.23159014210E+02  0.19958962905E+02 -0.39634699141E+01  0.30829721634E+02  0.25000572487E+00 0.  0.
        -13    1    4    4    0    0 -0.18182088956E+02 -0.18251220749E+02  0.42048266952E+01  0.26103390779E+02  0.10500000000E+00 0.  1.
         13    1    4    4    0    0 -0.72466664226E+01 -0.72650136961E+01  0.16167450256E+01  0.10388430474E+02  0.10500000000E+00 0. -1.
    3000001    1    5    5    0    0  0.17693091397E+02  0.26206060891E+02  0.14844867278E+01  0.31670282781E+02  0.10000000000E+01 0. -1.
        -13    1    6    6    0    0  0.13426091928E+02  0.11609126036E+02 -0.22425494559E+01  0.17890550714E+02  0.10500000000E+00 0.  1.
         13    1    6    6    0    0  0.97329222814E+01  0.83498368690E+01 -0.17209204582E+01  0.12939170920E+02  0.10500000000E+00 0. -1.
</event>
<event>
11    0  0.3482687E-009  0.9118800E+02  0.7816531E-02  0.1126479E+00
         25   -1    0    0    0    0  0.00000000000E+00  0.00000000000E+00  0.99999998245E-14  0.12500000000E+03  0.12500000000E+03 0.  0.
    3000001    1    3    3    0    0  0.41068062954E+01 -0.12459689927E+02 -0.10337952602E+01  0.13197668873E+02  0.10000000000E+01 0.  1.
    1000022    2    1    0    0    0  0.12809635663E+02 -0.58987320344E+02  0.12753794268E+02  0.62499998950E+02  0.99999936727E+01 0.  0.
    3000022    2    3    3    0    0  0.87028293676E+01 -0.46527630416E+02  0.13787589528E+02  0.49302330078E+02  0.24998992134E+00 0.  0.
    1000022    2    1    0    0    0 -0.12809635663E+02  0.58987320344E+02 -0.12753794268E+02  0.62500001050E+02  0.10000006792E+02 0.  0.
    3000022    2    5    5    0    0 -0.96076637132E+01  0.53810918715E+02 -0.93546546029E+01  0.55457138802E+02  0.25001261758E+00 0.  0.
        -13    1    4    4    0    0  0.66441645786E+01 -0.35498472030E+02  0.10502665347E+02  0.37611214335E+02  0.10500000000E+00 0.  1.
         13    1    4    4    0    0  0.20586647890E+01 -0.11029158386E+02  0.32849241810E+01  0.11691115742E+02  0.10500000000E+00 0. -1.
    3000001    1    5    5    0    0 -0.32019719498E+01  0.51764016282E+01 -0.33991396646E+01  0.70428622479E+01  0.10000000000E+01 0.  1.
        -13    1    6    6    0    0 -0.53421266814E+01  0.29553140925E+02 -0.51225034674E+01  0.30466006019E+02  0.10500000000E+00 0. -1.
         13    1    6    6    0    0 -0.42655370318E+01  0.24257777791E+02 -0.42321511356E+01  0.24991132782E+02  0.10500000000E+00 0.  1.
</event>
<event>
11    0  0.3482687E-009  0.9118800E+02  0.7816531E-02  0.1126479E+00
         25   -1    0    0    0    0  0.00000000000E+00  0.00000000000E+00  0.99999998245E-14  0.12500000000E+03  0.12500000000E+03 0.  0.
    3000001    1    3    3    0    0  0.20222419938E+02  0.59851047007E+00 -0.51971957664E+01  0.20912085663E+02  0.10000000000E+01 0.  1.
    1000022    2    1    0    0    0  0.59670362005E+02  0.13453406937E+02 -0.80438539914E+01  0.62499998081E+02  0.99999956512E+01 0.  0.
    3000022    2    3    3    0    0  0.39447942067E+02  0.12854896466E+02 -0.28466582250E+01  0.41587912418E+02  0.24999946828E+00 0.  0.
    1000022    2    1    0    0    0 -0.59670362005E+02 -0.13453406937E+02  0.80438539914E+01  0.62500001919E+02  0.10000019641E+02 0.  0.
    3000022    2    5    5    0    0 -0.11187416812E+01  0.11527234123E+01  0.24301757353E+00  0.16437422974E+01  0.24995396526E+00 0.  0.
        -13    1    4    4    0    0  0.98598776656E+01  0.32369572842E+01 -0.69857975169E+00  0.10401640193E+02  0.10500000000E+00 0. -1.
         13    1    4    4    0    0  0.29588064401E+02  0.96179391823E+01 -0.21480784733E+01  0.31186272225E+02  0.10500000000E+00 0.  1.
    3000001    1    5    5    0    0 -0.58551620324E+02 -0.14606130349E+02  0.78008364179E+01  0.60856259622E+02  0.10000000000E+01 0.  1.
        -13    1    6    6    0    0 -0.31135681112E+00  0.29299486059E+00  0.95874538181E-01  0.45056184840E+00  0.10500000000E+00 0.  1.
         13    1    6    6    0    0 -0.80738487007E+00  0.85972855167E+00  0.14714303535E+00  0.11931804490E+01  0.10500000000E+00 0. -1.
</event>
<event>
11    0  0.3482687E-009  0.9118800E+02  0.7816531E-02  0.1126479E+00
         25   -1    0    0    0    0  0.00000000000E+00  0.00000000000E+00  0.99999998245E-14  0.12500000000E+03  0.12500000000E+03 0.  0.
    3000001    1    3    3    0    0 -0.16833286937E+00 -0.19766056077E+02 -0.16482490774E+01  0.19860564791E+02  0.10000000000E+01 0.  1.
    1000022    2    1    0    0    0  0.13413043140E+02 -0.60180882613E+02 -0.21450879978E+01  0.62499998744E+02  0.10000004106E+02 0.  0.
    3000022    2    3    3    0    0  0.13581376009E+02 -0.40414826536E+02 -0.49683892035E+00  0.42639433953E+02  0.25000135298E+00 0.  0.
    1000022    2    1    0    0    0 -0.13413043140E+02  0.60180882613E+02  0.21450879978E+01  0.62500001256E+02  0.10000019805E+02 0.  0.
    3000022    2    5    5    0    0 -0.51161182013E+01  0.42908690527E+02  0.19826628036E+00  0.43213796401E+02  0.25000338751E+00 0.  0.
        -13    1    4    4    0    0  0.91736608140E+01 -0.27456293203E+02 -0.32875204176E+00  0.28950357374E+02  0.10500000000E+00 0.  1.
         13    1    4    4    0    0  0.44077151954E+01 -0.12958533333E+02 -0.16808687859E+00  0.13689076579E+02  0.10500000000E+00 0. -1.
    3000001    1    5    5    0    0 -0.82969249387E+01  0.17272192086E+02  0.19468217174E+01  0.19286204855E+02  0.10000000000E+01 0.  1.
        -13    1    6    6    0    0 -0.31577336321E+01  0.26829301735E+02  0.79807185832E-01  0.27014812742E+02  0.10500000000E+00 0.  1.
         13    1    6    6    0    0 -0.19583845692E+01  0.16079388792E+02  0.11845909452E+00  0.16198983659E+02  0.10500000000E+00 0. -1.
</event>
<event>
11    0  0.3482687E-009  0.9118800E+02  0.7816531E-02  0.1126479E+00
         25   -1    0    0    0    0  0.00000000000E+00  0.00000000000E+00  0.99999998245E-14  0.12500000000E+03  0.12500000000E+03 0.  0.
    3000001    1    3    3    0    0  0.31116468872E+00 -0.20222949851E+02 -0.44333057830E+01  0.20729658085E+02  0.10000000000E+01 0.  1.
    1000022    2    1    0    0    0 -0.20357660471E+01 -0.55893358330E+02 -0.26039136443E+02  0.62499988986E+02  0.10000007387E+02 0.  0.
    3000022    2    3    3    0    0 -0.23469307358E+01 -0.35670408479E+02 -0.21605830660E+02  0.41770330901E+02  0.25000032351E+00 0.  0.
    1000022    2    1    0    0    0  0.20357660471E+01  0.55893358330E+02  0.26039136443E+02  0.62500011014E+02  0.10000145063E+02 0.  0.
    3000022    2    5    5    0    0 -0.11029824941E+00  0.14770342280E+02  0.11833941271E+02  0.18928281523E+02  0.24999725137E+00 0.  0.
        -13    1    4    4    0    0 -0.14503648522E+01 -0.21139280012E+02 -0.12833548482E+02  0.24772640337E+02  0.10500000000E+00 0.  1.
         13    1    4    4    0    0 -0.89656588356E+00 -0.14531128467E+02 -0.87722821772E+01  0.16997690564E+02  0.10500000000E+00 0. -1.
    3000001    1    5    5    0    0  0.21460642965E+01  0.41123016050E+02  0.14205195172E+02  0.43571729492E+02  0.10000000000E+01 0. -1.
        -13    1    6    6    0    0 -0.58330714253E-01  0.68152345640E+01  0.55460001637E+01  0.87874892575E+01  0.10500000000E+00 0. -1.
         13    1    6    6    0    0 -0.51967535158E-01  0.79551077159E+01  0.62879411071E+01  0.10140792265E+02  0.10500000000E+00 0.  1.
</event>
<event>
11    0  0.3482687E-009  0.9118800E+02  0.7816531E-02  0.1126479E+00
         25   -1    0    0    0    0  0.00000000000E+00  0.00000000000E+00  0.99999998245E-14  0.12500000000E+03  0.12500000000E+03 0.  0.
    3000001    1    3    3    0    0  0.38651640539E+02  0.26308202753E+01 -0.18250457048E+02  0.42836313032E+02  0.10000000000E+01 0.  1.
    1000022    2    1    0    0    0  0.53075313892E+02  0.53739556581E+00 -0.31447929632E+02  0.62499999476E+02  0.99999958827E+01 0.  0.
    3000022    2    3    3    0    0  0.14423673353E+02 -0.20934247095E+01 -0.13197472584E+02  0.19663686444E+02  0.25000395771E+00 0.  0.
    1000022    2    1    0    0    0 -0.53075313892E+02 -0.53739556581E+00  0.31447929632E+02  0.62500000524E+02  0.10000002433E+02 0.  0.
    3000022    2    5    5    0    0 -0.74399213834E+01 -0.32891646039E+01  0.31710129997E+01  0.87343488824E+01  0.24998594306E+00 0.  0.
        -13    1    4    4    0    0  0.98567720076E+01 -0.14595187940E+01 -0.89666837880E+01  0.13405170371E+02  0.10500000000E+00 0. -1.
         13    1    4    4    0    0  0.45669013450E+01 -0.63390591554E+00 -0.42307887956E+01  0.62585160731E+01  0.10500000000E+00 0.  1.
    3000001    1    5    5    0    0 -0.45635392508E+02  0.27517690381E+01  0.28276916632E+02  0.53765651642E+02  0.10000000000E+01 0.  1.
        -13    1    6    6    0    0 -0.49583364397E+01 -0.21933890857E+01  0.21704841569E+01  0.58410686014E+01  0.10500000000E+00 0. -1.
         13    1    6    6    0    0 -0.24815849437E+01 -0.10957755182E+01  0.10005288428E+01  0.28932802810E+01  0.10500000000E+00 0.  1.
</event>
<event>
11    0  0.3482687E-009  0.9118800E+02  0.7816531E-02  0.1126479E+00
         25   -1    0    0    0    0  0.00000000000E+00  0.00000000000E+00  0.99999998245E-14  0.12500000000E+03  0.12500000000E+03 0.  0.
    3000001    1    3    3    0    0 -0.75317810621E+01 -0.40937841573E+02 -0.16447127152E+02  0.44767651157E+02  0.10000000000E+01 0.  1.
    1000022    2    1    0    0    0 -0.16284951373E+02 -0.55628808011E+02 -0.21130214845E+02  0.62500002724E+02  0.10000021957E+02 0.  0.
    3000022    2    3    3    0    0 -0.87531703107E+01 -0.14690966438E+02 -0.46830876925E+01  0.17732351566E+02  0.24999270141E+00 0.  0.
    1000022    2    1    0    0    0  0.16284951373E+02  0.55628808011E+02  0.21130214845E+02  0.62499997276E+02  0.99999879129E+01 0.  0.
    3000022    2    5    5    0    0  0.85184908716E+01  0.41747677023E+02  0.18016911180E+02  0.46261266848E+02  0.24999674353E+00 0.  0.
        -13    1    4    4    0    0 -0.41618585896E+01 -0.68742781205E+01 -0.21628792556E+01  0.83226100637E+01  0.10500000000E+00 0. -1.
         13    1    4    4    0    0 -0.45913117211E+01 -0.78166883178E+01 -0.25202084370E+01  0.94097415025E+01  0.10500000000E+00 0.  1.
    3000001    1    5    5    0    0  0.77664605012E+01  0.13881130988E+02  0.31133036645E+01  0.16238730428E+02  0.10000000000E+01 0.  1.
        -13    1    6    6    0    0  0.51692458849E+01  0.25336121177E+02  0.10866442618E+02  0.28048720817E+02  0.10500000000E+00 0.  1.
         13    1    6    6    0    0  0.33492449868E+01  0.16411555846E+02  0.71504685624E+01  0.18212546031E+02  0.10500000000E+00 0. -1.
</event>
<event>
11    0  0.3482687E-009  0.9118800E+02  0.7816531E-02  0.1126479E+00
         25   -1    0    0    0    0  0.00000000000E+00  0.00000000000E+00  0.99999998245E-14  0.12500000000E+03  0.12500000000E+03 0.  0.
    3000001    1    3    3    0    0  0.69740935915E+01  0.98902855620E+01 -0.66831875107E+01  0.13860762072E+02  0.10000000000E+01 0. -1.
    1000022    2    1    0    0    0  0.29152479235E+02  0.32451040685E+02 -0.43626982671E+02  0.62499994812E+02  0.99999323725E+01 0.  0.
    3000022    2    3    3    0    0  0.22178385644E+02  0.22560755123E+02 -0.36943795161E+02  0.48639232740E+02  0.24999840390E+00 0.  0.
    1000022    2    1    0    0    0 -0.29152479235E+02 -0.32451040685E+02  0.43626982671E+02  0.62500005188E+02  0.99999972211E+01 0.  0.
    3000022    2    5    5    0    0 -0.23869018936E+02 -0.29386312701E+02  0.40911050639E+02  0.55741026186E+02  0.24999343243E+00 0.  0.
        -13    1    4    4    0    0  0.84778652699E+01  0.86236439164E+01 -0.14215946770E+02  0.18664018900E+02  0.10500000000E+00 0. -1.
         13    1    4    4    0    0  0.13700520374E+02  0.13937111206E+02 -0.22727848391E+02  0.29975213840E+02  0.10500000000E+00 0.  1.
    3000001    1    5    5    0    0 -0.52834602994E+01 -0.30647279833E+01  0.27159320320E+01  0.67589790020E+01  0.10000000000E+01 0.  1.
        -13    1    6    6    0    0 -0.78550278576E+01 -0.96051732526E+01  0.13361279787E+02  0.18234462931E+02  0.10500000000E+00 0.  1.
         13    1    6    6    0    0 -0.16013991078E+02 -0.19781139449E+02  0.27549770852E+02  0.37506563254E+02  0.10500000000E+00 0. -1.
</event>
<event>
11    0  0.3482687E-009  0.9118800E+02  0.7816531E-02  0.1126479E+00
         25   -1    0    0    0    0  0.00000000000E+00  0.00000000000E+00  0.99999998245E-14  0.12500000000E+03  0.12500000000E+03 0.  0.
    3000001    1    3    3    0    0  0.19061803654E+01  0.33594552246E+02 -0.98761151571E+01  0.35082262111E+02  0.10000000000E+01 0.  1.
    1000022    2    1    0    0    0  0.10698345062E+02  0.56868911708E+02 -0.21394448643E+02  0.62500002292E+02  0.10000007397E+02 0.  0.
    3000022    2    3    3    0    0  0.87921646962E+01  0.23274359462E+02 -0.11518333485E+02  0.27417740182E+02  0.25000398949E+00 0.  0.
    1000022    2    1    0    0    0 -0.10698345062E+02 -0.56868911708E+02  0.21394448643E+02  0.62499997708E+02  0.99999787432E+01 0.  0.
    3000022    2    5    5    0    0 -0.10362439151E+01 -0.31973729763E+02  0.11096131909E+02  0.33861184706E+02  0.24997982152E+00 0.  0.
        -13    1    4    4    0    0  0.60544633693E+01  0.16096099807E+02 -0.79156405982E+01  0.18931702163E+02  0.10500000000E+00 0.  1.
         13    1    4    4    0    0  0.27377013269E+01  0.71782596545E+01 -0.36026928872E+01  0.84860380191E+01  0.10500000000E+00 0. -1.
    3000001    1    5    5    0    0 -0.96621011465E+01 -0.24895181944E+02  0.10298316734E+02  0.28638813002E+02  0.10000000000E+01 0.  1.
        -13    1    6    6    0    0 -0.31066833047E+00 -0.88554797196E+01  0.31058931712E+01  0.93900816432E+01  0.10500000000E+00 0.  1.
         13    1    6    6    0    0 -0.72557558464E+00 -0.23118250044E+02  0.79902387375E+01  0.24471103062E+02  0.10500000000E+00 0. -1.
</event>
