<event>
 4    1  0.4862039E-002  0.4015151E+03  0.7818608E-02  0.1043256E+00
         21   -1    0    0  501  502  0.00000000000E+00  0.00000000000E+00  0.61090217815E+03  0.61090217815E+03  0.00000000000E+00 0. -1.
         21   -1    0    0  502  503 -0.00000000000E+00 -0.00000000000E+00 -0.29693454152E+03  0.29693454152E+03  0.00000000000E+00 0. -1.
    9000007    1    1    2  501    0 -0.22828387147E+02  0.26329673082E+02  0.30839590963E+03  0.50628294858E+03  0.40000000000E+03 0. -1.
   -9000007    1    1    2    0  503  0.22828387147E+02 -0.26329673082E+02  0.55717270030E+01  0.40155377110E+03  0.40000000000E+03 0. -1.
<mgrwt>
<rscale>  2 0.40151511E+03</rscale>
<asrwt>0</asrwt>
<pdfrwt beam="1">  1       21 0.93984950E-01 0.40151511E+03</pdfrwt>
<pdfrwt beam="2">  1       21 0.45682237E-01 0.40151511E+03</pdfrwt>
<totfact> 0.38827888E+03</totfact>
</mgrwt>
</event>
<event>
 4    1  0.4862039E-002  0.4622641E+03  0.7818608E-02  0.1024127E+00
         21   -1    0    0  501  502  0.00000000000E+00  0.00000000000E+00  0.20690196539E+04  0.20690196539E+04  0.00000000000E+00 0.  1.
         21   -1    0    0  502  503 -0.00000000000E+00 -0.00000000000E+00 -0.11090946971E+03  0.11090946971E+03  0.00000000000E+00 0.  1.
    9000007    1    1    2  501    0  0.21673597189E+03 -0.81936670388E+02  0.69317844193E+03  0.83317732316E+03  0.40000000000E+03 0.  1.
   -9000007    1    1    2    0  503 -0.21673597189E+03  0.81936670388E+02  0.12649317422E+04  0.13467518004E+04  0.40000000000E+03 0.  1.
<mgrwt>
<rscale>  2 0.46226410E+03</rscale>
<asrwt>0</asrwt>
<pdfrwt beam="1">  1       21 0.31831069E+00 0.46226410E+03</pdfrwt>
<pdfrwt beam="2">  1       21 0.17062997E-01 0.46226410E+03</pdfrwt>
<totfact> 0.65615013E+02</totfact>
</mgrwt>
</event>
<event>
 4    1  0.4862039E-002  0.4670266E+03  0.7818608E-02  0.1022763E+00
         21   -1    0    0  501  502  0.00000000000E+00  0.00000000000E+00  0.10772760946E+03  0.10772760946E+03  0.00000000000E+00 0.  1.
         21   -1    0    0  502  503 -0.00000000000E+00 -0.00000000000E+00 -0.20831402124E+04  0.20831402124E+04  0.00000000000E+00 0.  1.
    9000007    1    1    2  501    0 -0.15353075424E+03  0.18585510926E+03 -0.11712169782E+04  0.12608977056E+04  0.40000000000E+03 0.  1.
   -9000007    1    1    2    0  503  0.15353075424E+03 -0.18585510926E+03 -0.80419562473E+03  0.92997011617E+03  0.40000000000E+03 0.  1.
<mgrwt>
<rscale>  2 0.46702657E+03</rscale>
<asrwt>0</asrwt>
<pdfrwt beam="1">  1       21 0.16573480E-01 0.46702657E+03</pdfrwt>
<pdfrwt beam="2">  1       21 0.32048308E+00 0.46702657E+03</pdfrwt>
<totfact> 0.67052587E+02</totfact>
</mgrwt>
</event>
<event>
 4    1  0.4862039E-002  0.6467727E+03  0.7818608E-02  0.9812854E-01
         21   -1    0    0  503  502  0.00000000000E+00  0.00000000000E+00  0.25466192558E+03  0.25466192558E+03  0.00000000000E+00 0.  1.
         21   -1    0    0  501  503 -0.00000000000E+00 -0.00000000000E+00 -0.16427675531E+04  0.16427675531E+04  0.00000000000E+00 0.  1.
    9000007    1    1    2  501    0 -0.33020704025E+03 -0.38636545418E+03 -0.68532641804E+03  0.94233075556E+03  0.40000000000E+03 0.  1.
   -9000007    1    1    2    0  502  0.33020704025E+03  0.38636545418E+03 -0.70277920946E+03  0.95509872310E+03  0.40000000000E+03 0.  1.
<mgrwt>
<rscale>  2 0.64677272E+03</rscale>
<asrwt>0</asrwt>
<pdfrwt beam="1">  1       21 0.39178757E-01 0.64677272E+03</pdfrwt>
<pdfrwt beam="2">  1       21 0.25273347E+00 0.64677272E+03</pdfrwt>
<totfact> 0.29577995E+02</totfact>
</mgrwt>
</event>
<event>
 4    1  0.4862039E-002  0.4607427E+03  0.7818608E-02  0.1024566E+00
         21   -1    0    0  501  502  0.00000000000E+00  0.00000000000E+00  0.40319064533E+03  0.40319064533E+03  0.00000000000E+00 0.  1.
         21   -1    0    0  502  503 -0.00000000000E+00 -0.00000000000E+00 -0.55012201109E+03  0.55012201109E+03  0.00000000000E+00 0.  1.
    9000007    1    1    2  501    0 -0.89582723131E+02 -0.21037765450E+03 -0.17221731392E+03  0.49187663597E+03  0.40000000000E+03 0.  1.
   -9000007    1    1    2    0  503  0.89582723131E+02  0.21037765450E+03  0.25285948159E+02  0.46143602045E+03  0.40000000000E+03 0.  1.
<mgrwt>
<rscale>  2 0.46074269E+03</rscale>
<asrwt>0</asrwt>
<pdfrwt beam="1">  1       21 0.62029330E-01 0.46074269E+03</pdfrwt>
<pdfrwt beam="2">  1       21 0.84634156E-01 0.46074269E+03</pdfrwt>
<totfact> 0.25226281E+03</totfact>
</mgrwt>
</event>
<event>
 4    1  0.4862039E-002  0.4456193E+03  0.7818608E-02  0.1029037E+00
         21   -1    0    0  501  502  0.00000000000E+00  0.00000000000E+00  0.11595288031E+03  0.11595288031E+03  0.00000000000E+00 0.  1.
         21   -1    0    0  502  503 -0.00000000000E+00 -0.00000000000E+00 -0.19946186473E+04  0.19946186473E+04  0.00000000000E+00 0. -1.
    9000007    1    1    2  501    0 -0.13509588812E+03 -0.14256807830E+03 -0.54249975788E+03  0.70205594024E+03  0.40000000000E+03 0.  1.
   -9000007    1    1    2    0  503  0.13509588812E+03  0.14256807830E+03 -0.13361660091E+04  0.14085155873E+04  0.40000000000E+03 0. -1.
<mgrwt>
<rscale>  2 0.44561929E+03</rscale>
<asrwt>0</asrwt>
<pdfrwt beam="1">  1       21 0.17838905E-01 0.44561929E+03</pdfrwt>
<pdfrwt beam="2">  1       21 0.30686441E+00 0.44561929E+03</pdfrwt>
<totfact> 0.71407698E+02</totfact>
</mgrwt>
</event>
<event>
 4    1  0.4862039E-002  0.4411446E+03  0.7818608E-02  0.1030396E+00
         21   -1    0    0  503  502  0.00000000000E+00  0.00000000000E+00  0.32104272430E+03  0.32104272430E+03  0.00000000000E+00 0.  1.
         21   -1    0    0  501  503 -0.00000000000E+00 -0.00000000000E+00 -0.63364190240E+03  0.63364190240E+03  0.00000000000E+00 0.  1.
    9000007    1    1    2  501    0  0.18245921210E+03  0.36293473447E+02 -0.25567989933E+03  0.50988311525E+03  0.40000000000E+03 0.  1.
   -9000007    1    1    2    0  502 -0.18245921210E+03 -0.36293473447E+02 -0.56919278772E+02  0.44480151145E+03  0.40000000000E+03 0.  1.
<mgrwt>
<rscale>  2 0.44114463E+03</rscale>
<asrwt>0</asrwt>
<pdfrwt beam="1">  1       21 0.49391189E-01 0.44114463E+03</pdfrwt>
<pdfrwt beam="2">  1       21 0.97483368E-01 0.44114463E+03</pdfrwt>
<totfact> 0.29727998E+03</totfact>
</mgrwt>
</event>
<event>
 4    1  0.4862039E-002  0.4395655E+03  0.7818608E-02  0.1030880E+00
         21   -1    0    0  501  502  0.00000000000E+00  0.00000000000E+00  0.20323714877E+03  0.20323714877E+03  0.00000000000E+00 0. -1.
         21   -1    0    0  502  503 -0.00000000000E+00 -0.00000000000E+00 -0.96614170880E+03  0.96614170880E+03  0.00000000000E+00 0.  1.
    9000007    1    1    2  501    0 -0.18225762580E+03  0.11945856787E+00 -0.45536714859E+03  0.63291160239E+03  0.40000000000E+03 0.  1.
   -9000007    1    1    2    0  503  0.18225762580E+03 -0.11945856787E+00 -0.30753741145E+03  0.53646725517E+03  0.40000000000E+03 0. -1.
<mgrwt>
<rscale>  2 0.43956553E+03</rscale>
<asrwt>0</asrwt>
<pdfrwt beam="1">  1       21 0.31267255E-01 0.43956553E+03</pdfrwt>
<pdfrwt beam="2">  1       21 0.14863718E+00 0.43956553E+03</pdfrwt>
<totfact> 0.26003241E+03</totfact>
</mgrwt>
</event>
<event>
 4    1  0.4862039E-002  0.4430728E+03  0.7818608E-02  0.1029808E+00
         21   -1    0    0  501  502  0.00000000000E+00  0.00000000000E+00  0.27290326568E+03  0.27290326568E+03  0.00000000000E+00 0.  1.
         21   -1    0    0  502  503 -0.00000000000E+00 -0.00000000000E+00 -0.71959558792E+03  0.71959558792E+03  0.00000000000E+00 0.  1.
    9000007    1    1    2  501    0  0.20437383997E+02  0.18946198086E+03 -0.23247513451E+03  0.50035808879E+03  0.40000000000E+03 0.  1.
   -9000007    1    1    2    0  503 -0.20437383997E+02 -0.18946198086E+03 -0.21421718773E+03  0.49214076480E+03  0.40000000000E+03 0.  1.
<mgrwt>
<rscale>  2 0.44307283E+03</rscale>
<asrwt>0</asrwt>
<pdfrwt beam="1">  1       21 0.41985118E-01 0.44307283E+03</pdfrwt>
<pdfrwt beam="2">  1       21 0.11070701E+00 0.44307283E+03</pdfrwt>
<totfact> 0.30579111E+03</totfact>
</mgrwt>
</event>
<event>
 4    1  0.4862039E-002  0.4770985E+03  0.7818608E-02  0.1019936E+00
         21   -1    0    0  501  502  0.00000000000E+00  0.00000000000E+00  0.49612950942E+03  0.49612950942E+03  0.00000000000E+00 0. -1.
         21   -1    0    0  502  503 -0.00000000000E+00 -0.00000000000E+00 -0.47152568116E+03  0.47152568116E+03  0.00000000000E+00 0. -1.
    9000007    1    1    2  501    0 -0.24122119493E+03 -0.97135506810E+02 -0.67189710850E+02  0.48180642255E+03  0.40000000000E+03 0. -1.
   -9000007    1    1    2    0  503  0.24122119493E+03  0.97135506810E+02  0.91793539108E+02  0.48584876802E+03  0.40000000000E+03 0. -1.
<mgrwt>
<rscale>  2 0.47709849E+03</rscale>
<asrwt>0</asrwt>
<pdfrwt beam="1">  1       21 0.76327617E-01 0.47709849E+03</pdfrwt>
<pdfrwt beam="2">  1       21 0.72542413E-01 0.47709849E+03</pdfrwt>
<totfact> 0.22444074E+03</totfact>
</mgrwt>
</event>
<event>
 4    1  0.4862039E-002  0.4706819E+03  0.7818608E-02  0.1021728E+00
         21   -1    0    0  503  502  0.00000000000E+00  0.00000000000E+00  0.15276108551E+04  0.15276108551E+04  0.00000000000E+00 0.  1.
         21   -1    0    0  501  503 -0.00000000000E+00 -0.00000000000E+00 -0.15134436323E+03  0.15134436323E+03  0.00000000000E+00 0.  1.
    9000007    1    1    2  501    0  0.24787715789E+03  0.99173658351E+01  0.51659144893E+03  0.69886204980E+03  0.40000000000E+03 0.  1.
   -9000007    1    1    2    0  502 -0.24787715789E+03 -0.99173658351E+01  0.85967504292E+03  0.98009316851E+03  0.40000000000E+03 0.  1.
<mgrwt>
<rscale>  2 0.47068189E+03</rscale>
<asrwt>0</asrwt>
<pdfrwt beam="1">  1       21 0.23501704E+00 0.47068189E+03</pdfrwt>
<pdfrwt beam="2">  1       21 0.23283749E-01 0.47068189E+03</pdfrwt>
<totfact> 0.11600646E+03</totfact>
</mgrwt>
</event>
<event>
 4    1  0.4862039E-002  0.4228201E+03  0.7818608E-02  0.1036152E+00
         21   -1    0    0  503  502  0.00000000000E+00  0.00000000000E+00  0.35277592740E+03  0.35277592740E+03  0.00000000000E+00 0. -1.
         21   -1    0    0  501  503 -0.00000000000E+00 -0.00000000000E+00 -0.77945921012E+03  0.77945921012E+03  0.00000000000E+00 0. -1.
    9000007    1    1    2  501    0 -0.10349465277E+03  0.89809397779E+02 -0.54818564540E+03  0.69230367102E+03  0.40000000000E+03 0. -1.
   -9000007    1    1    2    0  502  0.10349465277E+03 -0.89809397779E+02  0.12150236268E+03  0.43993146650E+03  0.40000000000E+03 0. -1.
<mgrwt>
<rscale>  2 0.42282014E+03</rscale>
<asrwt>0</asrwt>
<pdfrwt beam="1">  1       21 0.54273220E-01 0.42282014E+03</pdfrwt>
<pdfrwt beam="2">  1       21 0.11991680E+00 0.42282014E+03</pdfrwt>
<totfact> 0.14675588E+03</totfact>
</mgrwt>
</event>
<event>
 4    1  0.4862039E-002  0.6626120E+03  0.7818608E-02  0.9783397E-01
         21   -1    0    0  501  502  0.00000000000E+00  0.00000000000E+00  0.78150077399E+03  0.78150077399E+03  0.00000000000E+00 0.  1.
         21   -1    0    0  502  503 -0.00000000000E+00 -0.00000000000E+00 -0.12264617892E+04  0.12264617892E+04  0.00000000000E+00 0.  1.
    9000007    1    1    2  501    0  0.21987839791E+03 -0.48032087543E+03  0.51660692532E+03  0.84020079060E+03  0.40000000000E+03 0.  1.
   -9000007    1    1    2    0  503 -0.21987839791E+03  0.48032087543E+03 -0.96156794053E+03  0.11677617726E+04  0.40000000000E+03 0.  1.
<mgrwt>
<rscale>  2 0.66261199E+03</rscale>
<asrwt>0</asrwt>
<pdfrwt beam="1">  1       21 0.12023089E+00 0.66261199E+03</pdfrwt>
<pdfrwt beam="2">  1       21 0.18868643E+00 0.66261199E+03</pdfrwt>
<totfact> 0.59640896E+01</totfact>
</mgrwt>
</event>
<event>
 4    1  0.4862039E-002  0.5405507E+03  0.7818608E-02  0.1003705E+00
         21   -1    0    0  503  502  0.00000000000E+00  0.00000000000E+00  0.30139143195E+03  0.30139143195E+03  0.00000000000E+00 0. -1.
         21   -1    0    0  501  503 -0.00000000000E+00 -0.00000000000E+00 -0.20009776513E+04  0.20009776513E+04  0.00000000000E+00 0. -1.
    9000007    1    1    2  501    0  0.15993723542E+03 -0.32651973676E+03 -0.16763190539E+04  0.17613178669E+04  0.40000000000E+03 0. -1.
   -9000007    1    1    2    0  502 -0.15993723542E+03  0.32651973676E+03 -0.23267165492E+02  0.54105121639E+03  0.40000000000E+03 0. -1.
<mgrwt>
<rscale>  2 0.54055070E+03</rscale>
<asrwt>0</asrwt>
<pdfrwt beam="1">  1       21 0.46367912E-01 0.54055070E+03</pdfrwt>
<pdfrwt beam="2">  1       21 0.30784272E+00 0.54055070E+03</pdfrwt>
<totfact> 0.10032563E+02</totfact>
</mgrwt>
</event>
<event>
 4    1  0.4862039E-002  0.6320003E+03  0.7818608E-02  0.9841153E-01
         21   -1    0    0  501  502  0.00000000000E+00  0.00000000000E+00  0.21300380230E+03  0.21300380230E+03  0.00000000000E+00 0. -1.
         21   -1    0    0  502  503 -0.00000000000E+00 -0.00000000000E+00 -0.22233213349E+04  0.22233213349E+04  0.00000000000E+00 0. -1.
    9000007    1    1    2  501    0  0.17883555719E+03  0.45545824058E+03 -0.14871848289E+04  0.16159031780E+04  0.40000000000E+03 0. -1.
   -9000007    1    1    2    0  503 -0.17883555719E+03 -0.45545824058E+03 -0.52313270373E+03  0.82042195920E+03  0.40000000000E+03 0. -1.
<mgrwt>
<rscale>  2 0.63200029E+03</rscale>
<asrwt>0</asrwt>
<pdfrwt beam="1">  1       21 0.32769817E-01 0.63200029E+03</pdfrwt>
<pdfrwt beam="2">  1       21 0.34204942E+00 0.63200029E+03</pdfrwt>
<totfact> 0.12130791E+02</totfact>
</mgrwt>
</event>
<event>
 4    1  0.4862039E-002  0.6147187E+03  0.7818608E-02  0.9875331E-01
         21   -1    0    0  501  502  0.00000000000E+00  0.00000000000E+00  0.11796558167E+04  0.11796558167E+04  0.00000000000E+00 0. -1.
         21   -1    0    0  502  503 -0.00000000000E+00 -0.00000000000E+00 -0.34618173671E+03  0.34618173671E+03  0.00000000000E+00 0. -1.
    9000007    1    1    2  501    0  0.32766502054E+03  0.33243752116E+03  0.62522051394E+03  0.87680086805E+03  0.40000000000E+03 0. -1.
   -9000007    1    1    2    0  503 -0.32766502054E+03 -0.33243752116E+03  0.20825356604E+03  0.64903668535E+03  0.40000000000E+03 0. -1.
<mgrwt>
<rscale>  2 0.61471869E+03</rscale>
<asrwt>0</asrwt>
<pdfrwt beam="1">  1       21 0.18148551E+00 0.61471869E+03</pdfrwt>
<pdfrwt beam="2">  1       21 0.53258729E-01 0.61471869E+03</pdfrwt>
<totfact> 0.45909043E+02</totfact>
</mgrwt>
</event>
<event>
 4    1  0.4862039E-002  0.4404946E+03  0.7818608E-02  0.1030595E+00
         21   -1    0    0  503  502  0.00000000000E+00  0.00000000000E+00  0.13566692741E+03  0.13566692741E+03  0.00000000000E+00 0.  1.
         21   -1    0    0  501  503 -0.00000000000E+00 -0.00000000000E+00 -0.15990048535E+04  0.15990048535E+04  0.00000000000E+00 0.  1.
    9000007    1    1    2  501    0 -0.60204956887E+02  0.17438704870E+03 -0.44988849180E+03  0.62963095115E+03  0.40000000000E+03 0.  1.
   -9000007    1    1    2    0  502  0.60204956887E+02 -0.17438704870E+03 -0.10134494343E+04  0.11050408297E+04  0.40000000000E+03 0.  1.
<mgrwt>
<rscale>  2 0.44049459E+03</rscale>
<asrwt>0</asrwt>
<pdfrwt beam="1">  1       21 0.20871837E-01 0.44049459E+03</pdfrwt>
<pdfrwt beam="2">  1       21 0.24600073E+00 0.44049459E+03</pdfrwt>
<totfact> 0.12411842E+03</totfact>
</mgrwt>
</event>
<event>
 4    1  0.4862039E-002  0.5975589E+03  0.7818608E-02  0.9910483E-01
         21   -1    0    0  501  502  0.00000000000E+00  0.00000000000E+00  0.80757349260E+03  0.80757349260E+03  0.00000000000E+00 0. -1.
         21   -1    0    0  502  503 -0.00000000000E+00 -0.00000000000E+00 -0.81575786618E+03  0.81575786618E+03  0.00000000000E+00 0. -1.
    9000007    1    1    2  501    0 -0.38178491368E+03 -0.22653242997E+03  0.54519411036E+03  0.80889633459E+03  0.40000000000E+03 0. -1.
   -9000007    1    1    2    0  503  0.38178491368E+03  0.22653242997E+03 -0.55337848394E+03  0.81443502419E+03  0.40000000000E+03 0. -1.
<mgrwt>
<rscale>  2 0.59755892E+03</rscale>
<asrwt>0</asrwt>
<pdfrwt beam="1">  1       21 0.12424208E+00 0.59755892E+03</pdfrwt>
<pdfrwt beam="2">  1       21 0.12550121E+00 0.59755892E+03</pdfrwt>
<totfact> 0.17493366E+02</totfact>
</mgrwt>
</event>
<event>
 4    1  0.4862039E-002  0.6082958E+03  0.7818608E-02  0.9888343E-01
         21   -1    0    0  501  502  0.00000000000E+00  0.00000000000E+00  0.43208422345E+03  0.43208422345E+03  0.00000000000E+00 0. -1.
         21   -1    0    0  502  503 -0.00000000000E+00 -0.00000000000E+00 -0.89450099327E+03  0.89450099327E+03  0.00000000000E+00 0.  1.
    9000007    1    1    2  501    0 -0.88422021501E+02  0.44967247952E+03 -0.94260259250E+02  0.61555567514E+03  0.40000000000E+03 0. -1.
   -9000007    1    1    2    0  503  0.88422021501E+02 -0.44967247952E+03 -0.36815651058E+03  0.71102954158E+03  0.40000000000E+03 0.  1.
<mgrwt>
<rscale>  2 0.60829581E+03</rscale>
<asrwt>0</asrwt>
<pdfrwt beam="1">  1       21 0.66474496E-01 0.60829581E+03</pdfrwt>
<pdfrwt beam="2">  1       21 0.13761554E+00 0.60829581E+03</pdfrwt>
<totfact> 0.61364349E+02</totfact>
</mgrwt>
</event>
<event>
 4    1  0.4862039E-002  0.4685349E+03  0.7818608E-02  0.1022335E+00
         21   -1    0    0  501  502  0.00000000000E+00  0.00000000000E+00  0.47140733527E+03  0.47140733527E+03  0.00000000000E+00 0. -1.
         21   -1    0    0  502  503 -0.00000000000E+00 -0.00000000000E+00 -0.83964391469E+03  0.83964391469E+03  0.00000000000E+00 0. -1.
    9000007    1    1    2  501    0 -0.11035176070E+03 -0.21759466005E+03  0.25336047290E+03  0.53265042608E+03  0.40000000000E+03 0. -1.
   -9000007    1    1    2    0  503  0.11035176070E+03  0.21759466005E+03 -0.62159705232E+03  0.77840082389E+03  0.40000000000E+03 0. -1.
<mgrwt>
<rscale>  2 0.46853489E+03</rscale>
<asrwt>0</asrwt>
<pdfrwt beam="1">  1       21 0.72524207E-01 0.46853489E+03</pdfrwt>
<pdfrwt beam="2">  1       21 0.12917598E+00 0.46853489E+03</pdfrwt>
<totfact> 0.62679640E+02</totfact>
</mgrwt>
</event>
<event>
 4    1  0.4862039E-002  0.8167793E+03  0.7818608E-02  0.9536042E-01
         21   -1    0    0  503  502  0.00000000000E+00  0.00000000000E+00  0.79262930672E+03  0.79262930672E+03  0.00000000000E+00 0.  1.
         21   -1    0    0  501  503 -0.00000000000E+00 -0.00000000000E+00 -0.91117855218E+03  0.91117855218E+03  0.00000000000E+00 0. -1.
    9000007    1    1    2  501    0  0.61304992846E+03  0.36235088251E+03 -0.29457547182E+03  0.86827592701E+03  0.40000000000E+03 0. -1.
   -9000007    1    1    2    0  502 -0.61304992846E+03 -0.36235088251E+03  0.17602622636E+03  0.83553193188E+03  0.40000000000E+03 0.  1.
<mgrwt>
<rscale>  2 0.81677927E+03</rscale>
<asrwt>0</asrwt>
<pdfrwt beam="1">  1       21 0.12194297E+00 0.81677927E+03</pdfrwt>
<pdfrwt beam="2">  1       21 0.14018132E+00 0.81677927E+03</pdfrwt>
<totfact> 0.12766349E+02</totfact>
</mgrwt>
</event>
<event>
 4    1  0.4862039E-002  0.4779970E+03  0.7818608E-02  0.1019687E+00
         21   -1    0    0  503  502  0.00000000000E+00  0.00000000000E+00  0.50923322101E+03  0.50923322101E+03  0.00000000000E+00 0. -1.
         21   -1    0    0  501  503 -0.00000000000E+00 -0.00000000000E+00 -0.45542003852E+03  0.45542003852E+03  0.00000000000E+00 0.  1.
    9000007    1    1    2  501    0 -0.13126677615E+03  0.22638509454E+03 -0.31783739451E+02  0.47905258964E+03  0.40000000000E+03 0.  1.
   -9000007    1    1    2    0  502  0.13126677615E+03 -0.22638509454E+03  0.85596921947E+02  0.48560066989E+03  0.40000000000E+03 0.  1.
<mgrwt>
<rscale>  2 0.47799705E+03</rscale>
<asrwt>0</asrwt>
<pdfrwt beam="1">  1       21 0.78343573E-01 0.47799705E+03</pdfrwt>
<pdfrwt beam="2">  1       21 0.70064621E-01 0.47799705E+03</pdfrwt>
<totfact> 0.22861257E+03</totfact>
</mgrwt>
</event>
<event>
 4    1  0.4862039E-002  0.4605992E+03  0.7818608E-02  0.1024608E+00
         21   -1    0    0  503  502  0.00000000000E+00  0.00000000000E+00  0.21587926357E+03  0.21587926357E+03  0.00000000000E+00 0.  1.
         21   -1    0    0  501  503 -0.00000000000E+00 -0.00000000000E+00 -0.12369486111E+04  0.12369486111E+04  0.00000000000E+00 0.  1.
    9000007    1    1    2  501    0  0.19474082649E+03 -0.11927976394E+03 -0.83984818205E+03  0.95786043894E+03  0.40000000000E+03 0.  1.
   -9000007    1    1    2    0  502 -0.19474082649E+03  0.11927976394E+03 -0.18122116544E+03  0.49496743569E+03  0.40000000000E+03 0.  1.
<mgrwt>
<rscale>  2 0.46059923E+03</rscale>
<asrwt>0</asrwt>
<pdfrwt beam="1">  1       21 0.33212194E-01 0.46059923E+03</pdfrwt>
<pdfrwt beam="2">  1       21 0.19029979E+00 0.46059923E+03</pdfrwt>
<totfact> 0.11315768E+03</totfact>
</mgrwt>
</event>
<event>
 4    1  0.4862039E-002  0.4439488E+03  0.7818608E-02  0.1029542E+00
         21   -1    0    0  503  502  0.00000000000E+00  0.00000000000E+00  0.19017665747E+03  0.19017665747E+03  0.00000000000E+00 0. -1.
         21   -1    0    0  501  503 -0.00000000000E+00 -0.00000000000E+00 -0.12475192711E+04  0.12475192711E+04  0.00000000000E+00 0. -1.
    9000007    1    1    2  501    0  0.84205474857E+02  0.17320498259E+03 -0.82442055176E+03  0.93635451308E+03  0.40000000000E+03 0. -1.
   -9000007    1    1    2    0  502 -0.84205474857E+02 -0.17320498259E+03 -0.23292206188E+03  0.50134141551E+03  0.40000000000E+03 0. -1.
<mgrwt>
<rscale>  2 0.44394879E+03</rscale>
<asrwt>0</asrwt>
<pdfrwt beam="1">  1       21 0.29257949E-01 0.44394879E+03</pdfrwt>
<pdfrwt beam="2">  1       21 0.19192603E+00 0.44394879E+03</pdfrwt>
<totfact> 0.14311268E+03</totfact>
</mgrwt>
</event>
<event>
 4    1  0.4862039E-002  0.4048567E+03  0.7818608E-02  0.1042111E+00
         21   -1    0    0  503  502  0.00000000000E+00  0.00000000000E+00  0.23789547214E+03  0.23789547214E+03  0.00000000000E+00 0. -1.
         21   -1    0    0  501  503 -0.00000000000E+00 -0.00000000000E+00 -0.72476582367E+03  0.72476582367E+03  0.00000000000E+00 0. -1.
    9000007    1    1    2  501    0 -0.50416559139E+01 -0.62317837355E+02 -0.35036664945E+03  0.53541172960E+03  0.40000000000E+03 0. -1.
   -9000007    1    1    2    0  502  0.50416559139E+01  0.62317837355E+02 -0.13650370208E+03  0.42724956621E+03  0.40000000000E+03 0. -1.
<mgrwt>
<rscale>  2 0.40485668E+03</rscale>
<asrwt>0</asrwt>
<pdfrwt beam="1">  1       21 0.36599304E-01 0.40485668E+03</pdfrwt>
<pdfrwt beam="2">  1       21 0.11150243E+00 0.40485668E+03</pdfrwt>
<totfact> 0.40389427E+03</totfact>
</mgrwt>
</event>
<event>
 4    1  0.4862039E-002  0.4178133E+03  0.7818608E-02  0.1037780E+00
         21   -1    0    0  503  502  0.00000000000E+00  0.00000000000E+00  0.56733035272E+03  0.56733035272E+03  0.00000000000E+00 0. -1.
         21   -1    0    0  501  503 -0.00000000000E+00 -0.00000000000E+00 -0.41686886145E+03  0.41686886145E+03  0.00000000000E+00 0. -1.
    9000007    1    1    2  501    0 -0.93719713299E+02 -0.76056586926E+02 -0.17659558627E+03  0.45360113554E+03  0.40000000000E+03 0. -1.
   -9000007    1    1    2    0  502  0.93719713299E+02  0.76056586926E+02  0.32705707754E+03  0.53059807863E+03  0.40000000000E+03 0. -1.
<mgrwt>
<rscale>  2 0.41781334E+03</rscale>
<asrwt>0</asrwt>
<pdfrwt beam="1">  1       21 0.87281593E-01 0.41781334E+03</pdfrwt>
<pdfrwt beam="2">  1       21 0.64133671E-01 0.41781334E+03</pdfrwt>
<totfact> 0.22155892E+03</totfact>
</mgrwt>
</event>
<event>
 4    1  0.4862039E-002  0.6616904E+03  0.7818608E-02  0.9785087E-01
         21   -1    0    0  503  502  0.00000000000E+00  0.00000000000E+00  0.13574528970E+04  0.13574528970E+04  0.00000000000E+00 0.  1.
         21   -1    0    0  501  503 -0.00000000000E+00 -0.00000000000E+00 -0.33405981361E+03  0.33405981361E+03  0.00000000000E+00 0. -1.
    9000007    1    1    2  501    0 -0.26978343871E+03 -0.45282566389E+03  0.35464672522E+03  0.75073862654E+03  0.40000000000E+03 0. -1.
   -9000007    1    1    2    0  502  0.26978343871E+03  0.45282566389E+03  0.66874635815E+03  0.94077408405E+03  0.40000000000E+03 0. -1.
<mgrwt>
<rscale>  2 0.66169040E+03</rscale>
<asrwt>0</asrwt>
<pdfrwt beam="1">  1       21 0.20883891E+00 0.66169040E+03</pdfrwt>
<pdfrwt beam="2">  1       21 0.51393818E-01 0.66169040E+03</pdfrwt>
<totfact> 0.31691988E+02</totfact>
</mgrwt>
</event>
<event>
 4    1  0.4862039E-002  0.4095180E+03  0.7818608E-02  0.1040533E+00
         21   -1    0    0  503  502  0.00000000000E+00  0.00000000000E+00  0.71715054808E+03  0.71715054808E+03  0.00000000000E+00 0.  1.
         21   -1    0    0  501  503 -0.00000000000E+00 -0.00000000000E+00 -0.73156742290E+03  0.73156742290E+03  0.00000000000E+00 0.  1.
    9000007    1    1    2  501    0  0.85122255248E+02 -0.21429080013E+02 -0.60468172240E+03  0.73030472354E+03  0.40000000000E+03 0.  1.
   -9000007    1    1    2    0  502 -0.85122255248E+02  0.21429080013E+02  0.59026484758E+03  0.71841324744E+03  0.40000000000E+03 0.  1.
<mgrwt>
<rscale>  2 0.40951801E+03</rscale>
<asrwt>0</asrwt>
<pdfrwt beam="1">  1       21 0.11033085E+00 0.40951801E+03</pdfrwt>
<pdfrwt beam="2">  1       21 0.11254883E+00 0.40951801E+03</pdfrwt>
<totfact> 0.33859104E+02</totfact>
</mgrwt>
</event>
<event>
 4    1  0.4862039E-002  0.4382776E+03  0.7818608E-02  0.1031277E+00
         21   -1    0    0  501  502  0.00000000000E+00  0.00000000000E+00  0.33909598593E+03  0.33909598593E+03  0.00000000000E+00 0.  1.
         21   -1    0    0  502  503 -0.00000000000E+00 -0.00000000000E+00 -0.57436549871E+03  0.57436549871E+03  0.00000000000E+00 0.  1.
    9000007    1    1    2  501    0 -0.48704911006E+02  0.17238053608E+03 -0.64080346847E+02  0.44293736400E+03  0.40000000000E+03 0.  1.
   -9000007    1    1    2    0  503  0.48704911006E+02 -0.17238053608E+03 -0.17118916594E+03  0.47052412065E+03  0.40000000000E+03 0.  1.
<mgrwt>
<rscale>  2 0.43827756E+03</rscale>
<asrwt>0</asrwt>
<pdfrwt beam="1">  1       21 0.52168614E-01 0.43827756E+03</pdfrwt>
<pdfrwt beam="2">  1       21 0.88363922E-01 0.43827756E+03</pdfrwt>
<totfact> 0.33468961E+03</totfact>
</mgrwt>
</event>
<event>
 4    1  0.4862039E-002  0.4483408E+03  0.7818608E-02  0.1028218E+00
         21   -1    0    0  503  502  0.00000000000E+00  0.00000000000E+00  0.45245840595E+03  0.45245840595E+03  0.00000000000E+00 0. -1.
         21   -1    0    0  501  503 -0.00000000000E+00 -0.00000000000E+00 -0.54316875863E+03  0.54316875863E+03  0.00000000000E+00 0.  1.
    9000007    1    1    2  501    0  0.45824587336E+02  0.19725509537E+03 -0.25778490738E+03  0.51716779088E+03  0.40000000000E+03 0.  1.
   -9000007    1    1    2    0  502 -0.45824587336E+02 -0.19725509537E+03  0.16707455469E+03  0.47845937370E+03  0.40000000000E+03 0. -1.
<mgrwt>
<rscale>  2 0.44834079E+03</rscale>
<asrwt>0</asrwt>
<pdfrwt beam="1">  1       21 0.69608985E-01 0.44834079E+03</pdfrwt>
<pdfrwt beam="2">  1       21 0.83564425E-01 0.44834079E+03</pdfrwt>
<totfact> 0.20193626E+03</totfact>
</mgrwt>
</event>
<event>
 4    1  0.4862039E-002  0.4003574E+03  0.7818608E-02  0.1043656E+00
         21   -1    0    0  501  502  0.00000000000E+00  0.00000000000E+00  0.20318506924E+03  0.20318506924E+03  0.00000000000E+00 0. -1.
         21   -1    0    0  502  503 -0.00000000000E+00 -0.00000000000E+00 -0.10537531245E+04  0.10537531245E+04  0.00000000000E+00 0. -1.
    9000007    1    1    2  501    0 -0.14606584206E+02  0.85246532902E+01 -0.74038082534E+03  0.84169459339E+03  0.40000000000E+03 0. -1.
   -9000007    1    1    2    0  503  0.14606584206E+02 -0.85246532902E+01 -0.11018722997E+03  0.41524360039E+03  0.40000000000E+03 0. -1.
<mgrwt>
<rscale>  2 0.40035737E+03</rscale>
<asrwt>0</asrwt>
<pdfrwt beam="1">  1       21 0.31259241E-01 0.40035737E+03</pdfrwt>
<pdfrwt beam="2">  1       21 0.16211587E+00 0.40035737E+03</pdfrwt>
<totfact> 0.20841695E+03</totfact>
</mgrwt>
</event>
<event>
 4    1  0.4862039E-002  0.4252780E+03  0.7818608E-02  0.1035362E+00
         21   -1    0    0  503  502  0.00000000000E+00  0.00000000000E+00  0.18368037155E+03  0.18368037155E+03  0.00000000000E+00 0.  1.
         21   -1    0    0  501  503 -0.00000000000E+00 -0.00000000000E+00 -0.38336392404E+04  0.38336392404E+04  0.00000000000E+00 0.  1.
    9000007    1    1    2  501    0 -0.14339509048E+03  0.17298216297E+02 -0.35565730043E+04  0.35819091160E+04  0.40000000000E+03 0.  1.
   -9000007    1    1    2    0  502  0.14339509048E+03 -0.17298216297E+02 -0.93385864503E+02  0.43541049591E+03  0.40000000000E+03 0.  1.
<mgrwt>
<rscale>  2 0.42527800E+03</rscale>
<asrwt>0</asrwt>
<pdfrwt beam="1">  1       21 0.28258518E-01 0.42527800E+03</pdfrwt>
<pdfrwt beam="2">  1       21 0.58979067E+00 0.42527800E+03</pdfrwt>
<totfact> 0.35920478E+00</totfact>
</mgrwt>
</event>
<event>
 4    1  0.4862039E-002  0.5432963E+03  0.7818608E-02  0.1003058E+00
         21   -1    0    0  501  502  0.00000000000E+00  0.00000000000E+00  0.21835908498E+04  0.21835908498E+04  0.00000000000E+00 0.  1.
         21   -1    0    0  502  503 -0.00000000000E+00 -0.00000000000E+00 -0.16069933602E+03  0.16069933602E+03  0.00000000000E+00 0.  1.
    9000007    1    1    2  501    0  0.24843185230E+03 -0.27102110502E+03  0.54431738975E+03  0.76905932501E+03  0.40000000000E+03 0.  1.
   -9000007    1    1    2    0  503 -0.24843185230E+03  0.27102110502E+03  0.14785741240E+04  0.15752308608E+04  0.40000000000E+03 0.  1.
<mgrwt>
<rscale>  2 0.54329626E+03</rscale>
<asrwt>0</asrwt>
<pdfrwt beam="1">  1       21 0.33593703E+00 0.54329626E+03</pdfrwt>
<pdfrwt beam="2">  1       21 0.24722976E-01 0.54329626E+03</pdfrwt>
<totfact> 0.24157472E+02</totfact>
</mgrwt>
</event>
<event>
 4    1  0.4862039E-002  0.4083914E+03  0.7818608E-02  0.1040912E+00
         21   -1    0    0  501  502  0.00000000000E+00  0.00000000000E+00  0.31809371517E+03  0.31809371517E+03  0.00000000000E+00 0.  1.
         21   -1    0    0  502  503 -0.00000000000E+00 -0.00000000000E+00 -0.53483688887E+03  0.53483688887E+03  0.00000000000E+00 0.  1.
    9000007    1    1    2  501    0  0.58848513532E+02 -0.57622551905E+02 -0.48574900987E+02  0.41127001719E+03  0.40000000000E+03 0.  1.
   -9000007    1    1    2    0  503 -0.58848513532E+02  0.57622551905E+02 -0.16816827271E+03  0.44166058685E+03  0.40000000000E+03 0.  1.
<mgrwt>
<rscale>  2 0.40839136E+03</rscale>
<asrwt>0</asrwt>
<pdfrwt beam="1">  1       21 0.48937495E-01 0.40839136E+03</pdfrwt>
<pdfrwt beam="2">  1       21 0.82282597E-01 0.40839136E+03</pdfrwt>
<totfact> 0.45796183E+03</totfact>
</mgrwt>
</event>
<event>
 4    1  0.4862039E-002  0.4666761E+03  0.7818608E-02  0.1022863E+00
         21   -1    0    0  501  502  0.00000000000E+00  0.00000000000E+00  0.25580479396E+04  0.25580479396E+04  0.00000000000E+00 0. -1.
         21   -1    0    0  502  503 -0.00000000000E+00 -0.00000000000E+00 -0.12862042839E+03  0.12862042839E+03  0.00000000000E+00 0. -1.
    9000007    1    1    2  501    0 -0.22741935275E+03  0.77891055519E+02  0.19957783926E+04  0.20496141030E+04  0.40000000000E+03 0.  1.
   -9000007    1    1    2    0  503  0.22741935275E+03 -0.77891055519E+02  0.43364911855E+03  0.63705426500E+03  0.40000000000E+03 0.  1.
<mgrwt>
<rscale>  2 0.46667610E+03</rscale>
<asrwt>0</asrwt>
<pdfrwt beam="1">  1       21 0.39354580E+00 0.46667610E+03</pdfrwt>
<pdfrwt beam="2">  1       21 0.19787760E-01 0.46667610E+03</pdfrwt>
<totfact> 0.16943736E+02</totfact>
</mgrwt>
</event>
<event>
 4    1  0.4862039E-002  0.4587380E+03  0.7818608E-02  0.1025148E+00
         21   -1    0    0  503  502  0.00000000000E+00  0.00000000000E+00  0.12170480214E+04  0.12170480214E+04  0.00000000000E+00 0.  1.
         21   -1    0    0  501  503 -0.00000000000E+00 -0.00000000000E+00 -0.24864854201E+03  0.24864854201E+03  0.00000000000E+00 0. -1.
    9000007    1    1    2  501    0  0.10215822552E+03  0.20001070467E+03  0.79737787580E+02  0.46561647285E+03  0.40000000000E+03 0.  1.
   -9000007    1    1    2    0  502 -0.10215822552E+03 -0.20001070467E+03  0.88866169178E+03  0.10000800905E+04  0.40000000000E+03 0.  1.
<mgrwt>
<rscale>  2 0.45873804E+03</rscale>
<asrwt>0</asrwt>
<pdfrwt beam="1">  1       21 0.18723815E+00 0.45873804E+03</pdfrwt>
<pdfrwt beam="2">  1       21 0.38253623E-01 0.45873804E+03</pdfrwt>
<totfact> 0.89229657E+02</totfact>
</mgrwt>
</event>
<event>
 4    1  0.4862039E-002  0.4258444E+03  0.7818608E-02  0.1035181E+00
         21   -1    0    0  501  502  0.00000000000E+00  0.00000000000E+00  0.38975881406E+03  0.38975881406E+03  0.00000000000E+00 0.  1.
         21   -1    0    0  502  503 -0.00000000000E+00 -0.00000000000E+00 -0.90977330101E+03  0.90977330101E+03  0.00000000000E+00 0.  1.
    9000007    1    1    2  501    0  0.90319649746E+02  0.11482946665E+03 -0.71418668146E+03  0.83150830514E+03  0.40000000000E+03 0.  1.
   -9000007    1    1    2    0  503 -0.90319649746E+02 -0.11482946665E+03  0.19417219450E+03  0.46802380993E+03  0.40000000000E+03 0.  1.
<mgrwt>
<rscale>  2 0.42584439E+03</rscale>
<asrwt>0</asrwt>
<pdfrwt beam="1">  1       21 0.59962895E-01 0.42584439E+03</pdfrwt>
<pdfrwt beam="2">  1       21 0.13996512E+00 0.42584439E+03</pdfrwt>
<totfact> 0.79083253E+02</totfact>
</mgrwt>
</event>
<event>
 4    1  0.4862039E-002  0.4720695E+03  0.7818608E-02  0.1021338E+00
         21   -1    0    0  501  502  0.00000000000E+00  0.00000000000E+00  0.88961264658E+03  0.88961264658E+03  0.00000000000E+00 0. -1.
         21   -1    0    0  502  503 -0.00000000000E+00 -0.00000000000E+00 -0.34416923940E+03  0.34416923940E+03  0.00000000000E+00 0. -1.
    9000007    1    1    2  501    0 -0.23125995759E+03 -0.96790744971E+02  0.59454432608E+03  0.75916570785E+03  0.40000000000E+03 0. -1.
   -9000007    1    1    2    0  503  0.23125995759E+03  0.96790744971E+02 -0.49100918901E+02  0.47461617812E+03  0.40000000000E+03 0. -1.
<mgrwt>
<rscale>  2 0.47206950E+03</rscale>
<asrwt>0</asrwt>
<pdfrwt beam="1">  1       21 0.13686348E+00 0.47206950E+03</pdfrwt>
<pdfrwt beam="2">  1       21 0.52949114E-01 0.47206950E+03</pdfrwt>
<totfact> 0.10774546E+03</totfact>
</mgrwt>
</event>
<event>
 4    1  0.4862039E-002  0.4014941E+03  0.7818608E-02  0.1043264E+00
         21   -1    0    0  501  502  0.00000000000E+00  0.00000000000E+00  0.59135637947E+03  0.59135637947E+03  0.00000000000E+00 0. -1.
         21   -1    0    0  502  503 -0.00000000000E+00 -0.00000000000E+00 -0.52200213383E+03  0.52200213383E+03  0.00000000000E+00 0. -1.
    9000007    1    1    2  501    0  0.33581352439E+02 -0.83567902749E+01  0.41947096976E+03  0.58064915194E+03  0.40000000000E+03 0. -1.
   -9000007    1    1    2    0  503 -0.33581352439E+02  0.83567902749E+01 -0.35011672412E+03  0.53270936136E+03  0.40000000000E+03 0. -1.
<mgrwt>
<rscale>  2 0.40149414E+03</rscale>
<asrwt>0</asrwt>
<pdfrwt beam="1">  1       21 0.90977904E-01 0.40149414E+03</pdfrwt>
<pdfrwt beam="2">  1       21 0.80308021E-01 0.40149414E+03</pdfrwt>
<totfact> 0.12175813E+03</totfact>
</mgrwt>
</event>
<event>
 4    1  0.4862039E-002  0.4593777E+03  0.7818608E-02  0.1024962E+00
         21   -1    0    0  501  502  0.00000000000E+00  0.00000000000E+00  0.54063274866E+03  0.54063274866E+03  0.00000000000E+00 0.  1.
         21   -1    0    0  502  503 -0.00000000000E+00 -0.00000000000E+00 -0.46529298882E+03  0.46529298882E+03  0.00000000000E+00 0.  1.
    9000007    1    1    2  501    0  0.20287308413E+03  0.99349800818E+02  0.23954449024E+03  0.51808245868E+03  0.40000000000E+03 0.  1.
   -9000007    1    1    2    0  503 -0.20287308413E+03 -0.99349800818E+02 -0.16420473040E+03  0.48784327880E+03  0.40000000000E+03 0.  1.
<mgrwt>
<rscale>  2 0.45937770E+03</rscale>
<asrwt>0</asrwt>
<pdfrwt beam="1">  1       21 0.83174269E-01 0.45937770E+03</pdfrwt>
<pdfrwt beam="2">  1       21 0.71583537E-01 0.45937770E+03</pdfrwt>
<totfact> 0.19087983E+03</totfact>
</mgrwt>
</event>
<event>
 4    1  0.4862039E-002  0.6014236E+03  0.7818608E-02  0.9902457E-01
         21   -1    0    0  501  502  0.00000000000E+00  0.00000000000E+00  0.16255718485E+04  0.16255718485E+04  0.00000000000E+00 0.  1.
         21   -1    0    0  502  503 -0.00000000000E+00 -0.00000000000E+00 -0.25870092795E+03  0.25870092795E+03  0.00000000000E+00 0. -1.
    9000007    1    1    2  501    0 -0.31129275241E+03 -0.32373931759E+03  0.10358052407E+04  0.11977490639E+04  0.40000000000E+03 0.  1.
   -9000007    1    1    2    0  503  0.31129275241E+03  0.32373931759E+03  0.33106567983E+03  0.68652371250E+03  0.40000000000E+03 0. -1.
<mgrwt>
<rscale>  2 0.60142358E+03</rscale>
<asrwt>0</asrwt>
<pdfrwt beam="1">  1       21 0.25008797E+00 0.60142358E+03</pdfrwt>
<pdfrwt beam="2">  1       21 0.39800144E-01 0.60142358E+03</pdfrwt>
<totfact> 0.30256120E+02</totfact>
</mgrwt>
</event>
<event>
 4    1  0.4862039E-002  0.5905196E+03  0.7818608E-02  0.9925272E-01
         21   -1    0    0  503  502  0.00000000000E+00  0.00000000000E+00  0.46307659353E+03  0.46307659353E+03  0.00000000000E+00 0.  1.
         21   -1    0    0  501  503 -0.00000000000E+00 -0.00000000000E+00 -0.83915314138E+03  0.83915314138E+03  0.00000000000E+00 0. -1.
    9000007    1    1    2  501    0  0.42587376631E+03 -0.85702820751E+02 -0.39662242103E+03  0.71135278391E+03  0.40000000000E+03 0.  1.
   -9000007    1    1    2    0  502 -0.42587376631E+03  0.85702820751E+02  0.20545873177E+02  0.59087695100E+03  0.40000000000E+03 0. -1.
<mgrwt>
<rscale>  2 0.59051963E+03</rscale>
<asrwt>0</asrwt>
<pdfrwt beam="1">  1       21 0.71242554E-01 0.59051963E+03</pdfrwt>
<pdfrwt beam="2">  1       21 0.12910048E+00 0.59051963E+03</pdfrwt>
<totfact> 0.62449048E+02</totfact>
</mgrwt>
</event>
<event>
 4    1  0.4862039E-002  0.4522407E+03  0.7818608E-02  0.1027056E+00
         21   -1    0    0  501  502  0.00000000000E+00  0.00000000000E+00  0.36329786862E+03  0.36329786862E+03  0.00000000000E+00 0.  1.
         21   -1    0    0  502  503 -0.00000000000E+00 -0.00000000000E+00 -0.58928018892E+03  0.58928018892E+03  0.00000000000E+00 0.  1.
    9000007    1    1    2  501    0 -0.16318804569E+03  0.13375846124E+03 -0.12329149361E+02  0.45240874454E+03  0.40000000000E+03 0.  1.
   -9000007    1    1    2    0  503  0.16318804569E+03 -0.13375846124E+03 -0.21365317094E+03  0.50016931300E+03  0.40000000000E+03 0.  1.
<mgrwt>
<rscale>  2 0.45224071E+03</rscale>
<asrwt>0</asrwt>
<pdfrwt beam="1">  1       21 0.55891980E-01 0.45224071E+03</pdfrwt>
<pdfrwt beam="2">  1       21 0.90658490E-01 0.45224071E+03</pdfrwt>
<totfact> 0.27021072E+03</totfact>
</mgrwt>
</event>
<event>
 4    1  0.4862039E-002  0.4295059E+03  0.7818608E-02  0.1034016E+00
         21   -1    0    0  501  502  0.00000000000E+00  0.00000000000E+00  0.65281164386E+03  0.65281164386E+03  0.00000000000E+00 0. -1.
         21   -1    0    0  502  503 -0.00000000000E+00 -0.00000000000E+00 -0.54763538618E+03  0.54763538618E+03  0.00000000000E+00 0. -1.
    9000007    1    1    2  501    0 -0.13110971951E+03 -0.85355372639E+02  0.47015960294E+03  0.63680872358E+03  0.40000000000E+03 0. -1.
   -9000007    1    1    2    0  503  0.13110971951E+03  0.85355372639E+02 -0.36498334526E+03  0.56363830646E+03  0.40000000000E+03 0. -1.
<mgrwt>
<rscale>  2 0.42950588E+03</rscale>
<asrwt>0</asrwt>
<pdfrwt beam="1">  1       21 0.10043256E+00 0.42950588E+03</pdfrwt>
<pdfrwt beam="2">  1       21 0.84251598E-01 0.42950588E+03</pdfrwt>
<totfact> 0.84896660E+02</totfact>
</mgrwt>
</event>
<event>
 4    1  0.4862039E-002  0.5388552E+03  0.7818608E-02  0.1004107E+00
         21   -1    0    0  501  502  0.00000000000E+00  0.00000000000E+00  0.38689312306E+03  0.38689312306E+03  0.00000000000E+00 0. -1.
         21   -1    0    0  502  503 -0.00000000000E+00 -0.00000000000E+00 -0.14768315912E+04  0.14768315912E+04  0.00000000000E+00 0. -1.
    9000007    1    1    2  501    0  0.26772875950E+03 -0.24225252804E+03  0.10854107797E+03  0.54967821643E+03  0.40000000000E+03 0. -1.
   -9000007    1    1    2    0  503 -0.26772875950E+03  0.24225252804E+03 -0.11984795461E+04  0.13140464978E+04  0.40000000000E+03 0. -1.
<mgrwt>
<rscale>  2 0.53885525E+03</rscale>
<asrwt>0</asrwt>
<pdfrwt beam="1">  1       21 0.59522019E-01 0.53885525E+03</pdfrwt>
<pdfrwt beam="2">  1       21 0.22720486E+00 0.53885525E+03</pdfrwt>
<totfact> 0.18364164E+02</totfact>
</mgrwt>
</event>
<event>
 4    1  0.4862039E-002  0.4308375E+03  0.7818608E-02  0.1033596E+00
         21   -1    0    0  501  502  0.00000000000E+00  0.00000000000E+00  0.13450312414E+04  0.13450312414E+04  0.00000000000E+00 0.  1.
         21   -1    0    0  502  503 -0.00000000000E+00 -0.00000000000E+00 -0.13800726310E+03  0.13800726310E+03  0.00000000000E+00 0.  1.
    9000007    1    1    2  501    0  0.14375539284E+03  0.70394161194E+02  0.60655668662E+03  0.74399728829E+03  0.40000000000E+03 0.  1.
   -9000007    1    1    2    0  503 -0.14375539284E+03 -0.70394161194E+02  0.60046729172E+03  0.73904121626E+03  0.40000000000E+03 0.  1.
<mgrwt>
<rscale>  2 0.43083750E+03</rscale>
<asrwt>0</asrwt>
<pdfrwt beam="1">  1       21 0.20692787E+00 0.43083750E+03</pdfrwt>
<pdfrwt beam="2">  1       21 0.21231888E-01 0.43083750E+03</pdfrwt>
<totfact> 0.21326975E+03</totfact>
</mgrwt>
</event>
<event>
 4    1  0.4862039E-002  0.5563149E+03  0.7818608E-02  0.1000043E+00
         21   -1    0    0  501  502  0.00000000000E+00  0.00000000000E+00  0.56064053616E+03  0.56064053616E+03  0.00000000000E+00 0.  1.
         21   -1    0    0  502  503 -0.00000000000E+00 -0.00000000000E+00 -0.57602373251E+03  0.57602373251E+03  0.00000000000E+00 0. -1.
    9000007    1    1    2  501    0  0.11093888783E+03  0.37037665275E+03 -0.12370201814E+03  0.56990217671E+03  0.40000000000E+03 0. -1.
   -9000007    1    1    2    0  503 -0.11093888783E+03 -0.37037665275E+03  0.10831882179E+03  0.56676209196E+03  0.40000000000E+03 0.  1.
<mgrwt>
<rscale>  2 0.55631493E+03</rscale>
<asrwt>0</asrwt>
<pdfrwt beam="1">  1       21 0.86252390E-01 0.55631493E+03</pdfrwt>
<pdfrwt beam="2">  1       21 0.88619036E-01 0.55631493E+03</pdfrwt>
<totfact> 0.10338829E+03</totfact>
</mgrwt>
</event>
<event>
 4    1  0.4862039E-002  0.4466399E+03  0.7818608E-02  0.1028729E+00
         21   -1    0    0  503  502  0.00000000000E+00  0.00000000000E+00  0.12364551998E+04  0.12364551998E+04  0.00000000000E+00 0. -1.
         21   -1    0    0  501  503 -0.00000000000E+00 -0.00000000000E+00 -0.17008513389E+03  0.17008513389E+03  0.00000000000E+00 0.  1.
    9000007    1    1    2  501    0 -0.99239978857E+02 -0.17215881924E+03  0.37369944875E+03  0.58235599975E+03  0.40000000000E+03 0.  1.
   -9000007    1    1    2    0  502  0.99239978857E+02  0.17215881924E+03  0.69267061713E+03  0.82418433392E+03  0.40000000000E+03 0. -1.
<mgrwt>
<rscale>  2 0.44663994E+03</rscale>
<asrwt>0</asrwt>
<pdfrwt beam="1">  1       21 0.19022387E+00 0.44663994E+03</pdfrwt>
<pdfrwt beam="2">  1       21 0.26166944E-01 0.44663994E+03</pdfrwt>
<totfact> 0.18288966E+03</totfact>
</mgrwt>
</event>
<event>
 4    1  0.4862039E-002  0.8651866E+03  0.7818608E-02  0.9470178E-01
         21   -1    0    0  503  502  0.00000000000E+00  0.00000000000E+00  0.14471172495E+04  0.14471172495E+04  0.00000000000E+00 0. -1.
         21   -1    0    0  501  503 -0.00000000000E+00 -0.00000000000E+00 -0.63249589921E+03  0.63249589921E+03  0.00000000000E+00 0. -1.
    9000007    1    1    2  501    0  0.96136205162E+02  0.76112138783E+03 -0.36504230351E+02  0.86595640524E+03  0.40000000000E+03 0. -1.
   -9000007    1    1    2    0  502 -0.96136205162E+02 -0.76112138783E+03  0.85112558068E+03  0.12136567435E+04  0.40000000000E+03 0. -1.
<mgrwt>
<rscale>  2 0.86518665E+03</rscale>
<asrwt>0</asrwt>
<pdfrwt beam="1">  1       21 0.22263342E+00 0.86518665E+03</pdfrwt>
<pdfrwt beam="2">  1       21 0.97307062E-01 0.86518665E+03</pdfrwt>
<totfact> 0.55877714E+01</totfact>
</mgrwt>
</event>
<event>
 4    1  0.4862039E-002  0.4124335E+03  0.7818608E-02  0.1039557E+00
         21   -1    0    0  503  502  0.00000000000E+00  0.00000000000E+00  0.74198166501E+03  0.74198166501E+03  0.00000000000E+00 0. -1.
         21   -1    0    0  501  503 -0.00000000000E+00 -0.00000000000E+00 -0.22930087793E+03  0.22930087793E+03  0.00000000000E+00 0. -1.
    9000007    1    1    2  501    0  0.90174478705E+02  0.44384097474E+02  0.26337147145E+03  0.48935254847E+03  0.40000000000E+03 0. -1.
   -9000007    1    1    2    0  502 -0.90174478705E+02 -0.44384097474E+02  0.24930931563E+03  0.48192999448E+03  0.40000000000E+03 0. -1.
<mgrwt>
<rscale>  2 0.41243349E+03</rscale>
<asrwt>0</asrwt>
<pdfrwt beam="1">  1       21 0.11415102E+00 0.41243349E+03</pdfrwt>
<pdfrwt beam="2">  1       21 0.35277059E-01 0.41243349E+03</pdfrwt>
<totfact> 0.40929235E+03</totfact>
</mgrwt>
</event>
<event>
 4    1  0.4862039E-002  0.5517841E+03  0.7818608E-02  0.1001082E+00
         21   -1    0    0  501  502  0.00000000000E+00  0.00000000000E+00  0.38102360279E+03  0.38102360279E+03  0.00000000000E+00 0.  1.
         21   -1    0    0  502  503 -0.00000000000E+00 -0.00000000000E+00 -0.11939905597E+04  0.11939905597E+04  0.00000000000E+00 0. -1.
    9000007    1    1    2  501    0  0.36052630103E+03  0.12035963597E+03  0.46421681842E+02  0.55373335483E+03  0.40000000000E+03 0.  1.
   -9000007    1    1    2    0  503 -0.36052630103E+03 -0.12035963597E+03 -0.85938863875E+03  0.10212808077E+04  0.40000000000E+03 0. -1.
<mgrwt>
<rscale>  2 0.55178407E+03</rscale>
<asrwt>0</asrwt>
<pdfrwt beam="1">  1       21 0.58619017E-01 0.55178407E+03</pdfrwt>
<pdfrwt beam="2">  1       21 0.18369085E+00 0.55178407E+03</pdfrwt>
<totfact> 0.36795692E+02</totfact>
</mgrwt>
</event>
<event>
 4    1  0.4862039E-002  0.4424070E+03  0.7818608E-02  0.1030011E+00
         21   -1    0    0  501  502  0.00000000000E+00  0.00000000000E+00  0.62888180289E+03  0.62888180289E+03  0.00000000000E+00 0.  1.
         21   -1    0    0  502  503 -0.00000000000E+00 -0.00000000000E+00 -0.32221609977E+03  0.32221609977E+03  0.00000000000E+00 0.  1.
    9000007    1    1    2  501    0 -0.13737953364E+03 -0.12981077589E+03  0.65504483756E+02  0.44723015461E+03  0.40000000000E+03 0.  1.
   -9000007    1    1    2    0  503  0.13737953364E+03  0.12981077589E+03  0.24116121936E+03  0.50386774805E+03  0.40000000000E+03 0.  1.
<mgrwt>
<rscale>  2 0.44240702E+03</rscale>
<asrwt>0</asrwt>
<pdfrwt beam="1">  1       21 0.96751046E-01 0.44240702E+03</pdfrwt>
<pdfrwt beam="2">  1       21 0.49571708E-01 0.44240702E+03</pdfrwt>
<totfact> 0.30025303E+03</totfact>
</mgrwt>
</event>
<event>
 4    1  0.4862039E-002  0.4315500E+03  0.7818608E-02  0.1033371E+00
         21   -1    0    0  503  502  0.00000000000E+00  0.00000000000E+00  0.26392289345E+03  0.26392289345E+03  0.00000000000E+00 0.  1.
         21   -1    0    0  501  503 -0.00000000000E+00 -0.00000000000E+00 -0.25062829525E+04  0.25062829525E+04  0.00000000000E+00 0.  1.
    9000007    1    1    2  501    0 -0.14554012328E+03 -0.71088074510E+02 -0.22952132645E+04  0.23354313030E+04  0.40000000000E+03 0.  1.
   -9000007    1    1    2    0  502  0.14554012328E+03  0.71088074510E+02  0.52853205443E+02  0.43477454289E+03  0.40000000000E+03 0.  1.
<mgrwt>
<rscale>  2 0.43155005E+03</rscale>
<asrwt>0</asrwt>
<pdfrwt beam="1">  1       21 0.40603523E-01 0.43155005E+03</pdfrwt>
<pdfrwt beam="2">  1       21 0.38558198E+00 0.43155005E+03</pdfrwt>
<totfact> 0.47140323E+01</totfact>
</mgrwt>
</event>
<event>
 4    1  0.4862039E-002  0.4026303E+03  0.7818608E-02  0.1042873E+00
         21   -1    0    0  501  502  0.00000000000E+00  0.00000000000E+00  0.80965729664E+03  0.80965729664E+03  0.00000000000E+00 0.  1.
         21   -1    0    0  502  503 -0.00000000000E+00 -0.00000000000E+00 -0.22477224177E+03  0.22477224177E+03  0.00000000000E+00 0.  1.
    9000007    1    1    2  501    0 -0.28770987479E+02  0.35824524932E+02  0.46337629677E+03  0.61386379492E+03  0.40000000000E+03 0.  1.
   -9000007    1    1    2    0  503  0.28770987479E+02 -0.35824524932E+02  0.12150875811E+03  0.42056574350E+03  0.40000000000E+03 0.  1.
<mgrwt>
<rscale>  2 0.40263031E+03</rscale>
<asrwt>0</asrwt>
<pdfrwt beam="1">  1       21 0.12456266E+00 0.40263031E+03</pdfrwt>
<pdfrwt beam="2">  1       21 0.34580345E-01 0.40263031E+03</pdfrwt>
<totfact> 0.34308951E+03</totfact>
</mgrwt>
</event>
<event>
 4    1  0.4862039E-002  0.5454953E+03  0.7818608E-02  0.1002542E+00
         21   -1    0    0  503  502  0.00000000000E+00  0.00000000000E+00  0.14877554465E+04  0.14877554465E+04  0.00000000000E+00 0.  1.
         21   -1    0    0  501  503 -0.00000000000E+00 -0.00000000000E+00 -0.20921043458E+03  0.20921043458E+03  0.00000000000E+00 0.  1.
    9000007    1    1    2  501    0  0.34039866398E+03  0.14728845611E+03  0.46133449324E+03  0.71441910276E+03  0.40000000000E+03 0.  1.
   -9000007    1    1    2    0  502 -0.34039866398E+03 -0.14728845611E+03  0.81721051868E+03  0.98254677831E+03  0.40000000000E+03 0.  1.
<mgrwt>
<rscale>  2 0.54549532E+03</rscale>
<asrwt>0</asrwt>
<pdfrwt beam="1">  1       21 0.22888545E+00 0.54549532E+03</pdfrwt>
<pdfrwt beam="2">  1       21 0.32186222E-01 0.54549532E+03</pdfrwt>
<totfact> 0.64872362E+02</totfact>
</mgrwt>
</event>
<event>
 4    1  0.4862039E-002  0.5630706E+03  0.7818608E-02  0.9985131E-01
         21   -1    0    0  503  502  0.00000000000E+00  0.00000000000E+00  0.62276781088E+03  0.62276781088E+03  0.00000000000E+00 0. -1.
         21   -1    0    0  501  503 -0.00000000000E+00 -0.00000000000E+00 -0.52344832508E+03  0.52344832508E+03  0.00000000000E+00 0. -1.
    9000007    1    1    2  501    0 -0.23614992028E+03 -0.31824785746E+03  0.14455917396E+03  0.58133109189E+03  0.40000000000E+03 0. -1.
   -9000007    1    1    2    0  502  0.23614992028E+03  0.31824785746E+03 -0.45239688166E+02  0.56488504407E+03  0.40000000000E+03 0. -1.
<mgrwt>
<rscale>  2 0.56307058E+03</rscale>
<asrwt>0</asrwt>
<pdfrwt beam="1">  1       21 0.95810432E-01 0.56307058E+03</pdfrwt>
<pdfrwt beam="2">  1       21 0.80530512E-01 0.56307058E+03</pdfrwt>
<totfact> 0.10051336E+03</totfact>
</mgrwt>
</event>
<event>
 4    1  0.4862039E-002  0.4534482E+03  0.7818608E-02  0.1026699E+00
         21   -1    0    0  501  502  0.00000000000E+00  0.00000000000E+00  0.76086012322E+03  0.76086012322E+03  0.00000000000E+00 0.  1.
         21   -1    0    0  502  503 -0.00000000000E+00 -0.00000000000E+00 -0.31744076769E+03  0.31744076769E+03  0.00000000000E+00 0.  1.
    9000007    1    1    2  501    0  0.12208291897E+03 -0.17524567836E+03  0.42960774180E+03  0.62464237664E+03  0.40000000000E+03 0.  1.
   -9000007    1    1    2    0  503 -0.12208291897E+03  0.17524567836E+03  0.13811613736E+02  0.45365851426E+03  0.40000000000E+03 0.  1.
<mgrwt>
<rscale>  2 0.45344822E+03</rscale>
<asrwt>0</asrwt>
<pdfrwt beam="1">  1       21 0.11705540E+00 0.45344822E+03</pdfrwt>
<pdfrwt beam="2">  1       21 0.48837041E-01 0.45344822E+03</pdfrwt>
<totfact> 0.19303725E+03</totfact>
</mgrwt>
</event>
<event>
 4    1  0.4862039E-002  0.4222979E+03  0.7818608E-02  0.1036321E+00
         21   -1    0    0  503  502  0.00000000000E+00  0.00000000000E+00  0.44621140832E+03  0.44621140832E+03  0.00000000000E+00 0.  1.
         21   -1    0    0  501  503 -0.00000000000E+00 -0.00000000000E+00 -0.13431457770E+04  0.13431457770E+04  0.00000000000E+00 0.  1.
    9000007    1    1    2  501    0  0.90370716619E+01  0.13510679102E+03 -0.11983126611E+04  0.12705466333E+04  0.40000000000E+03 0.  1.
   -9000007    1    1    2    0  502 -0.90370716619E+01 -0.13510679102E+03  0.30137829248E+03  0.51881055196E+03  0.40000000000E+03 0.  1.
<mgrwt>
<rscale>  2 0.42229790E+03</rscale>
<asrwt>0</asrwt>
<pdfrwt beam="1">  1       21 0.68647909E-01 0.42229790E+03</pdfrwt>
<pdfrwt beam="2">  1       21 0.20663781E+00 0.42229790E+03</pdfrwt>
<totfact> 0.19288539E+02</totfact>
</mgrwt>
</event>
<event>
 4    1  0.4862039E-002  0.4888025E+03  0.7818608E-02  0.1016744E+00
         21   -1    0    0  501  502  0.00000000000E+00  0.00000000000E+00  0.23608413779E+03  0.23608413779E+03  0.00000000000E+00 0.  1.
         21   -1    0    0  502  503 -0.00000000000E+00 -0.00000000000E+00 -0.13715468012E+04  0.13715468012E+04  0.00000000000E+00 0. -1.
    9000007    1    1    2  501    0  0.25966685963E+03  0.10724281770E+03 -0.97926109479E+03  0.10944771317E+04  0.40000000000E+03 0. -1.
   -9000007    1    1    2    0  503 -0.25966685963E+03 -0.10724281770E+03 -0.15620156859E+03  0.51315380732E+03  0.40000000000E+03 0.  1.
<mgrwt>
<rscale>  2 0.48880252E+03</rscale>
<asrwt>0</asrwt>
<pdfrwt beam="1">  1       21 0.36320637E-01 0.48880252E+03</pdfrwt>
<pdfrwt beam="2">  1       21 0.21100720E+00 0.48880252E+03</pdfrwt>
<totfact> 0.67810654E+02</totfact>
</mgrwt>
</event>
<event>
 4    1  0.4862039E-002  0.5719629E+03  0.7818608E-02  0.9965344E-01
         21   -1    0    0  503  502  0.00000000000E+00  0.00000000000E+00  0.19320253454E+04  0.19320253454E+04  0.00000000000E+00 0.  1.
         21   -1    0    0  501  503 -0.00000000000E+00 -0.00000000000E+00 -0.21843744316E+03  0.21843744316E+03  0.00000000000E+00 0. -1.
    9000007    1    1    2  501    0 -0.39925973436E+03  0.87938488972E+02  0.13666307033E+04  0.14814928257E+04  0.40000000000E+03 0.  1.
   -9000007    1    1    2    0  502  0.39925973436E+03 -0.87938488972E+02  0.34695719890E+03  0.66896996285E+03  0.40000000000E+03 0. -1.
<mgrwt>
<rscale>  2 0.57196286E+03</rscale>
<asrwt>0</asrwt>
<pdfrwt beam="1">  1       21 0.29723466E+00 0.57196286E+03</pdfrwt>
<pdfrwt beam="2">  1       21 0.33605762E-01 0.57196286E+03</pdfrwt>
<totfact> 0.22277993E+02</totfact>
</mgrwt>
</event>
<event>
 4    1  0.4862039E-002  0.5142335E+03  0.7818608E-02  0.1010129E+00
         21   -1    0    0  501  502  0.00000000000E+00  0.00000000000E+00  0.14562760482E+04  0.14562760482E+04  0.00000000000E+00 0.  1.
         21   -1    0    0  502  503 -0.00000000000E+00 -0.00000000000E+00 -0.10001666226E+04  0.10001666226E+04  0.00000000000E+00 0. -1.
    9000007    1    1    2  501    0  0.32312669510E+03  0.50277022487E+01  0.13392023628E+04  0.14345379421E+04  0.40000000000E+03 0.  1.
   -9000007    1    1    2    0  503 -0.32312669510E+03 -0.50277022487E+01 -0.88309293714E+03  0.10219047287E+04  0.40000000000E+03 0. -1.
<mgrwt>
<rscale>  2 0.51423355E+03</rscale>
<asrwt>0</asrwt>
<pdfrwt beam="1">  1       21 0.22404247E+00 0.51423355E+03</pdfrwt>
<pdfrwt beam="2">  1       21 0.15387179E+00 0.51423355E+03</pdfrwt>
<totfact> 0.19347821E+01</totfact>
</mgrwt>
</event>
<event>
 4    1  0.4862039E-002  0.4475186E+03  0.7818608E-02  0.1028465E+00
         21   -1    0    0  503  502  0.00000000000E+00  0.00000000000E+00  0.42774200517E+03  0.42774200517E+03  0.00000000000E+00 0.  1.
         21   -1    0    0  501  503 -0.00000000000E+00 -0.00000000000E+00 -0.55804571049E+03  0.55804571049E+03  0.00000000000E+00 0.  1.
    9000007    1    1    2  501    0 -0.18652871814E+03 -0.74026693903E+02 -0.26291437111E+03  0.51903456594E+03  0.40000000000E+03 0. -1.
   -9000007    1    1    2    0  502  0.18652871814E+03  0.74026693903E+02  0.13261066579E+03  0.46675314973E+03  0.40000000000E+03 0. -1.
<mgrwt>
<rscale>  2 0.44751862E+03</rscale>
<asrwt>0</asrwt>
<pdfrwt beam="1">  1       21 0.65806462E-01 0.44751862E+03</pdfrwt>
<pdfrwt beam="2">  1       21 0.85853187E-01 0.44751862E+03</pdfrwt>
<totfact> 0.21503654E+03</totfact>
</mgrwt>
</event>
<event>
 4    1  0.4862039E-002  0.5757260E+03  0.7818608E-02  0.9957087E-01
         21   -1    0    0  503  502  0.00000000000E+00  0.00000000000E+00  0.13251826357E+03  0.13251826357E+03  0.00000000000E+00 0.  1.
         21   -1    0    0  501  503 -0.00000000000E+00 -0.00000000000E+00 -0.27313829473E+04  0.27313829473E+04  0.00000000000E+00 0. -1.
    9000007    1    1    2  501    0 -0.26980949948E+03  0.31410708661E+03 -0.17150867571E+04  0.18091387488E+04  0.40000000000E+03 0. -1.
   -9000007    1    1    2    0  502  0.26980949948E+03 -0.31410708661E+03 -0.88377792657E+03  0.10547624621E+04  0.40000000000E+03 0. -1.
<mgrwt>
<rscale>  2 0.57572600E+03</rscale>
<asrwt>0</asrwt>
<pdfrwt beam="1">  1       21 0.20387426E-01 0.57572600E+03</pdfrwt>
<pdfrwt beam="2">  1       21 0.42021275E+00 0.57572600E+03</pdfrwt>
<totfact> 0.10075410E+02</totfact>
</mgrwt>
</event>
<event>
 4    1  0.4862039E-002  0.9096944E+03  0.7818608E-02  0.9413543E-01
         21   -1    0    0  503  502  0.00000000000E+00  0.00000000000E+00  0.11910697684E+04  0.11910697684E+04  0.00000000000E+00 0. -1.
         21   -1    0    0  501  503 -0.00000000000E+00 -0.00000000000E+00 -0.80023366416E+03  0.80023366416E+03  0.00000000000E+00 0. -1.
    9000007    1    1    2  501    0 -0.23553356545E+03  0.78234762515E+03  0.55683491643E+03  0.10665875450E+04  0.40000000000E+03 0. -1.
   -9000007    1    1    2    0  502  0.23553356545E+03 -0.78234762515E+03 -0.16599881219E+03  0.92471588754E+03  0.40000000000E+03 0. -1.
<mgrwt>
<rscale>  2 0.90969438E+03</rscale>
<asrwt>0</asrwt>
<pdfrwt beam="1">  1       21 0.18324150E+00 0.90969438E+03</pdfrwt>
<pdfrwt beam="2">  1       21 0.12311287E+00 0.90969438E+03</pdfrwt>
<totfact> 0.56520523E+01</totfact>
</mgrwt>
</event>
<event>
 4    1  0.4862039E-002  0.5243512E+03  0.7818608E-02  0.1007611E+00
         21   -1    0    0  501  502  0.00000000000E+00  0.00000000000E+00  0.40906245551E+03  0.40906245551E+03  0.00000000000E+00 0. -1.
         21   -1    0    0  502  503 -0.00000000000E+00 -0.00000000000E+00 -0.67298567183E+03  0.67298567183E+03  0.00000000000E+00 0. -1.
    9000007    1    1    2  501    0  0.27713787677E+03 -0.19529151650E+03 -0.15122473451E+03  0.54572254808E+03  0.40000000000E+03 0. -1.
   -9000007    1    1    2    0  503 -0.27713787677E+03  0.19529151650E+03 -0.11269848181E+03  0.53632557925E+03  0.40000000000E+03 0. -1.
<mgrwt>
<rscale>  2 0.52435120E+03</rscale>
<asrwt>0</asrwt>
<pdfrwt beam="1">  1       21 0.62932686E-01 0.52435120E+03</pdfrwt>
<pdfrwt beam="2">  1       21 0.10353626E+00 0.52435120E+03</pdfrwt>
<totfact> 0.14743721E+03</totfact>
</mgrwt>
</event>
<event>
 4    1  0.4862039E-002  0.4139282E+03  0.7818608E-02  0.1039061E+00
         21   -1    0    0  503  502  0.00000000000E+00  0.00000000000E+00  0.31438128058E+03  0.31438128058E+03  0.00000000000E+00 0.  1.
         21   -1    0    0  501  503 -0.00000000000E+00 -0.00000000000E+00 -0.67840171732E+03  0.67840171732E+03  0.00000000000E+00 0.  1.
    9000007    1    1    2  501    0 -0.10526109480E+03  0.16019853838E+02 -0.40213458598E+03  0.57710376800E+03  0.40000000000E+03 0.  1.
   -9000007    1    1    2    0  502  0.10526109480E+03 -0.16019853838E+02  0.38114149249E+02  0.41567922990E+03  0.40000000000E+03 0.  1.
<mgrwt>
<rscale>  2 0.41392817E+03</rscale>
<asrwt>0</asrwt>
<pdfrwt beam="1">  1       21 0.48366351E-01 0.41392817E+03</pdfrwt>
<pdfrwt beam="2">  1       21 0.10436949E+00 0.41392817E+03</pdfrwt>
<totfact> 0.26595093E+03</totfact>
</mgrwt>
</event>
<event>
 4    1  0.4862039E-002  0.9132717E+03  0.7818608E-02  0.9409142E-01
         21   -1    0    0  501  502  0.00000000000E+00  0.00000000000E+00  0.15132196692E+04  0.15132196692E+04  0.00000000000E+00 0.  1.
         21   -1    0    0  502  503 -0.00000000000E+00 -0.00000000000E+00 -0.55371386329E+03  0.55371386329E+03  0.00000000000E+00 0.  1.
    9000007    1    1    2  501    0 -0.46265280918E+03  0.67824597253E+03  0.40992222687E+03  0.10010501752E+04  0.40000000000E+03 0.  1.
   -9000007    1    1    2    0  503  0.46265280918E+03 -0.67824597253E+03  0.54958357903E+03  0.10658833573E+04  0.40000000000E+03 0.  1.
<mgrwt>
<rscale>  2 0.91327171E+03</rscale>
<asrwt>0</asrwt>
<pdfrwt beam="1">  1       21 0.23280302E+00 0.91327171E+03</pdfrwt>
<pdfrwt beam="2">  1       21 0.85186749E-01 0.91327171E+03</pdfrwt>
<totfact> 0.65263831E+01</totfact>
</mgrwt>
</event>
<event>
 4    1  0.4862039E-002  0.4238932E+03  0.7818608E-02  0.1035807E+00
         21   -1    0    0  503  502  0.00000000000E+00  0.00000000000E+00  0.17147344062E+04  0.17147344062E+04  0.00000000000E+00 0.  1.
         21   -1    0    0  501  503 -0.00000000000E+00 -0.00000000000E+00 -0.14033056987E+03  0.14033056987E+03  0.00000000000E+00 0.  1.
    9000007    1    1    2  501    0 -0.13825310336E+03  0.23905697734E+02  0.12539912645E+04  0.13236991706E+04  0.40000000000E+03 0.  1.
   -9000007    1    1    2    0  502  0.13825310336E+03 -0.23905697734E+02  0.32041257186E+03  0.53136580543E+03  0.40000000000E+03 0.  1.
<mgrwt>
<rscale>  2 0.42389315E+03</rscale>
<asrwt>0</asrwt>
<pdfrwt beam="1">  1       21 0.26380528E+00 0.42389315E+03</pdfrwt>
<pdfrwt beam="2">  1       21 0.21589320E-01 0.42389315E+03</pdfrwt>
<totfact> 0.91364502E+02</totfact>
</mgrwt>
</event>
<event>
 4    1  0.4862039E-002  0.4374680E+03  0.7818608E-02  0.1031527E+00
         21   -1    0    0  503  502  0.00000000000E+00  0.00000000000E+00  0.18776204450E+03  0.18776204450E+03  0.00000000000E+00 0.  1.
         21   -1    0    0  501  503 -0.00000000000E+00 -0.00000000000E+00 -0.15770071508E+04  0.15770071508E+04  0.00000000000E+00 0.  1.
    9000007    1    1    2  501    0 -0.52486749592E+02 -0.16918448023E+03 -0.12193816344E+04  0.12954805354E+04  0.40000000000E+03 0.  1.
   -9000007    1    1    2    0  502  0.52486749592E+02  0.16918448023E+03 -0.16986347187E+03  0.46928865990E+03  0.40000000000E+03 0.  1.
<mgrwt>
<rscale>  2 0.43746800E+03</rscale>
<asrwt>0</asrwt>
<pdfrwt beam="1">  1       21 0.28886469E-01 0.43746800E+03</pdfrwt>
<pdfrwt beam="2">  1       21 0.24261648E+00 0.43746800E+03</pdfrwt>
<totfact> 0.69386536E+02</totfact>
</mgrwt>
</event>
<event>
 4    1  0.4862039E-002  0.5188685E+03  0.7818608E-02  0.1008968E+00
         21   -1    0    0  501  502  0.00000000000E+00  0.00000000000E+00  0.60163401969E+03  0.60163401969E+03  0.00000000000E+00 0. -1.
         21   -1    0    0  502  503 -0.00000000000E+00 -0.00000000000E+00 -0.70319488899E+03  0.70319488899E+03  0.00000000000E+00 0.  1.
    9000007    1    1    2  501    0  0.11908147387E+03  0.30829235138E+03  0.34263929473E+03  0.62179277708E+03  0.40000000000E+03 0. -1.
   -9000007    1    1    2    0  503 -0.11908147387E+03 -0.30829235138E+03 -0.44420016404E+03  0.68303613160E+03  0.40000000000E+03 0.  1.
<mgrwt>
<rscale>  2 0.51886855E+03</rscale>
<asrwt>0</asrwt>
<pdfrwt beam="1">  1       21 0.92559080E-01 0.51886855E+03</pdfrwt>
<pdfrwt beam="2">  1       21 0.10818383E+00 0.51886855E+03</pdfrwt>
<totfact> 0.54574852E+02</totfact>
</mgrwt>
</event>
<event>
 4    1  0.4862039E-002  0.4713542E+03  0.7818608E-02  0.1021539E+00
         21   -1    0    0  501  502  0.00000000000E+00  0.00000000000E+00  0.11200486923E+04  0.11200486923E+04  0.00000000000E+00 0. -1.
         21   -1    0    0  502  503 -0.00000000000E+00 -0.00000000000E+00 -0.20231798065E+03  0.20231798065E+03  0.00000000000E+00 0. -1.
    9000007    1    1    2  501    0  0.10986701575E+03 -0.22383934448E+03  0.55132361765E+03  0.72534994634E+03  0.40000000000E+03 0. -1.
   -9000007    1    1    2    0  503 -0.10986701575E+03  0.22383934448E+03  0.36640709396E+03  0.59701672656E+03  0.40000000000E+03 0. -1.
<mgrwt>
<rscale>  2 0.47135423E+03</rscale>
<asrwt>0</asrwt>
<pdfrwt beam="1">  1       21 0.17231518E+00 0.47135423E+03</pdfrwt>
<pdfrwt beam="2">  1       21 0.31125844E-01 0.47135423E+03</pdfrwt>
<totfact> 0.17167032E+03</totfact>
</mgrwt>
</event>
<event>
 4    1  0.4862039E-002  0.4018227E+03  0.7818608E-02  0.1043150E+00
         21   -1    0    0  503  502  0.00000000000E+00  0.00000000000E+00  0.16975110600E+03  0.16975110600E+03  0.00000000000E+00 0.  1.
         21   -1    0    0  501  503 -0.00000000000E+00 -0.00000000000E+00 -0.17124217935E+04  0.17124217935E+04  0.00000000000E+00 0.  1.
    9000007    1    1    2  501    0  0.11358513858E+02  0.36503327964E+02 -0.13988001979E+04  0.14553705722E+04  0.40000000000E+03 0.  1.
   -9000007    1    1    2    0  502 -0.11358513858E+02 -0.36503327964E+02 -0.14387048957E+03  0.42680232727E+03  0.40000000000E+03 0.  1.
<mgrwt>
<rscale>  2 0.40182273E+03</rscale>
<asrwt>0</asrwt>
<pdfrwt beam="1">  1       21 0.26115555E-01 0.40182273E+03</pdfrwt>
<pdfrwt beam="2">  1       21 0.26344950E+00 0.40182273E+03</pdfrwt>
<totfact> 0.64369416E+02</totfact>
</mgrwt>
</event>
<event>
 4    1  0.4862039E-002  0.4222226E+03  0.7818608E-02  0.1036345E+00
         21   -1    0    0  503  502  0.00000000000E+00  0.00000000000E+00  0.16993838313E+03  0.16993838313E+03  0.00000000000E+00 0.  1.
         21   -1    0    0  501  503 -0.00000000000E+00 -0.00000000000E+00 -0.11054520688E+04  0.11054520688E+04  0.00000000000E+00 0.  1.
    9000007    1    1    2  501    0 -0.58225760734E+02  0.12199044108E+03 -0.61181404833E+03  0.74336285666E+03  0.40000000000E+03 0. -1.
   -9000007    1    1    2    0  502  0.58225760734E+02 -0.12199044108E+03 -0.32369963739E+03  0.53202759531E+03  0.40000000000E+03 0. -1.
<mgrwt>
<rscale>  2 0.42222258E+03</rscale>
<asrwt>0</asrwt>
<pdfrwt beam="1">  1       21 0.26144366E-01 0.42222258E+03</pdfrwt>
<pdfrwt beam="2">  1       21 0.17006955E+00 0.42222258E+03</pdfrwt>
<totfact> 0.25661078E+03</totfact>
</mgrwt>
</event>
<event>
 4    1  0.4862039E-002  0.4281240E+03  0.7818608E-02  0.1034454E+00
         21   -1    0    0  503  502  0.00000000000E+00  0.00000000000E+00  0.26124171726E+04  0.26124171726E+04  0.00000000000E+00 0.  1.
         21   -1    0    0  501  503 -0.00000000000E+00 -0.00000000000E+00 -0.13624487196E+03  0.13624487196E+03  0.00000000000E+00 0.  1.
    9000007    1    1    2  501    0  0.90428128062E+02  0.12293469101E+03  0.28093940792E+03  0.51207141643E+03  0.40000000000E+03 0.  1.
   -9000007    1    1    2    0  502 -0.90428128062E+02 -0.12293469101E+03  0.21952328927E+04  0.22365906281E+04  0.40000000000E+03 0.  1.
<mgrwt>
<rscale>  2 0.42812403E+03</rscale>
<asrwt>0</asrwt>
<pdfrwt beam="1">  1       21 0.40191030E+00 0.42812403E+03</pdfrwt>
<pdfrwt beam="2">  1       21 0.20960751E-01 0.42812403E+03</pdfrwt>
<totfact> 0.13781585E+02</totfact>
</mgrwt>
</event>
<event>
 4    1  0.4862039E-002  0.4030369E+03  0.7818608E-02  0.1042733E+00
         21   -1    0    0  503  502  0.00000000000E+00  0.00000000000E+00  0.28508896840E+03  0.28508896840E+03  0.00000000000E+00 0. -1.
         21   -1    0    0  501  503 -0.00000000000E+00 -0.00000000000E+00 -0.95377197286E+03  0.95377197286E+03  0.00000000000E+00 0. -1.
    9000007    1    1    2  501    0  0.31747192561E+02 -0.37826561046E+02 -0.72737529370E+03  0.83157293778E+03  0.40000000000E+03 0. -1.
   -9000007    1    1    2    0  502 -0.31747192561E+02  0.37826561046E+02  0.58692289245E+02  0.40728800347E+03  0.40000000000E+03 0. -1.
<mgrwt>
<rscale>  2 0.40303689E+03</rscale>
<asrwt>0</asrwt>
<pdfrwt beam="1">  1       21 0.43859842E-01 0.40303689E+03</pdfrwt>
<pdfrwt beam="2">  1       21 0.14673415E+00 0.40303689E+03</pdfrwt>
<totfact> 0.13725028E+03</totfact>
</mgrwt>
</event>
<event>
 4    1  0.4862039E-002  0.4113567E+03  0.7818608E-02  0.1039917E+00
         21   -1    0    0  501  502  0.00000000000E+00  0.00000000000E+00  0.15554331033E+03  0.15554331033E+03  0.00000000000E+00 0. -1.
         21   -1    0    0  502  503 -0.00000000000E+00 -0.00000000000E+00 -0.11021059677E+04  0.11021059677E+04  0.00000000000E+00 0. -1.
    9000007    1    1    2  501    0 -0.93482410021E+02 -0.21803737255E+02 -0.40186927702E+03  0.57507675988E+03  0.40000000000E+03 0. -1.
   -9000007    1    1    2    0  503  0.93482410021E+02  0.21803737255E+02 -0.54469338037E+03  0.68257251817E+03  0.40000000000E+03 0. -1.
<mgrwt>
<rscale>  2 0.41135674E+03</rscale>
<asrwt>0</asrwt>
<pdfrwt beam="1">  1       21 0.23929740E-01 0.41135674E+03</pdfrwt>
<pdfrwt beam="2">  1       21 0.16955477E+00 0.41135674E+03</pdfrwt>
<totfact> 0.30879872E+03</totfact>
</mgrwt>
</event>
<event>
 4    1  0.4862039E-002  0.4380306E+03  0.7818608E-02  0.1031353E+00
         21   -1    0    0  501  502  0.00000000000E+00  0.00000000000E+00  0.65246760947E+03  0.65246760947E+03  0.00000000000E+00 0. -1.
         21   -1    0    0  502  503 -0.00000000000E+00 -0.00000000000E+00 -0.38072843677E+03  0.38072843677E+03  0.00000000000E+00 0. -1.
    9000007    1    1    2  501    0 -0.10445228634E+02  0.17821818381E+03 -0.11059343018E+03  0.45177619530E+03  0.40000000000E+03 0. -1.
   -9000007    1    1    2    0  503  0.10445228634E+02 -0.17821818381E+03  0.38233260289E+03  0.58141985094E+03  0.40000000000E+03 0. -1.
<mgrwt>
<rscale>  2 0.43803062E+03</rscale>
<asrwt>0</asrwt>
<pdfrwt beam="1">  1       21 0.10037963E+00 0.43803062E+03</pdfrwt>
<pdfrwt beam="2">  1       21 0.58573606E-01 0.43803062E+03</pdfrwt>
<totfact> 0.19215742E+03</totfact>
</mgrwt>
</event>
<event>
 4    1  0.4862039E-002  0.4224473E+03  0.7818608E-02  0.1036273E+00
         21   -1    0    0  501  502  0.00000000000E+00  0.00000000000E+00  0.67139502657E+03  0.67139502657E+03  0.00000000000E+00 0. -1.
         21   -1    0    0  502  503 -0.00000000000E+00 -0.00000000000E+00 -0.31036733475E+03  0.31036733475E+03  0.00000000000E+00 0. -1.
    9000007    1    1    2  501    0  0.12749105895E+03  0.46986578748E+02  0.36651304364E+03  0.55927946490E+03  0.40000000000E+03 0. -1.
   -9000007    1    1    2    0  503 -0.12749105895E+03 -0.46986578748E+02 -0.54853518220E+01  0.42248289643E+03  0.40000000000E+03 0. -1.
<mgrwt>
<rscale>  2 0.42244729E+03</rscale>
<asrwt>0</asrwt>
<pdfrwt beam="1">  1       21 0.10329154E+00 0.42244729E+03</pdfrwt>
<pdfrwt beam="2">  1       21 0.47748821E-01 0.42244729E+03</pdfrwt>
<totfact> 0.27937935E+03</totfact>
</mgrwt>
</event>
<event>
 4    1  0.4862039E-002  0.4370899E+03  0.7818608E-02  0.1031643E+00
         21   -1    0    0  503  502  0.00000000000E+00  0.00000000000E+00  0.94950981249E+03  0.94950981249E+03  0.00000000000E+00 0. -1.
         21   -1    0    0  501  503 -0.00000000000E+00 -0.00000000000E+00 -0.20707374353E+03  0.20707374353E+03  0.00000000000E+00 0. -1.
    9000007    1    1    2  501    0 -0.14761265361E+03 -0.96218720821E+02  0.27387567190E+03  0.51580560427E+03  0.40000000000E+03 0. -1.
   -9000007    1    1    2    0  502  0.14761265361E+03  0.96218720821E+02  0.46856039706E+03  0.64077795174E+03  0.40000000000E+03 0. -1.
<mgrwt>
<rscale>  2 0.43708985E+03</rscale>
<asrwt>0</asrwt>
<pdfrwt beam="1">  1       21 0.14607843E+00 0.43708985E+03</pdfrwt>
<pdfrwt beam="2">  1       21 0.31857500E-01 0.43708985E+03</pdfrwt>
<totfact> 0.26277021E+03</totfact>
</mgrwt>
</event>
<event>
 4    1  0.4862039E-002  0.4485202E+03  0.7818608E-02  0.1028164E+00
         21   -1    0    0  503  502  0.00000000000E+00  0.00000000000E+00  0.11514149933E+04  0.11514149933E+04  0.00000000000E+00 0.  1.
         21   -1    0    0  501  503 -0.00000000000E+00 -0.00000000000E+00 -0.19341596705E+03  0.19341596705E+03  0.00000000000E+00 0. -1.
    9000007    1    1    2  501    0 -0.13566885348E+03  0.15087866174E+03  0.26991873096E+03  0.52347543371E+03  0.40000000000E+03 0. -1.
   -9000007    1    1    2    0  502  0.13566885348E+03 -0.15087866174E+03  0.68808029529E+03  0.82135552663E+03  0.40000000000E+03 0.  1.
<mgrwt>
<rscale>  2 0.44852024E+03</rscale>
<asrwt>0</asrwt>
<pdfrwt beam="1">  1       21 0.17714076E+00 0.44852024E+03</pdfrwt>
<pdfrwt beam="2">  1       21 0.29756304E-01 0.44852024E+03</pdfrwt>
<totfact> 0.17499842E+03</totfact>
</mgrwt>
</event>
<event>
 4    1  0.4862039E-002  0.5400122E+03  0.7818608E-02  0.1003832E+00
         21   -1    0    0  501  502  0.00000000000E+00  0.00000000000E+00  0.20837567216E+03  0.20837567216E+03  0.00000000000E+00 0.  1.
         21   -1    0    0  502  503 -0.00000000000E+00 -0.00000000000E+00 -0.17473823756E+04  0.17473823756E+04  0.00000000000E+00 0.  1.
    9000007    1    1    2  501    0 -0.42696724762E+02 -0.36026408832E+03 -0.33315542431E+03  0.63451222241E+03  0.40000000000E+03 0.  1.
   -9000007    1    1    2    0  503  0.42696724762E+02  0.36026408832E+03 -0.12058512791E+04  0.13212458253E+04  0.40000000000E+03 0.  1.
<mgrwt>
<rscale>  2 0.54001224E+03</rscale>
<asrwt>0</asrwt>
<pdfrwt beam="1">  1       21 0.32057794E-01 0.54001224E+03</pdfrwt>
<pdfrwt beam="2">  1       21 0.26882807E+00 0.54001224E+03</pdfrwt>
<totfact> 0.37021932E+02</totfact>
</mgrwt>
</event>
<event>
 4    1  0.4862039E-002  0.4475787E+03  0.7818608E-02  0.1028447E+00
         21   -1    0    0  503  502  0.00000000000E+00  0.00000000000E+00  0.68141523380E+03  0.68141523380E+03  0.00000000000E+00 0. -1.
         21   -1    0    0  501  503 -0.00000000000E+00 -0.00000000000E+00 -0.29564030210E+03  0.29564030210E+03  0.00000000000E+00 0. -1.
    9000007    1    1    2  501    0  0.10402733308E+03 -0.17177023129E+03  0.22942877700E+03  0.50295552696E+03  0.40000000000E+03 0. -1.
   -9000007    1    1    2    0  502 -0.10402733308E+03  0.17177023129E+03  0.15634615470E+03  0.47410000894E+03  0.40000000000E+03 0. -1.
<mgrwt>
<rscale>  2 0.44757871E+03</rscale>
<asrwt>0</asrwt>
<pdfrwt beam="1">  1       21 0.10483311E+00 0.44757871E+03</pdfrwt>
<pdfrwt beam="2">  1       21 0.45483124E-01 0.44757871E+03</pdfrwt>
<totfact> 0.29562932E+03</totfact>
</mgrwt>
</event>
<event>
 4    1  0.4862039E-002  0.5060273E+03  0.7818608E-02  0.1012218E+00
         21   -1    0    0  503  502  0.00000000000E+00  0.00000000000E+00  0.70434813840E+03  0.70434813840E+03  0.00000000000E+00 0. -1.
         21   -1    0    0  501  503 -0.00000000000E+00 -0.00000000000E+00 -0.39386091688E+03  0.39386091688E+03  0.00000000000E+00 0. -1.
    9000007    1    1    2  501    0 -0.56921063433E+02 -0.30466976969E+03  0.29069711876E+01  0.50603569687E+03  0.40000000000E+03 0.  1.
   -9000007    1    1    2    0  502  0.56921063433E+02  0.30466976969E+03  0.30758025033E+03  0.59217335841E+03  0.40000000000E+03 0.  1.
<mgrwt>
<rscale>  2 0.50602735E+03</rscale>
<asrwt>0</asrwt>
<pdfrwt beam="1">  1       21 0.10836125E+00 0.50602735E+03</pdfrwt>
<pdfrwt beam="2">  1       21 0.60593987E-01 0.50602735E+03</pdfrwt>
<totfact> 0.14411010E+03</totfact>
</mgrwt>
</event>
<event>
 4    1  0.4862039E-002  0.4207723E+03  0.7818608E-02  0.1036815E+00
         21   -1    0    0  501  502  0.00000000000E+00  0.00000000000E+00  0.28502581218E+03  0.28502581218E+03  0.00000000000E+00 0. -1.
         21   -1    0    0  502  503 -0.00000000000E+00 -0.00000000000E+00 -0.65820647784E+03  0.65820647784E+03  0.00000000000E+00 0. -1.
    9000007    1    1    2  501    0  0.12941863026E+03  0.17325617528E+02 -0.74717407124E+02  0.42735471193E+03  0.40000000000E+03 0. -1.
   -9000007    1    1    2    0  503 -0.12941863026E+03 -0.17325617528E+02 -0.29846325854E+03  0.51587757809E+03  0.40000000000E+03 0. -1.
<mgrwt>
<rscale>  2 0.42077234E+03</rscale>
<asrwt>0</asrwt>
<pdfrwt beam="1">  1       21 0.43850125E-01 0.42077234E+03</pdfrwt>
<pdfrwt beam="2">  1       21 0.10126253E+00 0.42077234E+03</pdfrwt>
<totfact> 0.35082944E+03</totfact>
</mgrwt>
</event>
<event>
 4    1  0.4862039E-002  0.5679899E+03  0.7818608E-02  0.9974137E-01
         21   -1    0    0  503  502  0.00000000000E+00  0.00000000000E+00  0.47342262254E+03  0.47342262254E+03  0.00000000000E+00 0. -1.
         21   -1    0    0  501  503 -0.00000000000E+00 -0.00000000000E+00 -0.89261925022E+03  0.89261925022E+03  0.00000000000E+00 0.  1.
    9000007    1    1    2  501    0 -0.39899212935E+03 -0.58461543770E+02 -0.54181329796E+03  0.78496759247E+03  0.40000000000E+03 0.  1.
   -9000007    1    1    2    0  502  0.39899212935E+03  0.58461543770E+02  0.12261667027E+03  0.58107428029E+03  0.40000000000E+03 0. -1.
<mgrwt>
<rscale>  2 0.56798985E+03</rscale>
<asrwt>0</asrwt>
<pdfrwt beam="1">  1       21 0.72834250E-01 0.56798985E+03</pdfrwt>
<pdfrwt beam="2">  1       21 0.13732604E+00 0.56798985E+03</pdfrwt>
<totfact> 0.50873982E+02</totfact>
</mgrwt>
</event>
<event>
 4    1  0.4862039E-002  0.4522332E+03  0.7818608E-02  0.1027058E+00
         21   -1    0    0  503  502  0.00000000000E+00  0.00000000000E+00  0.37673293894E+03  0.37673293894E+03  0.00000000000E+00 0.  1.
         21   -1    0    0  501  503 -0.00000000000E+00 -0.00000000000E+00 -0.58139518283E+03  0.58139518283E+03  0.00000000000E+00 0.  1.
    9000007    1    1    2  501    0  0.35402511011E+02 -0.20799405247E+03 -0.22565930976E+03  0.50540774403E+03  0.40000000000E+03 0.  1.
   -9000007    1    1    2    0  502 -0.35402511011E+02  0.20799405247E+03  0.20997065871E+02  0.45272037774E+03  0.40000000000E+03 0.  1.
<mgrwt>
<rscale>  2 0.45223320E+03</rscale>
<asrwt>0</asrwt>
<pdfrwt beam="1">  1       21 0.57958913E-01 0.45223320E+03</pdfrwt>
<pdfrwt beam="2">  1       21 0.89445413E-01 0.45223320E+03</pdfrwt>
<totfact> 0.25781984E+03</totfact>
</mgrwt>
</event>
<event>
 4    1  0.4862039E-002  0.5177868E+03  0.7818608E-02  0.1009238E+00
         21   -1    0    0  501  502  0.00000000000E+00  0.00000000000E+00  0.13260824148E+04  0.13260824148E+04  0.00000000000E+00 0.  1.
         21   -1    0    0  502  503 -0.00000000000E+00 -0.00000000000E+00 -0.39335324157E+03  0.39335324157E+03  0.00000000000E+00 0.  1.
    9000007    1    1    2  501    0 -0.30726562240E+02  0.32735154916E+03  0.10657162325E+04  0.11848435537E+04  0.40000000000E+03 0.  1.
   -9000007    1    1    2    0  503  0.30726562240E+02 -0.32735154916E+03 -0.13298705928E+03  0.53459210273E+03  0.40000000000E+03 0.  1.
<mgrwt>
<rscale>  2 0.51778679E+03</rscale>
<asrwt>0</asrwt>
<pdfrwt beam="1">  1       21 0.20401268E+00 0.51778679E+03</pdfrwt>
<pdfrwt beam="2">  1       21 0.60515884E-01 0.51778679E+03</pdfrwt>
<totfact> 0.25290494E+02</totfact>
</mgrwt>
</event>
<event>
 4    1  0.4862039E-002  0.4472047E+03  0.7818608E-02  0.1028559E+00
         21   -1    0    0  503  502  0.00000000000E+00  0.00000000000E+00  0.89550992145E+03  0.89550992145E+03  0.00000000000E+00 0. -1.
         21   -1    0    0  501  503 -0.00000000000E+00 -0.00000000000E+00 -0.35596203358E+03  0.35596203358E+03  0.00000000000E+00 0.  1.
    9000007    1    1    2  501    0 -0.17636303888E+03 -0.94276864304E+02 -0.11218570906E+03  0.46106147306E+03  0.40000000000E+03 0.  1.
   -9000007    1    1    2    0  502  0.17636303888E+03  0.94276864304E+02  0.65173359694E+03  0.79041048197E+03  0.40000000000E+03 0. -1.
<mgrwt>
<rscale>  2 0.44720471E+03</rscale>
<asrwt>0</asrwt>
<pdfrwt beam="1">  1       21 0.13777076E+00 0.44720471E+03</pdfrwt>
<pdfrwt beam="2">  1       21 0.54763390E-01 0.44720471E+03</pdfrwt>
<totfact> 0.99489073E+02</totfact>
</mgrwt>
</event>
<event>
 4    1  0.4862039E-002  0.4388354E+03  0.7818608E-02  0.1031105E+00
         21   -1    0    0  501  502  0.00000000000E+00  0.00000000000E+00  0.16929045371E+03  0.16929045371E+03  0.00000000000E+00 0.  1.
         21   -1    0    0  502  503 -0.00000000000E+00 -0.00000000000E+00 -0.11899864166E+04  0.11899864166E+04  0.00000000000E+00 0. -1.
    9000007    1    1    2  501    0  0.13599029394E+02  0.17997658237E+03 -0.36768220417E+03  0.57250913274E+03  0.40000000000E+03 0. -1.
   -9000007    1    1    2    0  503 -0.13599029394E+02 -0.17997658237E+03 -0.65301375868E+03  0.78676773753E+03  0.40000000000E+03 0. -1.
<mgrwt>
<rscale>  2 0.43883539E+03</rscale>
<asrwt>0</asrwt>
<pdfrwt beam="1">  1       21 0.26044686E-01 0.43883539E+03</pdfrwt>
<pdfrwt beam="2">  1       21 0.18307483E+00 0.43883539E+03</pdfrwt>
<totfact> 0.20745975E+03</totfact>
</mgrwt>
</event>
<event>
 4    1  0.4862039E-002  0.4029562E+03  0.7818608E-02  0.1042761E+00
         21   -1    0    0  503  502  0.00000000000E+00  0.00000000000E+00  0.80138494854E+03  0.80138494854E+03  0.00000000000E+00 0. -1.
         21   -1    0    0  501  503 -0.00000000000E+00 -0.00000000000E+00 -0.22640154519E+03  0.22640154519E+03  0.00000000000E+00 0. -1.
    9000007    1    1    2  501    0 -0.31622227088E+02  0.37064308519E+02  0.12092576994E+03  0.42070984068E+03  0.40000000000E+03 0. -1.
   -9000007    1    1    2    0  502  0.31622227088E+02 -0.37064308519E+02  0.45405763341E+03  0.60707665304E+03  0.40000000000E+03 0. -1.
<mgrwt>
<rscale>  2 0.40295624E+03</rscale>
<asrwt>0</asrwt>
<pdfrwt beam="1">  1       21 0.12328999E+00 0.40295624E+03</pdfrwt>
<pdfrwt beam="2">  1       21 0.34831007E-01 0.40295624E+03</pdfrwt>
<totfact> 0.34708296E+03</totfact>
</mgrwt>
</event>
<event>
 4    1  0.4862039E-002  0.4563348E+03  0.7818608E-02  0.1025850E+00
         21   -1    0    0  501  502  0.00000000000E+00  0.00000000000E+00  0.72607153531E+03  0.72607153531E+03  0.00000000000E+00 0.  1.
         21   -1    0    0  502  503 -0.00000000000E+00 -0.00000000000E+00 -0.10444431934E+04  0.10444431934E+04  0.00000000000E+00 0.  1.
    9000007    1    1    2  501    0 -0.21453327716E+03 -0.47084086886E+02  0.59479077900E+03  0.74967827034E+03  0.40000000000E+03 0.  1.
   -9000007    1    1    2    0  503  0.21453327716E+03  0.47084086886E+02 -0.91316243711E+03  0.10208364584E+04  0.40000000000E+03 0.  1.
<mgrwt>
<rscale>  2 0.45633479E+03</rscale>
<asrwt>0</asrwt>
<pdfrwt beam="1">  1       21 0.11170331E+00 0.45633479E+03</pdfrwt>
<pdfrwt beam="2">  1       21 0.16068357E+00 0.45633479E+03</pdfrwt>
<totfact> 0.12576577E+02</totfact>
</mgrwt>
</event>
<event>
 4    1  0.4862039E-002  0.4661885E+03  0.7818608E-02  0.1023002E+00
         21   -1    0    0  503  502  0.00000000000E+00  0.00000000000E+00  0.10135498964E+03  0.10135498964E+03  0.00000000000E+00 0.  1.
         21   -1    0    0  501  503 -0.00000000000E+00 -0.00000000000E+00 -0.24892440279E+04  0.24892440279E+04  0.00000000000E+00 0. -1.
    9000007    1    1    2  501    0 -0.15638162758E+03 -0.18131889363E+03 -0.71173690155E+03  0.85082381940E+03  0.40000000000E+03 0. -1.
   -9000007    1    1    2    0  502  0.15638162758E+03  0.18131889363E+03 -0.16761521367E+04  0.17397751981E+04  0.40000000000E+03 0.  1.
<mgrwt>
<rscale>  2 0.46618854E+03</rscale>
<asrwt>0</asrwt>
<pdfrwt beam="1">  1       21 0.15593077E-01 0.46618854E+03</pdfrwt>
<pdfrwt beam="2">  1       21 0.38296059E+00 0.46618854E+03</pdfrwt>
<totfact> 0.30976894E+02</totfact>
</mgrwt>
</event>
<event>
 4    1  0.4862039E-002  0.4017763E+03  0.7818608E-02  0.1043166E+00
         21   -1    0    0  503  502  0.00000000000E+00  0.00000000000E+00  0.13353785697E+04  0.13353785697E+04  0.00000000000E+00 0. -1.
         21   -1    0    0  501  503 -0.00000000000E+00 -0.00000000000E+00 -0.19041107176E+03  0.19041107176E+03  0.00000000000E+00 0. -1.
    9000007    1    1    2  501    0  0.15337899380E+02  0.34480811019E+02  0.11148518476E+03  0.41695698088E+03  0.40000000000E+03 0. -1.
   -9000007    1    1    2    0  502 -0.15337899380E+02 -0.34480811019E+02  0.10334823132E+04  0.11088326605E+04  0.40000000000E+03 0. -1.
<mgrwt>
<rscale>  2 0.40177628E+03</rscale>
<asrwt>0</asrwt>
<pdfrwt beam="1">  1       21 0.20544285E+00 0.40177628E+03</pdfrwt>
<pdfrwt beam="2">  1       21 0.29294012E-01 0.40177628E+03</pdfrwt>
<totfact> 0.11832389E+03</totfact>
</mgrwt>
</event>
<event>
 4    1  0.4862039E-002  0.4309969E+03  0.7818608E-02  0.1033546E+00
         21   -1    0    0  501  502  0.00000000000E+00  0.00000000000E+00  0.13483153299E+04  0.13483153299E+04  0.00000000000E+00 0. -1.
         21   -1    0    0  502  503 -0.00000000000E+00 -0.00000000000E+00 -0.14902041236E+03  0.14902041236E+03  0.00000000000E+00 0. -1.
    9000007    1    1    2  501    0  0.92943504785E+02  0.13084271507E+03  0.80534899499E+03  0.91342504614E+03  0.40000000000E+03 0. -1.
   -9000007    1    1    2    0  503 -0.92943504785E+02 -0.13084271507E+03  0.39394592258E+03  0.58391069616E+03  0.40000000000E+03 0. -1.
<mgrwt>
<rscale>  2 0.43099688E+03</rscale>
<asrwt>0</asrwt>
<pdfrwt beam="1">  1       21 0.20743312E+00 0.43099688E+03</pdfrwt>
<pdfrwt beam="2">  1       21 0.22926218E-01 0.43099688E+03</pdfrwt>
<totfact> 0.18263255E+03</totfact>
</mgrwt>
</event>
<event>
 4    1  0.4862039E-002  0.5499267E+03  0.7818608E-02  0.1001511E+00
         21   -1    0    0  503  502  0.00000000000E+00  0.00000000000E+00  0.41249598118E+03  0.41249598118E+03  0.00000000000E+00 0. -1.
         21   -1    0    0  501  503 -0.00000000000E+00 -0.00000000000E+00 -0.74456559641E+03  0.74456559641E+03  0.00000000000E+00 0. -1.
    9000007    1    1    2  501    0  0.27533669692E+03 -0.25808744017E+03 -0.23768489822E+03  0.59909392777E+03  0.40000000000E+03 0. -1.
   -9000007    1    1    2    0  502 -0.27533669692E+03  0.25808744017E+03 -0.94384717000E+02  0.55796764982E+03  0.40000000000E+03 0. -1.
<mgrwt>
<rscale>  2 0.54992674E+03</rscale>
<asrwt>0</asrwt>
<pdfrwt beam="1">  1       21 0.63460921E-01 0.54992674E+03</pdfrwt>
<pdfrwt beam="2">  1       21 0.11454855E+00 0.54992674E+03</pdfrwt>
<totfact> 0.11158627E+03</totfact>
</mgrwt>
</event>
<event>
 4    1  0.4862039E-002  0.4019770E+03  0.7818608E-02  0.1043097E+00
         21   -1    0    0  503  502  0.00000000000E+00  0.00000000000E+00  0.23940040040E+03  0.23940040040E+03  0.00000000000E+00 0.  1.
         21   -1    0    0  501  503 -0.00000000000E+00 -0.00000000000E+00 -0.76367953502E+03  0.76367953502E+03  0.00000000000E+00 0.  1.
    9000007    1    1    2  501    0  0.39004727558E+02  0.80078327712E+01 -0.91192503565E+02  0.41219117757E+03  0.40000000000E+03 0.  1.
   -9000007    1    1    2    0  502 -0.39004727558E+02 -0.80078327712E+01 -0.43308663106E+03  0.59088875786E+03  0.40000000000E+03 0.  1.
<mgrwt>
<rscale>  2 0.40197698E+03</rscale>
<asrwt>0</asrwt>
<pdfrwt beam="1">  1       21 0.36830831E-01 0.40197698E+03</pdfrwt>
<pdfrwt beam="2">  1       21 0.11748916E+00 0.40197698E+03</pdfrwt>
<totfact> 0.35044539E+03</totfact>
</mgrwt>
</event>
<event>
 4    1  0.4862039E-002  0.8157736E+03  0.7818608E-02  0.9537462E-01
         21   -1    0    0  503  502  0.00000000000E+00  0.00000000000E+00  0.88036224211E+03  0.88036224211E+03  0.00000000000E+00 0.  1.
         21   -1    0    0  501  503 -0.00000000000E+00 -0.00000000000E+00 -0.11746425154E+04  0.11746425154E+04  0.00000000000E+00 0. -1.
    9000007    1    1    2  501    0  0.31593760329E+03  0.63692228618E+03  0.46632697443E+03  0.93965281615E+03  0.40000000000E+03 0.  1.
   -9000007    1    1    2    0  502 -0.31593760329E+03 -0.63692228618E+03 -0.76060724773E+03  0.11153519414E+04  0.40000000000E+03 0. -1.
<mgrwt>
<rscale>  2 0.81577360E+03</rscale>
<asrwt>0</asrwt>
<pdfrwt beam="1">  1       21 0.13544035E+00 0.81577360E+03</pdfrwt>
<pdfrwt beam="2">  1       21 0.18071423E+00 0.81577360E+03</pdfrwt>
<totfact> 0.47095514E+01</totfact>
</mgrwt>
</event>
<event>
 4    1  0.4862039E-002  0.5508567E+03  0.7818608E-02  0.1001296E+00
         21   -1    0    0  503  502  0.00000000000E+00  0.00000000000E+00  0.17348106484E+04  0.17348106484E+04  0.00000000000E+00 0.  1.
         21   -1    0    0  501  503 -0.00000000000E+00 -0.00000000000E+00 -0.17550649994E+03  0.17550649994E+03  0.00000000000E+00 0. -1.
    9000007    1    1    2  501    0 -0.35229665074E+03 -0.13903319165E+03  0.72416781986E+03  0.90986932569E+03  0.40000000000E+03 0.  1.
   -9000007    1    1    2    0  502  0.35229665074E+03  0.13903319165E+03  0.83513632857E+03  0.10004478226E+04  0.40000000000E+03 0.  1.
<mgrwt>
<rscale>  2 0.55085675E+03</rscale>
<asrwt>0</asrwt>
<pdfrwt beam="1">  1       21 0.26689393E+00 0.55085675E+03</pdfrwt>
<pdfrwt beam="2">  1       21 0.27001001E-01 0.55085675E+03</pdfrwt>
<totfact> 0.53283585E+02</totfact>
</mgrwt>
</event>
<event>
 4    1  0.4862039E-002  0.4264207E+03  0.7818608E-02  0.1034997E+00
         21   -1    0    0  503  502  0.00000000000E+00  0.00000000000E+00  0.30059083226E+03  0.30059083226E+03  0.00000000000E+00 0.  1.
         21   -1    0    0  501  503 -0.00000000000E+00 -0.00000000000E+00 -0.11637499003E+04  0.11637499003E+04  0.00000000000E+00 0.  1.
    9000007    1    1    2  501    0  0.13801820037E+03 -0.52778511908E+02 -0.93894464525E+03  0.10312379172E+04  0.40000000000E+03 0.  1.
   -9000007    1    1    2    0  502 -0.13801820037E+03  0.52778511908E+02  0.75785577255E+02  0.43310281536E+03  0.40000000000E+03 0.  1.
<mgrwt>
<rscale>  2 0.42642068E+03</rscale>
<asrwt>0</asrwt>
<pdfrwt beam="1">  1       21 0.46244743E-01 0.42642068E+03</pdfrwt>
<pdfrwt beam="2">  1       21 0.17903845E+00 0.42642068E+03</pdfrwt>
<totfact> 0.69722481E+02</totfact>
</mgrwt>
</event>
<event>
 4    1  0.4862039E-002  0.7177548E+03  0.7818608E-02  0.9687342E-01
         21   -1    0    0  503  502  0.00000000000E+00  0.00000000000E+00  0.26201353792E+04  0.26201353792E+04  0.00000000000E+00 0. -1.
         21   -1    0    0  501  503 -0.00000000000E+00 -0.00000000000E+00 -0.24537724037E+03  0.24537724037E+03  0.00000000000E+00 0.  1.
    9000007    1    1    2  501    0 -0.16253987714E+03  0.57336963062E+03  0.54871398511E+03  0.90347052106E+03  0.40000000000E+03 0.  1.
   -9000007    1    1    2    0  502  0.16253987714E+03 -0.57336963062E+03  0.18260441537E+04  0.19620420985E+04  0.40000000000E+03 0. -1.
<mgrwt>
<rscale>  2 0.71775479E+03</rscale>
<asrwt>0</asrwt>
<pdfrwt beam="1">  1       21 0.40309773E+00 0.71775479E+03</pdfrwt>
<pdfrwt beam="2">  1       21 0.37750346E-01 0.71775479E+03</pdfrwt>
<totfact> 0.35835737E+01</totfact>
</mgrwt>
</event>
<event>
 4    1  0.4862039E-002  0.5001295E+03  0.7818608E-02  0.1013745E+00
         21   -1    0    0  501  502  0.00000000000E+00  0.00000000000E+00  0.11930163009E+03  0.11930163009E+03  0.00000000000E+00 0.  1.
         21   -1    0    0  502  503 -0.00000000000E+00 -0.00000000000E+00 -0.22755581940E+04  0.22755581940E+04  0.00000000000E+00 0. -1.
    9000007    1    1    2  501    0 -0.18982132912E+03 -0.23258848395E+03 -0.74234103070E+03  0.89509761798E+03  0.40000000000E+03 0.  1.
   -9000007    1    1    2    0  503  0.18982132912E+03  0.23258848395E+03 -0.14139155332E+04  0.14997622062E+04  0.40000000000E+03 0. -1.
<mgrwt>
<rscale>  2 0.50012952E+03</rscale>
<asrwt>0</asrwt>
<pdfrwt beam="1">  1       21 0.18354099E-01 0.50012952E+03</pdfrwt>
<pdfrwt beam="2">  1       21 0.35008584E+00 0.50012952E+03</pdfrwt>
<totfact> 0.35843995E+02</totfact>
</mgrwt>
</event>
<event>
 4    1  0.4862039E-002  0.4024875E+03  0.7818608E-02  0.1042922E+00
         21   -1    0    0  503  502  0.00000000000E+00  0.00000000000E+00  0.12116036144E+03  0.12116036144E+03  0.00000000000E+00 0.  1.
         21   -1    0    0  501  503 -0.00000000000E+00 -0.00000000000E+00 -0.14272667703E+04  0.14272667703E+04  0.00000000000E+00 0.  1.
    9000007    1    1    2  501    0  0.44678288185E+02 -0.30717795633E-01 -0.84771372375E+03  0.93841073513E+03  0.40000000000E+03 0.  1.
   -9000007    1    1    2    0  502 -0.44678288185E+02  0.30717795633E-01 -0.45839268511E+03  0.61001639662E+03  0.40000000000E+03 0.  1.
<mgrwt>
<rscale>  2 0.40248745E+03</rscale>
<asrwt>0</asrwt>
<pdfrwt beam="1">  1       21 0.18640055E-01 0.40248745E+03</pdfrwt>
<pdfrwt beam="2">  1       21 0.21957951E+00 0.40248745E+03</pdfrwt>
<totfact> 0.22929310E+03</totfact>
</mgrwt>
</event>
<event>
 4    1  0.4862039E-002  0.5161856E+03  0.7818608E-02  0.1009639E+00
         21   -1    0    0  503  502  0.00000000000E+00  0.00000000000E+00  0.74612648975E+03  0.74612648975E+03  0.00000000000E+00 0.  1.
         21   -1    0    0  501  503 -0.00000000000E+00 -0.00000000000E+00 -0.35935682887E+03  0.35935682887E+03  0.00000000000E+00 0.  1.
    9000007    1    1    2  501    0  0.15563385418E+03  0.28675017403E+03  0.23711293936E+03  0.56804058384E+03  0.40000000000E+03 0.  1.
   -9000007    1    1    2    0  502 -0.15563385418E+03 -0.28675017403E+03  0.14965672151E+03  0.53744273478E+03  0.40000000000E+03 0.  1.
<mgrwt>
<rscale>  2 0.51618559E+03</rscale>
<asrwt>0</asrwt>
<pdfrwt beam="1">  1       21 0.11478869E+00 0.51618559E+03</pdfrwt>
<pdfrwt beam="2">  1       21 0.55285666E-01 0.51618559E+03</pdfrwt>
<totfact> 0.15194629E+03</totfact>
</mgrwt>
</event>
<event>
 4    1  0.4862039E-002  0.4014411E+03  0.7818608E-02  0.1043282E+00
         21   -1    0    0  501  502  0.00000000000E+00  0.00000000000E+00  0.69441037290E+03  0.69441037290E+03  0.00000000000E+00 0.  1.
         21   -1    0    0  502  503 -0.00000000000E+00 -0.00000000000E+00 -0.62258945612E+03  0.62258945612E+03  0.00000000000E+00 0.  1.
    9000007    1    1    2  501    0  0.28837933097E+02  0.17980712105E+02  0.55743371991E+03  0.68694052471E+03  0.40000000000E+03 0.  1.
   -9000007    1    1    2    0  503 -0.28837933097E+02 -0.17980712105E+02 -0.48561280313E+03  0.63005930432E+03  0.40000000000E+03 0.  1.
<mgrwt>
<rscale>  2 0.40144107E+03</rscale>
<asrwt>0</asrwt>
<pdfrwt beam="1">  1       21 0.10683236E+00 0.40144107E+03</pdfrwt>
<pdfrwt beam="2">  1       21 0.95782993E-01 0.40144107E+03</pdfrwt>
<totfact> 0.54614346E+02</totfact>
</mgrwt>
</event>
<event>
 4    1  0.4862039E-002  0.4350381E+03  0.7818608E-02  0.1032280E+00
         21   -1    0    0  501  502  0.00000000000E+00  0.00000000000E+00  0.11310743805E+04  0.11310743805E+04  0.00000000000E+00 0.  1.
         21   -1    0    0  502  503 -0.00000000000E+00 -0.00000000000E+00 -0.20147243696E+03  0.20147243696E+03  0.00000000000E+00 0.  1.
    9000007    1    1    2  501    0 -0.11038544328E+03  0.13066435846E+03  0.73909574549E+03  0.85762500060E+03  0.40000000000E+03 0.  1.
   -9000007    1    1    2    0  503  0.11038544328E+03 -0.13066435846E+03  0.19050619810E+03  0.47492181691E+03  0.40000000000E+03 0.  1.
<mgrwt>
<rscale>  2 0.43503807E+03</rscale>
<asrwt>0</asrwt>
<pdfrwt beam="1">  1       21 0.17401144E+00 0.43503807E+03</pdfrwt>
<pdfrwt beam="2">  1       21 0.30995760E-01 0.43503807E+03</pdfrwt>
<totfact> 0.17086366E+03</totfact>
</mgrwt>
</event>
<event>
 4    1  0.4862039E-002  0.4044900E+03  0.7818608E-02  0.1042236E+00
         21   -1    0    0  503  502  0.00000000000E+00  0.00000000000E+00  0.32653723140E+03  0.32653723140E+03  0.00000000000E+00 0. -1.
         21   -1    0    0  501  503 -0.00000000000E+00 -0.00000000000E+00 -0.56333259850E+03  0.56333259850E+03  0.00000000000E+00 0. -1.
    9000007    1    1    2  501    0  0.37932242067E+02  0.46618592510E+02 -0.26633926975E+03  0.48430233818E+03  0.40000000000E+03 0.  1.
   -9000007    1    1    2    0  502 -0.37932242067E+02 -0.46618592510E+02  0.29543902648E+02  0.40556749172E+03  0.40000000000E+03 0.  1.
<mgrwt>
<rscale>  2 0.40448999E+03</rscale>
<asrwt>0</asrwt>
<pdfrwt beam="1">  1       21 0.50236498E-01 0.40448999E+03</pdfrwt>
<pdfrwt beam="2">  1       21 0.86666552E-01 0.40448999E+03</pdfrwt>
<totfact> 0.38442633E+03</totfact>
</mgrwt>
</event>
<event>
 4    1  0.4862039E-002  0.4230635E+03  0.7818608E-02  0.1036074E+00
         21   -1    0    0  503  502  0.00000000000E+00  0.00000000000E+00  0.89619509487E+03  0.89619509487E+03  0.00000000000E+00 0. -1.
         21   -1    0    0  501  503 -0.00000000000E+00 -0.00000000000E+00 -0.21326453859E+03  0.21326453859E+03  0.00000000000E+00 0. -1.
    9000007    1    1    2  501    0  0.10150884070E+03  0.93159282314E+02  0.20163518288E+03  0.46865706396E+03  0.40000000000E+03 0. -1.
   -9000007    1    1    2    0  502 -0.10150884070E+03 -0.93159282314E+02  0.48129537340E+03  0.64080256950E+03  0.40000000000E+03 0. -1.
<mgrwt>
<rscale>  2 0.42306347E+03</rscale>
<asrwt>0</asrwt>
<pdfrwt beam="1">  1       21 0.13787617E+00 0.42306347E+03</pdfrwt>
<pdfrwt beam="2">  1       21 0.32809929E-01 0.42306347E+03</pdfrwt>
<totfact> 0.29062084E+03</totfact>
</mgrwt>
</event>
<event>
 4    1  0.4862039E-002  0.4057289E+03  0.7818608E-02  0.1041814E+00
         21   -1    0    0  503  502  0.00000000000E+00  0.00000000000E+00  0.28982322807E+03  0.28982322807E+03  0.00000000000E+00 0.  1.
         21   -1    0    0  501  503 -0.00000000000E+00 -0.00000000000E+00 -0.64759662662E+03  0.64759662662E+03  0.00000000000E+00 0.  1.
    9000007    1    1    2  501    0  0.56145650799E+02  0.38257282516E+02 -0.34322297957E+03  0.53143011533E+03  0.40000000000E+03 0.  1.
   -9000007    1    1    2    0  502 -0.56145650799E+02 -0.38257282516E+02 -0.14550418979E+02  0.40598973936E+03  0.40000000000E+03 0.  1.
<mgrwt>
<rscale>  2 0.40572892E+03</rscale>
<asrwt>0</asrwt>
<pdfrwt beam="1">  1       21 0.44588190E-01 0.40572892E+03</pdfrwt>
<pdfrwt beam="2">  1       21 0.99630248E-01 0.40572892E+03</pdfrwt>
<totfact> 0.35451062E+03</totfact>
</mgrwt>
</event>
<event>
 4    1  0.4862039E-002  0.5406867E+03  0.7818608E-02  0.1003673E+00
         21   -1    0    0  503  502  0.00000000000E+00  0.00000000000E+00  0.41446892109E+03  0.41446892109E+03  0.00000000000E+00 0. -1.
         21   -1    0    0  501  503 -0.00000000000E+00 -0.00000000000E+00 -0.91289712460E+03  0.91289712460E+03  0.00000000000E+00 0. -1.
    9000007    1    1    2  501    0 -0.24186968808E+03 -0.27173732166E+03 -0.56567282669E+03  0.78251381128E+03  0.40000000000E+03 0. -1.
   -9000007    1    1    2    0  502  0.24186968808E+03  0.27173732166E+03  0.67244623184E+02  0.54485223441E+03  0.40000000000E+03 0. -1.
<mgrwt>
<rscale>  2 0.54068671E+03</rscale>
<asrwt>0</asrwt>
<pdfrwt beam="1">  1       21 0.63764450E-01 0.54068671E+03</pdfrwt>
<pdfrwt beam="2">  1       21 0.14044571E+00 0.54068671E+03</pdfrwt>
<totfact> 0.65276228E+02</totfact>
</mgrwt>
</event>
<event>
 4    1  0.4862039E-002  0.4392819E+03  0.7818608E-02  0.1030967E+00
         21   -1    0    0  503  502  0.00000000000E+00  0.00000000000E+00  0.94650708536E+03  0.94650708536E+03  0.00000000000E+00 0. -1.
         21   -1    0    0  501  503 -0.00000000000E+00 -0.00000000000E+00 -0.21234909897E+03  0.21234909897E+03  0.00000000000E+00 0. -1.
    9000007    1    1    2  501    0 -0.18148417780E+03 -0.56632149638E+01  0.25132497413E+03  0.50609566429E+03  0.40000000000E+03 0. -1.
   -9000007    1    1    2    0  502  0.18148417780E+03  0.56632149638E+01  0.48283301226E+03  0.65276052004E+03  0.40000000000E+03 0. -1.
<mgrwt>
<rscale>  2 0.43928189E+03</rscale>
<asrwt>0</asrwt>
<pdfrwt beam="1">  1       21 0.14561647E+00 0.43928189E+03</pdfrwt>
<pdfrwt beam="2">  1       21 0.32669092E-01 0.43928189E+03</pdfrwt>
<totfact> 0.25178120E+03</totfact>
</mgrwt>
</event>
<event>
 4    1  0.4862039E-002  0.4212951E+03  0.7818608E-02  0.1036646E+00
         21   -1    0    0  501  502  0.00000000000E+00  0.00000000000E+00  0.24423054640E+04  0.24423054640E+04  0.00000000000E+00 0. -1.
         21   -1    0    0  502  503 -0.00000000000E+00 -0.00000000000E+00 -0.87674581501E+02  0.87674581501E+02  0.00000000000E+00 0.  1.
    9000007    1    1    2  501    0  0.77107987050E+02 -0.10744265214E+03  0.17005776425E+04  0.17519856973E+04  0.40000000000E+03 0. -1.
   -9000007    1    1    2    0  503 -0.77107987050E+02  0.10744265214E+03  0.65405323996E+03  0.77799434822E+03  0.40000000000E+03 0.  1.
<mgrwt>
<rscale>  2 0.42129510E+03</rscale>
<asrwt>0</asrwt>
<pdfrwt beam="1">  1       21 0.37573925E+00 0.42129510E+03</pdfrwt>
<pdfrwt beam="2">  1       21 0.13488399E-01 0.42129510E+03</pdfrwt>
<totfact> 0.46282631E+02</totfact>
</mgrwt>
</event>
<event>
 4    1  0.4862039E-002  0.4422177E+03  0.7818608E-02  0.1030069E+00
         21   -1    0    0  501  502  0.00000000000E+00  0.00000000000E+00  0.23368433737E+04  0.23368433737E+04  0.00000000000E+00 0.  1.
         21   -1    0    0  502  503 -0.00000000000E+00 -0.00000000000E+00 -0.86187616151E+02  0.86187616151E+02  0.00000000000E+00 0.  1.
    9000007    1    1    2  501    0  0.18523058098E+03 -0.35299939027E+02  0.13318128493E+04  0.14033110558E+04  0.40000000000E+03 0.  1.
   -9000007    1    1    2    0  503 -0.18523058098E+03  0.35299939027E+02  0.91884290827E+03  0.10197199341E+04  0.40000000000E+03 0.  1.
<mgrwt>
<rscale>  2 0.44221765E+03</rscale>
<asrwt>0</asrwt>
<pdfrwt beam="1">  1       21 0.35951432E+00 0.44221765E+03</pdfrwt>
<pdfrwt beam="2">  1       21 0.13259635E-01 0.44221765E+03</pdfrwt>
<totfact> 0.59444330E+02</totfact>
</mgrwt>
</event>
<event>
 4    1  0.4862039E-002  0.5488944E+03  0.7818608E-02  0.1001750E+00
         21   -1    0    0  501  502  0.00000000000E+00  0.00000000000E+00  0.14662121973E+04  0.14662121973E+04  0.00000000000E+00 0.  1.
         21   -1    0    0  502  503 -0.00000000000E+00 -0.00000000000E+00 -0.67919875247E+03  0.67919875247E+03  0.00000000000E+00 0.  1.
    9000007    1    1    2  501    0  0.60090865947E+02 -0.37104470841E+03  0.12893662268E+04  0.14013387723E+04  0.40000000000E+03 0.  1.
   -9000007    1    1    2    0  503 -0.60090865947E+02  0.37104470841E+03 -0.50235278198E+03  0.74407217752E+03  0.40000000000E+03 0.  1.
<mgrwt>
<rscale>  2 0.54889442E+03</rscale>
<asrwt>0</asrwt>
<pdfrwt beam="1">  1       21 0.22557111E+00 0.54889442E+03</pdfrwt>
<pdfrwt beam="2">  1       21 0.10449212E+00 0.54889442E+03</pdfrwt>
<totfact> 0.50712963E+01</totfact>
</mgrwt>
</event>
<event>
 4    1  0.4862039E-002  0.4115248E+03  0.7818608E-02  0.1039861E+00
         21   -1    0    0  501  502  0.00000000000E+00  0.00000000000E+00  0.30793784116E+03  0.30793784116E+03  0.00000000000E+00 0. -1.
         21   -1    0    0  502  503 -0.00000000000E+00 -0.00000000000E+00 -0.57139632250E+03  0.57139632250E+03  0.00000000000E+00 0. -1.
    9000007    1    1    2  501    0  0.78089994346E+02 -0.57048913583E+02 -0.46564668681E+02  0.41415081085E+03  0.40000000000E+03 0. -1.
   -9000007    1    1    2    0  503 -0.78089994346E+02  0.57048913583E+02 -0.21689381266E+03  0.46518335281E+03  0.40000000000E+03 0. -1.
<mgrwt>
<rscale>  2 0.41152476E+03</rscale>
<asrwt>0</asrwt>
<pdfrwt beam="1">  1       21 0.47375053E-01 0.41152476E+03</pdfrwt>
<pdfrwt beam="2">  1       21 0.87907126E-01 0.41152476E+03</pdfrwt>
<totfact> 0.41978638E+03</totfact>
</mgrwt>
</event>
<event>
 4    1  0.4862039E-002  0.6770418E+03  0.7818608E-02  0.9757320E-01
         21   -1    0    0  503  502  0.00000000000E+00  0.00000000000E+00  0.51751951762E+03  0.51751951762E+03  0.00000000000E+00 0. -1.
         21   -1    0    0  501  503 -0.00000000000E+00 -0.00000000000E+00 -0.11890553009E+04  0.11890553009E+04  0.00000000000E+00 0. -1.
    9000007    1    1    2  501    0  0.54585292838E+03 -0.20741850605E+02 -0.76673523899E+03  0.10228727049E+04  0.40000000000E+03 0. -1.
   -9000007    1    1    2    0  502 -0.54585292838E+03  0.20741850605E+02  0.95199455693E+02  0.68370211361E+03  0.40000000000E+03 0. -1.
<mgrwt>
<rscale>  2 0.67704183E+03</rscale>
<asrwt>0</asrwt>
<pdfrwt beam="1">  1       21 0.79618387E-01 0.67704183E+03</pdfrwt>
<pdfrwt beam="2">  1       21 0.18293158E+00 0.67704183E+03</pdfrwt>
<totfact> 0.17816572E+02</totfact>
</mgrwt>
</event>
<event>
 4    1  0.4862039E-002  0.5111099E+03  0.7818608E-02  0.1010919E+00
         21   -1    0    0  503  502  0.00000000000E+00  0.00000000000E+00  0.54578879513E+03  0.54578879513E+03  0.00000000000E+00 0.  1.
         21   -1    0    0  501  503 -0.00000000000E+00 -0.00000000000E+00 -0.58525440785E+03  0.58525440785E+03  0.00000000000E+00 0. -1.
    9000007    1    1    2  501    0 -0.31772665529E+03 -0.16826859328E+02 -0.26110982299E+03  0.57394399582E+03  0.40000000000E+03 0. -1.
   -9000007    1    1    2    0  502  0.31772665529E+03  0.16826859328E+02  0.22164421027E+03  0.55709920716E+03  0.40000000000E+03 0.  1.
<mgrwt>
<rscale>  2 0.51110994E+03</rscale>
<asrwt>0</asrwt>
<pdfrwt beam="1">  1       21 0.83967507E-01 0.51110994E+03</pdfrwt>
<pdfrwt beam="2">  1       21 0.90039139E-01 0.51110994E+03</pdfrwt>
<totfact> 0.10768040E+03</totfact>
</mgrwt>
</event>
<event>
 4    1  0.4862039E-002  0.5238018E+03  0.7818608E-02  0.1007746E+00
         21   -1    0    0  503  502  0.00000000000E+00  0.00000000000E+00  0.70745296521E+03  0.70745296521E+03  0.00000000000E+00 0.  1.
         21   -1    0    0  501  503 -0.00000000000E+00 -0.00000000000E+00 -0.10399327906E+04  0.10399327906E+04  0.00000000000E+00 0.  1.
    9000007    1    1    2  501    0  0.32466130931E+03 -0.94674992716E+02 -0.85809585863E+03  0.10053341845E+04  0.40000000000E+03 0.  1.
   -9000007    1    1    2    0  502 -0.32466130931E+03  0.94674992716E+02  0.52561603325E+03  0.74205157126E+03  0.40000000000E+03 0.  1.
<mgrwt>
<rscale>  2 0.52380179E+03</rscale>
<asrwt>0</asrwt>
<pdfrwt beam="1">  1       21 0.10883892E+00 0.52380179E+03</pdfrwt>
<pdfrwt beam="2">  1       21 0.15998966E+00 0.52380179E+03</pdfrwt>
<totfact> 0.13132563E+02</totfact>
</mgrwt>
</event>
<event>
 4    1  0.4862039E-002  0.5580685E+03  0.7818608E-02  0.9996434E-01
         21   -1    0    0  501  502  0.00000000000E+00  0.00000000000E+00  0.58022826207E+03  0.58022826207E+03  0.00000000000E+00 0. -1.
         21   -1    0    0  502  503 -0.00000000000E+00 -0.00000000000E+00 -0.53677242770E+03  0.53677242770E+03  0.00000000000E+00 0. -1.
    9000007    1    1    2  501    0 -0.18387362434E+03 -0.34297372904E+03  0.24899594325E+02  0.55862373592E+03  0.40000000000E+03 0. -1.
   -9000007    1    1    2    0  503  0.18387362434E+03  0.34297372904E+03  0.18556240052E+02  0.55837695384E+03  0.40000000000E+03 0. -1.
<mgrwt>
<rscale>  2 0.55806853E+03</rscale>
<asrwt>0</asrwt>
<pdfrwt beam="1">  1       21 0.89265887E-01 0.55806853E+03</pdfrwt>
<pdfrwt beam="2">  1       21 0.82580373E-01 0.55806853E+03</pdfrwt>
<totfact> 0.11248598E+03</totfact>
</mgrwt>
</event>
<event>
 4    1  0.4862039E-002  0.4021862E+03  0.7818608E-02  0.1043025E+00
         21   -1    0    0  501  502  0.00000000000E+00  0.00000000000E+00  0.61217494781E+03  0.61217494781E+03  0.00000000000E+00 0. -1.
         21   -1    0    0  502  503 -0.00000000000E+00 -0.00000000000E+00 -0.38476935030E+03  0.38476935030E+03  0.00000000000E+00 0. -1.
    9000007    1    1    2  501    0  0.10291275139E+02 -0.40593911123E+02  0.39270565444E+03  0.56211342894E+03  0.40000000000E+03 0. -1.
   -9000007    1    1    2    0  503 -0.10291275139E+02  0.40593911123E+02 -0.16530005693E+03  0.43483086917E+03  0.40000000000E+03 0. -1.
<mgrwt>
<rscale>  2 0.40218625E+03</rscale>
<asrwt>0</asrwt>
<pdfrwt beam="1">  1       21 0.94180761E-01 0.40218625E+03</pdfrwt>
<pdfrwt beam="2">  1       21 0.59195285E-01 0.40218625E+03</pdfrwt>
<totfact> 0.22209331E+03</totfact>
</mgrwt>
</event>
<event>
 4    1  0.4862039E-002  0.5777721E+03  0.7818608E-02  0.9952626E-01
         21   -1    0    0  503  502  0.00000000000E+00  0.00000000000E+00  0.20765905475E+04  0.20765905475E+04  0.00000000000E+00 0. -1.
         21   -1    0    0  501  503 -0.00000000000E+00 -0.00000000000E+00 -0.32108506112E+03  0.32108506112E+03  0.00000000000E+00 0.  1.
    9000007    1    1    2  501    0 -0.41608082386E+03  0.26406294162E+02  0.30605284220E+02  0.57858208387E+03  0.40000000000E+03 0.  1.
   -9000007    1    1    2    0  502  0.41608082386E+03 -0.26406294162E+02  0.17249002022E+04  0.18190935248E+04  0.40000000000E+03 0. -1.
<mgrwt>
<rscale>  2 0.57777205E+03</rscale>
<asrwt>0</asrwt>
<pdfrwt beam="1">  1       21 0.31947546E+00 0.57777205E+03</pdfrwt>
<pdfrwt beam="2">  1       21 0.49397703E-01 0.57777205E+03</pdfrwt>
<totfact> 0.73084108E+01</totfact>
</mgrwt>
</event>
<event>
 4    1  0.4862039E-002  0.4200080E+03  0.7818608E-02  0.1037064E+00
         21   -1    0    0  503  502  0.00000000000E+00  0.00000000000E+00  0.48516870607E+03  0.48516870607E+03  0.00000000000E+00 0.  1.
         21   -1    0    0  501  503 -0.00000000000E+00 -0.00000000000E+00 -0.53484907791E+03  0.53484907791E+03  0.00000000000E+00 0.  1.
    9000007    1    1    2  501    0  0.12808868026E+03 -0.18309089999E+00 -0.31342787873E+03  0.52406467034E+03  0.40000000000E+03 0.  1.
   -9000007    1    1    2    0  502 -0.12808868026E+03  0.18309089999E+00  0.26374750689E+03  0.49595311363E+03  0.40000000000E+03 0.  1.
<mgrwt>
<rscale>  2 0.42000803E+03</rscale>
<asrwt>0</asrwt>
<pdfrwt beam="1">  1       21 0.74641339E-01 0.42000803E+03</pdfrwt>
<pdfrwt beam="2">  1       21 0.82284474E-01 0.42000803E+03</pdfrwt>
<totfact> 0.18072912E+03</totfact>
</mgrwt>
</event>
<event>
 4    1  0.4862039E-002  0.4658165E+03  0.7818608E-02  0.1023108E+00
         21   -1    0    0  501  502  0.00000000000E+00  0.00000000000E+00  0.25013407036E+03  0.25013407036E+03  0.00000000000E+00 0.  1.
         21   -1    0    0  502  503 -0.00000000000E+00 -0.00000000000E+00 -0.86914871435E+03  0.86914871435E+03  0.00000000000E+00 0.  1.
    9000007    1    1    2  501    0  0.41092958682E+02  0.23515173287E+03 -0.28494626831E+03  0.54605800475E+03  0.40000000000E+03 0.  1.
   -9000007    1    1    2    0  503 -0.41092958682E+02 -0.23515173287E+03 -0.33406837569E+03  0.57322477996E+03  0.40000000000E+03 0.  1.
<mgrwt>
<rscale>  2 0.46581645E+03</rscale>
<asrwt>0</asrwt>
<pdfrwt beam="1">  1       21 0.38482165E-01 0.46581645E+03</pdfrwt>
<pdfrwt beam="2">  1       21 0.13371519E+00 0.46581645E+03</pdfrwt>
<totfact> 0.22426991E+03</totfact>
</mgrwt>
</event>
<event>
 4    1  0.4862039E-002  0.4615497E+03  0.7818608E-02  0.1024333E+00
         21   -1    0    0  503  502  0.00000000000E+00  0.00000000000E+00  0.65089232682E+03  0.65089232682E+03  0.00000000000E+00 0.  1.
         21   -1    0    0  501  503 -0.00000000000E+00 -0.00000000000E+00 -0.33062196941E+03  0.33062196941E+03  0.00000000000E+00 0. -1.
    9000007    1    1    2  501    0 -0.22736274895E+03 -0.36528234952E+02  0.20942908776E+03  0.50684186326E+03  0.40000000000E+03 0. -1.
   -9000007    1    1    2    0  502  0.22736274895E+03  0.36528234952E+02  0.11084126965E+03  0.47467243296E+03  0.40000000000E+03 0. -1.
<mgrwt>
<rscale>  2 0.46154971E+03</rscale>
<asrwt>0</asrwt>
<pdfrwt beam="1">  1       21 0.10013728E+00 0.46154971E+03</pdfrwt>
<pdfrwt beam="2">  1       21 0.50864919E-01 0.46154971E+03</pdfrwt>
<totfact> 0.25976237E+03</totfact>
</mgrwt>
</event>
<event>
 4    1  0.4862039E-002  0.4654085E+03  0.7818608E-02  0.1023224E+00
         21   -1    0    0  503  502  0.00000000000E+00  0.00000000000E+00  0.78317319206E+02  0.78317319206E+02  0.00000000000E+00 0.  1.
         21   -1    0    0  501  503 -0.00000000000E+00 -0.00000000000E+00 -0.27897891046E+04  0.27897891046E+04  0.00000000000E+00 0.  1.
    9000007    1    1    2  501    0  0.23296543236E+03 -0.48292729743E+02 -0.14888914324E+04  0.15599367865E+04  0.40000000000E+03 0.  1.
   -9000007    1    1    2    0  502 -0.23296543236E+03  0.48292729743E+02 -0.12225803530E+04  0.13081696373E+04  0.40000000000E+03 0.  1.
<mgrwt>
<rscale>  2 0.46540851E+03</rscale>
<asrwt>0</asrwt>
<pdfrwt beam="1">  1       21 0.12048818E-01 0.46540851E+03</pdfrwt>
<pdfrwt beam="2">  1       21 0.42919834E+00 0.46540851E+03</pdfrwt>
<totfact> 0.25046807E+02</totfact>
</mgrwt>
</event>
<event>
 4    1  0.4862039E-002  0.4298580E+03  0.7818608E-02  0.1033905E+00
         21   -1    0    0  501  502  0.00000000000E+00  0.00000000000E+00  0.22435734470E+03  0.22435734470E+03  0.00000000000E+00 0. -1.
         21   -1    0    0  502  503 -0.00000000000E+00 -0.00000000000E+00 -0.14313838047E+04  0.14313838047E+04  0.00000000000E+00 0.  1.
    9000007    1    1    2  501    0  0.95954413826E+02 -0.12478240778E+03 -0.64048030486E+02  0.43460332377E+03  0.40000000000E+03 0. -1.
   -9000007    1    1    2    0  503 -0.95954413826E+02  0.12478240778E+03 -0.11429784295E+04  0.12211378256E+04  0.40000000000E+03 0.  1.
<mgrwt>
<rscale>  2 0.42985800E+03</rscale>
<asrwt>0</asrwt>
<pdfrwt beam="1">  1       21 0.34516514E-01 0.42985800E+03</pdfrwt>
<pdfrwt beam="2">  1       21 0.22021290E+00 0.42985800E+03</pdfrwt>
<totfact> 0.67458739E+02</totfact>
</mgrwt>
</event>
<event>
 4    1  0.4862039E-002  0.6025184E+03  0.7818608E-02  0.9900195E-01
         21   -1    0    0  501  502  0.00000000000E+00  0.00000000000E+00  0.81659898963E+03  0.81659898963E+03  0.00000000000E+00 0.  1.
         21   -1    0    0  502  503 -0.00000000000E+00 -0.00000000000E+00 -0.52817430313E+03  0.52817430313E+03  0.00000000000E+00 0. -1.
    9000007    1    1    2  501    0  0.29644270220E+03  0.33933773574E+03 -0.12331436535E+03  0.61500797336E+03  0.40000000000E+03 0. -1.
   -9000007    1    1    2    0  503 -0.29644270220E+03 -0.33933773574E+03  0.41173905184E+03  0.72976531940E+03  0.40000000000E+03 0.  1.
<mgrwt>
<rscale>  2 0.60251836E+03</rscale>
<asrwt>0</asrwt>
<pdfrwt beam="1">  1       21 0.12563061E+00 0.60251836E+03</pdfrwt>
<pdfrwt beam="2">  1       21 0.81257586E-01 0.60251836E+03</pdfrwt>
<totfact> 0.49325445E+02</totfact>
</mgrwt>
</event>
<event>
 4    1  0.4862039E-002  0.4781336E+03  0.7818608E-02  0.1019649E+00
         21   -1    0    0  503  502  0.00000000000E+00  0.00000000000E+00  0.18384497949E+04  0.18384497949E+04  0.00000000000E+00 0.  1.
         21   -1    0    0  501  503 -0.00000000000E+00 -0.00000000000E+00 -0.14986192700E+03  0.14986192700E+03  0.00000000000E+00 0.  1.
    9000007    1    1    2  501    0  0.15401451852E+03 -0.21187567657E+03  0.43411066471E+03  0.64580480290E+03  0.40000000000E+03 0.  1.
   -9000007    1    1    2    0  502 -0.15401451852E+03  0.21187567657E+03  0.12544772032E+04  0.13425069190E+04  0.40000000000E+03 0.  1.
<mgrwt>
<rscale>  2 0.47813364E+03</rscale>
<asrwt>0</asrwt>
<pdfrwt beam="1">  1       21 0.28283841E+00 0.47813364E+03</pdfrwt>
<pdfrwt beam="2">  1       21 0.23055682E-01 0.47813364E+03</pdfrwt>
<totfact> 0.60023721E+02</totfact>
</mgrwt>
</event>
<event>
 4    1  0.4862039E-002  0.4814760E+03  0.7818608E-02  0.1018730E+00
         21   -1    0    0  503  502  0.00000000000E+00  0.00000000000E+00  0.14794380041E+04  0.14794380041E+04  0.00000000000E+00 0. -1.
         21   -1    0    0  501  503 -0.00000000000E+00 -0.00000000000E+00 -0.18224376277E+03  0.18224376277E+03  0.00000000000E+00 0. -1.
    9000007    1    1    2  501    0  0.15832484033E+03 -0.21622291668E+03  0.95968614788E+03  0.10736929762E+04  0.40000000000E+03 0. -1.
   -9000007    1    1    2    0  502 -0.15832484033E+03  0.21622291668E+03  0.33750809343E+03  0.58798879062E+03  0.40000000000E+03 0. -1.
<mgrwt>
<rscale>  2 0.48147596E+03</rscale>
<asrwt>0</asrwt>
<pdfrwt beam="1">  1       21 0.22760584E+00 0.48147596E+03</pdfrwt>
<pdfrwt beam="2">  1       21 0.28037503E-01 0.48147596E+03</pdfrwt>
<totfact> 0.89419391E+02</totfact>
</mgrwt>
</event>
<event>
 4    1  0.4862039E-002  0.9972947E+03  0.7818608E-02  0.9311517E-01
         21   -1    0    0  501  502  0.00000000000E+00  0.00000000000E+00  0.44933628279E+03  0.44933628279E+03  0.00000000000E+00 0.  1.
         21   -1    0    0  502  503 -0.00000000000E+00 -0.00000000000E+00 -0.22742277611E+04  0.22742277611E+04  0.00000000000E+00 0. -1.
    9000007    1    1    2  501    0 -0.85601006857E+03 -0.31912926633E+03 -0.68988070163E+03  0.12126549833E+04  0.40000000000E+03 0. -1.
   -9000007    1    1    2    0  503  0.85601006857E+03  0.31912926633E+03 -0.11350107767E+04  0.15109090606E+04  0.40000000000E+03 0.  1.
<mgrwt>
<rscale>  2 0.99729470E+03</rscale>
<asrwt>0</asrwt>
<pdfrwt beam="1">  1       21 0.69128658E-01 0.99729470E+03</pdfrwt>
<pdfrwt beam="2">  1       21 0.34988120E+00 0.99729470E+03</pdfrwt>
<totfact> 0.19124282E+01</totfact>
</mgrwt>
</event>
<event>
 4    1  0.4862039E-002  0.4375920E+03  0.7818608E-02  0.1031488E+00
         21   -1    0    0  501  502  0.00000000000E+00  0.00000000000E+00  0.21867545673E+03  0.21867545673E+03  0.00000000000E+00 0. -1.
         21   -1    0    0  502  503 -0.00000000000E+00 -0.00000000000E+00 -0.19755277714E+04  0.19755277714E+04  0.00000000000E+00 0.  1.
    9000007    1    1    2  501    0 -0.14122357500E+03  0.10743673209E+03 -0.59821409059E+02  0.44166203201E+03  0.40000000000E+03 0. -1.
   -9000007    1    1    2    0  503  0.14122357500E+03 -0.10743673209E+03 -0.16970309056E+04  0.17525411961E+04  0.40000000000E+03 0.  1.
<mgrwt>
<rscale>  2 0.43759199E+03</rscale>
<asrwt>0</asrwt>
<pdfrwt beam="1">  1       21 0.33642377E-01 0.43759199E+03</pdfrwt>
<pdfrwt beam="2">  1       21 0.30392736E+00 0.43759199E+03</pdfrwt>
<totfact> 0.21776064E+02</totfact>
</mgrwt>
</event>
<event>
 4    1  0.4862039E-002  0.5003127E+03  0.7818608E-02  0.1013697E+00
         21   -1    0    0  501  502  0.00000000000E+00  0.00000000000E+00  0.94683798928E+03  0.94683798928E+03  0.00000000000E+00 0. -1.
         21   -1    0    0  502  503 -0.00000000000E+00 -0.00000000000E+00 -0.43306767880E+03  0.43306767880E+03  0.00000000000E+00 0. -1.
    9000007    1    1    2  501    0 -0.25888939136E+03 -0.15260749433E+03  0.68751078054E+03  0.85028456274E+03  0.40000000000E+03 0. -1.
   -9000007    1    1    2    0  503  0.25888939136E+03  0.15260749433E+03 -0.17374047006E+03  0.52962110534E+03  0.40000000000E+03 0. -1.
<mgrwt>
<rscale>  2 0.50031267E+03</rscale>
<asrwt>0</asrwt>
<pdfrwt beam="1">  1       21 0.14566738E+00 0.50031267E+03</pdfrwt>
<pdfrwt beam="2">  1       21 0.66625797E-01 0.50031267E+03</pdfrwt>
<totfact> 0.54484833E+02</totfact>
</mgrwt>
</event>
<event>
 4    1  0.4862039E-002  0.5106510E+03  0.7818608E-02  0.1011036E+00
         21   -1    0    0  503  502  0.00000000000E+00  0.00000000000E+00  0.36227311084E+03  0.36227311084E+03  0.00000000000E+00 0. -1.
         21   -1    0    0  501  503 -0.00000000000E+00 -0.00000000000E+00 -0.72705586964E+03  0.72705586964E+03  0.00000000000E+00 0. -1.
    9000007    1    1    2  501    0  0.18903305521E+03 -0.25501156960E+03 -0.12798216685E+03  0.52644451904E+03  0.40000000000E+03 0. -1.
   -9000007    1    1    2    0  502 -0.18903305521E+03  0.25501156960E+03 -0.23680059195E+03  0.56288446145E+03  0.40000000000E+03 0. -1.
<mgrwt>
<rscale>  2 0.51065095E+03</rscale>
<asrwt>0</asrwt>
<pdfrwt beam="1">  1       21 0.55734325E-01 0.51065095E+03</pdfrwt>
<pdfrwt beam="2">  1       21 0.11185475E+00 0.51065095E+03</pdfrwt>
<totfact> 0.15960319E+03</totfact>
</mgrwt>
</event>
<event>
 4    1  0.4862039E-002  0.4395452E+03  0.7818608E-02  0.1030886E+00
         21   -1    0    0  503  502  0.00000000000E+00  0.00000000000E+00  0.16886972520E+04  0.16886972520E+04  0.00000000000E+00 0. -1.
         21   -1    0    0  501  503 -0.00000000000E+00 -0.00000000000E+00 -0.43392564175E+03  0.43392564175E+03  0.00000000000E+00 0. -1.
    9000007    1    1    2  501    0 -0.73725293806E+02 -0.16662713668E+03 -0.28332983460E+03  0.52294915317E+03  0.40000000000E+03 0. -1.
   -9000007    1    1    2    0  502  0.73725293806E+02  0.16662713668E+03  0.15381014448E+04  0.15996737405E+04  0.40000000000E+03 0. -1.
<mgrwt>
<rscale>  2 0.43954524E+03</rscale>
<asrwt>0</asrwt>
<pdfrwt beam="1">  1       21 0.25979957E+00 0.43954524E+03</pdfrwt>
<pdfrwt beam="2">  1       21 0.66757792E-01 0.43954524E+03</pdfrwt>
<totfact> 0.94276468E+01</totfact>
</mgrwt>
</event>
<event>
 4    1  0.4862039E-002  0.5683233E+03  0.7818608E-02  0.9973396E-01
         21   -1    0    0  503  502  0.00000000000E+00  0.00000000000E+00  0.32501537621E+03  0.32501537621E+03  0.00000000000E+00 0.  1.
         21   -1    0    0  501  503 -0.00000000000E+00 -0.00000000000E+00 -0.99607155963E+03  0.99607155963E+03  0.00000000000E+00 0. -1.
    9000007    1    1    2  501    0  0.30320588076E+03  0.26656621385E+03 -0.36726235914E+03  0.67666313106E+03  0.40000000000E+03 0. -1.
   -9000007    1    1    2    0  502 -0.30320588076E+03 -0.26656621385E+03 -0.30379382428E+03  0.64442380478E+03  0.40000000000E+03 0.  1.
<mgrwt>
<rscale>  2 0.56832328E+03</rscale>
<asrwt>0</asrwt>
<pdfrwt beam="1">  1       21 0.50002366E-01 0.56832328E+03</pdfrwt>
<pdfrwt beam="2">  1       21 0.15324178E+00 0.56832328E+03</pdfrwt>
<totfact> 0.86648888E+02</totfact>
</mgrwt>
</event>
<event>
 4    1  0.4862039E-002  0.5167546E+03  0.7818608E-02  0.1009496E+00
         21   -1    0    0  501  502  0.00000000000E+00  0.00000000000E+00  0.59518039327E+03  0.59518039327E+03  0.00000000000E+00 0.  1.
         21   -1    0    0  502  503 -0.00000000000E+00 -0.00000000000E+00 -0.16767547729E+04  0.16767547729E+04  0.00000000000E+00 0. -1.
    9000007    1    1    2  501    0  0.21622537074E+03 -0.24552380823E+03  0.43139261271E+03  0.67315298236E+03  0.40000000000E+03 0.  1.
   -9000007    1    1    2    0  503 -0.21622537074E+03  0.24552380823E+03 -0.15129669924E+04  0.15987821839E+04  0.40000000000E+03 0. -1.
<mgrwt>
<rscale>  2 0.51675463E+03</rscale>
<asrwt>0</asrwt>
<pdfrwt beam="1">  1       21 0.91566215E-01 0.51675463E+03</pdfrwt>
<pdfrwt beam="2">  1       21 0.25796227E+00 0.51675463E+03</pdfrwt>
<totfact> 0.44592306E+01</totfact>
</mgrwt>
</event>
<event>
 4    1  0.4862039E-002  0.4043034E+03  0.7818608E-02  0.1042300E+00
         21   -1    0    0  501  502  0.00000000000E+00  0.00000000000E+00  0.16184625762E+04  0.16184625762E+04  0.00000000000E+00 0. -1.
         21   -1    0    0  502  503 -0.00000000000E+00 -0.00000000000E+00 -0.10100785202E+03  0.10100785202E+03  0.00000000000E+00 0. -1.
    9000007    1    1    2  501    0  0.27189839147E+02 -0.52172402519E+02  0.75017384523E+03  0.85218662569E+03  0.40000000000E+03 0. -1.
   -9000007    1    1    2    0  503 -0.27189839147E+02  0.52172402519E+02  0.76728087898E+03  0.86728380256E+03  0.40000000000E+03 0. -1.
<mgrwt>
<rscale>  2 0.40430341E+03</rscale>
<asrwt>0</asrwt>
<pdfrwt beam="1">  1       21 0.24899422E+00 0.40430341E+03</pdfrwt>
<pdfrwt beam="2">  1       21 0.15539671E-01 0.40430341E+03</pdfrwt>
<totfact> 0.21113085E+03</totfact>
</mgrwt>
</event>
<event>
 4    1  0.4862039E-002  0.4155452E+03  0.7818608E-02  0.1038526E+00
         21   -1    0    0  501  502  0.00000000000E+00  0.00000000000E+00  0.39026951856E+03  0.39026951856E+03  0.00000000000E+00 0. -1.
         21   -1    0    0  502  503 -0.00000000000E+00 -0.00000000000E+00 -0.51183948618E+03  0.51183948618E+03  0.00000000000E+00 0. -1.
    9000007    1    1    2  501    0  0.10589703223E+03  0.38256995215E+02  0.10528252165E+03  0.42867492169E+03  0.40000000000E+03 0. -1.
   -9000007    1    1    2    0  503 -0.10589703223E+03 -0.38256995215E+02 -0.22685248926E+03  0.47343408306E+03  0.40000000000E+03 0. -1.
<mgrwt>
<rscale>  2 0.41554516E+03</rscale>
<asrwt>0</asrwt>
<pdfrwt beam="1">  1       21 0.60041464E-01 0.41554516E+03</pdfrwt>
<pdfrwt beam="2">  1       21 0.78744537E-01 0.41554516E+03</pdfrwt>
<totfact> 0.32564105E+03</totfact>
</mgrwt>
</event>
<event>
 4    1  0.4862039E-002  0.4163303E+03  0.7818608E-02  0.1038267E+00
         21   -1    0    0  501  502  0.00000000000E+00  0.00000000000E+00  0.14559588823E+04  0.14559588823E+04  0.00000000000E+00 0. -1.
         21   -1    0    0  502  503 -0.00000000000E+00 -0.00000000000E+00 -0.13548667419E+03  0.13548667419E+03  0.00000000000E+00 0. -1.
    9000007    1    1    2  501    0  0.40521034780E+02  0.10811567120E+03  0.38307702250E+03  0.56575521013E+03  0.40000000000E+03 0. -1.
   -9000007    1    1    2    0  503 -0.40521034780E+02 -0.10811567120E+03  0.93739518556E+03  0.10256903463E+04  0.40000000000E+03 0. -1.
<mgrwt>
<rscale>  2 0.41633034E+03</rscale>
<asrwt>0</asrwt>
<pdfrwt beam="1">  1       21 0.22399366E+00 0.41633034E+03</pdfrwt>
<pdfrwt beam="2">  1       21 0.20844105E-01 0.41633034E+03</pdfrwt>
<totfact> 0.17271336E+03</totfact>
</mgrwt>
</event>
<event>
 4    1  0.4862039E-002  0.4609309E+03  0.7818608E-02  0.1024512E+00
         21   -1    0    0  501  502  0.00000000000E+00  0.00000000000E+00  0.21298194758E+03  0.21298194758E+03  0.00000000000E+00 0. -1.
         21   -1    0    0  502  503 -0.00000000000E+00 -0.00000000000E+00 -0.12932704181E+04  0.12932704181E+04  0.00000000000E+00 0. -1.
    9000007    1    1    2  501    0  0.27166245351E+02  0.22741882202E+03 -0.18000251073E+03  0.49483151614E+03  0.40000000000E+03 0. -1.
   -9000007    1    1    2    0  503 -0.27166245351E+02 -0.22741882202E+03 -0.90028595982E+03  0.10114208496E+04  0.40000000000E+03 0. -1.
<mgrwt>
<rscale>  2 0.46093093E+03</rscale>
<asrwt>0</asrwt>
<pdfrwt beam="1">  1       21 0.32766454E-01 0.46093093E+03</pdfrwt>
<pdfrwt beam="2">  1       21 0.19896467E+00 0.46093093E+03</pdfrwt>
<totfact> 0.10156763E+03</totfact>
</mgrwt>
</event>
<event>
 4    1  0.4862039E-002  0.7386973E+03  0.7818608E-02  0.9653251E-01
         21   -1    0    0  501  502  0.00000000000E+00  0.00000000000E+00  0.58546673664E+03  0.58546673664E+03  0.00000000000E+00 0.  1.
         21   -1    0    0  502  503 -0.00000000000E+00 -0.00000000000E+00 -0.94759368867E+03  0.94759368867E+03  0.00000000000E+00 0. -1.
    9000007    1    1    2  501    0  0.59210871265E+03  0.18729901871E+03 -0.82832479867E+02  0.74332689292E+03  0.40000000000E+03 0.  1.
   -9000007    1    1    2    0  503 -0.59210871265E+03 -0.18729901871E+03 -0.27929447216E+03  0.78973353240E+03  0.40000000000E+03 0. -1.
<mgrwt>
<rscale>  2 0.73869727E+03</rscale>
<asrwt>0</asrwt>
<pdfrwt beam="1">  1       21 0.90071806E-01 0.73869727E+03</pdfrwt>
<pdfrwt beam="2">  1       21 0.14578364E+00 0.73869727E+03</pdfrwt>
<totfact> 0.24948741E+02</totfact>
</mgrwt>
</event>
<event>
 4    1  0.4862039E-002  0.4922595E+03  0.7818608E-02  0.1015819E+00
         21   -1    0    0  503  502  0.00000000000E+00  0.00000000000E+00  0.26217222614E+03  0.26217222614E+03  0.00000000000E+00 0.  1.
         21   -1    0    0  501  503 -0.00000000000E+00 -0.00000000000E+00 -0.92451861298E+03  0.92451861298E+03  0.00000000000E+00 0.  1.
    9000007    1    1    2  501    0 -0.20386764605E+03  0.20188462866E+03 -0.34079078624E+03  0.59871343761E+03  0.40000000000E+03 0. -1.
   -9000007    1    1    2    0  502  0.20386764605E+03 -0.20188462866E+03 -0.32155560060E+03  0.58797740150E+03  0.40000000000E+03 0. -1.
<mgrwt>
<rscale>  2 0.49225951E+03</rscale>
<asrwt>0</asrwt>
<pdfrwt beam="1">  1       21 0.40334189E-01 0.49225951E+03</pdfrwt>
<pdfrwt beam="2">  1       21 0.14223363E+00 0.49225951E+03</pdfrwt>
<totfact> 0.17117034E+03</totfact>
</mgrwt>
</event>
<event>
 4    1  0.4862039E-002  0.5648339E+03  0.7818608E-02  0.9981176E-01
         21   -1    0    0  503  502  0.00000000000E+00  0.00000000000E+00  0.12523496288E+04  0.12523496288E+04  0.00000000000E+00 0.  1.
         21   -1    0    0  501  503 -0.00000000000E+00 -0.00000000000E+00 -0.25595300296E+03  0.25595300296E+03  0.00000000000E+00 0.  1.
    9000007    1    1    2  501    0 -0.36780152604E+03  0.15414064522E+03  0.44651695449E+03  0.72001020251E+03  0.40000000000E+03 0.  1.
   -9000007    1    1    2    0  502  0.36780152604E+03 -0.15414064522E+03  0.54987967140E+03  0.78829242930E+03  0.40000000000E+03 0.  1.
<mgrwt>
<rscale>  2 0.56483387E+03</rscale>
<asrwt>0</asrwt>
<pdfrwt beam="1">  1       21 0.19266917E+00 0.56483387E+03</pdfrwt>
<pdfrwt beam="2">  1       21 0.39377386E-01 0.56483387E+03</pdfrwt>
<totfact> 0.73914812E+02</totfact>
</mgrwt>
</event>
<event>
 4    1  0.4862039E-002  0.4164141E+03  0.7818608E-02  0.1038240E+00
         21   -1    0    0  503  502  0.00000000000E+00  0.00000000000E+00  0.13694870024E+03  0.13694870024E+03  0.00000000000E+00 0.  1.
         21   -1    0    0  501  503 -0.00000000000E+00 -0.00000000000E+00 -0.19055333766E+04  0.19055333766E+04  0.00000000000E+00 0.  1.
    9000007    1    1    2  501    0  0.97515862549E+02  0.62380789451E+02 -0.14758443523E+04  0.15334657670E+04  0.40000000000E+03 0.  1.
   -9000007    1    1    2    0  502 -0.97515862549E+02 -0.62380789451E+02 -0.29274032402E+03  0.50901630980E+03  0.40000000000E+03 0.  1.
<mgrwt>
<rscale>  2 0.41641410E+03</rscale>
<asrwt>0</asrwt>
<pdfrwt beam="1">  1       21 0.21069032E-01 0.41641410E+03</pdfrwt>
<pdfrwt beam="2">  1       21 0.29315897E+00 0.41641410E+03</pdfrwt>
<totfact> 0.64012409E+02</totfact>
</mgrwt>
</event>
<event>
 4    1  0.4862039E-002  0.5543522E+03  0.7818608E-02  0.1000492E+00
         21   -1    0    0  501  502  0.00000000000E+00  0.00000000000E+00  0.68388382474E+03  0.68388382474E+03  0.00000000000E+00 0. -1.
         21   -1    0    0  502  503 -0.00000000000E+00 -0.00000000000E+00 -0.10700939679E+04  0.10700939679E+04  0.00000000000E+00 0.  1.
    9000007    1    1    2  501    0  0.37595278649E+03  0.77239166937E+02  0.47483540028E+03  0.72991440864E+03  0.40000000000E+03 0. -1.
   -9000007    1    1    2    0  503 -0.37595278649E+03 -0.77239166937E+02 -0.86104554347E+03  0.10240633840E+04  0.40000000000E+03 0.  1.
<mgrwt>
<rscale>  2 0.55435222E+03</rscale>
<asrwt>0</asrwt>
<pdfrwt beam="1">  1       21 0.10521290E+00 0.55435222E+03</pdfrwt>
<pdfrwt beam="2">  1       21 0.16462984E+00 0.55435222E+03</pdfrwt>
<totfact> 0.13001042E+02</totfact>
</mgrwt>
</event>
<event>
 4    1  0.4862039E-002  0.5446634E+03  0.7818608E-02  0.1002737E+00
         21   -1    0    0  501  502  0.00000000000E+00  0.00000000000E+00  0.23785389811E+03  0.23785389811E+03  0.00000000000E+00 0.  1.
         21   -1    0    0  502  503 -0.00000000000E+00 -0.00000000000E+00 -0.19698426127E+04  0.19698426127E+04  0.00000000000E+00 0. -1.
    9000007    1    1    2  501    0  0.57842749259E+02  0.36511968935E+03 -0.19742446109E+03  0.57933978720E+03  0.40000000000E+03 0.  1.
   -9000007    1    1    2    0  503 -0.57842749259E+02 -0.36511968935E+03 -0.15345642535E+04  0.16283567236E+04  0.40000000000E+03 0. -1.
<mgrwt>
<rscale>  2 0.54466336E+03</rscale>
<asrwt>0</asrwt>
<pdfrwt beam="1">  1       21 0.36592908E-01 0.54466336E+03</pdfrwt>
<pdfrwt beam="2">  1       21 0.30305270E+00 0.54466336E+03</pdfrwt>
<totfact> 0.17503391E+02</totfact>
</mgrwt>
</event>
<event>
 4    1  0.4862039E-002  0.5443178E+03  0.7818608E-02  0.1002818E+00
         21   -1    0    0  501  502  0.00000000000E+00  0.00000000000E+00  0.23027116946E+03  0.23027116946E+03  0.00000000000E+00 0.  1.
         21   -1    0    0  502  503 -0.00000000000E+00 -0.00000000000E+00 -0.13834689870E+04  0.13834689870E+04  0.00000000000E+00 0.  1.
    9000007    1    1    2  501    0  0.35372004506E+03 -0.10565969382E+03 -0.36316390495E+03  0.65434689808E+03  0.40000000000E+03 0.  1.
   -9000007    1    1    2    0  503 -0.35372004506E+03  0.10565969382E+03 -0.79003391258E+03  0.95939325836E+03  0.40000000000E+03 0.  1.
<mgrwt>
<rscale>  2 0.54431778E+03</rscale>
<asrwt>0</asrwt>
<pdfrwt beam="1">  1       21 0.35426333E-01 0.54431778E+03</pdfrwt>
<pdfrwt beam="2">  1       21 0.21284139E+00 0.54431778E+03</pdfrwt>
<totfact> 0.67815219E+02</totfact>
</mgrwt>
</event>
<event>
 4    1  0.4862039E-002  0.4243711E+03  0.7818608E-02  0.1035653E+00
         21   -1    0    0  501  502  0.00000000000E+00  0.00000000000E+00  0.29290129034E+03  0.29290129034E+03  0.00000000000E+00 0.  1.
         21   -1    0    0  502  503 -0.00000000000E+00 -0.00000000000E+00 -0.61504698570E+03  0.61504698570E+03  0.00000000000E+00 0.  1.
    9000007    1    1    2  501    0  0.48074795801E+02 -0.13334029768E+03 -0.15298102727E+03  0.45110310981E+03  0.40000000000E+03 0.  1.
   -9000007    1    1    2    0  503 -0.48074795801E+02  0.13334029768E+03 -0.16916466809E+03  0.45684516623E+03  0.40000000000E+03 0.  1.
<mgrwt>
<rscale>  2 0.42437109E+03</rscale>
<asrwt>0</asrwt>
<pdfrwt beam="1">  1       21 0.45061738E-01 0.42437109E+03</pdfrwt>
<pdfrwt beam="2">  1       21 0.94622611E-01 0.42437109E+03</pdfrwt>
<totfact> 0.38978712E+03</totfact>
</mgrwt>
</event>
<event>
 4    1  0.4862039E-002  0.4542787E+03  0.7818608E-02  0.1026454E+00
         21   -1    0    0  503  502  0.00000000000E+00  0.00000000000E+00  0.12166911538E+04  0.12166911538E+04  0.00000000000E+00 0.  1.
         21   -1    0    0  501  503 -0.00000000000E+00 -0.00000000000E+00 -0.36742511612E+03  0.36742511612E+03  0.00000000000E+00 0.  1.
    9000007    1    1    2  501    0  0.73599645351E+02  0.20236662449E+03 -0.15652844353E+03  0.48048965872E+03  0.40000000000E+03 0.  1.
   -9000007    1    1    2    0  502 -0.73599645351E+02 -0.20236662449E+03  0.10057944812E+04  0.11036266112E+04  0.40000000000E+03 0.  1.
<mgrwt>
<rscale>  2 0.45427872E+03</rscale>
<asrwt>0</asrwt>
<pdfrwt beam="1">  1       21 0.18718325E+00 0.45427872E+03</pdfrwt>
<pdfrwt beam="2">  1       21 0.56526942E-01 0.45427872E+03</pdfrwt>
<totfact> 0.39318081E+02</totfact>
</mgrwt>
</event>
<event>
 4    1  0.4862039E-002  0.4901061E+03  0.7818608E-02  0.1016394E+00
         21   -1    0    0  503  502  0.00000000000E+00  0.00000000000E+00  0.94168782984E+02  0.94168782984E+02  0.00000000000E+00 0.  1.
         21   -1    0    0  501  503 -0.00000000000E+00 -0.00000000000E+00 -0.25615221646E+04  0.25615221646E+04  0.00000000000E+00 0. -1.
    9000007    1    1    2  501    0  0.26744798986E+03  0.93142816380E+02 -0.13196590447E+04  0.14077300898E+04  0.40000000000E+03 0.  1.
   -9000007    1    1    2    0  502 -0.26744798986E+03 -0.93142816380E+02 -0.11476943369E+04  0.12479608578E+04  0.40000000000E+03 0. -1.
<mgrwt>
<rscale>  2 0.49010612E+03</rscale>
<asrwt>0</asrwt>
<pdfrwt beam="1">  1       21 0.14487507E-01 0.49010612E+03</pdfrwt>
<pdfrwt beam="2">  1       21 0.39408028E+00 0.49010612E+03</pdfrwt>
<totfact> 0.29734567E+02</totfact>
</mgrwt>
</event>
<event>
 4    1  0.4862039E-002  0.5859415E+03  0.7818608E-02  0.9935010E-01
         21   -1    0    0  501  502  0.00000000000E+00  0.00000000000E+00  0.21313495503E+03  0.21313495503E+03  0.00000000000E+00 0.  1.
         21   -1    0    0  502  503 -0.00000000000E+00 -0.00000000000E+00 -0.16306749507E+04  0.16306749507E+04  0.00000000000E+00 0. -1.
    9000007    1    1    2  501    0 -0.41580306054E+03  0.10215304937E+03 -0.81043242879E+03  0.10000640741E+04  0.40000000000E+03 0.  1.
   -9000007    1    1    2    0  503  0.41580306054E+03 -0.10215304937E+03 -0.60710756688E+03  0.84374583164E+03  0.40000000000E+03 0. -1.
<mgrwt>
<rscale>  2 0.58594149E+03</rscale>
<asrwt>0</asrwt>
<pdfrwt beam="1">  1       21 0.32789994E-01 0.58594149E+03</pdfrwt>
<pdfrwt beam="2">  1       21 0.25087306E+00 0.58594149E+03</pdfrwt>
<totfact> 0.44732059E+02</totfact>
</mgrwt>
</event>
<event>
 4    1  0.4862039E-002  0.4079247E+03  0.7818608E-02  0.1041070E+00
         21   -1    0    0  501  502  0.00000000000E+00  0.00000000000E+00  0.45159829847E+03  0.45159829847E+03  0.00000000000E+00 0. -1.
         21   -1    0    0  502  503 -0.00000000000E+00 -0.00000000000E+00 -0.42434515456E+03  0.42434515456E+03  0.00000000000E+00 0. -1.
    9000007    1    1    2  501    0 -0.59120995429E+02 -0.53919074571E+02  0.17254617001E+03  0.44291617659E+03  0.40000000000E+03 0.  1.
   -9000007    1    1    2    0  503  0.59120995429E+02  0.53919074571E+02 -0.14529302610E+03  0.43302727644E+03  0.40000000000E+03 0.  1.
<mgrwt>
<rscale>  2 0.40792470E+03</rscale>
<asrwt>0</asrwt>
<pdfrwt beam="1">  1       21 0.69476661E-01 0.40792470E+03</pdfrwt>
<pdfrwt beam="2">  1       21 0.65283870E-01 0.40792470E+03</pdfrwt>
<totfact> 0.36088764E+03</totfact>
</mgrwt>
</event>
<event>
 4    1  0.4862039E-002  0.4168388E+03  0.7818608E-02  0.1038100E+00
         21   -1    0    0  503  502  0.00000000000E+00  0.00000000000E+00  0.25887043766E+03  0.25887043766E+03  0.00000000000E+00 0. -1.
         21   -1    0    0  501  503 -0.00000000000E+00 -0.00000000000E+00 -0.86846540138E+03  0.86846540138E+03  0.00000000000E+00 0. -1.
    9000007    1    1    2  501    0  0.10471719662E+03 -0.52809607804E+02 -0.57343675661E+03  0.70893177371E+03  0.40000000000E+03 0. -1.
   -9000007    1    1    2    0  502 -0.10471719662E+03  0.52809607804E+02 -0.36158207109E+02  0.41840406533E+03  0.40000000000E+03 0. -1.
<mgrwt>
<rscale>  2 0.41683875E+03</rscale>
<asrwt>0</asrwt>
<pdfrwt beam="1">  1       21 0.39826221E-01 0.41683875E+03</pdfrwt>
<pdfrwt beam="2">  1       21 0.13361006E+00 0.41683875E+03</pdfrwt>
<totfact> 0.21349876E+03</totfact>
</mgrwt>
</event>
<event>
 4    1  0.4862039E-002  0.5940135E+03  0.7818608E-02  0.9917904E-01
         21   -1    0    0  503  502  0.00000000000E+00  0.00000000000E+00  0.30996499397E+03  0.30996499397E+03  0.00000000000E+00 0.  1.
         21   -1    0    0  501  503 -0.00000000000E+00 -0.00000000000E+00 -0.19980806076E+04  0.19980806076E+04  0.00000000000E+00 0.  1.
    9000007    1    1    2  501    0  0.78455663130E+02  0.43208424815E+03 -0.16010410748E+04  0.17076839906E+04  0.40000000000E+03 0.  1.
   -9000007    1    1    2    0  502 -0.78455663130E+02 -0.43208424815E+03 -0.87074538803E+02  0.60036161094E+03  0.40000000000E+03 0.  1.
<mgrwt>
<rscale>  2 0.59401354E+03</rscale>
<asrwt>0</asrwt>
<pdfrwt beam="1">  1       21 0.47686924E-01 0.59401354E+03</pdfrwt>
<pdfrwt beam="2">  1       21 0.30739701E+00 0.59401354E+03</pdfrwt>
<totfact> 0.92570058E+01</totfact>
</mgrwt>
</event>
<event>
 4    1  0.4862039E-002  0.4138259E+03  0.7818608E-02  0.1039095E+00
         21   -1    0    0  501  502  0.00000000000E+00  0.00000000000E+00  0.11399112884E+03  0.11399112884E+03  0.00000000000E+00 0. -1.
         21   -1    0    0  502  503 -0.00000000000E+00 -0.00000000000E+00 -0.18022918751E+04  0.18022918751E+04  0.00000000000E+00 0. -1.
    9000007    1    1    2  501    0 -0.10225965929E+03 -0.28193392538E+02 -0.45326215622E+03  0.61375767821E+03  0.40000000000E+03 0. -1.
   -9000007    1    1    2    0  503  0.10225965929E+03  0.28193392538E+02 -0.12350385901E+04  0.13025253258E+04  0.40000000000E+03 0. -1.
<mgrwt>
<rscale>  2 0.41382594E+03</rscale>
<asrwt>0</asrwt>
<pdfrwt beam="1">  1       21 0.17537098E-01 0.41382594E+03</pdfrwt>
<pdfrwt beam="2">  1       21 0.27727565E+00 0.41382594E+03</pdfrwt>
<totfact> 0.11298884E+03</totfact>
</mgrwt>
</event>
<event>
 4    1  0.4862039E-002  0.4807153E+03  0.7818608E-02  0.1018939E+00
         21   -1    0    0  501  502  0.00000000000E+00  0.00000000000E+00  0.67514561298E+03  0.67514561298E+03  0.00000000000E+00 0. -1.
         21   -1    0    0  502  503 -0.00000000000E+00 -0.00000000000E+00 -0.91154788396E+03  0.91154788396E+03  0.00000000000E+00 0.  1.
    9000007    1    1    2  501    0 -0.25038938700E+03  0.91609944922E+02  0.50874835759E+03  0.69993722467E+03  0.40000000000E+03 0. -1.
   -9000007    1    1    2    0  503  0.25038938700E+03 -0.91609944922E+02 -0.74515062857E+03  0.88675627226E+03  0.40000000000E+03 0.  1.
<mgrwt>
<rscale>  2 0.48071533E+03</rscale>
<asrwt>0</asrwt>
<pdfrwt beam="1">  1       21 0.10386856E+00 0.48071533E+03</pdfrwt>
<pdfrwt beam="2">  1       21 0.14023813E+00 0.48071533E+03</pdfrwt>
<totfact> 0.21547234E+02</totfact>
</mgrwt>
</event>
<event>
 4    1  0.4862039E-002  0.4008476E+03  0.7818608E-02  0.1043487E+00
         21   -1    0    0  501  502  0.00000000000E+00  0.00000000000E+00  0.15576543075E+04  0.15576543075E+04  0.00000000000E+00 0.  1.
         21   -1    0    0  502  503 -0.00000000000E+00 -0.00000000000E+00 -0.12453749548E+03  0.12453749548E+03  0.00000000000E+00 0.  1.
    9000007    1    1    2  501    0  0.25320540744E+02  0.61385170158E+01  0.10650812830E+04  0.11380144773E+04  0.40000000000E+03 0.  1.
   -9000007    1    1    2    0  503 -0.25320540744E+02 -0.61385170158E+01  0.36803552906E+03  0.54417732572E+03  0.40000000000E+03 0.  1.
<mgrwt>
<rscale>  2 0.40084762E+03</rscale>
<asrwt>0</asrwt>
<pdfrwt beam="1">  1       21 0.23963911E+00 0.40084762E+03</pdfrwt>
<pdfrwt beam="2">  1       21 0.19159616E-01 0.40084762E+03</pdfrwt>
<totfact> 0.16311900E+03</totfact>
</mgrwt>
</event>
<event>
 4    1  0.4862039E-002  0.4116546E+03  0.7818608E-02  0.1039817E+00
         21   -1    0    0  503  502  0.00000000000E+00  0.00000000000E+00  0.76746998347E+03  0.76746998347E+03  0.00000000000E+00 0.  1.
         21   -1    0    0  501  503 -0.00000000000E+00 -0.00000000000E+00 -0.24050413314E+03  0.24050413314E+03  0.00000000000E+00 0.  1.
    9000007    1    1    2  501    0 -0.88346123733E+02 -0.40674780517E+02  0.11923599505E+03  0.42857519511E+03  0.40000000000E+03 0.  1.
   -9000007    1    1    2    0  502  0.88346123733E+02  0.40674780517E+02  0.40772985528E+03  0.57939892150E+03  0.40000000000E+03 0.  1.
<mgrwt>
<rscale>  2 0.41165456E+03</rscale>
<asrwt>0</asrwt>
<pdfrwt beam="1">  1       21 0.11807230E+00 0.41165456E+03</pdfrwt>
<pdfrwt beam="2">  1       21 0.37000636E-01 0.41165456E+03</pdfrwt>
<totfact> 0.34157758E+03</totfact>
</mgrwt>
</event>
<event>
 4    1  0.4862039E-002  0.6187616E+03  0.7818608E-02  0.9867228E-01
         21   -1    0    0  503  502  0.00000000000E+00  0.00000000000E+00  0.10578753217E+04  0.10578753217E+04  0.00000000000E+00 0.  1.
         21   -1    0    0  501  503 -0.00000000000E+00 -0.00000000000E+00 -0.45525294155E+03  0.45525294155E+03  0.00000000000E+00 0.  1.
    9000007    1    1    2  501    0 -0.18084180997E+03 -0.43607583982E+03 -0.41249549712E+02  0.62013500438E+03  0.40000000000E+03 0.  1.
   -9000007    1    1    2    0  502  0.18084180997E+03  0.43607583982E+03  0.64387192982E+03  0.89299325883E+03  0.40000000000E+03 0.  1.
<mgrwt>
<rscale>  2 0.61876158E+03</rscale>
<asrwt>0</asrwt>
<pdfrwt beam="1">  1       21 0.16275005E+00 0.61876158E+03</pdfrwt>
<pdfrwt beam="2">  1       21 0.70038914E-01 0.61876158E+03</pdfrwt>
<totfact> 0.34280366E+02</totfact>
</mgrwt>
</event>
<event>
 4    1  0.4862039E-002  0.4324890E+03  0.7818608E-02  0.1033077E+00
         21   -1    0    0  501  502  0.00000000000E+00  0.00000000000E+00  0.33439792450E+03  0.33439792450E+03  0.00000000000E+00 0.  1.
         21   -1    0    0  502  503 -0.00000000000E+00 -0.00000000000E+00 -0.13959643861E+04  0.13959643861E+04  0.00000000000E+00 0.  1.
    9000007    1    1    2  501    0 -0.15877749341E+03 -0.42853753735E+02  0.13899583611E+03  0.45427588433E+03  0.40000000000E+03 0.  1.
   -9000007    1    1    2    0  503  0.15877749341E+03  0.42853753735E+02 -0.12005622977E+04  0.12760864263E+04  0.40000000000E+03 0.  1.
<mgrwt>
<rscale>  2 0.43248900E+03</rscale>
<asrwt>0</asrwt>
<pdfrwt beam="1">  1       21 0.51445835E-01 0.43248900E+03</pdfrwt>
<pdfrwt beam="2">  1       21 0.21476375E+00 0.43248900E+03</pdfrwt>
<totfact> 0.31906526E+02</totfact>
</mgrwt>
</event>
<event>
 4    1  0.4862039E-002  0.4270667E+03  0.7818608E-02  0.1034791E+00
         21   -1    0    0  503  502  0.00000000000E+00  0.00000000000E+00  0.34885531869E+03  0.34885531869E+03  0.00000000000E+00 0. -1.
         21   -1    0    0  501  503 -0.00000000000E+00 -0.00000000000E+00 -0.77850907018E+03  0.77850907018E+03  0.00000000000E+00 0. -1.
    9000007    1    1    2  501    0 -0.37167770618E+02  0.14492942156E+03 -0.53787318643E+03  0.68679949409E+03  0.40000000000E+03 0. -1.
   -9000007    1    1    2    0  502  0.37167770618E+02 -0.14492942156E+03  0.10821943494E+03  0.44056489477E+03  0.40000000000E+03 0. -1.
<mgrwt>
<rscale>  2 0.42706672E+03</rscale>
<asrwt>0</asrwt>
<pdfrwt beam="1">  1       21 0.53670049E-01 0.42706672E+03</pdfrwt>
<pdfrwt beam="2">  1       21 0.11977063E+00 0.42706672E+03</pdfrwt>
<totfact> 0.15052251E+03</totfact>
</mgrwt>
</event>
<event>
 4    1  0.4862039E-002  0.5243794E+03  0.7818608E-02  0.1007604E+00
         21   -1    0    0  501  502  0.00000000000E+00  0.00000000000E+00  0.46646140788E+03  0.46646140788E+03  0.00000000000E+00 0. -1.
         21   -1    0    0  502  503 -0.00000000000E+00 -0.00000000000E+00 -0.83062670697E+03  0.83062670697E+03  0.00000000000E+00 0. -1.
    9000007    1    1    2  501    0 -0.96719970190E+01  0.33893984718E+03 -0.53151997922E+03  0.74665069199E+03  0.40000000000E+03 0. -1.
   -9000007    1    1    2    0  503  0.96719970190E+01 -0.33893984718E+03  0.16735468013E+03  0.55043742286E+03  0.40000000000E+03 0. -1.
<mgrwt>
<rscale>  2 0.52437941E+03</rscale>
<asrwt>0</asrwt>
<pdfrwt beam="1">  1       21 0.71763294E-01 0.52437941E+03</pdfrwt>
<pdfrwt beam="2">  1       21 0.12778872E+00 0.52437941E+03</pdfrwt>
<totfact> 0.64568928E+02</totfact>
</mgrwt>
</event>
<event>
 4    1  0.4862039E-002  0.4029651E+03  0.7818608E-02  0.1042758E+00
         21   -1    0    0  501  502  0.00000000000E+00  0.00000000000E+00  0.24728787890E+04  0.24728787890E+04  0.00000000000E+00 0.  1.
         21   -1    0    0  502  503 -0.00000000000E+00 -0.00000000000E+00 -0.21929600356E+03  0.21929600356E+03  0.00000000000E+00 0.  1.
    9000007    1    1    2  501    0  0.82659236499E+01 -0.48088546216E+02  0.22534640709E+04  0.22892097223E+04  0.40000000000E+03 0.  1.
   -9000007    1    1    2    0  503 -0.82659236499E+01  0.48088546216E+02  0.11871455015E+00  0.40296507028E+03  0.40000000000E+03 0.  1.
<mgrwt>
<rscale>  2 0.40296505E+03</rscale>
<asrwt>0</asrwt>
<pdfrwt beam="1">  1       21 0.38044287E+00 0.40296505E+03</pdfrwt>
<pdfrwt beam="2">  1       21 0.33737848E-01 0.40296505E+03</pdfrwt>
<totfact> 0.75705809E+01</totfact>
</mgrwt>
</event>
<event>
 4    1  0.4862039E-002  0.4065257E+03  0.7818608E-02  0.1041543E+00
         21   -1    0    0  503  502  0.00000000000E+00  0.00000000000E+00  0.11101845006E+03  0.11101845006E+03  0.00000000000E+00 0.  1.
         21   -1    0    0  501  503 -0.00000000000E+00 -0.00000000000E+00 -0.14985647300E+04  0.14985647300E+04  0.00000000000E+00 0.  1.
    9000007    1    1    2  501    0 -0.12975812960E+01  0.72536174504E+02 -0.62817985824E+03  0.74824669370E+03  0.40000000000E+03 0. -1.
   -9000007    1    1    2    0  502  0.12975812960E+01 -0.72536174504E+02 -0.75936642169E+03  0.86133648635E+03  0.40000000000E+03 0. -1.
<mgrwt>
<rscale>  2 0.40652574E+03</rscale>
<asrwt>0</asrwt>
<pdfrwt beam="1">  1       21 0.17079762E-01 0.40652574E+03</pdfrwt>
<pdfrwt beam="2">  1       21 0.23054842E+00 0.40652574E+03</pdfrwt>
<totfact> 0.22993807E+03</totfact>
</mgrwt>
</event>
<event>
 4    1  0.4862039E-002  0.4688807E+03  0.7818608E-02  0.1022237E+00
         21   -1    0    0  501  502  0.00000000000E+00  0.00000000000E+00  0.44371539858E+03  0.44371539858E+03  0.00000000000E+00 0. -1.
         21   -1    0    0  502  503 -0.00000000000E+00 -0.00000000000E+00 -0.73236516373E+03  0.73236516373E+03  0.00000000000E+00 0. -1.
    9000007    1    1    2  501    0  0.16792580810E+03 -0.17790467431E+03  0.19011516302E+03  0.50595743435E+03  0.40000000000E+03 0. -1.
   -9000007    1    1    2    0  503 -0.16792580810E+03  0.17790467431E+03 -0.47876492818E+03  0.67012312796E+03  0.40000000000E+03 0. -1.
<mgrwt>
<rscale>  2 0.46888074E+03</rscale>
<asrwt>0</asrwt>
<pdfrwt beam="1">  1       21 0.68263907E-01 0.46888074E+03</pdfrwt>
<pdfrwt beam="2">  1       21 0.11267156E+00 0.46888074E+03</pdfrwt>
<totfact> 0.10174788E+03</totfact>
</mgrwt>
</event>
<event>
 4    1  0.4862039E-002  0.4151871E+03  0.7818608E-02  0.1038644E+00
         21   -1    0    0  501  502  0.00000000000E+00  0.00000000000E+00  0.27244750160E+03  0.27244750160E+03  0.00000000000E+00 0. -1.
         21   -1    0    0  502  503 -0.00000000000E+00 -0.00000000000E+00 -0.10853883478E+04  0.10853883478E+04  0.00000000000E+00 0. -1.
    9000007    1    1    2  501    0 -0.10671431899E+02 -0.11075409047E+03  0.31978897490E+02  0.41641685593E+03  0.40000000000E+03 0. -1.
   -9000007    1    1    2    0  503  0.10671431899E+02  0.11075409047E+03 -0.84491974372E+03  0.94141899351E+03  0.40000000000E+03 0. -1.
<mgrwt>
<rscale>  2 0.41518712E+03</rscale>
<asrwt>0</asrwt>
<pdfrwt beam="1">  1       21 0.41915000E-01 0.41518712E+03</pdfrwt>
<pdfrwt beam="2">  1       21 0.16698282E+00 0.41518712E+03</pdfrwt>
<totfact> 0.10505537E+03</totfact>
</mgrwt>
</event>
<event>
 4    1  0.4862039E-002  0.4748581E+03  0.7818608E-02  0.1020558E+00
         21   -1    0    0  503  502  0.00000000000E+00  0.00000000000E+00  0.25720797302E+03  0.25720797302E+03  0.00000000000E+00 0. -1.
         21   -1    0    0  501  503 -0.00000000000E+00 -0.00000000000E+00 -0.97561231745E+03  0.97561231745E+03  0.00000000000E+00 0. -1.
    9000007    1    1    2  501    0  0.24880845717E+03 -0.59871062290E+02 -0.55548883335E+03  0.73079274520E+03  0.40000000000E+03 0. -1.
   -9000007    1    1    2    0  502 -0.24880845717E+03  0.59871062290E+02 -0.16291551107E+03  0.50202754527E+03  0.40000000000E+03 0. -1.
<mgrwt>
<rscale>  2 0.47485808E+03</rscale>
<asrwt>0</asrwt>
<pdfrwt beam="1">  1       21 0.39570457E-01 0.47485808E+03</pdfrwt>
<pdfrwt beam="2">  1       21 0.15009420E+00 0.47485808E+03</pdfrwt>
<totfact> 0.15499589E+03</totfact>
</mgrwt>
</event>
<event>
 4    1  0.4862039E-002  0.4775971E+03  0.7818608E-02  0.1019798E+00
         21   -1    0    0  503  502  0.00000000000E+00  0.00000000000E+00  0.16934092671E+04  0.16934092671E+04  0.00000000000E+00 0. -1.
         21   -1    0    0  501  503 -0.00000000000E+00 -0.00000000000E+00 -0.89828605345E+03  0.89828605345E+03  0.00000000000E+00 0. -1.
    9000007    1    1    2  501    0 -0.18470343740E+03  0.18434646280E+03 -0.79718597458E+03  0.92930321005E+03  0.40000000000E+03 0. -1.
   -9000007    1    1    2    0  502  0.18470343740E+03 -0.18434646280E+03  0.15923091882E+04  0.16623921105E+04  0.40000000000E+03 0. -1.
<mgrwt>
<rscale>  2 0.47759709E+03</rscale>
<asrwt>0</asrwt>
<pdfrwt beam="1">  1       21 0.26052450E+00 0.47759709E+03</pdfrwt>
<pdfrwt beam="2">  1       21 0.13819785E+00 0.47759709E+03</pdfrwt>
<totfact> 0.15689211E+01</totfact>
</mgrwt>
</event>
<event>
 4    1  0.4862039E-002  0.4006144E+03  0.7818608E-02  0.1043567E+00
         21   -1    0    0  501  502  0.00000000000E+00  0.00000000000E+00  0.32393323496E+03  0.32393323496E+03  0.00000000000E+00 0. -1.
         21   -1    0    0  502  503 -0.00000000000E+00 -0.00000000000E+00 -0.56207053476E+03  0.56207053476E+03  0.00000000000E+00 0. -1.
    9000007    1    1    2  501    0 -0.22093854248E+02  0.19413155252E+01  0.33449810910E+02  0.40200845383E+03  0.40000000000E+03 0. -1.
   -9000007    1    1    2    0  503  0.22093854248E+02 -0.19413155252E+01 -0.27158711071E+03  0.48399531589E+03  0.40000000000E+03 0. -1.
<mgrwt>
<rscale>  2 0.40061441E+03</rscale>
<asrwt>0</asrwt>
<pdfrwt beam="1">  1       21 0.49835882E-01 0.40061441E+03</pdfrwt>
<pdfrwt beam="2">  1       21 0.86472390E-01 0.40061441E+03</pdfrwt>
<totfact> 0.39366879E+03</totfact>
</mgrwt>
</event>
<event>
 4    1  0.4862039E-002  0.4254565E+03  0.7818608E-02  0.1035305E+00
         21   -1    0    0  503  502  0.00000000000E+00  0.00000000000E+00  0.63956994616E+03  0.63956994616E+03  0.00000000000E+00 0.  1.
         21   -1    0    0  501  503 -0.00000000000E+00 -0.00000000000E+00 -0.39733874464E+03  0.39733874464E+03  0.00000000000E+00 0.  1.
    9000007    1    1    2  501    0  0.45683272143E+02  0.13757271947E+03 -0.15697253674E+03  0.45349045391E+03  0.40000000000E+03 0.  1.
   -9000007    1    1    2    0  502 -0.45683272143E+02 -0.13757271947E+03  0.39920373826E+03  0.58341823689E+03  0.40000000000E+03 0.  1.
<mgrwt>
<rscale>  2 0.42545648E+03</rscale>
<asrwt>0</asrwt>
<pdfrwt beam="1">  1       21 0.98395376E-01 0.42545648E+03</pdfrwt>
<pdfrwt beam="2">  1       21 0.61129038E-01 0.42545648E+03</pdfrwt>
<totfact> 0.18459489E+03</totfact>
</mgrwt>
</event>
<event>
 4    1  0.4862039E-002  0.4302174E+03  0.7818608E-02  0.1033791E+00
         21   -1    0    0  501  502  0.00000000000E+00  0.00000000000E+00  0.22365018616E+03  0.22365018616E+03  0.00000000000E+00 0. -1.
         21   -1    0    0  502  503 -0.00000000000E+00 -0.00000000000E+00 -0.10196242841E+04  0.10196242841E+04  0.00000000000E+00 0. -1.
    9000007    1    1    2  501    0  0.15802671643E+03  0.10702031235E+02 -0.12819761900E+03  0.44891157937E+03  0.40000000000E+03 0. -1.
   -9000007    1    1    2    0  503 -0.15802671643E+03 -0.10702031235E+02 -0.66777647895E+03  0.79436289088E+03  0.40000000000E+03 0. -1.
<mgrwt>
<rscale>  2 0.43021736E+03</rscale>
<asrwt>0</asrwt>
<pdfrwt beam="1">  1       21 0.34407721E-01 0.43021736E+03</pdfrwt>
<pdfrwt beam="2">  1       21 0.15686527E+00 0.43021736E+03</pdfrwt>
<totfact> 0.18595340E+03</totfact>
</mgrwt>
</event>
<event>
 4    1  0.4862039E-002  0.5211327E+03  0.7818608E-02  0.1008406E+00
         21   -1    0    0  501  502  0.00000000000E+00  0.00000000000E+00  0.29429200465E+03  0.29429200465E+03  0.00000000000E+00 0.  1.
         21   -1    0    0  502  503 -0.00000000000E+00 -0.00000000000E+00 -0.12791147435E+04  0.12791147435E+04  0.00000000000E+00 0.  1.
    9000007    1    1    2  501    0 -0.19166296110E+03  0.27357732853E+03 -0.77209286778E+02  0.52682114546E+03  0.40000000000E+03 0.  1.
   -9000007    1    1    2    0  503  0.19166296110E+03 -0.27357732853E+03 -0.90761345206E+03  0.10465856027E+04  0.40000000000E+03 0.  1.
<mgrwt>
<rscale>  2 0.52113266E+03</rscale>
<asrwt>0</asrwt>
<pdfrwt beam="1">  1       21 0.45275692E-01 0.52113266E+03</pdfrwt>
<pdfrwt beam="2">  1       21 0.19678689E+00 0.52113266E+03</pdfrwt>
<totfact> 0.52686021E+02</totfact>
</mgrwt>
</event>
<event>
 4    1  0.4862039E-002  0.4262334E+03  0.7818608E-02  0.1035056E+00
         21   -1    0    0  503  502  0.00000000000E+00  0.00000000000E+00  0.52529386294E+03  0.52529386294E+03  0.00000000000E+00 0. -1.
         21   -1    0    0  501  503 -0.00000000000E+00 -0.00000000000E+00 -0.34829120561E+03  0.34829120561E+03  0.00000000000E+00 0. -1.
    9000007    1    1    2  501    0 -0.68338301437E+02  0.13040229981E+03  0.51961452466E+02  0.42938895629E+03  0.40000000000E+03 0. -1.
   -9000007    1    1    2    0  502  0.68338301437E+02 -0.13040229981E+03  0.12504120486E+03  0.44419611227E+03  0.40000000000E+03 0. -1.
<mgrwt>
<rscale>  2 0.42623337E+03</rscale>
<asrwt>0</asrwt>
<pdfrwt beam="1">  1       21 0.80814440E-01 0.42623337E+03</pdfrwt>
<pdfrwt beam="2">  1       21 0.53583263E-01 0.42623337E+03</pdfrwt>
<totfact> 0.39098874E+03</totfact>
</mgrwt>
</event>
<event>
 4    1  0.4862039E-002  0.4569937E+03  0.7818608E-02  0.1025657E+00
         21   -1    0    0  501  502  0.00000000000E+00  0.00000000000E+00  0.35983830428E+03  0.35983830428E+03  0.00000000000E+00 0.  1.
         21   -1    0    0  502  503 -0.00000000000E+00 -0.00000000000E+00 -0.64974360739E+03  0.64974360739E+03  0.00000000000E+00 0. -1.
    9000007    1    1    2  501    0  0.22100500002E+03 -0.14095485110E+00  0.19978997760E+02  0.45743020260E+03  0.40000000000E+03 0.  1.
   -9000007    1    1    2    0  503 -0.22100500002E+03  0.14095485110E+00 -0.30988430087E+03  0.55215170907E+03  0.40000000000E+03 0. -1.
<mgrwt>
<rscale>  2 0.45699369E+03</rscale>
<asrwt>0</asrwt>
<pdfrwt beam="1">  1       21 0.55359740E-01 0.45699369E+03</pdfrwt>
<pdfrwt beam="2">  1       21 0.99960553E-01 0.45699369E+03</pdfrwt>
<totfact> 0.21786175E+03</totfact>
</mgrwt>
</event>
<event>
 4    1  0.4862039E-002  0.5146750E+03  0.7818608E-02  0.1010018E+00
         21   -1    0    0  501  502  0.00000000000E+00  0.00000000000E+00  0.14331538853E+03  0.14331538853E+03  0.00000000000E+00 0. -1.
         21   -1    0    0  502  503 -0.00000000000E+00 -0.00000000000E+00 -0.21155010165E+04  0.21155010165E+04  0.00000000000E+00 0. -1.
    9000007    1    1    2  501    0 -0.21144199566E+02  0.32317685878E+03 -0.58470851027E+03  0.77895725249E+03  0.40000000000E+03 0. -1.
   -9000007    1    1    2    0  503  0.21144199566E+02 -0.32317685878E+03 -0.13874771177E+04  0.14798591525E+04  0.40000000000E+03 0. -1.
<mgrwt>
<rscale>  2 0.51467500E+03</rscale>
<asrwt>0</asrwt>
<pdfrwt beam="1">  1       21 0.22048521E-01 0.51467500E+03</pdfrwt>
<pdfrwt beam="2">  1       21 0.32546170E+00 0.51467500E+03</pdfrwt>
<totfact> 0.35461033E+02</totfact>
</mgrwt>
</event>
<event>
 4    1  0.4862039E-002  0.5116076E+03  0.7818608E-02  0.1010793E+00
         21   -1    0    0  501  502  0.00000000000E+00  0.00000000000E+00  0.90115749927E+03  0.90115749927E+03  0.00000000000E+00 0. -1.
         21   -1    0    0  502  503 -0.00000000000E+00 -0.00000000000E+00 -0.30349144660E+03  0.30349144660E+03  0.00000000000E+00 0. -1.
    9000007    1    1    2  501    0 -0.95486743596E+02 -0.30434293523E+03  0.42368603504E+03  0.66426816627E+03  0.40000000000E+03 0. -1.
   -9000007    1    1    2    0  503  0.95486743596E+02  0.30434293523E+03  0.17398001763E+03  0.54038077960E+03  0.40000000000E+03 0. -1.
<mgrwt>
<rscale>  2 0.51160760E+03</rscale>
<asrwt>0</asrwt>
<pdfrwt beam="1">  1       21 0.13863961E+00 0.51160760E+03</pdfrwt>
<pdfrwt beam="2">  1       21 0.46690992E-01 0.51160760E+03</pdfrwt>
<totfact> 0.13408218E+03</totfact>
</mgrwt>
</event>
<event>
 4    1  0.4862039E-002  0.4315520E+03  0.7818608E-02  0.1033371E+00
         21   -1    0    0  501  502  0.00000000000E+00  0.00000000000E+00  0.15999059051E+03  0.15999059051E+03  0.00000000000E+00 0. -1.
         21   -1    0    0  502  503 -0.00000000000E+00 -0.00000000000E+00 -0.13436393414E+04  0.13436393414E+04  0.00000000000E+00 0. -1.
    9000007    1    1    2  501    0  0.15643157935E+03 -0.42027333758E+02 -0.31696584646E+03  0.53544792802E+03  0.40000000000E+03 0. -1.
   -9000007    1    1    2    0  503 -0.15643157935E+03  0.42027333758E+02 -0.86668290442E+03  0.96818200387E+03  0.40000000000E+03 0. -1.
<mgrwt>
<rscale>  2 0.43155201E+03</rscale>
<asrwt>0</asrwt>
<pdfrwt beam="1">  1       21 0.24613937E-01 0.43155201E+03</pdfrwt>
<pdfrwt beam="2">  1       21 0.20671375E+00 0.43155201E+03</pdfrwt>
<totfact> 0.16088465E+03</totfact>
</mgrwt>
</event>
<event>
 4    1  0.4862039E-002  0.5978127E+03  0.7818608E-02  0.9909954E-01
         21   -1    0    0  503  502  0.00000000000E+00  0.00000000000E+00  0.13890047975E+04  0.13890047975E+04  0.00000000000E+00 0.  1.
         21   -1    0    0  501  503 -0.00000000000E+00 -0.00000000000E+00 -0.29653702009E+03  0.29653702009E+03  0.00000000000E+00 0. -1.
    9000007    1    1    2  501    0 -0.41327822497E+03 -0.16303736944E+03  0.23964151511E+03  0.64405599976E+03  0.40000000000E+03 0. -1.
   -9000007    1    1    2    0  502  0.41327822497E+03  0.16303736944E+03  0.85282626227E+03  0.10414858178E+04  0.40000000000E+03 0.  1.
<mgrwt>
<rscale>  2 0.59781274E+03</rscale>
<asrwt>0</asrwt>
<pdfrwt beam="1">  1       21 0.21369304E+00 0.59781274E+03</pdfrwt>
<pdfrwt beam="2">  1       21 0.45621081E-01 0.59781274E+03</pdfrwt>
<totfact> 0.38823298E+02</totfact>
</mgrwt>
</event>
<event>
 4    1  0.4862039E-002  0.4195571E+03  0.7818608E-02  0.1037211E+00
         21   -1    0    0  501  502  0.00000000000E+00  0.00000000000E+00  0.27850880031E+03  0.27850880031E+03  0.00000000000E+00 0.  1.
         21   -1    0    0  502  503 -0.00000000000E+00 -0.00000000000E+00 -0.17752350954E+04  0.17752350954E+04  0.00000000000E+00 0. -1.
    9000007    1    1    2  501    0  0.95871015199E+02  0.82685774430E+02 -0.15724042581E+04  0.16274161545E+04  0.40000000000E+03 0. -1.
   -9000007    1    1    2    0  503 -0.95871015199E+02 -0.82685774430E+02  0.75677963048E+02  0.42632774123E+03  0.40000000000E+03 0.  1.
<mgrwt>
<rscale>  2 0.41955713E+03</rscale>
<asrwt>0</asrwt>
<pdfrwt beam="1">  1       21 0.42847506E-01 0.41955713E+03</pdfrwt>
<pdfrwt beam="2">  1       21 0.27311310E+00 0.41955713E+03</pdfrwt>
<totfact> 0.20573168E+02</totfact>
</mgrwt>
</event>
<event>
 4    1  0.4862039E-002  0.6849833E+03  0.7818608E-02  0.9743263E-01
         21   -1    0    0  503  502  0.00000000000E+00  0.00000000000E+00  0.12029161955E+04  0.12029161955E+04  0.00000000000E+00 0. -1.
         21   -1    0    0  501  503 -0.00000000000E+00 -0.00000000000E+00 -0.39261972882E+03  0.39261972882E+03  0.00000000000E+00 0. -1.
    9000007    1    1    2  501    0  0.26299085895E+03 -0.48993664530E+03  0.46964048612E+03  0.83052049613E+03  0.40000000000E+03 0. -1.
   -9000007    1    1    2    0  502 -0.26299085895E+03  0.48993664530E+03  0.34065598060E+03  0.76501542822E+03  0.40000000000E+03 0. -1.
<mgrwt>
<rscale>  2 0.68498329E+03</rscale>
<asrwt>0</asrwt>
<pdfrwt beam="1">  1       21 0.18506403E+00 0.68498329E+03</pdfrwt>
<pdfrwt beam="2">  1       21 0.60403036E-01 0.68498329E+03</pdfrwt>
<totfact> 0.32130503E+02</totfact>
</mgrwt>
</event>
<event>
 4    1  0.4862039E-002  0.4517934E+03  0.7818608E-02  0.1027189E+00
         21   -1    0    0  501  502  0.00000000000E+00  0.00000000000E+00  0.12627598910E+04  0.12627598910E+04  0.00000000000E+00 0.  1.
         21   -1    0    0  502  503 -0.00000000000E+00 -0.00000000000E+00 -0.28870209265E+03  0.28870209265E+03  0.00000000000E+00 0.  1.
    9000007    1    1    2  501    0 -0.20327599915E+03  0.52878644583E+02  0.10016501515E+04  0.10988267874E+04  0.40000000000E+03 0.  1.
   -9000007    1    1    2    0  503  0.20327599915E+03 -0.52878644583E+02 -0.27592353131E+02  0.45263519619E+03  0.40000000000E+03 0.  1.
<mgrwt>
<rscale>  2 0.45179341E+03</rscale>
<asrwt>0</asrwt>
<pdfrwt beam="1">  1       21 0.19427075E+00 0.45179341E+03</pdfrwt>
<pdfrwt beam="2">  1       21 0.44415707E-01 0.45179341E+03</pdfrwt>
<totfact> 0.58834628E+02</totfact>
</mgrwt>
</event>
<event>
 4    1  0.4862039E-002  0.4932142E+03  0.7818608E-02  0.1015565E+00
         21   -1    0    0  503  502  0.00000000000E+00  0.00000000000E+00  0.21338519559E+03  0.21338519559E+03  0.00000000000E+00 0. -1.
         21   -1    0    0  501  503 -0.00000000000E+00 -0.00000000000E+00 -0.12775758647E+04  0.12775758647E+04  0.00000000000E+00 0.  1.
    9000007    1    1    2  501    0  0.27221928912E+03 -0.95691759253E+02 -0.77672308085E+03  0.92008640816E+03  0.40000000000E+03 0.  1.
   -9000007    1    1    2    0  502 -0.27221928912E+03  0.95691759253E+02 -0.28746758829E+03  0.57087465215E+03  0.40000000000E+03 0. -1.
<mgrwt>
<rscale>  2 0.49321421E+03</rscale>
<asrwt>0</asrwt>
<pdfrwt beam="1">  1       21 0.32828492E-01 0.49321421E+03</pdfrwt>
<pdfrwt beam="2">  1       21 0.19655013E+00 0.49321421E+03</pdfrwt>
<totfact> 0.10357572E+03</totfact>
</mgrwt>
</event>
<event>
 4    1  0.4862039E-002  0.4618528E+03  0.7818608E-02  0.1024245E+00
         21   -1    0    0  503  502  0.00000000000E+00  0.00000000000E+00  0.24668868231E+03  0.24668868231E+03  0.00000000000E+00 0.  1.
         21   -1    0    0  501  503 -0.00000000000E+00 -0.00000000000E+00 -0.86631864207E+03  0.86631864207E+03  0.00000000000E+00 0.  1.
    9000007    1    1    2  501    0 -0.79233069139E+02  0.21686434905E+03 -0.33398048434E+03  0.56995700632E+03  0.40000000000E+03 0.  1.
   -9000007    1    1    2    0  502  0.79233069139E+02 -0.21686434905E+03 -0.28564947542E+03  0.54305031806E+03  0.40000000000E+03 0.  1.
<mgrwt>
<rscale>  2 0.46185282E+03</rscale>
<asrwt>0</asrwt>
<pdfrwt beam="1">  1       21 0.37952105E-01 0.46185282E+03</pdfrwt>
<pdfrwt beam="2">  1       21 0.13327979E+00 0.46185282E+03</pdfrwt>
<totfact> 0.23304877E+03</totfact>
</mgrwt>
</event>
<event>
 4    1  0.4862039E-002  0.5240363E+03  0.7818608E-02  0.1007689E+00
         21   -1    0    0  501  502  0.00000000000E+00  0.00000000000E+00  0.37194113340E+03  0.37194113340E+03  0.00000000000E+00 0. -1.
         21   -1    0    0  502  503 -0.00000000000E+00 -0.00000000000E+00 -0.81038563555E+03  0.81038563555E+03  0.00000000000E+00 0. -1.
    9000007    1    1    2  501    0  0.16011955972E+03  0.29828813366E+03 -0.42941268033E+02  0.52579276962E+03  0.40000000000E+03 0. -1.
   -9000007    1    1    2    0  503 -0.16011955972E+03 -0.29828813366E+03 -0.39550323411E+03  0.65653399933E+03  0.40000000000E+03 0. -1.
<mgrwt>
<rscale>  2 0.52403634E+03</rscale>
<asrwt>0</asrwt>
<pdfrwt beam="1">  1       21 0.57221713E-01 0.52403634E+03</pdfrwt>
<pdfrwt beam="2">  1       21 0.12467471E+00 0.52403634E+03</pdfrwt>
<totfact> 0.11392571E+03</totfact>
</mgrwt>
</event>
<event>
 4    1  0.4862039E-002  0.4298960E+03  0.7818608E-02  0.1033893E+00
         21   -1    0    0  501  502  0.00000000000E+00  0.00000000000E+00  0.57157863638E+03  0.57157863638E+03  0.00000000000E+00 0. -1.
         21   -1    0    0  502  503 -0.00000000000E+00 -0.00000000000E+00 -0.40803177892E+03  0.40803177892E+03  0.00000000000E+00 0.  1.
    9000007    1    1    2  501    0  0.84563275060E+02 -0.13288935504E+03  0.30493204744E+03  0.52706174375E+03  0.40000000000E+03 0. -1.
   -9000007    1    1    2    0  503 -0.84563275060E+02  0.13288935504E+03 -0.14138518998E+03  0.45254867154E+03  0.40000000000E+03 0.  1.
<mgrwt>
<rscale>  2 0.42989595E+03</rscale>
<asrwt>0</asrwt>
<pdfrwt beam="1">  1       21 0.87935175E-01 0.42989595E+03</pdfrwt>
<pdfrwt beam="2">  1       21 0.62774120E-01 0.42989595E+03</pdfrwt>
<totfact> 0.22718647E+03</totfact>
</mgrwt>
</event>
<event>
 4    1  0.4862039E-002  0.4014946E+03  0.7818608E-02  0.1043263E+00
         21   -1    0    0  503  502  0.00000000000E+00  0.00000000000E+00  0.22854975878E+03  0.22854975878E+03  0.00000000000E+00 0. -1.
         21   -1    0    0  501  503 -0.00000000000E+00 -0.00000000000E+00 -0.70841623443E+03  0.70841623443E+03  0.00000000000E+00 0. -1.
    9000007    1    1    2  501    0 -0.91280605119E+01  0.33385311490E+02 -0.27096659082E+03  0.48437670655E+03  0.40000000000E+03 0. -1.
   -9000007    1    1    2    0  502  0.91280605119E+01 -0.33385311490E+02 -0.20889988484E+03  0.45258928666E+03  0.40000000000E+03 0. -1.
<mgrwt>
<rscale>  2 0.40149458E+03</rscale>
<asrwt>0</asrwt>
<pdfrwt beam="1">  1       21 0.35161501E-01 0.40149458E+03</pdfrwt>
<pdfrwt beam="2">  1       21 0.10898711E+00 0.40149458E+03</pdfrwt>
<totfact> 0.46410090E+03</totfact>
</mgrwt>
</event>
<event>
 4    1  0.4862039E-002  0.4393259E+03  0.7818608E-02  0.1030954E+00
         21   -1    0    0  501  502  0.00000000000E+00  0.00000000000E+00  0.46665942484E+03  0.46665942484E+03  0.00000000000E+00 0. -1.
         21   -1    0    0  502  503 -0.00000000000E+00 -0.00000000000E+00 -0.42130006348E+03  0.42130006348E+03  0.00000000000E+00 0. -1.
    9000007    1    1    2  501    0  0.17023006381E+03  0.63474096445E+02  0.82728152245E+02  0.44704718176E+03  0.40000000000E+03 0. -1.
   -9000007    1    1    2    0  503 -0.17023006381E+03 -0.63474096445E+02 -0.37368790886E+02  0.44091230656E+03  0.40000000000E+03 0. -1.
<mgrwt>
<rscale>  2 0.43932589E+03</rscale>
<asrwt>0</asrwt>
<pdfrwt beam="1">  1       21 0.71793758E-01 0.43932589E+03</pdfrwt>
<pdfrwt beam="2">  1       21 0.64815394E-01 0.43932589E+03</pdfrwt>
<totfact> 0.33667933E+03</totfact>
</mgrwt>
</event>
<event>
 4    1  0.4862039E-002  0.6112958E+03  0.7818608E-02  0.9882244E-01
         21   -1    0    0  501  502  0.00000000000E+00  0.00000000000E+00  0.44095284468E+03  0.44095284468E+03  0.00000000000E+00 0. -1.
         21   -1    0    0  502  503 -0.00000000000E+00 -0.00000000000E+00 -0.87434317119E+03  0.87434317119E+03  0.00000000000E+00 0. -1.
    9000007    1    1    2  501    0 -0.33118084971E+02 -0.46107023033E+03 -0.10134264494E+03  0.61963932778E+03  0.40000000000E+03 0. -1.
   -9000007    1    1    2    0  503  0.33118084971E+02  0.46107023033E+03 -0.33204768157E+03  0.69565668809E+03  0.40000000000E+03 0. -1.
<mgrwt>
<rscale>  2 0.61129581E+03</rscale>
<asrwt>0</asrwt>
<pdfrwt beam="1">  1       21 0.67838900E-01 0.61129581E+03</pdfrwt>
<pdfrwt beam="2">  1       21 0.13451433E+00 0.61129581E+03</pdfrwt>
<totfact> 0.62216572E+02</totfact>
</mgrwt>
</event>
<event>
 4    1  0.4862039E-002  0.5077036E+03  0.7818608E-02  0.1011787E+00
         21   -1    0    0  501  502  0.00000000000E+00  0.00000000000E+00  0.36449604552E+03  0.36449604552E+03  0.00000000000E+00 0.  1.
         21   -1    0    0  502  503 -0.00000000000E+00 -0.00000000000E+00 -0.72882545567E+03  0.72882545567E+03  0.00000000000E+00 0.  1.
    9000007    1    1    2  501    0 -0.19750863430E+03 -0.24239078757E+03 -0.87948221230E+02  0.51526482913E+03  0.40000000000E+03 0.  1.
   -9000007    1    1    2    0  503  0.19750863430E+03  0.24239078757E+03 -0.27638118892E+03  0.57805667206E+03  0.40000000000E+03 0.  1.
<mgrwt>
<rscale>  2 0.50770361E+03</rscale>
<asrwt>0</asrwt>
<pdfrwt beam="1">  1       21 0.56076315E-01 0.50770361E+03</pdfrwt>
<pdfrwt beam="2">  1       21 0.11212699E+00 0.50770361E+03</pdfrwt>
<totfact> 0.15670180E+03</totfact>
</mgrwt>
</event>
<event>
 4    1  0.4862039E-002  0.4218962E+03  0.7818608E-02  0.1036451E+00
         21   -1    0    0  503  502  0.00000000000E+00  0.00000000000E+00  0.21893220763E+04  0.21893220763E+04  0.00000000000E+00 0. -1.
         21   -1    0    0  501  503 -0.00000000000E+00 -0.00000000000E+00 -0.86007808032E+02  0.86007808032E+02  0.00000000000E+00 0. -1.
    9000007    1    1    2  501    0 -0.32250788904E+02 -0.13021630408E+03  0.78554806438E+03  0.89167379724E+03  0.40000000000E+03 0. -1.
   -9000007    1    1    2    0  502  0.32250788904E+02  0.13021630408E+03  0.13177662039E+04  0.13836560871E+04  0.40000000000E+03 0. -1.
<mgrwt>
<rscale>  2 0.42189619E+03</rscale>
<asrwt>0</asrwt>
<pdfrwt beam="1">  1       21 0.33681874E+00 0.42189619E+03</pdfrwt>
<pdfrwt beam="2">  1       21 0.13231972E-01 0.42189619E+03</pdfrwt>
<totfact> 0.83182207E+02</totfact>
</mgrwt>
</event>
<event>
 4    1  0.4862039E-002  0.7301300E+03  0.7818608E-02  0.9667049E-01
         21   -1    0    0  501  502  0.00000000000E+00  0.00000000000E+00  0.50018412882E+03  0.50018412882E+03  0.00000000000E+00 0.  1.
         21   -1    0    0  502  503 -0.00000000000E+00 -0.00000000000E+00 -0.15978158562E+04  0.15978158562E+04  0.00000000000E+00 0. -1.
    9000007    1    1    2  501    0  0.60657445694E+03 -0.71814019176E+02  0.56496644258E+02  0.73231256713E+03  0.40000000000E+03 0.  1.
   -9000007    1    1    2    0  503 -0.60657445694E+03  0.71814019176E+02 -0.11541283717E+04  0.13656874179E+04  0.40000000000E+03 0. -1.
<mgrwt>
<rscale>  2 0.73013001E+03</rscale>
<asrwt>0</asrwt>
<pdfrwt beam="1">  1       21 0.76951402E-01 0.73013001E+03</pdfrwt>
<pdfrwt beam="2">  1       21 0.24581783E+00 0.73013001E+03</pdfrwt>
<totfact> 0.72553289E+01</totfact>
</mgrwt>
</event>
<event>
 4    1  0.4862039E-002  0.4332894E+03  0.7818608E-02  0.1032826E+00
         21   -1    0    0  503  502  0.00000000000E+00  0.00000000000E+00  0.10792168896E+04  0.10792168896E+04  0.00000000000E+00 0.  1.
         21   -1    0    0  501  503 -0.00000000000E+00 -0.00000000000E+00 -0.17442939162E+03  0.17442939162E+03  0.00000000000E+00 0.  1.
    9000007    1    1    2  501    0 -0.16446127106E+03 -0.26309961734E+02  0.41985016737E+03  0.60333563363E+03  0.40000000000E+03 0.  1.
   -9000007    1    1    2    0  502  0.16446127106E+03  0.26309961734E+02  0.48493733062E+03  0.65031064761E+03  0.40000000000E+03 0.  1.
<mgrwt>
<rscale>  2 0.43328942E+03</rscale>
<asrwt>0</asrwt>
<pdfrwt beam="1">  1       21 0.16603336E+00 0.43328942E+03</pdfrwt>
<pdfrwt beam="2">  1       21 0.26835292E-01 0.43328942E+03</pdfrwt>
<totfact> 0.25980601E+03</totfact>
</mgrwt>
</event>
<event>
 4    1  0.4862039E-002  0.4428484E+03  0.7818608E-02  0.1029876E+00
         21   -1    0    0  501  502  0.00000000000E+00  0.00000000000E+00  0.18141696840E+04  0.18141696840E+04  0.00000000000E+00 0. -1.
         21   -1    0    0  502  503 -0.00000000000E+00 -0.00000000000E+00 -0.15376124954E+03  0.15376124954E+03  0.00000000000E+00 0.  1.
    9000007    1    1    2  501    0 -0.54799981748E+02 -0.18196601362E+03  0.13663990625E+04  0.14363707969E+04  0.40000000000E+03 0. -1.
   -9000007    1    1    2    0  503  0.54799981748E+02  0.18196601362E+03  0.29400937198E+03  0.53156013669E+03  0.40000000000E+03 0.  1.
<mgrwt>
<rscale>  2 0.44284836E+03</rscale>
<asrwt>0</asrwt>
<pdfrwt beam="1">  1       21 0.27910301E+00 0.44284836E+03</pdfrwt>
<pdfrwt beam="2">  1       21 0.23655578E-01 0.44284836E+03</pdfrwt>
<totfact> 0.61305008E+02</totfact>
</mgrwt>
</event>
<event>
 4    1  0.4862039E-002  0.4763308E+03  0.7818608E-02  0.1020148E+00
         21   -1    0    0  501  502  0.00000000000E+00  0.00000000000E+00  0.79295388416E+03  0.79295388416E+03  0.00000000000E+00 0. -1.
         21   -1    0    0  502  503 -0.00000000000E+00 -0.00000000000E+00 -0.29581282588E+03  0.29581282588E+03  0.00000000000E+00 0. -1.
    9000007    1    1    2  501    0 -0.19323614153E+03  0.17190351531E+03  0.34704164440E+03  0.58934618682E+03  0.40000000000E+03 0. -1.
   -9000007    1    1    2    0  503  0.19323614153E+03 -0.17190351531E+03  0.15009941388E+03  0.49942052322E+03  0.40000000000E+03 0. -1.
<mgrwt>
<rscale>  2 0.47633079E+03</rscale>
<asrwt>0</asrwt>
<pdfrwt beam="1">  1       21 0.12199290E+00 0.47633079E+03</pdfrwt>
<pdfrwt beam="2">  1       21 0.45509666E-01 0.47633079E+03</pdfrwt>
<totfact> 0.19999382E+03</totfact>
</mgrwt>
</event>
<event>
 4    1  0.4862039E-002  0.4579641E+03  0.7818608E-02  0.1025373E+00
         21   -1    0    0  503  502  0.00000000000E+00  0.00000000000E+00  0.14241337025E+04  0.14241337025E+04  0.00000000000E+00 0.  1.
         21   -1    0    0  501  503 -0.00000000000E+00 -0.00000000000E+00 -0.14808031977E+03  0.14808031977E+03  0.00000000000E+00 0.  1.
    9000007    1    1    2  501    0  0.16819686691E+03  0.14642714976E+03  0.57984809454E+03  0.73888761592E+03  0.40000000000E+03 0.  1.
   -9000007    1    1    2    0  502 -0.16819686691E+03 -0.14642714976E+03  0.69620528821E+03  0.83332640637E+03  0.40000000000E+03 0.  1.
<mgrwt>
<rscale>  2 0.45796408E+03</rscale>
<asrwt>0</asrwt>
<pdfrwt beam="1">  1       21 0.21909748E+00 0.45796408E+03</pdfrwt>
<pdfrwt beam="2">  1       21 0.22781589E-01 0.45796408E+03</pdfrwt>
<totfact> 0.15348322E+03</totfact>
</mgrwt>
</event>
<event>
 4    1  0.4862039E-002  0.4108499E+03  0.7818608E-02  0.1040086E+00
         21   -1    0    0  503  502  0.00000000000E+00  0.00000000000E+00  0.34077255416E+03  0.34077255416E+03  0.00000000000E+00 0. -1.
         21   -1    0    0  501  503 -0.00000000000E+00 -0.00000000000E+00 -0.97850476607E+03  0.97850476607E+03  0.00000000000E+00 0. -1.
    9000007    1    1    2  501    0  0.77586292704E+02  0.52706880152E+02 -0.78239102419E+03  0.88370434126E+03  0.40000000000E+03 0. -1.
   -9000007    1    1    2    0  502 -0.77586292704E+02 -0.52706880152E+02  0.14465881229E+03  0.43557297896E+03  0.40000000000E+03 0. -1.
<mgrwt>
<rscale>  2 0.41084991E+03</rscale>
<asrwt>0</asrwt>
<pdfrwt beam="1">  1       21 0.52426547E-01 0.41084991E+03</pdfrwt>
<pdfrwt beam="2">  1       21 0.15053919E+00 0.41084991E+03</pdfrwt>
<totfact> 0.87581866E+02</totfact>
</mgrwt>
</event>
<event>
 4    1  0.4862039E-002  0.5183381E+03  0.7818608E-02  0.1009100E+00
         21   -1    0    0  503  502  0.00000000000E+00  0.00000000000E+00  0.12719246079E+04  0.12719246079E+04  0.00000000000E+00 0. -1.
         21   -1    0    0  501  503 -0.00000000000E+00 -0.00000000000E+00 -0.24870220740E+03  0.24870220740E+03  0.00000000000E+00 0.  1.
    9000007    1    1    2  501    0  0.29507049583E+03 -0.14699583498E+03  0.21650296886E+03  0.56173651166E+03  0.40000000000E+03 0.  1.
   -9000007    1    1    2    0  502 -0.29507049583E+03  0.14699583498E+03  0.80671943165E+03  0.95889030364E+03  0.40000000000E+03 0. -1.
<mgrwt>
<rscale>  2 0.51833809E+03</rscale>
<asrwt>0</asrwt>
<pdfrwt beam="1">  1       21 0.19568070E+00 0.51833809E+03</pdfrwt>
<pdfrwt beam="2">  1       21 0.38261879E-01 0.51833809E+03</pdfrwt>
<totfact> 0.76137891E+02</totfact>
</mgrwt>
</event>
<event>
 4    1  0.4862039E-002  0.5257756E+03  0.7818608E-02  0.1007262E+00
         21   -1    0    0  501  502  0.00000000000E+00  0.00000000000E+00  0.40861668111E+03  0.40861668111E+03  0.00000000000E+00 0.  1.
         21   -1    0    0  502  503 -0.00000000000E+00 -0.00000000000E+00 -0.69207496358E+03  0.69207496358E+03  0.00000000000E+00 0.  1.
    9000007    1    1    2  501    0 -0.18479958607E+03 -0.28686081528E+03 -0.59238856504E+02  0.52910231192E+03  0.40000000000E+03 0.  1.
   -9000007    1    1    2    0  503  0.18479958607E+03  0.28686081528E+03 -0.22421942597E+03  0.57158933277E+03  0.40000000000E+03 0.  1.
<mgrwt>
<rscale>  2 0.52577563E+03</rscale>
<asrwt>0</asrwt>
<pdfrwt beam="1">  1       21 0.62864105E-01 0.52577563E+03</pdfrwt>
<pdfrwt beam="2">  1       21 0.10647307E+00 0.52577563E+03</pdfrwt>
<totfact> 0.13785793E+03</totfact>
</mgrwt>
</event>
<event>
 4    1  0.4862039E-002  0.4077989E+03  0.7818608E-02  0.1041112E+00
         21   -1    0    0  503  502  0.00000000000E+00  0.00000000000E+00  0.24167005831E+04  0.24167005831E+04  0.00000000000E+00 0.  1.
         21   -1    0    0  501  503 -0.00000000000E+00 -0.00000000000E+00 -0.83841515660E+02  0.83841515660E+02  0.00000000000E+00 0.  1.
    9000007    1    1    2  501    0 -0.12242023376E+02 -0.78422261270E+02  0.63708840110E+03  0.75642682992E+03  0.40000000000E+03 0.  1.
   -9000007    1    1    2    0  502  0.12242023376E+02  0.78422261270E+02  0.16957706663E+04  0.17441152688E+04  0.40000000000E+03 0.  1.
<mgrwt>
<rscale>  2 0.40779887E+03</rscale>
<asrwt>0</asrwt>
<pdfrwt beam="1">  1       21 0.37180004E+00 0.40779887E+03</pdfrwt>
<pdfrwt beam="2">  1       21 0.12898697E-01 0.40779887E+03</pdfrwt>
<totfact> 0.53638870E+02</totfact>
</mgrwt>
</event>
<event>
 4    1  0.4862039E-002  0.5199647E+03  0.7818608E-02  0.1008695E+00
         21   -1    0    0  501  502  0.00000000000E+00  0.00000000000E+00  0.14088796990E+03  0.14088796990E+03  0.00000000000E+00 0. -1.
         21   -1    0    0  502  503 -0.00000000000E+00 -0.00000000000E+00 -0.19564574667E+04  0.19564574667E+04  0.00000000000E+00 0.  1.
    9000007    1    1    2  501    0 -0.31929017205E+03 -0.91744417783E+02 -0.10528974142E+04  0.11742896648E+04  0.40000000000E+03 0.  1.
   -9000007    1    1    2    0  503  0.31929017205E+03  0.91744417783E+02 -0.76267208259E+03  0.92305577173E+03  0.40000000000E+03 0.  1.
<mgrwt>
<rscale>  2 0.51996466E+03</rscale>
<asrwt>0</asrwt>
<pdfrwt beam="1">  1       21 0.21675073E-01 0.51996466E+03</pdfrwt>
<pdfrwt beam="2">  1       21 0.30099345E+00 0.51996466E+03</pdfrwt>
<totfact> 0.51437230E+02</totfact>
</mgrwt>
</event>
<event>
 4    1  0.4862039E-002  0.4724129E+03  0.7818608E-02  0.1021241E+00
         21   -1    0    0  503  502  0.00000000000E+00  0.00000000000E+00  0.14771760951E+04  0.14771760951E+04  0.00000000000E+00 0. -1.
         21   -1    0    0  501  503 -0.00000000000E+00 -0.00000000000E+00 -0.15116477051E+03  0.15116477051E+03  0.00000000000E+00 0.  1.
    9000007    1    1    2  501    0  0.13032077561E+03 -0.21491964693E+03  0.64389513134E+03  0.79860810124E+03  0.40000000000E+03 0.  1.
   -9000007    1    1    2    0  502 -0.13032077561E+03  0.21491964693E+03  0.68211619328E+03  0.82973276440E+03  0.40000000000E+03 0.  1.
<mgrwt>
<rscale>  2 0.47241291E+03</rscale>
<asrwt>0</asrwt>
<pdfrwt beam="1">  1       21 0.22725785E+00 0.47241291E+03</pdfrwt>
<pdfrwt beam="2">  1       21 0.23256120E-01 0.47241291E+03</pdfrwt>
<totfact> 0.13001800E+03</totfact>
</mgrwt>
</event>
<event>
 4    1  0.4862039E-002  0.5788428E+03  0.7818608E-02  0.9950299E-01
         21   -1    0    0  503  502  0.00000000000E+00  0.00000000000E+00  0.62158697478E+03  0.62158697478E+03  0.00000000000E+00 0.  1.
         21   -1    0    0  501  503 -0.00000000000E+00 -0.00000000000E+00 -0.54315657463E+03  0.54315657463E+03  0.00000000000E+00 0. -1.
    9000007    1    1    2  501    0  0.40840005632E+03 -0.90930655191E+02  0.89927357538E+02  0.58578658203E+03  0.40000000000E+03 0.  1.
   -9000007    1    1    2    0  502 -0.40840005632E+03  0.90930655191E+02 -0.11496957391E+02  0.57895696738E+03  0.40000000000E+03 0. -1.
<mgrwt>
<rscale>  2 0.57884280E+03</rscale>
<asrwt>0</asrwt>
<pdfrwt beam="1">  1       21 0.95628765E-01 0.57884280E+03</pdfrwt>
<pdfrwt beam="2">  1       21 0.83562550E-01 0.57884280E+03</pdfrwt>
<totfact> 0.92155422E+02</totfact>
</mgrwt>
</event>
<event>
 4    1  0.4862039E-002  0.4134995E+03  0.7818608E-02  0.1039203E+00
         21   -1    0    0  501  502  0.00000000000E+00  0.00000000000E+00  0.17335074257E+03  0.17335074257E+03  0.00000000000E+00 0. -1.
         21   -1    0    0  502  503 -0.00000000000E+00 -0.00000000000E+00 -0.21692699720E+04  0.21692699720E+04  0.00000000000E+00 0. -1.
    9000007    1    1    2  501    0 -0.10224898797E+03 -0.22955979823E+02 -0.13300027339E+03  0.43436264259E+03  0.40000000000E+03 0. -1.
   -9000007    1    1    2    0  503  0.10224898797E+03  0.22955979823E+02 -0.18629189561E+04  0.19082580720E+04  0.40000000000E+03 0. -1.
<mgrwt>
<rscale>  2 0.41349950E+03</rscale>
<asrwt>0</asrwt>
<pdfrwt beam="1">  1       21 0.26669345E-01 0.41349950E+03</pdfrwt>
<pdfrwt beam="2">  1       21 0.33373384E+00 0.41349950E+03</pdfrwt>
<totfact> 0.23197268E+02</totfact>
</mgrwt>
</event>
<event>
 4    1  0.4862039E-002  0.4053216E+03  0.7818608E-02  0.1041952E+00
         21   -1    0    0  501  502  0.00000000000E+00  0.00000000000E+00  0.31892638314E+03  0.31892638314E+03  0.00000000000E+00 0. -1.
         21   -1    0    0  502  503 -0.00000000000E+00 -0.00000000000E+00 -0.92806079243E+03  0.92806079243E+03  0.00000000000E+00 0. -1.
    9000007    1    1    2  501    0 -0.25036539566E+02 -0.60488053828E+02  0.11133116653E+03  0.42033351236E+03  0.40000000000E+03 0. -1.
   -9000007    1    1    2    0  503  0.25036539566E+02  0.60488053828E+02 -0.72046557582E+03  0.82665366322E+03  0.40000000000E+03 0. -1.
<mgrwt>
<rscale>  2 0.40532164E+03</rscale>
<asrwt>0</asrwt>
<pdfrwt beam="1">  1       21 0.49065597E-01 0.40532164E+03</pdfrwt>
<pdfrwt beam="2">  1       21 0.14277858E+00 0.40532164E+03</pdfrwt>
<totfact> 0.11656716E+03</totfact>
</mgrwt>
</event>
<event>
 4    1  0.4862039E-002  0.4362348E+03  0.7818608E-02  0.1031908E+00
         21   -1    0    0  501  502  0.00000000000E+00  0.00000000000E+00  0.95157776330E+03  0.95157776330E+03  0.00000000000E+00 0.  1.
         21   -1    0    0  502  503 -0.00000000000E+00 -0.00000000000E+00 -0.20524457742E+03  0.20524457742E+03  0.00000000000E+00 0.  1.
    9000007    1    1    2  501    0 -0.16417268022E+03  0.57863358767E+02  0.28056991243E+03  0.51867168129E+03  0.40000000000E+03 0.  1.
   -9000007    1    1    2    0  503  0.16417268022E+03 -0.57863358767E+02  0.46576327346E+03  0.63815065942E+03  0.40000000000E+03 0.  1.
<mgrwt>
<rscale>  2 0.43623484E+03</rscale>
<asrwt>0</asrwt>
<pdfrwt beam="1">  1       21 0.14639658E+00 0.43623484E+03</pdfrwt>
<pdfrwt beam="2">  1       21 0.31576089E-01 0.43623484E+03</pdfrwt>
<totfact> 0.26599843E+03</totfact>
</mgrwt>
</event>
<event>
 4    1  0.4862039E-002  0.4302566E+03  0.7818608E-02  0.1033779E+00
         21   -1    0    0  501  502  0.00000000000E+00  0.00000000000E+00  0.18525911017E+03  0.18525911017E+03  0.00000000000E+00 0.  1.
         21   -1    0    0  502  503 -0.00000000000E+00 -0.00000000000E+00 -0.99996014180E+03  0.99996014180E+03  0.00000000000E+00 0.  1.
    9000007    1    1    2  501    0  0.80735383496E+02 -0.13639124552E+03 -0.42310643566E+03  0.60343999693E+03  0.40000000000E+03 0.  1.
   -9000007    1    1    2    0  503 -0.80735383496E+02  0.13639124552E+03 -0.39159459597E+03  0.58177925504E+03  0.40000000000E+03 0.  1.
<mgrwt>
<rscale>  2 0.43025664E+03</rscale>
<asrwt>0</asrwt>
<pdfrwt beam="1">  1       21 0.28501401E-01 0.43025664E+03</pdfrwt>
<pdfrwt beam="2">  1       21 0.15384002E+00 0.43025664E+03</pdfrwt>
<totfact> 0.28564544E+03</totfact>
</mgrwt>
</event>
<event>
 4    1  0.4862039E-002  0.4471893E+03  0.7818608E-02  0.1028564E+00
         21   -1    0    0  501  502  0.00000000000E+00  0.00000000000E+00  0.16746539949E+04  0.16746539949E+04  0.00000000000E+00 0.  1.
         21   -1    0    0  502  503 -0.00000000000E+00 -0.00000000000E+00 -0.13949146257E+03  0.13949146257E+03  0.00000000000E+00 0.  1.
    9000007    1    1    2  501    0 -0.92624064133E+01  0.19973106647E+03  0.42345705917E+03  0.61586863214E+03  0.40000000000E+03 0.  1.
   -9000007    1    1    2    0  503  0.92624064133E+01 -0.19973106647E+03  0.11117054731E+04  0.11982768253E+04  0.40000000000E+03 0.  1.
<mgrwt>
<rscale>  2 0.44718932E+03</rscale>
<asrwt>0</asrwt>
<pdfrwt beam="1">  1       21 0.25763906E+00 0.44718932E+03</pdfrwt>
<pdfrwt beam="2">  1       21 0.21460226E-01 0.44718932E+03</pdfrwt>
<totfact> 0.99526375E+02</totfact>
</mgrwt>
</event>
<event>
 4    1  0.4862039E-002  0.5126002E+03  0.7818608E-02  0.1010541E+00
         21   -1    0    0  503  502  0.00000000000E+00  0.00000000000E+00  0.80981797155E+03  0.80981797155E+03  0.00000000000E+00 0. -1.
         21   -1    0    0  501  503 -0.00000000000E+00 -0.00000000000E+00 -0.32535432480E+03  0.32535432480E+03  0.00000000000E+00 0. -1.
    9000007    1    1    2  501    0 -0.30554891784E+03  0.96947677499E+02  0.27187737855E+03  0.58023814278E+03  0.40000000000E+03 0. -1.
   -9000007    1    1    2    0  502  0.30554891784E+03 -0.96947677499E+02  0.21258626820E+03  0.55493415357E+03  0.40000000000E+03 0. -1.
<mgrwt>
<rscale>  2 0.51260023E+03</rscale>
<asrwt>0</asrwt>
<pdfrwt beam="1">  1       21 0.12458738E+00 0.51260023E+03</pdfrwt>
<pdfrwt beam="2">  1       21 0.50054512E-01 0.51260023E+03</pdfrwt>
<totfact> 0.15291047E+03</totfact>
</mgrwt>
</event>
<event>
 4    1  0.4862039E-002  0.4419168E+03  0.7818608E-02  0.1030160E+00
         21   -1    0    0  501  502  0.00000000000E+00  0.00000000000E+00  0.68316423257E+03  0.68316423257E+03  0.00000000000E+00 0.  1.
         21   -1    0    0  502  503 -0.00000000000E+00 -0.00000000000E+00 -0.28926416273E+03  0.28926416273E+03  0.00000000000E+00 0. -1.
    9000007    1    1    2  501    0 -0.18695655577E+03  0.18377122048E+02  0.14421751156E+03  0.46485391576E+03  0.40000000000E+03 0. -1.
   -9000007    1    1    2    0  503  0.18695655577E+03 -0.18377122048E+02  0.24968255829E+03  0.50757447953E+03  0.40000000000E+03 0.  1.
<mgrwt>
<rscale>  2 0.44191682E+03</rscale>
<asrwt>0</asrwt>
<pdfrwt beam="1">  1       21 0.10510219E+00 0.44191682E+03</pdfrwt>
<pdfrwt beam="2">  1       21 0.44502179E-01 0.44191682E+03</pdfrwt>
<totfact> 0.30812813E+03</totfact>
</mgrwt>
</event>
<event>
 4    1  0.4862039E-002  0.7212425E+03  0.7818608E-02  0.9681579E-01
         21   -1    0    0  501  502  0.00000000000E+00  0.00000000000E+00  0.14849072278E+04  0.14849072278E+04  0.00000000000E+00 0. -1.
         21   -1    0    0  502  503 -0.00000000000E+00 -0.00000000000E+00 -0.37244650946E+03  0.37244650946E+03  0.00000000000E+00 0.  1.
    9000007    1    1    2  501    0  0.12966135425E+03  0.58598521736E+03  0.32986911611E+03  0.79309796086E+03  0.40000000000E+03 0.  1.
   -9000007    1    1    2    0  503 -0.12966135425E+03 -0.58598521736E+03  0.78259160227E+03  0.10642557764E+04  0.40000000000E+03 0. -1.
<mgrwt>
<rscale>  2 0.72124250E+03</rscale>
<asrwt>0</asrwt>
<pdfrwt beam="1">  1       21 0.22844726E+00 0.72124250E+03</pdfrwt>
<pdfrwt beam="2">  1       21 0.57299464E-01 0.72124250E+03</pdfrwt>
<totfact> 0.18254825E+02</totfact>
</mgrwt>
</event>
<event>
 4    1  0.4862039E-002  0.4081306E+03  0.7818608E-02  0.1041000E+00
         21   -1    0    0  503  502  0.00000000000E+00  0.00000000000E+00  0.21080053509E+03  0.21080053509E+03  0.00000000000E+00 0.  1.
         21   -1    0    0  501  503 -0.00000000000E+00 -0.00000000000E+00 -0.83054868254E+03  0.83054868254E+03  0.00000000000E+00 0.  1.
    9000007    1    1    2  501    0 -0.27214826435E+02 -0.76354215728E+02 -0.42466296410E+03  0.58899002209E+03  0.40000000000E+03 0. -1.
   -9000007    1    1    2    0  502  0.27214826435E+02  0.76354215728E+02 -0.19508518335E+03  0.45235919555E+03  0.40000000000E+03 0. -1.
<mgrwt>
<rscale>  2 0.40813063E+03</rscale>
<asrwt>0</asrwt>
<pdfrwt beam="1">  1       21 0.32430851E-01 0.40813063E+03</pdfrwt>
<pdfrwt beam="2">  1       21 0.12777672E+00 0.40813063E+03</pdfrwt>
<totfact> 0.36474495E+03</totfact>
</mgrwt>
</event>
<event>
 4    1  0.4862039E-002  0.4016996E+03  0.7818608E-02  0.1043193E+00
         21   -1    0    0  503  502  0.00000000000E+00  0.00000000000E+00  0.47273306579E+03  0.47273306579E+03  0.00000000000E+00 0.  1.
         21   -1    0    0  501  503 -0.00000000000E+00 -0.00000000000E+00 -0.73819208196E+03  0.73819208196E+03  0.00000000000E+00 0.  1.
    9000007    1    1    2  501    0 -0.35282093630E+02  0.10851366701E+02 -0.57666216012E+03  0.70278149179E+03  0.40000000000E+03 0.  1.
   -9000007    1    1    2    0  502  0.35282093630E+02 -0.10851366701E+02  0.31120314394E+03  0.50814365596E+03  0.40000000000E+03 0.  1.
<mgrwt>
<rscale>  2 0.40169961E+03</rscale>
<asrwt>0</asrwt>
<pdfrwt beam="1">  1       21 0.72728164E-01 0.40169961E+03</pdfrwt>
<pdfrwt beam="2">  1       21 0.11356801E+00 0.40169961E+03</pdfrwt>
<totfact> 0.89051151E+02</totfact>
</mgrwt>
</event>
<event>
 4    1  0.4862039E-002  0.4370512E+03  0.7818608E-02  0.1031655E+00
         21   -1    0    0  503  502  0.00000000000E+00  0.00000000000E+00  0.53765238872E+02  0.53765238872E+02  0.00000000000E+00 0. -1.
         21   -1    0    0  501  503 -0.00000000000E+00 -0.00000000000E+00 -0.36503546699E+04  0.36503546699E+04  0.00000000000E+00 0. -1.
    9000007    1    1    2  501    0  0.46477981473E+01  0.17604582102E+03 -0.21011621437E+04  0.21461351512E+04  0.40000000000E+03 0. -1.
   -9000007    1    1    2    0  502 -0.46477981473E+01 -0.17604582102E+03 -0.14954272874E+04  0.15579847576E+04  0.40000000000E+03 0. -1.
<mgrwt>
<rscale>  2 0.43705118E+03</rscale>
<asrwt>0</asrwt>
<pdfrwt beam="1">  1       21 0.82715756E-02 0.43705118E+03</pdfrwt>
<pdfrwt beam="2">  1       21 0.56159300E+00 0.43705118E+03</pdfrwt>
<totfact> 0.57681586E+01</totfact>
</mgrwt>
</event>
<event>
 4    1  0.4862039E-002  0.5790863E+03  0.7818608E-02  0.9949771E-01
         21   -1    0    0  503  502  0.00000000000E+00  0.00000000000E+00  0.24290827288E+03  0.24290827288E+03  0.00000000000E+00 0. -1.
         21   -1    0    0  501  503 -0.00000000000E+00 -0.00000000000E+00 -0.14567514667E+04  0.14567514667E+04  0.00000000000E+00 0. -1.
    9000007    1    1    2  501    0 -0.86498322784E+02 -0.40970600971E+03 -0.80131959704E+03  0.98866276902E+03  0.40000000000E+03 0. -1.
   -9000007    1    1    2    0  502  0.86498322784E+02  0.40970600971E+03 -0.41252359677E+03  0.71099697054E+03  0.40000000000E+03 0. -1.
<mgrwt>
<rscale>  2 0.57908633E+03</rscale>
<asrwt>0</asrwt>
<pdfrwt beam="1">  1       21 0.37370503E-01 0.57908633E+03</pdfrwt>
<pdfrwt beam="2">  1       21 0.22411561E+00 0.57908633E+03</pdfrwt>
<totfact> 0.50695116E+02</totfact>
</mgrwt>
</event>
<event>
 4    1  0.4862039E-002  0.4334942E+03  0.7818608E-02  0.1032762E+00
         21   -1    0    0  503  502  0.00000000000E+00  0.00000000000E+00  0.63328751769E+03  0.63328751769E+03  0.00000000000E+00 0. -1.
         21   -1    0    0  501  503 -0.00000000000E+00 -0.00000000000E+00 -0.31170422281E+03  0.31170422281E+03  0.00000000000E+00 0.  1.
    9000007    1    1    2  501    0 -0.42159737346E+02 -0.16167788849E+03  0.57239740008E+02  0.43725687063E+03  0.40000000000E+03 0.  1.
   -9000007    1    1    2    0  502  0.42159737346E+02  0.16167788849E+03  0.26434355487E+03  0.50773486987E+03  0.40000000000E+03 0. -1.
<mgrwt>
<rscale>  2 0.43349416E+03</rscale>
<asrwt>0</asrwt>
<pdfrwt beam="1">  1       21 0.97428849E-01 0.43349416E+03</pdfrwt>
<pdfrwt beam="2">  1       21 0.47954496E-01 0.43349416E+03</pdfrwt>
<totfact> 0.31776926E+03</totfact>
</mgrwt>
</event>
<event>
 4    1  0.4862039E-002  0.5133454E+03  0.7818608E-02  0.1010353E+00
         21   -1    0    0  503  502  0.00000000000E+00  0.00000000000E+00  0.34447346873E+03  0.34447346873E+03  0.00000000000E+00 0. -1.
         21   -1    0    0  501  503 -0.00000000000E+00 -0.00000000000E+00 -0.76791972205E+03  0.76791972205E+03  0.00000000000E+00 0.  1.
    9000007    1    1    2  501    0  0.30475687132E+03  0.10318291387E+03 -0.24599744293E+03  0.56924353862E+03  0.40000000000E+03 0.  1.
   -9000007    1    1    2    0  502 -0.30475687132E+03 -0.10318291387E+03 -0.17744881040E+03  0.54314965216E+03  0.40000000000E+03 0. -1.
<mgrwt>
<rscale>  2 0.51334537E+03</rscale>
<asrwt>0</asrwt>
<pdfrwt beam="1">  1       21 0.52995919E-01 0.51334537E+03</pdfrwt>
<pdfrwt beam="2">  1       21 0.11814149E+00 0.51334537E+03</pdfrwt>
<totfact> 0.15499489E+03</totfact>
</mgrwt>
</event>
<event>
 4    1  0.4862039E-002  0.4276540E+03  0.7818608E-02  0.1034604E+00
         21   -1    0    0  501  502  0.00000000000E+00  0.00000000000E+00  0.31439529758E+03  0.31439529758E+03  0.00000000000E+00 0. -1.
         21   -1    0    0  502  503 -0.00000000000E+00 -0.00000000000E+00 -0.58883739944E+03  0.58883739944E+03  0.00000000000E+00 0.  1.
    9000007    1    1    2  501    0 -0.85805888741E+02  0.12460047939E+03 -0.87546200780E+02  0.43652292870E+03  0.40000000000E+03 0. -1.
   -9000007    1    1    2    0  503  0.85805888741E+02 -0.12460047939E+03 -0.18689590108E+03  0.46670976832E+03  0.40000000000E+03 0. -1.
<mgrwt>
<rscale>  2 0.42765398E+03</rscale>
<asrwt>0</asrwt>
<pdfrwt beam="1">  1       21 0.48368507E-01 0.42765398E+03</pdfrwt>
<pdfrwt beam="2">  1       21 0.90590370E-01 0.42765398E+03</pdfrwt>
<totfact> 0.37207518E+03</totfact>
</mgrwt>
</event>
<event>
 4    1  0.4862039E-002  0.7290487E+03  0.7818608E-02  0.9668805E-01
         21   -1    0    0  501  502  0.00000000000E+00  0.00000000000E+00  0.44937186633E+03  0.44937186633E+03  0.00000000000E+00 0.  1.
         21   -1    0    0  502  503 -0.00000000000E+00 -0.00000000000E+00 -0.17658216547E+04  0.17658216547E+04  0.00000000000E+00 0.  1.
    9000007    1    1    2  501    0 -0.24198040127E+03  0.55942601954E+03 -0.21788813882E+02  0.72937421009E+03  0.40000000000E+03 0.  1.
   -9000007    1    1    2    0  503  0.24198040127E+03 -0.55942601954E+03 -0.12946609745E+04  0.14858193110E+04  0.40000000000E+03 0.  1.
<mgrwt>
<rscale>  2 0.72904869E+03</rscale>
<asrwt>0</asrwt>
<pdfrwt beam="1">  1       21 0.69134133E-01 0.72904869E+03</pdfrwt>
<pdfrwt beam="2">  1       21 0.27166487E+00 0.72904869E+03</pdfrwt>
<totfact> 0.64042661E+01</totfact>
</mgrwt>
</event>
<event>
 4    1  0.4862039E-002  0.4812182E+03  0.7818608E-02  0.1018801E+00
         21   -1    0    0  503  502  0.00000000000E+00  0.00000000000E+00  0.10909334460E+04  0.10909334460E+04  0.00000000000E+00 0.  1.
         21   -1    0    0  501  503 -0.00000000000E+00 -0.00000000000E+00 -0.22885981843E+03  0.22885981843E+03  0.00000000000E+00 0.  1.
    9000007    1    1    2  501    0  0.85123750306E+02  0.25362352808E+03  0.25336035126E+03  0.54384043106E+03  0.40000000000E+03 0.  1.
   -9000007    1    1    2    0  502 -0.85123750306E+02 -0.25362352808E+03  0.60871327627E+03  0.77595283334E+03  0.40000000000E+03 0.  1.
<mgrwt>
<rscale>  2 0.48121819E+03</rscale>
<asrwt>0</asrwt>
<pdfrwt beam="1">  1       21 0.16783591E+00 0.48121819E+03</pdfrwt>
<pdfrwt beam="2">  1       21 0.35209203E-01 0.48121819E+03</pdfrwt>
<totfact> 0.14384048E+03</totfact>
</mgrwt>
</event>
<event>
 4    1  0.4862039E-002  0.4358627E+03  0.7818608E-02  0.1032024E+00
         21   -1    0    0  503  502  0.00000000000E+00  0.00000000000E+00  0.58599718917E+03  0.58599718917E+03  0.00000000000E+00 0.  1.
         21   -1    0    0  501  503 -0.00000000000E+00 -0.00000000000E+00 -0.35140898350E+03  0.35140898350E+03  0.00000000000E+00 0.  1.
    9000007    1    1    2  501    0  0.15963253222E+03  0.67035398196E+02  0.24773146118E+03  0.50134535683E+03  0.40000000000E+03 0.  1.
   -9000007    1    1    2    0  502 -0.15963253222E+03 -0.67035398196E+02 -0.13143255510E+02  0.43606081585E+03  0.40000000000E+03 0.  1.
<mgrwt>
<rscale>  2 0.43586270E+03</rscale>
<asrwt>0</asrwt>
<pdfrwt beam="1">  1       21 0.90153414E-01 0.43586270E+03</pdfrwt>
<pdfrwt beam="2">  1       21 0.54062921E-01 0.43586270E+03</pdfrwt>
<totfact> 0.29594966E+03</totfact>
</mgrwt>
</event>
<event>
 4    1  0.4862039E-002  0.4476068E+03  0.7818608E-02  0.1028438E+00
         21   -1    0    0  503  502  0.00000000000E+00  0.00000000000E+00  0.10737749762E+03  0.10737749762E+03  0.00000000000E+00 0.  1.
         21   -1    0    0  501  503 -0.00000000000E+00 -0.00000000000E+00 -0.20642014504E+04  0.20642014504E+04  0.00000000000E+00 0.  1.
    9000007    1    1    2  501    0  0.11418386812E+03  0.16526921043E+03 -0.64184512908E+03  0.78250689287E+03  0.40000000000E+03 0.  1.
   -9000007    1    1    2    0  502 -0.11418386812E+03 -0.16526921043E+03 -0.13149788237E+04  0.13890720551E+04  0.40000000000E+03 0.  1.
<mgrwt>
<rscale>  2 0.44760682E+03</rscale>
<asrwt>0</asrwt>
<pdfrwt beam="1">  1       21 0.16519616E-01 0.44760682E+03</pdfrwt>
<pdfrwt beam="2">  1       21 0.31756944E+00 0.44760682E+03</pdfrwt>
<totfact> 0.71022234E+02</totfact>
</mgrwt>
</event>
<event>
 4    1  0.4862039E-002  0.5276401E+03  0.7818608E-02  0.1006806E+00
         21   -1    0    0  503  502  0.00000000000E+00  0.00000000000E+00  0.17117436351E+03  0.17117436351E+03  0.00000000000E+00 0. -1.
         21   -1    0    0  501  503 -0.00000000000E+00 -0.00000000000E+00 -0.17453170311E+04  0.17453170311E+04  0.00000000000E+00 0.  1.
    9000007    1    1    2  501    0  0.15266494891E+03 -0.30837878885E+03 -0.10371616539E+04  0.11636616176E+04  0.40000000000E+03 0.  1.
   -9000007    1    1    2    0  502 -0.15266494891E+03  0.30837878885E+03 -0.53698101374E+03  0.75282977701E+03  0.40000000000E+03 0.  1.
<mgrwt>
<rscale>  2 0.52764009E+03</rscale>
<asrwt>0</asrwt>
<pdfrwt beam="1">  1       21 0.26334517E-01 0.52764009E+03</pdfrwt>
<pdfrwt beam="2">  1       21 0.26851032E+00 0.52764009E+03</pdfrwt>
<totfact> 0.55272113E+02</totfact>
</mgrwt>
</event>
<event>
 4    1  0.4862039E-002  0.5543755E+03  0.7818608E-02  0.1000486E+00
         21   -1    0    0  503  502  0.00000000000E+00  0.00000000000E+00  0.12938331982E+04  0.12938331982E+04  0.00000000000E+00 0.  1.
         21   -1    0    0  501  503 -0.00000000000E+00 -0.00000000000E+00 -0.33995733062E+03  0.33995733062E+03  0.00000000000E+00 0. -1.
    9000007    1    1    2  501    0  0.15727467002E+03 -0.35013830296E+03  0.28555006499E+02  0.55511038670E+03  0.40000000000E+03 0. -1.
   -9000007    1    1    2    0  502 -0.15727467002E+03  0.35013830296E+03  0.92532086106E+03  0.10786801421E+04  0.40000000000E+03 0.  1.
<mgrwt>
<rscale>  2 0.55437546E+03</rscale>
<asrwt>0</asrwt>
<pdfrwt beam="1">  1       21 0.19905126E+00 0.55437546E+03</pdfrwt>
<pdfrwt beam="2">  1       21 0.52301128E-01 0.55437546E+03</pdfrwt>
<totfact> 0.36920041E+02</totfact>
</mgrwt>
</event>
<event>
 4    1  0.4862039E-002  0.4720873E+03  0.7818608E-02  0.1021333E+00
         21   -1    0    0  501  502  0.00000000000E+00  0.00000000000E+00  0.11805090816E+03  0.11805090816E+03  0.00000000000E+00 0. -1.
         21   -1    0    0  502  503 -0.00000000000E+00 -0.00000000000E+00 -0.19003353659E+04  0.19003353659E+04  0.00000000000E+00 0. -1.
    9000007    1    1    2  501    0  0.92833993305E+02  0.23291259215E+03 -0.97283185232E+03  0.10813270730E+04  0.40000000000E+03 0. -1.
   -9000007    1    1    2    0  503 -0.92833993305E+02 -0.23291259215E+03 -0.80945260542E+03  0.93705920108E+03  0.40000000000E+03 0. -1.
<mgrwt>
<rscale>  2 0.47208731E+03</rscale>
<asrwt>0</asrwt>
<pdfrwt beam="1">  1       21 0.18161677E-01 0.47208731E+03</pdfrwt>
<pdfrwt beam="2">  1       21 0.29235930E+00 0.47208731E+03</pdfrwt>
<totfact> 0.83203193E+02</totfact>
</mgrwt>
</event>
<event>
 4    1  0.4862039E-002  0.5935970E+03  0.7818608E-02  0.9918780E-01
         21   -1    0    0  503  502  0.00000000000E+00  0.00000000000E+00  0.41078351252E+03  0.41078351252E+03  0.00000000000E+00 0. -1.
         21   -1    0    0  501  503 -0.00000000000E+00 -0.00000000000E+00 -0.13712882898E+04  0.13712882898E+04  0.00000000000E+00 0. -1.
    9000007    1    1    2  501    0 -0.35169982729E+03  0.26203944805E+03 -0.10255192694E+04  0.11849249819E+04  0.40000000000E+03 0. -1.
   -9000007    1    1    2    0  502  0.35169982729E+03 -0.26203944805E+03  0.65014492193E+02  0.59714682034E+03  0.40000000000E+03 0. -1.
<mgrwt>
<rscale>  2 0.59359704E+03</rscale>
<asrwt>0</asrwt>
<pdfrwt beam="1">  1       21 0.63197464E-01 0.59359704E+03</pdfrwt>
<pdfrwt beam="2">  1       21 0.21096743E+00 0.59359704E+03</pdfrwt>
<totfact> 0.20009083E+02</totfact>
</mgrwt>
</event>
<event>
 4    1  0.4862039E-002  0.4034211E+03  0.7818608E-02  0.1042601E+00
         21   -1    0    0  503  502  0.00000000000E+00  0.00000000000E+00  0.89188750203E+03  0.89188750203E+03  0.00000000000E+00 0. -1.
         21   -1    0    0  501  503 -0.00000000000E+00 -0.00000000000E+00 -0.20778293602E+03  0.20778293602E+03  0.00000000000E+00 0. -1.
    9000007    1    1    2  501    0  0.23094424130E+02 -0.47066310944E+02  0.15016670437E+03  0.43046327271E+03  0.40000000000E+03 0. -1.
   -9000007    1    1    2    0  502 -0.23094424130E+02  0.47066310944E+02  0.53393786164E+03  0.66920716534E+03  0.40000000000E+03 0. -1.
<mgrwt>
<rscale>  2 0.40342111E+03</rscale>
<asrwt>0</asrwt>
<pdfrwt beam="1">  1       21 0.13721346E+00 0.40342111E+03</pdfrwt>
<pdfrwt beam="2">  1       21 0.31966606E-01 0.40342111E+03</pdfrwt>
<totfact> 0.31256702E+03</totfact>
</mgrwt>
</event>
<event>
 4    1  0.4862039E-002  0.5169770E+03  0.7818608E-02  0.1009440E+00
         21   -1    0    0  503  502  0.00000000000E+00  0.00000000000E+00  0.26898891471E+03  0.26898891471E+03  0.00000000000E+00 0.  1.
         21   -1    0    0  501  503 -0.00000000000E+00 -0.00000000000E+00 -0.13166044505E+04  0.13166044505E+04  0.00000000000E+00 0. -1.
    9000007    1    1    2  501    0  0.16986943069E+03 -0.28001708782E+03 -0.91649239339E+03  0.10522468817E+04  0.40000000000E+03 0. -1.
   -9000007    1    1    2    0  502 -0.16986943069E+03  0.28001708782E+03 -0.13112314238E+03  0.53334648346E+03  0.40000000000E+03 0.  1.
<mgrwt>
<rscale>  2 0.51697698E+03</rscale>
<asrwt>0</asrwt>
<pdfrwt beam="1">  1       21 0.41382909E-01 0.51697698E+03</pdfrwt>
<pdfrwt beam="2">  1       21 0.20255454E+00 0.51697698E+03</pdfrwt>
<totfact> 0.58250151E+02</totfact>
</mgrwt>
</event>
<event>
 4    1  0.4862039E-002  0.4381556E+03  0.7818608E-02  0.1031314E+00
         21   -1    0    0  501  502  0.00000000000E+00  0.00000000000E+00  0.14183384093E+03  0.14183384093E+03  0.00000000000E+00 0.  1.
         21   -1    0    0  502  503 -0.00000000000E+00 -0.00000000000E+00 -0.13558889962E+04  0.13558889962E+04  0.00000000000E+00 0.  1.
    9000007    1    1    2  501    0 -0.17468027781E+03  0.38303612160E+02 -0.57597937515E+03  0.72369372442E+03  0.40000000000E+03 0.  1.
   -9000007    1    1    2    0  503  0.17468027781E+03 -0.38303612160E+02 -0.63807578011E+03  0.77402911271E+03  0.40000000000E+03 0.  1.
<mgrwt>
<rscale>  2 0.43815564E+03</rscale>
<asrwt>0</asrwt>
<pdfrwt beam="1">  1       21 0.21820591E-01 0.43815564E+03</pdfrwt>
<pdfrwt beam="2">  1       21 0.20859830E+00 0.43815564E+03</pdfrwt>
<totfact> 0.19671779E+03</totfact>
</mgrwt>
</event>
<event>
 4    1  0.4862039E-002  0.4141313E+03  0.7818608E-02  0.1038993E+00
         21   -1    0    0  503  502  0.00000000000E+00  0.00000000000E+00  0.25136406558E+03  0.25136406558E+03  0.00000000000E+00 0.  1.
         21   -1    0    0  501  503 -0.00000000000E+00 -0.00000000000E+00 -0.80591270425E+03  0.80591270425E+03  0.00000000000E+00 0.  1.
    9000007    1    1    2  501    0 -0.21551653099E+02 -0.10507278158E+03 -0.48431362748E+03  0.63723186749E+03  0.40000000000E+03 0.  1.
   -9000007    1    1    2    0  502  0.21551653099E+02  0.10507278158E+03 -0.70235011194E+02  0.42004490234E+03  0.40000000000E+03 0.  1.
<mgrwt>
<rscale>  2 0.41413134E+03</rscale>
<asrwt>0</asrwt>
<pdfrwt beam="1">  1       21 0.38671394E-01 0.41413134E+03</pdfrwt>
<pdfrwt beam="2">  1       21 0.12398657E+00 0.41413134E+03</pdfrwt>
<totfact> 0.27537245E+03</totfact>
</mgrwt>
</event>
<event>
 4    1  0.4862039E-002  0.4223345E+03  0.7818608E-02  0.1036309E+00
         21   -1    0    0  501  502  0.00000000000E+00  0.00000000000E+00  0.54944011061E+03  0.54944011061E+03  0.00000000000E+00 0.  1.
         21   -1    0    0  502  503 -0.00000000000E+00 -0.00000000000E+00 -0.43974401710E+03  0.43974401710E+03  0.00000000000E+00 0.  1.
    9000007    1    1    2  501    0  0.13372066083E+03 -0.22028456703E+02  0.30789747266E+03  0.52265411288E+03  0.40000000000E+03 0.  1.
   -9000007    1    1    2    0  503 -0.13372066083E+03  0.22028456703E+02 -0.19820137915E+03  0.46653001483E+03  0.40000000000E+03 0.  1.
<mgrwt>
<rscale>  2 0.42233455E+03</rscale>
<asrwt>0</asrwt>
<pdfrwt beam="1">  1       21 0.84529248E-01 0.42233455E+03</pdfrwt>
<pdfrwt beam="2">  1       21 0.67652926E-01 0.42233455E+03</pdfrwt>
<totfact> 0.21168593E+03</totfact>
</mgrwt>
</event>
<event>
 4    1  0.4862039E-002  0.4736161E+03  0.7818608E-02  0.1020905E+00
         21   -1    0    0  501  502  0.00000000000E+00  0.00000000000E+00  0.30801819776E+03  0.30801819776E+03  0.00000000000E+00 0. -1.
         21   -1    0    0  502  503 -0.00000000000E+00 -0.00000000000E+00 -0.10526006808E+04  0.10526006808E+04  0.00000000000E+00 0. -1.
    9000007    1    1    2  501    0 -0.25138671280E+03 -0.33421094920E+02  0.53561029491E+01  0.47364642593E+03  0.40000000000E+03 0. -1.
   -9000007    1    1    2    0  503  0.25138671280E+03  0.33421094920E+02 -0.74993858598E+03  0.88697245262E+03  0.40000000000E+03 0. -1.
<mgrwt>
<rscale>  2 0.47361614E+03</rscale>
<asrwt>0</asrwt>
<pdfrwt beam="1">  1       21 0.47387415E-01 0.47361614E+03</pdfrwt>
<pdfrwt beam="2">  1       21 0.16193857E+00 0.47361614E+03</pdfrwt>
<totfact> 0.86321564E+02</totfact>
</mgrwt>
</event>
<event>
 4    1  0.4862039E-002  0.6629612E+03  0.7818608E-02  0.9782758E-01
         21   -1    0    0  503  502  0.00000000000E+00  0.00000000000E+00  0.22941907028E+04  0.22941907028E+04  0.00000000000E+00 0.  1.
         21   -1    0    0  501  503 -0.00000000000E+00 -0.00000000000E+00 -0.26202089650E+03  0.26202089650E+03  0.00000000000E+00 0.  1.
    9000007    1    1    2  501    0 -0.43355936041E+03 -0.30256210715E+03  0.35338639762E+03  0.75126526188E+03  0.40000000000E+03 0.  1.
   -9000007    1    1    2    0  502  0.43355936041E+03  0.30256210715E+03  0.16787834086E+04  0.18049463374E+04  0.40000000000E+03 0.  1.
<mgrwt>
<rscale>  2 0.66296120E+03</rscale>
<asrwt>0</asrwt>
<pdfrwt beam="1">  1       21 0.35295240E+00 0.66296120E+03</pdfrwt>
<pdfrwt beam="2">  1       21 0.40310909E-01 0.66296120E+03</pdfrwt>
<totfact> 0.66953330E+01</totfact>
</mgrwt>
</event>
<event>
 4    1  0.4862039E-002  0.4366629E+03  0.7818608E-02  0.1031776E+00
         21   -1    0    0  503  502  0.00000000000E+00  0.00000000000E+00  0.21910264784E+03  0.21910264784E+03  0.00000000000E+00 0. -1.
         21   -1    0    0  501  503 -0.00000000000E+00 -0.00000000000E+00 -0.14428707818E+04  0.14428707818E+04  0.00000000000E+00 0. -1.
    9000007    1    1    2  501    0 -0.14396585304E+03 -0.99741242542E+02 -0.11353798847E+04  0.12164546703E+04  0.40000000000E+03 0. -1.
   -9000007    1    1    2    0  502  0.14396585304E+03  0.99741242542E+02 -0.88388249229E+02  0.44551875932E+03  0.40000000000E+03 0. -1.
<mgrwt>
<rscale>  2 0.43666289E+03</rscale>
<asrwt>0</asrwt>
<pdfrwt beam="1">  1       21 0.33708101E-01 0.43666289E+03</pdfrwt>
<pdfrwt beam="2">  1       21 0.22198011E+00 0.43666289E+03</pdfrwt>
<totfact> 0.68709951E+02</totfact>
</mgrwt>
</event>
<event>
 4    1  0.4862039E-002  0.4080426E+03  0.7818608E-02  0.1041030E+00
         21   -1    0    0  501  502  0.00000000000E+00  0.00000000000E+00  0.57068911187E+03  0.57068911187E+03  0.00000000000E+00 0. -1.
         21   -1    0    0  502  503 -0.00000000000E+00 -0.00000000000E+00 -0.31391314917E+03  0.31391314917E+03  0.00000000000E+00 0. -1.
    9000007    1    1    2  501    0  0.80365885755E+02 -0.63298716659E+01  0.24591174507E+03  0.47641508082E+03  0.40000000000E+03 0. -1.
   -9000007    1    1    2    0  503 -0.80365885755E+02  0.63298716659E+01  0.10864217633E+02  0.40818718022E+03  0.40000000000E+03 0. -1.
<mgrwt>
<rscale>  2 0.40804257E+03</rscale>
<asrwt>0</asrwt>
<pdfrwt beam="1">  1       21 0.87798325E-01 0.40804257E+03</pdfrwt>
<pdfrwt beam="2">  1       21 0.48294331E-01 0.40804257E+03</pdfrwt>
<totfact> 0.40481555E+03</totfact>
</mgrwt>
</event>
<event>
 4    1  0.4862039E-002  0.5200310E+03  0.7818608E-02  0.1008679E+00
         21   -1    0    0  501  502  0.00000000000E+00  0.00000000000E+00  0.63836801657E+03  0.63836801657E+03  0.00000000000E+00 0.  1.
         21   -1    0    0  502  503 -0.00000000000E+00 -0.00000000000E+00 -0.73123653434E+03  0.73123653434E+03  0.00000000000E+00 0.  1.
    9000007    1    1    2  501    0 -0.26440662724E+03 -0.20129931302E+03  0.39771971398E+03  0.65468561069E+03  0.40000000000E+03 0.  1.
   -9000007    1    1    2    0  503  0.26440662724E+03  0.20129931302E+03 -0.49058823175E+03  0.71491894022E+03  0.40000000000E+03 0.  1.
<mgrwt>
<rscale>  2 0.52003104E+03</rscale>
<asrwt>0</asrwt>
<pdfrwt beam="1">  1       21 0.98210464E-01 0.52003104E+03</pdfrwt>
<pdfrwt beam="2">  1       21 0.11249793E+00 0.52003104E+03</pdfrwt>
<totfact> 0.42903889E+02</totfact>
</mgrwt>
</event>
<event>
 4    1  0.4862039E-002  0.4076657E+03  0.7818608E-02  0.1041157E+00
         21   -1    0    0  503  502  0.00000000000E+00  0.00000000000E+00  0.11276864515E+03  0.11276864515E+03  0.00000000000E+00 0. -1.
         21   -1    0    0  501  503 -0.00000000000E+00 -0.00000000000E+00 -0.17827249038E+04  0.17827249038E+04  0.00000000000E+00 0. -1.
    9000007    1    1    2  501    0 -0.52958552983E+02  0.58195797861E+02 -0.12295450512E+04  0.12953657368E+04  0.40000000000E+03 0. -1.
   -9000007    1    1    2    0  502  0.52958552983E+02 -0.58195797861E+02 -0.44041120739E+03  0.60012781207E+03  0.40000000000E+03 0. -1.
<mgrwt>
<rscale>  2 0.40766574E+03</rscale>
<asrwt>0</asrwt>
<pdfrwt beam="1">  1       21 0.17349023E-01 0.40766574E+03</pdfrwt>
<pdfrwt beam="2">  1       21 0.27426536E+00 0.40766574E+03</pdfrwt>
<totfact> 0.12061844E+03</totfact>
</mgrwt>
</event>
<event>
 4    1  0.4862039E-002  0.5262598E+03  0.7818608E-02  0.1007143E+00
         21   -1    0    0  501  502  0.00000000000E+00  0.00000000000E+00  0.17142600831E+03  0.17142600831E+03  0.00000000000E+00 0.  1.
         21   -1    0    0  502  503 -0.00000000000E+00 -0.00000000000E+00 -0.16162820511E+04  0.16162820511E+04  0.00000000000E+00 0.  1.
    9000007    1    1    2  501    0 -0.15711114873E+03  0.30375234752E+03 -0.74129010549E+03  0.90909868671E+03  0.40000000000E+03 0.  1.
   -9000007    1    1    2    0  503  0.15711114873E+03 -0.30375234752E+03 -0.70356593729E+03  0.87860937270E+03  0.40000000000E+03 0.  1.
<mgrwt>
<rscale>  2 0.52625982E+03</rscale>
<asrwt>0</asrwt>
<pdfrwt beam="1">  1       21 0.26373231E-01 0.52625982E+03</pdfrwt>
<pdfrwt beam="2">  1       21 0.24865879E+00 0.52625982E+03</pdfrwt>
<totfact> 0.73026768E+02</totfact>
</mgrwt>
</event>
<event>
 4    1  0.4862039E-002  0.5261053E+03  0.7818608E-02  0.1007181E+00
         21   -1    0    0  503  502  0.00000000000E+00  0.00000000000E+00  0.40560402196E+03  0.40560402196E+03  0.00000000000E+00 0.  1.
         21   -1    0    0  501  503 -0.00000000000E+00 -0.00000000000E+00 -0.71624659111E+03  0.71624659111E+03  0.00000000000E+00 0.  1.
    9000007    1    1    2  501    0  0.77518805636E+02  0.33283269917E+03 -0.27724559417E+03  0.59468637983E+03  0.40000000000E+03 0.  1.
   -9000007    1    1    2    0  502 -0.77518805636E+02 -0.33283269917E+03 -0.33396974989E+02  0.52716423324E+03  0.40000000000E+03 0.  1.
<mgrwt>
<rscale>  2 0.52610528E+03</rscale>
<asrwt>0</asrwt>
<pdfrwt beam="1">  1       21 0.62400620E-01 0.52610528E+03</pdfrwt>
<pdfrwt beam="2">  1       21 0.11019178E+00 0.52610528E+03</pdfrwt>
<totfact> 0.12866161E+03</totfact>
</mgrwt>
</event>
<event>
 4    1  0.4862039E-002  0.4864984E+03  0.7818608E-02  0.1017364E+00
         21   -1    0    0  503  502  0.00000000000E+00  0.00000000000E+00  0.39314463875E+03  0.39314463875E+03  0.00000000000E+00 0.  1.
         21   -1    0    0  501  503 -0.00000000000E+00 -0.00000000000E+00 -0.61358294161E+03  0.61358294161E+03  0.00000000000E+00 0.  1.
    9000007    1    1    2  501    0 -0.26054856882E+03 -0.93782254463E+02 -0.41116887819E+02  0.48823279942E+03  0.40000000000E+03 0.  1.
   -9000007    1    1    2    0  502  0.26054856882E+03  0.93782254463E+02 -0.17932141503E+03  0.51849478094E+03  0.40000000000E+03 0.  1.
<mgrwt>
<rscale>  2 0.48649837E+03</rscale>
<asrwt>0</asrwt>
<pdfrwt beam="1">  1       21 0.60483791E-01 0.48649837E+03</pdfrwt>
<pdfrwt beam="2">  1       21 0.94397374E-01 0.48649837E+03</pdfrwt>
<totfact> 0.20405770E+03</totfact>
</mgrwt>
</event>
<event>
 4    1  0.4862039E-002  0.4143363E+03  0.7818608E-02  0.1038926E+00
         21   -1    0    0  503  502  0.00000000000E+00  0.00000000000E+00  0.59354608730E+03  0.59354608730E+03  0.00000000000E+00 0. -1.
         21   -1    0    0  501  503 -0.00000000000E+00 -0.00000000000E+00 -0.28955456009E+03  0.28955456009E+03  0.00000000000E+00 0. -1.
    9000007    1    1    2  501    0 -0.27740780165E+02 -0.10442709066E+03  0.16665417823E+03  0.44659621950E+03  0.40000000000E+03 0. -1.
   -9000007    1    1    2    0  502  0.27740780165E+02  0.10442709066E+03  0.13733734898E+03  0.43650442789E+03  0.40000000000E+03 0. -1.
<mgrwt>
<rscale>  2 0.41433630E+03</rscale>
<asrwt>0</asrwt>
<pdfrwt beam="1">  1       21 0.91314782E-01 0.41433630E+03</pdfrwt>
<pdfrwt beam="2">  1       21 0.44546856E-01 0.41433630E+03</pdfrwt>
<totfact> 0.43615739E+03</totfact>
</mgrwt>
</event>
<event>
 4    1  0.4862039E-002  0.5047109E+03  0.7818608E-02  0.1012557E+00
         21   -1    0    0  503  502  0.00000000000E+00  0.00000000000E+00  0.62769914244E+02  0.62769914244E+02  0.00000000000E+00 0.  1.
         21   -1    0    0  501  503 -0.00000000000E+00 -0.00000000000E+00 -0.40985665357E+04  0.40985665357E+04  0.00000000000E+00 0.  1.
    9000007    1    1    2  501    0 -0.46963658783E+02 -0.30418337398E+03 -0.22243776704E+04  0.22809184840E+04  0.40000000000E+03 0.  1.
   -9000007    1    1    2    0  502  0.46963658783E+02  0.30418337398E+03 -0.18114189510E+04  0.18804179659E+04  0.40000000000E+03 0.  1.
<mgrwt>
<rscale>  2 0.50471092E+03</rscale>
<asrwt>0</asrwt>
<pdfrwt beam="1">  1       21 0.96569111E-02 0.50471092E+03</pdfrwt>
<pdfrwt beam="2">  1       21 0.63054862E+00 0.50471092E+03</pdfrwt>
<totfact> 0.12022941E+01</totfact>
</mgrwt>
</event>
<event>
 4    1  0.4862039E-002  0.6616959E+03  0.7818608E-02  0.9785077E-01
         21   -1    0    0  501  502  0.00000000000E+00  0.00000000000E+00  0.56522796470E+03  0.56522796470E+03  0.00000000000E+00 0.  1.
         21   -1    0    0  502  503 -0.00000000000E+00 -0.00000000000E+00 -0.80263856390E+03  0.80263856390E+03  0.00000000000E+00 0.  1.
    9000007    1    1    2  501    0  0.35802627671E+03 -0.38685744592E+03 -0.24647074152E+03  0.70610857855E+03  0.40000000000E+03 0.  1.
   -9000007    1    1    2    0  503 -0.35802627671E+03  0.38685744592E+03  0.90601423301E+01  0.66175795005E+03  0.40000000000E+03 0.  1.
<mgrwt>
<rscale>  2 0.66169593E+03</rscale>
<asrwt>0</asrwt>
<pdfrwt beam="1">  1       21 0.86958149E-01 0.66169593E+03</pdfrwt>
<pdfrwt beam="2">  1       21 0.12348286E+00 0.66169593E+03</pdfrwt>
<totfact> 0.43163945E+02</totfact>
</mgrwt>
</event>
<event>
 4    1  0.4862039E-002  0.4182046E+03  0.7818608E-02  0.1037652E+00
         21   -1    0    0  503  502  0.00000000000E+00  0.00000000000E+00  0.22866216188E+03  0.22866216188E+03  0.00000000000E+00 0.  1.
         21   -1    0    0  501  503 -0.00000000000E+00 -0.00000000000E+00 -0.78035792442E+03  0.78035792442E+03  0.00000000000E+00 0.  1.
    9000007    1    1    2  501    0 -0.11943624748E+03 -0.25101073980E+02 -0.20475492529E+03  0.46563898092E+03  0.40000000000E+03 0.  1.
   -9000007    1    1    2    0  502  0.11943624748E+03  0.25101073980E+02 -0.34694083726E+03  0.54338110538E+03  0.40000000000E+03 0.  1.
<mgrwt>
<rscale>  2 0.41820459E+03</rscale>
<asrwt>0</asrwt>
<pdfrwt beam="1">  1       21 0.35178794E-01 0.41820459E+03</pdfrwt>
<pdfrwt beam="2">  1       21 0.12005507E+00 0.41820459E+03</pdfrwt>
<totfact> 0.36186396E+03</totfact>
</mgrwt>
</event>
<event>
 4    1  0.4862039E-002  0.4739254E+03  0.7818608E-02  0.1020818E+00
         21   -1    0    0  501  502  0.00000000000E+00  0.00000000000E+00  0.21687495936E+03  0.21687495936E+03  0.00000000000E+00 0. -1.
         21   -1    0    0  502  503 -0.00000000000E+00 -0.00000000000E+00 -0.14872010173E+04  0.14872010173E+04  0.00000000000E+00 0. -1.
    9000007    1    1    2  501    0  0.48663400775E+02  0.24947378712E+03 -0.16566873773E+03  0.50204723652E+03  0.40000000000E+03 0. -1.
   -9000007    1    1    2    0  503 -0.48663400775E+02 -0.24947378712E+03 -0.11046573202E+04  0.12020287401E+04  0.40000000000E+03 0. -1.
<mgrwt>
<rscale>  2 0.47392541E+03</rscale>
<asrwt>0</asrwt>
<pdfrwt beam="1">  1       21 0.33365378E-01 0.47392541E+03</pdfrwt>
<pdfrwt beam="2">  1       21 0.22880016E+00 0.47392541E+03</pdfrwt>
<totfact> 0.62338445E+02</totfact>
</mgrwt>
</event>
<event>
 4    1  0.4862039E-002  0.4005848E+03  0.7818608E-02  0.1043577E+00
         21   -1    0    0  501  502  0.00000000000E+00  0.00000000000E+00  0.20759808825E+03  0.20759808825E+03  0.00000000000E+00 0. -1.
         21   -1    0    0  502  503 -0.00000000000E+00 -0.00000000000E+00 -0.93429860616E+03  0.93429860616E+03  0.00000000000E+00 0. -1.
    9000007    1    1    2  501    0  0.13435202701E+02 -0.16961805182E+02 -0.60059819475E+03  0.72193240615E+03  0.40000000000E+03 0. -1.
   -9000007    1    1    2    0  503 -0.13435202701E+02  0.16961805182E+02 -0.12610232317E+03  0.41996428826E+03  0.40000000000E+03 0. -1.
<mgrwt>
<rscale>  2 0.40058483E+03</rscale>
<asrwt>0</asrwt>
<pdfrwt beam="1">  1       21 0.31938168E-01 0.40058483E+03</pdfrwt>
<pdfrwt beam="2">  1       21 0.14373825E+00 0.40058483E+03</pdfrwt>
<totfact> 0.27712738E+03</totfact>
</mgrwt>
</event>
<event>
 4    1  0.4862039E-002  0.4240350E+03  0.7818608E-02  0.1035761E+00
         21   -1    0    0  503  502  0.00000000000E+00  0.00000000000E+00  0.10462384761E+03  0.10462384761E+03  0.00000000000E+00 0.  1.
         21   -1    0    0  501  503 -0.00000000000E+00 -0.00000000000E+00 -0.18441446192E+04  0.18441446192E+04  0.00000000000E+00 0.  1.
    9000007    1    1    2  501    0  0.12806163325E+03 -0.58359857424E+02 -0.11240019306E+04  0.12013267644E+04  0.40000000000E+03 0.  1.
   -9000007    1    1    2    0  502 -0.12806163325E+03  0.58359857424E+02 -0.61551884092E+03  0.74744170234E+03  0.40000000000E+03 0.  1.
<mgrwt>
<rscale>  2 0.42403497E+03</rscale>
<asrwt>0</asrwt>
<pdfrwt beam="1">  1       21 0.16095977E-01 0.42403497E+03</pdfrwt>
<pdfrwt beam="2">  1       21 0.28371455E+00 0.42403497E+03</pdfrwt>
<totfact> 0.12066484E+03</totfact>
</mgrwt>
</event>
<event>
 4    1  0.4862039E-002  0.5635224E+03  0.7818608E-02  0.9984116E-01
         21   -1    0    0  503  502  0.00000000000E+00  0.00000000000E+00  0.97732177745E+03  0.97732177745E+03  0.00000000000E+00 0. -1.
         21   -1    0    0  501  503 -0.00000000000E+00 -0.00000000000E+00 -0.52575937210E+03  0.52575937210E+03  0.00000000000E+00 0. -1.
    9000007    1    1    2  501    0  0.21879059771E+03 -0.33119199832E+03 -0.23870907637E+03  0.61199631416E+03  0.40000000000E+03 0. -1.
   -9000007    1    1    2    0  502 -0.21879059771E+03  0.33119199832E+03  0.69027148172E+03  0.89108483540E+03  0.40000000000E+03 0. -1.
<mgrwt>
<rscale>  2 0.56352237E+03</rscale>
<asrwt>0</asrwt>
<pdfrwt beam="1">  1       21 0.15035720E+00 0.56352237E+03</pdfrwt>
<pdfrwt beam="2">  1       21 0.80886057E-01 0.56352237E+03</pdfrwt>
<totfact> 0.31327176E+02</totfact>
</mgrwt>
</event>
<event>
 4    1  0.4862039E-002  0.4079908E+03  0.7818608E-02  0.1041047E+00
         21   -1    0    0  501  502  0.00000000000E+00  0.00000000000E+00  0.14471283833E+03  0.14471283833E+03  0.00000000000E+00 0.  1.
         21   -1    0    0  502  503 -0.00000000000E+00 -0.00000000000E+00 -0.12112154699E+04  0.12112154699E+04  0.00000000000E+00 0.  1.
    9000007    1    1    2  501    0 -0.73354269403E+02  0.32797617636E+02 -0.38115333051E+03  0.55833179555E+03  0.40000000000E+03 0.  1.
   -9000007    1    1    2    0  503  0.73354269403E+02 -0.32797617636E+02 -0.68534930106E+03  0.79759651267E+03  0.40000000000E+03 0.  1.
<mgrwt>
<rscale>  2 0.40799085E+03</rscale>
<asrwt>0</asrwt>
<pdfrwt beam="1">  1       21 0.22263513E-01 0.40799085E+03</pdfrwt>
<pdfrwt beam="2">  1       21 0.18634085E+00 0.40799085E+03</pdfrwt>
<totfact> 0.27039272E+03</totfact>
</mgrwt>
</event>
<event>
 4    1  0.4862039E-002  0.4316128E+03  0.7818608E-02  0.1033352E+00
         21   -1    0    0  501  502  0.00000000000E+00  0.00000000000E+00  0.21837619814E+03  0.21837619814E+03  0.00000000000E+00 0. -1.
         21   -1    0    0  502  503 -0.00000000000E+00 -0.00000000000E+00 -0.85457240243E+03  0.85457240243E+03  0.00000000000E+00 0.  1.
    9000007    1    1    2  501    0 -0.16182896811E+03  0.10049173057E+02 -0.34061211192E+03  0.54982380049E+03  0.40000000000E+03 0.  1.
   -9000007    1    1    2    0  503  0.16182896811E+03 -0.10049173057E+02 -0.29558409236E+03  0.52312480008E+03  0.40000000000E+03 0.  1.
<mgrwt>
<rscale>  2 0.43161279E+03</rscale>
<asrwt>0</asrwt>
<pdfrwt beam="1">  1       21 0.33596339E-01 0.43161279E+03</pdfrwt>
<pdfrwt beam="2">  1       21 0.13147268E+00 0.43161279E+03</pdfrwt>
<totfact> 0.31277783E+03</totfact>
</mgrwt>
</event>
<event>
 4    1  0.4862039E-002  0.4040193E+03  0.7818608E-02  0.1042397E+00
         21   -1    0    0  501  502  0.00000000000E+00  0.00000000000E+00  0.21414512806E+03  0.21414512806E+03  0.00000000000E+00 0. -1.
         21   -1    0    0  502  503 -0.00000000000E+00 -0.00000000000E+00 -0.10003010504E+04  0.10003010504E+04  0.00000000000E+00 0. -1.
    9000007    1    1    2  501    0  0.36553269906E+02 -0.43536671525E+02 -0.96853943364E+02  0.41546632794E+03  0.40000000000E+03 0. -1.
   -9000007    1    1    2    0  503 -0.36553269906E+02  0.43536671525E+02 -0.68930197899E+03  0.79897985053E+03  0.40000000000E+03 0. -1.
<mgrwt>
<rscale>  2 0.40401929E+03</rscale>
<asrwt>0</asrwt>
<pdfrwt beam="1">  1       21 0.32945404E-01 0.40401929E+03</pdfrwt>
<pdfrwt beam="2">  1       21 0.15389247E+00 0.40401929E+03</pdfrwt>
<totfact> 0.21629807E+03</totfact>
</mgrwt>
</event>
<event>
 4    1  0.4862039E-002  0.4142466E+03  0.7818608E-02  0.1038955E+00
         21   -1    0    0  501  502  0.00000000000E+00  0.00000000000E+00  0.20368765402E+04  0.20368765402E+04  0.00000000000E+00 0. -1.
         21   -1    0    0  502  503 -0.00000000000E+00 -0.00000000000E+00 -0.85857508905E+02  0.85857508905E+02  0.00000000000E+00 0. -1.
    9000007    1    1    2  501    0 -0.96137488484E+02 -0.48557456924E+02  0.11208848576E+04  0.11949824715E+04  0.40000000000E+03 0. -1.
   -9000007    1    1    2    0  503  0.96137488484E+02  0.48557456924E+02  0.83013417367E+03  0.92775157753E+03  0.40000000000E+03 0. -1.
<mgrwt>
<rscale>  2 0.41424660E+03</rscale>
<asrwt>0</asrwt>
<pdfrwt beam="1">  1       21 0.31336559E+00 0.41424660E+03</pdfrwt>
<pdfrwt beam="2">  1       21 0.13208849E-01 0.41424660E+03</pdfrwt>
<totfact> 0.11609996E+03</totfact>
</mgrwt>
</event>
<event>
 4    1  0.4862039E-002  0.4650334E+03  0.7818608E-02  0.1023331E+00
         21   -1    0    0  503  502  0.00000000000E+00  0.00000000000E+00  0.13362834597E+04  0.13362834597E+04  0.00000000000E+00 0.  1.
         21   -1    0    0  501  503 -0.00000000000E+00 -0.00000000000E+00 -0.34320761022E+03  0.34320761022E+03  0.00000000000E+00 0.  1.
    9000007    1    1    2  501    0  0.13780441025E+03 -0.19304403806E+03  0.11069966908E+04  0.12007071790E+04  0.40000000000E+03 0.  1.
   -9000007    1    1    2    0  502 -0.13780441025E+03  0.19304403806E+03 -0.11392084138E+03  0.47878389093E+03  0.40000000000E+03 0.  1.
<mgrwt>
<rscale>  2 0.46503339E+03</rscale>
<asrwt>0</asrwt>
<pdfrwt beam="1">  1       21 0.20558207E+00 0.46503339E+03</pdfrwt>
<pdfrwt beam="2">  1       21 0.52801172E-01 0.46503339E+03</pdfrwt>
<totfact> 0.34054670E+02</totfact>
</mgrwt>
</event>
<event>
 4    1  0.4862039E-002  0.5639282E+03  0.7818608E-02  0.9983205E-01
         21   -1    0    0  501  502  0.00000000000E+00  0.00000000000E+00  0.46374679231E+03  0.46374679231E+03  0.00000000000E+00 0.  1.
         21   -1    0    0  502  503 -0.00000000000E+00 -0.00000000000E+00 -0.10946280508E+04  0.10946280508E+04  0.00000000000E+00 0. -1.
    9000007    1    1    2  501    0 -0.36708620895E+03 -0.15252134401E+03  0.16077622723E+03  0.58639921591E+03  0.40000000000E+03 0.  1.
   -9000007    1    1    2    0  503  0.36708620895E+03  0.15252134401E+03 -0.79165748572E+03  0.97197562720E+03  0.40000000000E+03 0. -1.
<mgrwt>
<rscale>  2 0.56392823E+03</rscale>
<asrwt>0</asrwt>
<pdfrwt beam="1">  1       21 0.71345661E-01 0.56392823E+03</pdfrwt>
<pdfrwt beam="2">  1       21 0.16840431E+00 0.56392823E+03</pdfrwt>
<totfact> 0.30431326E+02</totfact>
</mgrwt>
</event>
<event>
 4    1  0.4862039E-002  0.5083043E+03  0.7818608E-02  0.1011634E+00
         21   -1    0    0  503  502  0.00000000000E+00  0.00000000000E+00  0.33023650522E+03  0.33023650522E+03  0.00000000000E+00 0. -1.
         21   -1    0    0  501  503 -0.00000000000E+00 -0.00000000000E+00 -0.93440100576E+03  0.93440100576E+03  0.00000000000E+00 0. -1.
    9000007    1    1    2  501    0 -0.28484669351E+03  0.13128461814E+03 -0.55712258873E+03  0.75416103628E+03  0.40000000000E+03 0. -1.
   -9000007    1    1    2    0  502  0.28484669351E+03 -0.13128461814E+03 -0.47041911805E+02  0.51047647471E+03  0.40000000000E+03 0. -1.
<mgrwt>
<rscale>  2 0.50830433E+03</rscale>
<asrwt>0</asrwt>
<pdfrwt beam="1">  1       21 0.50805617E-01 0.50830433E+03</pdfrwt>
<pdfrwt beam="2">  1       21 0.14375400E+00 0.50830433E+03</pdfrwt>
<totfact> 0.10181238E+03</totfact>
</mgrwt>
</event>
<event>
 4    1  0.4862039E-002  0.4268440E+03  0.7818608E-02  0.1034862E+00
         21   -1    0    0  503  502  0.00000000000E+00  0.00000000000E+00  0.11138425425E+03  0.11138425425E+03  0.00000000000E+00 0. -1.
         21   -1    0    0  501  503 -0.00000000000E+00 -0.00000000000E+00 -0.16477724433E+04  0.16477724433E+04  0.00000000000E+00 0. -1.
    9000007    1    1    2  501    0  0.78334379937E+01 -0.14877639772E+03 -0.69303409841E+03  0.81393614051E+03  0.40000000000E+03 0. -1.
   -9000007    1    1    2    0  502 -0.78334379937E+01  0.14877639772E+03 -0.84335409064E+03  0.94522055705E+03  0.40000000000E+03 0. -1.
<mgrwt>
<rscale>  2 0.42684398E+03</rscale>
<asrwt>0</asrwt>
<pdfrwt beam="1">  1       21 0.17136040E-01 0.42684398E+03</pdfrwt>
<pdfrwt beam="2">  1       21 0.25350344E+00 0.42684398E+03</pdfrwt>
<totfact> 0.16322415E+03</totfact>
</mgrwt>
</event>
<event>
 4    1  0.4862039E-002  0.4617440E+03  0.7818608E-02  0.1024277E+00
         21   -1    0    0  503  502  0.00000000000E+00  0.00000000000E+00  0.48868195948E+03  0.48868195948E+03  0.00000000000E+00 0.  1.
         21   -1    0    0  501  503 -0.00000000000E+00 -0.00000000000E+00 -0.43933302380E+03  0.43933302380E+03  0.00000000000E+00 0. -1.
    9000007    1    1    2  501    0 -0.19281004043E+03 -0.12661661703E+03  0.63286115813E+02  0.46606073837E+03  0.40000000000E+03 0.  1.
   -9000007    1    1    2    0  502  0.19281004043E+03  0.12661661703E+03 -0.13937180142E+02  0.46195424491E+03  0.40000000000E+03 0. -1.
<mgrwt>
<rscale>  2 0.46174395E+03</rscale>
<asrwt>0</asrwt>
<pdfrwt beam="1">  1       21 0.75181840E-01 0.46174395E+03</pdfrwt>
<pdfrwt beam="2">  1       21 0.67589696E-01 0.46174395E+03</pdfrwt>
<totfact> 0.27396467E+03</totfact>
</mgrwt>
</event>
<event>
 4    1  0.4862039E-002  0.5392407E+03  0.7818608E-02  0.1004015E+00
         21   -1    0    0  501  502  0.00000000000E+00  0.00000000000E+00  0.12035982940E+03  0.12035982940E+03  0.00000000000E+00 0. -1.
         21   -1    0    0  502  503 -0.00000000000E+00 -0.00000000000E+00 -0.24488902922E+04  0.24488902922E+04  0.00000000000E+00 0. -1.
    9000007    1    1    2  501    0  0.17811723189E+03 -0.31472964956E+03 -0.10152226545E+04  0.11495466666E+04  0.40000000000E+03 0. -1.
   -9000007    1    1    2    0  503 -0.17811723189E+03  0.31472964956E+03 -0.13133078083E+04  0.14197034550E+04  0.40000000000E+03 0. -1.
<mgrwt>
<rscale>  2 0.53924067E+03</rscale>
<asrwt>0</asrwt>
<pdfrwt beam="1">  1       21 0.18516899E-01 0.53924067E+03</pdfrwt>
<pdfrwt beam="2">  1       21 0.37675231E+00 0.53924067E+03</pdfrwt>
<totfact> 0.23540658E+02</totfact>
</mgrwt>
</event>
<event>
 4    1  0.4862039E-002  0.4045454E+03  0.7818608E-02  0.1042217E+00
         21   -1    0    0  503  502  0.00000000000E+00  0.00000000000E+00  0.52564615054E+03  0.52564615054E+03  0.00000000000E+00 0. -1.
         21   -1    0    0  501  503 -0.00000000000E+00 -0.00000000000E+00 -0.33175272031E+03  0.33175272031E+03  0.00000000000E+00 0. -1.
    9000007    1    1    2  501    0 -0.42501749481E+02 -0.43018580784E+02 -0.93816314042E+01  0.40465418818E+03  0.40000000000E+03 0. -1.
   -9000007    1    1    2    0  502  0.42501749481E+02  0.43018580784E+02  0.20327506164E+03  0.45274468267E+03  0.40000000000E+03 0. -1.
<mgrwt>
<rscale>  2 0.40454542E+03</rscale>
<asrwt>0</asrwt>
<pdfrwt beam="1">  1       21 0.80868638E-01 0.40454542E+03</pdfrwt>
<pdfrwt beam="2">  1       21 0.51038880E-01 0.40454542E+03</pdfrwt>
<totfact> 0.43663955E+03</totfact>
</mgrwt>
</event>
<event>
 4    1  0.4862039E-002  0.4733528E+03  0.7818608E-02  0.1020978E+00
         21   -1    0    0  501  502  0.00000000000E+00  0.00000000000E+00  0.98747740321E+03  0.98747740321E+03  0.00000000000E+00 0. -1.
         21   -1    0    0  502  503 -0.00000000000E+00 -0.00000000000E+00 -0.22948482045E+03  0.22948482045E+03  0.00000000000E+00 0. -1.
    9000007    1    1    2  501    0 -0.11325199862E+03 -0.22635554827E+03  0.31447167434E+03  0.56829154787E+03  0.40000000000E+03 0. -1.
   -9000007    1    1    2    0  503  0.11325199862E+03  0.22635554827E+03  0.44352090842E+03  0.64867067579E+03  0.40000000000E+03 0. -1.
<mgrwt>
<rscale>  2 0.47335277E+03</rscale>
<asrwt>0</asrwt>
<pdfrwt beam="1">  1       21 0.15191960E+00 0.47335277E+03</pdfrwt>
<pdfrwt beam="2">  1       21 0.35305358E-01 0.47335277E+03</pdfrwt>
<totfact> 0.18943231E+03</totfact>
</mgrwt>
</event>
<event>
 4    1  0.4862039E-002  0.5496460E+03  0.7818608E-02  0.1001576E+00
         21   -1    0    0  501  502  0.00000000000E+00  0.00000000000E+00  0.80488192220E+03  0.80488192220E+03  0.00000000000E+00 0. -1.
         21   -1    0    0  502  503 -0.00000000000E+00 -0.00000000000E+00 -0.51643154690E+03  0.51643154690E+03  0.00000000000E+00 0.  1.
    9000007    1    1    2  501    0 -0.75988412710E+02  0.36923769068E+03  0.48953417113E+03  0.73603968356E+03  0.40000000000E+03 0. -1.
   -9000007    1    1    2    0  503  0.75988412710E+02 -0.36923769068E+03 -0.20108379583E+03  0.58527378553E+03  0.40000000000E+03 0.  1.
<mgrwt>
<rscale>  2 0.54964599E+03</rscale>
<asrwt>0</asrwt>
<pdfrwt beam="1">  1       21 0.12382799E+00 0.54964599E+03</pdfrwt>
<pdfrwt beam="2">  1       21 0.79451007E-01 0.54964599E+03</pdfrwt>
<totfact> 0.54956932E+02</totfact>
</mgrwt>
</event>
<event>
 4    1  0.4862039E-002  0.5454498E+03  0.7818608E-02  0.1002553E+00
         21   -1    0    0  501  502  0.00000000000E+00  0.00000000000E+00  0.17591290362E+03  0.17591290362E+03  0.00000000000E+00 0. -1.
         21   -1    0    0  502  503 -0.00000000000E+00 -0.00000000000E+00 -0.17205028859E+04  0.17205028859E+04  0.00000000000E+00 0. -1.
    9000007    1    1    2  501    0 -0.36873450150E+03  0.39373879006E+02 -0.89590245906E+03  0.10488835260E+04  0.40000000000E+03 0. -1.
   -9000007    1    1    2    0  503  0.36873450150E+03 -0.39373879006E+02 -0.64868752325E+03  0.84753226355E+03  0.40000000000E+03 0. -1.
<mgrwt>
<rscale>  2 0.54544975E+03</rscale>
<asrwt>0</asrwt>
<pdfrwt beam="1">  1       21 0.27063524E-01 0.54544975E+03</pdfrwt>
<pdfrwt beam="2">  1       21 0.26469275E+00 0.54544975E+03</pdfrwt>
<totfact> 0.54841965E+02</totfact>
</mgrwt>
</event>
<event>
 4    1  0.4862039E-002  0.6195155E+03  0.7818608E-02  0.9865725E-01
         21   -1    0    0  503  502  0.00000000000E+00  0.00000000000E+00  0.82860812763E+03  0.82860812763E+03  0.00000000000E+00 0. -1.
         21   -1    0    0  501  503 -0.00000000000E+00 -0.00000000000E+00 -0.12269406954E+04  0.12269406954E+04  0.00000000000E+00 0.  1.
    9000007    1    1    2  501    0 -0.31315596761E+03 -0.35458825086E+03 -0.10100583088E+04  0.11849123490E+04  0.40000000000E+03 0.  1.
   -9000007    1    1    2    0  502  0.31315596761E+03  0.35458825086E+03  0.61172574101E+03  0.87063647403E+03  0.40000000000E+03 0. -1.
<mgrwt>
<rscale>  2 0.61951553E+03</rscale>
<asrwt>0</asrwt>
<pdfrwt beam="1">  1       21 0.12747817E+00 0.61951553E+03</pdfrwt>
<pdfrwt beam="2">  1       21 0.18876011E+00 0.61951553E+03</pdfrwt>
<totfact> 0.52088437E+01</totfact>
</mgrwt>
</event>
<event>
 4    1  0.4862039E-002  0.4793271E+03  0.7818608E-02  0.1019320E+00
         21   -1    0    0  503  502  0.00000000000E+00  0.00000000000E+00  0.20313792672E+03  0.20313792672E+03  0.00000000000E+00 0. -1.
         21   -1    0    0  501  503 -0.00000000000E+00 -0.00000000000E+00 -0.11782858194E+04  0.11782858194E+04  0.00000000000E+00 0.  1.
    9000007    1    1    2  501    0 -0.21680307649E+03 -0.15083392674E+03 -0.62590311373E+03  0.78835851946E+03  0.40000000000E+03 0. -1.
   -9000007    1    1    2    0  502  0.21680307649E+03  0.15083392674E+03 -0.34924477891E+03  0.59306522662E+03  0.40000000000E+03 0.  1.
<mgrwt>
<rscale>  2 0.47932708E+03</rscale>
<asrwt>0</asrwt>
<pdfrwt beam="1">  1       21 0.31251988E-01 0.47932708E+03</pdfrwt>
<pdfrwt beam="2">  1       21 0.18127475E+00 0.47932708E+03</pdfrwt>
<totfact> 0.14649587E+03</totfact>
</mgrwt>
</event>
<event>
 4    1  0.4862039E-002  0.7871482E+03  0.7818608E-02  0.9578808E-01
         21   -1    0    0  501  502  0.00000000000E+00  0.00000000000E+00  0.14285033923E+04  0.14285033923E+04  0.00000000000E+00 0. -1.
         21   -1    0    0  502  503 -0.00000000000E+00 -0.00000000000E+00 -0.45441620999E+03  0.45441620999E+03  0.00000000000E+00 0.  1.
    9000007    1    1    2  501    0  0.62631606453E+03  0.25948116499E+03  0.28623299764E+03  0.83757484239E+03  0.40000000000E+03 0.  1.
   -9000007    1    1    2    0  503 -0.62631606453E+03 -0.25948116499E+03  0.68785418463E+03  0.10453447599E+04  0.40000000000E+03 0. -1.
<mgrwt>
<rscale>  2 0.78714820E+03</rscale>
<asrwt>0</asrwt>
<pdfrwt beam="1">  1       21 0.21976975E+00 0.78714820E+03</pdfrwt>
<pdfrwt beam="2">  1       21 0.69910187E-01 0.78714820E+03</pdfrwt>
<totfact> 0.13041182E+02</totfact>
</mgrwt>
</event>
<event>
 4    1  0.4862039E-002  0.4411749E+03  0.7818608E-02  0.1030387E+00
         21   -1    0    0  503  502  0.00000000000E+00  0.00000000000E+00  0.34892492250E+03  0.34892492250E+03  0.00000000000E+00 0. -1.
         21   -1    0    0  501  503 -0.00000000000E+00 -0.00000000000E+00 -0.78898456518E+03  0.78898456518E+03  0.00000000000E+00 0. -1.
    9000007    1    1    2  501    0  0.13714006688E+03  0.12580884906E+03 -0.52800064974E+03  0.68805519442E+03  0.40000000000E+03 0. -1.
   -9000007    1    1    2    0  502 -0.13714006688E+03 -0.12580884906E+03  0.87941007052E+02  0.44985429326E+03  0.40000000000E+03 0. -1.
<mgrwt>
<rscale>  2 0.44117487E+03</rscale>
<asrwt>0</asrwt>
<pdfrwt beam="1">  1       21 0.53680757E-01 0.44117487E+03</pdfrwt>
<pdfrwt beam="2">  1       21 0.12138224E+00 0.44117487E+03</pdfrwt>
<totfact> 0.14457777E+03</totfact>
</mgrwt>
</event>
<event>
 4    1  0.4862039E-002  0.4267094E+03  0.7818608E-02  0.1034905E+00
         21   -1    0    0  501  502  0.00000000000E+00  0.00000000000E+00  0.37319401761E+03  0.37319401761E+03  0.00000000000E+00 0.  1.
         21   -1    0    0  502  503 -0.00000000000E+00 -0.00000000000E+00 -0.48794411629E+03  0.48794411629E+03  0.00000000000E+00 0.  1.
    9000007    1    1    2  501    0  0.11974642405E+03 -0.87986807032E+02 -0.53222086913E+02  0.43001566811E+03  0.40000000000E+03 0.  1.
   -9000007    1    1    2    0  503 -0.11974642405E+03  0.87986807032E+02 -0.61528011769E+02  0.43112246580E+03  0.40000000000E+03 0.  1.
<mgrwt>
<rscale>  2 0.42670937E+03</rscale>
<asrwt>0</asrwt>
<pdfrwt beam="1">  1       21 0.57414464E-01 0.42670937E+03</pdfrwt>
<pdfrwt beam="2">  1       21 0.75068326E-01 0.42670937E+03</pdfrwt>
<totfact> 0.39888615E+03</totfact>
</mgrwt>
</event>
<event>
 4    1  0.4862039E-002  0.6968582E+03  0.7818608E-02  0.9722620E-01
         21   -1    0    0  503  502  0.00000000000E+00  0.00000000000E+00  0.10848034204E+04  0.10848034204E+04  0.00000000000E+00 0.  1.
         21   -1    0    0  501  503 -0.00000000000E+00 -0.00000000000E+00 -0.89840600928E+03  0.89840600928E+03  0.00000000000E+00 0. -1.
    9000007    1    1    2  501    0  0.31239076865E+03 -0.47751791425E+03 -0.60918337223E+03  0.92558939696E+03  0.40000000000E+03 0. -1.
   -9000007    1    1    2    0  502 -0.31239076865E+03  0.47751791425E+03  0.79558078338E+03  0.10576200327E+04  0.40000000000E+03 0.  1.
<mgrwt>
<rscale>  2 0.69685820E+03</rscale>
<asrwt>0</asrwt>
<pdfrwt beam="1">  1       21 0.16689283E+00 0.69685820E+03</pdfrwt>
<pdfrwt beam="2">  1       21 0.13821631E+00 0.69685820E+03</pdfrwt>
<totfact> 0.58638100E+01</totfact>
</mgrwt>
</event>
<event>
 4    1  0.4862039E-002  0.4335894E+03  0.7818608E-02  0.1032732E+00
         21   -1    0    0  503  502  0.00000000000E+00  0.00000000000E+00  0.17177213518E+04  0.17177213518E+04  0.00000000000E+00 0.  1.
         21   -1    0    0  501  503 -0.00000000000E+00 -0.00000000000E+00 -0.11387462442E+03  0.11387462442E+03  0.00000000000E+00 0.  1.
    9000007    1    1    2  501    0 -0.16504046743E+03  0.27593769087E+02  0.62134639206E+03  0.75767480551E+03  0.40000000000E+03 0.  1.
   -9000007    1    1    2    0  502  0.16504046743E+03 -0.27593769087E+02  0.98250033529E+03  0.10739211707E+04  0.40000000000E+03 0.  1.
<mgrwt>
<rscale>  2 0.43358940E+03</rscale>
<asrwt>0</asrwt>
<pdfrwt beam="1">  1       21 0.26426480E+00 0.43358940E+03</pdfrwt>
<pdfrwt beam="2">  1       21 0.17519174E-01 0.43358940E+03</pdfrwt>
<totfact> 0.13422509E+03</totfact>
</mgrwt>
</event>
<event>
 4    1  0.4862039E-002  0.5155718E+03  0.7818608E-02  0.1009793E+00
         21   -1    0    0  501  502  0.00000000000E+00  0.00000000000E+00  0.16594884037E+04  0.16594884037E+04  0.00000000000E+00 0.  1.
         21   -1    0    0  502  503 -0.00000000000E+00 -0.00000000000E+00 -0.19853988958E+03  0.19853988958E+03  0.00000000000E+00 0.  1.
    9000007    1    1    2  501    0 -0.16397501382E+03  0.28093857716E+03  0.11388367598E+04  0.12501053775E+04  0.40000000000E+03 0.  1.
   -9000007    1    1    2    0  503  0.16397501382E+03 -0.28093857716E+03  0.32211175434E+03  0.60792291582E+03  0.40000000000E+03 0.  1.
<mgrwt>
<rscale>  2 0.51557181E+03</rscale>
<asrwt>0</asrwt>
<pdfrwt beam="1">  1       21 0.25530590E+00 0.51557181E+03</pdfrwt>
<pdfrwt beam="2">  1       21 0.30544600E-01 0.51557181E+03</pdfrwt>
<totfact> 0.49911598E+02</totfact>
</mgrwt>
</event>
<event>
 4    1  0.4862039E-002  0.4697552E+03  0.7818608E-02  0.1021989E+00
         21   -1    0    0  501  502  0.00000000000E+00  0.00000000000E+00  0.27911011624E+03  0.27911011624E+03  0.00000000000E+00 0. -1.
         21   -1    0    0  502  503 -0.00000000000E+00 -0.00000000000E+00 -0.10066953912E+04  0.10066953912E+04  0.00000000000E+00 0. -1.
    9000007    1    1    2  501    0 -0.11304974953E+03  0.21883720449E+03 -0.65941570907E+02  0.47436089501E+03  0.40000000000E+03 0. -1.
   -9000007    1    1    2    0  503  0.11304974953E+03 -0.21883720449E+03 -0.66164370401E+03  0.81144461240E+03  0.40000000000E+03 0. -1.
<mgrwt>
<rscale>  2 0.46975522E+03</rscale>
<asrwt>0</asrwt>
<pdfrwt beam="1">  1       21 0.42940018E-01 0.46975522E+03</pdfrwt>
<pdfrwt beam="2">  1       21 0.15487621E+00 0.46975522E+03</pdfrwt>
<totfact> 0.12035307E+03</totfact>
</mgrwt>
</event>
<event>
 4    1  0.4862039E-002  0.5262438E+03  0.7818608E-02  0.1007147E+00
         21   -1    0    0  501  502  0.00000000000E+00  0.00000000000E+00  0.19814991859E+03  0.19814991859E+03  0.00000000000E+00 0. -1.
         21   -1    0    0  502  503 -0.00000000000E+00 -0.00000000000E+00 -0.21130887133E+04  0.21130887133E+04  0.00000000000E+00 0.  1.
    9000007    1    1    2  501    0  0.72894398025E+01  0.34187627714E+03 -0.28501927035E+03  0.59847181160E+03  0.40000000000E+03 0. -1.
   -9000007    1    1    2    0  503 -0.72894398025E+01 -0.34187627714E+03 -0.16299195244E+04  0.17127668203E+04  0.40000000000E+03 0.  1.
<mgrwt>
<rscale>  2 0.52624379E+03</rscale>
<asrwt>0</asrwt>
<pdfrwt beam="1">  1       21 0.30484603E-01 0.52624379E+03</pdfrwt>
<pdfrwt beam="2">  1       21 0.32509057E+00 0.52624379E+03</pdfrwt>
<totfact> 0.18774834E+02</totfact>
</mgrwt>
</event>
<event>
 4    1  0.4862039E-002  0.4605301E+03  0.7818608E-02  0.1024628E+00
         21   -1    0    0  503  502  0.00000000000E+00  0.00000000000E+00  0.28780823677E+03  0.28780823677E+03  0.00000000000E+00 0. -1.
         21   -1    0    0  501  503 -0.00000000000E+00 -0.00000000000E+00 -0.81381666800E+03  0.81381666800E+03  0.00000000000E+00 0. -1.
    9000007    1    1    2  501    0 -0.10463111799E+03  0.20283064116E+03 -0.43233291774E+03  0.63166422378E+03  0.40000000000E+03 0. -1.
   -9000007    1    1    2    0  502  0.10463111799E+03 -0.20283064116E+03 -0.93675513494E+02  0.46996068099E+03  0.40000000000E+03 0. -1.
<mgrwt>
<rscale>  2 0.46053006E+03</rscale>
<asrwt>0</asrwt>
<pdfrwt beam="1">  1       21 0.44278191E-01 0.46053006E+03</pdfrwt>
<pdfrwt beam="2">  1       21 0.12520256E+00 0.46053006E+03</pdfrwt>
<totfact> 0.19932678E+03</totfact>
</mgrwt>
</event>
<event>
 4    1  0.4862039E-002  0.4425611E+03  0.7818608E-02  0.1029964E+00
         21   -1    0    0  501  502  0.00000000000E+00  0.00000000000E+00  0.10097485387E+04  0.10097485387E+04  0.00000000000E+00 0. -1.
         21   -1    0    0  502  503 -0.00000000000E+00 -0.00000000000E+00 -0.28402411679E+03  0.28402411679E+03  0.00000000000E+00 0. -1.
    9000007    1    1    2  501    0 -0.17149026640E+03 -0.80320637485E+02  0.72711559916E+03  0.85120938131E+03  0.40000000000E+03 0. -1.
   -9000007    1    1    2    0  503  0.17149026640E+03  0.80320637485E+02 -0.13911772642E+01  0.44256327418E+03  0.40000000000E+03 0. -1.
<mgrwt>
<rscale>  2 0.44256109E+03</rscale>
<asrwt>0</asrwt>
<pdfrwt beam="1">  1       21 0.15534593E+00 0.44256109E+03</pdfrwt>
<pdfrwt beam="2">  1       21 0.43696018E-01 0.44256109E+03</pdfrwt>
<totfact> 0.11641004E+03</totfact>
</mgrwt>
</event>
<event>
 4    1  0.4862039E-002  0.4344096E+03  0.7818608E-02  0.1032476E+00
         21   -1    0    0  501  502  0.00000000000E+00  0.00000000000E+00  0.12662192716E+04  0.12662192716E+04  0.00000000000E+00 0.  1.
         21   -1    0    0  502  503 -0.00000000000E+00 -0.00000000000E+00 -0.15415623219E+03  0.15415623219E+03  0.00000000000E+00 0.  1.
    9000007    1    1    2  501    0  0.62464217321E+02  0.15751157067E+03  0.42659496182E+03  0.60884721794E+03  0.40000000000E+03 0.  1.
   -9000007    1    1    2    0  503 -0.62464217321E+02 -0.15751157067E+03  0.68546807759E+03  0.81152828585E+03  0.40000000000E+03 0.  1.
<mgrwt>
<rscale>  2 0.43440957E+03</rscale>
<asrwt>0</asrwt>
<pdfrwt beam="1">  1       21 0.19480296E+00 0.43440957E+03</pdfrwt>
<pdfrwt beam="2">  1       21 0.23716344E-01 0.43440957E+03</pdfrwt>
<totfact> 0.20720843E+03</totfact>
</mgrwt>
</event>
<event>
 4    1  0.4862039E-002  0.4030124E+03  0.7818608E-02  0.1042742E+00
         21   -1    0    0  503  502  0.00000000000E+00  0.00000000000E+00  0.94440956679E+02  0.94440956679E+02  0.00000000000E+00 0.  1.
         21   -1    0    0  501  503 -0.00000000000E+00 -0.00000000000E+00 -0.17619360527E+04  0.17619360527E+04  0.00000000000E+00 0.  1.
    9000007    1    1    2  501    0 -0.48864792842E+02  0.55901223369E+01 -0.97729566349E+03  0.10571309433E+04  0.40000000000E+03 0. -1.
   -9000007    1    1    2    0  502  0.48864792842E+02 -0.55901223369E+01 -0.69019943253E+03  0.79924606606E+03  0.40000000000E+03 0. -1.
<mgrwt>
<rscale>  2 0.40301243E+03</rscale>
<asrwt>0</asrwt>
<pdfrwt beam="1">  1       21 0.14529378E-01 0.40301243E+03</pdfrwt>
<pdfrwt beam="2">  1       21 0.27106708E+00 0.40301243E+03</pdfrwt>
<totfact> 0.17582566E+03</totfact>
</mgrwt>
</event>
<event>
 4    1  0.4862039E-002  0.4713837E+03  0.7818608E-02  0.1021530E+00
         21   -1    0    0  503  502  0.00000000000E+00  0.00000000000E+00  0.13004929575E+03  0.13004929575E+03  0.00000000000E+00 0.  1.
         21   -1    0    0  501  503 -0.00000000000E+00 -0.00000000000E+00 -0.19587671189E+04  0.19587671189E+04  0.00000000000E+00 0. -1.
    9000007    1    1    2  501    0  0.15415001478E+03 -0.19606204758E+03 -0.12876020267E+04  0.13711752378E+04  0.40000000000E+03 0. -1.
   -9000007    1    1    2    0  502 -0.15415001478E+03  0.19606204758E+03 -0.54111579641E+03  0.71764117683E+03  0.40000000000E+03 0.  1.
<mgrwt>
<rscale>  2 0.47138366E+03</rscale>
<asrwt>0</asrwt>
<pdfrwt beam="1">  1       21 0.20007585E-01 0.47138366E+03</pdfrwt>
<pdfrwt beam="2">  1       21 0.30134878E+00 0.47138366E+03</pdfrwt>
<totfact> 0.61153355E+02</totfact>
</mgrwt>
</event>
<event>
 4    1  0.4862039E-002  0.4270960E+03  0.7818608E-02  0.1034781E+00
         21   -1    0    0  503  502  0.00000000000E+00  0.00000000000E+00  0.61531895163E+03  0.61531895163E+03  0.00000000000E+00 0. -1.
         21   -1    0    0  501  503 -0.00000000000E+00 -0.00000000000E+00 -0.29963073054E+03  0.29963073054E+03  0.00000000000E+00 0. -1.
    9000007    1    1    2  501    0 -0.14365115569E+03  0.42134988228E+02  0.20498196500E+03  0.47373897638E+03  0.40000000000E+03 0. -1.
   -9000007    1    1    2    0  502  0.14365115569E+03 -0.42134988228E+02  0.11070625609E+03  0.44121070579E+03  0.40000000000E+03 0. -1.
<mgrwt>
<rscale>  2 0.42709602E+03</rscale>
<asrwt>0</asrwt>
<pdfrwt beam="1">  1       21 0.94664454E-01 0.42709602E+03</pdfrwt>
<pdfrwt beam="2">  1       21 0.46097036E-01 0.42709602E+03</pdfrwt>
<totfact> 0.37090266E+03</totfact>
</mgrwt>
</event>
<event>
 4    1  0.4862039E-002  0.5396343E+03  0.7818608E-02  0.1003922E+00
         21   -1    0    0  503  502  0.00000000000E+00  0.00000000000E+00  0.23341780317E+03  0.23341780317E+03  0.00000000000E+00 0. -1.
         21   -1    0    0  501  503 -0.00000000000E+00 -0.00000000000E+00 -0.13969630831E+04  0.13969630831E+04  0.00000000000E+00 0.  1.
    9000007    1    1    2  501    0 -0.28963431538E+03 -0.21752507327E+03 -0.31519055872E+03  0.62494022310E+03  0.40000000000E+03 0.  1.
   -9000007    1    1    2    0  502  0.28963431538E+03  0.21752507327E+03 -0.84835472123E+03  0.10054406632E+04  0.40000000000E+03 0.  1.
<mgrwt>
<rscale>  2 0.53963432E+03</rscale>
<asrwt>0</asrwt>
<pdfrwt beam="1">  1       21 0.35910431E-01 0.53963432E+03</pdfrwt>
<pdfrwt beam="2">  1       21 0.21491740E+00 0.53963432E+03</pdfrwt>
<totfact> 0.64060065E+02</totfact>
</mgrwt>
</event>
<event>
 4    1  0.4862039E-002  0.6557998E+03  0.7818608E-02  0.9795957E-01
         21   -1    0    0  503  502  0.00000000000E+00  0.00000000000E+00  0.18509164685E+04  0.18509164685E+04  0.00000000000E+00 0. -1.
         21   -1    0    0  501  503 -0.00000000000E+00 -0.00000000000E+00 -0.26796088235E+03  0.26796088235E+03  0.00000000000E+00 0.  1.
    9000007    1    1    2  501    0  0.36673774177E+03 -0.36820758273E+03  0.40529865322E+03  0.77093475309E+03  0.40000000000E+03 0.  1.
   -9000007    1    1    2    0  502 -0.36673774177E+03  0.36820758273E+03  0.11776569330E+04  0.13479425978E+04  0.40000000000E+03 0. -1.
<mgrwt>
<rscale>  2 0.65579981E+03</rscale>
<asrwt>0</asrwt>
<pdfrwt beam="1">  1       21 0.28475637E+00 0.65579981E+03</pdfrwt>
<pdfrwt beam="2">  1       21 0.41224752E-01 0.65579981E+03</pdfrwt>
<totfact> 0.16832934E+02</totfact>
</mgrwt>
</event>
<event>
 4    1  0.4862039E-002  0.4446093E+03  0.7818608E-02  0.1029342E+00
         21   -1    0    0  503  502  0.00000000000E+00  0.00000000000E+00  0.41292077491E+03  0.41292077491E+03  0.00000000000E+00 0. -1.
         21   -1    0    0  501  503 -0.00000000000E+00 -0.00000000000E+00 -0.48244759939E+03  0.48244759939E+03  0.00000000000E+00 0. -1.
    9000007    1    1    2  501    0 -0.16455007656E+03 -0.10295962048E+03  0.45372070108E+01  0.44463242953E+03  0.40000000000E+03 0. -1.
   -9000007    1    1    2    0  502  0.16455007656E+03  0.10295962048E+03 -0.74064031496E+02  0.45073594477E+03  0.40000000000E+03 0. -1.
<mgrwt>
<rscale>  2 0.44460928E+03</rscale>
<asrwt>0</asrwt>
<pdfrwt beam="1">  1       21 0.63526273E-01 0.44460928E+03</pdfrwt>
<pdfrwt beam="2">  1       21 0.74222708E-01 0.44460928E+03</pdfrwt>
<totfact> 0.32580552E+03</totfact>
</mgrwt>
</event>
<event>
 4    1  0.4862039E-002  0.4909244E+03  0.7818608E-02  0.1016175E+00
         21   -1    0    0  501  502  0.00000000000E+00  0.00000000000E+00  0.20807313712E+03  0.20807313712E+03  0.00000000000E+00 0. -1.
         21   -1    0    0  502  503 -0.00000000000E+00 -0.00000000000E+00 -0.11588634326E+04  0.11588634326E+04  0.00000000000E+00 0. -1.
    9000007    1    1    2  501    0 -0.20437282449E+03  0.19808718891E+03 -0.49074120955E+03  0.69414243535E+03  0.40000000000E+03 0. -1.
   -9000007    1    1    2    0  503  0.20437282449E+03 -0.19808718891E+03 -0.46004908597E+03  0.67279413441E+03  0.40000000000E+03 0. -1.
<mgrwt>
<rscale>  2 0.49092442E+03</rscale>
<asrwt>0</asrwt>
<pdfrwt beam="1">  1       21 0.32011252E-01 0.49092442E+03</pdfrwt>
<pdfrwt beam="2">  1       21 0.17828668E+00 0.49092442E+03</pdfrwt>
<totfact> 0.14590836E+03</totfact>
</mgrwt>
</event>
<event>
 4    1  0.4862039E-002  0.4712167E+03  0.7818608E-02  0.1021577E+00
         21   -1    0    0  503  502  0.00000000000E+00  0.00000000000E+00  0.10045987309E+04  0.10045987309E+04  0.00000000000E+00 0. -1.
         21   -1    0    0  501  503 -0.00000000000E+00 -0.00000000000E+00 -0.22271699682E+03  0.22271699682E+03  0.00000000000E+00 0.  1.
    9000007    1    1    2  501    0  0.19928276568E+03  0.14943761961E+03  0.44436837149E+03  0.64769473707E+03  0.40000000000E+03 0.  1.
   -9000007    1    1    2    0  502 -0.19928276568E+03 -0.14943761961E+03  0.33751336255E+03  0.57962099060E+03  0.40000000000E+03 0. -1.
<mgrwt>
<rscale>  2 0.47121675E+03</rscale>
<asrwt>0</asrwt>
<pdfrwt beam="1">  1       21 0.15455365E+00 0.47121675E+03</pdfrwt>
<pdfrwt beam="2">  1       21 0.34264154E-01 0.47121675E+03</pdfrwt>
<totfact> 0.19217291E+03</totfact>
</mgrwt>
</event>
<event>
 4    1  0.4862039E-002  0.4350405E+03  0.7818608E-02  0.1032279E+00
         21   -1    0    0  503  502  0.00000000000E+00  0.00000000000E+00  0.48387179859E+03  0.48387179859E+03  0.00000000000E+00 0. -1.
         21   -1    0    0  501  503 -0.00000000000E+00 -0.00000000000E+00 -0.65275500684E+03  0.65275500684E+03  0.00000000000E+00 0.  1.
    9000007    1    1    2  501    0  0.17052078981E+03  0.13525391296E+02 -0.44422939031E+03  0.62177168413E+03  0.40000000000E+03 0.  1.
   -9000007    1    1    2    0  502 -0.17052078981E+03 -0.13525391296E+02  0.27534618206E+03  0.51485512131E+03  0.40000000000E+03 0. -1.
<mgrwt>
<rscale>  2 0.43504055E+03</rscale>
<asrwt>0</asrwt>
<pdfrwt beam="1">  1       21 0.74441815E-01 0.43504055E+03</pdfrwt>
<pdfrwt beam="2">  1       21 0.10042385E+00 0.43504055E+03</pdfrwt>
<totfact> 0.11266675E+03</totfact>
</mgrwt>
</event>
<event>
 4    1  0.4862039E-002  0.5819065E+03  0.7818608E-02  0.9943672E-01
         21   -1    0    0  503  502  0.00000000000E+00  0.00000000000E+00  0.17775761452E+04  0.17775761452E+04  0.00000000000E+00 0. -1.
         21   -1    0    0  501  503 -0.00000000000E+00 -0.00000000000E+00 -0.23412541109E+03  0.23412541109E+03  0.00000000000E+00 0.  1.
    9000007    1    1    2  501    0 -0.17760709252E+03 -0.38349820961E+03  0.33749946692E+03  0.67269684573E+03  0.40000000000E+03 0.  1.
   -9000007    1    1    2    0  502  0.17760709252E+03  0.38349820961E+03  0.12059512672E+04  0.13390047106E+04  0.40000000000E+03 0. -1.
<mgrwt>
<rscale>  2 0.58190648E+03</rscale>
<asrwt>0</asrwt>
<pdfrwt beam="1">  1       21 0.27347324E+00 0.58190648E+03</pdfrwt>
<pdfrwt beam="2">  1       21 0.36019295E-01 0.58190648E+03</pdfrwt>
<totfact> 0.26877741E+02</totfact>
</mgrwt>
</event>
<event>
 4    1  0.4862039E-002  0.5161750E+03  0.7818608E-02  0.1009641E+00
         21   -1    0    0  501  502  0.00000000000E+00  0.00000000000E+00  0.42502307869E+03  0.42502307869E+03  0.00000000000E+00 0.  1.
         21   -1    0    0  502  503 -0.00000000000E+00 -0.00000000000E+00 -0.68877123333E+03  0.68877123333E+03  0.00000000000E+00 0.  1.
    9000007    1    1    2  501    0  0.21666410729E+03  0.24391236958E+03  0.35068707684E+02  0.51736485548E+03  0.40000000000E+03 0.  1.
   -9000007    1    1    2    0  503 -0.21666410729E+03 -0.24391236958E+03 -0.29881686233E+03  0.59642945655E+03  0.40000000000E+03 0.  1.
<mgrwt>
<rscale>  2 0.51617495E+03</rscale>
<asrwt>0</asrwt>
<pdfrwt beam="1">  1       21 0.65388167E-01 0.51617495E+03</pdfrwt>
<pdfrwt beam="2">  1       21 0.10596480E+00 0.51617495E+03</pdfrwt>
<totfact> 0.12822194E+03</totfact>
</mgrwt>
</event>
<event>
 4    1  0.4862039E-002  0.4650137E+03  0.7818608E-02  0.1023337E+00
         21   -1    0    0  501  502  0.00000000000E+00  0.00000000000E+00  0.51039223335E+03  0.51039223335E+03  0.00000000000E+00 0. -1.
         21   -1    0    0  502  503 -0.00000000000E+00 -0.00000000000E+00 -0.42394999505E+03  0.42394999505E+03  0.00000000000E+00 0. -1.
    9000007    1    1    2  501    0 -0.18573246446E+03 -0.14744905315E+03  0.31210797076E+02  0.46605995911E+03  0.40000000000E+03 0. -1.
   -9000007    1    1    2    0  503  0.18573246446E+03  0.14744905315E+03  0.55231441226E+02  0.46828226929E+03  0.40000000000E+03 0. -1.
<mgrwt>
<rscale>  2 0.46501373E+03</rscale>
<asrwt>0</asrwt>
<pdfrwt beam="1">  1       21 0.78521882E-01 0.46501373E+03</pdfrwt>
<pdfrwt beam="2">  1       21 0.65223076E-01 0.46501373E+03</pdfrwt>
<totfact> 0.26819725E+03</totfact>
</mgrwt>
</event>
<event>
 4    1  0.4862039E-002  0.4230054E+03  0.7818608E-02  0.1036093E+00
         21   -1    0    0  503  502  0.00000000000E+00  0.00000000000E+00  0.20315096501E+03  0.20315096501E+03  0.00000000000E+00 0. -1.
         21   -1    0    0  501  503 -0.00000000000E+00 -0.00000000000E+00 -0.97510394659E+03  0.97510394659E+03  0.00000000000E+00 0. -1.
    9000007    1    1    2  501    0 -0.61563569472E+01  0.13746159181E+03 -0.56919481858E+03  0.70916594070E+03  0.40000000000E+03 0. -1.
   -9000007    1    1    2    0  502  0.61563569472E+01 -0.13746159181E+03 -0.20275816300E+03  0.46908897090E+03  0.40000000000E+03 0. -1.
<mgrwt>
<rscale>  2 0.42300543E+03</rscale>
<asrwt>0</asrwt>
<pdfrwt beam="1">  1       21 0.31253995E-01 0.42300543E+03</pdfrwt>
<pdfrwt beam="2">  1       21 0.15001599E+00 0.42300543E+03</pdfrwt>
<totfact> 0.25551224E+03</totfact>
</mgrwt>
</event>
<event>
 4    1  0.4862039E-002  0.4399763E+03  0.7818608E-02  0.1030754E+00
         21   -1    0    0  501  502  0.00000000000E+00  0.00000000000E+00  0.30852738480E+03  0.30852738480E+03  0.00000000000E+00 0. -1.
         21   -1    0    0  502  503 -0.00000000000E+00 -0.00000000000E+00 -0.11246217010E+04  0.11246217010E+04  0.00000000000E+00 0.  1.
    9000007    1    1    2  501    0  0.17036755264E+03  0.67483544656E+02  0.68406177297E+02  0.44526232367E+03  0.40000000000E+03 0.  1.
   -9000007    1    1    2    0  503 -0.17036755264E+03 -0.67483544656E+02 -0.88450049349E+03  0.98788676212E+03  0.40000000000E+03 0.  1.
<mgrwt>
<rscale>  2 0.43997629E+03</rscale>
<asrwt>0</asrwt>
<pdfrwt beam="1">  1       21 0.47465751E-01 0.43997629E+03</pdfrwt>
<pdfrwt beam="2">  1       21 0.17301872E+00 0.43997629E+03</pdfrwt>
<totfact> 0.72390520E+02</totfact>
</mgrwt>
</event>
<event>
 4    1  0.4862039E-002  0.4159992E+03  0.7818608E-02  0.1038376E+00
         21   -1    0    0  503  502  0.00000000000E+00  0.00000000000E+00  0.45204960408E+03  0.45204960408E+03  0.00000000000E+00 0. -1.
         21   -1    0    0  501  503 -0.00000000000E+00 -0.00000000000E+00 -0.38451110688E+03  0.38451110688E+03  0.00000000000E+00 0. -1.
    9000007    1    1    2  501    0 -0.10424509875E+03  0.46779086931E+02  0.60605077330E+01  0.41604333109E+03  0.40000000000E+03 0.  1.
   -9000007    1    1    2    0  502  0.10424509875E+03 -0.46779086931E+02  0.61477989458E+02  0.42051737987E+03  0.40000000000E+03 0.  1.
<mgrwt>
<rscale>  2 0.41599919E+03</rscale>
<asrwt>0</asrwt>
<pdfrwt beam="1">  1       21 0.69546093E-01 0.41599919E+03</pdfrwt>
<pdfrwt beam="2">  1       21 0.59155555E-01 0.41599919E+03</pdfrwt>
<totfact> 0.44597643E+03</totfact>
</mgrwt>
</event>
<event>
 4    1  0.4862039E-002  0.4739614E+03  0.7818608E-02  0.1020808E+00
         21   -1    0    0  503  502  0.00000000000E+00  0.00000000000E+00  0.26702315426E+03  0.26702315426E+03  0.00000000000E+00 0. -1.
         21   -1    0    0  501  503 -0.00000000000E+00 -0.00000000000E+00 -0.13007555345E+04  0.13007555345E+04  0.00000000000E+00 0.  1.
    9000007    1    1    2  501    0  0.24079763652E+03  0.81583620808E+02 -0.98276477401E+03  0.10910847767E+04  0.40000000000E+03 0.  1.
   -9000007    1    1    2    0  502 -0.24079763652E+03 -0.81583620808E+02 -0.50967606265E+02  0.47669391209E+03  0.40000000000E+03 0. -1.
<mgrwt>
<rscale>  2 0.47396138E+03</rscale>
<asrwt>0</asrwt>
<pdfrwt beam="1">  1       21 0.41080486E-01 0.47396138E+03</pdfrwt>
<pdfrwt beam="2">  1       21 0.20011623E+00 0.47396138E+03</pdfrwt>
<totfact> 0.62563864E+02</totfact>
</mgrwt>
</event>
<event>
 4    1  0.4862039E-002  0.6189941E+03  0.7818608E-02  0.9866764E-01
         21   -1    0    0  503  502  0.00000000000E+00  0.00000000000E+00  0.99676308387E+03  0.99676308387E+03  0.00000000000E+00 0. -1.
         21   -1    0    0  501  503 -0.00000000000E+00 -0.00000000000E+00 -0.43106992137E+03  0.43106992137E+03  0.00000000000E+00 0. -1.
    9000007    1    1    2  501    0  0.46670919185E+03 -0.73049881358E+02  0.47936685448E+02  0.62084755032E+03  0.40000000000E+03 0. -1.
   -9000007    1    1    2    0  502 -0.46670919185E+03  0.73049881358E+02  0.51775647705E+03  0.80698545492E+03  0.40000000000E+03 0. -1.
<mgrwt>
<rscale>  2 0.61899415E+03</rscale>
<asrwt>0</asrwt>
<pdfrwt beam="1">  1       21 0.15334817E+00 0.61899415E+03</pdfrwt>
<pdfrwt beam="2">  1       21 0.66318450E-01 0.61899415E+03</pdfrwt>
<totfact> 0.45808353E+02</totfact>
</mgrwt>
</event>
<event>
 4    1  0.4862039E-002  0.4224567E+03  0.7818608E-02  0.1036270E+00
         21   -1    0    0  503  502  0.00000000000E+00  0.00000000000E+00  0.66624166611E+03  0.66624166611E+03  0.00000000000E+00 0. -1.
         21   -1    0    0  501  503 -0.00000000000E+00 -0.00000000000E+00 -0.27729935617E+03  0.27729935617E+03  0.00000000000E+00 0. -1.
    9000007    1    1    2  501    0 -0.25569072139E+01  0.13587895071E+03  0.10749957905E+03  0.43591947251E+03  0.40000000000E+03 0. -1.
   -9000007    1    1    2    0  502  0.25569072139E+01 -0.13587895071E+03  0.28144273088E+03  0.50762154977E+03  0.40000000000E+03 0. -1.
<mgrwt>
<rscale>  2 0.42245666E+03</rscale>
<asrwt>0</asrwt>
<pdfrwt beam="1">  1       21 0.10249872E+00 0.42245666E+03</pdfrwt>
<pdfrwt beam="2">  1       21 0.42661440E-01 0.42245666E+03</pdfrwt>
<totfact> 0.36039762E+03</totfact>
</mgrwt>
</event>
<event>
 4    1  0.4862039E-002  0.4418767E+03  0.7818608E-02  0.1030173E+00
         21   -1    0    0  503  502  0.00000000000E+00  0.00000000000E+00  0.11584857594E+04  0.11584857594E+04  0.00000000000E+00 0.  1.
         21   -1    0    0  501  503 -0.00000000000E+00 -0.00000000000E+00 -0.50270556726E+03  0.50270556726E+03  0.00000000000E+00 0. -1.
    9000007    1    1    2  501    0 -0.18163649302E+03 -0.47572953911E+02 -0.34930144193E+03  0.56326414663E+03  0.40000000000E+03 0. -1.
   -9000007    1    1    2    0  502  0.18163649302E+03  0.47572953911E+02  0.10050816341E+04  0.10979271801E+04  0.40000000000E+03 0.  1.
<mgrwt>
<rscale>  2 0.44187668E+03</rscale>
<asrwt>0</asrwt>
<pdfrwt beam="1">  1       21 0.17822858E+00 0.44187668E+03</pdfrwt>
<pdfrwt beam="2">  1       21 0.77339318E-01 0.44187668E+03</pdfrwt>
<totfact> 0.22716888E+02</totfact>
</mgrwt>
</event>
<event>
 4    1  0.4862039E-002  0.4766351E+03  0.7818608E-02  0.1020064E+00
         21   -1    0    0  501  502  0.00000000000E+00  0.00000000000E+00  0.13045775491E+04  0.13045775491E+04  0.00000000000E+00 0. -1.
         21   -1    0    0  502  503 -0.00000000000E+00 -0.00000000000E+00 -0.19668602050E+03  0.19668602050E+03  0.00000000000E+00 0. -1.
    9000007    1    1    2  501    0 -0.25186510914E+03 -0.61196559552E+02  0.80807872373E+03  0.93817497081E+03  0.40000000000E+03 0. -1.
   -9000007    1    1    2    0  503  0.25186510914E+03  0.61196559552E+02  0.29981280484E+03  0.56308859875E+03  0.40000000000E+03 0. -1.
<mgrwt>
<rscale>  2 0.47663514E+03</rscale>
<asrwt>0</asrwt>
<pdfrwt beam="1">  1       21 0.20070423E+00 0.47663514E+03</pdfrwt>
<pdfrwt beam="2">  1       21 0.30259389E-01 0.47663514E+03</pdfrwt>
<totfact> 0.11514944E+03</totfact>
</mgrwt>
</event>
<event>
 4    1  0.4862039E-002  0.4218149E+03  0.7818608E-02  0.1036477E+00
         21   -1    0    0  501  502  0.00000000000E+00  0.00000000000E+00  0.12426624227E+04  0.12426624227E+04  0.00000000000E+00 0.  1.
         21   -1    0    0  502  503 -0.00000000000E+00 -0.00000000000E+00 -0.14603823628E+03  0.14603823628E+03  0.00000000000E+00 0.  1.
    9000007    1    1    2  501    0  0.46285516239E+02 -0.12564031219E+03  0.64540433644E+03  0.77102178605E+03  0.40000000000E+03 0. -1.
   -9000007    1    1    2    0  503 -0.46285516239E+02  0.12564031219E+03  0.45121984996E+03  0.61767887293E+03  0.40000000000E+03 0. -1.
<mgrwt>
<rscale>  2 0.42181493E+03</rscale>
<asrwt>0</asrwt>
<pdfrwt beam="1">  1       21 0.19117883E+00 0.42181493E+03</pdfrwt>
<pdfrwt beam="2">  1       21 0.22467422E-01 0.42181493E+03</pdfrwt>
<totfact> 0.24471578E+03</totfact>
</mgrwt>
</event>
<event>
 4    1  0.4862039E-002  0.4436995E+03  0.7818608E-02  0.1029618E+00
         21   -1    0    0  501  502  0.00000000000E+00  0.00000000000E+00  0.84708923404E+03  0.84708923404E+03  0.00000000000E+00 0.  1.
         21   -1    0    0  502  503 -0.00000000000E+00 -0.00000000000E+00 -0.23724492852E+03  0.23724492852E+03  0.00000000000E+00 0. -1.
    9000007    1    1    2  501    0 -0.19191264987E+03  0.62292063912E+01  0.38234603897E+03  0.58571132967E+03  0.40000000000E+03 0.  1.
   -9000007    1    1    2    0  503  0.19191264987E+03 -0.62292063912E+01  0.22749826655E+03  0.49862283289E+03  0.40000000000E+03 0. -1.
<mgrwt>
<rscale>  2 0.44369952E+03</rscale>
<asrwt>0</asrwt>
<pdfrwt beam="1">  1       21 0.13032142E+00 0.44369952E+03</pdfrwt>
<pdfrwt beam="2">  1       21 0.36499220E-01 0.44369952E+03</pdfrwt>
<totfact> 0.26937598E+03</totfact>
</mgrwt>
</event>
<event>
 4    1  0.4862039E-002  0.5073569E+03  0.7818608E-02  0.1011876E+00
         21   -1    0    0  501  502  0.00000000000E+00  0.00000000000E+00  0.99835036677E+03  0.99835036677E+03  0.00000000000E+00 0. -1.
         21   -1    0    0  502  503 -0.00000000000E+00 -0.00000000000E+00 -0.25785575004E+03  0.25785575004E+03  0.00000000000E+00 0.  1.
    9000007    1    1    2  501    0  0.10220720458E+03  0.29489787692E+03  0.36480709106E+03  0.62489621872E+03  0.40000000000E+03 0.  1.
   -9000007    1    1    2    0  503 -0.10220720458E+03 -0.29489787692E+03  0.37568752568E+03  0.63130989809E+03  0.40000000000E+03 0.  1.
<mgrwt>
<rscale>  2 0.50735695E+03</rscale>
<asrwt>0</asrwt>
<pdfrwt beam="1">  1       21 0.15359236E+00 0.50735695E+03</pdfrwt>
<pdfrwt beam="2">  1       21 0.39670116E-01 0.50735695E+03</pdfrwt>
<totfact> 0.14303007E+03</totfact>
</mgrwt>
</event>
<event>
 4    1  0.4862039E-002  0.4428974E+03  0.7818608E-02  0.1029862E+00
         21   -1    0    0  503  502  0.00000000000E+00  0.00000000000E+00  0.67082252757E+03  0.67082252757E+03  0.00000000000E+00 0. -1.
         21   -1    0    0  501  503 -0.00000000000E+00 -0.00000000000E+00 -0.34945416838E+03  0.34945416838E+03  0.00000000000E+00 0. -1.
    9000007    1    1    2  501    0 -0.93244780206E+02  0.16572131883E+03 -0.45417657239E+02  0.44522006709E+03  0.40000000000E+03 0. -1.
   -9000007    1    1    2    0  502  0.93244780206E+02 -0.16572131883E+03  0.36678601643E+03  0.57505662886E+03  0.40000000000E+03 0. -1.
<mgrwt>
<rscale>  2 0.44289744E+03</rscale>
<asrwt>0</asrwt>
<pdfrwt beam="1">  1       21 0.10320347E+00 0.44289744E+03</pdfrwt>
<pdfrwt beam="2">  1       21 0.53762180E-01 0.44289744E+03</pdfrwt>
<totfact> 0.21577054E+03</totfact>
</mgrwt>
</event>
<event>
 4    1  0.4862039E-002  0.4434224E+03  0.7818608E-02  0.1029702E+00
         21   -1    0    0  501  502  0.00000000000E+00  0.00000000000E+00  0.54198467271E+03  0.54198467271E+03  0.00000000000E+00 0.  1.
         21   -1    0    0  502  503 -0.00000000000E+00 -0.00000000000E+00 -0.72422398606E+03  0.72422398606E+03  0.00000000000E+00 0. -1.
    9000007    1    1    2  501    0  0.98196330426E+02 -0.16425852216E+03  0.35613710415E+03  0.56873281808E+03  0.40000000000E+03 0.  1.
   -9000007    1    1    2    0  503 -0.98196330426E+02  0.16425852216E+03 -0.53837641750E+03  0.69747584068E+03  0.40000000000E+03 0.  1.
<mgrwt>
<rscale>  2 0.44342235E+03</rscale>
<asrwt>0</asrwt>
<pdfrwt beam="1">  1       21 0.83382257E-01 0.44342235E+03</pdfrwt>
<pdfrwt beam="2">  1       21 0.11141907E+00 0.44342235E+03</pdfrwt>
<totfact> 0.66946316E+02</totfact>
</mgrwt>
</event>
<event>
 4    1  0.4862039E-002  0.4630631E+03  0.7818608E-02  0.1023897E+00
         21   -1    0    0  501  502  0.00000000000E+00  0.00000000000E+00  0.61808445655E+03  0.61808445655E+03  0.00000000000E+00 0. -1.
         21   -1    0    0  502  503 -0.00000000000E+00 -0.00000000000E+00 -0.35856468044E+03  0.35856468044E+03  0.00000000000E+00 0.  1.
    9000007    1    1    2  501    0  0.11193772415E+03  0.20468854968E+03  0.21775132852E+03  0.51170606556E+03  0.40000000000E+03 0. -1.
   -9000007    1    1    2    0  503 -0.11193772415E+03 -0.20468854968E+03  0.41768447594E+02  0.46494307143E+03  0.40000000000E+03 0.  1.
<mgrwt>
<rscale>  2 0.46306312E+03</rscale>
<asrwt>0</asrwt>
<pdfrwt beam="1">  1       21 0.95089916E-01 0.46306312E+03</pdfrwt>
<pdfrwt beam="2">  1       21 0.55163797E-01 0.46306312E+03</pdfrwt>
<totfact> 0.24711027E+03</totfact>
</mgrwt>
</event>
<event>
 4    1  0.4862039E-002  0.5491807E+03  0.7818608E-02  0.1001684E+00
         21   -1    0    0  503  502  0.00000000000E+00  0.00000000000E+00  0.93206208665E+03  0.93206208665E+03  0.00000000000E+00 0.  1.
         21   -1    0    0  501  503 -0.00000000000E+00 -0.00000000000E+00 -0.32802019054E+03  0.32802019054E+03  0.00000000000E+00 0.  1.
    9000007    1    1    2  501    0 -0.90371290373E+02  0.36528411706E+03  0.22874319777E+03  0.59491420123E+03  0.40000000000E+03 0.  1.
   -9000007    1    1    2    0  502  0.90371290373E+02 -0.36528411706E+03  0.37529869833E+03  0.66516807596E+03  0.40000000000E+03 0.  1.
<mgrwt>
<rscale>  2 0.54918071E+03</rscale>
<asrwt>0</asrwt>
<pdfrwt beam="1">  1       21 0.14339417E+00 0.54918071E+03</pdfrwt>
<pdfrwt beam="2">  1       21 0.50464645E-01 0.54918071E+03</pdfrwt>
<totfact> 0.10248946E+03</totfact>
</mgrwt>
</event>
<event>
 4    1  0.4862039E-002  0.4385707E+03  0.7818608E-02  0.1031186E+00
         21   -1    0    0  503  502  0.00000000000E+00  0.00000000000E+00  0.18767021774E+03  0.18767021774E+03  0.00000000000E+00 0. -1.
         21   -1    0    0  501  503 -0.00000000000E+00 -0.00000000000E+00 -0.10249066075E+04  0.10249066075E+04  0.00000000000E+00 0. -1.
    9000007    1    1    2  501    0 -0.81419852662E+02 -0.16035915285E+03 -0.41800634352E+03  0.60586595344E+03  0.40000000000E+03 0.  1.
   -9000007    1    1    2    0  502  0.81419852662E+02  0.16035915285E+03 -0.41923004625E+03  0.60671087182E+03  0.40000000000E+03 0.  1.
<mgrwt>
<rscale>  2 0.43857069E+03</rscale>
<asrwt>0</asrwt>
<pdfrwt beam="1">  1       21 0.28872341E-01 0.43857069E+03</pdfrwt>
<pdfrwt beam="2">  1       21 0.15767794E+00 0.43857069E+03</pdfrwt>
<totfact> 0.25931991E+03</totfact>
</mgrwt>
</event>
<event>
 4    1  0.4862039E-002  0.4177809E+03  0.7818608E-02  0.1037791E+00
         21   -1    0    0  501  502  0.00000000000E+00  0.00000000000E+00  0.72517171692E+03  0.72517171692E+03  0.00000000000E+00 0. -1.
         21   -1    0    0  502  503 -0.00000000000E+00 -0.00000000000E+00 -0.55393412824E+03  0.55393412824E+03  0.00000000000E+00 0. -1.
    9000007    1    1    2  501    0  0.11423429833E+03  0.38618866425E+02  0.56655730505E+03  0.70393754813E+03  0.40000000000E+03 0. -1.
   -9000007    1    1    2    0  503 -0.11423429833E+03 -0.38618866425E+02 -0.39531971637E+03  0.57516829703E+03  0.40000000000E+03 0. -1.
<mgrwt>
<rscale>  2 0.41778091E+03</rscale>
<asrwt>0</asrwt>
<pdfrwt beam="1">  1       21 0.11156488E+00 0.41778091E+03</pdfrwt>
<pdfrwt beam="2">  1       21 0.85220635E-01 0.41778091E+03</pdfrwt>
<totfact> 0.64164853E+02</totfact>
</mgrwt>
</event>
<event>
 4    1  0.4862039E-002  0.4182466E+03  0.7818608E-02  0.1037638E+00
         21   -1    0    0  503  502  0.00000000000E+00  0.00000000000E+00  0.17910676276E+04  0.17910676276E+04  0.00000000000E+00 0. -1.
         21   -1    0    0  501  503 -0.00000000000E+00 -0.00000000000E+00 -0.18084312812E+03  0.18084312812E+03  0.00000000000E+00 0. -1.
    9000007    1    1    2  501    0 -0.99493535714E+02 -0.70931345599E+02  0.13645637571E+03  0.43994381676E+03  0.40000000000E+03 0. -1.
   -9000007    1    1    2    0  502  0.99493535714E+02  0.70931345599E+02  0.14737681238E+04  0.15319669390E+04  0.40000000000E+03 0. -1.
<mgrwt>
<rscale>  2 0.41824660E+03</rscale>
<asrwt>0</asrwt>
<pdfrwt beam="1">  1       21 0.27554885E+00 0.41824660E+03</pdfrwt>
<pdfrwt beam="2">  1       21 0.27822021E-01 0.41824660E+03</pdfrwt>
<totfact> 0.47600388E+02</totfact>
</mgrwt>
</event>
<event>
 4    1  0.4862039E-002  0.5246112E+03  0.7818608E-02  0.1007547E+00
         21   -1    0    0  501  502  0.00000000000E+00  0.00000000000E+00  0.23661979662E+04  0.23661979662E+04  0.00000000000E+00 0. -1.
         21   -1    0    0  502  503 -0.00000000000E+00 -0.00000000000E+00 -0.16283494294E+03  0.16283494294E+03  0.00000000000E+00 0.  1.
    9000007    1    1    2  501    0 -0.22496755966E+03  0.25417801996E+03  0.17775854239E+04  0.18533825314E+04  0.40000000000E+03 0. -1.
   -9000007    1    1    2    0  503  0.22496755966E+03 -0.25417801996E+03  0.42577759937E+03  0.67565037768E+03  0.40000000000E+03 0.  1.
<mgrwt>
<rscale>  2 0.52461116E+03</rscale>
<asrwt>0</asrwt>
<pdfrwt beam="1">  1       21 0.36403043E+00 0.52461116E+03</pdfrwt>
<pdfrwt beam="2">  1       21 0.25051531E-01 0.52461116E+03</pdfrwt>
<totfact> 0.15942348E+02</totfact>
</mgrwt>
</event>
<event>
 4    1  0.4862039E-002  0.4066495E+03  0.7818608E-02  0.1041501E+00
         21   -1    0    0  501  502  0.00000000000E+00  0.00000000000E+00  0.13967924163E+04  0.13967924163E+04  0.00000000000E+00 0.  1.
         21   -1    0    0  502  503 -0.00000000000E+00 -0.00000000000E+00 -0.42084961775E+03  0.42084961775E+03  0.00000000000E+00 0.  1.
    9000007    1    1    2  501    0  0.15622398554E+02 -0.71552701503E+02  0.12584309254E+04  0.13225022656E+04  0.40000000000E+03 0.  1.
   -9000007    1    1    2    0  503 -0.15622398554E+02  0.71552701503E+02 -0.28248812691E+03  0.49513976842E+03  0.40000000000E+03 0.  1.
<mgrwt>
<rscale>  2 0.40664954E+03</rscale>
<asrwt>0</asrwt>
<pdfrwt beam="1">  1       21 0.21489114E+00 0.40664954E+03</pdfrwt>
<pdfrwt beam="2">  1       21 0.64746096E-01 0.40664954E+03</pdfrwt>
<totfact> 0.19606658E+02</totfact>
</mgrwt>
</event>
<event>
 4    1  0.4862039E-002  0.5233795E+03  0.7818608E-02  0.1007850E+00
         21   -1    0    0  503  502  0.00000000000E+00  0.00000000000E+00  0.71689452831E+03  0.71689452831E+03  0.00000000000E+00 0. -1.
         21   -1    0    0  501  503 -0.00000000000E+00 -0.00000000000E+00 -0.82572455823E+03  0.82572455823E+03  0.00000000000E+00 0. -1.
    9000007    1    1    2  501    0 -0.16607491759E+03 -0.29384555776E+03 -0.61976635049E+03  0.81119443987E+03  0.40000000000E+03 0. -1.
   -9000007    1    1    2    0  502  0.16607491759E+03  0.29384555776E+03  0.51093632058E+03  0.73142464667E+03  0.40000000000E+03 0. -1.
<mgrwt>
<rscale>  2 0.52337949E+03</rscale>
<asrwt>0</asrwt>
<pdfrwt beam="1">  1       21 0.11029147E+00 0.52337949E+03</pdfrwt>
<pdfrwt beam="2">  1       21 0.12703455E+00 0.52337949E+03</pdfrwt>
<totfact> 0.23622714E+02</totfact>
</mgrwt>
</event>
<event>
 4    1  0.4862039E-002  0.5572356E+03  0.7818608E-02  0.9998329E-01
         21   -1    0    0  503  502  0.00000000000E+00  0.00000000000E+00  0.27095027094E+03  0.27095027094E+03  0.00000000000E+00 0. -1.
         21   -1    0    0  501  503 -0.00000000000E+00 -0.00000000000E+00 -0.11521212278E+04  0.11521212278E+04  0.00000000000E+00 0. -1.
    9000007    1    1    2  501    0 -0.29319884193E+03  0.25405891541E+03 -0.49241074974E+03  0.74362614254E+03  0.40000000000E+03 0. -1.
   -9000007    1    1    2    0  502  0.29319884193E+03 -0.25405891541E+03 -0.38876020709E+03  0.67944535617E+03  0.40000000000E+03 0. -1.
<mgrwt>
<rscale>  2 0.55723558E+03</rscale>
<asrwt>0</asrwt>
<pdfrwt beam="1">  1       21 0.41684658E-01 0.55723558E+03</pdfrwt>
<pdfrwt beam="2">  1       21 0.17724941E+00 0.55723558E+03</pdfrwt>
<totfact> 0.84457166E+02</totfact>
</mgrwt>
</event>
<event>
 4    1  0.4862039E-002  0.4484907E+03  0.7818608E-02  0.1028173E+00
         21   -1    0    0  503  502  0.00000000000E+00  0.00000000000E+00  0.80700481357E+03  0.80700481357E+03  0.00000000000E+00 0.  1.
         21   -1    0    0  501  503 -0.00000000000E+00 -0.00000000000E+00 -0.30989191556E+03  0.30989191556E+03  0.00000000000E+00 0.  1.
    9000007    1    1    2  501    0  0.20256656151E+03  0.10519205444E+02  0.15128510266E+01  0.44849320423E+03  0.40000000000E+03 0.  1.
   -9000007    1    1    2    0  502 -0.20256656151E+03 -0.10519205444E+02  0.49560004698E+03  0.66840352490E+03  0.40000000000E+03 0.  1.
<mgrwt>
<rscale>  2 0.44849065E+03</rscale>
<asrwt>0</asrwt>
<pdfrwt beam="1">  1       21 0.12415459E+00 0.44849065E+03</pdfrwt>
<pdfrwt beam="2">  1       21 0.47675679E-01 0.44849065E+03</pdfrwt>
<totfact> 0.17518259E+03</totfact>
</mgrwt>
</event>
<event>
 4    1  0.4862039E-002  0.4302396E+03  0.7818608E-02  0.1033784E+00
         21   -1    0    0  503  502  0.00000000000E+00  0.00000000000E+00  0.59270729173E+03  0.59270729173E+03  0.00000000000E+00 0. -1.
         21   -1    0    0  501  503 -0.00000000000E+00 -0.00000000000E+00 -0.33366522135E+03  0.33366522135E+03  0.00000000000E+00 0. -1.
    9000007    1    1    2  501    0 -0.12811325455E+03 -0.93236706224E+02  0.12330614192E+02  0.43041623276E+03  0.40000000000E+03 0.  1.
   -9000007    1    1    2    0  502  0.12811325455E+03  0.93236706224E+02  0.24671145619E+03  0.49595628032E+03  0.40000000000E+03 0.  1.
<mgrwt>
<rscale>  2 0.43023957E+03</rscale>
<asrwt>0</asrwt>
<pdfrwt beam="1">  1       21 0.91185737E-01 0.43023957E+03</pdfrwt>
<pdfrwt beam="2">  1       21 0.51333111E-01 0.43023957E+03</pdfrwt>
<totfact> 0.32255560E+03</totfact>
</mgrwt>
</event>
<event>
 4    1  0.4862039E-002  0.4638381E+03  0.7818608E-02  0.1023674E+00
         21   -1    0    0  503  502  0.00000000000E+00  0.00000000000E+00  0.12701434404E+04  0.12701434404E+04  0.00000000000E+00 0. -1.
         21   -1    0    0  501  503 -0.00000000000E+00 -0.00000000000E+00 -0.16960869632E+03  0.16960869632E+03  0.00000000000E+00 0.  1.
    9000007    1    1    2  501    0  0.57939691544E+02  0.22757155082E+03  0.57629223819E+03  0.73976926295E+03  0.40000000000E+03 0. -1.
   -9000007    1    1    2    0  502 -0.57939691544E+02 -0.22757155082E+03  0.52424250593E+03  0.69998287381E+03  0.40000000000E+03 0. -1.
<mgrwt>
<rscale>  2 0.46383814E+03</rscale>
<asrwt>0</asrwt>
<pdfrwt beam="1">  1       21 0.19540668E+00 0.46383814E+03</pdfrwt>
<pdfrwt beam="2">  1       21 0.26093646E-01 0.46383814E+03</pdfrwt>
<totfact> 0.16833483E+03</totfact>
</mgrwt>
</event>
<event>
 4    1  0.4862039E-002  0.4003457E+03  0.7818608E-02  0.1043660E+00
         21   -1    0    0  503  502  0.00000000000E+00  0.00000000000E+00  0.11574127465E+03  0.11574127465E+03  0.00000000000E+00 0. -1.
         21   -1    0    0  501  503 -0.00000000000E+00 -0.00000000000E+00 -0.14632913421E+04  0.14632913421E+04  0.00000000000E+00 0. -1.
    9000007    1    1    2  501    0  0.11148707171E+02  0.12345297723E+02 -0.85664821074E+03  0.94558069831E+03  0.40000000000E+03 0.  1.
   -9000007    1    1    2    0  502 -0.11148707171E+02 -0.12345297723E+02 -0.49090185669E+03  0.63345191842E+03  0.40000000000E+03 0.  1.
<mgrwt>
<rscale>  2 0.40034573E+03</rscale>
<asrwt>0</asrwt>
<pdfrwt beam="1">  1       21 0.17806350E-01 0.40034573E+03</pdfrwt>
<pdfrwt beam="2">  1       21 0.22512175E+00 0.40034573E+03</pdfrwt>
<totfact> 0.23074916E+03</totfact>
</mgrwt>
</event>
<event>
 4    1  0.4862039E-002  0.4271915E+03  0.7818608E-02  0.1034751E+00
         21   -1    0    0  503  502  0.00000000000E+00  0.00000000000E+00  0.89205018263E+03  0.89205018263E+03  0.00000000000E+00 0.  1.
         21   -1    0    0  501  503 -0.00000000000E+00 -0.00000000000E+00 -0.32857137302E+03  0.32857137302E+03  0.00000000000E+00 0.  1.
    9000007    1    1    2  501    0  0.55061780281E+02  0.13950200505E+03 -0.93179928776E+02  0.43723575813E+03  0.40000000000E+03 0.  1.
   -9000007    1    1    2    0  502 -0.55061780281E+02 -0.13950200505E+03  0.65665873839E+03  0.78338579752E+03  0.40000000000E+03 0.  1.
<mgrwt>
<rscale>  2 0.42719154E+03</rscale>
<asrwt>0</asrwt>
<pdfrwt beam="1">  1       21 0.13723849E+00 0.42719154E+03</pdfrwt>
<pdfrwt beam="2">  1       21 0.50549442E-01 0.42719154E+03</pdfrwt>
<totfact> 0.12035695E+03</totfact>
</mgrwt>
</event>
<event>
 4    1  0.4862039E-002  0.4522060E+03  0.7818608E-02  0.1027066E+00
         21   -1    0    0  501  502  0.00000000000E+00  0.00000000000E+00  0.90158544125E+03  0.90158544125E+03  0.00000000000E+00 0. -1.
         21   -1    0    0  502  503 -0.00000000000E+00 -0.00000000000E+00 -0.32751315143E+03  0.32751315143E+03  0.00000000000E+00 0. -1.
    9000007    1    1    2  501    0  0.51589054486E+02  0.20452102721E+03  0.62780496408E+03  0.77371141522E+03  0.40000000000E+03 0. -1.
   -9000007    1    1    2    0  503 -0.51589054486E+02 -0.20452102721E+03 -0.53732674262E+02  0.45538717746E+03  0.40000000000E+03 0. -1.
<mgrwt>
<rscale>  2 0.45220602E+03</rscale>
<asrwt>0</asrwt>
<pdfrwt beam="1">  1       21 0.13870545E+00 0.45220602E+03</pdfrwt>
<pdfrwt beam="2">  1       21 0.50386639E-01 0.45220602E+03</pdfrwt>
<totfact> 0.11657489E+03</totfact>
</mgrwt>
</event>
<event>
 4    1  0.4862039E-002  0.4105643E+03  0.7818608E-02  0.1040182E+00
         21   -1    0    0  501  502  0.00000000000E+00  0.00000000000E+00  0.27892831788E+03  0.27892831788E+03  0.00000000000E+00 0. -1.
         21   -1    0    0  502  503 -0.00000000000E+00 -0.00000000000E+00 -0.15905442630E+04  0.15905442630E+04  0.00000000000E+00 0. -1.
    9000007    1    1    2  501    0  0.70494882608E+02 -0.59945631541E+02  0.80235117636E+02  0.41833082760E+03  0.40000000000E+03 0. -1.
   -9000007    1    1    2    0  503 -0.70494882608E+02  0.59945631541E+02 -0.13918510627E+04  0.14511417532E+04  0.40000000000E+03 0. -1.
<mgrwt>
<rscale>  2 0.41056425E+03</rscale>
<asrwt>0</asrwt>
<pdfrwt beam="1">  1       21 0.42912049E-01 0.41056425E+03</pdfrwt>
<pdfrwt beam="2">  1       21 0.24469912E+00 0.41056425E+03</pdfrwt>
<totfact> 0.30691832E+02</totfact>
</mgrwt>
</event>
<event>
 4    1  0.4862039E-002  0.5178450E+03  0.7818608E-02  0.1009223E+00
         21   -1    0    0  501  502  0.00000000000E+00  0.00000000000E+00  0.16398498727E+04  0.16398498727E+04  0.00000000000E+00 0. -1.
         21   -1    0    0  502  503 -0.00000000000E+00 -0.00000000000E+00 -0.16811294246E+03  0.16811294246E+03  0.00000000000E+00 0. -1.
    9000007    1    1    2  501    0 -0.30013632320E+03 -0.13446791862E+03  0.58660062147E+03  0.78247282557E+03  0.40000000000E+03 0. -1.
   -9000007    1    1    2    0  503  0.30013632320E+03  0.13446791862E+03  0.88513630872E+03  0.10254899895E+04  0.40000000000E+03 0. -1.
<mgrwt>
<rscale>  2 0.51784499E+03</rscale>
<asrwt>0</asrwt>
<pdfrwt beam="1">  1       21 0.25228458E+00 0.51784499E+03</pdfrwt>
<pdfrwt beam="2">  1       21 0.25863531E-01 0.51784499E+03</pdfrwt>
<totfact> 0.72319059E+02</totfact>
</mgrwt>
</event>
<event>
 4    1  0.4862039E-002  0.4223402E+03  0.7818608E-02  0.1036307E+00
         21   -1    0    0  503  502  0.00000000000E+00  0.00000000000E+00  0.80858773596E+03  0.80858773596E+03  0.00000000000E+00 0. -1.
         21   -1    0    0  501  503 -0.00000000000E+00 -0.00000000000E+00 -0.30015255998E+03  0.30015255998E+03  0.00000000000E+00 0. -1.
    9000007    1    1    2  501    0  0.10005891454E+03  0.91430235052E+02 -0.31190729752E+02  0.42349042006E+03  0.40000000000E+03 0. -1.
   -9000007    1    1    2    0  502 -0.10005891454E+03 -0.91430235052E+02  0.53962590573E+03  0.68524987588E+03  0.40000000000E+03 0. -1.
<mgrwt>
<rscale>  2 0.42234024E+03</rscale>
<asrwt>0</asrwt>
<pdfrwt beam="1">  1       21 0.12439811E+00 0.42234024E+03</pdfrwt>
<pdfrwt beam="2">  1       21 0.46177317E-01 0.42234024E+03</pdfrwt>
<totfact> 0.18839828E+03</totfact>
</mgrwt>
</event>
<event>
 4    1  0.4862039E-002  0.4000507E+03  0.7818608E-02  0.1043762E+00
         21   -1    0    0  501  502  0.00000000000E+00  0.00000000000E+00  0.12210551730E+03  0.12210551730E+03  0.00000000000E+00 0. -1.
         21   -1    0    0  502  503 -0.00000000000E+00 -0.00000000000E+00 -0.17106559812E+04  0.17106559812E+04  0.00000000000E+00 0. -1.
    9000007    1    1    2  501    0  0.55274935109E+01 -0.31644058052E+01 -0.35116206670E+03  0.53231134098E+03  0.40000000000E+03 0. -1.
   -9000007    1    1    2    0  503 -0.55274935109E+01  0.31644058052E+01 -0.12373883972E+04  0.13004501575E+04  0.40000000000E+03 0. -1.
<mgrwt>
<rscale>  2 0.40005071E+03</rscale>
<asrwt>0</asrwt>
<pdfrwt beam="1">  1       21 0.18785463E-01 0.40005071E+03</pdfrwt>
<pdfrwt beam="2">  1       21 0.26317786E+00 0.40005071E+03</pdfrwt>
<totfact> 0.12167967E+03</totfact>
</mgrwt>
</event>
<event>
 4    1  0.4862039E-002  0.4510111E+03  0.7818608E-02  0.1027421E+00
         21   -1    0    0  503  502  0.00000000000E+00  0.00000000000E+00  0.99869539798E+03  0.99869539798E+03  0.00000000000E+00 0.  1.
         21   -1    0    0  501  503 -0.00000000000E+00 -0.00000000000E+00 -0.29808331162E+03  0.29808331162E+03  0.00000000000E+00 0. -1.
    9000007    1    1    2  501    0  0.16123281731E+03 -0.13196575208E+03 -0.14589244072E+02  0.45124696912E+03  0.40000000000E+03 0. -1.
   -9000007    1    1    2    0  502 -0.16123281731E+03  0.13196575208E+03  0.71520133043E+03  0.84553174047E+03  0.40000000000E+03 0. -1.
<mgrwt>
<rscale>  2 0.45101107E+03</rscale>
<asrwt>0</asrwt>
<pdfrwt beam="1">  1       21 0.15364544E+00 0.45101107E+03</pdfrwt>
<pdfrwt beam="2">  1       21 0.45858972E-01 0.45101107E+03</pdfrwt>
<totfact> 0.10804458E+03</totfact>
</mgrwt>
</event>
<event>
 4    1  0.4862039E-002  0.4029193E+03  0.7818608E-02  0.1042774E+00
         21   -1    0    0  503  502  0.00000000000E+00  0.00000000000E+00  0.18695036494E+03  0.18695036494E+03  0.00000000000E+00 0.  1.
         21   -1    0    0  501  503 -0.00000000000E+00 -0.00000000000E+00 -0.11279534240E+04  0.11279534240E+04  0.00000000000E+00 0.  1.
    9000007    1    1    2  501    0  0.34165526811E+02 -0.34302309598E+02 -0.78589204435E+03  0.88315923651E+03  0.40000000000E+03 0. -1.
   -9000007    1    1    2    0  502 -0.34165526811E+02  0.34302309598E+02 -0.15511101470E+03  0.43174455242E+03  0.40000000000E+03 0. -1.
<mgrwt>
<rscale>  2 0.40291926E+03</rscale>
<asrwt>0</asrwt>
<pdfrwt beam="1">  1       21 0.28761595E-01 0.40291926E+03</pdfrwt>
<pdfrwt beam="2">  1       21 0.17353129E+00 0.40291926E+03</pdfrwt>
<totfact> 0.20263724E+03</totfact>
</mgrwt>
</event>
<event>
 4    1  0.4862039E-002  0.4428264E+03  0.7818608E-02  0.1029883E+00
         21   -1    0    0  501  502  0.00000000000E+00  0.00000000000E+00  0.51132077438E+03  0.51132077438E+03  0.00000000000E+00 0.  1.
         21   -1    0    0  502  503 -0.00000000000E+00 -0.00000000000E+00 -0.60764335255E+03  0.60764335255E+03  0.00000000000E+00 0.  1.
    9000007    1    1    2  501    0 -0.18920322154E+03 -0.17244598087E+02  0.29163425476E+03  0.53023181133E+03  0.40000000000E+03 0.  1.
   -9000007    1    1    2    0  503  0.18920322154E+03  0.17244598087E+02 -0.38795683293E+03  0.58873231559E+03  0.40000000000E+03 0.  1.
<mgrwt>
<rscale>  2 0.44282642E+03</rscale>
<asrwt>0</asrwt>
<pdfrwt beam="1">  1       21 0.78664734E-01 0.44282642E+03</pdfrwt>
<pdfrwt beam="2">  1       21 0.93483593E-01 0.44282642E+03</pdfrwt>
<totfact> 0.11759890E+03</totfact>
</mgrwt>
</event>
<event>
 4    1  0.4862039E-002  0.4383301E+03  0.7818608E-02  0.1031260E+00
         21   -1    0    0  503  502  0.00000000000E+00  0.00000000000E+00  0.32343565535E+03  0.32343565535E+03  0.00000000000E+00 0.  1.
         21   -1    0    0  501  503 -0.00000000000E+00 -0.00000000000E+00 -0.61485843497E+03  0.61485843497E+03  0.00000000000E+00 0. -1.
    9000007    1    1    2  501    0 -0.14725028883E+03  0.10222835996E+03 -0.23204091926E+03  0.49595995136E+03  0.40000000000E+03 0. -1.
   -9000007    1    1    2    0  502  0.14725028883E+03 -0.10222835996E+03 -0.59381860359E+02  0.44233413895E+03  0.40000000000E+03 0.  1.
<mgrwt>
<rscale>  2 0.43833011E+03</rscale>
<asrwt>0</asrwt>
<pdfrwt beam="1">  1       21 0.49759332E-01 0.43833011E+03</pdfrwt>
<pdfrwt beam="2">  1       21 0.94593604E-01 0.43833011E+03</pdfrwt>
<totfact> 0.31487921E+03</totfact>
</mgrwt>
</event>
<event>
 4    1  0.4862039E-002  0.5016864E+03  0.7818608E-02  0.1013340E+00
         21   -1    0    0  501  502  0.00000000000E+00  0.00000000000E+00  0.62880480001E+03  0.62880480001E+03  0.00000000000E+00 0.  1.
         21   -1    0    0  502  503 -0.00000000000E+00 -0.00000000000E+00 -0.47728511691E+03  0.47728511691E+03  0.00000000000E+00 0. -1.
    9000007    1    1    2  501    0  0.23607127641E+03  0.18963004579E+03  0.29792229891E+03  0.58347827552E+03  0.40000000000E+03 0.  1.
   -9000007    1    1    2    0  503 -0.23607127641E+03 -0.18963004579E+03 -0.14640261581E+03  0.52261164140E+03  0.40000000000E+03 0. -1.
<mgrwt>
<rscale>  2 0.50168636E+03</rscale>
<asrwt>0</asrwt>
<pdfrwt beam="1">  1       21 0.96739200E-01 0.50168636E+03</pdfrwt>
<pdfrwt beam="2">  1       21 0.73428479E-01 0.50168636E+03</pdfrwt>
<totfact> 0.12399174E+03</totfact>
</mgrwt>
</event>
<event>
 4    1  0.4862039E-002  0.4322804E+03  0.7818608E-02  0.1033142E+00
         21   -1    0    0  503  502  0.00000000000E+00  0.00000000000E+00  0.20395130767E+03  0.20395130767E+03  0.00000000000E+00 0.  1.
         21   -1    0    0  501  503 -0.00000000000E+00 -0.00000000000E+00 -0.11651006011E+04  0.11651006011E+04  0.00000000000E+00 0.  1.
    9000007    1    1    2  501    0  0.12640158749E+03  0.10435020195E+03 -0.79694437525E+03  0.90663480146E+03  0.40000000000E+03 0.  1.
   -9000007    1    1    2    0  502 -0.12640158749E+03 -0.10435020195E+03 -0.16420491815E+03  0.46241710728E+03  0.40000000000E+03 0.  1.
<mgrwt>
<rscale>  2 0.43228038E+03</rscale>
<asrwt>0</asrwt>
<pdfrwt beam="1">  1       21 0.31377124E-01 0.43228038E+03</pdfrwt>
<pdfrwt beam="2">  1       21 0.17924625E+00 0.43228038E+03</pdfrwt>
<totfact> 0.15321536E+03</totfact>
</mgrwt>
</event>
<event>
 4    1  0.4862039E-002  0.4902649E+03  0.7818608E-02  0.1016352E+00
         21   -1    0    0  503  502  0.00000000000E+00  0.00000000000E+00  0.31795695959E+03  0.31795695959E+03  0.00000000000E+00 0.  1.
         21   -1    0    0  501  503 -0.00000000000E+00 -0.00000000000E+00 -0.17255141831E+04  0.17255141831E+04  0.00000000000E+00 0. -1.
    9000007    1    1    2  501    0 -0.23470005216E+03  0.15898284047E+03 -0.14696704863E+04  0.15492872543E+04  0.40000000000E+03 0. -1.
   -9000007    1    1    2    0  502  0.23470005216E+03 -0.15898284047E+03  0.62113262854E+02  0.49418388832E+03  0.40000000000E+03 0.  1.
<mgrwt>
<rscale>  2 0.49026489E+03</rscale>
<asrwt>0</asrwt>
<pdfrwt beam="1">  1       21 0.48916455E-01 0.49026489E+03</pdfrwt>
<pdfrwt beam="2">  1       21 0.26546372E+00 0.49026489E+03</pdfrwt>
<totfact> 0.16624712E+02</totfact>
</mgrwt>
</event>
<event>
 4    1  0.4862039E-002  0.4037253E+03  0.7818608E-02  0.1042497E+00
         21   -1    0    0  501  502  0.00000000000E+00  0.00000000000E+00  0.35642880148E+03  0.35642880148E+03  0.00000000000E+00 0. -1.
         21   -1    0    0  502  503 -0.00000000000E+00 -0.00000000000E+00 -0.87488369687E+03  0.87488369687E+03  0.00000000000E+00 0. -1.
    9000007    1    1    2  501    0  0.81881312252E+01 -0.54102509877E+02  0.16611234205E+03  0.43656321106E+03  0.40000000000E+03 0. -1.
   -9000007    1    1    2    0  503 -0.81881312252E+01  0.54102509877E+02 -0.68456723745E+03  0.79474928729E+03  0.40000000000E+03 0. -1.
<mgrwt>
<rscale>  2 0.40372531E+03</rscale>
<asrwt>0</asrwt>
<pdfrwt beam="1">  1       21 0.54835201E-01 0.40372531E+03</pdfrwt>
<pdfrwt beam="2">  1       21 0.13459749E+00 0.40372531E+03</pdfrwt>
<totfact> 0.10753307E+03</totfact>
</mgrwt>
</event>
<event>
 4    1  0.4862039E-002  0.4404806E+03  0.7818608E-02  0.1030599E+00
         21   -1    0    0  501  502  0.00000000000E+00  0.00000000000E+00  0.25327105446E+03  0.25327105446E+03  0.00000000000E+00 0.  1.
         21   -1    0    0  502  503 -0.00000000000E+00 -0.00000000000E+00 -0.10829637138E+04  0.10829637138E+04  0.00000000000E+00 0.  1.
    9000007    1    1    2  501    0  0.17166393794E+03  0.67488148802E+02 -0.77625882993E+03  0.89252502983E+03  0.40000000000E+03 0.  1.
   -9000007    1    1    2    0  503 -0.17166393794E+03 -0.67488148802E+02 -0.53433829364E+02  0.44370973838E+03  0.40000000000E+03 0.  1.
<mgrwt>
<rscale>  2 0.44048060E+03</rscale>
<asrwt>0</asrwt>
<pdfrwt beam="1">  1       21 0.38964777E-01 0.44048060E+03</pdfrwt>
<pdfrwt beam="2">  1       21 0.16660980E+00 0.44048060E+03</pdfrwt>
<totfact> 0.12148272E+03</totfact>
</mgrwt>
</event>
<event>
 4    1  0.4862039E-002  0.4213426E+03  0.7818608E-02  0.1036630E+00
         21   -1    0    0  503  502  0.00000000000E+00  0.00000000000E+00  0.45390877734E+03  0.45390877734E+03  0.00000000000E+00 0. -1.
         21   -1    0    0  501  503 -0.00000000000E+00 -0.00000000000E+00 -0.39223951106E+03  0.39223951106E+03  0.00000000000E+00 0. -1.
    9000007    1    1    2  501    0 -0.39007312766E+02 -0.12652277084E+03  0.53508533228E+02  0.42472667107E+03  0.40000000000E+03 0. -1.
   -9000007    1    1    2    0  502  0.39007312766E+02  0.12652277084E+03  0.81607330460E+01  0.42142161733E+03  0.40000000000E+03 0. -1.
<mgrwt>
<rscale>  2 0.42134259E+03</rscale>
<asrwt>0</asrwt>
<pdfrwt beam="1">  1       21 0.69832119E-01 0.42134259E+03</pdfrwt>
<pdfrwt beam="2">  1       21 0.60344540E-01 0.42134259E+03</pdfrwt>
<totfact> 0.42225669E+03</totfact>
</mgrwt>
</event>
<event>
 4    1  0.4862039E-002  0.5420955E+03  0.7818608E-02  0.1003340E+00
         21   -1    0    0  501  502  0.00000000000E+00  0.00000000000E+00  0.10805230334E+04  0.10805230334E+04  0.00000000000E+00 0.  1.
         21   -1    0    0  502  503 -0.00000000000E+00 -0.00000000000E+00 -0.27355613393E+03  0.27355613393E+03  0.00000000000E+00 0. -1.
    9000007    1    1    2  501    0  0.24796803232E+03 -0.26903414892E+03  0.45507230692E+03  0.70778409339E+03  0.40000000000E+03 0.  1.
   -9000007    1    1    2    0  503 -0.24796803232E+03  0.26903414892E+03  0.35189459255E+03  0.64629507394E+03  0.40000000000E+03 0. -1.
<mgrwt>
<rscale>  2 0.54209549E+03</rscale>
<asrwt>0</asrwt>
<pdfrwt beam="1">  1       21 0.16623431E+00 0.54209549E+03</pdfrwt>
<pdfrwt beam="2">  1       21 0.42085560E-01 0.54209549E+03</pdfrwt>
<totfact> 0.10014923E+03</totfact>
</mgrwt>
</event>
<event>
 4    1  0.4862039E-002  0.4315254E+03  0.7818608E-02  0.1033379E+00
         21   -1    0    0  501  502  0.00000000000E+00  0.00000000000E+00  0.97748256855E+02  0.97748256855E+02  0.00000000000E+00 0.  1.
         21   -1    0    0  502  503 -0.00000000000E+00 -0.00000000000E+00 -0.20853401845E+04  0.20853401845E+04  0.00000000000E+00 0.  1.
    9000007    1    1    2  501    0  0.13217886916E+03 -0.93503785554E+02 -0.13147571671E+04  0.13837632094E+04  0.40000000000E+03 0. -1.
   -9000007    1    1    2    0  503 -0.13217886916E+03  0.93503785554E+02 -0.67283476050E+03  0.79932523187E+03  0.40000000000E+03 0. -1.
<mgrwt>
<rscale>  2 0.43152545E+03</rscale>
<asrwt>0</asrwt>
<pdfrwt beam="1">  1       21 0.15038194E-01 0.43152545E+03</pdfrwt>
<pdfrwt beam="2">  1       21 0.32082156E+00 0.43152545E+03</pdfrwt>
<totfact> 0.81618284E+02</totfact>
</mgrwt>
</event>
<event>
 4    1  0.4862039E-002  0.4445976E+03  0.7818608E-02  0.1029345E+00
         21   -1    0    0  501  502  0.00000000000E+00  0.00000000000E+00  0.29599388556E+03  0.29599388556E+03  0.00000000000E+00 0.  1.
         21   -1    0    0  502  503 -0.00000000000E+00 -0.00000000000E+00 -0.66780823029E+03  0.66780823029E+03  0.00000000000E+00 0. -1.
    9000007    1    1    2  501    0 -0.13444044525E+02  0.19361366703E+03 -0.18547565496E+03  0.48173458769E+03  0.40000000000E+03 0.  1.
   -9000007    1    1    2    0  503  0.13444044525E+02 -0.19361366703E+03 -0.18633868978E+03  0.48206752816E+03  0.40000000000E+03 0. -1.
<mgrwt>
<rscale>  2 0.44459756E+03</rscale>
<asrwt>0</asrwt>
<pdfrwt beam="1">  1       21 0.45537522E-01 0.44459756E+03</pdfrwt>
<pdfrwt beam="2">  1       21 0.10273973E+00 0.44459756E+03</pdfrwt>
<totfact> 0.31019340E+03</totfact>
</mgrwt>
</event>
<event>
 4    1  0.4862039E-002  0.6104256E+03  0.7818608E-02  0.9884009E-01
         21   -1    0    0  503  502  0.00000000000E+00  0.00000000000E+00  0.70059044287E+03  0.70059044287E+03  0.00000000000E+00 0. -1.
         21   -1    0    0  501  503 -0.00000000000E+00 -0.00000000000E+00 -0.68592592614E+03  0.68592592614E+03  0.00000000000E+00 0.  1.
    9000007    1    1    2  501    0  0.36367449534E+02 -0.45967035037E+03  0.33588332150E+03  0.69673311107E+03  0.40000000000E+03 0. -1.
   -9000007    1    1    2    0  502 -0.36367449534E+02  0.45967035037E+03 -0.32121880477E+03  0.68978325794E+03  0.40000000000E+03 0.  1.
<mgrwt>
<rscale>  2 0.61042561E+03</rscale>
<asrwt>0</asrwt>
<pdfrwt beam="1">  1       21 0.10778314E+00 0.61042561E+03</pdfrwt>
<pdfrwt beam="2">  1       21 0.10552707E+00 0.61042561E+03</pdfrwt>
<totfact> 0.38724047E+02</totfact>
</mgrwt>
</event>
<event>
 4    1  0.4862039E-002  0.4354994E+03  0.7818608E-02  0.1032137E+00
         21   -1    0    0  501  502  0.00000000000E+00  0.00000000000E+00  0.33874797092E+03  0.33874797092E+03  0.00000000000E+00 0. -1.
         21   -1    0    0  502  503 -0.00000000000E+00 -0.00000000000E+00 -0.58598049716E+03  0.58598049716E+03  0.00000000000E+00 0. -1.
    9000007    1    1    2  501    0  0.11912444167E+03 -0.12437481636E+03 -0.26043216865E+02  0.43627740796E+03  0.40000000000E+03 0.  1.
   -9000007    1    1    2    0  503 -0.11912444167E+03  0.12437481636E+03 -0.22118930937E+03  0.48845106012E+03  0.40000000000E+03 0.  1.
<mgrwt>
<rscale>  2 0.43549940E+03</rscale>
<asrwt>0</asrwt>
<pdfrwt beam="1">  1       21 0.52115073E-01 0.43549940E+03</pdfrwt>
<pdfrwt beam="2">  1       21 0.90150844E-01 0.43549940E+03</pdfrwt>
<totfact> 0.32025121E+03</totfact>
</mgrwt>
</event>
<event>
 4    1  0.4862039E-002  0.4282432E+03  0.7818608E-02  0.1034416E+00
         21   -1    0    0  501  502  0.00000000000E+00  0.00000000000E+00  0.80273053172E+03  0.80273053172E+03  0.00000000000E+00 0. -1.
         21   -1    0    0  502  503 -0.00000000000E+00 -0.00000000000E+00 -0.53012527910E+03  0.53012527910E+03  0.00000000000E+00 0. -1.
    9000007    1    1    2  501    0  0.77978397438E+02  0.13157345421E+03  0.63902270732E+03  0.76924783054E+03  0.40000000000E+03 0. -1.
   -9000007    1    1    2    0  503 -0.77978397438E+02 -0.13157345421E+03 -0.36641745470E+03  0.56360798027E+03  0.40000000000E+03 0. -1.
<mgrwt>
<rscale>  2 0.42824316E+03</rscale>
<asrwt>0</asrwt>
<pdfrwt beam="1">  1       21 0.12349700E+00 0.42824316E+03</pdfrwt>
<pdfrwt beam="2">  1       21 0.81557736E-01 0.42824316E+03</pdfrwt>
<totfact> 0.54757878E+02</totfact>
</mgrwt>
</event>
<event>
 4    1  0.4862039E-002  0.4397865E+03  0.7818608E-02  0.1030812E+00
         21   -1    0    0  501  502  0.00000000000E+00  0.00000000000E+00  0.10469390956E+03  0.10469390956E+03  0.00000000000E+00 0. -1.
         21   -1    0    0  502  503 -0.00000000000E+00 -0.00000000000E+00 -0.19099119856E+04  0.19099119856E+04  0.00000000000E+00 0.  1.
    9000007    1    1    2  501    0  0.18076280954E+03  0.27147834697E+02 -0.72038198484E+03  0.84401564104E+03  0.40000000000E+03 0. -1.
   -9000007    1    1    2    0  503 -0.18076280954E+03 -0.27147834697E+02 -0.10848360912E+04  0.11705902541E+04  0.40000000000E+03 0.  1.
<mgrwt>
<rscale>  2 0.43978654E+03</rscale>
<asrwt>0</asrwt>
<pdfrwt beam="1">  1       21 0.16106754E-01 0.43978654E+03</pdfrwt>
<pdfrwt beam="2">  1       21 0.29383263E+00 0.43978654E+03</pdfrwt>
<totfact> 0.10388490E+03</totfact>
</mgrwt>
</event>
<event>
 4    1  0.4862039E-002  0.4218374E+03  0.7818608E-02  0.1036470E+00
         21   -1    0    0  501  502  0.00000000000E+00  0.00000000000E+00  0.84801449114E+02  0.84801449114E+02  0.00000000000E+00 0.  1.
         21   -1    0    0  502  503 -0.00000000000E+00 -0.00000000000E+00 -0.21189894898E+04  0.21189894898E+04  0.00000000000E+00 0. -1.
    9000007    1    1    2  501    0 -0.18060610491E+02 -0.13274254869E+03 -0.90845839487E+03  0.10016203997E+04  0.40000000000E+03 0.  1.
   -9000007    1    1    2    0  503  0.18060610491E+02  0.13274254869E+03 -0.11257296458E+04  0.12021705392E+04  0.40000000000E+03 0. -1.
<mgrwt>
<rscale>  2 0.42183737E+03</rscale>
<asrwt>0</asrwt>
<pdfrwt beam="1">  1       21 0.13046378E-01 0.42183737E+03</pdfrwt>
<pdfrwt beam="2">  1       21 0.32599836E+00 0.42183737E+03</pdfrwt>
<totfact> 0.99254818E+02</totfact>
</mgrwt>
</event>
<event>
 4    1  0.4862039E-002  0.4347518E+03  0.7818608E-02  0.1032369E+00
         21   -1    0    0  501  502  0.00000000000E+00  0.00000000000E+00  0.28801202651E+03  0.28801202651E+03  0.00000000000E+00 0. -1.
         21   -1    0    0  502  503 -0.00000000000E+00 -0.00000000000E+00 -0.67925948726E+03  0.67925948726E+03  0.00000000000E+00 0. -1.
    9000007    1    1    2  501    0  0.14183960357E+03  0.94290162224E+02 -0.10661877506E+03  0.44763452841E+03  0.40000000000E+03 0.  1.
   -9000007    1    1    2    0  503 -0.14183960357E+03 -0.94290162224E+02 -0.28462868569E+03  0.51963698536E+03  0.40000000000E+03 0.  1.
<mgrwt>
<rscale>  2 0.43475178E+03</rscale>
<asrwt>0</asrwt>
<pdfrwt beam="1">  1       21 0.44309543E-01 0.43475178E+03</pdfrwt>
<pdfrwt beam="2">  1       21 0.10450146E+00 0.43475178E+03</pdfrwt>
<totfact> 0.31617556E+03</totfact>
</mgrwt>
</event>
<event>
 4    1  0.4862039E-002  0.5175976E+03  0.7818608E-02  0.1009285E+00
         21   -1    0    0  503  502  0.00000000000E+00  0.00000000000E+00  0.41041393682E+03  0.41041393682E+03  0.00000000000E+00 0. -1.
         21   -1    0    0  501  503 -0.00000000000E+00 -0.00000000000E+00 -0.74401713825E+03  0.74401713825E+03  0.00000000000E+00 0.  1.
    9000007    1    1    2  501    0 -0.64833989020E+01 -0.32842847668E+03 -0.36893965959E+03  0.63562864251E+03  0.40000000000E+03 0.  1.
   -9000007    1    1    2    0  502  0.64833989020E+01  0.32842847668E+03  0.35336458153E+02  0.51880243256E+03  0.40000000000E+03 0. -1.
<mgrwt>
<rscale>  2 0.51759762E+03</rscale>
<asrwt>0</asrwt>
<pdfrwt beam="1">  1       21 0.63140606E-01 0.51759762E+03</pdfrwt>
<pdfrwt beam="2">  1       21 0.11446417E+00 0.51759762E+03</pdfrwt>
<totfact> 0.11430381E+03</totfact>
</mgrwt>
</event>
<event>
 4    1  0.4862039E-002  0.4802906E+03  0.7818608E-02  0.1019055E+00
         21   -1    0    0  501  502  0.00000000000E+00  0.00000000000E+00  0.10978177294E+03  0.10978177294E+03  0.00000000000E+00 0.  1.
         21   -1    0    0  502  503 -0.00000000000E+00 -0.00000000000E+00 -0.23243805802E+04  0.23243805802E+04  0.00000000000E+00 0.  1.
    9000007    1    1    2  501    0  0.23521995341E+03 -0.12389761773E+03 -0.14843890644E+04  0.15601570244E+04  0.40000000000E+03 0.  1.
   -9000007    1    1    2    0  503 -0.23521995341E+03  0.12389761773E+03 -0.73020974285E+03  0.87400532877E+03  0.40000000000E+03 0.  1.
<mgrwt>
<rscale>  2 0.48029059E+03</rscale>
<asrwt>0</asrwt>
<pdfrwt beam="1">  1       21 0.16889504E-01 0.48029059E+03</pdfrwt>
<pdfrwt beam="2">  1       21 0.35759700E+00 0.48029059E+03</pdfrwt>
<totfact> 0.38105559E+02</totfact>
</mgrwt>
</event>
<event>
 4    1  0.4862039E-002  0.4816235E+03  0.7818608E-02  0.1018690E+00
         21   -1    0    0  503  502  0.00000000000E+00  0.00000000000E+00  0.20698919881E+03  0.20698919881E+03  0.00000000000E+00 0.  1.
         21   -1    0    0  501  503 -0.00000000000E+00 -0.00000000000E+00 -0.12092735695E+04  0.12092735695E+04  0.00000000000E+00 0. -1.
    9000007    1    1    2  501    0 -0.91932482282E+02 -0.25201113982E+03 -0.30943385949E+03  0.57246005039E+03  0.40000000000E+03 0.  1.
   -9000007    1    1    2    0  502  0.91932482282E+02  0.25201113982E+03 -0.69285051117E+03  0.84380271789E+03  0.40000000000E+03 0. -1.
<mgrwt>
<rscale>  2 0.48162350E+03</rscale>
<asrwt>0</asrwt>
<pdfrwt beam="1">  1       21 0.31844493E-01 0.48162350E+03</pdfrwt>
<pdfrwt beam="2">  1       21 0.18604208E+00 0.48162350E+03</pdfrwt>
<totfact> 0.13055230E+03</totfact>
</mgrwt>
</event>
<event>
 4    1  0.4862039E-002  0.4895300E+03  0.7818608E-02  0.1016548E+00
         21   -1    0    0  503  502  0.00000000000E+00  0.00000000000E+00  0.65380592229E+03  0.65380592229E+03  0.00000000000E+00 0.  1.
         21   -1    0    0  501  503 -0.00000000000E+00 -0.00000000000E+00 -0.38851389680E+03  0.38851389680E+03  0.00000000000E+00 0.  1.
    9000007    1    1    2  501    0 -0.45349390908E+02 -0.27853743465E+03  0.25661620185E+03  0.55271289546E+03  0.40000000000E+03 0.  1.
   -9000007    1    1    2    0  502  0.45349390908E+02  0.27853743465E+03  0.86758236389E+01  0.48960692364E+03  0.40000000000E+03 0.  1.
<mgrwt>
<rscale>  2 0.48953005E+03</rscale>
<asrwt>0</asrwt>
<pdfrwt beam="1">  1       21 0.10058553E+00 0.48953005E+03</pdfrwt>
<pdfrwt beam="2">  1       21 0.59771369E-01 0.48953005E+03</pdfrwt>
<totfact> 0.17944938E+03</totfact>
</mgrwt>
</event>
<event>
 4    1  0.4862039E-002  0.4077139E+03  0.7818608E-02  0.1041141E+00
         21   -1    0    0  501  502  0.00000000000E+00  0.00000000000E+00  0.15704132381E+03  0.15704132381E+03  0.00000000000E+00 0. -1.
         21   -1    0    0  502  503 -0.00000000000E+00 -0.00000000000E+00 -0.12165943687E+04  0.12165943687E+04  0.00000000000E+00 0. -1.
    9000007    1    1    2  501    0  0.61458521320E+02  0.49532926060E+02 -0.28220213723E+03  0.49585149679E+03  0.40000000000E+03 0. -1.
   -9000007    1    1    2    0  503 -0.61458521320E+02 -0.49532926060E+02 -0.77735090764E+03  0.87778419570E+03  0.40000000000E+03 0. -1.
<mgrwt>
<rscale>  2 0.40771394E+03</rscale>
<asrwt>0</asrwt>
<pdfrwt beam="1">  1       21 0.24160203E-01 0.40771394E+03</pdfrwt>
<pdfrwt beam="2">  1       21 0.18716837E+00 0.40771394E+03</pdfrwt>
<totfact> 0.22800038E+03</totfact>
</mgrwt>
</event>
<event>
 4    1  0.4862039E-002  0.4936503E+03  0.7818608E-02  0.1015450E+00
         21   -1    0    0  501  502  0.00000000000E+00  0.00000000000E+00  0.20075033857E+03  0.20075033857E+03  0.00000000000E+00 0.  1.
         21   -1    0    0  502  503 -0.00000000000E+00 -0.00000000000E+00 -0.12139135962E+04  0.12139135962E+04  0.00000000000E+00 0.  1.
    9000007    1    1    2  501    0  0.28577639928E+03  0.44972253320E+02 -0.50902651139E+03  0.70908295936E+03  0.40000000000E+03 0.  1.
   -9000007    1    1    2    0  503 -0.28577639928E+03 -0.44972253320E+02 -0.50413674626E+03  0.70558097543E+03  0.40000000000E+03 0.  1.
<mgrwt>
<rscale>  2 0.49365034E+03</rscale>
<asrwt>0</asrwt>
<pdfrwt beam="1">  1       21 0.30884668E-01 0.49365034E+03</pdfrwt>
<pdfrwt beam="2">  1       21 0.18675594E+00 0.49365034E+03</pdfrwt>
<totfact> 0.13655341E+03</totfact>
</mgrwt>
</event>
<event>
 4    1  0.4862039E-002  0.4307596E+03  0.7818608E-02  0.1033620E+00
         21   -1    0    0  501  502  0.00000000000E+00  0.00000000000E+00  0.22283688724E+03  0.22283688724E+03  0.00000000000E+00 0. -1.
         21   -1    0    0  502  503 -0.00000000000E+00 -0.00000000000E+00 -0.11012516537E+04  0.11012516537E+04  0.00000000000E+00 0. -1.
    9000007    1    1    2  501    0  0.74348980352E+02  0.14151331794E+03 -0.11226842040E+03  0.44514939993E+03  0.40000000000E+03 0. -1.
   -9000007    1    1    2    0  503 -0.74348980352E+02 -0.14151331794E+03 -0.76614634606E+03  0.87893914102E+03  0.40000000000E+03 0. -1.
<mgrwt>
<rscale>  2 0.43075955E+03</rscale>
<asrwt>0</asrwt>
<pdfrwt beam="1">  1       21 0.34282598E-01 0.43075955E+03</pdfrwt>
<pdfrwt beam="2">  1       21 0.16942333E+00 0.43075955E+03</pdfrwt>
<totfact> 0.15094833E+03</totfact>
</mgrwt>
</event>
<event>
 4    1  0.4862039E-002  0.5533637E+03  0.7818608E-02  0.1000718E+00
         21   -1    0    0  503  502  0.00000000000E+00  0.00000000000E+00  0.27453231956E+03  0.27453231956E+03  0.00000000000E+00 0.  1.
         21   -1    0    0  501  503 -0.00000000000E+00 -0.00000000000E+00 -0.12021935711E+04  0.12021935711E+04  0.00000000000E+00 0. -1.
    9000007    1    1    2  501    0  0.38232234744E+03 -0.64038810986E+01 -0.66223185242E+03  0.86299618389E+03  0.40000000000E+03 0.  1.
   -9000007    1    1    2    0  502 -0.38232234744E+03  0.64038810986E+01 -0.26542939911E+03  0.61372970675E+03  0.40000000000E+03 0.  1.
<mgrwt>
<rscale>  2 0.55336370E+03</rscale>
<asrwt>0</asrwt>
<pdfrwt beam="1">  1       21 0.42235741E-01 0.55336370E+03</pdfrwt>
<pdfrwt beam="2">  1       21 0.18495286E+00 0.55336370E+03</pdfrwt>
<totfact> 0.72577383E+02</totfact>
</mgrwt>
</event>
<event>
 4    1  0.4862039E-002  0.6912384E+03  0.7818608E-02  0.9732334E-01
         21   -1    0    0  501  502  0.00000000000E+00  0.00000000000E+00  0.68638900749E+03  0.68638900749E+03  0.00000000000E+00 0. -1.
         21   -1    0    0  502  503 -0.00000000000E+00 -0.00000000000E+00 -0.92686438211E+03  0.92686438211E+03  0.00000000000E+00 0.  1.
    9000007    1    1    2  501    0  0.20197761581E+03  0.52632272357E+03  0.28222727069E+03  0.74663431408E+03  0.40000000000E+03 0. -1.
   -9000007    1    1    2    0  503 -0.20197761581E+03 -0.52632272357E+03 -0.52270264531E+03  0.86661907552E+03  0.40000000000E+03 0.  1.
<mgrwt>
<rscale>  2 0.69123843E+03</rscale>
<asrwt>0</asrwt>
<pdfrwt beam="1">  1       21 0.10559831E+00 0.69123843E+03</pdfrwt>
<pdfrwt beam="2">  1       21 0.14259452E+00 0.69123843E+03</pdfrwt>
<totfact> 0.18228213E+02</totfact>
</mgrwt>
</event>
<event>
 4    1  0.4862039E-002  0.5202206E+03  0.7818608E-02  0.1008632E+00
         21   -1    0    0  503  502  0.00000000000E+00  0.00000000000E+00  0.89289507821E+03  0.89289507821E+03  0.00000000000E+00 0.  1.
         21   -1    0    0  501  503 -0.00000000000E+00 -0.00000000000E+00 -0.30712282722E+03  0.30712282722E+03  0.00000000000E+00 0.  1.
    9000007    1    1    2  501    0 -0.33259856538E+03  0.27693335661E+01  0.36162327874E+03  0.63356204955E+03  0.40000000000E+03 0.  1.
   -9000007    1    1    2    0  502  0.33259856538E+03 -0.27693335661E+01  0.22414897225E+03  0.56645585589E+03  0.40000000000E+03 0.  1.
<mgrwt>
<rscale>  2 0.52022060E+03</rscale>
<asrwt>0</asrwt>
<pdfrwt beam="1">  1       21 0.13736847E+00 0.52022060E+03</pdfrwt>
<pdfrwt beam="2">  1       21 0.47249666E-01 0.52022060E+03</pdfrwt>
<totfact> 0.13359586E+03</totfact>
</mgrwt>
</event>
<event>
 4    1  0.4862039E-002  0.6064691E+03  0.7818608E-02  0.9892075E-01
         21   -1    0    0  503  502  0.00000000000E+00  0.00000000000E+00  0.23207290650E+04  0.23207290650E+04  0.00000000000E+00 0. -1.
         21   -1    0    0  501  503 -0.00000000000E+00 -0.00000000000E+00 -0.23237225826E+03  0.23237225826E+03  0.00000000000E+00 0.  1.
    9000007    1    1    2  501    0 -0.34905993497E+03 -0.29319255864E+03  0.32435549251E+03  0.68775809713E+03  0.40000000000E+03 0.  1.
   -9000007    1    1    2    0  502  0.34905993497E+03  0.29319255864E+03  0.17640013143E+04  0.18653432262E+04  0.40000000000E+03 0. -1.
<mgrwt>
<rscale>  2 0.60646905E+03</rscale>
<asrwt>0</asrwt>
<pdfrwt beam="1">  1       21 0.35703522E+00 0.60646905E+03</pdfrwt>
<pdfrwt beam="2">  1       21 0.35749580E-01 0.60646905E+03</pdfrwt>
<totfact> 0.83018061E+01</totfact>
</mgrwt>
</event>
<event>
 4    1  0.4862039E-002  0.5446594E+03  0.7818608E-02  0.1002738E+00
         21   -1    0    0  501  502  0.00000000000E+00  0.00000000000E+00  0.10428107006E+04  0.10428107006E+04  0.00000000000E+00 0.  1.
         21   -1    0    0  502  503 -0.00000000000E+00 -0.00000000000E+00 -0.43877242427E+03  0.43877242427E+03  0.00000000000E+00 0.  1.
    9000007    1    1    2  501    0 -0.33812098758E+03  0.14942567916E+03 -0.13727494039E+03  0.56169230464E+03  0.40000000000E+03 0.  1.
   -9000007    1    1    2    0  503  0.33812098758E+03 -0.14942567916E+03  0.74131321669E+03  0.91989082020E+03  0.40000000000E+03 0.  1.
<mgrwt>
<rscale>  2 0.54465938E+03</rscale>
<asrwt>0</asrwt>
<pdfrwt beam="1">  1       21 0.16043241E+00 0.54465938E+03</pdfrwt>
<pdfrwt beam="2">  1       21 0.67503450E-01 0.54465938E+03</pdfrwt>
<totfact> 0.39864468E+02</totfact>
</mgrwt>
</event>
<event>
 4    1  0.4862039E-002  0.5352652E+03  0.7818608E-02  0.1004963E+00
         21   -1    0    0  501  502  0.00000000000E+00  0.00000000000E+00  0.51160922439E+03  0.51160922439E+03  0.00000000000E+00 0.  1.
         21   -1    0    0  502  503 -0.00000000000E+00 -0.00000000000E+00 -0.96027166865E+03  0.96027166865E+03  0.00000000000E+00 0.  1.
    9000007    1    1    2  501    0 -0.15104058097E+03  0.32201805957E+03  0.25080140182E+03  0.59110932233E+03  0.40000000000E+03 0.  1.
   -9000007    1    1    2    0  503  0.15104058097E+03 -0.32201805957E+03 -0.69946384609E+03  0.88077157071E+03  0.40000000000E+03 0.  1.
<mgrwt>
<rscale>  2 0.53526525E+03</rscale>
<asrwt>0</asrwt>
<pdfrwt beam="1">  1       21 0.78709112E-01 0.53526525E+03</pdfrwt>
<pdfrwt beam="2">  1       21 0.14773410E+00 0.53526525E+03</pdfrwt>
<totfact> 0.35403629E+02</totfact>
</mgrwt>
</event>
<event>
 4    1  0.4862039E-002  0.5543504E+03  0.7818608E-02  0.1000492E+00
         21   -1    0    0  503  502  0.00000000000E+00  0.00000000000E+00  0.10229577048E+04  0.10229577048E+04  0.00000000000E+00 0.  1.
         21   -1    0    0  501  503 -0.00000000000E+00 -0.00000000000E+00 -0.12295065596E+04  0.12295065596E+04  0.00000000000E+00 0. -1.
    9000007    1    1    2  501    0 -0.38000878515E+03 -0.53830192410E+02 -0.10822986871E+04  0.12160077362E+04  0.40000000000E+03 0. -1.
   -9000007    1    1    2    0  502  0.38000878515E+03  0.53830192410E+02  0.87574983216E+03  0.10364565282E+04  0.40000000000E+03 0.  1.
<mgrwt>
<rscale>  2 0.55435040E+03</rscale>
<asrwt>0</asrwt>
<pdfrwt beam="1">  1       21 0.15737811E+00 0.55435040E+03</pdfrwt>
<pdfrwt beam="2">  1       21 0.18915485E+00 0.55435040E+03</pdfrwt>
<totfact> 0.30277188E+01</totfact>
</mgrwt>
</event>
<event>
 4    1  0.4862039E-002  0.4453216E+03  0.7818608E-02  0.1029126E+00
         21   -1    0    0  503  502  0.00000000000E+00  0.00000000000E+00  0.15247572915E+03  0.15247572915E+03  0.00000000000E+00 0.  1.
         21   -1    0    0  501  503 -0.00000000000E+00 -0.00000000000E+00 -0.19645312427E+04  0.19645312427E+04  0.00000000000E+00 0.  1.
    9000007    1    1    2  501    0  0.46815117057E+02  0.19005174944E+03 -0.29067890385E+03  0.53179464814E+03  0.40000000000E+03 0.  1.
   -9000007    1    1    2    0  502 -0.46815117057E+02 -0.19005174944E+03 -0.15213766097E+04  0.15852123237E+04  0.40000000000E+03 0.  1.
<mgrwt>
<rscale>  2 0.44532159E+03</rscale>
<asrwt>0</asrwt>
<pdfrwt beam="1">  1       21 0.23457805E-01 0.44532159E+03</pdfrwt>
<pdfrwt beam="2">  1       21 0.30223557E+00 0.44532159E+03</pdfrwt>
<totfact> 0.45169848E+02</totfact>
</mgrwt>
</event>
<event>
 4    1  0.4862039E-002  0.4066619E+03  0.7818608E-02  0.1041497E+00
         21   -1    0    0  503  502  0.00000000000E+00  0.00000000000E+00  0.40851492463E+03  0.40851492463E+03  0.00000000000E+00 0. -1.
         21   -1    0    0  501  503 -0.00000000000E+00 -0.00000000000E+00 -0.49690084679E+03  0.49690084679E+03  0.00000000000E+00 0. -1.
    9000007    1    1    2  501    0  0.64053571925E+02  0.35651695791E+02 -0.23907608881E+03  0.47173221189E+03  0.40000000000E+03 0. -1.
   -9000007    1    1    2    0  502 -0.64053571925E+02 -0.35651695791E+02  0.15069016665E+03  0.43368355954E+03  0.40000000000E+03 0. -1.
<mgrwt>
<rscale>  2 0.40666190E+03</rscale>
<asrwt>0</asrwt>
<pdfrwt beam="1">  1       21 0.62848450E-01 0.40666190E+03</pdfrwt>
<pdfrwt beam="2">  1       21 0.76446284E-01 0.40666190E+03</pdfrwt>
<totfact> 0.31631583E+03</totfact>
</mgrwt>
</event>
<event>
 4    1  0.4862039E-002  0.7326065E+03  0.7818608E-02  0.9663040E-01
         21   -1    0    0  503  502  0.00000000000E+00  0.00000000000E+00  0.42246695571E+03  0.42246695571E+03  0.00000000000E+00 0.  1.
         21   -1    0    0  501  503 -0.00000000000E+00 -0.00000000000E+00 -0.14202272562E+04  0.14202272562E+04  0.00000000000E+00 0.  1.
    9000007    1    1    2  501    0  0.33654377684E+03  0.51327429519E+03 -0.79810991335E+03  0.10833705043E+04  0.40000000000E+03 0.  1.
   -9000007    1    1    2    0  502 -0.33654377684E+03 -0.51327429519E+03 -0.19965038714E+03  0.75932370760E+03  0.40000000000E+03 0.  1.
<mgrwt>
<rscale>  2 0.73260645E+03</rscale>
<asrwt>0</asrwt>
<pdfrwt beam="1">  1       21 0.64994916E-01 0.73260645E+03</pdfrwt>
<pdfrwt beam="2">  1       21 0.21849650E+00 0.73260645E+03</pdfrwt>
<totfact> 0.15949313E+02</totfact>
</mgrwt>
</event>
<event>
 4    1  0.4862039E-002  0.4044550E+03  0.7818608E-02  0.1042248E+00
         21   -1    0    0  501  502  0.00000000000E+00  0.00000000000E+00  0.67869555453E+03  0.67869555453E+03  0.00000000000E+00 0. -1.
         21   -1    0    0  502  503 -0.00000000000E+00 -0.00000000000E+00 -0.29429869993E+03  0.29429869993E+03  0.00000000000E+00 0. -1.
    9000007    1    1    2  501    0 -0.39006687070E+02  0.45412605750E+02  0.39918165212E+03  0.56826914203E+03  0.40000000000E+03 0. -1.
   -9000007    1    1    2    0  503  0.39006687070E+02 -0.45412605750E+02 -0.14784797520E+02  0.40472511243E+03  0.40000000000E+03 0. -1.
<mgrwt>
<rscale>  2 0.40445497E+03</rscale>
<asrwt>0</asrwt>
<pdfrwt beam="1">  1       21 0.10441470E+00 0.40445497E+03</pdfrwt>
<pdfrwt beam="2">  1       21 0.45276723E-01 0.40445497E+03</pdfrwt>
<totfact> 0.30637935E+03</totfact>
</mgrwt>
</event>
<event>
 4    1  0.4862039E-002  0.4561466E+03  0.7818608E-02  0.1025905E+00
         21   -1    0    0  501  502  0.00000000000E+00  0.00000000000E+00  0.28665377912E+03  0.28665377912E+03  0.00000000000E+00 0. -1.
         21   -1    0    0  502  503 -0.00000000000E+00 -0.00000000000E+00 -0.88336351488E+03  0.88336351488E+03  0.00000000000E+00 0.  1.
    9000007    1    1    2  501    0 -0.14764474225E+03 -0.16208250108E+03 -0.51329500767E+02  0.45902551642E+03  0.40000000000E+03 0.  1.
   -9000007    1    1    2    0  503  0.14764474225E+03  0.16208250108E+03 -0.54538023499E+03  0.71099177758E+03  0.40000000000E+03 0.  1.
<mgrwt>
<rscale>  2 0.45614659E+03</rscale>
<asrwt>0</asrwt>
<pdfrwt beam="1">  1       21 0.44100583E-01 0.45614659E+03</pdfrwt>
<pdfrwt beam="2">  1       21 0.13590207E+00 0.45614659E+03</pdfrwt>
<totfact> 0.16271189E+03</totfact>
</mgrwt>
</event>
<event>
 4    1  0.4862039E-002  0.4028269E+03  0.7818608E-02  0.1042805E+00
         21   -1    0    0  501  502  0.00000000000E+00  0.00000000000E+00  0.69923728468E+03  0.69923728468E+03  0.00000000000E+00 0. -1.
         21   -1    0    0  502  503 -0.00000000000E+00 -0.00000000000E+00 -0.31159556839E+03  0.31159556839E+03  0.00000000000E+00 0. -1.
    9000007    1    1    2  501    0  0.27409105563E+02  0.38965221010E+02  0.44915957479E+03  0.60333562065E+03  0.40000000000E+03 0. -1.
   -9000007    1    1    2    0  503 -0.27409105563E+02 -0.38965221010E+02 -0.61517858509E+02  0.40749723242E+03  0.40000000000E+03 0. -1.
<mgrwt>
<rscale>  2 0.40282694E+03</rscale>
<asrwt>0</asrwt>
<pdfrwt beam="1">  1       21 0.10757497E+00 0.40282694E+03</pdfrwt>
<pdfrwt beam="2">  1       21 0.47937780E-01 0.40282694E+03</pdfrwt>
<totfact> 0.25271393E+03</totfact>
</mgrwt>
</event>
<event>
 4    1  0.4862039E-002  0.5403293E+03  0.7818608E-02  0.1003757E+00
         21   -1    0    0  501  502  0.00000000000E+00  0.00000000000E+00  0.12375435596E+04  0.12375435596E+04  0.00000000000E+00 0.  1.
         21   -1    0    0  502  503 -0.00000000000E+00 -0.00000000000E+00 -0.23675700745E+03  0.23675700745E+03  0.00000000000E+00 0. -1.
    9000007    1    1    2  501    0  0.14911535973E+03  0.33124058102E+03  0.54434060387E+03  0.76698266346E+03  0.40000000000E+03 0.  1.
   -9000007    1    1    2    0  503 -0.14911535973E+03 -0.33124058102E+03  0.45644594825E+03  0.70731790356E+03  0.40000000000E+03 0. -1.
<mgrwt>
<rscale>  2 0.54032926E+03</rscale>
<asrwt>0</asrwt>
<pdfrwt beam="1">  1       21 0.19039131E+00 0.54032926E+03</pdfrwt>
<pdfrwt beam="2">  1       21 0.36424156E-01 0.54032926E+03</pdfrwt>
<totfact> 0.90746115E+02</totfact>
</mgrwt>
</event>
<event>
 4    1  0.4862039E-002  0.4561142E+03  0.7818608E-02  0.1025914E+00
         21   -1    0    0  501  502  0.00000000000E+00  0.00000000000E+00  0.62680151886E+03  0.62680151886E+03  0.00000000000E+00 0.  1.
         21   -1    0    0  502  503 -0.00000000000E+00 -0.00000000000E+00 -0.40161181299E+03  0.40161181299E+03  0.00000000000E+00 0.  1.
    9000007    1    1    2  501    0  0.12347395779E+03 -0.18109206521E+03  0.32681688933E+03  0.56111445667E+03  0.40000000000E+03 0.  1.
   -9000007    1    1    2    0  503 -0.12347395779E+03  0.18109206521E+03 -0.10162718346E+03  0.46729887519E+03  0.40000000000E+03 0.  1.
<mgrwt>
<rscale>  2 0.45611419E+03</rscale>
<asrwt>0</asrwt>
<pdfrwt beam="1">  1       21 0.96431003E-01 0.45611419E+03</pdfrwt>
<pdfrwt beam="2">  1       21 0.61786432E-01 0.45611419E+03</pdfrwt>
<totfact> 0.18703689E+03</totfact>
</mgrwt>
</event>
<event>
 4    1  0.4862039E-002  0.5109963E+03  0.7818608E-02  0.1010948E+00
         21   -1    0    0  501  502  0.00000000000E+00  0.00000000000E+00  0.60944403586E+03  0.60944403586E+03  0.00000000000E+00 0.  1.
         21   -1    0    0  502  503 -0.00000000000E+00 -0.00000000000E+00 -0.64047026645E+03  0.64047026645E+03  0.00000000000E+00 0.  1.
    9000007    1    1    2  501    0 -0.31549148890E+03  0.39778778453E+02 -0.37508677854E+03  0.63388273539E+03  0.40000000000E+03 0.  1.
   -9000007    1    1    2    0  503  0.31549148890E+03 -0.39778778453E+02  0.34406054795E+03  0.61603156692E+03  0.40000000000E+03 0.  1.
<mgrwt>
<rscale>  2 0.51099631E+03</rscale>
<asrwt>0</asrwt>
<pdfrwt beam="1">  1       21 0.93760621E-01 0.51099631E+03</pdfrwt>
<pdfrwt beam="2">  1       21 0.98533887E-01 0.51099631E+03</pdfrwt>
<totfact> 0.66783936E+02</totfact>
</mgrwt>
</event>
<event>
 4    1  0.4862039E-002  0.4778303E+03  0.7818608E-02  0.1019733E+00
         21   -1    0    0  503  502  0.00000000000E+00  0.00000000000E+00  0.42312913246E+03  0.42312913246E+03  0.00000000000E+00 0.  1.
         21   -1    0    0  501  503 -0.00000000000E+00 -0.00000000000E+00 -0.54308095595E+03  0.54308095595E+03  0.00000000000E+00 0. -1.
    9000007    1    1    2  501    0  0.13703725595E+03  0.22258162539E+03 -0.98636226804E+02  0.48790459592E+03  0.40000000000E+03 0. -1.
   -9000007    1    1    2    0  502 -0.13703725595E+03 -0.22258162539E+03 -0.21315596689E+02  0.47830549249E+03  0.40000000000E+03 0.  1.
<mgrwt>
<rscale>  2 0.47783029E+03</rscale>
<asrwt>0</asrwt>
<pdfrwt beam="1">  1       21 0.65096790E-01 0.47783029E+03</pdfrwt>
<pdfrwt beam="2">  1       21 0.83550916E-01 0.47783029E+03</pdfrwt>
<totfact> 0.23220758E+03</totfact>
</mgrwt>
</event>
<event>
 4    1  0.4862039E-002  0.4056810E+03  0.7818608E-02  0.1041830E+00
         21   -1    0    0  501  502  0.00000000000E+00  0.00000000000E+00  0.14840590977E+04  0.14840590977E+04  0.00000000000E+00 0. -1.
         21   -1    0    0  502  503 -0.00000000000E+00 -0.00000000000E+00 -0.48645892326E+03  0.48645892326E+03  0.00000000000E+00 0. -1.
    9000007    1    1    2  501    0  0.66986568479E+02 -0.94788732512E+01  0.13645019651E+04  0.14235317566E+04  0.40000000000E+03 0. -1.
   -9000007    1    1    2    0  503 -0.66986568479E+02  0.94788732512E+01 -0.36690179064E+03  0.54698626433E+03  0.40000000000E+03 0. -1.
<mgrwt>
<rscale>  2 0.40568097E+03</rscale>
<asrwt>0</asrwt>
<pdfrwt beam="1">  1       21 0.22831678E+00 0.40568097E+03</pdfrwt>
<pdfrwt beam="2">  1       21 0.74839835E-01 0.40568097E+03</pdfrwt>
<totfact> 0.11647020E+02</totfact>
</mgrwt>
</event>
<event>
 4    1  0.4862039E-002  0.4531488E+03  0.7818608E-02  0.1026787E+00
         21   -1    0    0  503  502  0.00000000000E+00  0.00000000000E+00  0.17507153355E+04  0.17507153355E+04  0.00000000000E+00 0.  1.
         21   -1    0    0  501  503 -0.00000000000E+00 -0.00000000000E+00 -0.15188471365E+03  0.15188471365E+03  0.00000000000E+00 0.  1.
    9000007    1    1    2  501    0  0.97936615851E+02  0.18908274068E+03  0.34541461565E+03  0.56978515272E+03  0.40000000000E+03 0.  1.
   -9000007    1    1    2    0  502 -0.97936615851E+02 -0.18908274068E+03  0.12534160062E+04  0.13328148964E+04  0.40000000000E+03 0.  1.
<mgrwt>
<rscale>  2 0.45314883E+03</rscale>
<asrwt>0</asrwt>
<pdfrwt beam="1">  1       21 0.26934081E+00 0.45314883E+03</pdfrwt>
<pdfrwt beam="2">  1       21 0.23366880E-01 0.45314883E+03</pdfrwt>
<totfact> 0.71509446E+02</totfact>
</mgrwt>
</event>
<event>
 4    1  0.4862039E-002  0.4197284E+03  0.7818608E-02  0.1037155E+00
         21   -1    0    0  503  502  0.00000000000E+00  0.00000000000E+00  0.14641945531E+03  0.14641945531E+03  0.00000000000E+00 0. -1.
         21   -1    0    0  501  503 -0.00000000000E+00 -0.00000000000E+00 -0.17577242869E+04  0.17577242869E+04  0.00000000000E+00 0. -1.
    9000007    1    1    2  501    0  0.29767427425E+02  0.12363581708E+03 -0.13404070697E+04  0.14045864258E+04  0.40000000000E+03 0. -1.
   -9000007    1    1    2    0  502 -0.29767427425E+02 -0.12363581708E+03 -0.27089776189E+03  0.49955731643E+03  0.40000000000E+03 0. -1.
<mgrwt>
<rscale>  2 0.41972838E+03</rscale>
<asrwt>0</asrwt>
<pdfrwt beam="1">  1       21 0.22526072E-01 0.41972838E+03</pdfrwt>
<pdfrwt beam="2">  1       21 0.27041910E+00 0.41972838E+03</pdfrwt>
<totfact> 0.76981914E+02</totfact>
</mgrwt>
</event>
<event>
 4    1  0.4862039E-002  0.4149363E+03  0.7818608E-02  0.1038727E+00
         21   -1    0    0  503  502  0.00000000000E+00  0.00000000000E+00  0.66745361459E+03  0.66745361459E+03  0.00000000000E+00 0. -1.
         21   -1    0    0  501  503 -0.00000000000E+00 -0.00000000000E+00 -0.25949365185E+03  0.25949365185E+03  0.00000000000E+00 0. -1.
    9000007    1    1    2  501    0 -0.37649572879E+02  0.10370446193E+03  0.16827570451E+03  0.44775977766E+03  0.40000000000E+03 0.  1.
   -9000007    1    1    2    0  502  0.37649572879E+02 -0.10370446193E+03  0.23968425822E+03  0.47918748878E+03  0.40000000000E+03 0.  1.
<mgrwt>
<rscale>  2 0.41493627E+03</rscale>
<asrwt>0</asrwt>
<pdfrwt beam="1">  1       21 0.10268517E+00 0.41493627E+03</pdfrwt>
<pdfrwt beam="2">  1       21 0.39922101E-01 0.41493627E+03</pdfrwt>
<totfact> 0.41268890E+03</totfact>
</mgrwt>
</event>
<event>
 4    1  0.4862039E-002  0.4251707E+03  0.7818608E-02  0.1035396E+00
         21   -1    0    0  501  502  0.00000000000E+00  0.00000000000E+00  0.10265050709E+03  0.10265050709E+03  0.00000000000E+00 0. -1.
         21   -1    0    0  502  503 -0.00000000000E+00 -0.00000000000E+00 -0.17690596265E+04  0.17690596265E+04  0.00000000000E+00 0. -1.
    9000007    1    1    2  501    0 -0.13179424099E+03 -0.58312764167E+02 -0.89627451632E+03  0.99200711138E+03  0.40000000000E+03 0. -1.
   -9000007    1    1    2    0  503  0.13179424099E+03  0.58312764167E+02 -0.77013460313E+03  0.87970302225E+03  0.40000000000E+03 0. -1.
<mgrwt>
<rscale>  2 0.42517067E+03</rscale>
<asrwt>0</asrwt>
<pdfrwt beam="1">  1       21 0.15792386E-01 0.42517067E+03</pdfrwt>
<pdfrwt beam="2">  1       21 0.27216301E+00 0.42517067E+03</pdfrwt>
<totfact> 0.14662321E+03</totfact>
</mgrwt>
</event>
<event>
 4    1  0.4862039E-002  0.4131419E+03  0.7818608E-02  0.1039322E+00
         21   -1    0    0  503  502  0.00000000000E+00  0.00000000000E+00  0.33919481045E+03  0.33919481045E+03  0.00000000000E+00 0. -1.
         21   -1    0    0  501  503 -0.00000000000E+00 -0.00000000000E+00 -0.63898789778E+03  0.63898789778E+03  0.00000000000E+00 0. -1.
    9000007    1    1    2  501    0 -0.96107606626E+02  0.38073144791E+02 -0.37535064218E+03  0.55818844577E+03  0.40000000000E+03 0. -1.
   -9000007    1    1    2    0  502  0.96107606626E+02 -0.38073144791E+02  0.75557554857E+02  0.41999426246E+03  0.40000000000E+03 0. -1.
<mgrwt>
<rscale>  2 0.41314191E+03</rscale>
<asrwt>0</asrwt>
<pdfrwt beam="1">  1       21 0.52183818E-01 0.41314191E+03</pdfrwt>
<pdfrwt beam="2">  1       21 0.98305829E-01 0.41314191E+03</pdfrwt>
<totfact> 0.26188660E+03</totfact>
</mgrwt>
</event>
<event>
 4    1  0.4862039E-002  0.4304222E+03  0.7818608E-02  0.1033727E+00
         21   -1    0    0  503  502  0.00000000000E+00  0.00000000000E+00  0.40346070487E+03  0.40346070487E+03  0.00000000000E+00 0. -1.
         21   -1    0    0  501  503 -0.00000000000E+00 -0.00000000000E+00 -0.61874371437E+03  0.61874371437E+03  0.00000000000E+00 0. -1.
    9000007    1    1    2  501    0  0.14804238958E+03 -0.57850849283E+02 -0.36718614348E+03  0.56576402664E+03  0.40000000000E+03 0. -1.
   -9000007    1    1    2    0  502 -0.14804238958E+03  0.57850849283E+02  0.15190313398E+03  0.45644039259E+03  0.40000000000E+03 0. -1.
<mgrwt>
<rscale>  2 0.43042220E+03</rscale>
<asrwt>0</asrwt>
<pdfrwt beam="1">  1       21 0.62070878E-01 0.43042220E+03</pdfrwt>
<pdfrwt beam="2">  1       21 0.95191340E-01 0.43042220E+03</pdfrwt>
<totfact> 0.19289376E+03</totfact>
</mgrwt>
</event>
<event>
 4    1  0.4862039E-002  0.4356011E+03  0.7818608E-02  0.1032105E+00
         21   -1    0    0  503  502  0.00000000000E+00  0.00000000000E+00  0.62517824342E+03  0.62517824342E+03  0.00000000000E+00 0.  1.
         21   -1    0    0  501  503 -0.00000000000E+00 -0.00000000000E+00 -0.41676255922E+03  0.41676255922E+03  0.00000000000E+00 0.  1.
    9000007    1    1    2  501    0  0.16582721576E+03 -0.47430060608E+02 -0.16736816765E+03  0.46664802548E+03  0.40000000000E+03 0.  1.
   -9000007    1    1    2    0  502 -0.16582721576E+03  0.47430060608E+02  0.37578385186E+03  0.57529277716E+03  0.40000000000E+03 0.  1.
<mgrwt>
<rscale>  2 0.43560105E+03</rscale>
<asrwt>0</asrwt>
<pdfrwt beam="1">  1       21 0.96181268E-01 0.43560105E+03</pdfrwt>
<pdfrwt beam="2">  1       21 0.64117317E-01 0.43560105E+03</pdfrwt>
<totfact> 0.17479834E+03</totfact>
</mgrwt>
</event>
<event>
 4    1  0.4862039E-002  0.4564270E+03  0.7818608E-02  0.1025823E+00
         21   -1    0    0  501  502  0.00000000000E+00  0.00000000000E+00  0.78028820450E+03  0.78028820450E+03  0.00000000000E+00 0. -1.
         21   -1    0    0  502  503 -0.00000000000E+00 -0.00000000000E+00 -0.83242825541E+03  0.83242825541E+03  0.00000000000E+00 0. -1.
    9000007    1    1    2  501    0  0.21767883375E+03  0.30683779444E+02  0.63851258230E+03  0.78487189193E+03  0.40000000000E+03 0. -1.
   -9000007    1    1    2    0  503 -0.21767883375E+03 -0.30683779444E+02 -0.69065263320E+03  0.82784456798E+03  0.40000000000E+03 0. -1.
<mgrwt>
<rscale>  2 0.45642696E+03</rscale>
<asrwt>0</asrwt>
<pdfrwt beam="1">  1       21 0.12004434E+00 0.45642696E+03</pdfrwt>
<pdfrwt beam="2">  1       21 0.12806589E+00 0.45642696E+03</pdfrwt>
<totfact> 0.19285802E+02</totfact>
</mgrwt>
</event>
<event>
 4    1  0.4862039E-002  0.6818007E+03  0.7818608E-02  0.9748872E-01
         21   -1    0    0  501  502  0.00000000000E+00  0.00000000000E+00  0.10446942520E+04  0.10446942520E+04  0.00000000000E+00 0.  1.
         21   -1    0    0  502  503 -0.00000000000E+00 -0.00000000000E+00 -0.45169558551E+03  0.45169558551E+03  0.00000000000E+00 0. -1.
    9000007    1    1    2  501    0  0.48191466174E+03 -0.26946319299E+03  0.20516686801E+03  0.71200112170E+03  0.40000000000E+03 0. -1.
   -9000007    1    1    2    0  503 -0.48191466174E+03  0.26946319299E+03  0.38783179848E+03  0.78438871581E+03  0.40000000000E+03 0.  1.
<mgrwt>
<rscale>  2 0.68180067E+03</rscale>
<asrwt>0</asrwt>
<pdfrwt beam="1">  1       21 0.16072219E+00 0.68180067E+03</pdfrwt>
<pdfrwt beam="2">  1       21 0.69491629E-01 0.68180067E+03</pdfrwt>
<totfact> 0.35424280E+02</totfact>
</mgrwt>
</event>
<event>
 4    1  0.4862039E-002  0.4095784E+03  0.7818608E-02  0.1040513E+00
         21   -1    0    0  503  502  0.00000000000E+00  0.00000000000E+00  0.93476393118E+03  0.93476393118E+03  0.00000000000E+00 0. -1.
         21   -1    0    0  501  503 -0.00000000000E+00 -0.00000000000E+00 -0.32785171222E+03  0.32785171222E+03  0.00000000000E+00 0. -1.
    9000007    1    1    2  501    0  0.13232094435E+00 -0.88059485662E+02 -0.12126565537E+03  0.42715319231E+03  0.40000000000E+03 0. -1.
   -9000007    1    1    2    0  502 -0.13232094435E+00  0.88059485662E+02  0.72817787434E+03  0.83546245110E+03  0.40000000000E+03 0. -1.
<mgrwt>
<rscale>  2 0.40957843E+03</rscale>
<asrwt>0</asrwt>
<pdfrwt beam="1">  1       21 0.14380983E+00 0.40957843E+03</pdfrwt>
<pdfrwt beam="2">  1       21 0.50438725E-01 0.40957843E+03</pdfrwt>
<totfact> 0.10762719E+03</totfact>
</mgrwt>
</event>
<event>
 4    1  0.4862039E-002  0.4445704E+03  0.7818608E-02  0.1029354E+00
         21   -1    0    0  503  502  0.00000000000E+00  0.00000000000E+00  0.48237563462E+03  0.48237563462E+03  0.00000000000E+00 0. -1.
         21   -1    0    0  501  503 -0.00000000000E+00 -0.00000000000E+00 -0.49024532638E+03  0.49024532638E+03  0.00000000000E+00 0. -1.
    9000007    1    1    2  501    0  0.11748545748E+03  0.15440219398E+03 -0.20101876993E+03  0.48790513021E+03  0.40000000000E+03 0. -1.
   -9000007    1    1    2    0  502 -0.11748545748E+03 -0.15440219398E+03  0.19314907816E+03  0.48471583079E+03  0.40000000000E+03 0. -1.
<mgrwt>
<rscale>  2 0.44457043E+03</rscale>
<asrwt>0</asrwt>
<pdfrwt beam="1">  1       21 0.74211637E-01 0.44457043E+03</pdfrwt>
<pdfrwt beam="2">  1       21 0.75422357E-01 0.44457043E+03</pdfrwt>
<totfact> 0.22161503E+03</totfact>
</mgrwt>
</event>
<event>
 4    1  0.4862039E-002  0.4548010E+03  0.7818608E-02  0.1026300E+00
         21   -1    0    0  501  502  0.00000000000E+00  0.00000000000E+00  0.41856369440E+03  0.41856369440E+03  0.00000000000E+00 0.  1.
         21   -1    0    0  502  503 -0.00000000000E+00 -0.00000000000E+00 -0.68603169039E+03  0.68603169039E+03  0.00000000000E+00 0.  1.
    9000007    1    1    2  501    0 -0.18721735316E+03  0.10859819649E+03  0.15833744410E+03  0.48157517773E+03  0.40000000000E+03 0.  1.
   -9000007    1    1    2    0  503  0.18721735316E+03 -0.10859819649E+03 -0.42580544008E+03  0.62302020706E+03  0.40000000000E+03 0.  1.
<mgrwt>
<rscale>  2 0.45480095E+03</rscale>
<asrwt>0</asrwt>
<pdfrwt beam="1">  1       21 0.64394415E-01 0.45480095E+03</pdfrwt>
<pdfrwt beam="2">  1       21 0.10554334E+00 0.45480095E+03</pdfrwt>
<totfact> 0.13704972E+03</totfact>
</mgrwt>
</event>
<event>
 4    1  0.4862039E-002  0.4194281E+03  0.7818608E-02  0.1037253E+00
         21   -1    0    0  503  502  0.00000000000E+00  0.00000000000E+00  0.19828680184E+03  0.19828680184E+03  0.00000000000E+00 0. -1.
         21   -1    0    0  501  503 -0.00000000000E+00 -0.00000000000E+00 -0.10394431785E+04  0.10394431785E+04  0.00000000000E+00 0. -1.
    9000007    1    1    2  501    0  0.10811333077E+03 -0.65049530336E+02 -0.18373259963E+03  0.45790566917E+03  0.40000000000E+03 0. -1.
   -9000007    1    1    2    0  502 -0.10811333077E+03  0.65049530336E+02 -0.65742377700E+03  0.77982431114E+03  0.40000000000E+03 0. -1.
<mgrwt>
<rscale>  2 0.41942810E+03</rscale>
<asrwt>0</asrwt>
<pdfrwt beam="1">  1       21 0.30505662E-01 0.41942810E+03</pdfrwt>
<pdfrwt beam="2">  1       21 0.15991433E+00 0.41942810E+03</pdfrwt>
<totfact> 0.22536830E+03</totfact>
</mgrwt>
</event>
<event>
 4    1  0.4862039E-002  0.4813202E+03  0.7818608E-02  0.1018773E+00
         21   -1    0    0  501  502  0.00000000000E+00  0.00000000000E+00  0.72682875813E+03  0.72682875813E+03  0.00000000000E+00 0. -1.
         21   -1    0    0  502  503 -0.00000000000E+00 -0.00000000000E+00 -0.31969169727E+03  0.31969169727E+03  0.00000000000E+00 0. -1.
    9000007    1    1    2  501    0  0.26684195578E+03 -0.21551999876E+02  0.23212400835E+03  0.53436941653E+03  0.40000000000E+03 0. -1.
   -9000007    1    1    2    0  503 -0.26684195578E+03  0.21551999876E+02  0.17501305250E+03  0.51215103887E+03  0.40000000000E+03 0. -1.
<mgrwt>
<rscale>  2 0.48132018E+03</rscale>
<asrwt>0</asrwt>
<pdfrwt beam="1">  1       21 0.11181981E+00 0.48132018E+03</pdfrwt>
<pdfrwt beam="2">  1       21 0.49183338E-01 0.48132018E+03</pdfrwt>
<totfact> 0.21104579E+03</totfact>
</mgrwt>
</event>
<event>
 4    1  0.4862039E-002  0.4357371E+03  0.7818608E-02  0.1032063E+00
         21   -1    0    0  501  502  0.00000000000E+00  0.00000000000E+00  0.10545276957E+04  0.10545276957E+04  0.00000000000E+00 0.  1.
         21   -1    0    0  502  503 -0.00000000000E+00 -0.00000000000E+00 -0.22025660987E+03  0.22025660987E+03  0.00000000000E+00 0.  1.
    9000007    1    1    2  501    0 -0.82356142732E+02  0.15193519422E+03  0.68946551524E+03  0.81561604581E+03  0.40000000000E+03 0.  1.
   -9000007    1    1    2    0  503  0.82356142732E+02 -0.15193519422E+03  0.14480557059E+03  0.45916825975E+03  0.40000000000E+03 0.  1.
<mgrwt>
<rscale>  2 0.43573712E+03</rscale>
<asrwt>0</asrwt>
<pdfrwt beam="1">  1       21 0.16223503E+00 0.43573712E+03</pdfrwt>
<pdfrwt beam="2">  1       21 0.33885633E-01 0.43573712E+03</pdfrwt>
<totfact> 0.17423767E+03</totfact>
</mgrwt>
</event>
<event>
 4    1  0.4862039E-002  0.4485817E+03  0.7818608E-02  0.1028146E+00
         21   -1    0    0  503  502  0.00000000000E+00  0.00000000000E+00  0.51352151213E+03  0.51352151213E+03  0.00000000000E+00 0.  1.
         21   -1    0    0  501  503 -0.00000000000E+00 -0.00000000000E+00 -0.73998022639E+03  0.73998022639E+03  0.00000000000E+00 0.  1.
    9000007    1    1    2  501    0  0.76211397867E+02 -0.18819499547E+03 -0.54311522459E+03  0.70441442395E+03  0.40000000000E+03 0.  1.
   -9000007    1    1    2    0  502 -0.76211397867E+02  0.18819499547E+03  0.31665651033E+03  0.54908731457E+03  0.40000000000E+03 0.  1.
<mgrwt>
<rscale>  2 0.44858169E+03</rscale>
<asrwt>0</asrwt>
<pdfrwt beam="1">  1       21 0.79003310E-01 0.44858169E+03</pdfrwt>
<pdfrwt beam="2">  1       21 0.11384311E+00 0.44858169E+03</pdfrwt>
<totfact> 0.71735244E+02</totfact>
</mgrwt>
</event>
<event>
 4    1  0.4862039E-002  0.4270475E+03  0.7818608E-02  0.1034797E+00
         21   -1    0    0  503  502  0.00000000000E+00  0.00000000000E+00  0.26905747082E+03  0.26905747082E+03  0.00000000000E+00 0.  1.
         21   -1    0    0  501  503 -0.00000000000E+00 -0.00000000000E+00 -0.67942553365E+03  0.67942553365E+03  0.00000000000E+00 0. -1.
    9000007    1    1    2  501    0 -0.83110915801E+02 -0.12434675718E+03 -0.18205068717E+03  0.46423269278E+03  0.40000000000E+03 0.  1.
   -9000007    1    1    2    0  502  0.83110915801E+02  0.12434675718E+03 -0.22831737566E+03  0.48425031169E+03  0.40000000000E+03 0.  1.
<mgrwt>
<rscale>  2 0.42704747E+03</rscale>
<asrwt>0</asrwt>
<pdfrwt beam="1">  1       21 0.41393457E-01 0.42704747E+03</pdfrwt>
<pdfrwt beam="2">  1       21 0.10452700E+00 0.42704747E+03</pdfrwt>
<totfact> 0.36504449E+03</totfact>
</mgrwt>
</event>
<event>
 4    1  0.4862039E-002  0.4085690E+03  0.7818608E-02  0.1040852E+00
         21   -1    0    0  501  502  0.00000000000E+00  0.00000000000E+00  0.56212404447E+03  0.56212404447E+03  0.00000000000E+00 0. -1.
         21   -1    0    0  502  503 -0.00000000000E+00 -0.00000000000E+00 -0.33027858244E+03  0.33027858244E+03  0.00000000000E+00 0. -1.
    9000007    1    1    2  501    0  0.79801994805E+02  0.23670229247E+02  0.25764256278E+03  0.48302000816E+03  0.40000000000E+03 0. -1.
   -9000007    1    1    2    0  503 -0.79801994805E+02 -0.23670229247E+02 -0.25797100757E+02  0.40938261875E+03  0.40000000000E+03 0. -1.
<mgrwt>
<rscale>  2 0.40856901E+03</rscale>
<asrwt>0</asrwt>
<pdfrwt beam="1">  1       21 0.86480623E-01 0.40856901E+03</pdfrwt>
<pdfrwt beam="2">  1       21 0.50812089E-01 0.40856901E+03</pdfrwt>
<totfact> 0.37652472E+03</totfact>
</mgrwt>
</event>
<event>
 4    1  0.4862039E-002  0.5222829E+03  0.7818608E-02  0.1008121E+00
         21   -1    0    0  503  502  0.00000000000E+00  0.00000000000E+00  0.10130853076E+04  0.10130853076E+04  0.00000000000E+00 0. -1.
         21   -1    0    0  501  503 -0.00000000000E+00 -0.00000000000E+00 -0.88906621333E+03  0.88906621333E+03  0.00000000000E+00 0. -1.
    9000007    1    1    2  501    0 -0.83233543383E+02  0.32534847165E+03 -0.73209443022E+03  0.89930067581E+03  0.40000000000E+03 0. -1.
   -9000007    1    1    2    0  502  0.83233543383E+02 -0.32534847165E+03  0.85611352450E+03  0.10028508451E+04  0.40000000000E+03 0. -1.
<mgrwt>
<rscale>  2 0.52228292E+03</rscale>
<asrwt>0</asrwt>
<pdfrwt beam="1">  1       21 0.15585928E+00 0.52228292E+03</pdfrwt>
<pdfrwt beam="2">  1       21 0.13677942E+00 0.52228292E+03</pdfrwt>
<totfact> 0.78730257E+01</totfact>
</mgrwt>
</event>
<event>
 4    1  0.4862039E-002  0.4107827E+03  0.7818608E-02  0.1040109E+00
         21   -1    0    0  503  502  0.00000000000E+00  0.00000000000E+00  0.26367207721E+04  0.26367207721E+04  0.00000000000E+00 0. -1.
         21   -1    0    0  501  503 -0.00000000000E+00 -0.00000000000E+00 -0.12813407103E+03  0.12813407103E+03  0.00000000000E+00 0. -1.
    9000007    1    1    2  501    0 -0.17659693781E+02 -0.91818272064E+02  0.27623609309E+03  0.49502407921E+03  0.40000000000E+03 0. -1.
   -9000007    1    1    2    0  502  0.17659693781E+02  0.91818272064E+02  0.22323506080E+04  0.22698307639E+04  0.40000000000E+03 0. -1.
<mgrwt>
<rscale>  2 0.41078274E+03</rscale>
<asrwt>0</asrwt>
<pdfrwt beam="1">  1       21 0.40564931E+00 0.41078274E+03</pdfrwt>
<pdfrwt beam="2">  1       21 0.19712936E-01 0.41078274E+03</pdfrwt>
<totfact> 0.14841990E+02</totfact>
</mgrwt>
</event>
<event>
 4    1  0.4862039E-002  0.4107442E+03  0.7818608E-02  0.1040122E+00
         21   -1    0    0  503  502  0.00000000000E+00  0.00000000000E+00  0.16814625826E+03  0.16814625826E+03  0.00000000000E+00 0.  1.
         21   -1    0    0  501  503 -0.00000000000E+00 -0.00000000000E+00 -0.20499633958E+04  0.20499633958E+04  0.00000000000E+00 0.  1.
    9000007    1    1    2  501    0  0.18170342128E+02 -0.91546012887E+02 -0.17333579333E+04  0.17813591886E+04  0.40000000000E+03 0.  1.
   -9000007    1    1    2    0  502 -0.18170342128E+02  0.91546012887E+02 -0.14845920430E+03  0.43675046554E+03  0.40000000000E+03 0.  1.
<mgrwt>
<rscale>  2 0.41074424E+03</rscale>
<asrwt>0</asrwt>
<pdfrwt beam="1">  1       21 0.25868654E-01 0.41074424E+03</pdfrwt>
<pdfrwt beam="2">  1       21 0.31537900E+00 0.41074424E+03</pdfrwt>
<totfact> 0.31817852E+02</totfact>
</mgrwt>
</event>
<event>
 4    1  0.4862039E-002  0.4192259E+03  0.7818608E-02  0.1037319E+00
         21   -1    0    0  503  502  0.00000000000E+00  0.00000000000E+00  0.37710303167E+03  0.37710303167E+03  0.00000000000E+00 0.  1.
         21   -1    0    0  501  503 -0.00000000000E+00 -0.00000000000E+00 -0.46631005902E+03  0.46631005902E+03  0.00000000000E+00 0.  1.
    9000007    1    1    2  501    0  0.57714699837E+02  0.11144222884E+03 -0.54486462649E+02  0.42275185577E+03  0.40000000000E+03 0.  1.
   -9000007    1    1    2    0  502 -0.57714699837E+02 -0.11144222884E+03 -0.34720564703E+02  0.42066123491E+03  0.40000000000E+03 0.  1.
<mgrwt>
<rscale>  2 0.41922590E+03</rscale>
<asrwt>0</asrwt>
<pdfrwt beam="1">  1       21 0.58015851E-01 0.41922590E+03</pdfrwt>
<pdfrwt beam="2">  1       21 0.71740009E-01 0.41922590E+03</pdfrwt>
<totfact> 0.43336051E+03</totfact>
</mgrwt>
</event>
<event>
 4    1  0.4862039E-002  0.5458566E+03  0.7818608E-02  0.1002458E+00
         21   -1    0    0  503  502  0.00000000000E+00  0.00000000000E+00  0.87514108467E+03  0.87514108467E+03  0.00000000000E+00 0.  1.
         21   -1    0    0  501  503 -0.00000000000E+00 -0.00000000000E+00 -0.68961348146E+03  0.68961348146E+03  0.00000000000E+00 0. -1.
    9000007    1    1    2  501    0 -0.40497015064E+02 -0.36921456662E+03 -0.46392853723E+03  0.71637217429E+03  0.40000000000E+03 0. -1.
   -9000007    1    1    2    0  502  0.40497015064E+02  0.36921456662E+03  0.64945614044E+03  0.84838239185E+03  0.40000000000E+03 0.  1.
<mgrwt>
<rscale>  2 0.54585658E+03</rscale>
<asrwt>0</asrwt>
<pdfrwt beam="1">  1       21 0.13463709E+00 0.54585658E+03</pdfrwt>
<pdfrwt beam="2">  1       21 0.10609438E+00 0.54585658E+03</pdfrwt>
<totfact> 0.22143720E+02</totfact>
</mgrwt>
</event>
<event>
 4    1  0.4862039E-002  0.5013046E+03  0.7818608E-02  0.1013439E+00
         21   -1    0    0  501  502  0.00000000000E+00  0.00000000000E+00  0.95048007272E+03  0.95048007272E+03  0.00000000000E+00 0.  1.
         21   -1    0    0  502  503 -0.00000000000E+00 -0.00000000000E+00 -0.36918106182E+03  0.36918106182E+03  0.00000000000E+00 0. -1.
    9000007    1    1    2  501    0 -0.87655435985E+02 -0.28917608878E+03  0.64217394813E+03  0.81467396266E+03  0.40000000000E+03 0.  1.
   -9000007    1    1    2    0  503  0.87655435985E+02  0.28917608878E+03 -0.60874937233E+02  0.50498717188E+03  0.40000000000E+03 0. -1.
<mgrwt>
<rscale>  2 0.50130458E+03</rscale>
<asrwt>0</asrwt>
<pdfrwt beam="1">  1       21 0.14622770E+00 0.50130458E+03</pdfrwt>
<pdfrwt beam="2">  1       21 0.56797087E-01 0.50130458E+03</pdfrwt>
<totfact> 0.76657649E+02</totfact>
</mgrwt>
</event>
<event>
 4    1  0.4862039E-002  0.5039022E+03  0.7818608E-02  0.1012765E+00
         21   -1    0    0  501  502  0.00000000000E+00  0.00000000000E+00  0.43431195173E+03  0.43431195173E+03  0.00000000000E+00 0. -1.
         21   -1    0    0  502  503 -0.00000000000E+00 -0.00000000000E+00 -0.66584400207E+03  0.66584400207E+03  0.00000000000E+00 0. -1.
    9000007    1    1    2  501    0 -0.13778779678E+03 -0.27373703788E+03  0.76330143648E+02  0.50965059961E+03  0.40000000000E+03 0. -1.
   -9000007    1    1    2    0  503  0.13778779678E+03  0.27373703788E+03 -0.30786219398E+03  0.59050535420E+03  0.40000000000E+03 0. -1.
<mgrwt>
<rscale>  2 0.50390222E+03</rscale>
<asrwt>0</asrwt>
<pdfrwt beam="1">  1       21 0.66817224E-01 0.50390222E+03</pdfrwt>
<pdfrwt beam="2">  1       21 0.10243754E+00 0.50390222E+03</pdfrwt>
<totfact> 0.13337373E+03</totfact>
</mgrwt>
</event>
<event>
 4    1  0.4862039E-002  0.4366659E+03  0.7818608E-02  0.1031775E+00
         21   -1    0    0  503  502  0.00000000000E+00  0.00000000000E+00  0.52354971971E+03  0.52354971971E+03  0.00000000000E+00 0.  1.
         21   -1    0    0  501  503 -0.00000000000E+00 -0.00000000000E+00 -0.50403387349E+03  0.50403387349E+03  0.00000000000E+00 0.  1.
    9000007    1    1    2  501    0  0.17469051586E+03 -0.12663242853E+02 -0.26086372245E+03  0.50865215594E+03  0.40000000000E+03 0.  1.
   -9000007    1    1    2    0  502 -0.17469051586E+03  0.12663242853E+02  0.28037956867E+03  0.51893143726E+03  0.40000000000E+03 0.  1.
<mgrwt>
<rscale>  2 0.43666593E+03</rscale>
<asrwt>0</asrwt>
<pdfrwt beam="1">  1       21 0.80546111E-01 0.43666593E+03</pdfrwt>
<pdfrwt beam="2">  1       21 0.77543673E-01 0.43666593E+03</pdfrwt>
<totfact> 0.17288544E+03</totfact>
</mgrwt>
</event>
<event>
 4    1  0.4862039E-002  0.4825223E+03  0.7818608E-02  0.1018444E+00
         21   -1    0    0  503  502  0.00000000000E+00  0.00000000000E+00  0.84247020395E+03  0.84247020395E+03  0.00000000000E+00 0.  1.
         21   -1    0    0  501  503 -0.00000000000E+00 -0.00000000000E+00 -0.29106012681E+03  0.29106012681E+03  0.00000000000E+00 0.  1.
    9000007    1    1    2  501    0  0.13613765324E+03  0.23301148947E+03  0.14834765686E+03  0.50481168979E+03  0.40000000000E+03 0.  1.
   -9000007    1    1    2    0  502 -0.13613765324E+03 -0.23301148947E+03  0.40306242028E+03  0.62871864096E+03  0.40000000000E+03 0.  1.
<mgrwt>
<rscale>  2 0.48252235E+03</rscale>
<asrwt>0</asrwt>
<pdfrwt beam="1">  1       21 0.12961080E+00 0.48252235E+03</pdfrwt>
<pdfrwt beam="2">  1       21 0.44778481E-01 0.48252235E+03</pdfrwt>
<totfact> 0.17657065E+03</totfact>
</mgrwt>
</event>
<event>
 4    1  0.4862039E-002  0.4317802E+03  0.7818608E-02  0.1033299E+00
         21   -1    0    0  501  502  0.00000000000E+00  0.00000000000E+00  0.61218147065E+03  0.61218147065E+03  0.00000000000E+00 0.  1.
         21   -1    0    0  502  503 -0.00000000000E+00 -0.00000000000E+00 -0.60817984767E+03  0.60817984767E+03  0.00000000000E+00 0.  1.
    9000007    1    1    2  501    0 -0.14596134524E+03  0.71619933525E+02  0.43314383073E+03  0.61159439769E+03  0.40000000000E+03 0.  1.
   -9000007    1    1    2    0  503  0.14596134524E+03 -0.71619933525E+02 -0.42914220775E+03  0.60876692063E+03  0.40000000000E+03 0.  1.
<mgrwt>
<rscale>  2 0.43178019E+03</rscale>
<asrwt>0</asrwt>
<pdfrwt beam="1">  1       21 0.94181765E-01 0.43178019E+03</pdfrwt>
<pdfrwt beam="2">  1       21 0.93566130E-01 0.43178019E+03</pdfrwt>
<totfact> 0.77305585E+02</totfact>
</mgrwt>
</event>
<event>
 4    1  0.4862039E-002  0.4709685E+03  0.7818608E-02  0.1021647E+00
         21   -1    0    0  501  502  0.00000000000E+00  0.00000000000E+00  0.10909018988E+04  0.10909018988E+04  0.00000000000E+00 0. -1.
         21   -1    0    0  502  503 -0.00000000000E+00 -0.00000000000E+00 -0.23723391574E+03  0.23723391574E+03  0.00000000000E+00 0. -1.
    9000007    1    1    2  501    0  0.13805697428E+03  0.20676463454E+03  0.67788342993E+03  0.82543157610E+03  0.40000000000E+03 0. -1.
   -9000007    1    1    2    0  503 -0.13805697428E+03 -0.20676463454E+03  0.17578455314E+03  0.50270423846E+03  0.40000000000E+03 0. -1.
<mgrwt>
<rscale>  2 0.47096852E+03</rscale>
<asrwt>0</asrwt>
<pdfrwt beam="1">  1       21 0.16783106E+00 0.47096852E+03</pdfrwt>
<pdfrwt beam="2">  1       21 0.36497526E-01 0.47096852E+03</pdfrwt>
<totfact> 0.13427403E+03</totfact>
</mgrwt>
</event>
<event>
 4    1  0.4862039E-002  0.4360064E+03  0.7818608E-02  0.1031979E+00
         21   -1    0    0  503  502  0.00000000000E+00  0.00000000000E+00  0.64899644297E+03  0.64899644297E+03  0.00000000000E+00 0.  1.
         21   -1    0    0  501  503 -0.00000000000E+00 -0.00000000000E+00 -0.77150253801E+03  0.77150253801E+03  0.00000000000E+00 0.  1.
    9000007    1    1    2  501    0 -0.17041716698E+03  0.32551393352E+02 -0.62065293833E+03  0.75849302823E+03  0.40000000000E+03 0.  1.
   -9000007    1    1    2    0  502  0.17041716698E+03 -0.32551393352E+02  0.49814684328E+03  0.66200595276E+03  0.40000000000E+03 0.  1.
<mgrwt>
<rscale>  2 0.43600643E+03</rscale>
<asrwt>0</asrwt>
<pdfrwt beam="1">  1       21 0.99845607E-01 0.43600643E+03</pdfrwt>
<pdfrwt beam="2">  1       21 0.11869270E+00 0.43600643E+03</pdfrwt>
<totfact> 0.37385335E+02</totfact>
</mgrwt>
</event>
<event>
 4    1  0.4862039E-002  0.4331881E+03  0.7818608E-02  0.1032858E+00
         21   -1    0    0  503  502  0.00000000000E+00  0.00000000000E+00  0.98733418350E+03  0.98733418350E+03  0.00000000000E+00 0. -1.
         21   -1    0    0  501  503 -0.00000000000E+00 -0.00000000000E+00 -0.59774203486E+03  0.59774203486E+03  0.00000000000E+00 0. -1.
    9000007    1    1    2  501    0 -0.77567874052E+02 -0.14708885949E+03 -0.45972628752E+03  0.63166460017E+03  0.40000000000E+03 0. -1.
   -9000007    1    1    2    0  502  0.77567874052E+02  0.14708885949E+03  0.84931843617E+03  0.95341161818E+03  0.40000000000E+03 0. -1.
<mgrwt>
<rscale>  2 0.43318807E+03</rscale>
<asrwt>0</asrwt>
<pdfrwt beam="1">  1       21 0.15189757E+00 0.43318807E+03</pdfrwt>
<pdfrwt beam="2">  1       21 0.91960313E-01 0.43318807E+03</pdfrwt>
<totfact> 0.23879657E+02</totfact>
</mgrwt>
</event>
<event>
 4    1  0.4862039E-002  0.4662231E+03  0.7818608E-02  0.1022992E+00
         21   -1    0    0  501  502  0.00000000000E+00  0.00000000000E+00  0.78016449953E+03  0.78016449953E+03  0.00000000000E+00 0. -1.
         21   -1    0    0  502  503 -0.00000000000E+00 -0.00000000000E+00 -0.42819010792E+03  0.42819010792E+03  0.00000000000E+00 0. -1.
    9000007    1    1    2  501    0 -0.14134796721E+03  0.19335130540E+03  0.53307798759E+03  0.70819214623E+03  0.40000000000E+03 0. -1.
   -9000007    1    1    2    0  503  0.14134796721E+03 -0.19335130540E+03 -0.18110359598E+03  0.50016246122E+03  0.40000000000E+03 0. -1.
<mgrwt>
<rscale>  2 0.46622310E+03</rscale>
<asrwt>0</asrwt>
<pdfrwt beam="1">  1       21 0.12002531E+00 0.46622310E+03</pdfrwt>
<pdfrwt beam="2">  1       21 0.65875402E-01 0.46622310E+03</pdfrwt>
<totfact> 0.94088803E+02</totfact>
</mgrwt>
</event>
<event>
 4    1  0.4862039E-002  0.4012388E+03  0.7818608E-02  0.1043352E+00
         21   -1    0    0  501  502  0.00000000000E+00  0.00000000000E+00  0.13001467963E+04  0.13001467963E+04  0.00000000000E+00 0. -1.
         21   -1    0    0  502  503 -0.00000000000E+00 -0.00000000000E+00 -0.13425965252E+03  0.13425965252E+03  0.00000000000E+00 0. -1.
    9000007    1    1    2  501    0  0.30792408988E+02 -0.66643139851E+01  0.38301359295E+03  0.55469991700E+03  0.40000000000E+03 0.  1.
   -9000007    1    1    2    0  503 -0.30792408988E+02  0.66643139851E+01  0.78287355086E+03  0.87970653184E+03  0.40000000000E+03 0.  1.
<mgrwt>
<rscale>  2 0.40123881E+03</rscale>
<asrwt>0</asrwt>
<pdfrwt beam="1">  1       21 0.20002258E+00 0.40123881E+03</pdfrwt>
<pdfrwt beam="2">  1       21 0.20655332E-01 0.40123881E+03</pdfrwt>
<totfact> 0.25302459E+03</totfact>
</mgrwt>
</event>
<event>
 4    1  0.4862039E-002  0.7116952E+03  0.7818608E-02  0.9697438E-01
         21   -1    0    0  503  502  0.00000000000E+00  0.00000000000E+00  0.71594561867E+03  0.71594561867E+03  0.00000000000E+00 0. -1.
         21   -1    0    0  501  503 -0.00000000000E+00 -0.00000000000E+00 -0.71685275712E+03  0.71685275712E+03  0.00000000000E+00 0. -1.
    9000007    1    1    2  501    0  0.30534084259E+03  0.50326632848E+03  0.81507188738E+02  0.71634729661E+03  0.40000000000E+03 0. -1.
   -9000007    1    1    2    0  502 -0.30534084259E+03 -0.50326632848E+03 -0.82414327193E+02  0.71645107919E+03  0.40000000000E+03 0. -1.
<mgrwt>
<rscale>  2 0.71169518E+03</rscale>
<asrwt>0</asrwt>
<pdfrwt beam="1">  1       21 0.11014548E+00 0.71169518E+03</pdfrwt>
<pdfrwt beam="2">  1       21 0.11028504E+00 0.71169518E+03</pdfrwt>
<totfact> 0.31832988E+02</totfact>
</mgrwt>
</event>
<event>
 4    1  0.4862039E-002  0.5225475E+03  0.7818608E-02  0.1008056E+00
         21   -1    0    0  501  502  0.00000000000E+00  0.00000000000E+00  0.47299596729E+03  0.47299596729E+03  0.00000000000E+00 0. -1.
         21   -1    0    0  502  503 -0.00000000000E+00 -0.00000000000E+00 -0.58424508725E+03  0.58424508725E+03  0.00000000000E+00 0. -1.
    9000007    1    1    2  501    0  0.20379941663E+03  0.26743539903E+03  0.20513277238E+01  0.52255153125E+03  0.40000000000E+03 0. -1.
   -9000007    1    1    2    0  503 -0.20379941663E+03 -0.26743539903E+03 -0.11330044768E+03  0.53468952329E+03  0.40000000000E+03 0. -1.
<mgrwt>
<rscale>  2 0.52254750E+03</rscale>
<asrwt>0</asrwt>
<pdfrwt beam="1">  1       21 0.72768611E-01 0.52254750E+03</pdfrwt>
<pdfrwt beam="2">  1       21 0.89883859E-01 0.52254750E+03</pdfrwt>
<totfact> 0.14985786E+03</totfact>
</mgrwt>
</event>
<event>
 4    1  0.4862039E-002  0.4301724E+03  0.7818608E-02  0.1033806E+00
         21   -1    0    0  501  502  0.00000000000E+00  0.00000000000E+00  0.54557378678E+03  0.54557378678E+03  0.00000000000E+00 0.  1.
         21   -1    0    0  502  503 -0.00000000000E+00 -0.00000000000E+00 -0.37412157957E+03  0.37412157957E+03  0.00000000000E+00 0.  1.
    9000007    1    1    2  501    0  0.96464952902E+02  0.12547020873E+03  0.22625728588E+03  0.48604590301E+03  0.40000000000E+03 0.  1.
   -9000007    1    1    2    0  503 -0.96464952902E+02 -0.12547020873E+03 -0.54805078667E+02  0.43364946335E+03  0.40000000000E+03 0.  1.
<mgrwt>
<rscale>  2 0.43017236E+03</rscale>
<asrwt>0</asrwt>
<pdfrwt beam="1">  1       21 0.83934429E-01 0.43017236E+03</pdfrwt>
<pdfrwt beam="2">  1       21 0.57557166E-01 0.43017236E+03</pdfrwt>
<totfact> 0.30636949E+03</totfact>
</mgrwt>
</event>
<event>
 4    1  0.4862039E-002  0.4659437E+03  0.7818608E-02  0.1023071E+00
         21   -1    0    0  501  502  0.00000000000E+00  0.00000000000E+00  0.13701596082E+04  0.13701596082E+04  0.00000000000E+00 0.  1.
         21   -1    0    0  502  503 -0.00000000000E+00 -0.00000000000E+00 -0.16136957677E+03  0.16136957677E+03  0.00000000000E+00 0.  1.
    9000007    1    1    2  501    0  0.22000716135E+03 -0.93275859826E+02  0.70737422212E+03  0.84704299017E+03  0.40000000000E+03 0.  1.
   -9000007    1    1    2    0  503 -0.22000716135E+03  0.93275859826E+02  0.50141580935E+03  0.68448619485E+03  0.40000000000E+03 0.  1.
<mgrwt>
<rscale>  2 0.46594371E+03</rscale>
<asrwt>0</asrwt>
<pdfrwt beam="1">  1       21 0.21079378E+00 0.46594371E+03</pdfrwt>
<pdfrwt beam="2">  1       21 0.24826090E-01 0.46594371E+03</pdfrwt>
<totfact> 0.14653426E+03</totfact>
</mgrwt>
</event>
<event>
 4    1  0.4862039E-002  0.4115974E+03  0.7818608E-02  0.1039836E+00
         21   -1    0    0  503  502  0.00000000000E+00  0.00000000000E+00  0.39137744555E+03  0.39137744555E+03  0.00000000000E+00 0.  1.
         21   -1    0    0  501  503 -0.00000000000E+00 -0.00000000000E+00 -0.43304020935E+03  0.43304020935E+03  0.00000000000E+00 0.  1.
    9000007    1    1    2  501    0 -0.94568789856E+02 -0.21660704656E+02 -0.12470320291E+02  0.41178629291E+03  0.40000000000E+03 0.  1.
   -9000007    1    1    2    0  502  0.94568789856E+02  0.21660704656E+02 -0.29192443506E+02  0.41263136199E+03  0.40000000000E+03 0.  1.
<mgrwt>
<rscale>  2 0.41159743E+03</rscale>
<asrwt>0</asrwt>
<pdfrwt beam="1">  1       21 0.60211915E-01 0.41159743E+03</pdfrwt>
<pdfrwt beam="2">  1       21 0.66621571E-01 0.41159743E+03</pdfrwt>
<totfact> 0.47306487E+03</totfact>
</mgrwt>
</event>
<event>
 4    1  0.4862039E-002  0.4275056E+03  0.7818608E-02  0.1034651E+00
         21   -1    0    0  501  502  0.00000000000E+00  0.00000000000E+00  0.10532909091E+03  0.10532909091E+03  0.00000000000E+00 0.  1.
         21   -1    0    0  502  503 -0.00000000000E+00 -0.00000000000E+00 -0.17891328355E+04  0.17891328355E+04  0.00000000000E+00 0.  1.
    9000007    1    1    2  501    0  0.12404756813E+03  0.85867469869E+02 -0.10064493012E+04  0.10934812378E+04  0.40000000000E+03 0.  1.
   -9000007    1    1    2    0  503 -0.12404756813E+03 -0.85867469869E+02 -0.67735444342E+03  0.80098068864E+03  0.40000000000E+03 0.  1.
<mgrwt>
<rscale>  2 0.42750558E+03</rscale>
<asrwt>0</asrwt>
<pdfrwt beam="1">  1       21 0.16204475E-01 0.42750558E+03</pdfrwt>
<pdfrwt beam="2">  1       21 0.27525122E+00 0.42750558E+03</pdfrwt>
<totfact> 0.13372580E+03</totfact>
</mgrwt>
</event>
<event>
 4    1  0.4862039E-002  0.5121500E+03  0.7818608E-02  0.1010655E+00
         21   -1    0    0  503  502  0.00000000000E+00  0.00000000000E+00  0.13312312258E+04  0.13312312258E+04  0.00000000000E+00 0.  1.
         21   -1    0    0  501  503 -0.00000000000E+00 -0.00000000000E+00 -0.24656404798E+03  0.24656404798E+03  0.00000000000E+00 0. -1.
    9000007    1    1    2  501    0 -0.22000650478E+03 -0.23215238637E+03  0.18875099248E+03  0.54582463283E+03  0.40000000000E+03 0. -1.
   -9000007    1    1    2    0  502  0.22000650478E+03  0.23215238637E+03  0.89591618536E+03  0.10319706410E+04  0.40000000000E+03 0.  1.
<mgrwt>
<rscale>  2 0.51214997E+03</rscale>
<asrwt>0</asrwt>
<pdfrwt beam="1">  1       21 0.20480480E+00 0.51214997E+03</pdfrwt>
<pdfrwt beam="2">  1       21 0.37932931E-01 0.51214997E+03</pdfrwt>
<totfact> 0.67484880E+02</totfact>
</mgrwt>
</event>
<event>
 4    1  0.4862039E-002  0.6917550E+03  0.7818608E-02  0.9731437E-01
         21   -1    0    0  503  502  0.00000000000E+00  0.00000000000E+00  0.37517018845E+03  0.37517018845E+03  0.00000000000E+00 0. -1.
         21   -1    0    0  501  503 -0.00000000000E+00 -0.00000000000E+00 -0.13186670612E+04  0.13186670612E+04  0.00000000000E+00 0. -1.
    9000007    1    1    2  501    0  0.53658760619E+03  0.17492491194E+03 -0.31849440737E+03  0.76155345936E+03  0.40000000000E+03 0. -1.
   -9000007    1    1    2    0  502 -0.53658760619E+03 -0.17492491194E+03 -0.62500246539E+03  0.93228379031E+03  0.40000000000E+03 0. -1.
<mgrwt>
<rscale>  2 0.69175500E+03</rscale>
<asrwt>0</asrwt>
<pdfrwt beam="1">  1       21 0.57718490E-01 0.69175500E+03</pdfrwt>
<pdfrwt beam="2">  1       21 0.20287186E+00 0.69175500E+03</pdfrwt>
<totfact> 0.26721074E+02</totfact>
</mgrwt>
</event>
<event>
 4    1  0.4862039E-002  0.4633498E+03  0.7818608E-02  0.1023814E+00
         21   -1    0    0  503  502  0.00000000000E+00  0.00000000000E+00  0.25042353146E+03  0.25042353146E+03  0.00000000000E+00 0.  1.
         21   -1    0    0  501  503 -0.00000000000E+00 -0.00000000000E+00 -0.89386737294E+03  0.89386737294E+03  0.00000000000E+00 0. -1.
    9000007    1    1    2  501    0 -0.10197894789E+03 -0.21045987576E+03 -0.43741273155E+03  0.63719931171E+03  0.40000000000E+03 0. -1.
   -9000007    1    1    2    0  502  0.10197894789E+03  0.21045987576E+03 -0.20603110993E+03  0.50709159269E+03  0.40000000000E+03 0. -1.
<mgrwt>
<rscale>  2 0.46334983E+03</rscale>
<asrwt>0</asrwt>
<pdfrwt beam="1">  1       21 0.38526697E-01 0.46334983E+03</pdfrwt>
<pdfrwt beam="2">  1       21 0.13751806E+00 0.46334983E+03</pdfrwt>
<totfact> 0.20804074E+03</totfact>
</mgrwt>
</event>
<event>
 4    1  0.4862039E-002  0.4114583E+03  0.7818608E-02  0.1039883E+00
         21   -1    0    0  503  502  0.00000000000E+00  0.00000000000E+00  0.58769942687E+03  0.58769942687E+03  0.00000000000E+00 0.  1.
         21   -1    0    0  501  503 -0.00000000000E+00 -0.00000000000E+00 -0.42974730362E+03  0.42974730362E+03  0.00000000000E+00 0.  1.
    9000007    1    1    2  501    0 -0.94873050074E+02 -0.17235264928E+02 -0.21312078814E+03  0.46337719012E+03  0.40000000000E+03 0.  1.
   -9000007    1    1    2    0  502  0.94873050074E+02  0.17235264928E+02  0.37107291140E+03  0.55406954037E+03  0.40000000000E+03 0.  1.
<mgrwt>
<rscale>  2 0.41145832E+03</rscale>
<asrwt>0</asrwt>
<pdfrwt beam="1">  1       21 0.90415296E-01 0.41145832E+03</pdfrwt>
<pdfrwt beam="2">  1       21 0.66114970E-01 0.41145832E+03</pdfrwt>
<totfact> 0.19106378E+03</totfact>
</mgrwt>
</event>
<event>
 4    1  0.4862039E-002  0.4722703E+03  0.7818608E-02  0.1021281E+00
         21   -1    0    0  501  502  0.00000000000E+00  0.00000000000E+00  0.40011755030E+03  0.40011755030E+03  0.00000000000E+00 0.  1.
         21   -1    0    0  502  503 -0.00000000000E+00 -0.00000000000E+00 -0.71870177868E+03  0.71870177868E+03  0.00000000000E+00 0.  1.
    9000007    1    1    2  501    0  0.14028893148E+03  0.20822647909E+03 -0.42428181128E+03  0.63486558127E+03  0.40000000000E+03 0.  1.
   -9000007    1    1    2    0  503 -0.14028893148E+03 -0.20822647909E+03  0.10569758291E+03  0.48395374771E+03  0.40000000000E+03 0.  1.
<mgrwt>
<rscale>  2 0.47227032E+03</rscale>
<asrwt>0</asrwt>
<pdfrwt beam="1">  1       21 0.61556547E-01 0.47227032E+03</pdfrwt>
<pdfrwt beam="2">  1       21 0.11056950E+00 0.47227032E+03</pdfrwt>
<totfact> 0.13402858E+03</totfact>
</mgrwt>
</event>
<event>
 4    1  0.4862039E-002  0.7334121E+03  0.7818608E-02  0.9661740E-01
         21   -1    0    0  501  502  0.00000000000E+00  0.00000000000E+00  0.37656064060E+03  0.37656064060E+03  0.00000000000E+00 0.  1.
         21   -1    0    0  502  503 -0.00000000000E+00 -0.00000000000E+00 -0.18710694744E+04  0.18710694744E+04  0.00000000000E+00 0. -1.
    9000007    1    1    2  501    0 -0.48102758256E+03  0.38276071721E+03 -0.20065227247E+03  0.76036480473E+03  0.40000000000E+03 0.  1.
   -9000007    1    1    2    0  503  0.48102758256E+03 -0.38276071721E+03 -0.12938565613E+04  0.14872653102E+04  0.40000000000E+03 0. -1.
<mgrwt>
<rscale>  2 0.73341210E+03</rscale>
<asrwt>0</asrwt>
<pdfrwt beam="1">  1       21 0.57932404E-01 0.73341210E+03</pdfrwt>
<pdfrwt beam="2">  1       21 0.28785685E+00 0.73341210E+03</pdfrwt>
<totfact> 0.75453322E+01</totfact>
</mgrwt>
</event>
<event>
 4    1  0.4862039E-002  0.4182312E+03  0.7818608E-02  0.1037644E+00
         21   -1    0    0  503  502  0.00000000000E+00  0.00000000000E+00  0.17797694362E+03  0.17797694362E+03  0.00000000000E+00 0. -1.
         21   -1    0    0  501  503 -0.00000000000E+00 -0.00000000000E+00 -0.14745287076E+04  0.14745287076E+04  0.00000000000E+00 0. -1.
    9000007    1    1    2  501    0  0.11935611281E+03 -0.25912899145E+02 -0.11254150887E+04  0.12006150431E+04  0.40000000000E+03 0.  1.
   -9000007    1    1    2    0  502 -0.11935611281E+03  0.25912899145E+02 -0.17113667528E+03  0.45189060804E+03  0.40000000000E+03 0.  1.
<mgrwt>
<rscale>  2 0.41823123E+03</rscale>
<asrwt>0</asrwt>
<pdfrwt beam="1">  1       21 0.27381068E-01 0.41823123E+03</pdfrwt>
<pdfrwt beam="2">  1       21 0.22685057E+00 0.41823123E+03</pdfrwt>
<totfact> 0.97667431E+02</totfact>
</mgrwt>
</event>
<event>
 4    1  0.4862039E-002  0.4957433E+03  0.7818608E-02  0.1014896E+00
         21   -1    0    0  503  502  0.00000000000E+00  0.00000000000E+00  0.68084141755E+03  0.68084141755E+03  0.00000000000E+00 0.  1.
         21   -1    0    0  501  503 -0.00000000000E+00 -0.00000000000E+00 -0.68712476263E+03  0.68712476263E+03  0.00000000000E+00 0.  1.
    9000007    1    1    2  501    0 -0.28977105401E+03  0.42357626726E+02 -0.47438073097E+03  0.68614758631E+03  0.40000000000E+03 0.  1.
   -9000007    1    1    2    0  502  0.28977105401E+03 -0.42357626726E+02  0.46809738588E+03  0.68181859388E+03  0.40000000000E+03 0.  1.
<mgrwt>
<rscale>  2 0.49574331E+03</rscale>
<asrwt>0</asrwt>
<pdfrwt beam="1">  1       21 0.10474483E+00 0.49574331E+03</pdfrwt>
<pdfrwt beam="2">  1       21 0.10571150E+00 0.49574331E+03</pdfrwt>
<totfact> 0.43190473E+02</totfact>
</mgrwt>
</event>
<event>
 4    1  0.4862039E-002  0.5405199E+03  0.7818608E-02  0.1003712E+00
         21   -1    0    0  503  502  0.00000000000E+00  0.00000000000E+00  0.77094346996E+03  0.77094346996E+03  0.00000000000E+00 0. -1.
         21   -1    0    0  501  503 -0.00000000000E+00 -0.00000000000E+00 -0.37896682766E+03  0.37896682766E+03  0.00000000000E+00 0.  1.
    9000007    1    1    2  501    0  0.29103687561E+03  0.21785154532E+03  0.19651197580E+03  0.57513365003E+03  0.40000000000E+03 0. -1.
   -9000007    1    1    2    0  502 -0.29103687561E+03 -0.21785154532E+03  0.19546466649E+03  0.57477664759E+03  0.40000000000E+03 0.  1.
<mgrwt>
<rscale>  2 0.54051990E+03</rscale>
<asrwt>0</asrwt>
<pdfrwt beam="1">  1       21 0.11860669E+00 0.54051990E+03</pdfrwt>
<pdfrwt beam="2">  1       21 0.58302589E-01 0.54051990E+03</pdfrwt>
<totfact> 0.12361422E+03</totfact>
</mgrwt>
</event>
<event>
 4    1  0.4862039E-002  0.6139336E+03  0.7818608E-02  0.9876913E-01
         21   -1    0    0  503  502  0.00000000000E+00  0.00000000000E+00  0.36472599999E+03  0.36472599999E+03  0.00000000000E+00 0.  1.
         21   -1    0    0  501  503 -0.00000000000E+00 -0.00000000000E+00 -0.12569630261E+04  0.12569630261E+04  0.00000000000E+00 0.  1.
    9000007    1    1    2  501    0  0.35874590623E+03  0.29701152876E+03 -0.78806541753E+03  0.99898026795E+03  0.40000000000E+03 0.  1.
   -9000007    1    1    2    0  502 -0.35874590623E+03 -0.29701152876E+03 -0.10417160861E+03  0.62270875816E+03  0.40000000000E+03 0.  1.
<mgrwt>
<rscale>  2 0.61393361E+03</rscale>
<asrwt>0</asrwt>
<pdfrwt beam="1">  1       21 0.56111693E-01 0.61393361E+03</pdfrwt>
<pdfrwt beam="2">  1       21 0.19337893E+00 0.61393361E+03</pdfrwt>
<totfact> 0.33872975E+02</totfact>
</mgrwt>
</event>
<event>
 4    1  0.4862039E-002  0.5028520E+03  0.7818608E-02  0.1013037E+00
         21   -1    0    0  503  502  0.00000000000E+00  0.00000000000E+00  0.13291014650E+03  0.13291014650E+03  0.00000000000E+00 0. -1.
         21   -1    0    0  501  503 -0.00000000000E+00 -0.00000000000E+00 -0.20112444156E+04  0.20112444156E+04  0.00000000000E+00 0. -1.
    9000007    1    1    2  501    0 -0.24946053912E+03  0.17501320336E+03 -0.68986972953E+03  0.85368637429E+03  0.40000000000E+03 0. -1.
   -9000007    1    1    2    0  502  0.24946053912E+03 -0.17501320336E+03 -0.11884645395E+04  0.12904681878E+04  0.40000000000E+03 0. -1.
<mgrwt>
<rscale>  2 0.50285205E+03</rscale>
<asrwt>0</asrwt>
<pdfrwt beam="1">  1       21 0.20447717E-01 0.50285205E+03</pdfrwt>
<pdfrwt beam="2">  1       21 0.30942219E+00 0.50285205E+03</pdfrwt>
<totfact> 0.51575915E+02</totfact>
</mgrwt>
</event>
<event>
 4    1  0.4862039E-002  0.4224813E+03  0.7818608E-02  0.1036262E+00
         21   -1    0    0  503  502  0.00000000000E+00  0.00000000000E+00  0.94305453161E+03  0.94305453161E+03  0.00000000000E+00 0.  1.
         21   -1    0    0  501  503 -0.00000000000E+00 -0.00000000000E+00 -0.23736347170E+03  0.23736347170E+03  0.00000000000E+00 0.  1.
    9000007    1    1    2  501    0  0.13575247410E+03 -0.78557190808E+01  0.87171527572E+02  0.43138071557E+03  0.40000000000E+03 0.  1.
   -9000007    1    1    2    0  502 -0.13575247410E+03  0.78557190808E+01  0.61851953234E+03  0.74903728774E+03  0.40000000000E+03 0.  1.
<mgrwt>
<rscale>  2 0.42248130E+03</rscale>
<asrwt>0</asrwt>
<pdfrwt beam="1">  1       21 0.14508531E+00 0.42248130E+03</pdfrwt>
<pdfrwt beam="2">  1       21 0.36517458E-01 0.42248130E+03</pdfrwt>
<totfact> 0.20445909E+03</totfact>
</mgrwt>
</event>
<event>
 4    1  0.4862039E-002  0.5118800E+03  0.7818608E-02  0.1010724E+00
         21   -1    0    0  503  502  0.00000000000E+00  0.00000000000E+00  0.23655227279E+04  0.23655227279E+04  0.00000000000E+00 0.  1.
         21   -1    0    0  501  503 -0.00000000000E+00 -0.00000000000E+00 -0.12778819587E+03  0.12778819587E+03  0.00000000000E+00 0.  1.
    9000007    1    1    2  501    0 -0.10365535975E+03 -0.30212027830E+03  0.66387898879E+03  0.83830567690E+03  0.40000000000E+03 0.  1.
   -9000007    1    1    2    0  502  0.10365535975E+03  0.30212027830E+03  0.15738555432E+04  0.16550052469E+04  0.40000000000E+03 0.  1.
<mgrwt>
<rscale>  2 0.51187996E+03</rscale>
<asrwt>0</asrwt>
<pdfrwt beam="1">  1       21 0.36392654E+00 0.51187996E+03</pdfrwt>
<pdfrwt beam="2">  1       21 0.19659724E-01 0.51187996E+03</pdfrwt>
<totfact> 0.25657754E+02</totfact>
</mgrwt>
</event>
<event>
 4    1  0.4862039E-002  0.4860155E+03  0.7818608E-02  0.1017495E+00
         21   -1    0    0  501  502  0.00000000000E+00  0.00000000000E+00  0.51490471152E+03  0.51490471152E+03  0.00000000000E+00 0. -1.
         21   -1    0    0  502  503 -0.00000000000E+00 -0.00000000000E+00 -0.61549183310E+03  0.61549183310E+03  0.00000000000E+00 0. -1.
    9000007    1    1    2  501    0  0.30578587096E+02  0.27436481156E+03  0.23493039857E+03  0.53981792484E+03  0.40000000000E+03 0. -1.
   -9000007    1    1    2    0  503 -0.30578587096E+02 -0.27436481156E+03 -0.33551752015E+03  0.59057861978E+03  0.40000000000E+03 0. -1.
<mgrwt>
<rscale>  2 0.48601553E+03</rscale>
<asrwt>0</asrwt>
<pdfrwt beam="1">  1       21 0.79216110E-01 0.48601553E+03</pdfrwt>
<pdfrwt beam="2">  1       21 0.94691051E-01 0.48601553E+03</pdfrwt>
<totfact> 0.11032509E+03</totfact>
</mgrwt>
</event>
<event>
 4    1  0.4862039E-002  0.7433182E+03  0.7818608E-02  0.9645892E-01
         21   -1    0    0  503  502  0.00000000000E+00  0.00000000000E+00  0.12580869034E+04  0.12580869034E+04  0.00000000000E+00 0.  1.
         21   -1    0    0  501  503 -0.00000000000E+00 -0.00000000000E+00 -0.55536570822E+03  0.55536570822E+03  0.00000000000E+00 0. -1.
    9000007    1    1    2  501    0 -0.19278967903E+03  0.59611589263E+03 -0.63373608901E+02  0.74601490072E+03  0.40000000000E+03 0. -1.
   -9000007    1    1    2    0  502  0.19278967903E+03 -0.59611589263E+03  0.76609480405E+03  0.10674377109E+04  0.40000000000E+03 0.  1.
<mgrwt>
<rscale>  2 0.74331825E+03</rscale>
<asrwt>0</asrwt>
<pdfrwt beam="1">  1       21 0.19355183E+00 0.74331825E+03</pdfrwt>
<pdfrwt beam="2">  1       21 0.85440878E-01 0.74331825E+03</pdfrwt>
<totfact> 0.12443934E+02</totfact>
</mgrwt>
</event>
<event>
 4    1  0.4862039E-002  0.4162598E+03  0.7818608E-02  0.1038291E+00
         21   -1    0    0  501  502  0.00000000000E+00  0.00000000000E+00  0.38905481707E+03  0.38905481707E+03  0.00000000000E+00 0.  1.
         21   -1    0    0  502  503 -0.00000000000E+00 -0.00000000000E+00 -0.44545827553E+03  0.44545827553E+03  0.00000000000E+00 0.  1.
    9000007    1    1    2  501    0 -0.73418210537E+02 -0.88780392418E+02 -0.34173251433E+02  0.41766015231E+03  0.40000000000E+03 0. -1.
   -9000007    1    1    2    0  503  0.73418210537E+02  0.88780392418E+02 -0.22230207029E+02  0.41685294028E+03  0.40000000000E+03 0. -1.
<mgrwt>
<rscale>  2 0.41625976E+03</rscale>
<asrwt>0</asrwt>
<pdfrwt beam="1">  1       21 0.59854587E-01 0.41625976E+03</pdfrwt>
<pdfrwt beam="2">  1       21 0.68532042E-01 0.41625976E+03</pdfrwt>
<totfact> 0.44918682E+03</totfact>
</mgrwt>
</event>
<event>
 4    1  0.4862039E-002  0.5085903E+03  0.7818608E-02  0.1011561E+00
         21   -1    0    0  501  502  0.00000000000E+00  0.00000000000E+00  0.14468390046E+03  0.14468390046E+03  0.00000000000E+00 0. -1.
         21   -1    0    0  502  503 -0.00000000000E+00 -0.00000000000E+00 -0.20971892166E+04  0.20971892166E+04  0.00000000000E+00 0. -1.
    9000007    1    1    2  501    0 -0.29928690919E+03  0.95349059953E+02 -0.54570280385E+03  0.74595954809E+03  0.40000000000E+03 0. -1.
   -9000007    1    1    2    0  503  0.29928690919E+03 -0.95349059953E+02 -0.14068025123E+04  0.14959135690E+04  0.40000000000E+03 0. -1.
<mgrwt>
<rscale>  2 0.50859030E+03</rscale>
<asrwt>0</asrwt>
<pdfrwt beam="1">  1       21 0.22259062E-01 0.50859030E+03</pdfrwt>
<pdfrwt beam="2">  1       21 0.32264449E+00 0.50859030E+03</pdfrwt>
<totfact> 0.36331512E+02</totfact>
</mgrwt>
</event>
<event>
 4    1  0.4862039E-002  0.4473641E+03  0.7818608E-02  0.1028511E+00
         21   -1    0    0  503  502  0.00000000000E+00  0.00000000000E+00  0.11615100367E+04  0.11615100367E+04  0.00000000000E+00 0.  1.
         21   -1    0    0  501  503 -0.00000000000E+00 -0.00000000000E+00 -0.26209760048E+03  0.26209760048E+03  0.00000000000E+00 0.  1.
    9000007    1    1    2  501    0  0.14280554161E+03  0.14050346727E+03  0.33078949760E+02  0.44858540318E+03  0.40000000000E+03 0.  1.
   -9000007    1    1    2    0  502 -0.14280554161E+03 -0.14050346727E+03  0.86633348646E+03  0.97502223400E+03  0.40000000000E+03 0.  1.
<mgrwt>
<rscale>  2 0.44736411E+03</rscale>
<asrwt>0</asrwt>
<pdfrwt beam="1">  1       21 0.17869385E+00 0.44736411E+03</pdfrwt>
<pdfrwt beam="2">  1       21 0.40322708E-01 0.44736411E+03</pdfrwt>
<totfact> 0.92346025E+02</totfact>
</mgrwt>
</event>
<event>
 4    1  0.4862039E-002  0.4792219E+03  0.7818608E-02  0.1019349E+00
         21   -1    0    0  501  502  0.00000000000E+00  0.00000000000E+00  0.15119037313E+03  0.15119037313E+03  0.00000000000E+00 0.  1.
         21   -1    0    0  502  503 -0.00000000000E+00 -0.00000000000E+00 -0.16654241711E+04  0.16654241711E+04  0.00000000000E+00 0. -1.
    9000007    1    1    2  501    0  0.81949923670E+02 -0.25087416563E+03 -0.48776423683E+03  0.68378913979E+03  0.40000000000E+03 0.  1.
   -9000007    1    1    2    0  503 -0.81949923670E+02  0.25087416563E+03 -0.10264695611E+04  0.11328254044E+04  0.40000000000E+03 0.  1.
<mgrwt>
<rscale>  2 0.47922191E+03</rscale>
<asrwt>0</asrwt>
<pdfrwt beam="1">  1       21 0.23260056E-01 0.47922191E+03</pdfrwt>
<pdfrwt beam="2">  1       21 0.25621912E+00 0.47922191E+03</pdfrwt>
<totfact> 0.85584283E+02</totfact>
</mgrwt>
</event>
<event>
 4    1  0.4862039E-002  0.5388534E+03  0.7818608E-02  0.1004107E+00
         21   -1    0    0  501  502  0.00000000000E+00  0.00000000000E+00  0.47375055670E+03  0.47375055670E+03  0.00000000000E+00 0. -1.
         21   -1    0    0  502  503 -0.00000000000E+00 -0.00000000000E+00 -0.10329831155E+04  0.10329831155E+04  0.00000000000E+00 0.  1.
    9000007    1    1    2  501    0 -0.22955566341E+03  0.27868832832E+03 -0.76004184861E+03  0.93167945055E+03  0.40000000000E+03 0.  1.
   -9000007    1    1    2    0  503  0.22955566341E+03 -0.27868832832E+03  0.20080928982E+03  0.57505422164E+03  0.40000000000E+03 0. -1.
<mgrwt>
<rscale>  2 0.53885340E+03</rscale>
<asrwt>0</asrwt>
<pdfrwt beam="1">  1       21 0.72884702E-01 0.53885340E+03</pdfrwt>
<pdfrwt beam="2">  1       21 0.15892048E+00 0.53885340E+03</pdfrwt>
<totfact> 0.34494058E+02</totfact>
</mgrwt>
</event>
<event>
 4    1  0.4862039E-002  0.4564794E+03  0.7818608E-02  0.1025807E+00
         21   -1    0    0  503  502  0.00000000000E+00  0.00000000000E+00  0.22930168343E+03  0.22930168343E+03  0.00000000000E+00 0. -1.
         21   -1    0    0  501  503 -0.00000000000E+00 -0.00000000000E+00 -0.11755387515E+04  0.11755387515E+04  0.00000000000E+00 0. -1.
    9000007    1    1    2  501    0 -0.98365566648E+02 -0.19671711378E+03 -0.13847822831E+03  0.47702162139E+03  0.40000000000E+03 0. -1.
   -9000007    1    1    2    0  502  0.98365566648E+02  0.19671711378E+03 -0.80775883972E+03  0.92781881351E+03  0.40000000000E+03 0. -1.
<mgrwt>
<rscale>  2 0.45647936E+03</rscale>
<asrwt>0</asrwt>
<pdfrwt beam="1">  1       21 0.35277182E-01 0.45647936E+03</pdfrwt>
<pdfrwt beam="2">  1       21 0.18085212E+00 0.45647936E+03</pdfrwt>
<totfact> 0.11670058E+03</totfact>
</mgrwt>
</event>
<event>
 4    1  0.4862039E-002  0.4018149E+03  0.7818608E-02  0.1043153E+00
         21   -1    0    0  503  502  0.00000000000E+00  0.00000000000E+00  0.10466040666E+03  0.10466040666E+03  0.00000000000E+00 0. -1.
         21   -1    0    0  501  503 -0.00000000000E+00 -0.00000000000E+00 -0.23688345132E+04  0.23688345132E+04  0.00000000000E+00 0. -1.
    9000007    1    1    2  501    0  0.17449850116E+02 -0.33921780501E+02 -0.18624692214E+04  0.19053206515E+04  0.40000000000E+03 0. -1.
   -9000007    1    1    2    0  502 -0.17449850116E+02  0.33921780501E+02 -0.40170488514E+03  0.56817426835E+03  0.40000000000E+03 0. -1.
<mgrwt>
<rscale>  2 0.40181486E+03</rscale>
<asrwt>0</asrwt>
<pdfrwt beam="1">  1       21 0.16101600E-01 0.40181486E+03</pdfrwt>
<pdfrwt beam="2">  1       21 0.36443610E+00 0.40181486E+03</pdfrwt>
<totfact> 0.39743444E+02</totfact>
</mgrwt>
</event>
<event>
 4    1  0.4862039E-002  0.5050596E+03  0.7818608E-02  0.1012467E+00
         21   -1    0    0  503  502  0.00000000000E+00  0.00000000000E+00  0.41714909509E+03  0.41714909509E+03  0.00000000000E+00 0. -1.
         21   -1    0    0  501  503 -0.00000000000E+00 -0.00000000000E+00 -0.62397640638E+03  0.62397640638E+03  0.00000000000E+00 0.  1.
    9000007    1    1    2  501    0  0.13115487793E+03  0.27907640392E+03 -0.17703325225E+03  0.53518783023E+03  0.40000000000E+03 0.  1.
   -9000007    1    1    2    0  502 -0.13115487793E+03 -0.27907640392E+03 -0.29794059039E+02  0.50593767124E+03  0.40000000000E+03 0. -1.
<mgrwt>
<rscale>  2 0.50505964E+03</rscale>
<asrwt>0</asrwt>
<pdfrwt beam="1">  1       21 0.64176784E-01 0.50505964E+03</pdfrwt>
<pdfrwt beam="2">  1       21 0.95996370E-01 0.50505964E+03</pdfrwt>
<totfact> 0.17082712E+03</totfact>
</mgrwt>
</event>
<event>
 4    1  0.4862039E-002  0.4445272E+03  0.7818608E-02  0.1029367E+00
         21   -1    0    0  501  502  0.00000000000E+00  0.00000000000E+00  0.76812405240E+03  0.76812405240E+03  0.00000000000E+00 0. -1.
         21   -1    0    0  502  503 -0.00000000000E+00 -0.00000000000E+00 -0.28706429696E+03  0.28706429696E+03  0.00000000000E+00 0.  1.
    9000007    1    1    2  501    0 -0.84132041446E+02  0.17471761752E+03  0.41054192376E+03  0.60510256770E+03  0.40000000000E+03 0. -1.
   -9000007    1    1    2    0  503  0.84132041446E+02 -0.17471761752E+03  0.70517831670E+02  0.45008578166E+03  0.40000000000E+03 0.  1.
<mgrwt>
<rscale>  2 0.44452722E+03</rscale>
<asrwt>0</asrwt>
<pdfrwt beam="1">  1       21 0.11817293E+00 0.44452722E+03</pdfrwt>
<pdfrwt beam="2">  1       21 0.44163738E-01 0.44452722E+03</pdfrwt>
<totfact> 0.23370729E+03</totfact>
</mgrwt>
</event>
<event>
 4    1  0.4862039E-002  0.5493535E+03  0.7818608E-02  0.1001644E+00
         21   -1    0    0  501  502  0.00000000000E+00  0.00000000000E+00  0.80573410695E+03  0.80573410695E+03  0.00000000000E+00 0. -1.
         21   -1    0    0  502  503 -0.00000000000E+00 -0.00000000000E+00 -0.10597745529E+04  0.10597745529E+04  0.00000000000E+00 0.  1.
    9000007    1    1    2  501    0 -0.98429090170E+01  0.37642054751E+03  0.62300584551E+03  0.83061759853E+03  0.40000000000E+03 0. -1.
   -9000007    1    1    2    0  503  0.98429090170E+01 -0.37642054751E+03 -0.87704629150E+03  0.10348910614E+04  0.40000000000E+03 0.  1.
<mgrwt>
<rscale>  2 0.54935354E+03</rscale>
<asrwt>0</asrwt>
<pdfrwt beam="1">  1       21 0.12395909E+00 0.54935354E+03</pdfrwt>
<pdfrwt beam="2">  1       21 0.16304224E+00 0.54935354E+03</pdfrwt>
<totfact> 0.88586788E+01</totfact>
</mgrwt>
</event>
<event>
 4    1  0.4862039E-002  0.4785032E+03  0.7818608E-02  0.1019547E+00
         21   -1    0    0  503  502  0.00000000000E+00  0.00000000000E+00  0.15227398526E+03  0.15227398526E+03  0.00000000000E+00 0. -1.
         21   -1    0    0  501  503 -0.00000000000E+00 -0.00000000000E+00 -0.23247925002E+04  0.23247925002E+04  0.00000000000E+00 0.  1.
    9000007    1    1    2  501    0  0.16157447485E+03  0.20702409138E+03 -0.18223433413E+04  0.18841179737E+04  0.40000000000E+03 0.  1.
   -9000007    1    1    2    0  502 -0.16157447485E+03 -0.20702409138E+03 -0.35017517363E+03  0.59294851173E+03  0.40000000000E+03 0. -1.
<mgrwt>
<rscale>  2 0.47850317E+03</rscale>
<asrwt>0</asrwt>
<pdfrwt beam="1">  1       21 0.23426768E-01 0.47850317E+03</pdfrwt>
<pdfrwt beam="2">  1       21 0.35766037E+00 0.47850317E+03</pdfrwt>
<totfact> 0.20434753E+02</totfact>
</mgrwt>
</event>
<event>
 4    1  0.4862039E-002  0.4258444E+03  0.7818608E-02  0.1035181E+00
         21   -1    0    0  503  502  0.00000000000E+00  0.00000000000E+00  0.24545043912E+03  0.24545043912E+03  0.00000000000E+00 0.  1.
         21   -1    0    0  501  503 -0.00000000000E+00 -0.00000000000E+00 -0.11387820065E+04  0.11387820065E+04  0.00000000000E+00 0.  1.
    9000007    1    1    2  501    0  0.67313660640E+02  0.12966237185E+03 -0.85684024585E+03  0.95682739640E+03  0.40000000000E+03 0.  1.
   -9000007    1    1    2    0  502 -0.67313660640E+02 -0.12966237185E+03 -0.36491321566E+02  0.42740504926E+03  0.40000000000E+03 0.  1.
<mgrwt>
<rscale>  2 0.42584441E+03</rscale>
<asrwt>0</asrwt>
<pdfrwt beam="1">  1       21 0.37761605E-01 0.42584441E+03</pdfrwt>
<pdfrwt beam="2">  1       21 0.17519724E+00 0.42584441E+03</pdfrwt>
<totfact> 0.11298507E+03</totfact>
</mgrwt>
</event>
<event>
 4    1  0.4862039E-002  0.4428582E+03  0.7818608E-02  0.1029873E+00
         21   -1    0    0  503  502  0.00000000000E+00  0.00000000000E+00  0.21958813001E+03  0.21958813001E+03  0.00000000000E+00 0.  1.
         21   -1    0    0  501  503 -0.00000000000E+00 -0.00000000000E+00 -0.17171188796E+04  0.17171188796E+04  0.00000000000E+00 0.  1.
    9000007    1    1    2  501    0 -0.18713971993E+03 -0.33197723474E+02 -0.14195626373E+04  0.14870378088E+04  0.40000000000E+03 0.  1.
   -9000007    1    1    2    0  502  0.18713971993E+03  0.33197723474E+02 -0.77968112310E+02  0.44966920081E+03  0.40000000000E+03 0.  1.
<mgrwt>
<rscale>  2 0.44285818E+03</rscale>
<asrwt>0</asrwt>
<pdfrwt beam="1">  1       21 0.33782788E-01 0.44285818E+03</pdfrwt>
<pdfrwt beam="2">  1       21 0.26417214E+00 0.44285818E+03</pdfrwt>
<totfact> 0.37360609E+02</totfact>
</mgrwt>
</event>
<event>
 4    1  0.4862039E-002  0.4351979E+03  0.7818608E-02  0.1032230E+00
         21   -1    0    0  503  502  0.00000000000E+00  0.00000000000E+00  0.26909456038E+03  0.26909456038E+03  0.00000000000E+00 0. -1.
         21   -1    0    0  501  503 -0.00000000000E+00 -0.00000000000E+00 -0.94723158579E+03  0.94723158579E+03  0.00000000000E+00 0.  1.
    9000007    1    1    2  501    0  0.10289946021E+03 -0.13714550646E+03 -0.64735355567E+03  0.78004090591E+03  0.40000000000E+03 0.  1.
   -9000007    1    1    2    0  502 -0.10289946021E+03  0.13714550646E+03 -0.30783469744E+02  0.43628524025E+03  0.40000000000E+03 0. -1.
<mgrwt>
<rscale>  2 0.43519787E+03</rscale>
<asrwt>0</asrwt>
<pdfrwt beam="1">  1       21 0.41399164E-01 0.43519787E+03</pdfrwt>
<pdfrwt beam="2">  1       21 0.14572793E+00 0.43519787E+03</pdfrwt>
<totfact> 0.15539727E+03</totfact>
</mgrwt>
</event>
<event>
 4    1  0.4862039E-002  0.4022016E+03  0.7818608E-02  0.1043020E+00
         21   -1    0    0  501  502  0.00000000000E+00  0.00000000000E+00  0.22474383727E+04  0.22474383727E+04  0.00000000000E+00 0.  1.
         21   -1    0    0  502  503 -0.00000000000E+00 -0.00000000000E+00 -0.82583894290E+02  0.82583894290E+02  0.00000000000E+00 0.  1.
    9000007    1    1    2  501    0  0.35248795947E+02  0.22884232838E+02  0.14999264124E+04  0.15529151323E+04  0.40000000000E+03 0.  1.
   -9000007    1    1    2    0  503 -0.35248795947E+02 -0.22884232838E+02  0.66492806611E+03  0.77710713471E+03  0.40000000000E+03 0.  1.
<mgrwt>
<rscale>  2 0.40220165E+03</rscale>
<asrwt>0</asrwt>
<pdfrwt beam="1">  1       21 0.34575970E+00 0.40220165E+03</pdfrwt>
<pdfrwt beam="2">  1       21 0.12705216E-01 0.40220165E+03</pdfrwt>
<totfact> 0.80057117E+02</totfact>
</mgrwt>
</event>
<event>
 4    1  0.4862039E-002  0.4000744E+03  0.7818608E-02  0.1043754E+00
         21   -1    0    0  501  502  0.00000000000E+00  0.00000000000E+00  0.15570648571E+03  0.15570648571E+03  0.00000000000E+00 0. -1.
         21   -1    0    0  502  503 -0.00000000000E+00 -0.00000000000E+00 -0.11274179221E+04  0.11274179221E+04  0.00000000000E+00 0. -1.
    9000007    1    1    2  501    0 -0.58858617038E+01  0.49904085640E+01 -0.67641183144E+03  0.78587054485E+03  0.40000000000E+03 0. -1.
   -9000007    1    1    2    0  503  0.58858617038E+01 -0.49904085640E+01 -0.29529960495E+03  0.49725386296E+03  0.40000000000E+03 0. -1.
<mgrwt>
<rscale>  2 0.40007443E+03</rscale>
<asrwt>0</asrwt>
<pdfrwt beam="1">  1       21 0.23954844E-01 0.40007443E+03</pdfrwt>
<pdfrwt beam="2">  1       21 0.17344891E+00 0.40007443E+03</pdfrwt>
<totfact> 0.29033489E+03</totfact>
</mgrwt>
</event>
<event>
 4    1  0.4862039E-002  0.4324695E+03  0.7818608E-02  0.1033083E+00
         21   -1    0    0  503  502  0.00000000000E+00  0.00000000000E+00  0.14611381181E+03  0.14611381181E+03  0.00000000000E+00 0.  1.
         21   -1    0    0  501  503 -0.00000000000E+00 -0.00000000000E+00 -0.12957336757E+04  0.12957336757E+04  0.00000000000E+00 0.  1.
    9000007    1    1    2  501    0 -0.17795395137E+02 -0.16344162813E+03 -0.49544055075E+03  0.65764061707E+03  0.40000000000E+03 0.  1.
   -9000007    1    1    2    0  502  0.17795395137E+02  0.16344162813E+03 -0.65417931313E+03  0.78420687042E+03  0.40000000000E+03 0.  1.
<mgrwt>
<rscale>  2 0.43246947E+03</rscale>
<asrwt>0</asrwt>
<pdfrwt beam="1">  1       21 0.22479047E-01 0.43246947E+03</pdfrwt>
<pdfrwt beam="2">  1       21 0.19934365E+00 0.43246947E+03</pdfrwt>
<totfact> 0.21437734E+03</totfact>
</mgrwt>
</event>
<event>
 4    1  0.4862039E-002  0.7038033E+03  0.7818608E-02  0.9710750E-01
         21   -1    0    0  503  502  0.00000000000E+00  0.00000000000E+00  0.60125321075E+03  0.60125321075E+03  0.00000000000E+00 0. -1.
         21   -1    0    0  501  503 -0.00000000000E+00 -0.00000000000E+00 -0.82450846349E+03  0.82450846349E+03  0.00000000000E+00 0.  1.
    9000007    1    1    2  501    0 -0.55452365281E+03  0.16686123405E+03 -0.91397886386E+02  0.70971312979E+03  0.40000000000E+03 0. -1.
   -9000007    1    1    2    0  502  0.55452365281E+03 -0.16686123405E+03 -0.13185736635E+03  0.71604854446E+03  0.40000000000E+03 0. -1.
<mgrwt>
<rscale>  2 0.70380335E+03</rscale>
<asrwt>0</asrwt>
<pdfrwt beam="1">  1       21 0.92500494E-01 0.70380335E+03</pdfrwt>
<pdfrwt beam="2">  1       21 0.12684746E+00 0.70380335E+03</pdfrwt>
<totfact> 0.34283331E+02</totfact>
</mgrwt>
</event>
<event>
 4    1  0.4862039E-002  0.5811456E+03  0.7818608E-02  0.9945314E-01
         21   -1    0    0  501  502  0.00000000000E+00  0.00000000000E+00  0.47459453918E+03  0.47459453918E+03  0.00000000000E+00 0.  1.
         21   -1    0    0  502  503 -0.00000000000E+00 -0.00000000000E+00 -0.79086364835E+03  0.79086364835E+03  0.00000000000E+00 0. -1.
    9000007    1    1    2  501    0 -0.22134955483E+03  0.35879609598E+03  0.42152685466E+02  0.58267238892E+03  0.40000000000E+03 0. -1.
   -9000007    1    1    2    0  503  0.22134955483E+03 -0.35879609598E+03 -0.35842179464E+03  0.68278579861E+03  0.40000000000E+03 0. -1.
<mgrwt>
<rscale>  2 0.58114565E+03</rscale>
<asrwt>0</asrwt>
<pdfrwt beam="1">  1       21 0.73014545E-01 0.58114565E+03</pdfrwt>
<pdfrwt beam="2">  1       21 0.12167133E+00 0.58114565E+03</pdfrwt>
<totfact> 0.69077090E+02</totfact>
</mgrwt>
</event>
<event>
 4    1  0.4862039E-002  0.4046778E+03  0.7818608E-02  0.1042172E+00
         21   -1    0    0  501  502  0.00000000000E+00  0.00000000000E+00  0.16292498324E+04  0.16292498324E+04  0.00000000000E+00 0.  1.
         21   -1    0    0  502  503 -0.00000000000E+00 -0.00000000000E+00 -0.18816022435E+03  0.18816022435E+03  0.00000000000E+00 0.  1.
    9000007    1    1    2  501    0 -0.66849937020E+01  0.60986835092E+02  0.13407324251E+04  0.14004740336E+04  0.40000000000E+03 0.  1.
   -9000007    1    1    2    0  503  0.66849937020E+01 -0.60986835092E+02  0.10035718296E+03  0.41693602311E+03  0.40000000000E+03 0.  1.
<mgrwt>
<rscale>  2 0.40467775E+03</rscale>
<asrwt>0</asrwt>
<pdfrwt beam="1">  1       21 0.25065381E+00 0.40467775E+03</pdfrwt>
<pdfrwt beam="2">  1       21 0.28947728E-01 0.40467775E+03</pdfrwt>
<totfact> 0.62791599E+02</totfact>
</mgrwt>
</event>
<event>
 4    1  0.4862039E-002  0.4956489E+03  0.7818608E-02  0.1014921E+00
         21   -1    0    0  501  502  0.00000000000E+00  0.00000000000E+00  0.18915513709E+04  0.18915513709E+04  0.00000000000E+00 0. -1.
         21   -1    0    0  502  503 -0.00000000000E+00 -0.00000000000E+00 -0.29908069080E+03  0.29908069080E+03  0.00000000000E+00 0.  1.
    9000007    1    1    2  501    0 -0.26596562594E+03  0.12218895701E+03  0.16200906796E+04  0.16942141734E+04  0.40000000000E+03 0. -1.
   -9000007    1    1    2    0  503  0.26596562594E+03 -0.12218895701E+03 -0.27619999495E+02  0.49641788824E+03  0.40000000000E+03 0.  1.
<mgrwt>
<rscale>  2 0.49564892E+03</rscale>
<asrwt>0</asrwt>
<pdfrwt beam="1">  1       21 0.29100790E+00 0.49564892E+03</pdfrwt>
<pdfrwt beam="2">  1       21 0.46012415E-01 0.49564892E+03</pdfrwt>
<totfact> 0.13207817E+02</totfact>
</mgrwt>
</event>
<event>
 4    1  0.4862039E-002  0.4414707E+03  0.7818608E-02  0.1030297E+00
         21   -1    0    0  501  502  0.00000000000E+00  0.00000000000E+00  0.44191868610E+03  0.44191868610E+03  0.00000000000E+00 0. -1.
         21   -1    0    0  502  503 -0.00000000000E+00 -0.00000000000E+00 -0.46734043046E+03  0.46734043046E+03  0.00000000000E+00 0. -1.
    9000007    1    1    2  501    0 -0.13629740340E+03 -0.12774729694E+03 -0.12059605752E+03  0.45764589274E+03  0.40000000000E+03 0. -1.
   -9000007    1    1    2    0  503  0.13629740340E+03  0.12774729694E+03  0.95174313155E+02  0.45161322383E+03  0.40000000000E+03 0. -1.
<mgrwt>
<rscale>  2 0.44147067E+03</rscale>
<asrwt>0</asrwt>
<pdfrwt beam="1">  1       21 0.67987490E-01 0.44147067E+03</pdfrwt>
<pdfrwt beam="2">  1       21 0.71898528E-01 0.44147067E+03</pdfrwt>
<totfact> 0.30143131E+03</totfact>
</mgrwt>
</event>
<event>
 4    1  0.4862039E-002  0.4333316E+03  0.7818608E-02  0.1032813E+00
         21   -1    0    0  501  502  0.00000000000E+00  0.00000000000E+00  0.20318484686E+04  0.20318484686E+04  0.00000000000E+00 0.  1.
         21   -1    0    0  502  503 -0.00000000000E+00 -0.00000000000E+00 -0.10531329717E+03  0.10531329717E+03  0.00000000000E+00 0.  1.
    9000007    1    1    2  501    0 -0.93743672179E+02 -0.13779833664E+03  0.13372121976E+04  0.14056716256E+04  0.40000000000E+03 0.  1.
   -9000007    1    1    2    0  503  0.93743672179E+02  0.13779833664E+03  0.58932297384E+03  0.73149014016E+03  0.40000000000E+03 0.  1.
<mgrwt>
<rscale>  2 0.43333158E+03</rscale>
<asrwt>0</asrwt>
<pdfrwt beam="1">  1       21 0.31259204E+00 0.43333158E+03</pdfrwt>
<pdfrwt beam="2">  1       21 0.16202047E-01 0.43333158E+03</pdfrwt>
<totfact> 0.79552679E+02</totfact>
</mgrwt>
</event>
<event>
 4    1  0.4862039E-002  0.4139596E+03  0.7818608E-02  0.1039050E+00
         21   -1    0    0  501  502  0.00000000000E+00  0.00000000000E+00  0.40630448454E+03  0.40630448454E+03  0.00000000000E+00 0. -1.
         21   -1    0    0  502  503 -0.00000000000E+00 -0.00000000000E+00 -0.98076140433E+03  0.98076140433E+03  0.00000000000E+00 0. -1.
    9000007    1    1    2  501    0 -0.83180350314E+02  0.66660103194E+02  0.23636267170E+03  0.47668632518E+03  0.40000000000E+03 0. -1.
   -9000007    1    1    2    0  503  0.83180350314E+02 -0.66660103194E+02 -0.81081959149E+03  0.91037956369E+03  0.40000000000E+03 0. -1.
<mgrwt>
<rscale>  2 0.41395959E+03</rscale>
<asrwt>0</asrwt>
<pdfrwt beam="1">  1       21 0.62508383E-01 0.41395959E+03</pdfrwt>
<pdfrwt beam="2">  1       21 0.15088637E+00 0.41395959E+03</pdfrwt>
<totfact> 0.59332981E+02</totfact>
</mgrwt>
</event>
<event>
 4    1  0.4862039E-002  0.4266807E+03  0.7818608E-02  0.1034914E+00
         21   -1    0    0  503  502  0.00000000000E+00  0.00000000000E+00  0.20587623879E+03  0.20587623879E+03  0.00000000000E+00 0. -1.
         21   -1    0    0  501  503 -0.00000000000E+00 -0.00000000000E+00 -0.11567307975E+04  0.11567307975E+04  0.00000000000E+00 0. -1.
    9000007    1    1    2  501    0  0.10200386977E+03 -0.10794262998E+03 -0.80606501442E+03  0.91202917074E+03  0.40000000000E+03 0. -1.
   -9000007    1    1    2    0  502 -0.10200386977E+03  0.10794262998E+03 -0.14478954434E+03  0.45057786559E+03  0.40000000000E+03 0. -1.
<mgrwt>
<rscale>  2 0.42668068E+03</rscale>
<asrwt>0</asrwt>
<pdfrwt beam="1">  1       21 0.31673267E-01 0.42668068E+03</pdfrwt>
<pdfrwt beam="2">  1       21 0.17795859E+00 0.42668068E+03</pdfrwt>
<totfact> 0.15393656E+03</totfact>
</mgrwt>
</event>
<event>
 4    1  0.4862039E-002  0.4543992E+03  0.7818608E-02  0.1026418E+00
         21   -1    0    0  501  502  0.00000000000E+00  0.00000000000E+00  0.37917809289E+03  0.37917809289E+03  0.00000000000E+00 0.  1.
         21   -1    0    0  502  503 -0.00000000000E+00 -0.00000000000E+00 -0.10223331481E+04  0.10223331481E+04  0.00000000000E+00 0.  1.
    9000007    1    1    2  501    0  0.17987287168E+03  0.11884593326E+03  0.15748165372E+03  0.48091483349E+03  0.40000000000E+03 0.  1.
   -9000007    1    1    2    0  503 -0.17987287168E+03 -0.11884593326E+03 -0.80063670887E+03  0.92059640745E+03  0.40000000000E+03 0.  1.
<mgrwt>
<rscale>  2 0.45439917E+03</rscale>
<asrwt>0</asrwt>
<pdfrwt beam="1">  1       21 0.58335091E-01 0.45439917E+03</pdfrwt>
<pdfrwt beam="2">  1       21 0.15728202E+00 0.45439917E+03</pdfrwt>
<totfact> 0.60452845E+02</totfact>
</mgrwt>
</event>
<event>
 4    1  0.4862039E-002  0.4095243E+03  0.7818608E-02  0.1040531E+00
         21   -1    0    0  501  502  0.00000000000E+00  0.00000000000E+00  0.58091094200E+03  0.58091094200E+03  0.00000000000E+00 0.  1.
         21   -1    0    0  502  503 -0.00000000000E+00 -0.00000000000E+00 -0.32665881453E+03  0.32665881453E+03  0.00000000000E+00 0.  1.
    9000007    1    1    2  501    0  0.10841615066E+02  0.87135636511E+02  0.28181085622E+03  0.49711921956E+03  0.40000000000E+03 0.  1.
   -9000007    1    1    2    0  503 -0.10841615066E+02 -0.87135636511E+02 -0.27558728754E+02  0.41045053697E+03  0.40000000000E+03 0.  1.
<mgrwt>
<rscale>  2 0.40952431E+03</rscale>
<asrwt>0</asrwt>
<pdfrwt beam="1">  1       21 0.89370914E-01 0.40952431E+03</pdfrwt>
<pdfrwt beam="2">  1       21 0.50255202E-01 0.40952431E+03</pdfrwt>
<totfact> 0.35665013E+03</totfact>
</mgrwt>
</event>
<event>
 4    1  0.4862039E-002  0.4962852E+03  0.7818608E-02  0.1014753E+00
         21   -1    0    0  501  502  0.00000000000E+00  0.00000000000E+00  0.18042782204E+04  0.18042782204E+04  0.00000000000E+00 0.  1.
         21   -1    0    0  502  503 -0.00000000000E+00 -0.00000000000E+00 -0.14641440602E+03  0.14641440602E+03  0.00000000000E+00 0. -1.
    9000007    1    1    2  501    0 -0.28774000008E+03 -0.59200836122E+02  0.57523376616E+03  0.75973214515E+03  0.40000000000E+03 0. -1.
   -9000007    1    1    2    0  503  0.28774000008E+03  0.59200836122E+02  0.10826300483E+04  0.11909604813E+04  0.40000000000E+03 0.  1.
<mgrwt>
<rscale>  2 0.49628525E+03</rscale>
<asrwt>0</asrwt>
<pdfrwt beam="1">  1       21 0.27758125E+00 0.49628525E+03</pdfrwt>
<pdfrwt beam="2">  1       21 0.22525294E-01 0.49628525E+03</pdfrwt>
<totfact> 0.66933564E+02</totfact>
</mgrwt>
</event>
<event>
 4    1  0.4862039E-002  0.4197980E+03  0.7818608E-02  0.1037132E+00
         21   -1    0    0  501  502  0.00000000000E+00  0.00000000000E+00  0.89304546421E+03  0.89304546421E+03  0.00000000000E+00 0.  1.
         21   -1    0    0  502  503 -0.00000000000E+00 -0.00000000000E+00 -0.20129102163E+03  0.20129102163E+03  0.00000000000E+00 0. -1.
    9000007    1    1    2  501    0 -0.28480913830E+02  0.12417404844E+03  0.42257139824E+03  0.59564833868E+03  0.40000000000E+03 0.  1.
   -9000007    1    1    2    0  503  0.28480913830E+02 -0.12417404844E+03  0.26918304434E+03  0.49868814716E+03  0.40000000000E+03 0.  1.
<mgrwt>
<rscale>  2 0.41979800E+03</rscale>
<asrwt>0</asrwt>
<pdfrwt beam="1">  1       21 0.13739161E+00 0.41979800E+03</pdfrwt>
<pdfrwt beam="2">  1       21 0.30967850E-01 0.41979800E+03</pdfrwt>
<totfact> 0.32966423E+03</totfact>
</mgrwt>
</event>
<event>
 4    1  0.4862039E-002  0.4209611E+03  0.7818608E-02  0.1036754E+00
         21   -1    0    0  503  502  0.00000000000E+00  0.00000000000E+00  0.10032069988E+04  0.10032069988E+04  0.00000000000E+00 0.  1.
         21   -1    0    0  501  503 -0.00000000000E+00 -0.00000000000E+00 -0.20409927987E+03  0.20409927987E+03  0.00000000000E+00 0.  1.
    9000007    1    1    2  501    0 -0.98583122619E+02 -0.86542691720E+02  0.62096385630E+03  0.75020289282E+03  0.40000000000E+03 0.  1.
   -9000007    1    1    2    0  502  0.98583122619E+02  0.86542691720E+02  0.17814386261E+03  0.45710338583E+03  0.40000000000E+03 0.  1.
<mgrwt>
<rscale>  2 0.42096113E+03</rscale>
<asrwt>0</asrwt>
<pdfrwt beam="1">  1       21 0.15433954E+00 0.42096113E+03</pdfrwt>
<pdfrwt beam="2">  1       21 0.31399890E-01 0.42096113E+03</pdfrwt>
<totfact> 0.23451505E+03</totfact>
</mgrwt>
</event>
<event>
 4    1  0.4862039E-002  0.6324396E+03  0.7818608E-02  0.9840300E-01
         21   -1    0    0  501  502  0.00000000000E+00  0.00000000000E+00  0.53618647494E+03  0.53618647494E+03  0.00000000000E+00 0. -1.
         21   -1    0    0  502  503 -0.00000000000E+00 -0.00000000000E+00 -0.75256176297E+03  0.75256176297E+03  0.00000000000E+00 0.  1.
    9000007    1    1    2  501    0  0.20717822147E+03  0.44391106086E+03 -0.16848765324E+03  0.65449823124E+03  0.40000000000E+03 0.  1.
   -9000007    1    1    2    0  503 -0.20717822147E+03 -0.44391106086E+03 -0.47887634791E+02  0.63425000668E+03  0.40000000000E+03 0. -1.
<mgrwt>
<rscale>  2 0.63243960E+03</rscale>
<asrwt>0</asrwt>
<pdfrwt beam="1">  1       21 0.82490227E-01 0.63243960E+03</pdfrwt>
<pdfrwt beam="2">  1       21 0.11577873E+00 0.63243960E+03</pdfrwt>
<totfact> 0.58175420E+02</totfact>
</mgrwt>
</event>
<event>
 4    1  0.4862039E-002  0.4272619E+03  0.7818608E-02  0.1034728E+00
         21   -1    0    0  503  502  0.00000000000E+00  0.00000000000E+00  0.26241525865E+03  0.26241525865E+03  0.00000000000E+00 0.  1.
         21   -1    0    0  501  503 -0.00000000000E+00 -0.00000000000E+00 -0.82167390734E+03  0.82167390734E+03  0.00000000000E+00 0. -1.
    9000007    1    1    2  501    0  0.22941298455E+02 -0.14841291435E+03 -0.49189931757E+03  0.65155017838E+03  0.40000000000E+03 0. -1.
   -9000007    1    1    2    0  502 -0.22941298455E+02  0.14841291435E+03 -0.67359331126E+02  0.43253898762E+03  0.40000000000E+03 0.  1.
<mgrwt>
<rscale>  2 0.42726186E+03</rscale>
<asrwt>0</asrwt>
<pdfrwt beam="1">  1       21 0.40371578E-01 0.42726186E+03</pdfrwt>
<pdfrwt beam="2">  1       21 0.12641137E+00 0.42726186E+03</pdfrwt>
<totfact> 0.23860713E+03</totfact>
</mgrwt>
</event>
<event>
 4    1  0.4862039E-002  0.6112088E+03  0.7818608E-02  0.9882420E-01
         21   -1    0    0  501  502  0.00000000000E+00  0.00000000000E+00  0.64895887615E+03  0.64895887615E+03  0.00000000000E+00 0. -1.
         21   -1    0    0  502  503 -0.00000000000E+00 -0.00000000000E+00 -0.62284716322E+03  0.62284716322E+03  0.00000000000E+00 0.  1.
    9000007    1    1    2  501    0 -0.41777979816E+03 -0.19757580946E+03  0.18809570926E+03  0.63949679912E+03  0.40000000000E+03 0. -1.
   -9000007    1    1    2    0  503  0.41777979816E+03  0.19757580946E+03 -0.16198399634E+03  0.63230924025E+03  0.40000000000E+03 0.  1.
<mgrwt>
<rscale>  2 0.61120877E+03</rscale>
<asrwt>0</asrwt>
<pdfrwt beam="1">  1       21 0.99839828E-01 0.61120877E+03</pdfrwt>
<pdfrwt beam="2">  1       21 0.95822640E-01 0.61120877E+03</pdfrwt>
<totfact> 0.59284968E+02</totfact>
</mgrwt>
</event>
<event>
 4    1  0.4862039E-002  0.5069896E+03  0.7818608E-02  0.1011970E+00
         21   -1    0    0  503  502  0.00000000000E+00  0.00000000000E+00  0.30067569211E+03  0.30067569211E+03  0.00000000000E+00 0.  1.
         21   -1    0    0  501  503 -0.00000000000E+00 -0.00000000000E+00 -0.95980468068E+03  0.95980468068E+03  0.00000000000E+00 0. -1.
    9000007    1    1    2  501    0  0.19388811763E+03  0.24381519062E+03 -0.53795379566E+03  0.73921088710E+03  0.40000000000E+03 0.  1.
   -9000007    1    1    2    0  502 -0.19388811763E+03 -0.24381519062E+03 -0.12117519291E+03  0.52126948569E+03  0.40000000000E+03 0. -1.
<mgrwt>
<rscale>  2 0.50698959E+03</rscale>
<asrwt>0</asrwt>
<pdfrwt beam="1">  1       21 0.46257799E-01 0.50698959E+03</pdfrwt>
<pdfrwt beam="2">  1       21 0.14766226E+00 0.50698959E+03</pdfrwt>
<totfact> 0.11560754E+03</totfact>
</mgrwt>
</event>
<event>
 4    1  0.4862039E-002  0.4294437E+03  0.7818608E-02  0.1034036E+00
         21   -1    0    0  501  502  0.00000000000E+00  0.00000000000E+00  0.13891485620E+03  0.13891485620E+03  0.00000000000E+00 0.  1.
         21   -1    0    0  502  503 -0.00000000000E+00 -0.00000000000E+00 -0.15458294927E+04  0.15458294927E+04  0.00000000000E+00 0.  1.
    9000007    1    1    2  501    0 -0.12389706408E+03 -0.95244128211E+02 -0.38694528184E+03  0.57805586026E+03  0.40000000000E+03 0.  1.
   -9000007    1    1    2    0  503  0.12389706408E+03  0.95244128211E+02 -0.10199693547E+04  0.11066884887E+04  0.40000000000E+03 0.  1.
<mgrwt>
<rscale>  2 0.42944374E+03</rscale>
<asrwt>0</asrwt>
<pdfrwt beam="1">  1       21 0.21371515E-01 0.42944374E+03</pdfrwt>
<pdfrwt beam="2">  1       21 0.23781994E+00 0.42944374E+03</pdfrwt>
<totfact> 0.13401070E+03</totfact>
</mgrwt>
</event>
<event>
 4    1  0.4862039E-002  0.4040622E+03  0.7818608E-02  0.1042382E+00
         21   -1    0    0  503  502  0.00000000000E+00  0.00000000000E+00  0.13061436626E+04  0.13061436626E+04  0.00000000000E+00 0.  1.
         21   -1    0    0  501  503 -0.00000000000E+00 -0.00000000000E+00 -0.14000371721E+03  0.14000371721E+03  0.00000000000E+00 0.  1.
    9000007    1    1    2  501    0 -0.38274704025E+02  0.42441875698E+02  0.34635214919E+03  0.53218988813E+03  0.40000000000E+03 0.  1.
   -9000007    1    1    2    0  502  0.38274704025E+02 -0.42441875698E+02  0.81978779620E+03  0.91395749167E+03  0.40000000000E+03 0.  1.
<mgrwt>
<rscale>  2 0.40406221E+03</rscale>
<asrwt>0</asrwt>
<pdfrwt beam="1">  1       21 0.20094517E+00 0.40406221E+03</pdfrwt>
<pdfrwt beam="2">  1       21 0.21539034E-01 0.40406221E+03</pdfrwt>
<totfact> 0.22999877E+03</totfact>
</mgrwt>
</event>
<event>
 4    1  0.4862039E-002  0.4766158E+03  0.7818608E-02  0.1020069E+00
         21   -1    0    0  503  502  0.00000000000E+00  0.00000000000E+00  0.41963854445E+03  0.41963854445E+03  0.00000000000E+00 0.  1.
         21   -1    0    0  501  503 -0.00000000000E+00 -0.00000000000E+00 -0.57227128376E+03  0.57227128376E+03  0.00000000000E+00 0.  1.
    9000007    1    1    2  501    0 -0.24729545968E+03  0.77508842176E+02  0.39006348940E+02  0.47820932681E+03  0.40000000000E+03 0.  1.
   -9000007    1    1    2    0  502  0.24729545968E+03 -0.77508842176E+02 -0.19163908824E+03  0.51370050140E+03  0.40000000000E+03 0.  1.
<mgrwt>
<rscale>  2 0.47661585E+03</rscale>
<asrwt>0</asrwt>
<pdfrwt beam="1">  1       21 0.64559776E-01 0.47661585E+03</pdfrwt>
<pdfrwt beam="2">  1       21 0.88041736E-01 0.47661585E+03</pdfrwt>
<totfact> 0.20925633E+03</totfact>
</mgrwt>
</event>
<event>
 4    1  0.4862039E-002  0.4921340E+03  0.7818608E-02  0.1015853E+00
         21   -1    0    0  503  502  0.00000000000E+00  0.00000000000E+00  0.30579713295E+03  0.30579713295E+03  0.00000000000E+00 0.  1.
         21   -1    0    0  501  503 -0.00000000000E+00 -0.00000000000E+00 -0.85920090982E+03  0.85920090982E+03  0.00000000000E+00 0.  1.
    9000007    1    1    2  501    0 -0.28632299074E+03 -0.14664744486E+02 -0.43958910647E+03  0.65987460345E+03  0.40000000000E+03 0. -1.
   -9000007    1    1    2    0  502  0.28632299074E+03  0.14664744486E+02 -0.11381467040E+03  0.50512343932E+03  0.40000000000E+03 0. -1.
<mgrwt>
<rscale>  2 0.49213404E+03</rscale>
<asrwt>0</asrwt>
<pdfrwt beam="1">  1       21 0.47045714E-01 0.49213404E+03</pdfrwt>
<pdfrwt beam="2">  1       21 0.13218475E+00 0.49213404E+03</pdfrwt>
<totfact> 0.15065720E+03</totfact>
</mgrwt>
</event>
<event>
 4    1  0.4862039E-002  0.4311025E+03  0.7818608E-02  0.1033512E+00
         21   -1    0    0  503  502  0.00000000000E+00  0.00000000000E+00  0.16918247530E+04  0.16918247530E+04  0.00000000000E+00 0.  1.
         21   -1    0    0  501  503 -0.00000000000E+00 -0.00000000000E+00 -0.11213553867E+03  0.11213553867E+03  0.00000000000E+00 0.  1.
    9000007    1    1    2  501    0 -0.17158726403E+02 -0.15985921213E+03  0.66111378792E+03  0.78925333713E+03  0.40000000000E+03 0. -1.
   -9000007    1    1    2    0  502  0.17158726403E+02  0.15985921213E+03  0.91857542644E+03  0.10147069546E+04  0.40000000000E+03 0. -1.
<mgrwt>
<rscale>  2 0.43110253E+03</rscale>
<asrwt>0</asrwt>
<pdfrwt beam="1">  1       21 0.26028071E+00 0.43110253E+03</pdfrwt>
<pdfrwt beam="2">  1       21 0.17251623E-01 0.43110253E+03</pdfrwt>
<totfact> 0.14625006E+03</totfact>
</mgrwt>
</event>
<event>
 4    1  0.4862039E-002  0.4145689E+03  0.7818608E-02  0.1038849E+00
         21   -1    0    0  501  502  0.00000000000E+00  0.00000000000E+00  0.92153789189E+02  0.92153789189E+02  0.00000000000E+00 0. -1.
         21   -1    0    0  502  503 -0.00000000000E+00 -0.00000000000E+00 -0.18867446077E+04  0.18867446077E+04  0.00000000000E+00 0. -1.
    9000007    1    1    2  501    0 -0.10831587930E+03 -0.11620472196E+02 -0.10035024510E+04  0.10857644930E+04  0.40000000000E+03 0. -1.
   -9000007    1    1    2    0  503  0.10831587930E+03  0.11620472196E+02 -0.79108836752E+03  0.89313390391E+03  0.40000000000E+03 0. -1.
<mgrwt>
<rscale>  2 0.41456889E+03</rscale>
<asrwt>0</asrwt>
<pdfrwt beam="1">  1       21 0.14177506E-01 0.41456889E+03</pdfrwt>
<pdfrwt beam="2">  1       21 0.29026841E+00 0.41456889E+03</pdfrwt>
<totfact> 0.14017364E+03</totfact>
</mgrwt>
</event>
<event>
 4    1  0.4862039E-002  0.4070765E+03  0.7818608E-02  0.1041357E+00
         21   -1    0    0  503  502  0.00000000000E+00  0.00000000000E+00  0.86665463922E+03  0.86665463922E+03  0.00000000000E+00 0. -1.
         21   -1    0    0  501  503 -0.00000000000E+00 -0.00000000000E+00 -0.27074680123E+03  0.27074680123E+03  0.00000000000E+00 0. -1.
    9000007    1    1    2  501    0 -0.65270278841E+02  0.38092412039E+02 -0.10288083841E+02  0.40720644129E+03  0.40000000000E+03 0. -1.
   -9000007    1    1    2    0  502  0.65270278841E+02 -0.38092412039E+02  0.60619592183E+03  0.73019499916E+03  0.40000000000E+03 0. -1.
<mgrwt>
<rscale>  2 0.40707646E+03</rscale>
<asrwt>0</asrwt>
<pdfrwt beam="1">  1       21 0.13333148E+00 0.40707646E+03</pdfrwt>
<pdfrwt beam="2">  1       21 0.41653354E-01 0.40707646E+03</pdfrwt>
<totfact> 0.19650890E+03</totfact>
</mgrwt>
</event>
<event>
 4    1  0.4862039E-002  0.4962121E+03  0.7818608E-02  0.1014772E+00
         21   -1    0    0  503  502  0.00000000000E+00  0.00000000000E+00  0.16416679252E+04  0.16416679252E+04  0.00000000000E+00 0. -1.
         21   -1    0    0  501  503 -0.00000000000E+00 -0.00000000000E+00 -0.15813488087E+03  0.15813488087E+03  0.00000000000E+00 0. -1.
    9000007    1    1    2  501    0  0.21100821043E+03 -0.20421072418E+03  0.53747903173E+03  0.73151226530E+03  0.40000000000E+03 0. -1.
   -9000007    1    1    2    0  502 -0.21100821043E+03  0.20421072418E+03  0.94605401259E+03  0.10682905408E+04  0.40000000000E+03 0. -1.
<mgrwt>
<rscale>  2 0.49621214E+03</rscale>
<asrwt>0</asrwt>
<pdfrwt beam="1">  1       21 0.25256428E+00 0.49621214E+03</pdfrwt>
<pdfrwt beam="2">  1       21 0.24328444E-01 0.49621214E+03</pdfrwt>
<totfact> 0.81945630E+02</totfact>
</mgrwt>
</event>
<event>
 4    1  0.4862039E-002  0.4269492E+03  0.7818608E-02  0.1034828E+00
         21   -1    0    0  503  502  0.00000000000E+00  0.00000000000E+00  0.17593042015E+03  0.17593042015E+03  0.00000000000E+00 0.  1.
         21   -1    0    0  501  503 -0.00000000000E+00 -0.00000000000E+00 -0.11949700302E+04  0.11949700302E+04  0.00000000000E+00 0.  1.
    9000007    1    1    2  501    0 -0.12073027644E+03  0.87805714016E+02 -0.75943132748E+03  0.87121844805E+03  0.40000000000E+03 0.  1.
   -9000007    1    1    2    0  502  0.12073027644E+03 -0.87805714016E+02 -0.25960828260E+03  0.49968200233E+03  0.40000000000E+03 0.  1.
<mgrwt>
<rscale>  2 0.42694923E+03</rscale>
<asrwt>0</asrwt>
<pdfrwt beam="1">  1       21 0.27066218E-01 0.42694923E+03</pdfrwt>
<pdfrwt beam="2">  1       21 0.18384155E+00 0.42694923E+03</pdfrwt>
<totfact> 0.19104196E+03</totfact>
</mgrwt>
</event>
<event>
 4    1  0.4862039E-002  0.4470216E+03  0.7818608E-02  0.1028614E+00
         21   -1    0    0  503  502  0.00000000000E+00  0.00000000000E+00  0.18576686602E+04  0.18576686602E+04  0.00000000000E+00 0. -1.
         21   -1    0    0  501  503 -0.00000000000E+00 -0.00000000000E+00 -0.12170170934E+03  0.12170170934E+03  0.00000000000E+00 0. -1.
    9000007    1    1    2  501    0 -0.87485724402E+01 -0.19937840490E+03  0.53073077114E+03  0.69390448716E+03  0.40000000000E+03 0. -1.
   -9000007    1    1    2    0  502  0.87485724402E+01  0.19937840490E+03  0.12052361797E+04  0.12854658824E+04  0.40000000000E+03 0. -1.
<mgrwt>
<rscale>  2 0.44702157E+03</rscale>
<asrwt>0</asrwt>
<pdfrwt beam="1">  1       21 0.28579516E+00 0.44702157E+03</pdfrwt>
<pdfrwt beam="2">  1       21 0.18723341E-01 0.44702157E+03</pdfrwt>
<totfact> 0.87185590E+02</totfact>
</mgrwt>
</event>
<event>
 4    1  0.4862039E-002  0.5876477E+03  0.7818608E-02  0.9931370E-01
         21   -1    0    0  501  502  0.00000000000E+00  0.00000000000E+00  0.48973724356E+03  0.48973724356E+03  0.00000000000E+00 0.  1.
         21   -1    0    0  502  503 -0.00000000000E+00 -0.00000000000E+00 -0.72073698522E+03  0.72073698522E+03  0.00000000000E+00 0. -1.
    9000007    1    1    2  501    0 -0.38347679659E+03 -0.19564077294E+03 -0.26444831703E+02  0.58824237750E+03  0.40000000000E+03 0. -1.
   -9000007    1    1    2    0  503  0.38347679659E+03  0.19564077294E+03 -0.20455490996E+03  0.62223185128E+03  0.40000000000E+03 0.  1.
<mgrwt>
<rscale>  2 0.58764765E+03</rscale>
<asrwt>0</asrwt>
<pdfrwt beam="1">  1       21 0.75344191E-01 0.58764765E+03</pdfrwt>
<pdfrwt beam="2">  1       21 0.11088261E+00 0.58764765E+03</pdfrwt>
<totfact> 0.81147104E+02</totfact>
</mgrwt>
</event>
<event>
 4    1  0.4862039E-002  0.4449362E+03  0.7818608E-02  0.1029243E+00
         21   -1    0    0  501  502  0.00000000000E+00  0.00000000000E+00  0.97116970617E+03  0.97116970617E+03  0.00000000000E+00 0. -1.
         21   -1    0    0  502  503 -0.00000000000E+00 -0.00000000000E+00 -0.44919900173E+03  0.44919900173E+03  0.00000000000E+00 0.  1.
    9000007    1    1    2  501    0  0.12720595248E+03 -0.14760389100E+03  0.78585096820E+03  0.90306700040E+03  0.40000000000E+03 0. -1.
   -9000007    1    1    2    0  503 -0.12720595248E+03  0.14760389100E+03 -0.26388026376E+03  0.51730170750E+03  0.40000000000E+03 0.  1.
<mgrwt>
<rscale>  2 0.44493625E+03</rscale>
<asrwt>0</asrwt>
<pdfrwt beam="1">  1       21 0.14941072E+00 0.44493625E+03</pdfrwt>
<pdfrwt beam="2">  1       21 0.69107539E-01 0.44493625E+03</pdfrwt>
<totfact> 0.48022510E+02</totfact>
</mgrwt>
</event>
<event>
 4    1  0.4862039E-002  0.4319143E+03  0.7818608E-02  0.1033257E+00
         21   -1    0    0  503  502  0.00000000000E+00  0.00000000000E+00  0.87256308706E+03  0.87256308706E+03  0.00000000000E+00 0.  1.
         21   -1    0    0  501  503 -0.00000000000E+00 -0.00000000000E+00 -0.22026620540E+03  0.22026620540E+03  0.00000000000E+00 0.  1.
    9000007    1    1    2  501    0 -0.11406442722E+03 -0.11635832125E+03  0.23249399408E+03  0.49051341446E+03  0.40000000000E+03 0.  1.
   -9000007    1    1    2    0  502  0.11406442722E+03  0.11635832125E+03  0.41980288757E+03  0.60231587801E+03  0.40000000000E+03 0.  1.
<mgrwt>
<rscale>  2 0.43191429E+03</rscale>
<asrwt>0</asrwt>
<pdfrwt beam="1">  1       21 0.13424047E+00 0.43191429E+03</pdfrwt>
<pdfrwt beam="2">  1       21 0.33887109E-01 0.43191429E+03</pdfrwt>
<totfact> 0.29113214E+03</totfact>
</mgrwt>
</event>
<event>
 4    1  0.4862039E-002  0.4617905E+03  0.7818608E-02  0.1024263E+00
         21   -1    0    0  501  502  0.00000000000E+00  0.00000000000E+00  0.11046518596E+04  0.11046518596E+04  0.00000000000E+00 0.  1.
         21   -1    0    0  502  503 -0.00000000000E+00 -0.00000000000E+00 -0.21521009395E+03  0.21521009395E+03  0.00000000000E+00 0.  1.
    9000007    1    1    2  501    0 -0.21989701445E+03 -0.69969918324E+02  0.65649635490E+03  0.80264434865E+03  0.40000000000E+03 0.  1.
   -9000007    1    1    2    0  503  0.21989701445E+03  0.69969918324E+02  0.23294541078E+03  0.51721760492E+03  0.40000000000E+03 0.  1.
<mgrwt>
<rscale>  2 0.46179052E+03</rscale>
<asrwt>0</asrwt>
<pdfrwt beam="1">  1       21 0.16994644E+00 0.46179052E+03</pdfrwt>
<pdfrwt beam="2">  1       21 0.33109246E-01 0.46179052E+03</pdfrwt>
<totfact> 0.15840929E+03</totfact>
</mgrwt>
</event>
<event>
 4    1  0.4862039E-002  0.4517674E+03  0.7818608E-02  0.1027196E+00
         21   -1    0    0  503  502  0.00000000000E+00  0.00000000000E+00  0.52062771218E+03  0.52062771218E+03  0.00000000000E+00 0. -1.
         21   -1    0    0  501  503 -0.00000000000E+00 -0.00000000000E+00 -0.49985646971E+03  0.49985646971E+03  0.00000000000E+00 0. -1.
    9000007    1    1    2  501    0 -0.10270804904E+03 -0.18315243615E+03 -0.22661362469E+03  0.50541813690E+03  0.40000000000E+03 0. -1.
   -9000007    1    1    2    0  502  0.10270804904E+03  0.18315243615E+03  0.24738486716E+03  0.51506604499E+03  0.40000000000E+03 0. -1.
<mgrwt>
<rscale>  2 0.45176737E+03</rscale>
<asrwt>0</asrwt>
<pdfrwt beam="1">  1       21 0.80096572E-01 0.45176737E+03</pdfrwt>
<pdfrwt beam="2">  1       21 0.76900995E-01 0.45176737E+03</pdfrwt>
<totfact> 0.17747211E+03</totfact>
</mgrwt>
</event>
<event>
 4    1  0.4862039E-002  0.5161802E+03  0.7818608E-02  0.1009640E+00
         21   -1    0    0  501  502  0.00000000000E+00  0.00000000000E+00  0.29802236097E+04  0.29802236097E+04  0.00000000000E+00 0.  1.
         21   -1    0    0  502  503 -0.00000000000E+00 -0.00000000000E+00 -0.10865280811E+03  0.10865280811E+03  0.00000000000E+00 0. -1.
    9000007    1    1    2  501    0  0.23733159342E+03 -0.22386544926E+03  0.20858539038E+04  0.21487737276E+04  0.40000000000E+03 0.  1.
   -9000007    1    1    2    0  503 -0.23733159342E+03  0.22386544926E+03  0.78571689780E+03  0.94010269019E+03  0.40000000000E+03 0. -1.
<mgrwt>
<rscale>  2 0.51618022E+03</rscale>
<asrwt>0</asrwt>
<pdfrwt beam="1">  1       21 0.45849588E+00 0.51618022E+03</pdfrwt>
<pdfrwt beam="2">  1       21 0.16715819E-01 0.51618022E+03</pdfrwt>
<totfact> 0.84014619E+01</totfact>
</mgrwt>
</event>
<event>
 4    1  0.4862039E-002  0.4344407E+03  0.7818608E-02  0.1032466E+00
         21   -1    0    0  503  502  0.00000000000E+00  0.00000000000E+00  0.34959016055E+03  0.34959016055E+03  0.00000000000E+00 0.  1.
         21   -1    0    0  501  503 -0.00000000000E+00 -0.00000000000E+00 -0.55404558765E+03  0.55404558765E+03  0.00000000000E+00 0.  1.
    9000007    1    1    2  501    0 -0.95187597198E+02 -0.14027841511E+03 -0.17445832132E+03  0.46816067571E+03  0.40000000000E+03 0. -1.
   -9000007    1    1    2    0  502  0.95187597198E+02  0.14027841511E+03 -0.29997105781E+02  0.43547507249E+03  0.40000000000E+03 0. -1.
<mgrwt>
<rscale>  2 0.43444069E+03</rscale>
<asrwt>0</asrwt>
<pdfrwt beam="1">  1       21 0.53783102E-01 0.43444069E+03</pdfrwt>
<pdfrwt beam="2">  1       21 0.85237782E-01 0.43444069E+03</pdfrwt>
<totfact> 0.34165705E+03</totfact>
</mgrwt>
</event>
<event>
 4    1  0.4862039E-002  0.5033923E+03  0.7818608E-02  0.1012897E+00
         21   -1    0    0  503  502  0.00000000000E+00  0.00000000000E+00  0.60883642732E+03  0.60883642732E+03  0.00000000000E+00 0.  1.
         21   -1    0    0  501  503 -0.00000000000E+00 -0.00000000000E+00 -0.10458748626E+04  0.10458748626E+04  0.00000000000E+00 0. -1.
    9000007    1    1    2  501    0  0.94506227427E+02  0.29064125138E+03 -0.86047797410E+03  0.99690827459E+03  0.40000000000E+03 0. -1.
   -9000007    1    1    2    0  502 -0.94506227427E+02 -0.29064125138E+03  0.42343953878E+03  0.65780301537E+03  0.40000000000E+03 0.  1.
<mgrwt>
<rscale>  2 0.50339226E+03</rscale>
<asrwt>0</asrwt>
<pdfrwt beam="1">  1       21 0.93667143E-01 0.50339226E+03</pdfrwt>
<pdfrwt beam="2">  1       21 0.16090382E+00 0.50339226E+03</pdfrwt>
<totfact> 0.18827590E+02</totfact>
</mgrwt>
</event>
<event>
 4    1  0.4862039E-002  0.7007529E+03  0.7818608E-02  0.9715946E-01
         21   -1    0    0  503  502  0.00000000000E+00  0.00000000000E+00  0.99882853613E+03  0.99882853613E+03  0.00000000000E+00 0.  1.
         21   -1    0    0  501  503 -0.00000000000E+00 -0.00000000000E+00 -0.72402756580E+03  0.72402756580E+03  0.00000000000E+00 0.  1.
    9000007    1    1    2  501    0 -0.95887677501E+02  0.56732721010E+03 -0.35064100477E+03  0.78358389738E+03  0.40000000000E+03 0.  1.
   -9000007    1    1    2    0  502  0.95887677501E+02 -0.56732721010E+03  0.62544197509E+03  0.93927220454E+03  0.40000000000E+03 0.  1.
<mgrwt>
<rscale>  2 0.70075289E+03</rscale>
<asrwt>0</asrwt>
<pdfrwt beam="1">  1       21 0.15366593E+00 0.70075289E+03</pdfrwt>
<pdfrwt beam="2">  1       21 0.11138886E+00 0.70075289E+03</pdfrwt>
<totfact> 0.12948578E+02</totfact>
</mgrwt>
</event>
<event>
 4    1  0.4862039E-002  0.6070733E+03  0.7818608E-02  0.9890839E-01
         21   -1    0    0  503  502  0.00000000000E+00  0.00000000000E+00  0.27185004127E+04  0.27185004127E+04  0.00000000000E+00 0.  1.
         21   -1    0    0  501  503 -0.00000000000E+00 -0.00000000000E+00 -0.37780865936E+03  0.37780865936E+03  0.00000000000E+00 0.  1.
    9000007    1    1    2  501    0 -0.23917583362E+03  0.38901534000E+03 -0.69315525129E+02  0.61101772165E+03  0.40000000000E+03 0.  1.
   -9000007    1    1    2    0  502  0.23917583362E+03 -0.38901534000E+03  0.24100072784E+04  0.24852913504E+04  0.40000000000E+03 0.  1.
<mgrwt>
<rscale>  2 0.60707332E+03</rscale>
<asrwt>0</asrwt>
<pdfrwt beam="1">  1       21 0.41823082E+00 0.60707332E+03</pdfrwt>
<pdfrwt beam="2">  1       21 0.58124411E-01 0.60707332E+03</pdfrwt>
<totfact> 0.12049317E+01</totfact>
</mgrwt>
</event>
<event>
 4    1  0.4862039E-002  0.5299966E+03  0.7818608E-02  0.1006233E+00
         21   -1    0    0  501  502  0.00000000000E+00  0.00000000000E+00  0.13806402624E+04  0.13806402624E+04  0.00000000000E+00 0.  1.
         21   -1    0    0  502  503 -0.00000000000E+00 -0.00000000000E+00 -0.28710367964E+03  0.28710367964E+03  0.00000000000E+00 0. -1.
    9000007    1    1    2  501    0  0.32593299074E+03  0.12109555386E+03  0.99687218537E+03  0.11290042522E+04  0.40000000000E+03 0.  1.
   -9000007    1    1    2    0  503 -0.32593299074E+03 -0.12109555386E+03  0.96664397359E+02  0.53873968977E+03  0.40000000000E+03 0. -1.
<mgrwt>
<rscale>  2 0.52999665E+03</rscale>
<asrwt>0</asrwt>
<pdfrwt beam="1">  1       21 0.21240619E+00 0.52999665E+03</pdfrwt>
<pdfrwt beam="2">  1       21 0.44169798E-01 0.52999665E+03</pdfrwt>
<totfact> 0.43540864E+02</totfact>
</mgrwt>
</event>
<event>
 4    1  0.4862039E-002  0.5710375E+03  0.7818608E-02  0.9967385E-01
         21   -1    0    0  503  502  0.00000000000E+00  0.00000000000E+00  0.86348278416E+03  0.86348278416E+03  0.00000000000E+00 0.  1.
         21   -1    0    0  501  503 -0.00000000000E+00 -0.00000000000E+00 -0.37778792300E+03  0.37778792300E+03  0.00000000000E+00 0. -1.
    9000007    1    1    2  501    0  0.35682869997E+03 -0.19686823157E+03  0.25521537116E+03  0.62547478559E+03  0.40000000000E+03 0. -1.
   -9000007    1    1    2    0  502 -0.35682869997E+03  0.19686823157E+03  0.23047948999E+03  0.61579592158E+03  0.40000000000E+03 0.  1.
<mgrwt>
<rscale>  2 0.57103750E+03</rscale>
<asrwt>0</asrwt>
<pdfrwt beam="1">  1       21 0.13284350E+00 0.57103750E+03</pdfrwt>
<pdfrwt beam="2">  1       21 0.58121219E-01 0.57103750E+03</pdfrwt>
<totfact> 0.91857593E+02</totfact>
</mgrwt>
</event>
<event>
 4    1  0.4862039E-002  0.6570055E+03  0.7818608E-02  0.9793722E-01
         21   -1    0    0  503  502  0.00000000000E+00  0.00000000000E+00  0.35219226846E+03  0.35219226846E+03  0.00000000000E+00 0.  1.
         21   -1    0    0  501  503 -0.00000000000E+00 -0.00000000000E+00 -0.15317988915E+04  0.15317988915E+04  0.00000000000E+00 0. -1.
    9000007    1    1    2  501    0  0.69529005940E+02 -0.51654814180E+03 -0.16865911023E+03  0.67830830816E+03  0.40000000000E+03 0.  1.
   -9000007    1    1    2    0  502 -0.69529005940E+02  0.51654814180E+03 -0.10109475128E+04  0.12056828518E+04  0.40000000000E+03 0. -1.
<mgrwt>
<rscale>  2 0.65700553E+03</rscale>
<asrwt>0</asrwt>
<pdfrwt beam="1">  1       21 0.54183427E-01 0.65700553E+03</pdfrwt>
<pdfrwt beam="2">  1       21 0.23566136E+00 0.65700553E+03</pdfrwt>
<totfact> 0.18974357E+02</totfact>
</mgrwt>
</event>
<event>
 4    1  0.4862039E-002  0.5712882E+03  0.7818608E-02  0.9966832E-01
         21   -1    0    0  503  502  0.00000000000E+00  0.00000000000E+00  0.17361476856E+03  0.17361476856E+03  0.00000000000E+00 0. -1.
         21   -1    0    0  501  503 -0.00000000000E+00 -0.00000000000E+00 -0.21639969935E+04  0.21639969935E+04  0.00000000000E+00 0.  1.
    9000007    1    1    2  501    0  0.34944566586E+03  0.21037570518E+03 -0.57166182654E+03  0.80818775952E+03  0.40000000000E+03 0.  1.
   -9000007    1    1    2    0  502 -0.34944566586E+03 -0.21037570518E+03 -0.14187203984E+04  0.15294240025E+04  0.40000000000E+03 0. -1.
<mgrwt>
<rscale>  2 0.57128820E+03</rscale>
<asrwt>0</asrwt>
<pdfrwt beam="1">  1       21 0.26709966E-01 0.57128820E+03</pdfrwt>
<pdfrwt beam="2">  1       21 0.33292259E+00 0.57128820E+03</pdfrwt>
<totfact> 0.21361929E+02</totfact>
</mgrwt>
</event>
<event>
 4    1  0.4862039E-002  0.4584574E+03  0.7818608E-02  0.1025230E+00
         21   -1    0    0  503  502  0.00000000000E+00  0.00000000000E+00  0.87790931490E+02  0.87790931490E+02  0.00000000000E+00 0.  1.
         21   -1    0    0  501  503 -0.00000000000E+00 -0.00000000000E+00 -0.24401559414E+04  0.24401559414E+04  0.00000000000E+00 0.  1.
    9000007    1    1    2  501    0  0.66205471071E+01 -0.22391808826E+03 -0.10025953251E+04  0.11024429817E+04  0.40000000000E+03 0.  1.
   -9000007    1    1    2    0  502 -0.66205471071E+01  0.22391808826E+03 -0.13497696848E+04  0.14255038912E+04  0.40000000000E+03 0.  1.
<mgrwt>
<rscale>  2 0.45845735E+03</rscale>
<asrwt>0</asrwt>
<pdfrwt beam="1">  1       21 0.13506298E-01 0.45845735E+03</pdfrwt>
<pdfrwt beam="2">  1       21 0.37540859E+00 0.45845735E+03</pdfrwt>
<totfact> 0.45307527E+02</totfact>
</mgrwt>
</event>
<event>
 4    1  0.4862039E-002  0.4587881E+03  0.7818608E-02  0.1025133E+00
         21   -1    0    0  501  502  0.00000000000E+00  0.00000000000E+00  0.49789166927E+03  0.49789166927E+03  0.00000000000E+00 0.  1.
         21   -1    0    0  502  503 -0.00000000000E+00 -0.00000000000E+00 -0.79341672443E+03  0.79341672443E+03  0.00000000000E+00 0. -1.
    9000007    1    1    2  501    0 -0.20428864608E+03 -0.93555662502E+02  0.29354140451E+03  0.54465867207E+03  0.40000000000E+03 0.  1.
   -9000007    1    1    2    0  503  0.20428864608E+03  0.93555662502E+02 -0.58906645967E+03  0.74664972163E+03  0.40000000000E+03 0. -1.
<mgrwt>
<rscale>  2 0.45878809E+03</rscale>
<asrwt>0</asrwt>
<pdfrwt beam="1">  1       21 0.76598719E-01 0.45878809E+03</pdfrwt>
<pdfrwt beam="2">  1       21 0.12206411E+00 0.45878809E+03</pdfrwt>
<totfact> 0.64297596E+02</totfact>
</mgrwt>
</event>
<event>
 4    1  0.4862039E-002  0.4871162E+03  0.7818608E-02  0.1017198E+00
         21   -1    0    0  503  502  0.00000000000E+00  0.00000000000E+00  0.99553585403E+03  0.99553585403E+03  0.00000000000E+00 0.  1.
         21   -1    0    0  501  503 -0.00000000000E+00 -0.00000000000E+00 -0.41981470267E+03  0.41981470267E+03  0.00000000000E+00 0.  1.
    9000007    1    1    2  501    0 -0.26796294850E+01 -0.27798383359E+03 -0.17741025374E+03  0.51841739003E+03  0.40000000000E+03 0.  1.
   -9000007    1    1    2    0  502  0.26796294850E+01  0.27798383359E+03  0.75313140509E+03  0.89693316668E+03  0.40000000000E+03 0.  1.
<mgrwt>
<rscale>  2 0.48711620E+03</rscale>
<asrwt>0</asrwt>
<pdfrwt beam="1">  1       21 0.15315936E+00 0.48711620E+03</pdfrwt>
<pdfrwt beam="2">  1       21 0.64586877E-01 0.48711620E+03</pdfrwt>
<totfact> 0.51229741E+02</totfact>
</mgrwt>
</event>
<event>
 4    1  0.4862039E-002  0.5397149E+03  0.7818608E-02  0.1003903E+00
         21   -1    0    0  501  502  0.00000000000E+00  0.00000000000E+00  0.12423681902E+04  0.12423681902E+04  0.00000000000E+00 0. -1.
         21   -1    0    0  502  503 -0.00000000000E+00 -0.00000000000E+00 -0.38353333725E+03  0.38353333725E+03  0.00000000000E+00 0.  1.
    9000007    1    1    2  501    0  0.22500360301E+03  0.28401687308E+03  0.93623886764E+03  0.10806643433E+04  0.40000000000E+03 0. -1.
   -9000007    1    1    2    0  503 -0.22500360301E+03 -0.28401687308E+03 -0.77404014654E+02  0.54523718421E+03  0.40000000000E+03 0.  1.
<mgrwt>
<rscale>  2 0.53971493E+03</rscale>
<asrwt>0</asrwt>
<pdfrwt beam="1">  1       21 0.19113357E+00 0.53971493E+03</pdfrwt>
<pdfrwt beam="2">  1       21 0.59005129E-01 0.53971493E+03</pdfrwt>
<totfact> 0.32360773E+02</totfact>
</mgrwt>
</event>
<event>
 4    1  0.4862039E-002  0.4318779E+03  0.7818608E-02  0.1033268E+00
         21   -1    0    0  503  502  0.00000000000E+00  0.00000000000E+00  0.15685973371E+03  0.15685973371E+03  0.00000000000E+00 0. -1.
         21   -1    0    0  501  503 -0.00000000000E+00 -0.00000000000E+00 -0.12653491490E+04  0.12653491490E+04  0.00000000000E+00 0. -1.
    9000007    1    1    2  501    0  0.11971121941E+03 -0.11039819800E+03 -0.72882969658E+03  0.84717841379E+03  0.40000000000E+03 0.  1.
   -9000007    1    1    2    0  502 -0.11971121941E+03  0.11039819800E+03 -0.37965971874E+03  0.57503046894E+03  0.40000000000E+03 0.  1.
<mgrwt>
<rscale>  2 0.43187792E+03</rscale>
<asrwt>0</asrwt>
<pdfrwt beam="1">  1       21 0.24132267E-01 0.43187792E+03</pdfrwt>
<pdfrwt beam="2">  1       21 0.19466910E+00 0.43187792E+03</pdfrwt>
<totfact> 0.20099190E+03</totfact>
</mgrwt>
</event>
<event>
 4    1  0.4862039E-002  0.4648606E+03  0.7818608E-02  0.1023381E+00
         21   -1    0    0  501  502  0.00000000000E+00  0.00000000000E+00  0.13771354230E+04  0.13771354230E+04  0.00000000000E+00 0.  1.
         21   -1    0    0  502  503 -0.00000000000E+00 -0.00000000000E+00 -0.15859993777E+03  0.15859993777E+03  0.00000000000E+00 0.  1.
    9000007    1    1    2  501    0 -0.25386891880E+02  0.23548009242E+03  0.68837644726E+03  0.83063680471E+03  0.40000000000E+03 0.  1.
   -9000007    1    1    2    0  503  0.25386891880E+02 -0.23548009242E+03  0.53015903799E+03  0.70509855607E+03  0.40000000000E+03 0.  1.
<mgrwt>
<rscale>  2 0.46486059E+03</rscale>
<asrwt>0</asrwt>
<pdfrwt beam="1">  1       21 0.21186698E+00 0.46486059E+03</pdfrwt>
<pdfrwt beam="2">  1       21 0.24399991E-01 0.46486059E+03</pdfrwt>
<totfact> 0.14919898E+03</totfact>
</mgrwt>
</event>
<event>
 4    1  0.4862039E-002  0.8617033E+03  0.7818608E-02  0.9474762E-01
         21   -1    0    0  501  502  0.00000000000E+00  0.00000000000E+00  0.17343902049E+04  0.17343902049E+04  0.00000000000E+00 0. -1.
         21   -1    0    0  502  503 -0.00000000000E+00 -0.00000000000E+00 -0.43535002919E+03  0.43535002919E+03  0.00000000000E+00 0.  1.
    9000007    1    1    2  501    0 -0.76310111023E+03  0.14468486510E+02  0.78929624559E+03  0.11685551783E+04  0.40000000000E+03 0. -1.
   -9000007    1    1    2    0  503  0.76310111023E+03 -0.14468486510E+02  0.50974393012E+03  0.10011850557E+04  0.40000000000E+03 0.  1.
<mgrwt>
<rscale>  2 0.86170334E+03</rscale>
<asrwt>0</asrwt>
<pdfrwt beam="1">  1       21 0.26682926E+00 0.86170334E+03</pdfrwt>
<pdfrwt beam="2">  1       21 0.66976928E-01 0.86170334E+03</pdfrwt>
<totfact> 0.70485521E+01</totfact>
</mgrwt>
</event>
<event>
 4    1  0.4862039E-002  0.4701850E+03  0.7818608E-02  0.1021868E+00
         21   -1    0    0  501  502  0.00000000000E+00  0.00000000000E+00  0.14109877673E+04  0.14109877673E+04  0.00000000000E+00 0.  1.
         21   -1    0    0  502  503 -0.00000000000E+00 -0.00000000000E+00 -0.29133758053E+03  0.29133758053E+03  0.00000000000E+00 0. -1.
    9000007    1    1    2  501    0  0.24672216593E+03  0.14217286174E+02  0.11384928280E+04  0.12317629146E+04  0.40000000000E+03 0.  1.
   -9000007    1    1    2    0  503 -0.24672216593E+03 -0.14217286174E+02 -0.18842641267E+02  0.47056243318E+03  0.40000000000E+03 0. -1.
<mgrwt>
<rscale>  2 0.47018503E+03</rscale>
<asrwt>0</asrwt>
<pdfrwt beam="1">  1       21 0.21707504E+00 0.47018503E+03</pdfrwt>
<pdfrwt beam="2">  1       21 0.44821167E-01 0.47018503E+03</pdfrwt>
<totfact> 0.40465973E+02</totfact>
</mgrwt>
</event>
<event>
 4    1  0.4862039E-002  0.5541254E+03  0.7818608E-02  0.1000544E+00
         21   -1    0    0  501  502  0.00000000000E+00  0.00000000000E+00  0.20964002641E+03  0.20964002641E+03  0.00000000000E+00 0. -1.
         21   -1    0    0  502  503 -0.00000000000E+00 -0.00000000000E+00 -0.16185037008E+04  0.16185037008E+04  0.00000000000E+00 0.  1.
    9000007    1    1    2  501    0 -0.30184854695E+03  0.23652159814E+03 -0.42263327596E+03  0.69690307621E+03  0.40000000000E+03 0.  1.
   -9000007    1    1    2    0  503  0.30184854695E+03 -0.23652159814E+03 -0.98623039840E+03  0.11312406510E+04  0.40000000000E+03 0. -1.
<mgrwt>
<rscale>  2 0.55412545E+03</rscale>
<asrwt>0</asrwt>
<pdfrwt beam="1">  1       21 0.32252310E-01 0.55412545E+03</pdfrwt>
<pdfrwt beam="2">  1       21 0.24900058E+00 0.55412545E+03</pdfrwt>
<totfact> 0.48135925E+02</totfact>
</mgrwt>
</event>
<event>
 4    1  0.4862039E-002  0.4126441E+03  0.7818608E-02  0.1039487E+00
         21   -1    0    0  501  502  0.00000000000E+00  0.00000000000E+00  0.30758632263E+03  0.30758632263E+03  0.00000000000E+00 0. -1.
         21   -1    0    0  502  503 -0.00000000000E+00 -0.00000000000E+00 -0.81916386356E+03  0.81916386356E+03  0.00000000000E+00 0. -1.
    9000007    1    1    2  501    0  0.30804634041E+02 -0.96572497007E+02  0.64992504193E+02  0.41773101185E+03  0.40000000000E+03 0. -1.
   -9000007    1    1    2    0  503 -0.30804634041E+02  0.96572497007E+02 -0.57657004512E+03  0.70901917434E+03  0.40000000000E+03 0. -1.
<mgrwt>
<rscale>  2 0.41264412E+03</rscale>
<asrwt>0</asrwt>
<pdfrwt beam="1">  1       21 0.47320972E-01 0.41264412E+03</pdfrwt>
<pdfrwt beam="2">  1       21 0.12602521E+00 0.41264412E+03</pdfrwt>
<totfact> 0.17378359E+03</totfact>
</mgrwt>
</event>
<event>
 4    1  0.4862039E-002  0.4181183E+03  0.7818608E-02  0.1037680E+00
         21   -1    0    0  501  502  0.00000000000E+00  0.00000000000E+00  0.30471665167E+03  0.30471665167E+03  0.00000000000E+00 0. -1.
         21   -1    0    0  502  503 -0.00000000000E+00 -0.00000000000E+00 -0.88601024520E+03  0.88601024520E+03  0.00000000000E+00 0. -1.
    9000007    1    1    2  501    0 -0.11983208486E+03 -0.21521569578E+02  0.62812999138E+02  0.42281009848E+03  0.40000000000E+03 0. -1.
   -9000007    1    1    2    0  503  0.11983208486E+03  0.21521569578E+02 -0.64410659267E+03  0.76791679838E+03  0.40000000000E+03 0. -1.
<mgrwt>
<rscale>  2 0.41811829E+03</rscale>
<asrwt>0</asrwt>
<pdfrwt beam="1">  1       21 0.46879484E-01 0.41811829E+03</pdfrwt>
<pdfrwt beam="2">  1       21 0.13630927E+00 0.41811829E+03</pdfrwt>
<totfact> 0.14428087E+03</totfact>
</mgrwt>
</event>
<event>
 4    1  0.4862039E-002  0.6065142E+03  0.7818608E-02  0.9891983E-01
         21   -1    0    0  503  502  0.00000000000E+00  0.00000000000E+00  0.51770900175E+03  0.51770900175E+03  0.00000000000E+00 0.  1.
         21   -1    0    0  501  503 -0.00000000000E+00 -0.00000000000E+00 -0.71293558557E+03  0.71293558557E+03  0.00000000000E+00 0. -1.
    9000007    1    1    2  501    0 -0.18989503198E+02  0.45552038261E+03 -0.13318856538E+03  0.62096587197E+03  0.40000000000E+03 0.  1.
   -9000007    1    1    2    0  502  0.18989503198E+02 -0.45552038261E+03 -0.62038018446E+02  0.60967871534E+03  0.40000000000E+03 0.  1.
<mgrwt>
<rscale>  2 0.60651415E+03</rscale>
<asrwt>0</asrwt>
<pdfrwt beam="1">  1       21 0.79647539E-01 0.60651415E+03</pdfrwt>
<pdfrwt beam="2">  1       21 0.10968240E+00 0.60651415E+03</pdfrwt>
<totfact> 0.72908522E+02</totfact>
</mgrwt>
</event>
<event>
 4    1  0.4862039E-002  0.4143994E+03  0.7818608E-02  0.1038905E+00
         21   -1    0    0  503  502  0.00000000000E+00  0.00000000000E+00  0.49301610037E+03  0.49301610037E+03  0.00000000000E+00 0.  1.
         21   -1    0    0  501  503 -0.00000000000E+00 -0.00000000000E+00 -0.35999441096E+03  0.35999441096E+03  0.00000000000E+00 0.  1.
    9000007    1    1    2  501    0 -0.10749190317E+03 -0.13129436988E+02 -0.10298132355E+02  0.41452737291E+03  0.40000000000E+03 0. -1.
   -9000007    1    1    2    0  502  0.10749190317E+03  0.13129436988E+02  0.14331982176E+03  0.43848313841E+03  0.40000000000E+03 0. -1.
<mgrwt>
<rscale>  2 0.41439943E+03</rscale>
<asrwt>0</asrwt>
<pdfrwt beam="1">  1       21 0.75848630E-01 0.41439943E+03</pdfrwt>
<pdfrwt beam="2">  1       21 0.55383756E-01 0.41439943E+03</pdfrwt>
<totfact> 0.42304131E+03</totfact>
</mgrwt>
</event>
<event>
 4    1  0.4862039E-002  0.5388333E+03  0.7818608E-02  0.1004112E+00
         21   -1    0    0  501  502  0.00000000000E+00  0.00000000000E+00  0.12319879724E+04  0.12319879724E+04  0.00000000000E+00 0. -1.
         21   -1    0    0  502  503 -0.00000000000E+00 -0.00000000000E+00 -0.51041092231E+03  0.51041092231E+03  0.00000000000E+00 0.  1.
    9000007    1    1    2  501    0  0.25839044290E+03 -0.25214217350E+03  0.99996403588E+03  0.11359002464E+04  0.40000000000E+03 0. -1.
   -9000007    1    1    2    0  503 -0.25839044290E+03  0.25214217350E+03 -0.27838698576E+03  0.60649864838E+03  0.40000000000E+03 0.  1.
<mgrwt>
<rscale>  2 0.53883327E+03</rscale>
<asrwt>0</asrwt>
<pdfrwt beam="1">  1       21 0.18953661E+00 0.53883327E+03</pdfrwt>
<pdfrwt beam="2">  1       21 0.78524758E-01 0.53883327E+03</pdfrwt>
<totfact> 0.17450145E+02</totfact>
</mgrwt>
</event>
<event>
 4    1  0.4862039E-002  0.4331148E+03  0.7818608E-02  0.1032881E+00
         21   -1    0    0  503  502  0.00000000000E+00  0.00000000000E+00  0.68556983395E+03  0.68556983395E+03  0.00000000000E+00 0.  1.
         21   -1    0    0  501  503 -0.00000000000E+00 -0.00000000000E+00 -0.63589669508E+03  0.63589669508E+03  0.00000000000E+00 0. -1.
    9000007    1    1    2  501    0 -0.86387405461E+02  0.14186500129E+03 -0.47387632770E+03  0.64198694408E+03  0.40000000000E+03 0. -1.
   -9000007    1    1    2    0  502  0.86387405461E+02 -0.14186500129E+03  0.52354946658E+03  0.67947958495E+03  0.40000000000E+03 0.  1.
<mgrwt>
<rscale>  2 0.43311484E+03</rscale>
<asrwt>0</asrwt>
<pdfrwt beam="1">  1       21 0.10547228E+00 0.43311484E+03</pdfrwt>
<pdfrwt beam="2">  1       21 0.97830261E-01 0.43311484E+03</pdfrwt>
<totfact> 0.52754129E+02</totfact>
</mgrwt>
</event>
<event>
 4    1  0.4862039E-002  0.4339301E+03  0.7818608E-02  0.1032626E+00
         21   -1    0    0  501  502  0.00000000000E+00  0.00000000000E+00  0.53539744325E+03  0.53539744325E+03  0.00000000000E+00 0. -1.
         21   -1    0    0  502  503 -0.00000000000E+00 -0.00000000000E+00 -0.62576306614E+03  0.62576306614E+03  0.00000000000E+00 0. -1.
    9000007    1    1    2  501    0  0.16445437292E+03 -0.35357176369E+02  0.33904459630E+03  0.55067831715E+03  0.40000000000E+03 0. -1.
   -9000007    1    1    2    0  503 -0.16445437292E+03  0.35357176369E+02 -0.42941021920E+03  0.61048219224E+03  0.40000000000E+03 0. -1.
<mgrwt>
<rscale>  2 0.43393014E+03</rscale>
<asrwt>0</asrwt>
<pdfrwt beam="1">  1       21 0.82368838E-01 0.43393014E+03</pdfrwt>
<pdfrwt beam="2">  1       21 0.96271240E-01 0.43393014E+03</pdfrwt>
<totfact> 0.98917258E+02</totfact>
</mgrwt>
</event>
<event>
 4    1  0.4862039E-002  0.4719941E+03  0.7818608E-02  0.1021359E+00
         21   -1    0    0  501  502  0.00000000000E+00  0.00000000000E+00  0.89623087205E+03  0.89623087205E+03  0.00000000000E+00 0. -1.
         21   -1    0    0  502  503 -0.00000000000E+00 -0.00000000000E+00 -0.74648665707E+03  0.74648665707E+03  0.00000000000E+00 0.  1.
    9000007    1    1    2  501    0 -0.23113530719E+03 -0.96720660222E+02  0.74568140807E+03  0.88250732500E+03  0.40000000000E+03 0. -1.
   -9000007    1    1    2    0  503  0.23113530719E+03  0.96720660222E+02 -0.59593719309E+03  0.76021020412E+03  0.40000000000E+03 0.  1.
<mgrwt>
<rscale>  2 0.47199409E+03</rscale>
<asrwt>0</asrwt>
<pdfrwt beam="1">  1       21 0.13788167E+00 0.47199409E+03</pdfrwt>
<pdfrwt beam="2">  1       21 0.11484410E+00 0.47199409E+03</pdfrwt>
<totfact> 0.17641768E+02</totfact>
</mgrwt>
</event>
<event>
 4    1  0.4862039E-002  0.4269114E+03  0.7818608E-02  0.1034840E+00
         21   -1    0    0  503  502  0.00000000000E+00  0.00000000000E+00  0.10330451003E+04  0.10330451003E+04  0.00000000000E+00 0.  1.
         21   -1    0    0  501  503 -0.00000000000E+00 -0.00000000000E+00 -0.33758749822E+03  0.33758749822E+03  0.00000000000E+00 0.  1.
    9000007    1    1    2  501    0  0.87428688517E+02  0.12087003031E+03 -0.12578432297E+03  0.44505621634E+03  0.40000000000E+03 0.  1.
   -9000007    1    1    2    0  502 -0.87428688517E+02 -0.12087003031E+03  0.82124192505E+03  0.92557638218E+03  0.40000000000E+03 0.  1.
<mgrwt>
<rscale>  2 0.42691140E+03</rscale>
<asrwt>0</asrwt>
<pdfrwt beam="1">  1       21 0.15893001E+00 0.42691140E+03</pdfrwt>
<pdfrwt beam="2">  1       21 0.51936539E-01 0.42691140E+03</pdfrwt>
<totfact> 0.76432978E+02</totfact>
</mgrwt>
</event>
<event>
 4    1  0.4862039E-002  0.5744760E+03  0.7818608E-02  0.9959823E-01
         21   -1    0    0  503  502  0.00000000000E+00  0.00000000000E+00  0.92316428733E+03  0.92316428733E+03  0.00000000000E+00 0. -1.
         21   -1    0    0  501  503 -0.00000000000E+00 -0.00000000000E+00 -0.43716542819E+03  0.43716542819E+03  0.00000000000E+00 0.  1.
    9000007    1    1    2  501    0 -0.36265265760E+02  0.41074012313E+03 -0.47370517541E+02  0.57642569702E+03  0.40000000000E+03 0. -1.
   -9000007    1    1    2    0  502  0.36265265760E+02 -0.41074012313E+03  0.53336937668E+03  0.78390401851E+03  0.40000000000E+03 0.  1.
<mgrwt>
<rscale>  2 0.57447595E+03</rscale>
<asrwt>0</asrwt>
<pdfrwt beam="1">  1       21 0.14202527E+00 0.57447595E+03</pdfrwt>
<pdfrwt beam="2">  1       21 0.67256220E-01 0.57447595E+03</pdfrwt>
<totfact> 0.55548780E+02</totfact>
</mgrwt>
</event>
<event>
 4    1  0.4862039E-002  0.4003839E+03  0.7818608E-02  0.1043647E+00
         21   -1    0    0  503  502  0.00000000000E+00  0.00000000000E+00  0.22323836613E+03  0.22323836613E+03  0.00000000000E+00 0.  1.
         21   -1    0    0  501  503 -0.00000000000E+00 -0.00000000000E+00 -0.74378110205E+03  0.74378110205E+03  0.00000000000E+00 0.  1.
    9000007    1    1    2  501    0  0.12073291372E+02  0.12708351947E+02 -0.17042568540E+03  0.43514616029E+03  0.40000000000E+03 0.  1.
   -9000007    1    1    2    0  502 -0.12073291372E+02 -0.12708351947E+02 -0.35011705051E+03  0.53187330788E+03  0.40000000000E+03 0.  1.
<mgrwt>
<rscale>  2 0.40038390E+03</rscale>
<asrwt>0</asrwt>
<pdfrwt beam="1">  1       21 0.34344364E-01 0.40038390E+03</pdfrwt>
<pdfrwt beam="2">  1       21 0.11442786E+00 0.40038390E+03</pdfrwt>
<totfact> 0.43145028E+03</totfact>
</mgrwt>
</event>
<event>
 4    1  0.4862039E-002  0.4777209E+03  0.7818608E-02  0.1019763E+00
         21   -1    0    0  503  502  0.00000000000E+00  0.00000000000E+00  0.74930570985E+03  0.74930570985E+03  0.00000000000E+00 0. -1.
         21   -1    0    0  501  503 -0.00000000000E+00 -0.00000000000E+00 -0.39249990333E+03  0.39249990333E+03  0.00000000000E+00 0. -1.
    9000007    1    1    2  501    0  0.26074345652E+03  0.15168314692E+02 -0.91810435680E+02  0.48646313734E+03  0.40000000000E+03 0. -1.
   -9000007    1    1    2    0  502 -0.26074345652E+03 -0.15168314692E+02  0.44861624220E+03  0.65534247585E+03  0.40000000000E+03 0. -1.
<mgrwt>
<rscale>  2 0.47772087E+03</rscale>
<asrwt>0</asrwt>
<pdfrwt beam="1">  1       21 0.11527780E+00 0.47772087E+03</pdfrwt>
<pdfrwt beam="2">  1       21 0.60384601E-01 0.47772087E+03</pdfrwt>
<totfact> 0.12573306E+03</totfact>
</mgrwt>
</event>
<event>
 4    1  0.4862039E-002  0.4336952E+03  0.7818608E-02  0.1032699E+00
         21   -1    0    0  503  502  0.00000000000E+00  0.00000000000E+00  0.76875687317E+03  0.76875687317E+03  0.00000000000E+00 0.  1.
         21   -1    0    0  501  503 -0.00000000000E+00 -0.00000000000E+00 -0.27379263157E+03  0.27379263157E+03  0.00000000000E+00 0.  1.
    9000007    1    1    2  501    0  0.16040135694E+03  0.48610328501E+02  0.41749151239E+03  0.60198897188E+03  0.40000000000E+03 0.  1.
   -9000007    1    1    2    0  502 -0.16040135694E+03 -0.48610328501E+02  0.77472729201E+02  0.44056053286E+03  0.40000000000E+03 0.  1.
<mgrwt>
<rscale>  2 0.43369524E+03</rscale>
<asrwt>0</asrwt>
<pdfrwt beam="1">  1       21 0.11827029E+00 0.43369524E+03</pdfrwt>
<pdfrwt beam="2">  1       21 0.42121943E-01 0.43369524E+03</pdfrwt>
<totfact> 0.25843604E+03</totfact>
</mgrwt>
</event>
<event>
 4    1  0.4862039E-002  0.4465462E+03  0.7818608E-02  0.1028757E+00
         21   -1    0    0  503  502  0.00000000000E+00  0.00000000000E+00  0.24204346734E+03  0.24204346734E+03  0.00000000000E+00 0. -1.
         21   -1    0    0  501  503 -0.00000000000E+00 -0.00000000000E+00 -0.82825041890E+03  0.82825041890E+03  0.00000000000E+00 0. -1.
    9000007    1    1    2  501    0  0.88400165368E+02  0.17773280206E+03 -0.25402410164E+03  0.51374291467E+03  0.40000000000E+03 0. -1.
   -9000007    1    1    2    0  502 -0.88400165368E+02 -0.17773280206E+03 -0.33218284993E+03  0.55655097157E+03  0.40000000000E+03 0. -1.
<mgrwt>
<rscale>  2 0.44654623E+03</rscale>
<asrwt>0</asrwt>
<pdfrwt beam="1">  1       21 0.37237457E-01 0.44654623E+03</pdfrwt>
<pdfrwt beam="2">  1       21 0.12742314E+00 0.44654623E+03</pdfrwt>
<totfact> 0.27382098E+03</totfact>
</mgrwt>
</event>
<event>
 4    1  0.4862039E-002  0.4851637E+03  0.7818608E-02  0.1017726E+00
         21   -1    0    0  501  502  0.00000000000E+00  0.00000000000E+00  0.39521153877E+03  0.39521153877E+03  0.00000000000E+00 0.  1.
         21   -1    0    0  502  503 -0.00000000000E+00 -0.00000000000E+00 -0.62292617214E+03  0.62292617214E+03  0.00000000000E+00 0.  1.
    9000007    1    1    2  501    0 -0.12612810671E+03  0.24387611522E+03 -0.72147136644E+01  0.48521738527E+03  0.40000000000E+03 0.  1.
   -9000007    1    1    2    0  503  0.12612810671E+03 -0.24387611522E+03 -0.22049991971E+03  0.53292032563E+03  0.40000000000E+03 0.  1.
<mgrwt>
<rscale>  2 0.48516374E+03</rscale>
<asrwt>0</asrwt>
<pdfrwt beam="1">  1       21 0.60801775E-01 0.48516374E+03</pdfrwt>
<pdfrwt beam="2">  1       21 0.95834795E-01 0.48516374E+03</pdfrwt>
<totfact> 0.19461668E+03</totfact>
</mgrwt>
</event>
<event>
 4    1  0.4862039E-002  0.5372981E+03  0.7818608E-02  0.1004477E+00
         21   -1    0    0  503  502  0.00000000000E+00  0.00000000000E+00  0.17031437331E+04  0.17031437331E+04  0.00000000000E+00 0.  1.
         21   -1    0    0  501  503 -0.00000000000E+00 -0.00000000000E+00 -0.11645126970E+04  0.11645126970E+04  0.00000000000E+00 0.  1.
    9000007    1    1    2  501    0 -0.35872991080E+03 -0.14560322161E+01 -0.10560586403E+04  0.11848835895E+04  0.40000000000E+03 0.  1.
   -9000007    1    1    2    0  502  0.35872991080E+03  0.14560322161E+01  0.15946896764E+04  0.16827728406E+04  0.40000000000E+03 0.  1.
<mgrwt>
<rscale>  2 0.53729812E+03</rscale>
<asrwt>0</asrwt>
<pdfrwt beam="1">  1       21 0.26202211E+00 0.53729812E+03</pdfrwt>
<pdfrwt beam="2">  1       21 0.17915580E+00 0.53729812E+03</pdfrwt>
<totfact> 0.71729754E+00</totfact>
</mgrwt>
</event>
<event>
 4    1  0.4862039E-002  0.4775383E+03  0.7818608E-02  0.1019814E+00
         21   -1    0    0  501  502  0.00000000000E+00  0.00000000000E+00  0.76885369365E+03  0.76885369365E+03  0.00000000000E+00 0. -1.
         21   -1    0    0  502  503 -0.00000000000E+00 -0.00000000000E+00 -0.30101895726E+03  0.30101895726E+03  0.00000000000E+00 0. -1.
    9000007    1    1    2  501    0  0.15335549100E+03 -0.21100918418E+03  0.29872339681E+03  0.56327475554E+03  0.40000000000E+03 0. -1.
   -9000007    1    1    2    0  503 -0.15335549100E+03  0.21100918418E+03  0.16911133958E+03  0.50659789538E+03  0.40000000000E+03 0. -1.
<mgrwt>
<rscale>  2 0.47753825E+03</rscale>
<asrwt>0</asrwt>
<pdfrwt beam="1">  1       21 0.11828518E+00 0.47753825E+03</pdfrwt>
<pdfrwt beam="2">  1       21 0.46310609E-01 0.47753825E+03</pdfrwt>
<totfact> 0.20849477E+03</totfact>
</mgrwt>
</event>
<event>
 4    1  0.4862039E-002  0.4043843E+03  0.7818608E-02  0.1042272E+00
         21   -1    0    0  503  502  0.00000000000E+00  0.00000000000E+00  0.12088836173E+03  0.12088836173E+03  0.00000000000E+00 0.  1.
         21   -1    0    0  501  503 -0.00000000000E+00 -0.00000000000E+00 -0.13642643796E+04  0.13642643796E+04  0.00000000000E+00 0.  1.
    9000007    1    1    2  501    0  0.22021155191E+02 -0.55152227945E+02 -0.55334475025E+03  0.68535911182E+03  0.40000000000E+03 0. -1.
   -9000007    1    1    2    0  502 -0.22021155191E+02  0.55152227945E+02 -0.69003126766E+03  0.79979362956E+03  0.40000000000E+03 0. -1.
<mgrwt>
<rscale>  2 0.40438435E+03</rscale>
<asrwt>0</asrwt>
<pdfrwt beam="1">  1       21 0.18598209E-01 0.40438435E+03</pdfrwt>
<pdfrwt beam="2">  1       21 0.20988683E+00 0.40438435E+03</pdfrwt>
<totfact> 0.26556398E+03</totfact>
</mgrwt>
</event>
<event>
 4    1  0.4862039E-002  0.4819561E+03  0.7818608E-02  0.1018599E+00
         21   -1    0    0  501  502  0.00000000000E+00  0.00000000000E+00  0.26746568178E+04  0.26746568178E+04  0.00000000000E+00 0.  1.
         21   -1    0    0  502  503 -0.00000000000E+00 -0.00000000000E+00 -0.93606144458E+02  0.93606144458E+02  0.00000000000E+00 0. -1.
    9000007    1    1    2  501    0  0.52453247977E+01  0.26880140170E+03  0.16625070909E+04  0.17309568263E+04  0.40000000000E+03 0.  1.
   -9000007    1    1    2    0  503 -0.52453247977E+01 -0.26880140170E+03  0.91854358240E+03  0.10373061360E+04  0.40000000000E+03 0.  1.
<mgrwt>
<rscale>  2 0.48195613E+03</rscale>
<asrwt>0</asrwt>
<pdfrwt beam="1">  1       21 0.41148561E+00 0.48195613E+03</pdfrwt>
<pdfrwt beam="2">  1       21 0.14400947E-01 0.48195613E+03</pdfrwt>
<totfact> 0.23336681E+02</totfact>
</mgrwt>
</event>
<event>
 4    1  0.4862039E-002  0.4170382E+03  0.7818608E-02  0.1038035E+00
         21   -1    0    0  501  502  0.00000000000E+00  0.00000000000E+00  0.13940258992E+04  0.13940258992E+04  0.00000000000E+00 0. -1.
         21   -1    0    0  502  503 -0.00000000000E+00 -0.00000000000E+00 -0.13091530690E+03  0.13091530690E+03  0.00000000000E+00 0. -1.
    9000007    1    1    2  501    0  0.82007993267E+02  0.84826383070E+02  0.79686494461E+03  0.89939677905E+03  0.40000000000E+03 0. -1.
   -9000007    1    1    2    0  503 -0.82007993267E+02 -0.84826383070E+02  0.46624564774E+03  0.62554442709E+03  0.40000000000E+03 0. -1.
<mgrwt>
<rscale>  2 0.41703816E+03</rscale>
<asrwt>0</asrwt>
<pdfrwt beam="1">  1       21 0.21446551E+00 0.41703816E+03</pdfrwt>
<pdfrwt beam="2">  1       21 0.20140817E-01 0.41703816E+03</pdfrwt>
<totfact> 0.21203220E+03</totfact>
</mgrwt>
</event>
<event>
 4    1  0.4862039E-002  0.4659407E+03  0.7818608E-02  0.1023072E+00
         21   -1    0    0  501  502  0.00000000000E+00  0.00000000000E+00  0.28570926963E+04  0.28570926963E+04  0.00000000000E+00 0.  1.
         21   -1    0    0  502  503 -0.00000000000E+00 -0.00000000000E+00 -0.11632541349E+03  0.11632541349E+03  0.00000000000E+00 0.  1.
    9000007    1    1    2  501    0 -0.21370349064E+03 -0.10691822921E+03  0.22458720013E+04  0.22936960862E+04  0.40000000000E+03 0.  1.
   -9000007    1    1    2    0  503  0.21370349064E+03  0.10691822921E+03  0.49489528145E+03  0.67972202351E+03  0.40000000000E+03 0.  1.
<mgrwt>
<rscale>  2 0.46594065E+03</rscale>
<asrwt>0</asrwt>
<pdfrwt beam="1">  1       21 0.43955267E+00 0.46594065E+03</pdfrwt>
<pdfrwt beam="2">  1       21 0.17896220E-01 0.46594065E+03</pdfrwt>
<totfact> 0.10260499E+02</totfact>
</mgrwt>
</event>
<event>
 4    1  0.4862039E-002  0.4736194E+03  0.7818608E-02  0.1020904E+00
         21   -1    0    0  501  502  0.00000000000E+00  0.00000000000E+00  0.16605901719E+04  0.16605901719E+04  0.00000000000E+00 0. -1.
         21   -1    0    0  502  503 -0.00000000000E+00 -0.00000000000E+00 -0.34419524978E+03  0.34419524978E+03  0.00000000000E+00 0.  1.
    9000007    1    1    2  501    0  0.25349029943E+03 -0.76163836317E+01  0.14395131630E+04  0.15154251838E+04  0.40000000000E+03 0. -1.
   -9000007    1    1    2    0  503 -0.25349029943E+03  0.76163836317E+01 -0.12311824087E+03  0.48936023790E+03  0.40000000000E+03 0.  1.
<mgrwt>
<rscale>  2 0.47361941E+03</rscale>
<asrwt>0</asrwt>
<pdfrwt beam="1">  1       21 0.25547541E+00 0.47361941E+03</pdfrwt>
<pdfrwt beam="2">  1       21 0.52953116E-01 0.47361941E+03</pdfrwt>
<totfact> 0.16301293E+02</totfact>
</mgrwt>
</event>
<event>
 4    1  0.4862039E-002  0.4327353E+03  0.7818608E-02  0.1032999E+00
         21   -1    0    0  503  502  0.00000000000E+00  0.00000000000E+00  0.36150735078E+03  0.36150735078E+03  0.00000000000E+00 0.  1.
         21   -1    0    0  501  503 -0.00000000000E+00 -0.00000000000E+00 -0.80928341087E+03  0.80928341087E+03  0.00000000000E+00 0.  1.
    9000007    1    1    2  501    0  0.20191410148E+02 -0.16386612762E+03 -0.57509160196E+03  0.71971532669E+03  0.40000000000E+03 0.  1.
   -9000007    1    1    2    0  502 -0.20191410148E+02  0.16386612762E+03  0.12731554187E+03  0.45107543496E+03  0.40000000000E+03 0.  1.
<mgrwt>
<rscale>  2 0.43273525E+03</rscale>
<asrwt>0</asrwt>
<pdfrwt beam="1">  1       21 0.55616516E-01 0.43273525E+03</pdfrwt>
<pdfrwt beam="2">  1       21 0.12450514E+00 0.43273525E+03</pdfrwt>
<totfact> 0.12595816E+03</totfact>
</mgrwt>
</event>
<event>
 4    1  0.4862039E-002  0.4205054E+03  0.7818608E-02  0.1036902E+00
         21   -1    0    0  503  502  0.00000000000E+00  0.00000000000E+00  0.62975006048E+02  0.62975006048E+02  0.00000000000E+00 0.  1.
         21   -1    0    0  501  503 -0.00000000000E+00 -0.00000000000E+00 -0.29300106250E+04  0.29300106250E+04  0.00000000000E+00 0.  1.
    9000007    1    1    2  501    0  0.59181323245E+02 -0.11542256913E+03 -0.17390757592E+04  0.17891923582E+04  0.40000000000E+03 0. -1.
   -9000007    1    1    2    0  502 -0.59181323245E+02  0.11542256913E+03 -0.11279598598E+04  0.12037932728E+04  0.40000000000E+03 0. -1.
<mgrwt>
<rscale>  2 0.42050541E+03</rscale>
<asrwt>0</asrwt>
<pdfrwt beam="1">  1       21 0.96884662E-02 0.42050541E+03</pdfrwt>
<pdfrwt beam="2">  1       21 0.45077069E+00 0.42050541E+03</pdfrwt>
<totfact> 0.27466306E+02</totfact>
</mgrwt>
</event>
<event>
 4    1  0.4862039E-002  0.4101248E+03  0.7818608E-02  0.1040329E+00
         21   -1    0    0  503  502  0.00000000000E+00  0.00000000000E+00  0.21724734960E+03  0.21724734960E+03  0.00000000000E+00 0.  1.
         21   -1    0    0  501  503 -0.00000000000E+00 -0.00000000000E+00 -0.93297519068E+03  0.93297519068E+03  0.00000000000E+00 0.  1.
    9000007    1    1    2  501    0  0.84626841710E+02  0.32258788078E+02 -0.59508253012E+03  0.72272093467E+03  0.40000000000E+03 0.  1.
   -9000007    1    1    2    0  502 -0.84626841710E+02 -0.32258788078E+02 -0.12064531096E+03  0.42750160561E+03  0.40000000000E+03 0.  1.
<mgrwt>
<rscale>  2 0.41012478E+03</rscale>
<asrwt>0</asrwt>
<pdfrwt beam="1">  1       21 0.33422669E-01 0.41012478E+03</pdfrwt>
<pdfrwt beam="2">  1       21 0.14353465E+00 0.41012478E+03</pdfrwt>
<totfact> 0.25294606E+03</totfact>
</mgrwt>
</event>
<event>
 4    1  0.4862039E-002  0.4765388E+03  0.7818608E-02  0.1020091E+00
         21   -1    0    0  503  502  0.00000000000E+00  0.00000000000E+00  0.71751717185E+03  0.71751717185E+03  0.00000000000E+00 0. -1.
         21   -1    0    0  501  503 -0.00000000000E+00 -0.00000000000E+00 -0.31701410610E+03  0.31701410610E+03  0.00000000000E+00 0. -1.
    9000007    1    1    2  501    0  0.20496545442E+03 -0.15836168656E+03  0.17928242713E+03  0.50914776829E+03  0.40000000000E+03 0. -1.
   -9000007    1    1    2    0  502 -0.20496545442E+03  0.15836168656E+03  0.22122063862E+03  0.52538350966E+03  0.40000000000E+03 0. -1.
<mgrwt>
<rscale>  2 0.47653884E+03</rscale>
<asrwt>0</asrwt>
<pdfrwt beam="1">  1       21 0.11038726E+00 0.47653884E+03</pdfrwt>
<pdfrwt beam="2">  1       21 0.48771401E-01 0.47653884E+03</pdfrwt>
<totfact> 0.22223678E+03</totfact>
</mgrwt>
</event>
<event>
 4    1  0.4862039E-002  0.4537940E+03  0.7818608E-02  0.1026597E+00
         21   -1    0    0  503  502  0.00000000000E+00  0.00000000000E+00  0.22538679840E+04  0.22538679840E+04  0.00000000000E+00 0. -1.
         21   -1    0    0  501  503 -0.00000000000E+00 -0.00000000000E+00 -0.10623856785E+03  0.10623856785E+03  0.00000000000E+00 0. -1.
    9000007    1    1    2  501    0 -0.12922348496E+03  0.17096859823E+03  0.15153242469E+04  0.15818143203E+04  0.40000000000E+03 0. -1.
   -9000007    1    1    2    0  502  0.12922348496E+03 -0.17096859823E+03  0.63230516926E+03  0.77829223157E+03  0.40000000000E+03 0. -1.
<mgrwt>
<rscale>  2 0.45379397E+03</rscale>
<asrwt>0</asrwt>
<pdfrwt beam="1">  1       21 0.34674888E+00 0.45379397E+03</pdfrwt>
<pdfrwt beam="2">  1       21 0.16344397E-01 0.45379397E+03</pdfrwt>
<totfact> 0.48006473E+02</totfact>
</mgrwt>
</event>
<event>
 4    1  0.4862039E-002  0.4194988E+03  0.7818608E-02  0.1037230E+00
         21   -1    0    0  503  502  0.00000000000E+00  0.00000000000E+00  0.18087852489E+03  0.18087852489E+03  0.00000000000E+00 0.  1.
         21   -1    0    0  501  503 -0.00000000000E+00 -0.00000000000E+00 -0.16585734284E+04  0.16585734284E+04  0.00000000000E+00 0.  1.
    9000007    1    1    2  501    0  0.11775203464E+03  0.45974945752E+02 -0.13301984688E+04  0.13947785500E+04  0.40000000000E+03 0.  1.
   -9000007    1    1    2    0  502 -0.11775203464E+03 -0.45974945752E+02 -0.14749643472E+03  0.44467340325E+03  0.40000000000E+03 0.  1.
<mgrwt>
<rscale>  2 0.41949879E+03</rscale>
<asrwt>0</asrwt>
<pdfrwt beam="1">  1       21 0.27827466E-01 0.41949879E+03</pdfrwt>
<pdfrwt beam="2">  1       21 0.25516514E+00 0.41949879E+03</pdfrwt>
<totfact> 0.63164244E+02</totfact>
</mgrwt>
</event>
<event>
 4    1  0.4862039E-002  0.4554613E+03  0.7818608E-02  0.1026106E+00
         21   -1    0    0  503  502  0.00000000000E+00  0.00000000000E+00  0.94078651528E+03  0.94078651528E+03  0.00000000000E+00 0. -1.
         21   -1    0    0  501  503 -0.00000000000E+00 -0.00000000000E+00 -0.23403241578E+03  0.23403241578E+03  0.00000000000E+00 0. -1.
    9000007    1    1    2  501    0  0.19386638983E+03  0.99301445439E+02  0.21213482716E+03  0.50244018456E+03  0.40000000000E+03 0. -1.
   -9000007    1    1    2    0  502 -0.19386638983E+03 -0.99301445439E+02  0.49461927234E+03  0.67237874650E+03  0.40000000000E+03 0. -1.
<mgrwt>
<rscale>  2 0.45546125E+03</rscale>
<asrwt>0</asrwt>
<pdfrwt beam="1">  1       21 0.14473639E+00 0.45546125E+03</pdfrwt>
<pdfrwt beam="2">  1       21 0.36004987E-01 0.45546125E+03</pdfrwt>
<totfact> 0.20899290E+03</totfact>
</mgrwt>
</event>
<event>
 4    1  0.4862039E-002  0.4162179E+03  0.7818608E-02  0.1038304E+00
         21   -1    0    0  501  502  0.00000000000E+00  0.00000000000E+00  0.23583047117E+03  0.23583047117E+03  0.00000000000E+00 0. -1.
         21   -1    0    0  502  503 -0.00000000000E+00 -0.00000000000E+00 -0.13297928632E+04  0.13297928632E+04  0.00000000000E+00 0. -1.
    9000007    1    1    2  501    0 -0.11422089084E+03  0.13816404770E+02 -0.23260225612E+02  0.41686729668E+03  0.40000000000E+03 0. -1.
   -9000007    1    1    2    0  503  0.11422089084E+03 -0.13816404770E+02 -0.10707021664E+04  0.11487560376E+04  0.40000000000E+03 0. -1.
<mgrwt>
<rscale>  2 0.41621786E+03</rscale>
<asrwt>0</asrwt>
<pdfrwt beam="1">  1       21 0.36281611E-01 0.41621786E+03</pdfrwt>
<pdfrwt beam="2">  1       21 0.20458352E+00 0.41621786E+03</pdfrwt>
<totfact> 0.77518782E+02</totfact>
</mgrwt>
</event>
<event>
 4    1  0.4862039E-002  0.4282872E+03  0.7818608E-02  0.1034402E+00
         21   -1    0    0  501  502  0.00000000000E+00  0.00000000000E+00  0.13606702810E+04  0.13606702810E+04  0.00000000000E+00 0. -1.
         21   -1    0    0  502  503 -0.00000000000E+00 -0.00000000000E+00 -0.20835729528E+03  0.20835729528E+03  0.00000000000E+00 0. -1.
    9000007    1    1    2  501    0 -0.15287774325E+03 -0.76377182768E+01  0.10422617106E+04  0.11268271440E+04  0.40000000000E+03 0. -1.
   -9000007    1    1    2    0  503  0.15287774325E+03  0.76377182768E+01  0.11005127511E+03  0.44220043224E+03  0.40000000000E+03 0. -1.
<mgrwt>
<rscale>  2 0.42828722E+03</rscale>
<asrwt>0</asrwt>
<pdfrwt beam="1">  1       21 0.20933388E+00 0.42828722E+03</pdfrwt>
<pdfrwt beam="2">  1       21 0.32054969E-01 0.42828722E+03</pdfrwt>
<totfact> 0.92064359E+02</totfact>
</mgrwt>
</event>
<event>
 4    1  0.4862039E-002  0.4276315E+03  0.7818608E-02  0.1034611E+00
         21   -1    0    0  503  502  0.00000000000E+00  0.00000000000E+00  0.10908676036E+03  0.10908676036E+03  0.00000000000E+00 0.  1.
         21   -1    0    0  501  503 -0.00000000000E+00 -0.00000000000E+00 -0.17496855199E+04  0.17496855199E+04  0.00000000000E+00 0.  1.
    9000007    1    1    2  501    0  0.78546169481E+02  0.12922547685E+03 -0.63004152279E+03  0.76145981184E+03  0.40000000000E+03 0. -1.
   -9000007    1    1    2    0  502 -0.78546169481E+02 -0.12922547685E+03 -0.10105572368E+04  0.10973124685E+04  0.40000000000E+03 0. -1.
<mgrwt>
<rscale>  2 0.42763153E+03</rscale>
<asrwt>0</asrwt>
<pdfrwt beam="1">  1       21 0.16782581E-01 0.42763153E+03</pdfrwt>
<pdfrwt beam="2">  1       21 0.26918235E+00 0.42763153E+03</pdfrwt>
<totfact> 0.13625987E+03</totfact>
</mgrwt>
</event>
<event>
 4    1  0.4862039E-002  0.5881180E+03  0.7818608E-02  0.9930369E-01
         21   -1    0    0  503  502  0.00000000000E+00  0.00000000000E+00  0.46064950067E+03  0.46064950067E+03  0.00000000000E+00 0.  1.
         21   -1    0    0  501  503 -0.00000000000E+00 -0.00000000000E+00 -0.91591865952E+03  0.91591865952E+03  0.00000000000E+00 0.  1.
    9000007    1    1    2  501    0 -0.83861727879E+02 -0.42290663344E+03 -0.51982083433E+03  0.78491815485E+03  0.40000000000E+03 0.  1.
   -9000007    1    1    2    0  502  0.83861727879E+02  0.42290663344E+03  0.64551675481E+02  0.59165000534E+03  0.40000000000E+03 0.  1.
<mgrwt>
<rscale>  2 0.58811802E+03</rscale>
<asrwt>0</asrwt>
<pdfrwt beam="1">  1       21 0.70869154E-01 0.58811802E+03</pdfrwt>
<pdfrwt beam="2">  1       21 0.14091056E+00 0.58811802E+03</pdfrwt>
<totfact> 0.50172971E+02</totfact>
</mgrwt>
</event>
<event>
 4    1  0.4862039E-002  0.4330052E+03  0.7818608E-02  0.1032915E+00
         21   -1    0    0  501  502  0.00000000000E+00  0.00000000000E+00  0.13377815651E+03  0.13377815651E+03  0.00000000000E+00 0. -1.
         21   -1    0    0  502  503 -0.00000000000E+00 -0.00000000000E+00 -0.15775176271E+04  0.15775176271E+04  0.00000000000E+00 0. -1.
    9000007    1    1    2  501    0  0.16540782446E+03  0.11565857962E+02 -0.43607487634E+03  0.61453626031E+03  0.40000000000E+03 0. -1.
   -9000007    1    1    2    0  503 -0.16540782446E+03 -0.11565857962E+02 -0.10076645943E+04  0.10967595233E+04  0.40000000000E+03 0. -1.
<mgrwt>
<rscale>  2 0.43300522E+03</rscale>
<asrwt>0</asrwt>
<pdfrwt beam="1">  1       21 0.20581254E-01 0.43300522E+03</pdfrwt>
<pdfrwt beam="2">  1       21 0.24269502E+00 0.43300522E+03</pdfrwt>
<totfact> 0.13410509E+03</totfact>
</mgrwt>
</event>
<event>
 4    1  0.4862039E-002  0.4080085E+03  0.7818608E-02  0.1041041E+00
         21   -1    0    0  503  502  0.00000000000E+00  0.00000000000E+00  0.57734612665E+03  0.57734612665E+03  0.00000000000E+00 0.  1.
         21   -1    0    0  501  503 -0.00000000000E+00 -0.00000000000E+00 -0.29341124480E+03  0.29341124480E+03  0.00000000000E+00 0.  1.
    9000007    1    1    2  501    0  0.73718963869E+02 -0.32194033948E+02  0.19921582669E+03  0.45404612878E+03  0.40000000000E+03 0.  1.
   -9000007    1    1    2    0  502 -0.73718963869E+02  0.32194033948E+02  0.84719055161E+02  0.41671124266E+03  0.40000000000E+03 0.  1.
<mgrwt>
<rscale>  2 0.40800851E+03</rscale>
<asrwt>0</asrwt>
<pdfrwt beam="1">  1       21 0.88822481E-01 0.40800851E+03</pdfrwt>
<pdfrwt beam="2">  1       21 0.45140192E-01 0.40800851E+03</pdfrwt>
<totfact> 0.45399693E+03</totfact>
</mgrwt>
</event>
<event>
 4    1  0.4862039E-002  0.4654683E+03  0.7818608E-02  0.1023207E+00
         21   -1    0    0  503  502  0.00000000000E+00  0.00000000000E+00  0.88935032377E+03  0.88935032377E+03  0.00000000000E+00 0. -1.
         21   -1    0    0  501  503 -0.00000000000E+00 -0.00000000000E+00 -0.27322236203E+03  0.27322236203E+03  0.00000000000E+00 0. -1.
    9000007    1    1    2  501    0  0.23660280500E+03 -0.26073759663E+02  0.49940948185E+03  0.68269360539E+03  0.40000000000E+03 0. -1.
   -9000007    1    1    2    0  502 -0.23660280500E+03  0.26073759663E+02  0.11671847990E+03  0.47987908042E+03  0.40000000000E+03 0. -1.
<mgrwt>
<rscale>  2 0.46546829E+03</rscale>
<asrwt>0</asrwt>
<pdfrwt beam="1">  1       21 0.13682312E+00 0.46546829E+03</pdfrwt>
<pdfrwt beam="2">  1       21 0.42034210E-01 0.46546829E+03</pdfrwt>
<totfact> 0.17601250E+03</totfact>
</mgrwt>
</event>
<event>
 4    1  0.4862039E-002  0.4254602E+03  0.7818608E-02  0.1035304E+00
         21   -1    0    0  503  502  0.00000000000E+00  0.00000000000E+00  0.75672262420E+03  0.75672262420E+03  0.00000000000E+00 0. -1.
         21   -1    0    0  501  503 -0.00000000000E+00 -0.00000000000E+00 -0.31629416998E+03  0.31629416998E+03  0.00000000000E+00 0. -1.
    9000007    1    1    2  501    0  0.14476882271E+03  0.76389364698E+01 -0.44642343584E+02  0.42779586746E+03  0.40000000000E+03 0. -1.
   -9000007    1    1    2    0  502 -0.14476882271E+03 -0.76389364698E+01  0.48507079780E+03  0.64522092671E+03  0.40000000000E+03 0. -1.
<mgrwt>
<rscale>  2 0.42546018E+03</rscale>
<asrwt>0</asrwt>
<pdfrwt beam="1">  1       21 0.11641886E+00 0.42546018E+03</pdfrwt>
<pdfrwt beam="2">  1       21 0.48660642E-01 0.42546018E+03</pdfrwt>
<totfact> 0.19937494E+03</totfact>
</mgrwt>
</event>
<event>
 4    1  0.4862039E-002  0.4004212E+03  0.7818608E-02  0.1043634E+00
         21   -1    0    0  501  502  0.00000000000E+00  0.00000000000E+00  0.62339611972E+03  0.62339611972E+03  0.00000000000E+00 0. -1.
         21   -1    0    0  502  503 -0.00000000000E+00 -0.00000000000E+00 -0.34151370828E+03  0.34151370828E+03  0.00000000000E+00 0. -1.
    9000007    1    1    2  501    0 -0.18165255799E+02 -0.26808446589E+01  0.38066054678E+03  0.55248494579E+03  0.40000000000E+03 0. -1.
   -9000007    1    1    2    0  503  0.18165255799E+02  0.26808446589E+01 -0.98778135341E+02  0.41242488221E+03  0.40000000000E+03 0. -1.
<mgrwt>
<rscale>  2 0.40042123E+03</rscale>
<asrwt>0</asrwt>
<pdfrwt beam="1">  1       21 0.95907095E-01 0.40042123E+03</pdfrwt>
<pdfrwt beam="2">  1       21 0.52540571E-01 0.40042123E+03</pdfrwt>
<totfact> 0.27530239E+03</totfact>
</mgrwt>
</event>
<event>
 4    1  0.4862039E-002  0.4309744E+03  0.7818608E-02  0.1033553E+00
         21   -1    0    0  501  502  0.00000000000E+00  0.00000000000E+00  0.68430594762E+03  0.68430594762E+03  0.00000000000E+00 0. -1.
         21   -1    0    0  502  503 -0.00000000000E+00 -0.00000000000E+00 -0.56364311178E+03  0.56364311178E+03  0.00000000000E+00 0.  1.
    9000007    1    1    2  501    0 -0.61520077919E+02 -0.14816947074E+03  0.50961138547E+03  0.66741492061E+03  0.40000000000E+03 0. -1.
   -9000007    1    1    2    0  503  0.61520077919E+02  0.14816947074E+03 -0.38894854963E+03  0.58053413879E+03  0.40000000000E+03 0.  1.
<mgrwt>
<rscale>  2 0.43097438E+03</rscale>
<asrwt>0</asrwt>
<pdfrwt beam="1">  1       21 0.10527784E+00 0.43097438E+03</pdfrwt>
<pdfrwt beam="2">  1       21 0.86714325E-01 0.43097438E+03</pdfrwt>
<totfact> 0.70669719E+02</totfact>
</mgrwt>
</event>
<event>
 4    1  0.4862039E-002  0.4411528E+03  0.7818608E-02  0.1030394E+00
         21   -1    0    0  503  502  0.00000000000E+00  0.00000000000E+00  0.34437463898E+03  0.34437463898E+03  0.00000000000E+00 0. -1.
         21   -1    0    0  501  503 -0.00000000000E+00 -0.00000000000E+00 -0.74888766753E+03  0.74888766753E+03  0.00000000000E+00 0. -1.
    9000007    1    1    2  501    0  0.12393774398E+03  0.13876305621E+03  0.68520091973E+02  0.44644232903E+03  0.40000000000E+03 0. -1.
   -9000007    1    1    2    0  502 -0.12393774398E+03 -0.13876305621E+03 -0.47303312052E+03  0.64681997748E+03  0.40000000000E+03 0. -1.
<mgrwt>
<rscale>  2 0.44115275E+03</rscale>
<asrwt>0</asrwt>
<pdfrwt beam="1">  1       21 0.52980714E-01 0.44115275E+03</pdfrwt>
<pdfrwt beam="2">  1       21 0.11521349E+00 0.44115275E+03</pdfrwt>
<totfact> 0.16964906E+03</totfact>
</mgrwt>
</event>
<event>
 4    1  0.4862039E-002  0.4388176E+03  0.7818608E-02  0.1031110E+00
         21   -1    0    0  501  502  0.00000000000E+00  0.00000000000E+00  0.18406527035E+03  0.18406527035E+03  0.00000000000E+00 0. -1.
         21   -1    0    0  502  503 -0.00000000000E+00 -0.00000000000E+00 -0.17215806557E+04  0.17215806557E+04  0.00000000000E+00 0. -1.
    9000007    1    1    2  501    0 -0.63601084745E+01  0.18033412836E+03 -0.17194613585E+03  0.47130279276E+03  0.40000000000E+03 0. -1.
   -9000007    1    1    2    0  503  0.63601084745E+01 -0.18033412836E+03 -0.13655692495E+04  0.14343431333E+04  0.40000000000E+03 0. -1.
<mgrwt>
<rscale>  2 0.43881756E+03</rscale>
<asrwt>0</asrwt>
<pdfrwt beam="1">  1       21 0.28317736E-01 0.43881756E+03</pdfrwt>
<pdfrwt beam="2">  1       21 0.26485855E+00 0.43881756E+03</pdfrwt>
<totfact> 0.52721788E+02</totfact>
</mgrwt>
</event>
<event>
 4    1  0.4862039E-002  0.4367156E+03  0.7818608E-02  0.1031759E+00
         21   -1    0    0  503  502  0.00000000000E+00  0.00000000000E+00  0.27025850733E+04  0.27025850733E+04  0.00000000000E+00 0.  1.
         21   -1    0    0  501  503 -0.00000000000E+00 -0.00000000000E+00 -0.79487598256E+02  0.79487598256E+02  0.00000000000E+00 0. -1.
    9000007    1    1    2  501    0 -0.82506727000E+02  0.15463881840E+03  0.17774789665E+04  0.18303420446E+04  0.40000000000E+03 0.  1.
   -9000007    1    1    2    0  502  0.82506727000E+02 -0.15463881840E+03  0.84561850859E+03  0.95173062693E+03  0.40000000000E+03 0. -1.
<mgrwt>
<rscale>  2 0.43671561E+03</rscale>
<asrwt>0</asrwt>
<pdfrwt beam="1">  1       21 0.41578225E+00 0.43671561E+03</pdfrwt>
<pdfrwt beam="2">  1       21 0.12228863E-01 0.43671561E+03</pdfrwt>
<totfact> 0.30437060E+02</totfact>
</mgrwt>
</event>
<event>
 4    1  0.4862039E-002  0.4074723E+03  0.7818608E-02  0.1041223E+00
         21   -1    0    0  503  502  0.00000000000E+00  0.00000000000E+00  0.29380348475E+03  0.29380348475E+03  0.00000000000E+00 0.  1.
         21   -1    0    0  501  503 -0.00000000000E+00 -0.00000000000E+00 -0.11300430610E+04  0.11300430610E+04  0.00000000000E+00 0.  1.
    9000007    1    1    2  501    0  0.40586630030E+02  0.66229779768E+02 -0.92148255427E+03  0.10075533515E+04  0.40000000000E+03 0.  1.
   -9000007    1    1    2    0  502 -0.40586630030E+02 -0.66229779768E+02  0.85242978048E+02  0.41629319424E+03  0.40000000000E+03 0.  1.
<mgrwt>
<rscale>  2 0.40747228E+03</rscale>
<asrwt>0</asrwt>
<pdfrwt beam="1">  1       21 0.45200536E-01 0.40747228E+03</pdfrwt>
<pdfrwt beam="2">  1       21 0.17385278E+00 0.40747228E+03</pdfrwt>
<totfact> 0.80373807E+02</totfact>
</mgrwt>
</event>
<event>
 4    1  0.4862039E-002  0.4090969E+03  0.7818608E-02  0.1040674E+00
         21   -1    0    0  503  502  0.00000000000E+00  0.00000000000E+00  0.23335251896E+04  0.23335251896E+04  0.00000000000E+00 0. -1.
         21   -1    0    0  501  503 -0.00000000000E+00 -0.00000000000E+00 -0.75789222185E+02  0.75789222185E+02  0.00000000000E+00 0. -1.
    9000007    1    1    2  501    0  0.76173243005E+02 -0.39470063791E+02  0.84972962314E+03  0.94308042145E+03  0.40000000000E+03 0.  1.
   -9000007    1    1    2    0  502 -0.76173243005E+02  0.39470063791E+02  0.14080063443E+04  0.14662339903E+04  0.40000000000E+03 0.  1.
<mgrwt>
<rscale>  2 0.40909687E+03</rscale>
<asrwt>0</asrwt>
<pdfrwt beam="1">  1       21 0.35900382E+00 0.40909687E+03</pdfrwt>
<pdfrwt beam="2">  1       21 0.11659882E-01 0.40909687E+03</pdfrwt>
<totfact> 0.77296573E+02</totfact>
</mgrwt>
</event>
<event>
 4    1  0.4862039E-002  0.5665079E+03  0.7818608E-02  0.9977436E-01
         21   -1    0    0  503  502  0.00000000000E+00  0.00000000000E+00  0.15575428372E+04  0.15575428372E+04  0.00000000000E+00 0.  1.
         21   -1    0    0  501  503 -0.00000000000E+00 -0.00000000000E+00 -0.21319199130E+03  0.21319199130E+03  0.00000000000E+00 0.  1.
    9000007    1    1    2  501    0 -0.28491841542E+03 -0.28240518226E+03  0.51012217950E+03  0.76233577145E+03  0.40000000000E+03 0.  1.
   -9000007    1    1    2    0  502  0.28491841542E+03  0.28240518226E+03  0.83422866637E+03  0.10083990570E+04  0.40000000000E+03 0.  1.
<mgrwt>
<rscale>  2 0.56650789E+03</rscale>
<asrwt>0</asrwt>
<pdfrwt beam="1">  1       21 0.23962197E+00 0.56650789E+03</pdfrwt>
<pdfrwt beam="2">  1       21 0.32798769E-01 0.56650789E+03</pdfrwt>
<totfact> 0.52970676E+02</totfact>
</mgrwt>
</event>
<event>
 4    1  0.4862039E-002  0.4995669E+03  0.7818608E-02  0.1013892E+00
         21   -1    0    0  501  502  0.00000000000E+00  0.00000000000E+00  0.28431238499E+04  0.28431238499E+04  0.00000000000E+00 0.  1.
         21   -1    0    0  502  503 -0.00000000000E+00 -0.00000000000E+00 -0.10049669462E+03  0.10049669462E+03  0.00000000000E+00 0.  1.
    9000007    1    1    2  501    0  0.19877055342E+03 -0.22373510020E+03  0.18948860159E+04  0.19596326547E+04  0.40000000000E+03 0.  1.
   -9000007    1    1    2    0  503 -0.19877055342E+03  0.22373510020E+03  0.84774113932E+03  0.98398788979E+03  0.40000000000E+03 0.  1.
<mgrwt>
<rscale>  2 0.49956694E+03</rscale>
<asrwt>0</asrwt>
<pdfrwt beam="1">  1       21 0.43740361E+00 0.49956694E+03</pdfrwt>
<pdfrwt beam="2">  1       21 0.15461032E-01 0.49956694E+03</pdfrwt>
<totfact> 0.13642990E+02</totfact>
</mgrwt>
</event>
<event>
 4    1  0.4862039E-002  0.5900068E+03  0.7818608E-02  0.9926358E-01
         21   -1    0    0  501  502  0.00000000000E+00  0.00000000000E+00  0.15393053882E+04  0.15393053882E+04  0.00000000000E+00 0. -1.
         21   -1    0    0  502  503 -0.00000000000E+00 -0.00000000000E+00 -0.54972339832E+03  0.54972339832E+03  0.00000000000E+00 0.  1.
    9000007    1    1    2  501    0 -0.35475224172E+02 -0.43226090019E+03  0.12961577297E+04  0.14241252886E+04  0.40000000000E+03 0. -1.
   -9000007    1    1    2    0  503  0.35475224172E+02  0.43226090019E+03 -0.30657573979E+03  0.66490349795E+03  0.40000000000E+03 0.  1.
<mgrwt>
<rscale>  2 0.59000676E+03</rscale>
<asrwt>0</asrwt>
<pdfrwt beam="1">  1       21 0.23681621E+00 0.59000676E+03</pdfrwt>
<pdfrwt beam="2">  1       21 0.84572831E-01 0.59000676E+03</pdfrwt>
<totfact> 0.70194898E+01</totfact>
</mgrwt>
</event>
<event>
 4    1  0.4862039E-002  0.4610034E+03  0.7818608E-02  0.1024491E+00
         21   -1    0    0  501  502  0.00000000000E+00  0.00000000000E+00  0.35149433103E+03  0.35149433103E+03  0.00000000000E+00 0.  1.
         21   -1    0    0  502  503 -0.00000000000E+00 -0.00000000000E+00 -0.83554646758E+03  0.83554646758E+03  0.00000000000E+00 0.  1.
    9000007    1    1    2  501    0 -0.22634265723E+03 -0.35960124738E+02  0.69990388230E+02  0.46628616053E+03  0.40000000000E+03 0.  1.
   -9000007    1    1    2    0  503  0.22634265723E+03  0.35960124738E+02 -0.55404252479E+03  0.72075463809E+03  0.40000000000E+03 0.  1.
<mgrwt>
<rscale>  2 0.46100339E+03</rscale>
<asrwt>0</asrwt>
<pdfrwt beam="1">  1       21 0.54076051E-01 0.46100339E+03</pdfrwt>
<pdfrwt beam="2">  1       21 0.12854561E+00 0.46100339E+03</pdfrwt>
<totfact> 0.12182216E+03</totfact>
</mgrwt>
</event>
<event>
 4    1  0.4862039E-002  0.6062253E+03  0.7818608E-02  0.9892574E-01
         21   -1    0    0  503  502  0.00000000000E+00  0.00000000000E+00  0.16068378972E+04  0.16068378972E+04  0.00000000000E+00 0. -1.
         21   -1    0    0  501  503 -0.00000000000E+00 -0.00000000000E+00 -0.23201859174E+03  0.23201859174E+03  0.00000000000E+00 0.  1.
    9000007    1    1    2  501    0  0.21043196480E+03 -0.40401428515E+03  0.79710785917E+03  0.10014440042E+04  0.40000000000E+03 0.  1.
   -9000007    1    1    2    0  502 -0.21043196480E+03  0.40401428515E+03  0.57771144634E+03  0.83741248477E+03  0.40000000000E+03 0. -1.
<mgrwt>
<rscale>  2 0.60622533E+03</rscale>
<asrwt>0</asrwt>
<pdfrwt beam="1">  1       21 0.24720582E+00 0.60622533E+03</pdfrwt>
<pdfrwt beam="2">  1       21 0.35695169E-01 0.60622533E+03</pdfrwt>
<totfact> 0.39369086E+02</totfact>
</mgrwt>
</event>
<event>
 4    1  0.4862039E-002  0.4003121E+03  0.7818608E-02  0.1043672E+00
         21   -1    0    0  503  502  0.00000000000E+00  0.00000000000E+00  0.10887200950E+04  0.10887200950E+04  0.00000000000E+00 0.  1.
         21   -1    0    0  501  503 -0.00000000000E+00 -0.00000000000E+00 -0.24372087867E+03  0.24372087867E+03  0.00000000000E+00 0.  1.
    9000007    1    1    2  501    0  0.11645203218E+02  0.10683203195E+02  0.32210862189E+01  0.40032501419E+03  0.40000000000E+03 0.  1.
   -9000007    1    1    2    0  502 -0.11645203218E+02 -0.10683203195E+02  0.84177813014E+03  0.93211595951E+03  0.40000000000E+03 0.  1.
<mgrwt>
<rscale>  2 0.40031206E+03</rscale>
<asrwt>0</asrwt>
<pdfrwt beam="1">  1       21 0.16749540E+00 0.40031206E+03</pdfrwt>
<pdfrwt beam="2">  1       21 0.37495520E-01 0.40031206E+03</pdfrwt>
<totfact> 0.13186630E+03</totfact>
</mgrwt>
</event>
<event>
 4    1  0.4862039E-002  0.6572759E+03  0.7818608E-02  0.9793221E-01
         21   -1    0    0  501  502  0.00000000000E+00  0.00000000000E+00  0.55683777397E+03  0.55683777397E+03  0.00000000000E+00 0. -1.
         21   -1    0    0  502  503 -0.00000000000E+00 -0.00000000000E+00 -0.10136752247E+04  0.10136752247E+04  0.00000000000E+00 0.  1.
    9000007    1    1    2  501    0 -0.51153409937E+03  0.10170788770E+03  0.15195371967E+03  0.67461215684E+03  0.40000000000E+03 0.  1.
   -9000007    1    1    2    0  503  0.51153409937E+03 -0.10170788770E+03 -0.60879117037E+03  0.89590084181E+03  0.40000000000E+03 0.  1.
<mgrwt>
<rscale>  2 0.65727592E+03</rscale>
<asrwt>0</asrwt>
<pdfrwt beam="1">  1       21 0.85667351E-01 0.65727592E+03</pdfrwt>
<pdfrwt beam="2">  1       21 0.15595003E+00 0.65727592E+03</pdfrwt>
<totfact> 0.23938922E+02</totfact>
</mgrwt>
</event>
<event>
 4    1  0.4862039E-002  0.4525586E+03  0.7818608E-02  0.1026962E+00
         21   -1    0    0  501  502  0.00000000000E+00  0.00000000000E+00  0.37854339760E+03  0.37854339760E+03  0.00000000000E+00 0. -1.
         21   -1    0    0  502  503 -0.00000000000E+00 -0.00000000000E+00 -0.66097032194E+03  0.66097032194E+03  0.00000000000E+00 0.  1.
    9000007    1    1    2  501    0  0.20221836731E+03 -0.62586373619E+02  0.80179196244E+02  0.45960638132E+03  0.40000000000E+03 0. -1.
   -9000007    1    1    2    0  503 -0.20221836731E+03  0.62586373619E+02 -0.36260612059E+03  0.57990733822E+03  0.40000000000E+03 0.  1.
<mgrwt>
<rscale>  2 0.45255864E+03</rscale>
<asrwt>0</asrwt>
<pdfrwt beam="1">  1       21 0.58237447E-01 0.45255864E+03</pdfrwt>
<pdfrwt beam="2">  1       21 0.10168774E+00 0.45255864E+03</pdfrwt>
<totfact> 0.18748039E+03</totfact>
</mgrwt>
</event>
<event>
 4    1  0.4862039E-002  0.4001988E+03  0.7818608E-02  0.1043711E+00
         21   -1    0    0  501  502  0.00000000000E+00  0.00000000000E+00  0.60410726833E+02  0.60410726833E+02  0.00000000000E+00 0. -1.
         21   -1    0    0  502  503 -0.00000000000E+00 -0.00000000000E+00 -0.28316164320E+04  0.28316164320E+04  0.00000000000E+00 0. -1.
    9000007    1    1    2  501    0  0.11461601489E+02 -0.52663532293E+01 -0.10205721569E+04  0.10962329270E+04  0.40000000000E+03 0. -1.
   -9000007    1    1    2    0  503 -0.11461601489E+02  0.52663532293E+01 -0.17506335483E+04  0.17957942319E+04  0.40000000000E+03 0. -1.
<mgrwt>
<rscale>  2 0.40019883E+03</rscale>
<asrwt>0</asrwt>
<pdfrwt beam="1">  1       21 0.92939605E-02 0.40019883E+03</pdfrwt>
<pdfrwt beam="2">  1       21 0.43563318E+00 0.40019883E+03</pdfrwt>
<totfact> 0.37938946E+02</totfact>
</mgrwt>
</event>
<event>
 4    1  0.4862039E-002  0.6166405E+03  0.7818608E-02  0.9871471E-01
         21   -1    0    0  501  502  0.00000000000E+00  0.00000000000E+00  0.96822415602E+03  0.96822415602E+03  0.00000000000E+00 0. -1.
         21   -1    0    0  502  503 -0.00000000000E+00 -0.00000000000E+00 -0.62324869194E+03  0.62324869194E+03  0.00000000000E+00 0. -1.
    9000007    1    1    2  501    0  0.45548205993E+03 -0.11305576197E+03  0.65643344165E+03  0.90063887078E+03  0.40000000000E+03 0. -1.
   -9000007    1    1    2    0  503 -0.45548205993E+03  0.11305576197E+03 -0.31145797757E+03  0.69083397718E+03  0.40000000000E+03 0. -1.
<mgrwt>
<rscale>  2 0.61664050E+03</rscale>
<asrwt>0</asrwt>
<pdfrwt beam="1">  1       21 0.14895756E+00 0.61664050E+03</pdfrwt>
<pdfrwt beam="2">  1       21 0.95884414E-01 0.61664050E+03</pdfrwt>
<totfact> 0.21043221E+02</totfact>
</mgrwt>
</event>
<event>
 4    1  0.4862039E-002  0.4974274E+03  0.7818608E-02  0.1014453E+00
         21   -1    0    0  503  502  0.00000000000E+00  0.00000000000E+00  0.34211903347E+03  0.34211903347E+03  0.00000000000E+00 0. -1.
         21   -1    0    0  501  503 -0.00000000000E+00 -0.00000000000E+00 -0.77442633677E+03  0.77442633677E+03  0.00000000000E+00 0. -1.
    9000007    1    1    2  501    0  0.29524277990E+03 -0.16301107458E+02 -0.35968115818E+03  0.61384408503E+03  0.40000000000E+03 0. -1.
   -9000007    1    1    2    0  502 -0.29524277990E+03  0.16301107458E+02 -0.72626145127E+02  0.50270128520E+03  0.40000000000E+03 0. -1.
<mgrwt>
<rscale>  2 0.49742741E+03</rscale>
<asrwt>0</asrwt>
<pdfrwt beam="1">  1       21 0.52633698E-01 0.49742741E+03</pdfrwt>
<pdfrwt beam="2">  1       21 0.11914251E+00 0.49742741E+03</pdfrwt>
<totfact> 0.15480501E+03</totfact>
</mgrwt>
</event>
<event>
 4    1  0.4862039E-002  0.4000335E+03  0.7818608E-02  0.1043768E+00
         21   -1    0    0  503  502  0.00000000000E+00  0.00000000000E+00  0.14464086674E+03  0.14464086674E+03  0.00000000000E+00 0. -1.
         21   -1    0    0  501  503 -0.00000000000E+00 -0.00000000000E+00 -0.16446315610E+04  0.16446315610E+04  0.00000000000E+00 0. -1.
    9000007    1    1    2  501    0 -0.47581547556E+01 -0.20424096465E+01 -0.12618038120E+04  0.13236977266E+04  0.40000000000E+03 0. -1.
   -9000007    1    1    2    0  502  0.47581547556E+01  0.20424096465E+01 -0.23818688234E+03  0.46557470119E+03  0.40000000000E+03 0. -1.
<mgrwt>
<rscale>  2 0.40003351E+03</rscale>
<asrwt>0</asrwt>
<pdfrwt beam="1">  1       21 0.22252441E-01 0.40003351E+03</pdfrwt>
<pdfrwt beam="2">  1       21 0.25302024E+00 0.40003351E+03</pdfrwt>
<totfact> 0.10159164E+03</totfact>
</mgrwt>
</event>
<event>
 4    1  0.4862039E-002  0.4169697E+03  0.7818608E-02  0.1038057E+00
         21   -1    0    0  503  502  0.00000000000E+00  0.00000000000E+00  0.22236588634E+03  0.22236588634E+03  0.00000000000E+00 0. -1.
         21   -1    0    0  501  503 -0.00000000000E+00 -0.00000000000E+00 -0.10540057518E+04  0.10540057518E+04  0.00000000000E+00 0. -1.
    9000007    1    1    2  501    0  0.55790892078E+02 -0.10368753355E+03 -0.74009192734E+03  0.84947029917E+03  0.40000000000E+03 0. -1.
   -9000007    1    1    2    0  502 -0.55790892078E+02  0.10368753355E+03 -0.91547938131E+02  0.42690133899E+03  0.40000000000E+03 0. -1.
<mgrwt>
<rscale>  2 0.41696970E+03</rscale>
<asrwt>0</asrwt>
<pdfrwt beam="1">  1       21 0.34210138E-01 0.41696970E+03</pdfrwt>
<pdfrwt beam="2">  1       21 0.16215472E+00 0.41696970E+03</pdfrwt>
<totfact> 0.17254937E+03</totfact>
</mgrwt>
</event>
<event>
 4    1  0.4862039E-002  0.4131235E+03  0.7818608E-02  0.1039328E+00
         21   -1    0    0  501  502  0.00000000000E+00  0.00000000000E+00  0.23164911930E+03  0.23164911930E+03  0.00000000000E+00 0. -1.
         21   -1    0    0  502  503 -0.00000000000E+00 -0.00000000000E+00 -0.17358011843E+04  0.17358011843E+04  0.00000000000E+00 0. -1.
    9000007    1    1    2  501    0  0.95125252514E+02 -0.40276436343E+02 -0.57744621145E+01  0.41316382877E+03  0.40000000000E+03 0. -1.
   -9000007    1    1    2    0  503 -0.95125252514E+02  0.40276436343E+02 -0.14983776029E+04  0.15542864749E+04  0.40000000000E+03 0. -1.
<mgrwt>
<rscale>  2 0.41312347E+03</rscale>
<asrwt>0</asrwt>
<pdfrwt beam="1">  1       21 0.35638326E-01 0.41312347E+03</pdfrwt>
<pdfrwt beam="2">  1       21 0.26704634E+00 0.41312347E+03</pdfrwt>
<totfact> 0.32783874E+02</totfact>
</mgrwt>
</event>
<event>
 4    1  0.4862039E-002  0.5849305E+03  0.7818608E-02  0.9937173E-01
         21   -1    0    0  501  502  0.00000000000E+00  0.00000000000E+00  0.31024623747E+03  0.31024623747E+03  0.00000000000E+00 0. -1.
         21   -1    0    0  502  503 -0.00000000000E+00 -0.00000000000E+00 -0.12643768424E+04  0.12643768424E+04  0.00000000000E+00 0.  1.
    9000007    1    1    2  501    0 -0.33368437214E+03 -0.26607967947E+03 -0.19562899459E+03  0.61677739871E+03  0.40000000000E+03 0.  1.
   -9000007    1    1    2    0  503  0.33368437214E+03  0.26607967947E+03 -0.75850161036E+03  0.95784568117E+03  0.40000000000E+03 0. -1.
<mgrwt>
<rscale>  2 0.58493047E+03</rscale>
<asrwt>0</asrwt>
<pdfrwt beam="1">  1       21 0.47730189E-01 0.58493047E+03</pdfrwt>
<pdfrwt beam="2">  1       21 0.19451952E+00 0.58493047E+03</pdfrwt>
<totfact> 0.47620277E+02</totfact>
</mgrwt>
</event>
<event>
 4    1  0.4862039E-002  0.5422956E+03  0.7818608E-02  0.1003293E+00
         21   -1    0    0  503  502  0.00000000000E+00  0.00000000000E+00  0.52189303209E+03  0.52189303209E+03  0.00000000000E+00 0.  1.
         21   -1    0    0  501  503 -0.00000000000E+00 -0.00000000000E+00 -0.69029233281E+03  0.69029233281E+03  0.00000000000E+00 0.  1.
    9000007    1    1    2  501    0  0.35289740122E+03  0.97713510551E+02 -0.34396205101E+03  0.64217941299E+03  0.40000000000E+03 0.  1.
   -9000007    1    1    2    0  502 -0.35289740122E+03 -0.97713510551E+02  0.17556275029E+03  0.57000595192E+03  0.40000000000E+03 0.  1.
<mgrwt>
<rscale>  2 0.54229559E+03</rscale>
<asrwt>0</asrwt>
<pdfrwt beam="1">  1       21 0.80291236E-01 0.54229559E+03</pdfrwt>
<pdfrwt beam="2">  1       21 0.10619882E+00 0.54229559E+03</pdfrwt>
<totfact> 0.79207910E+02</totfact>
</mgrwt>
</event>
<event>
 4    1  0.4862039E-002  0.4062345E+03  0.7818608E-02  0.1041642E+00
         21   -1    0    0  503  502  0.00000000000E+00  0.00000000000E+00  0.34810327290E+03  0.34810327290E+03  0.00000000000E+00 0. -1.
         21   -1    0    0  501  503 -0.00000000000E+00 -0.00000000000E+00 -0.49668648418E+03  0.49668648418E+03  0.00000000000E+00 0. -1.
    9000007    1    1    2  501    0 -0.70302859485E+02  0.91640070453E+01  0.15836082099E+02  0.40654305132E+03  0.40000000000E+03 0. -1.
   -9000007    1    1    2    0  502  0.70302859485E+02 -0.91640070453E+01 -0.16441929338E+03  0.43824670576E+03  0.40000000000E+03 0. -1.
<mgrwt>
<rscale>  2 0.40623450E+03</rscale>
<asrwt>0</asrwt>
<pdfrwt beam="1">  1       21 0.53554350E-01 0.40623450E+03</pdfrwt>
<pdfrwt beam="2">  1       21 0.76413305E-01 0.40623450E+03</pdfrwt>
<totfact> 0.44845368E+03</totfact>
</mgrwt>
</event>
<event>
 4    1  0.4862039E-002  0.4918784E+03  0.7818608E-02  0.1015921E+00
         21   -1    0    0  503  502  0.00000000000E+00  0.00000000000E+00  0.21670939233E+03  0.21670939233E+03  0.00000000000E+00 0.  1.
         21   -1    0    0  501  503 -0.00000000000E+00 -0.00000000000E+00 -0.14258721168E+04  0.14258721168E+04  0.00000000000E+00 0.  1.
    9000007    1    1    2  501    0  0.25773554397E+03  0.12456610112E+03 -0.98717272538E+03  0.11029298772E+04  0.40000000000E+03 0.  1.
   -9000007    1    1    2    0  502 -0.25773554397E+03 -0.12456610112E+03 -0.22198999904E+03  0.53965163193E+03  0.40000000000E+03 0.  1.
<mgrwt>
<rscale>  2 0.49187836E+03</rscale>
<asrwt>0</asrwt>
<pdfrwt beam="1">  1       21 0.33339906E-01 0.49187836E+03</pdfrwt>
<pdfrwt beam="2">  1       21 0.21936494E+00 0.49187836E+03</pdfrwt>
<totfact> 0.71099712E+02</totfact>
</mgrwt>
</event>
<event>
 4    1  0.4862039E-002  0.4239669E+03  0.7818608E-02  0.1035783E+00
         21   -1    0    0  503  502  0.00000000000E+00  0.00000000000E+00  0.12691406690E+03  0.12691406690E+03  0.00000000000E+00 0. -1.
         21   -1    0    0  501  503 -0.00000000000E+00 -0.00000000000E+00 -0.18613167886E+04  0.18613167886E+04  0.00000000000E+00 0. -1.
    9000007    1    1    2  501    0  0.45116481584E+02 -0.13308796053E+03 -0.13532914330E+04  0.14181486539E+04  0.40000000000E+03 0. -1.
   -9000007    1    1    2    0  502 -0.45116481584E+02  0.13308796053E+03 -0.38111128878E+03  0.57008220161E+03  0.40000000000E+03 0. -1.
<mgrwt>
<rscale>  2 0.42396686E+03</rscale>
<asrwt>0</asrwt>
<pdfrwt beam="1">  1       21 0.19525241E-01 0.42396686E+03</pdfrwt>
<pdfrwt beam="2">  1       21 0.28635642E+00 0.42396686E+03</pdfrwt>
<totfact> 0.80923937E+02</totfact>
</mgrwt>
</event>
<event>
 4    1  0.4862039E-002  0.5770724E+03  0.7818608E-02  0.9954149E-01
         21   -1    0    0  501  502  0.00000000000E+00  0.00000000000E+00  0.56070997740E+03  0.56070997740E+03  0.00000000000E+00 0. -1.
         21   -1    0    0  502  503 -0.00000000000E+00 -0.00000000000E+00 -0.11051429430E+04  0.11051429430E+04  0.00000000000E+00 0.  1.
    9000007    1    1    2  501    0 -0.25396050073E+02 -0.41517179070E+03  0.29429126372E+03  0.64778076774E+03  0.40000000000E+03 0. -1.
   -9000007    1    1    2    0  503  0.25396050073E+02  0.41517179070E+03 -0.83872422930E+03  0.10180721526E+04  0.40000000000E+03 0.  1.
<mgrwt>
<rscale>  2 0.57707242E+03</rscale>
<asrwt>0</asrwt>
<pdfrwt beam="1">  1       21 0.86263074E-01 0.57707242E+03</pdfrwt>
<pdfrwt beam="2">  1       21 0.17002199E+00 0.57707242E+03</pdfrwt>
<totfact> 0.18978716E+02</totfact>
</mgrwt>
</event>
<event>
 4    1  0.4862039E-002  0.5351691E+03  0.7818608E-02  0.1004986E+00
         21   -1    0    0  503  502  0.00000000000E+00  0.00000000000E+00  0.60304854775E+03  0.60304854775E+03  0.00000000000E+00 0. -1.
         21   -1    0    0  501  503 -0.00000000000E+00 -0.00000000000E+00 -0.47523209459E+03  0.47523209459E+03  0.00000000000E+00 0. -1.
    9000007    1    1    2  501    0  0.24869547079E+02  0.35466536323E+03  0.77495136582E+02  0.54075087651E+03  0.40000000000E+03 0. -1.
   -9000007    1    1    2    0  502 -0.24869547079E+02 -0.35466536323E+03  0.50321316576E+02  0.53752976583E+03  0.40000000000E+03 0. -1.
<mgrwt>
<rscale>  2 0.53516915E+03</rscale>
<asrwt>0</asrwt>
<pdfrwt beam="1">  1       21 0.92776700E-01 0.53516915E+03</pdfrwt>
<pdfrwt beam="2">  1       21 0.73112630E-01 0.53516915E+03</pdfrwt>
<totfact> 0.13689660E+03</totfact>
</mgrwt>
</event>
<event>
 4    1  0.4862039E-002  0.4843157E+03  0.7818608E-02  0.1017956E+00
         21   -1    0    0  501  502  0.00000000000E+00  0.00000000000E+00  0.96876310685E+03  0.96876310685E+03  0.00000000000E+00 0.  1.
         21   -1    0    0  502  503 -0.00000000000E+00 -0.00000000000E+00 -0.45199845600E+03  0.45199845600E+03  0.00000000000E+00 0.  1.
    9000007    1    1    2  501    0 -0.69816570922E+02 -0.26398352975E+03  0.74244500677E+03  0.88644585037E+03  0.40000000000E+03 0.  1.
   -9000007    1    1    2    0  503  0.69816570922E+02  0.26398352975E+03 -0.22568035593E+03  0.53431571248E+03  0.40000000000E+03 0.  1.
<mgrwt>
<rscale>  2 0.48431566E+03</rscale>
<asrwt>0</asrwt>
<pdfrwt beam="1">  1       21 0.14904048E+00 0.48431566E+03</pdfrwt>
<pdfrwt beam="2">  1       21 0.69538224E-01 0.48431566E+03</pdfrwt>
<totfact> 0.46832244E+02</totfact>
</mgrwt>
</event>
<event>
 4    1  0.4862039E-002  0.5725259E+03  0.7818608E-02  0.9964105E-01
         21   -1    0    0  501  502  0.00000000000E+00  0.00000000000E+00  0.76928816225E+03  0.76928816225E+03  0.00000000000E+00 0.  1.
         21   -1    0    0  502  503 -0.00000000000E+00 -0.00000000000E+00 -0.88549993763E+03  0.88549993763E+03  0.00000000000E+00 0.  1.
    9000007    1    1    2  501    0 -0.19113011748E+03  0.36229159728E+03  0.53785582762E+03  0.78554109668E+03  0.40000000000E+03 0.  1.
   -9000007    1    1    2    0  503  0.19113011748E+03 -0.36229159728E+03 -0.65406760300E+03  0.86924700320E+03  0.40000000000E+03 0.  1.
<mgrwt>
<rscale>  2 0.57252591E+03</rscale>
<asrwt>0</asrwt>
<pdfrwt beam="1">  1       21 0.11835203E+00 0.57252591E+03</pdfrwt>
<pdfrwt beam="2">  1       21 0.13623076E+00 0.57252591E+03</pdfrwt>
<totfact> 0.16148766E+02</totfact>
</mgrwt>
</event>
<event>
 4    1  0.4862039E-002  0.4596367E+03  0.7818608E-02  0.1024887E+00
         21   -1    0    0  501  502  0.00000000000E+00  0.00000000000E+00  0.13083736902E+04  0.13083736902E+04  0.00000000000E+00 0.  1.
         21   -1    0    0  502  503 -0.00000000000E+00 -0.00000000000E+00 -0.23712686454E+03  0.23712686454E+03  0.00000000000E+00 0.  1.
    9000007    1    1    2  501    0 -0.65741715299E+01  0.22632420751E+03  0.97210596687E+03  0.10752933913E+04  0.40000000000E+03 0.  1.
   -9000007    1    1    2    0  503  0.65741715299E+01 -0.22632420751E+03  0.99140858785E+02  0.47020716340E+03  0.40000000000E+03 0.  1.
<mgrwt>
<rscale>  2 0.45963667E+03</rscale>
<asrwt>0</asrwt>
<pdfrwt beam="1">  1       21 0.20128826E+00 0.45963667E+03</pdfrwt>
<pdfrwt beam="2">  1       21 0.36481057E-01 0.45963667E+03</pdfrwt>
<totfact> 0.78924576E+02</totfact>
</mgrwt>
</event>
<event>
 4    1  0.4862039E-002  0.4805563E+03  0.7818608E-02  0.1018982E+00
         21   -1    0    0  503  502  0.00000000000E+00  0.00000000000E+00  0.10592074328E+04  0.10592074328E+04  0.00000000000E+00 0.  1.
         21   -1    0    0  501  503 -0.00000000000E+00 -0.00000000000E+00 -0.23194288866E+03  0.23194288866E+03  0.00000000000E+00 0. -1.
    9000007    1    1    2  501    0  0.31644547968E+02  0.26444850563E+03  0.57176902271E+03  0.74689638162E+03  0.40000000000E+03 0.  1.
   -9000007    1    1    2    0  502 -0.31644547968E+02 -0.26444850563E+03  0.25549552139E+03  0.54425393981E+03  0.40000000000E+03 0. -1.
<mgrwt>
<rscale>  2 0.48055633E+03</rscale>
<asrwt>0</asrwt>
<pdfrwt beam="1">  1       21 0.16295499E+00 0.48055633E+03</pdfrwt>
<pdfrwt beam="2">  1       21 0.35683522E-01 0.48055633E+03</pdfrwt>
<totfact> 0.15220027E+03</totfact>
</mgrwt>
</event>
<event>
 4    1  0.4862039E-002  0.4923853E+03  0.7818608E-02  0.1015786E+00
         21   -1    0    0  503  502  0.00000000000E+00  0.00000000000E+00  0.56254941862E+03  0.56254941862E+03  0.00000000000E+00 0. -1.
         21   -1    0    0  501  503 -0.00000000000E+00 -0.00000000000E+00 -0.13096785828E+04  0.13096785828E+04  0.00000000000E+00 0. -1.
    9000007    1    1    2  501    0 -0.25254620554E+03 -0.13661525219E+03 -0.11403400354E+04  0.12421025358E+04  0.40000000000E+03 0. -1.
   -9000007    1    1    2    0  502  0.25254620554E+03  0.13661525219E+03  0.39321087129E+03  0.63012546557E+03  0.40000000000E+03 0. -1.
<mgrwt>
<rscale>  2 0.49238533E+03</rscale>
<asrwt>0</asrwt>
<pdfrwt beam="1">  1       21 0.86546065E-01 0.49238533E+03</pdfrwt>
<pdfrwt beam="2">  1       21 0.20148901E+00 0.49238533E+03</pdfrwt>
<totfact> 0.11794643E+02</totfact>
</mgrwt>
</event>
<event>
 4    1  0.4862039E-002  0.4329363E+03  0.7818608E-02  0.1032936E+00
         21   -1    0    0  503  502  0.00000000000E+00  0.00000000000E+00  0.13249451684E+04  0.13249451684E+04  0.00000000000E+00 0.  1.
         21   -1    0    0  501  503 -0.00000000000E+00 -0.00000000000E+00 -0.14153275315E+03  0.14153275315E+03  0.00000000000E+00 0.  1.
    9000007    1    1    2  501    0 -0.15929848727E+03 -0.45363793984E+02  0.60770310853E+03  0.74614807509E+03  0.40000000000E+03 0.  1.
   -9000007    1    1    2    0  502  0.15929848727E+03  0.45363793984E+02  0.57570930674E+03  0.72032984647E+03  0.40000000000E+03 0.  1.
<mgrwt>
<rscale>  2 0.43293635E+03</rscale>
<asrwt>0</asrwt>
<pdfrwt beam="1">  1       21 0.20383771E+00 0.43293635E+03</pdfrwt>
<pdfrwt beam="2">  1       21 0.21774271E-01 0.43293635E+03</pdfrwt>
<totfact> 0.21273962E+03</totfact>
</mgrwt>
</event>
<event>
 4    1  0.4862039E-002  0.4733277E+03  0.7818608E-02  0.1020985E+00
         21   -1    0    0  503  502  0.00000000000E+00  0.00000000000E+00  0.15979489573E+03  0.15979489573E+03  0.00000000000E+00 0. -1.
         21   -1    0    0  501  503 -0.00000000000E+00 -0.00000000000E+00 -0.14430532751E+04  0.14430532751E+04  0.00000000000E+00 0. -1.
    9000007    1    1    2  501    0 -0.24854894389E+03 -0.47566143078E+02 -0.50652333771E+03  0.69325681181E+03  0.40000000000E+03 0. -1.
   -9000007    1    1    2    0  502  0.24854894389E+03  0.47566143078E+02 -0.77673504170E+03  0.90959135907E+03  0.40000000000E+03 0. -1.
<mgrwt>
<rscale>  2 0.47332770E+03</rscale>
<asrwt>0</asrwt>
<pdfrwt beam="1">  1       21 0.24583831E-01 0.47332770E+03</pdfrwt>
<pdfrwt beam="2">  1       21 0.22200819E+00 0.47332770E+03</pdfrwt>
<totfact> 0.12601870E+03</totfact>
</mgrwt>
</event>
<event>
 4    1  0.4862039E-002  0.5351722E+03  0.7818608E-02  0.1004985E+00
         21   -1    0    0  503  502  0.00000000000E+00  0.00000000000E+00  0.29302595823E+03  0.29302595823E+03  0.00000000000E+00 0. -1.
         21   -1    0    0  501  503 -0.00000000000E+00 -0.00000000000E+00 -0.99566825971E+03  0.99566825971E+03  0.00000000000E+00 0. -1.
    9000007    1    1    2  501    0 -0.30336198974E+03 -0.18542066643E+03 -0.26408875161E+03  0.59678487672E+03  0.40000000000E+03 0. -1.
   -9000007    1    1    2    0  502  0.30336198974E+03  0.18542066643E+03 -0.43855354987E+03  0.69190934122E+03  0.40000000000E+03 0. -1.
<mgrwt>
<rscale>  2 0.53517223E+03</rscale>
<asrwt>0</asrwt>
<pdfrwt beam="1">  1       21 0.45080916E-01 0.53517223E+03</pdfrwt>
<pdfrwt beam="2">  1       21 0.15317974E+00 0.53517223E+03</pdfrwt>
<totfact> 0.10930949E+03</totfact>
</mgrwt>
</event>
<event>
 4    1  0.4862039E-002  0.5918039E+03  0.7818608E-02  0.9922558E-01
         21   -1    0    0  501  502  0.00000000000E+00  0.00000000000E+00  0.82161110090E+03  0.82161110090E+03  0.00000000000E+00 0.  1.
         21   -1    0    0  502  503 -0.00000000000E+00 -0.00000000000E+00 -0.61803532855E+03  0.61803532855E+03  0.00000000000E+00 0. -1.
    9000007    1    1    2  501    0 -0.42366045600E+03  0.10365170498E+03  0.50274613403E+03  0.77652143126E+03  0.40000000000E+03 0.  1.
   -9000007    1    1    2    0  503  0.42366045600E+03 -0.10365170498E+03 -0.29917036168E+03  0.66312499820E+03  0.40000000000E+03 0. -1.
<mgrwt>
<rscale>  2 0.59180390E+03</rscale>
<asrwt>0</asrwt>
<pdfrwt beam="1">  1       21 0.12640171E+00 0.59180390E+03</pdfrwt>
<pdfrwt beam="2">  1       21 0.95082358E-01 0.59180390E+03</pdfrwt>
<totfact> 0.33558616E+02</totfact>
</mgrwt>
</event>
<event>
 4    1  0.4862039E-002  0.5057706E+03  0.7818608E-02  0.1012284E+00
         21   -1    0    0  501  502  0.00000000000E+00  0.00000000000E+00  0.15992750391E+04  0.15992750391E+04  0.00000000000E+00 0. -1.
         21   -1    0    0  502  503 -0.00000000000E+00 -0.00000000000E+00 -0.31156372511E+03  0.31156372511E+03  0.00000000000E+00 0. -1.
    9000007    1    1    2  501    0 -0.16715160073E+03  0.26050764993E+03  0.13103400688E+04  0.14045622056E+04  0.40000000000E+03 0. -1.
   -9000007    1    1    2    0  503  0.16715160073E+03 -0.26050764993E+03 -0.22628754836E+02  0.50627655866E+03  0.40000000000E+03 0. -1.
<mgrwt>
<rscale>  2 0.50577059E+03</rscale>
<asrwt>0</asrwt>
<pdfrwt beam="1">  1       21 0.24604231E+00 0.50577059E+03</pdfrwt>
<pdfrwt beam="2">  1       21 0.47932882E-01 0.50577059E+03</pdfrwt>
<totfact> 0.22662104E+02</totfact>
</mgrwt>
</event>
<event>
 4    1  0.4862039E-002  0.4337228E+03  0.7818608E-02  0.1032690E+00
         21   -1    0    0  501  502  0.00000000000E+00  0.00000000000E+00  0.93105490203E+03  0.93105490203E+03  0.00000000000E+00 0. -1.
         21   -1    0    0  502  503 -0.00000000000E+00 -0.00000000000E+00 -0.20318150990E+03  0.20318150990E+03  0.00000000000E+00 0. -1.
    9000007    1    1    2  501    0 -0.43156555431E+01  0.16762105974E+03  0.32153098660E+03  0.53990519529E+03  0.40000000000E+03 0. -1.
   -9000007    1    1    2    0  503  0.43156555431E+01 -0.16762105974E+03  0.40634240553E+03  0.59433121665E+03  0.40000000000E+03 0. -1.
<mgrwt>
<rscale>  2 0.43372277E+03</rscale>
<asrwt>0</asrwt>
<pdfrwt beam="1">  1       21 0.14323921E+00 0.43372277E+03</pdfrwt>
<pdfrwt beam="2">  1       21 0.31258694E-01 0.43372277E+03</pdfrwt>
<totfact> 0.28806184E+03</totfact>
</mgrwt>
</event>
<event>
 4    1  0.4862039E-002  0.5105042E+03  0.7818608E-02  0.1011073E+00
         21   -1    0    0  501  502  0.00000000000E+00  0.00000000000E+00  0.64261208150E+03  0.64261208150E+03  0.00000000000E+00 0. -1.
         21   -1    0    0  502  503 -0.00000000000E+00 -0.00000000000E+00 -0.12915186682E+04  0.12915186682E+04  0.00000000000E+00 0.  1.
    9000007    1    1    2  501    0 -0.15374076044E+03  0.27744973176E+03  0.47651151275E+03  0.69833931355E+03  0.40000000000E+03 0. -1.
   -9000007    1    1    2    0  503  0.15374076044E+03 -0.27744973176E+03 -0.11254180995E+04  0.12357914362E+04  0.40000000000E+03 0.  1.
<mgrwt>
<rscale>  2 0.51050424E+03</rscale>
<asrwt>0</asrwt>
<pdfrwt beam="1">  1       21 0.98863399E-01 0.51050424E+03</pdfrwt>
<pdfrwt beam="2">  1       21 0.19869518E+00 0.51050424E+03</pdfrwt>
<totfact> 0.88787325E+01</totfact>
</mgrwt>
</event>
<event>
 4    1  0.4862039E-002  0.4656346E+03  0.7818608E-02  0.1023160E+00
         21   -1    0    0  503  502  0.00000000000E+00  0.00000000000E+00  0.72427308601E+03  0.72427308601E+03  0.00000000000E+00 0. -1.
         21   -1    0    0  501  503 -0.00000000000E+00 -0.00000000000E+00 -0.74371950567E+03  0.74371950567E+03  0.00000000000E+00 0.  1.
    9000007    1    1    2  501    0 -0.95678412608E+02 -0.21831452492E+03 -0.57708281190E+03  0.74151207827E+03  0.40000000000E+03 0.  1.
   -9000007    1    1    2    0  502  0.95678412608E+02  0.21831452492E+03  0.55763639224E+03  0.72648051342E+03  0.40000000000E+03 0. -1.
<mgrwt>
<rscale>  2 0.46563461E+03</rscale>
<asrwt>0</asrwt>
<pdfrwt beam="1">  1       21 0.11142663E+00 0.46563461E+03</pdfrwt>
<pdfrwt beam="2">  1       21 0.11441839E+00 0.46563461E+03</pdfrwt>
<totfact> 0.30844909E+02</totfact>
</mgrwt>
</event>
<event>
 4    1  0.4862039E-002  0.4101546E+03  0.7818608E-02  0.1040319E+00
         21   -1    0    0  503  502  0.00000000000E+00  0.00000000000E+00  0.23618560731E+03  0.23618560731E+03  0.00000000000E+00 0.  1.
         21   -1    0    0  501  503 -0.00000000000E+00 -0.00000000000E+00 -0.73182351045E+03  0.73182351045E+03  0.00000000000E+00 0.  1.
    9000007    1    1    2  501    0  0.89971771697E+02 -0.11482547463E+02 -0.32694380018E+03  0.52451789014E+03  0.40000000000E+03 0. -1.
   -9000007    1    1    2    0  502 -0.89971771697E+02  0.11482547463E+02 -0.16869410296E+03  0.44349122762E+03  0.40000000000E+03 0. -1.
<mgrwt>
<rscale>  2 0.41015457E+03</rscale>
<asrwt>0</asrwt>
<pdfrwt beam="1">  1       21 0.36336247E-01 0.41015457E+03</pdfrwt>
<pdfrwt beam="2">  1       21 0.11258823E+00 0.41015457E+03</pdfrwt>
<totfact> 0.39928237E+03</totfact>
</mgrwt>
</event>
<event>
 4    1  0.4862039E-002  0.4465131E+03  0.7818608E-02  0.1028767E+00
         21   -1    0    0  501  502  0.00000000000E+00  0.00000000000E+00  0.71412145850E+03  0.71412145850E+03  0.00000000000E+00 0. -1.
         21   -1    0    0  502  503 -0.00000000000E+00 -0.00000000000E+00 -0.29636645636E+03  0.29636645636E+03  0.00000000000E+00 0. -1.
    9000007    1    1    2  501    0 -0.21287869898E+02  0.19728341904E+03  0.87235772515E+02  0.45495494375E+03  0.40000000000E+03 0. -1.
   -9000007    1    1    2    0  503  0.21287869898E+02 -0.19728341904E+03  0.33051922963E+03  0.55553297111E+03  0.40000000000E+03 0. -1.
<mgrwt>
<rscale>  2 0.44651307E+03</rscale>
<asrwt>0</asrwt>
<pdfrwt beam="1">  1       21 0.10986484E+00 0.44651307E+03</pdfrwt>
<pdfrwt beam="2">  1       21 0.45594840E-01 0.44651307E+03</pdfrwt>
<totfact> 0.26205028E+03</totfact>
</mgrwt>
</event>
<event>
 4    1  0.4862039E-002  0.4132489E+03  0.7818608E-02  0.1039286E+00
         21   -1    0    0  503  502  0.00000000000E+00  0.00000000000E+00  0.11533285860E+03  0.11533285860E+03  0.00000000000E+00 0.  1.
         21   -1    0    0  501  503 -0.00000000000E+00 -0.00000000000E+00 -0.14818979371E+04  0.14818979371E+04  0.00000000000E+00 0.  1.
    9000007    1    1    2  501    0  0.10380072453E+03  0.27587419954E+00 -0.66068359017E+03  0.77928009909E+03  0.40000000000E+03 0. -1.
   -9000007    1    1    2    0  502 -0.10380072453E+03 -0.27587419954E+00 -0.70588148835E+03  0.81795069662E+03  0.40000000000E+03 0. -1.
<mgrwt>
<rscale>  2 0.41324892E+03</rscale>
<asrwt>0</asrwt>
<pdfrwt beam="1">  1       21 0.17743518E-01 0.41324892E+03</pdfrwt>
<pdfrwt beam="2">  1       21 0.22798429E+00 0.41324892E+03</pdfrwt>
<totfact> 0.22142418E+03</totfact>
</mgrwt>
</event>
<event>
 4    1  0.4862039E-002  0.4177670E+03  0.7818608E-02  0.1037796E+00
         21   -1    0    0  503  502  0.00000000000E+00  0.00000000000E+00  0.57579520072E+03  0.57579520072E+03  0.00000000000E+00 0.  1.
         21   -1    0    0  501  503 -0.00000000000E+00 -0.00000000000E+00 -0.52212172730E+03  0.52212172730E+03  0.00000000000E+00 0. -1.
    9000007    1    1    2  501    0 -0.46114497276E+02 -0.11136763612E+03 -0.32870227731E+03  0.53157735499E+03  0.40000000000E+03 0. -1.
   -9000007    1    1    2    0  502  0.46114497276E+02  0.11136763612E+03  0.38237575073E+03  0.56633957303E+03  0.40000000000E+03 0.  1.
<mgrwt>
<rscale>  2 0.41776704E+03</rscale>
<asrwt>0</asrwt>
<pdfrwt beam="1">  1       21 0.88583877E-01 0.41776704E+03</pdfrwt>
<pdfrwt beam="2">  1       21 0.80326420E-01 0.41776704E+03</pdfrwt>
<totfact> 0.12867170E+03</totfact>
</mgrwt>
</event>
<event>
 4    1  0.4862039E-002  0.4013911E+03  0.7818608E-02  0.1043299E+00
         21   -1    0    0  501  502  0.00000000000E+00  0.00000000000E+00  0.52793746889E+03  0.52793746889E+03  0.00000000000E+00 0.  1.
         21   -1    0    0  502  503 -0.00000000000E+00 -0.00000000000E+00 -0.30519932168E+03  0.30519932168E+03  0.00000000000E+00 0.  1.
    9000007    1    1    2  501    0 -0.33464486672E+01  0.33220832566E+02  0.10787515111E+03  0.41563429919E+03  0.40000000000E+03 0.  1.
   -9000007    1    1    2    0  503  0.33464486672E+01 -0.33220832566E+02  0.11486299611E+03  0.41750249138E+03  0.40000000000E+03 0.  1.
<mgrwt>
<rscale>  2 0.40139111E+03</rscale>
<asrwt>0</asrwt>
<pdfrwt beam="1">  1       21 0.81221149E-01 0.40139111E+03</pdfrwt>
<pdfrwt beam="2">  1       21 0.46953742E-01 0.40139111E+03</pdfrwt>
<totfact> 0.51632411E+03</totfact>
</mgrwt>
</event>
<event>
 4    1  0.4862039E-002  0.4024252E+03  0.7818608E-02  0.1042943E+00
         21   -1    0    0  503  502  0.00000000000E+00  0.00000000000E+00  0.70716654335E+03  0.70716654335E+03  0.00000000000E+00 0. -1.
         21   -1    0    0  501  503 -0.00000000000E+00 -0.00000000000E+00 -0.92875556094E+03  0.92875556094E+03  0.00000000000E+00 0. -1.
    9000007    1    1    2  501    0 -0.21853207353E+02 -0.38320327496E+02 -0.82078568732E+03  0.91413081924E+03  0.40000000000E+03 0. -1.
   -9000007    1    1    2    0  502  0.21853207353E+02  0.38320327496E+02  0.59919666973E+03  0.72179128506E+03  0.40000000000E+03 0. -1.
<mgrwt>
<rscale>  2 0.40242516E+03</rscale>
<asrwt>0</asrwt>
<pdfrwt beam="1">  1       21 0.10879485E+00 0.40242516E+03</pdfrwt>
<pdfrwt beam="2">  1       21 0.14288547E+00 0.40242516E+03</pdfrwt>
<totfact> 0.19050345E+02</totfact>
</mgrwt>
</event>
<event>
 4    1  0.4862039E-002  0.4371503E+03  0.7818608E-02  0.1031625E+00
         21   -1    0    0  503  502  0.00000000000E+00  0.00000000000E+00  0.57577200420E+03  0.57577200420E+03  0.00000000000E+00 0.  1.
         21   -1    0    0  501  503 -0.00000000000E+00 -0.00000000000E+00 -0.37711843779E+03  0.37711843779E+03  0.00000000000E+00 0. -1.
    9000007    1    1    2  501    0 -0.12632697299E+03 -0.12305248344E+03 -0.65648079933E+02  0.44205213288E+03  0.40000000000E+03 0. -1.
   -9000007    1    1    2    0  502  0.12632697299E+03  0.12305248344E+03  0.26430164634E+03  0.51083830910E+03  0.40000000000E+03 0.  1.
<mgrwt>
<rscale>  2 0.43715034E+03</rscale>
<asrwt>0</asrwt>
<pdfrwt beam="1">  1       21 0.88580309E-01 0.43715034E+03</pdfrwt>
<pdfrwt beam="2">  1       21 0.58018221E-01 0.43715034E+03</pdfrwt>
<totfact> 0.26467893E+03</totfact>
</mgrwt>
</event>
<event>
 4    1  0.4862039E-002  0.5697704E+03  0.7818608E-02  0.9970187E-01
         21   -1    0    0  501  502  0.00000000000E+00  0.00000000000E+00  0.33148173022E+03  0.33148173022E+03  0.00000000000E+00 0.  1.
         21   -1    0    0  502  503 -0.00000000000E+00 -0.00000000000E+00 -0.12152517645E+04  0.12152517645E+04  0.00000000000E+00 0. -1.
    9000007    1    1    2  501    0  0.39175413949E+03 -0.10567396710E+03 -0.10115268353E+03  0.57867966831E+03  0.40000000000E+03 0.  1.
   -9000007    1    1    2    0  503 -0.39175413949E+03  0.10567396710E+03 -0.78261735071E+03  0.96805382638E+03  0.40000000000E+03 0. -1.
<mgrwt>
<rscale>  2 0.56977039E+03</rscale>
<asrwt>0</asrwt>
<pdfrwt beam="1">  1       21 0.50997188E-01 0.56977039E+03</pdfrwt>
<pdfrwt beam="2">  1       21 0.18696181E+00 0.56977039E+03</pdfrwt>
<totfact> 0.46882824E+02</totfact>
</mgrwt>
</event>
<event>
 4    1  0.4862039E-002  0.4861617E+03  0.7818608E-02  0.1017455E+00
         21   -1    0    0  503  502  0.00000000000E+00  0.00000000000E+00  0.23820514315E+04  0.23820514315E+04  0.00000000000E+00 0.  1.
         21   -1    0    0  501  503 -0.00000000000E+00 -0.00000000000E+00 -0.14895943224E+03  0.14895943224E+03  0.00000000000E+00 0.  1.
    9000007    1    1    2  501    0 -0.12249816710E+02  0.27604912631E+03  0.38529013834E+03  0.62032384191E+03  0.40000000000E+03 0.  1.
   -9000007    1    1    2    0  502  0.12249816710E+02 -0.27604912631E+03  0.18478018609E+04  0.19106870218E+04  0.40000000000E+03 0.  1.
<mgrwt>
<rscale>  2 0.48616168E+03</rscale>
<asrwt>0</asrwt>
<pdfrwt beam="1">  1       21 0.36646942E+00 0.48616168E+03</pdfrwt>
<pdfrwt beam="2">  1       21 0.22916837E-01 0.48616168E+03</pdfrwt>
<totfact> 0.18709665E+02</totfact>
</mgrwt>
</event>
<event>
 4    1  0.4862039E-002  0.4224825E+03  0.7818608E-02  0.1036261E+00
         21   -1    0    0  501  502  0.00000000000E+00  0.00000000000E+00  0.69187722535E+03  0.69187722535E+03  0.00000000000E+00 0.  1.
         21   -1    0    0  502  503 -0.00000000000E+00 -0.00000000000E+00 -0.25846829407E+03  0.25846829407E+03  0.00000000000E+00 0.  1.
    9000007    1    1    2  501    0  0.11762216493E+02 -0.13547364168E+03  0.23732803269E+03  0.48457822117E+03  0.40000000000E+03 0. -1.
   -9000007    1    1    2    0  503 -0.11762216493E+02  0.13547364168E+03  0.19608089859E+03  0.46576729825E+03  0.40000000000E+03 0. -1.
<mgrwt>
<rscale>  2 0.42248249E+03</rscale>
<asrwt>0</asrwt>
<pdfrwt beam="1">  1       21 0.10644265E+00 0.42248249E+03</pdfrwt>
<pdfrwt beam="2">  1       21 0.39764353E-01 0.42248249E+03</pdfrwt>
<totfact> 0.37987514E+03</totfact>
</mgrwt>
</event>
<event>
 4    1  0.4862039E-002  0.6571757E+03  0.7818608E-02  0.9793407E-01
         21   -1    0    0  503  502  0.00000000000E+00  0.00000000000E+00  0.36468759154E+03  0.36468759154E+03  0.00000000000E+00 0.  1.
         21   -1    0    0  501  503 -0.00000000000E+00 -0.00000000000E+00 -0.12731849826E+04  0.12731849826E+04  0.00000000000E+00 0.  1.
    9000007    1    1    2  501    0  0.34488291603E+03  0.39106998417E+03 -0.67069467569E+03  0.93899483826E+03  0.40000000000E+03 0. -1.
   -9000007    1    1    2    0  502 -0.34488291603E+03 -0.39106998417E+03 -0.23780271539E+03  0.69887773590E+03  0.40000000000E+03 0. -1.
<mgrwt>
<rscale>  2 0.65717574E+03</rscale>
<asrwt>0</asrwt>
<pdfrwt beam="1">  1       21 0.56105782E-01 0.65717574E+03</pdfrwt>
<pdfrwt beam="2">  1       21 0.19587462E+00 0.65717574E+03</pdfrwt>
<totfact> 0.32087654E+02</totfact>
</mgrwt>
</event>
<event>
 4    1  0.4862039E-002  0.5257452E+03  0.7818608E-02  0.1007269E+00
         21   -1    0    0  501  502  0.00000000000E+00  0.00000000000E+00  0.45640410823E+03  0.45640410823E+03  0.00000000000E+00 0. -1.
         21   -1    0    0  502  503 -0.00000000000E+00 -0.00000000000E+00 -0.69597238599E+03  0.69597238599E+03  0.00000000000E+00 0.  1.
    9000007    1    1    2  501    0 -0.11102430823E+03 -0.32261687975E+03  0.87819559582E+02  0.53302938302E+03  0.40000000000E+03 0. -1.
   -9000007    1    1    2    0  503  0.11102430823E+03  0.32261687975E+03 -0.32738783734E+03  0.61934711120E+03  0.40000000000E+03 0.  1.
<mgrwt>
<rscale>  2 0.52574523E+03</rscale>
<asrwt>0</asrwt>
<pdfrwt beam="1">  1       21 0.70216017E-01 0.52574523E+03</pdfrwt>
<pdfrwt beam="2">  1       21 0.10707267E+00 0.52574523E+03</pdfrwt>
<totfact> 0.10613272E+03</totfact>
</mgrwt>
</event>
<event>
 4    1  0.4862039E-002  0.4061533E+03  0.7818608E-02  0.1041670E+00
         21   -1    0    0  501  502  0.00000000000E+00  0.00000000000E+00  0.66448177158E+03  0.66448177158E+03  0.00000000000E+00 0.  1.
         21   -1    0    0  502  503 -0.00000000000E+00 -0.00000000000E+00 -0.50228542258E+03  0.50228542258E+03  0.00000000000E+00 0.  1.
    9000007    1    1    2  501    0  0.66720954425E+02 -0.22557419744E+02  0.49597798956E+03  0.64105747720E+03  0.40000000000E+03 0.  1.
   -9000007    1    1    2    0  503 -0.66720954425E+02  0.22557419744E+02 -0.33378164056E+03  0.52570971697E+03  0.40000000000E+03 0.  1.
<mgrwt>
<rscale>  2 0.40615332E+03</rscale>
<asrwt>0</asrwt>
<pdfrwt beam="1">  1       21 0.10222796E+00 0.40615332E+03</pdfrwt>
<pdfrwt beam="2">  1       21 0.77274681E-01 0.40615332E+03</pdfrwt>
<totfact> 0.10032670E+03</totfact>
</mgrwt>
</event>
<event>
 4    1  0.4862039E-002  0.6977560E+03  0.7818608E-02  0.9721077E-01
         21   -1    0    0  503  502  0.00000000000E+00  0.00000000000E+00  0.81374982129E+03  0.81374982129E+03  0.00000000000E+00 0.  1.
         21   -1    0    0  501  503 -0.00000000000E+00 -0.00000000000E+00 -0.64647772550E+03  0.64647772550E+03  0.00000000000E+00 0.  1.
    9000007    1    1    2  501    0  0.30975836959E+03  0.48053431373E+03  0.28295737206E+03  0.75294644471E+03  0.40000000000E+03 0.  1.
   -9000007    1    1    2    0  502 -0.30975836959E+03 -0.48053431373E+03 -0.11568527627E+03  0.70728110207E+03  0.40000000000E+03 0.  1.
<mgrwt>
<rscale>  2 0.69775603E+03</rscale>
<asrwt>0</asrwt>
<pdfrwt beam="1">  1       21 0.12519228E+00 0.69775603E+03</pdfrwt>
<pdfrwt beam="2">  1       21 0.99458112E-01 0.69775603E+03</pdfrwt>
<totfact> 0.29801982E+02</totfact>
</mgrwt>
</event>
<event>
 4    1  0.4862039E-002  0.4448439E+03  0.7818608E-02  0.1029271E+00
         21   -1    0    0  501  502  0.00000000000E+00  0.00000000000E+00  0.12685139691E+04  0.12685139691E+04  0.00000000000E+00 0. -1.
         21   -1    0    0  502  503 -0.00000000000E+00 -0.00000000000E+00 -0.32765393147E+03  0.32765393147E+03  0.00000000000E+00 0. -1.
    9000007    1    1    2  501    0  0.81448069762E+02  0.17678333708E+03  0.10480866990E+04  0.11385832709E+04  0.40000000000E+03 0. -1.
   -9000007    1    1    2    0  503 -0.81448069762E+02 -0.17678333708E+03 -0.10722666136E+03  0.45758462959E+03  0.40000000000E+03 0. -1.
<mgrwt>
<rscale>  2 0.44484395E+03</rscale>
<asrwt>0</asrwt>
<pdfrwt beam="1">  1       21 0.19515599E+00 0.44484395E+03</pdfrwt>
<pdfrwt beam="2">  1       21 0.50408298E-01 0.44484395E+03</pdfrwt>
<totfact> 0.44581004E+02</totfact>
</mgrwt>
</event>
<event>
 4    1  0.4862039E-002  0.6752710E+03  0.7818608E-02  0.9760482E-01
         21   -1    0    0  503  502  0.00000000000E+00  0.00000000000E+00  0.11634834444E+04  0.11634834444E+04  0.00000000000E+00 0. -1.
         21   -1    0    0  501  503 -0.00000000000E+00 -0.00000000000E+00 -0.41127050634E+03  0.41127050634E+03  0.00000000000E+00 0.  1.
    9000007    1    1    2  501    0  0.12781879014E+03  0.52882259725E+03  0.20530992820E+03  0.70579256803E+03  0.40000000000E+03 0. -1.
   -9000007    1    1    2    0  502 -0.12781879014E+03 -0.52882259725E+03  0.54690300989E+03  0.86896138274E+03  0.40000000000E+03 0. -1.
<mgrwt>
<rscale>  2 0.67527104E+03</rscale>
<asrwt>0</asrwt>
<pdfrwt beam="1">  1       21 0.17899745E+00 0.67527104E+03</pdfrwt>
<pdfrwt beam="2">  1       21 0.63272386E-01 0.67527104E+03</pdfrwt>
<totfact> 0.32109156E+02</totfact>
</mgrwt>
</event>
<event>
 4    1  0.4862039E-002  0.4371539E+03  0.7818608E-02  0.1031624E+00
         21   -1    0    0  501  502  0.00000000000E+00  0.00000000000E+00  0.97357470588E+03  0.97357470588E+03  0.00000000000E+00 0.  1.
         21   -1    0    0  502  503 -0.00000000000E+00 -0.00000000000E+00 -0.47427246906E+03  0.47427246906E+03  0.00000000000E+00 0.  1.
    9000007    1    1    2  501    0  0.14777147036E+03 -0.96265966750E+02  0.80387727797E+03  0.91505312515E+03  0.40000000000E+03 0.  1.
   -9000007    1    1    2    0  503 -0.14777147036E+03  0.96265966750E+02 -0.30457504115E+03  0.53279404979E+03  0.40000000000E+03 0.  1.
<mgrwt>
<rscale>  2 0.43715391E+03</rscale>
<asrwt>0</asrwt>
<pdfrwt beam="1">  1       21 0.14978072E+00 0.43715391E+03</pdfrwt>
<pdfrwt beam="2">  1       21 0.72964996E-01 0.43715391E+03</pdfrwt>
<totfact> 0.42355655E+02</totfact>
</mgrwt>
</event>
<event>
 4    1  0.4862039E-002  0.4863857E+03  0.7818608E-02  0.1017395E+00
         21   -1    0    0  503  502  0.00000000000E+00  0.00000000000E+00  0.28817320958E+03  0.28817320958E+03  0.00000000000E+00 0.  1.
         21   -1    0    0  501  503 -0.00000000000E+00 -0.00000000000E+00 -0.85662268241E+03  0.85662268241E+03  0.00000000000E+00 0. -1.
    9000007    1    1    2  501    0  0.21617351335E+03 -0.17274285720E+03 -0.40105913162E+03  0.63041217441E+03  0.40000000000E+03 0. -1.
   -9000007    1    1    2    0  502 -0.21617351335E+03  0.17274285720E+03 -0.16739034122E+03  0.51438371759E+03  0.40000000000E+03 0.  1.
<mgrwt>
<rscale>  2 0.48638573E+03</rscale>
<asrwt>0</asrwt>
<pdfrwt beam="1">  1       21 0.44334340E-01 0.48638573E+03</pdfrwt>
<pdfrwt beam="2">  1       21 0.13178811E+00 0.48638573E+03</pdfrwt>
<totfact> 0.17239892E+03</totfact>
</mgrwt>
</event>
<event>
 4    1  0.4862039E-002  0.4448311E+03  0.7818608E-02  0.1029275E+00
         21   -1    0    0  501  502  0.00000000000E+00  0.00000000000E+00  0.52850009332E+03  0.52850009332E+03  0.00000000000E+00 0. -1.
         21   -1    0    0  502  503 -0.00000000000E+00 -0.00000000000E+00 -0.44639308247E+03  0.44639308247E+03  0.00000000000E+00 0. -1.
    9000007    1    1    2  501    0 -0.69477627048E+02  0.18178985426E+03  0.23679792756E+03  0.50393248583E+03  0.40000000000E+03 0. -1.
   -9000007    1    1    2    0  503  0.69477627048E+02 -0.18178985426E+03 -0.15469091671E+03  0.47096068996E+03  0.40000000000E+03 0. -1.
<mgrwt>
<rscale>  2 0.44483108E+03</rscale>
<asrwt>0</asrwt>
<pdfrwt beam="1">  1       21 0.81307707E-01 0.44483108E+03</pdfrwt>
<pdfrwt beam="2">  1       21 0.68675858E-01 0.44483108E+03</pdfrwt>
<totfact> 0.22211837E+03</totfact>
</mgrwt>
</event>
<event>
 4    1  0.4862039E-002  0.4137477E+03  0.7818608E-02  0.1039121E+00
         21   -1    0    0  503  502  0.00000000000E+00  0.00000000000E+00  0.54243419007E+03  0.54243419007E+03  0.00000000000E+00 0.  1.
         21   -1    0    0  501  503 -0.00000000000E+00 -0.00000000000E+00 -0.35143900467E+03  0.35143900467E+03  0.00000000000E+00 0.  1.
    9000007    1    1    2  501    0  0.58943040780E+02  0.87823013298E+02 -0.47245629183E+02  0.41643644557E+03  0.40000000000E+03 0.  1.
   -9000007    1    1    2    0  502 -0.58943040780E+02 -0.87823013298E+02  0.23824081458E+03  0.47743674917E+03  0.40000000000E+03 0.  1.
<mgrwt>
<rscale>  2 0.41374771E+03</rscale>
<asrwt>0</asrwt>
<pdfrwt beam="1">  1       21 0.83451414E-01 0.41374771E+03</pdfrwt>
<pdfrwt beam="2">  1       21 0.54067539E-01 0.41374771E+03</pdfrwt>
<totfact> 0.35762268E+03</totfact>
</mgrwt>
</event>
<event>
 4    1  0.4862039E-002  0.4642095E+03  0.7818608E-02  0.1023567E+00
         21   -1    0    0  501  502  0.00000000000E+00  0.00000000000E+00  0.12169137836E+04  0.12169137836E+04  0.00000000000E+00 0.  1.
         21   -1    0    0  502  503 -0.00000000000E+00 -0.00000000000E+00 -0.31563861012E+03  0.31563861012E+03  0.00000000000E+00 0.  1.
    9000007    1    1    2  501    0  0.22156060042E+03 -0.80008421817E+02  0.95833840632E+03  0.10648487913E+04  0.40000000000E+03 0.  1.
   -9000007    1    1    2    0  503 -0.22156060042E+03  0.80008421817E+02 -0.57063232826E+02  0.46770360246E+03  0.40000000000E+03 0.  1.
<mgrwt>
<rscale>  2 0.46420949E+03</rscale>
<asrwt>0</asrwt>
<pdfrwt beam="1">  1       21 0.18721750E+00 0.46420949E+03</pdfrwt>
<pdfrwt beam="2">  1       21 0.48559787E-01 0.46420949E+03</pdfrwt>
<totfact> 0.54164871E+02</totfact>
</mgrwt>
</event>
<event>
 4    1  0.4862039E-002  0.4953623E+03  0.7818608E-02  0.1014997E+00
         21   -1    0    0  503  502  0.00000000000E+00  0.00000000000E+00  0.38259831915E+03  0.38259831915E+03  0.00000000000E+00 0. -1.
         21   -1    0    0  501  503 -0.00000000000E+00 -0.00000000000E+00 -0.67785857125E+03  0.67785857125E+03  0.00000000000E+00 0.  1.
    9000007    1    1    2  501    0  0.29164544900E+03  0.18075525193E+02 -0.27066354596E+03  0.56448432011E+03  0.40000000000E+03 0.  1.
   -9000007    1    1    2    0  502 -0.29164544900E+03 -0.18075525193E+02 -0.24596706140E+02  0.49597257030E+03  0.40000000000E+03 0. -1.
<mgrwt>
<rscale>  2 0.49536228E+03</rscale>
<asrwt>0</asrwt>
<pdfrwt beam="1">  1       21 0.58861281E-01 0.49536228E+03</pdfrwt>
<pdfrwt beam="2">  1       21 0.10428593E+00 0.49536228E+03</pdfrwt>
<totfact> 0.16948698E+03</totfact>
</mgrwt>
</event>
<event>
 4    1  0.4862039E-002  0.4296711E+03  0.7818608E-02  0.1033964E+00
         21   -1    0    0  501  502  0.00000000000E+00  0.00000000000E+00  0.31134743523E+03  0.31134743523E+03  0.00000000000E+00 0. -1.
         21   -1    0    0  502  503 -0.00000000000E+00 -0.00000000000E+00 -0.82962972065E+03  0.82962972065E+03  0.00000000000E+00 0.  1.
    9000007    1    1    2  501    0  0.10353314040E+03  0.11789021548E+03  0.45560130569E+02  0.43207978380E+03  0.40000000000E+03 0. -1.
   -9000007    1    1    2    0  503 -0.10353314040E+03 -0.11789021548E+03 -0.56384241599E+03  0.70889737208E+03  0.40000000000E+03 0.  1.
<mgrwt>
<rscale>  2 0.42967105E+03</rscale>
<asrwt>0</asrwt>
<pdfrwt beam="1">  1       21 0.47899605E-01 0.42967105E+03</pdfrwt>
<pdfrwt beam="2">  1       21 0.12763534E+00 0.42967105E+03</pdfrwt>
<totfact> 0.16277166E+03</totfact>
</mgrwt>
</event>
<event>
 4    1  0.4862039E-002  0.4630473E+03  0.7818608E-02  0.1023901E+00
         21   -1    0    0  501  502  0.00000000000E+00  0.00000000000E+00  0.22908611578E+04  0.22908611578E+04  0.00000000000E+00 0.  1.
         21   -1    0    0  502  503 -0.00000000000E+00 -0.00000000000E+00 -0.21216144358E+03  0.21216144358E+03  0.00000000000E+00 0.  1.
    9000007    1    1    2  501    0  0.15328471421E+03 -0.17583111321E+03  0.19749337448E+04  0.20284910846E+04  0.40000000000E+03 0.  1.
   -9000007    1    1    2    0  503 -0.15328471421E+03  0.17583111321E+03  0.10376596939E+03  0.47453151675E+03  0.40000000000E+03 0.  1.
<mgrwt>
<rscale>  2 0.46304728E+03</rscale>
<asrwt>0</asrwt>
<pdfrwt beam="1">  1       21 0.35244016E+00 0.46304728E+03</pdfrwt>
<pdfrwt beam="2">  1       21 0.32640224E-01 0.46304728E+03</pdfrwt>
<totfact> 0.11562252E+02</totfact>
</mgrwt>
</event>
<event>
 4    1  0.4862039E-002  0.4895003E+03  0.7818608E-02  0.1016556E+00
         21   -1    0    0  501  502  0.00000000000E+00  0.00000000000E+00  0.32452832590E+03  0.32452832590E+03  0.00000000000E+00 0. -1.
         21   -1    0    0  502  503 -0.00000000000E+00 -0.00000000000E+00 -0.13041005274E+04  0.13041005274E+04  0.00000000000E+00 0. -1.
    9000007    1    1    2  501    0 -0.99730260152E+02  0.26394025122E+03  0.46572047299E+02  0.49171082619E+03  0.40000000000E+03 0. -1.
   -9000007    1    1    2    0  503  0.99730260152E+02 -0.26394025122E+03 -0.10261442488E+04  0.11369180271E+04  0.40000000000E+03 0. -1.
<mgrwt>
<rscale>  2 0.48950034E+03</rscale>
<asrwt>0</asrwt>
<pdfrwt beam="1">  1       21 0.49927435E-01 0.48950034E+03</pdfrwt>
<pdfrwt beam="2">  1       21 0.20063085E+00 0.48950034E+03</pdfrwt>
<totfact> 0.40913814E+02</totfact>
</mgrwt>
</event>
<event>
 4    1  0.4862039E-002  0.5041823E+03  0.7818608E-02  0.1012693E+00
         21   -1    0    0  503  502  0.00000000000E+00  0.00000000000E+00  0.28680095385E+04  0.28680095385E+04  0.00000000000E+00 0. -1.
         21   -1    0    0  501  503 -0.00000000000E+00 -0.00000000000E+00 -0.22672456002E+03  0.22672456002E+03  0.00000000000E+00 0. -1.
    9000007    1    1    2  501    0 -0.27829176870E+03  0.12943524636E+03  0.11302915028E+03  0.51669660376E+03  0.40000000000E+03 0. -1.
   -9000007    1    1    2    0  502  0.27829176870E+03 -0.12943524636E+03  0.25282558282E+04  0.25780374948E+04  0.40000000000E+03 0. -1.
<mgrwt>
<rscale>  2 0.50418230E+03</rscale>
<asrwt>0</asrwt>
<pdfrwt beam="1">  1       21 0.44123221E+00 0.50418230E+03</pdfrwt>
<pdfrwt beam="2">  1       21 0.34880704E-01 0.50418230E+03</pdfrwt>
<totfact> 0.26472504E+01</totfact>
</mgrwt>
</event>
<event>
 4    1  0.4862039E-002  0.4003399E+03  0.7818608E-02  0.1043662E+00
         21   -1    0    0  503  502  0.00000000000E+00  0.00000000000E+00  0.48426631690E+03  0.48426631690E+03  0.00000000000E+00 0. -1.
         21   -1    0    0  501  503 -0.00000000000E+00 -0.00000000000E+00 -0.43406722387E+03  0.43406722387E+03  0.00000000000E+00 0. -1.
    9000007    1    1    2  501    0 -0.16353255583E+02 -0.21429246449E+01 -0.19869000314E+03  0.44693370699E+03  0.40000000000E+03 0. -1.
   -9000007    1    1    2    0  502  0.16353255583E+02  0.21429246449E+01  0.24888909617E+03  0.47139983378E+03  0.40000000000E+03 0. -1.
<mgrwt>
<rscale>  2 0.40033988E+03</rscale>
<asrwt>0</asrwt>
<pdfrwt beam="1">  1       21 0.74502511E-01 0.40033988E+03</pdfrwt>
<pdfrwt beam="2">  1       21 0.66779573E-01 0.40033988E+03</pdfrwt>
<totfact> 0.29398809E+03</totfact>
</mgrwt>
</event>
<event>
 4    1  0.4862039E-002  0.5632714E+03  0.7818608E-02  0.9984680E-01
         21   -1    0    0  503  502  0.00000000000E+00  0.00000000000E+00  0.75266496530E+03  0.75266496530E+03  0.00000000000E+00 0.  1.
         21   -1    0    0  501  503 -0.00000000000E+00 -0.00000000000E+00 -0.44935845606E+03  0.44935845606E+03  0.00000000000E+00 0.  1.
    9000007    1    1    2  501    0  0.73707567241E+02 -0.38966895364E+03  0.30120492144E+03  0.63874807522E+03  0.40000000000E+03 0.  1.
   -9000007    1    1    2    0  502 -0.73707567241E+02  0.38966895364E+03  0.21015878016E+01  0.56327534614E+03  0.40000000000E+03 0.  1.
<mgrwt>
<rscale>  2 0.56327143E+03</rscale>
<asrwt>0</asrwt>
<pdfrwt beam="1">  1       21 0.11579461E+00 0.56327143E+03</pdfrwt>
<pdfrwt beam="2">  1       21 0.69132070E-01 0.56327143E+03</pdfrwt>
<totfact> 0.89244624E+02</totfact>
</mgrwt>
</event>
<event>
 4    1  0.4862039E-002  0.4130457E+03  0.7818608E-02  0.1039354E+00
         21   -1    0    0  501  502  0.00000000000E+00  0.00000000000E+00  0.97881598473E+03  0.97881598473E+03  0.00000000000E+00 0. -1.
         21   -1    0    0  502  503 -0.00000000000E+00 -0.00000000000E+00 -0.23971406859E+03  0.23971406859E+03  0.00000000000E+00 0. -1.
    9000007    1    1    2  501    0  0.44348058234E+02 -0.92951378516E+02  0.68782277173E+03  0.80231345143E+03  0.40000000000E+03 0. -1.
   -9000007    1    1    2    0  503 -0.44348058234E+02  0.92951378516E+02  0.51279144420E+02  0.41621660189E+03  0.40000000000E+03 0. -1.
<mgrwt>
<rscale>  2 0.41304565E+03</rscale>
<asrwt>0</asrwt>
<pdfrwt beam="1">  1       21 0.15058707E+00 0.41304565E+03</pdfrwt>
<pdfrwt beam="2">  1       21 0.36879088E-01 0.41304565E+03</pdfrwt>
<totfact> 0.18199467E+03</totfact>
</mgrwt>
</event>
<event>
 4    1  0.4862039E-002  0.7414258E+03  0.7818608E-02  0.9648899E-01
         21   -1    0    0  503  502  0.00000000000E+00  0.00000000000E+00  0.38513175486E+03  0.38513175486E+03  0.00000000000E+00 0.  1.
         21   -1    0    0  501  503 -0.00000000000E+00 -0.00000000000E+00 -0.19484148496E+04  0.19484148496E+04  0.00000000000E+00 0. -1.
    9000007    1    1    2  501    0 -0.59827318432E+03  0.17827337553E+03 -0.13850310182E+04  0.15709943097E+04  0.40000000000E+03 0. -1.
   -9000007    1    1    2    0  502  0.59827318432E+03 -0.17827337553E+03 -0.17825207647E+03  0.76255229478E+03  0.40000000000E+03 0.  1.
<mgrwt>
<rscale>  2 0.74142579E+03</rscale>
<asrwt>0</asrwt>
<pdfrwt beam="1">  1       21 0.59251038E-01 0.74142579E+03</pdfrwt>
<pdfrwt beam="2">  1       21 0.29975614E+00 0.74142579E+03</pdfrwt>
<totfact> 0.60493010E+01</totfact>
</mgrwt>
</event>
<event>
 4    1  0.4862039E-002  0.4562036E+03  0.7818608E-02  0.1025888E+00
         21   -1    0    0  501  502  0.00000000000E+00  0.00000000000E+00  0.21540944705E+03  0.21540944705E+03  0.00000000000E+00 0. -1.
         21   -1    0    0  502  503 -0.00000000000E+00 -0.00000000000E+00 -0.13300767926E+04  0.13300767926E+04  0.00000000000E+00 0. -1.
    9000007    1    1    2  501    0  0.77226117064E+01  0.21923066021E+03 -0.15313671020E+03  0.48121988022E+03  0.40000000000E+03 0. -1.
   -9000007    1    1    2    0  503 -0.77226117064E+01 -0.21923066021E+03 -0.96153063536E+03  0.10642663594E+04  0.40000000000E+03 0. -1.
<mgrwt>
<rscale>  2 0.45620360E+03</rscale>
<asrwt>0</asrwt>
<pdfrwt beam="1">  1       21 0.33139914E-01 0.45620360E+03</pdfrwt>
<pdfrwt beam="2">  1       21 0.20462720E+00 0.45620360E+03</pdfrwt>
<totfact> 0.91235792E+02</totfact>
</mgrwt>
</event>
<event>
 4    1  0.4862039E-002  0.4755656E+03  0.7818608E-02  0.1020361E+00
         21   -1    0    0  501  502  0.00000000000E+00  0.00000000000E+00  0.54626170928E+03  0.54626170928E+03  0.00000000000E+00 0. -1.
         21   -1    0    0  502  503 -0.00000000000E+00 -0.00000000000E+00 -0.41940601614E+03  0.41940601614E+03  0.00000000000E+00 0.  1.
    9000007    1    1    2  501    0 -0.18532063692E+03  0.17837846143E+03  0.87057354690E+01  0.47564524995E+03  0.40000000000E+03 0. -1.
   -9000007    1    1    2    0  503  0.18532063692E+03 -0.17837846143E+03  0.11814995767E+03  0.49002247547E+03  0.40000000000E+03 0. -1.
<mgrwt>
<rscale>  2 0.47556557E+03</rscale>
<asrwt>0</asrwt>
<pdfrwt beam="1">  1       21 0.84040263E-01 0.47556557E+03</pdfrwt>
<pdfrwt beam="2">  1       21 0.64524003E-01 0.47556557E+03</pdfrwt>
<totfact> 0.23379192E+03</totfact>
</mgrwt>
</event>
<event>
 4    1  0.4862039E-002  0.4728889E+03  0.7818608E-02  0.1021108E+00
         21   -1    0    0  501  502  0.00000000000E+00  0.00000000000E+00  0.15858645333E+03  0.15858645333E+03  0.00000000000E+00 0. -1.
         21   -1    0    0  502  503 -0.00000000000E+00 -0.00000000000E+00 -0.18114431838E+04  0.18114431838E+04  0.00000000000E+00 0. -1.
    9000007    1    1    2  501    0  0.60758243266E+01  0.25216459380E+03 -0.36278456007E+03  0.59601722713E+03  0.40000000000E+03 0. -1.
   -9000007    1    1    2    0  503 -0.60758243266E+01 -0.25216459380E+03 -0.12900721704E+04  0.13740124100E+04  0.40000000000E+03 0. -1.
<mgrwt>
<rscale>  2 0.47288889E+03</rscale>
<asrwt>0</asrwt>
<pdfrwt beam="1">  1       21 0.24397917E-01 0.47288889E+03</pdfrwt>
<pdfrwt beam="2">  1       21 0.27868355E+00 0.47288889E+03</pdfrwt>
<totfact> 0.57146945E+02</totfact>
</mgrwt>
</event>
<event>
 4    1  0.4862039E-002  0.5457442E+03  0.7818608E-02  0.1002484E+00
         21   -1    0    0  501  502  0.00000000000E+00  0.00000000000E+00  0.13860552788E+04  0.13860552788E+04  0.00000000000E+00 0. -1.
         21   -1    0    0  502  503 -0.00000000000E+00 -0.00000000000E+00 -0.22090467557E+03  0.22090467557E+03  0.00000000000E+00 0. -1.
    9000007    1    1    2  501    0  0.80705502934E+02  0.36238564877E+03  0.71525631917E+03  0.89968235436E+03  0.40000000000E+03 0. -1.
   -9000007    1    1    2    0  503 -0.80705502934E+02 -0.36238564877E+03  0.44989428406E+03  0.70727760000E+03  0.40000000000E+03 0. -1.
<mgrwt>
<rscale>  2 0.54574420E+03</rscale>
<asrwt>0</asrwt>
<pdfrwt beam="1">  1       21 0.21323927E+00 0.54574420E+03</pdfrwt>
<pdfrwt beam="2">  1       21 0.33985335E-01 0.54574420E+03</pdfrwt>
<totfact> 0.73296974E+02</totfact>
</mgrwt>
</event>
<event>
 4    1  0.4862039E-002  0.4546067E+03  0.7818608E-02  0.1026357E+00
         21   -1    0    0  501  502  0.00000000000E+00  0.00000000000E+00  0.17230898438E+04  0.17230898438E+04  0.00000000000E+00 0. -1.
         21   -1    0    0  502  503 -0.00000000000E+00 -0.00000000000E+00 -0.25103274830E+03  0.25103274830E+03  0.00000000000E+00 0. -1.
    9000007    1    1    2  501    0 -0.15555708341E+02 -0.21546521105E+03  0.14493222987E+04  0.15189477815E+04  0.40000000000E+03 0. -1.
   -9000007    1    1    2    0  503  0.15555708341E+02  0.21546521105E+03  0.22734796747E+02  0.45517481061E+03  0.40000000000E+03 0. -1.
<mgrwt>
<rscale>  2 0.45460668E+03</rscale>
<asrwt>0</asrwt>
<pdfrwt beam="1">  1       21 0.26509074E+00 0.45460668E+03</pdfrwt>
<pdfrwt beam="2">  1       21 0.38620424E-01 0.45460668E+03</pdfrwt>
<totfact> 0.27917620E+02</totfact>
</mgrwt>
</event>
<event>
 4    1  0.4862039E-002  0.4278000E+03  0.7818608E-02  0.1034557E+00
         21   -1    0    0  501  502  0.00000000000E+00  0.00000000000E+00  0.95931845992E+03  0.95931845992E+03  0.00000000000E+00 0.  1.
         21   -1    0    0  502  503 -0.00000000000E+00 -0.00000000000E+00 -0.45752692325E+03  0.45752692325E+03  0.00000000000E+00 0.  1.
    9000007    1    1    2  501    0  0.38054792781E+02  0.14684910615E+03  0.79182305944E+03  0.89999810260E+03  0.40000000000E+03 0.  1.
   -9000007    1    1    2    0  503 -0.38054792781E+02 -0.14684910615E+03 -0.29003152277E+03  0.51684728057E+03  0.40000000000E+03 0.  1.
<mgrwt>
<rscale>  2 0.42779999E+03</rscale>
<asrwt>0</asrwt>
<pdfrwt beam="1">  1       21 0.14758746E+00 0.42779999E+03</pdfrwt>
<pdfrwt beam="2">  1       21 0.70388758E-01 0.42779999E+03</pdfrwt>
<totfact> 0.48027273E+02</totfact>
</mgrwt>
</event>
<event>
 4    1  0.4862039E-002  0.5686185E+03  0.7818608E-02  0.9972740E-01
         21   -1    0    0  501  502  0.00000000000E+00  0.00000000000E+00  0.24883233497E+03  0.24883233497E+03  0.00000000000E+00 0. -1.
         21   -1    0    0  502  503 -0.00000000000E+00 -0.00000000000E+00 -0.15505077695E+04  0.15505077695E+04  0.00000000000E+00 0. -1.
    9000007    1    1    2  501    0 -0.29650317916E+03 -0.27461401986E+03 -0.28876457077E+03  0.63773973726E+03  0.40000000000E+03 0. -1.
   -9000007    1    1    2    0  503  0.29650317916E+03  0.27461401986E+03 -0.10129108638E+04  0.11616003672E+04  0.40000000000E+03 0. -1.
<mgrwt>
<rscale>  2 0.56861850E+03</rscale>
<asrwt>0</asrwt>
<pdfrwt beam="1">  1       21 0.38281897E-01 0.56861850E+03</pdfrwt>
<pdfrwt beam="2">  1       21 0.23853966E+00 0.56861850E+03</pdfrwt>
<totfact> 0.39238585E+02</totfact>
</mgrwt>
</event>
<event>
 4    1  0.4862039E-002  0.5021213E+03  0.7818608E-02  0.1013227E+00
         21   -1    0    0  503  502  0.00000000000E+00  0.00000000000E+00  0.10769659640E+04  0.10769659640E+04  0.00000000000E+00 0. -1.
         21   -1    0    0  501  503 -0.00000000000E+00 -0.00000000000E+00 -0.36959035195E+03  0.36959035195E+03  0.00000000000E+00 0. -1.
    9000007    1    1    2  501    0 -0.42906012873E+02  0.30047439839E+03 -0.84224582262E+02  0.50913610193E+03  0.40000000000E+03 0. -1.
   -9000007    1    1    2    0  502  0.42906012873E+02 -0.30047439839E+03  0.79160019433E+03  0.93742021404E+03  0.40000000000E+03 0. -1.
<mgrwt>
<rscale>  2 0.50212129E+03</rscale>
<asrwt>0</asrwt>
<pdfrwt beam="1">  1       21 0.16568707E+00 0.50212129E+03</pdfrwt>
<pdfrwt beam="2">  1       21 0.56860055E-01 0.50212129E+03</pdfrwt>
<totfact> 0.54110937E+02</totfact>
</mgrwt>
</event>
<event>
 4    1  0.4862039E-002  0.4255160E+03  0.7818608E-02  0.1035286E+00
         21   -1    0    0  501  502  0.00000000000E+00  0.00000000000E+00  0.20123466535E+04  0.20123466535E+04  0.00000000000E+00 0. -1.
         21   -1    0    0  502  503 -0.00000000000E+00 -0.00000000000E+00 -0.21821790373E+03  0.21821790373E+03  0.00000000000E+00 0. -1.
    9000007    1    1    2  501    0  0.13952430092E+03 -0.39959964052E+02  0.42088598729E+02  0.42759242208E+03  0.40000000000E+03 0. -1.
   -9000007    1    1    2    0  503 -0.13952430092E+03  0.39959964052E+02  0.17520401510E+04  0.18029721351E+04  0.40000000000E+03 0. -1.
<mgrwt>
<rscale>  2 0.42551596E+03</rscale>
<asrwt>0</asrwt>
<pdfrwt beam="1">  1       21 0.30959178E+00 0.42551596E+03</pdfrwt>
<pdfrwt beam="2">  1       21 0.33571986E-01 0.42551596E+03</pdfrwt>
<totfact> 0.20376333E+02</totfact>
</mgrwt>
</event>
<event>
 4    1  0.4862039E-002  0.4002189E+03  0.7818608E-02  0.1043704E+00
         21   -1    0    0  501  502  0.00000000000E+00  0.00000000000E+00  0.48910692205E+03  0.48910692205E+03  0.00000000000E+00 0.  1.
         21   -1    0    0  502  503 -0.00000000000E+00 -0.00000000000E+00 -0.22420972288E+04  0.22420972288E+04  0.00000000000E+00 0.  1.
    9000007    1    1    2  501    0  0.48098489446E+01 -0.12330705452E+02  0.38544093782E+03  0.55564367853E+03  0.40000000000E+03 0.  1.
   -9000007    1    1    2    0  503 -0.48098489446E+01  0.12330705452E+02 -0.21384312446E+04  0.21755604723E+04  0.40000000000E+03 0.  1.
<mgrwt>
<rscale>  2 0.40021892E+03</rscale>
<asrwt>0</asrwt>
<pdfrwt beam="1">  1       21 0.75247220E-01 0.40021892E+03</pdfrwt>
<pdfrwt beam="2">  1       21 0.34493803E+00 0.40021892E+03</pdfrwt>
<totfact> 0.22748415E+01</totfact>
</mgrwt>
</event>
<event>
 4    1  0.4862039E-002  0.4586077E+03  0.7818608E-02  0.1025186E+00
         21   -1    0    0  501  502  0.00000000000E+00  0.00000000000E+00  0.13210870836E+03  0.13210870836E+03  0.00000000000E+00 0. -1.
         21   -1    0    0  502  503 -0.00000000000E+00 -0.00000000000E+00 -0.17387310907E+04  0.17387310907E+04  0.00000000000E+00 0. -1.
    9000007    1    1    2  501    0 -0.20984527502E+03 -0.79284363298E+02 -0.53160044750E+03  0.70208267711E+03  0.40000000000E+03 0. -1.
   -9000007    1    1    2    0  503  0.20984527502E+03  0.79284363298E+02 -0.10750219348E+04  0.11687571219E+04  0.40000000000E+03 0. -1.
<mgrwt>
<rscale>  2 0.45860773E+03</rscale>
<asrwt>0</asrwt>
<pdfrwt beam="1">  1       21 0.20324419E-01 0.45860773E+03</pdfrwt>
<pdfrwt beam="2">  1       21 0.26749706E+00 0.45860773E+03</pdfrwt>
<totfact> 0.95637520E+02</totfact>
</mgrwt>
</event>
<event>
 4    1  0.4862039E-002  0.6151398E+03  0.7818608E-02  0.9874484E-01
         21   -1    0    0  501  502  0.00000000000E+00  0.00000000000E+00  0.23829642063E+03  0.23829642063E+03  0.00000000000E+00 0. -1.
         21   -1    0    0  502  503 -0.00000000000E+00 -0.00000000000E+00 -0.16590162472E+04  0.16590162472E+04  0.00000000000E+00 0. -1.
    9000007    1    1    2  501    0 -0.40873687953E+03  0.22656388049E+03 -0.90673631032E+03  0.10957042325E+04  0.40000000000E+03 0. -1.
   -9000007    1    1    2    0  503  0.40873687953E+03 -0.22656388049E+03 -0.51398351624E+03  0.80160843533E+03  0.40000000000E+03 0. -1.
<mgrwt>
<rscale>  2 0.61513984E+03</rscale>
<asrwt>0</asrwt>
<pdfrwt beam="1">  1       21 0.36660987E-01 0.61513984E+03</pdfrwt>
<pdfrwt beam="2">  1       21 0.25523327E+00 0.61513984E+03</pdfrwt>
<totfact> 0.33113619E+02</totfact>
</mgrwt>
</event>
<event>
 4    1  0.4862039E-002  0.4316323E+03  0.7818608E-02  0.1033346E+00
         21   -1    0    0  501  502  0.00000000000E+00  0.00000000000E+00  0.33072748031E+03  0.33072748031E+03  0.00000000000E+00 0.  1.
         21   -1    0    0  502  503 -0.00000000000E+00 -0.00000000000E+00 -0.57558304647E+03  0.57558304647E+03  0.00000000000E+00 0.  1.
    9000007    1    1    2  501    0  0.39047121758E+02  0.15742216598E+03 -0.56291766019E+02  0.43528746706E+03  0.40000000000E+03 0.  1.
   -9000007    1    1    2    0  503 -0.39047121758E+02 -0.15742216598E+03 -0.18856380014E+03  0.47102305971E+03  0.40000000000E+03 0.  1.
<mgrwt>
<rscale>  2 0.43163227E+03</rscale>
<asrwt>0</asrwt>
<pdfrwt beam="1">  1       21 0.50881151E-01 0.43163227E+03</pdfrwt>
<pdfrwt beam="2">  1       21 0.88551237E-01 0.43163227E+03</pdfrwt>
<totfact> 0.35211664E+03</totfact>
</mgrwt>
</event>
<event>
 4    1  0.4862039E-002  0.4833340E+03  0.7818608E-02  0.1018223E+00
         21   -1    0    0  501  502  0.00000000000E+00  0.00000000000E+00  0.14399423730E+04  0.14399423730E+04  0.00000000000E+00 0. -1.
         21   -1    0    0  502  503 -0.00000000000E+00 -0.00000000000E+00 -0.17991439611E+03  0.17991439611E+03  0.00000000000E+00 0. -1.
    9000007    1    1    2  501    0 -0.19759762250E+02 -0.27059437016E+03  0.88389151210E+03  0.10074105253E+04  0.40000000000E+03 0. -1.
   -9000007    1    1    2    0  503  0.19759762250E+02  0.27059437016E+03  0.37613646477E+03  0.61244624376E+03  0.40000000000E+03 0. -1.
<mgrwt>
<rscale>  2 0.48333401E+03</rscale>
<asrwt>0</asrwt>
<pdfrwt beam="1">  1       21 0.22152959E+00 0.48333401E+03</pdfrwt>
<pdfrwt beam="2">  1       21 0.27679139E-01 0.48333401E+03</pdfrwt>
<totfact> 0.10017178E+03</totfact>
</mgrwt>
</event>
<event>
 4    1  0.4862039E-002  0.4179861E+03  0.7818608E-02  0.1037724E+00
         21   -1    0    0  503  502  0.00000000000E+00  0.00000000000E+00  0.32850437312E+03  0.32850437312E+03  0.00000000000E+00 0. -1.
         21   -1    0    0  501  503 -0.00000000000E+00 -0.00000000000E+00 -0.92052535178E+03  0.92052535178E+03  0.00000000000E+00 0.  1.
    9000007    1    1    2  501    0  0.80058365044E+02  0.91121170893E+02 -0.70182062837E+03  0.81686265920E+03  0.40000000000E+03 0.  1.
   -9000007    1    1    2    0  502 -0.80058365044E+02 -0.91121170893E+02  0.10979964970E+03  0.43216706570E+03  0.40000000000E+03 0. -1.
<mgrwt>
<rscale>  2 0.41798614E+03</rscale>
<asrwt>0</asrwt>
<pdfrwt beam="1">  1       21 0.50539135E-01 0.41798614E+03</pdfrwt>
<pdfrwt beam="2">  1       21 0.14161928E+00 0.41798614E+03</pdfrwt>
<totfact> 0.11122862E+03</totfact>
</mgrwt>
</event>
<event>
 4    1  0.4862039E-002  0.4008545E+03  0.7818608E-02  0.1043484E+00
         21   -1    0    0  503  502  0.00000000000E+00  0.00000000000E+00  0.18716799492E+04  0.18716799492E+04  0.00000000000E+00 0. -1.
         21   -1    0    0  501  503 -0.00000000000E+00 -0.00000000000E+00 -0.10495792561E+03  0.10495792561E+03  0.00000000000E+00 0. -1.
    9000007    1    1    2  501    0 -0.65154459272E+01 -0.25334680486E+02  0.46167151214E+03  0.61141220317E+03  0.40000000000E+03 0. -1.
   -9000007    1    1    2    0  502  0.65154459272E+01  0.25334680486E+02  0.13050505115E+04  0.13652256717E+04  0.40000000000E+03 0. -1.
<mgrwt>
<rscale>  2 0.40085446E+03</rscale>
<asrwt>0</asrwt>
<pdfrwt beam="1">  1       21 0.28795074E+00 0.40085446E+03</pdfrwt>
<pdfrwt beam="2">  1       21 0.16147375E-01 0.40085446E+03</pdfrwt>
<totfact> 0.11464106E+03</totfact>
</mgrwt>
</event>
<event>
 4    1  0.4862039E-002  0.5215326E+03  0.7818608E-02  0.1008307E+00
         21   -1    0    0  503  502  0.00000000000E+00  0.00000000000E+00  0.81936418553E+03  0.81936418553E+03  0.00000000000E+00 0.  1.
         21   -1    0    0  501  503 -0.00000000000E+00 -0.00000000000E+00 -0.50273754480E+03  0.50273754480E+03  0.00000000000E+00 0.  1.
    9000007    1    1    2  501    0  0.28393792606E+03  0.17713137559E+03 -0.22696927542E+03  0.56878055703E+03  0.40000000000E+03 0.  1.
   -9000007    1    1    2    0  502 -0.28393792606E+03 -0.17713137559E+03  0.54359591615E+03  0.75332117329E+03  0.40000000000E+03 0.  1.
<mgrwt>
<rscale>  2 0.52153262E+03</rscale>
<asrwt>0</asrwt>
<pdfrwt beam="1">  1       21 0.12605603E+00 0.52153262E+03</pdfrwt>
<pdfrwt beam="2">  1       21 0.77344237E-01 0.52153262E+03</pdfrwt>
<totfact> 0.56427644E+02</totfact>
</mgrwt>
</event>
<event>
 4    1  0.4862039E-002  0.4007545E+03  0.7818608E-02  0.1043519E+00
         21   -1    0    0  503  502  0.00000000000E+00  0.00000000000E+00  0.17825321255E+03  0.17825321255E+03  0.00000000000E+00 0.  1.
         21   -1    0    0  501  503 -0.00000000000E+00 -0.00000000000E+00 -0.14289997012E+04  0.14289997012E+04  0.00000000000E+00 0.  1.
    9000007    1    1    2  501    0 -0.71621311502E+00 -0.24570043313E+02 -0.11138675232E+04  0.11837673164E+04  0.40000000000E+03 0.  1.
   -9000007    1    1    2    0  502  0.71621311502E+00  0.24570043313E+02 -0.13687896538E+03  0.42348559734E+03  0.40000000000E+03 0.  1.
<mgrwt>
<rscale>  2 0.40075454E+03</rscale>
<asrwt>0</asrwt>
<pdfrwt beam="1">  1       21 0.27423572E-01 0.40075454E+03</pdfrwt>
<pdfrwt beam="2">  1       21 0.21984610E+00 0.40075454E+03</pdfrwt>
<totfact> 0.10883430E+03</totfact>
</mgrwt>
</event>
<event>
 4    1  0.4862039E-002  0.6054097E+03  0.7818608E-02  0.9894246E-01
         21   -1    0    0  501  502  0.00000000000E+00  0.00000000000E+00  0.29310669301E+03  0.29310669301E+03  0.00000000000E+00 0. -1.
         21   -1    0    0  502  503 -0.00000000000E+00 -0.00000000000E+00 -0.15659976688E+04  0.15659976688E+04  0.00000000000E+00 0. -1.
    9000007    1    1    2  501    0  0.31432311097E+03 -0.32821018013E+03 -0.21919449422E+03  0.64386890492E+03  0.40000000000E+03 0. -1.
   -9000007    1    1    2    0  503 -0.31432311097E+03  0.32821018013E+03 -0.10536964816E+04  0.12152354569E+04  0.40000000000E+03 0. -1.
<mgrwt>
<rscale>  2 0.60540973E+03</rscale>
<asrwt>0</asrwt>
<pdfrwt beam="1">  1       21 0.45093337E-01 0.60540973E+03</pdfrwt>
<pdfrwt beam="2">  1       21 0.24092272E+00 0.60540973E+03</pdfrwt>
<totfact> 0.26551201E+02</totfact>
</mgrwt>
</event>
<event>
 4    1  0.4862039E-002  0.4687306E+03  0.7818608E-02  0.1022279E+00
         21   -1    0    0  501  502  0.00000000000E+00  0.00000000000E+00  0.61140307512E+03  0.61140307512E+03  0.00000000000E+00 0.  1.
         21   -1    0    0  502  503 -0.00000000000E+00 -0.00000000000E+00 -0.45111091093E+03  0.45111091093E+03  0.00000000000E+00 0.  1.
    9000007    1    1    2  501    0 -0.16564257393E+03  0.17964116611E+03  0.31974733330E+03  0.56740353190E+03  0.40000000000E+03 0.  1.
   -9000007    1    1    2    0  503  0.16564257393E+03 -0.17964116611E+03 -0.15945516911E+03  0.49511045416E+03  0.40000000000E+03 0.  1.
<mgrwt>
<rscale>  2 0.46873064E+03</rscale>
<asrwt>0</asrwt>
<pdfrwt beam="1">  1       21 0.94062011E-01 0.46873064E+03</pdfrwt>
<pdfrwt beam="2">  1       21 0.69401679E-01 0.46873064E+03</pdfrwt>
<totfact> 0.15254511E+03</totfact>
</mgrwt>
</event>
<event>
 4    1  0.4862039E-002  0.4134022E+03  0.7818608E-02  0.1039235E+00
         21   -1    0    0  501  502  0.00000000000E+00  0.00000000000E+00  0.93969370745E+03  0.93969370745E+03  0.00000000000E+00 0. -1.
         21   -1    0    0  502  503 -0.00000000000E+00 -0.00000000000E+00 -0.40746699223E+03  0.40746699223E+03  0.00000000000E+00 0. -1.
    9000007    1    1    2  501    0 -0.57553733370E+02  0.87114680760E+02  0.76731277395E+03  0.87159066820E+03  0.40000000000E+03 0. -1.
   -9000007    1    1    2    0  503  0.57553733370E+02 -0.87114680760E+02 -0.23508605873E+03  0.47557003147E+03  0.40000000000E+03 0. -1.
<mgrwt>
<rscale>  2 0.41340223E+03</rscale>
<asrwt>0</asrwt>
<pdfrwt beam="1">  1       21 0.14456826E+00 0.41340223E+03</pdfrwt>
<pdfrwt beam="2">  1       21 0.62687230E-01 0.41340223E+03</pdfrwt>
<totfact> 0.66183735E+02</totfact>
</mgrwt>
</event>
<event>
 4    1  0.4862039E-002  0.4532115E+03  0.7818608E-02  0.1026769E+00
         21   -1    0    0  503  502  0.00000000000E+00  0.00000000000E+00  0.88295790982E+03  0.88295790982E+03  0.00000000000E+00 0. -1.
         21   -1    0    0  501  503 -0.00000000000E+00 -0.00000000000E+00 -0.23348567871E+03  0.23348567871E+03  0.00000000000E+00 0. -1.
    9000007    1    1    2  501    0 -0.21274762942E+03  0.11794929738E+02  0.29090192891E+03  0.53853932673E+03  0.40000000000E+03 0. -1.
   -9000007    1    1    2    0  502  0.21274762942E+03 -0.11794929738E+02  0.35857030220E+03  0.57790426180E+03  0.40000000000E+03 0. -1.
<mgrwt>
<rscale>  2 0.45321151E+03</rscale>
<asrwt>0</asrwt>
<pdfrwt beam="1">  1       21 0.13583968E+00 0.45321151E+03</pdfrwt>
<pdfrwt beam="2">  1       21 0.35920874E-01 0.45321151E+03</pdfrwt>
<totfact> 0.24883928E+03</totfact>
</mgrwt>
</event>
<event>
 4    1  0.4862039E-002  0.4934859E+03  0.7818608E-02  0.1015493E+00
         21   -1    0    0  501  502  0.00000000000E+00  0.00000000000E+00  0.97275808132E+03  0.97275808132E+03  0.00000000000E+00 0.  1.
         21   -1    0    0  502  503 -0.00000000000E+00 -0.00000000000E+00 -0.11871086919E+04  0.11871086919E+04  0.00000000000E+00 0.  1.
    9000007    1    1    2  501    0 -0.11132524242E+03 -0.26671148015E+03  0.85215019152E+03  0.98472751163E+03  0.40000000000E+03 0.  1.
   -9000007    1    1    2    0  503  0.11132524242E+03  0.26671148015E+03 -0.10665008021E+04  0.11751392616E+04  0.40000000000E+03 0.  1.
<mgrwt>
<rscale>  2 0.49348589E+03</rscale>
<asrwt>0</asrwt>
<pdfrwt beam="1">  1       21 0.14965509E+00 0.49348589E+03</pdfrwt>
<pdfrwt beam="2">  1       21 0.18263211E+00 0.49348589E+03</pdfrwt>
<totfact> 0.39887784E+01</totfact>
</mgrwt>
</event>
<event>
 4    1  0.4862039E-002  0.4263359E+03  0.7818608E-02  0.1035024E+00
         21   -1    0    0  503  502  0.00000000000E+00  0.00000000000E+00  0.24306921670E+03  0.24306921670E+03  0.00000000000E+00 0.  1.
         21   -1    0    0  501  503 -0.00000000000E+00 -0.00000000000E+00 -0.85960388905E+03  0.85960388905E+03  0.00000000000E+00 0. -1.
    9000007    1    1    2  501    0 -0.18737173948E+02 -0.14632564820E+03 -0.50712167506E+03  0.66252144896E+03  0.40000000000E+03 0. -1.
   -9000007    1    1    2    0  502  0.18737173948E+02  0.14632564820E+03 -0.10941299729E+03  0.44015165680E+03  0.40000000000E+03 0. -1.
<mgrwt>
<rscale>  2 0.42633587E+03</rscale>
<asrwt>0</asrwt>
<pdfrwt beam="1">  1       21 0.37395264E-01 0.42633587E+03</pdfrwt>
<pdfrwt beam="2">  1       21 0.13224675E+00 0.42633587E+03</pdfrwt>
<totfact> 0.24848043E+03</totfact>
</mgrwt>
</event>
<event>
 4    1  0.4862039E-002  0.5145916E+03  0.7818608E-02  0.1010039E+00
         21   -1    0    0  503  502  0.00000000000E+00  0.00000000000E+00  0.77819166266E+03  0.77819166266E+03  0.00000000000E+00 0.  1.
         21   -1    0    0  501  503 -0.00000000000E+00 -0.00000000000E+00 -0.45644764279E+03  0.45644764279E+03  0.00000000000E+00 0.  1.
    9000007    1    1    2  501    0  0.32241526958E+03  0.29205439617E+02 -0.15055307586E+03  0.53616302783E+03  0.40000000000E+03 0.  1.
   -9000007    1    1    2    0  502 -0.32241526958E+03 -0.29205439617E+02  0.47229709573E+03  0.69847627762E+03  0.40000000000E+03 0.  1.
<mgrwt>
<rscale>  2 0.51459165E+03</rscale>
<asrwt>0</asrwt>
<pdfrwt beam="1">  1       21 0.11972179E+00 0.51459165E+03</pdfrwt>
<pdfrwt beam="2">  1       21 0.70222714E-01 0.51459165E+03</pdfrwt>
<totfact> 0.80520546E+02</totfact>
</mgrwt>
</event>
<event>
 4    1  0.4862039E-002  0.5095430E+03  0.7818608E-02  0.1011318E+00
         21   -1    0    0  503  502  0.00000000000E+00  0.00000000000E+00  0.23829024820E+03  0.23829024820E+03  0.00000000000E+00 0.  1.
         21   -1    0    0  501  503 -0.00000000000E+00 -0.00000000000E+00 -0.12028847495E+04  0.12028847495E+04  0.00000000000E+00 0.  1.
    9000007    1    1    2  501    0  0.10776775915E+03  0.29668195958E+03 -0.70346233937E+03  0.86861575968E+03  0.40000000000E+03 0.  1.
   -9000007    1    1    2    0  502 -0.10776775915E+03 -0.29668195958E+03 -0.26113216194E+03  0.57255923803E+03  0.40000000000E+03 0.  1.
<mgrwt>
<rscale>  2 0.50954301E+03</rscale>
<asrwt>0</asrwt>
<pdfrwt beam="1">  1       21 0.36660039E-01 0.50954301E+03</pdfrwt>
<pdfrwt beam="2">  1       21 0.18505919E+00 0.50954301E+03</pdfrwt>
<totfact> 0.98654059E+02</totfact>
</mgrwt>
</event>
<event>
 4    1  0.4862039E-002  0.4215793E+03  0.7818608E-02  0.1036554E+00
         21   -1    0    0  501  502  0.00000000000E+00  0.00000000000E+00  0.49862847952E+03  0.49862847952E+03  0.00000000000E+00 0.  1.
         21   -1    0    0  502  503 -0.00000000000E+00 -0.00000000000E+00 -0.50995811096E+03  0.50995811096E+03  0.00000000000E+00 0. -1.
    9000007    1    1    2  501    0  0.11057587711E+03 -0.74175766067E+02  0.27103037634E+03  0.50118512924E+03  0.40000000000E+03 0.  1.
   -9000007    1    1    2    0  503 -0.11057587711E+03  0.74175766067E+02 -0.28236000779E+03  0.50740146124E+03  0.40000000000E+03 0. -1.
<mgrwt>
<rscale>  2 0.42157926E+03</rscale>
<asrwt>0</asrwt>
<pdfrwt beam="1">  1       21 0.76712074E-01 0.42157926E+03</pdfrwt>
<pdfrwt beam="2">  1       21 0.78455094E-01 0.42157926E+03</pdfrwt>
<totfact> 0.18941625E+03</totfact>
</mgrwt>
</event>
<event>
 4    1  0.4862039E-002  0.4120191E+03  0.7818608E-02  0.1039696E+00
         21   -1    0    0  503  502  0.00000000000E+00  0.00000000000E+00  0.23973372065E+03  0.23973372065E+03  0.00000000000E+00 0.  1.
         21   -1    0    0  501  503 -0.00000000000E+00 -0.00000000000E+00 -0.73034684222E+03  0.73034684222E+03  0.00000000000E+00 0.  1.
    9000007    1    1    2  501    0 -0.91719886170E+02  0.36703890239E+02 -0.16068643296E+03  0.44224409868E+03  0.40000000000E+03 0.  1.
   -9000007    1    1    2    0  502  0.91719886170E+02 -0.36703890239E+02 -0.32992668861E+03  0.52783646420E+03  0.40000000000E+03 0.  1.
<mgrwt>
<rscale>  2 0.41201907E+03</rscale>
<asrwt>0</asrwt>
<pdfrwt beam="1">  1       21 0.36882111E-01 0.41201907E+03</pdfrwt>
<pdfrwt beam="2">  1       21 0.11236105E+00 0.41201907E+03</pdfrwt>
<totfact> 0.38904410E+03</totfact>
</mgrwt>
</event>
<event>
 4    1  0.4862039E-002  0.4199636E+03  0.7818608E-02  0.1037078E+00
         21   -1    0    0  503  502  0.00000000000E+00  0.00000000000E+00  0.59943854729E+03  0.59943854729E+03  0.00000000000E+00 0.  1.
         21   -1    0    0  501  503 -0.00000000000E+00 -0.00000000000E+00 -0.63446199324E+03  0.63446199324E+03  0.00000000000E+00 0.  1.
    9000007    1    1    2  501    0 -0.12338607468E+03 -0.33842719057E+02 -0.46930368029E+03  0.62977408441E+03  0.40000000000E+03 0.  1.
   -9000007    1    1    2    0  502  0.12338607468E+03  0.33842719057E+02  0.43428023434E+03  0.60412645613E+03  0.40000000000E+03 0.  1.
<mgrwt>
<rscale>  2 0.41996363E+03</rscale>
<asrwt>0</asrwt>
<pdfrwt beam="1">  1       21 0.92221315E-01 0.41996363E+03</pdfrwt>
<pdfrwt beam="2">  1       21 0.97609538E-01 0.41996363E+03</pdfrwt>
<totfact> 0.73834975E+02</totfact>
</mgrwt>
</event>
<event>
 4    1  0.4862039E-002  0.5656739E+03  0.7818608E-02  0.9979298E-01
         21   -1    0    0  503  502  0.00000000000E+00  0.00000000000E+00  0.67624394527E+03  0.67624394527E+03  0.00000000000E+00 0. -1.
         21   -1    0    0  501  503 -0.00000000000E+00 -0.00000000000E+00 -0.50606846074E+03  0.50606846074E+03  0.00000000000E+00 0.  1.
    9000007    1    1    2  501    0  0.28689106669E+03 -0.27871213973E+03  0.23578366830E+03  0.61284653806E+03  0.40000000000E+03 0. -1.
   -9000007    1    1    2    0  502 -0.28689106669E+03  0.27871213973E+03 -0.65608183774E+02  0.56946586795E+03  0.40000000000E+03 0.  1.
<mgrwt>
<rscale>  2 0.56567388E+03</rscale>
<asrwt>0</asrwt>
<pdfrwt beam="1">  1       21 0.10403753E+00 0.56567388E+03</pdfrwt>
<pdfrwt beam="2">  1       21 0.77856686E-01 0.56567388E+03</pdfrwt>
<totfact> 0.88798744E+02</totfact>
</mgrwt>
</event>
<event>
 4    1  0.4862039E-002  0.4649833E+03  0.7818608E-02  0.1023346E+00
         21   -1    0    0  501  502  0.00000000000E+00  0.00000000000E+00  0.17108177322E+04  0.17108177322E+04  0.00000000000E+00 0. -1.
         21   -1    0    0  502  503 -0.00000000000E+00 -0.00000000000E+00 -0.44636351033E+03  0.44636351033E+03  0.00000000000E+00 0. -1.
    9000007    1    1    2  501    0  0.22365722254E+03 -0.78657154631E+02  0.15454515853E+04  0.16138866453E+04  0.40000000000E+03 0. -1.
   -9000007    1    1    2    0  503 -0.22365722254E+03  0.78657154631E+02 -0.28099736344E+03  0.54329459728E+03  0.40000000000E+03 0. -1.
<mgrwt>
<rscale>  2 0.46498333E+03</rscale>
<asrwt>0</asrwt>
<pdfrwt beam="1">  1       21 0.26320273E+00 0.46498333E+03</pdfrwt>
<pdfrwt beam="2">  1       21 0.68671310E-01 0.46498333E+03</pdfrwt>
<totfact> 0.83055584E+01</totfact>
</mgrwt>
</event>
<event>
 4    1  0.4862039E-002  0.4244008E+03  0.7818608E-02  0.1035643E+00
         21   -1    0    0  501  502  0.00000000000E+00  0.00000000000E+00  0.16900088046E+04  0.16900088046E+04  0.00000000000E+00 0.  1.
         21   -1    0    0  502  503 -0.00000000000E+00 -0.00000000000E+00 -0.22379702761E+03  0.22379702761E+03  0.00000000000E+00 0.  1.
    9000007    1    1    2  501    0  0.99706471216E+02 -0.10086960160E+03  0.14256407548E+04  0.14874702077E+04  0.40000000000E+03 0.  1.
   -9000007    1    1    2    0  503 -0.99706471216E+02  0.10086960160E+03  0.40571022207E+02  0.42633562456E+03  0.40000000000E+03 0.  1.
<mgrwt>
<rscale>  2 0.42440082E+03</rscale>
<asrwt>0</asrwt>
<pdfrwt beam="1">  1       21 0.26000135E+00 0.42440082E+03</pdfrwt>
<pdfrwt beam="2">  1       21 0.34430313E-01 0.42440082E+03</pdfrwt>
<totfact> 0.38519163E+02</totfact>
</mgrwt>
</event>
<event>
 4    1  0.4862039E-002  0.5481262E+03  0.7818608E-02  0.1001929E+00
         21   -1    0    0  503  502  0.00000000000E+00  0.00000000000E+00  0.29545281758E+04  0.29545281758E+04  0.00000000000E+00 0. -1.
         21   -1    0    0  501  503 -0.00000000000E+00 -0.00000000000E+00 -0.10235699164E+03  0.10235699164E+03  0.00000000000E+00 0.  1.
    9000007    1    1    2  501    0 -0.29041261422E+03  0.23686049978E+03  0.13025916932E+04  0.14132188444E+04  0.40000000000E+03 0.  1.
   -9000007    1    1    2    0  502  0.29041261422E+03 -0.23686049978E+03  0.15495794910E+04  0.16436663231E+04  0.40000000000E+03 0. -1.
<mgrwt>
<rscale>  2 0.54812625E+03</rscale>
<asrwt>0</asrwt>
<pdfrwt beam="1">  1       21 0.45454273E+00 0.54812625E+03</pdfrwt>
<pdfrwt beam="2">  1       21 0.15747232E-01 0.54812625E+03</pdfrwt>
<totfact> 0.98133459E+01</totfact>
</mgrwt>
</event>
<event>
 4    1  0.4862039E-002  0.4113572E+03  0.7818608E-02  0.1039917E+00
         21   -1    0    0  501  502  0.00000000000E+00  0.00000000000E+00  0.10212252024E+04  0.10212252024E+04  0.00000000000E+00 0.  1.
         21   -1    0    0  502  503 -0.00000000000E+00 -0.00000000000E+00 -0.20002241956E+03  0.20002241956E+03  0.00000000000E+00 0.  1.
    9000007    1    1    2  501    0  0.88340816852E+02 -0.37558631218E+02  0.66355296117E+03  0.78071587853E+03  0.40000000000E+03 0.  1.
   -9000007    1    1    2    0  503 -0.88340816852E+02  0.37558631218E+02  0.15764982166E+03  0.44053174343E+03  0.40000000000E+03 0.  1.
<mgrwt>
<rscale>  2 0.41135721E+03</rscale>
<asrwt>0</asrwt>
<pdfrwt beam="1">  1       21 0.15711157E+00 0.41135721E+03</pdfrwt>
<pdfrwt beam="2">  1       21 0.30772681E-01 0.41135721E+03</pdfrwt>
<totfact> 0.23341341E+03</totfact>
</mgrwt>
</event>
<event>
 4    1  0.4862039E-002  0.6367815E+03  0.7818608E-02  0.9831904E-01
         21   -1    0    0  501  502  0.00000000000E+00  0.00000000000E+00  0.91183267607E+03  0.91183267607E+03  0.00000000000E+00 0.  1.
         21   -1    0    0  502  503 -0.00000000000E+00 -0.00000000000E+00 -0.52274096087E+03  0.52274096087E+03  0.00000000000E+00 0. -1.
    9000007    1    1    2  501    0  0.48980126586E+03 -0.74735616170E+02  0.47169583717E+03  0.79245672132E+03  0.40000000000E+03 0.  1.
   -9000007    1    1    2    0  503 -0.48980126586E+03  0.74735616170E+02 -0.82604121965E+02  0.64211691562E+03  0.40000000000E+03 0. -1.
<mgrwt>
<rscale>  2 0.63678151E+03</rscale>
<asrwt>0</asrwt>
<pdfrwt beam="1">  1       21 0.14028195E+00 0.63678151E+03</pdfrwt>
<pdfrwt beam="2">  1       21 0.80421687E-01 0.63678151E+03</pdfrwt>
<totfact> 0.37355205E+02</totfact>
</mgrwt>
</event>
<event>
 4    1  0.4862039E-002  0.4176184E+03  0.7818608E-02  0.1037844E+00
         21   -1    0    0  503  502  0.00000000000E+00  0.00000000000E+00  0.37220380024E+03  0.37220380024E+03  0.00000000000E+00 0.  1.
         21   -1    0    0  501  503 -0.00000000000E+00 -0.00000000000E+00 -0.48685431397E+03  0.48685431397E+03  0.00000000000E+00 0.  1.
    9000007    1    1    2  501    0 -0.11995342945E+03  0.40353126122E+01  0.25905172316E+02  0.41842106417E+03  0.40000000000E+03 0.  1.
   -9000007    1    1    2    0  502  0.11995342945E+03 -0.40353126122E+01 -0.14055568605E+03  0.44063705004E+03  0.40000000000E+03 0.  1.
<mgrwt>
<rscale>  2 0.41761838E+03</rscale>
<asrwt>0</asrwt>
<pdfrwt beam="1">  1       21 0.57262123E-01 0.41761838E+03</pdfrwt>
<pdfrwt beam="2">  1       21 0.74900664E-01 0.41761838E+03</pdfrwt>
<totfact> 0.40456625E+03</totfact>
</mgrwt>
</event>
<event>
 4    1  0.4862039E-002  0.4177412E+03  0.7818608E-02  0.1037804E+00
         21   -1    0    0  501  502  0.00000000000E+00  0.00000000000E+00  0.73530247196E+03  0.73530247196E+03  0.00000000000E+00 0.  1.
         21   -1    0    0  502  503 -0.00000000000E+00 -0.00000000000E+00 -0.23832177900E+03  0.23832177900E+03  0.00000000000E+00 0.  1.
    9000007    1    1    2  501    0  0.50500270283E+02  0.10935020822E+03  0.27992871530E+03  0.50285965337E+03  0.40000000000E+03 0.  1.
   -9000007    1    1    2    0  503 -0.50500270283E+02 -0.10935020822E+03  0.21705197767E+03  0.47076459759E+03  0.40000000000E+03 0.  1.
<mgrwt>
<rscale>  2 0.41774124E+03</rscale>
<asrwt>0</asrwt>
<pdfrwt beam="1">  1       21 0.11312346E+00 0.41774124E+03</pdfrwt>
<pdfrwt beam="2">  1       21 0.36664890E-01 0.41774124E+03</pdfrwt>
<totfact> 0.38634428E+03</totfact>
</mgrwt>
</event>
<event>
 4    1  0.4862039E-002  0.5504315E+03  0.7818608E-02  0.1001394E+00
         21   -1    0    0  501  502  0.00000000000E+00  0.00000000000E+00  0.12045720821E+04  0.12045720821E+04  0.00000000000E+00 0.  1.
         21   -1    0    0  502  503 -0.00000000000E+00 -0.00000000000E+00 -0.25632962314E+03  0.25632962314E+03  0.00000000000E+00 0.  1.
    9000007    1    1    2  501    0 -0.26321157016E+03  0.27146735916E+03  0.57417048278E+03  0.79539084798E+03  0.40000000000E+03 0.  1.
   -9000007    1    1    2    0  503  0.26321157016E+03 -0.27146735916E+03  0.37407197618E+03  0.66551085725E+03  0.40000000000E+03 0.  1.
<mgrwt>
<rscale>  2 0.55043152E+03</rscale>
<asrwt>0</asrwt>
<pdfrwt beam="1">  1       21 0.18531878E+00 0.55043152E+03</pdfrwt>
<pdfrwt beam="2">  1       21 0.39435327E-01 0.55043152E+03</pdfrwt>
<totfact> 0.83282228E+02</totfact>
</mgrwt>
</event>
<event>
 4    1  0.4862039E-002  0.5990833E+03  0.7818608E-02  0.9907310E-01
         21   -1    0    0  503  502  0.00000000000E+00  0.00000000000E+00  0.56464229660E+03  0.56464229660E+03  0.00000000000E+00 0. -1.
         21   -1    0    0  501  503 -0.00000000000E+00 -0.00000000000E+00 -0.68956969752E+03  0.68956969752E+03  0.00000000000E+00 0.  1.
    9000007    1    1    2  501    0  0.28749085914E+03  0.34095425565E+03 -0.23786224068E+03  0.64457679455E+03  0.40000000000E+03 0. -1.
   -9000007    1    1    2    0  502 -0.28749085914E+03 -0.34095425565E+03  0.11293483976E+03  0.60963519958E+03  0.40000000000E+03 0.  1.
<mgrwt>
<rscale>  2 0.59908330E+03</rscale>
<asrwt>0</asrwt>
<pdfrwt beam="1">  1       21 0.86868046E-01 0.59908330E+03</pdfrwt>
<pdfrwt beam="2">  1       21 0.10608765E+00 0.59908330E+03</pdfrwt>
<totfact> 0.64782038E+02</totfact>
</mgrwt>
</event>
<event>
 4    1  0.4862039E-002  0.4192832E+03  0.7818608E-02  0.1037300E+00
         21   -1    0    0  501  502  0.00000000000E+00  0.00000000000E+00  0.33914534242E+03  0.33914534242E+03  0.00000000000E+00 0.  1.
         21   -1    0    0  502  503 -0.00000000000E+00 -0.00000000000E+00 -0.53681153232E+03  0.53681153232E+03  0.00000000000E+00 0. -1.
    9000007    1    1    2  501    0 -0.12435651496E+03 -0.18271293422E+02 -0.18003993555E+03  0.45630336551E+03  0.40000000000E+03 0.  1.
   -9000007    1    1    2    0  503  0.12435651496E+03  0.18271293422E+02 -0.17626254347E+02  0.41965350924E+03  0.40000000000E+03 0.  1.
<mgrwt>
<rscale>  2 0.41928318E+03</rscale>
<asrwt>0</asrwt>
<pdfrwt beam="1">  1       21 0.52176206E-01 0.41928318E+03</pdfrwt>
<pdfrwt beam="2">  1       21 0.82586390E-01 0.41928318E+03</pdfrwt>
<totfact> 0.39463547E+03</totfact>
</mgrwt>
</event>
<event>
 4    1  0.4862039E-002  0.4067110E+03  0.7818608E-02  0.1041480E+00
         21   -1    0    0  501  502  0.00000000000E+00  0.00000000000E+00  0.20537148113E+03  0.20537148113E+03  0.00000000000E+00 0. -1.
         21   -1    0    0  502  503 -0.00000000000E+00 -0.00000000000E+00 -0.81346468742E+03  0.81346468742E+03  0.00000000000E+00 0. -1.
    9000007    1    1    2  501    0 -0.13248568668E+02 -0.72376452617E+02 -0.25344212750E+03  0.47921476131E+03  0.40000000000E+03 0. -1.
   -9000007    1    1    2    0  503  0.13248568668E+02  0.72376452617E+02 -0.35465107879E+03  0.53962140724E+03  0.40000000000E+03 0. -1.
<mgrwt>
<rscale>  2 0.40671105E+03</rscale>
<asrwt>0</asrwt>
<pdfrwt beam="1">  1       21 0.31595613E-01 0.40671105E+03</pdfrwt>
<pdfrwt beam="2">  1       21 0.12514841E+00 0.40671105E+03</pdfrwt>
<totfact> 0.40558329E+03</totfact>
</mgrwt>
</event>
<event>
 4    1  0.4862039E-002  0.4188961E+03  0.7818608E-02  0.1037426E+00
         21   -1    0    0  501  502  0.00000000000E+00  0.00000000000E+00  0.36356825214E+03  0.36356825214E+03  0.00000000000E+00 0.  1.
         21   -1    0    0  502  503 -0.00000000000E+00 -0.00000000000E+00 -0.96855701259E+03  0.96855701259E+03  0.00000000000E+00 0.  1.
    9000007    1    1    2  501    0  0.77864317888E+02 -0.97010801333E+02  0.16927727831E+03  0.45180609173E+03  0.40000000000E+03 0.  1.
   -9000007    1    1    2    0  503 -0.77864317888E+02  0.97010801333E+02 -0.77426603875E+03  0.88031917299E+03  0.40000000000E+03 0.  1.
<mgrwt>
<rscale>  2 0.41889611E+03</rscale>
<asrwt>0</asrwt>
<pdfrwt beam="1">  1       21 0.55933577E-01 0.41889611E+03</pdfrwt>
<pdfrwt beam="2">  1       21 0.14900877E+00 0.41889611E+03</pdfrwt>
<totfact> 0.78040925E+02</totfact>
</mgrwt>
</event>
<event>
 4    1  0.4862039E-002  0.5366527E+03  0.7818608E-02  0.1004631E+00
         21   -1    0    0  503  502  0.00000000000E+00  0.00000000000E+00  0.20209679627E+03  0.20209679627E+03  0.00000000000E+00 0. -1.
         21   -1    0    0  501  503 -0.00000000000E+00 -0.00000000000E+00 -0.15026569346E+04  0.15026569346E+04  0.00000000000E+00 0.  1.
    9000007    1    1    2  501    0 -0.55440561765E+01  0.35772249479E+03 -0.84400190454E+03  0.10001676533E+04  0.40000000000E+03 0.  1.
   -9000007    1    1    2    0  502  0.55440561765E+01 -0.35772249479E+03 -0.45655823375E+03  0.70458607752E+03  0.40000000000E+03 0.  1.
<mgrwt>
<rscale>  2 0.53665270E+03</rscale>
<asrwt>0</asrwt>
<pdfrwt beam="1">  1       21 0.31091815E-01 0.53665270E+03</pdfrwt>
<pdfrwt beam="2">  1       21 0.23117799E+00 0.53665270E+03</pdfrwt>
<totfact> 0.67488066E+02</totfact>
</mgrwt>
</event>
<event>
 4    1  0.4862039E-002  0.4461502E+03  0.7818608E-02  0.1028876E+00
         21   -1    0    0  503  502  0.00000000000E+00  0.00000000000E+00  0.76911332542E+03  0.76911332542E+03  0.00000000000E+00 0. -1.
         21   -1    0    0  501  503 -0.00000000000E+00 -0.00000000000E+00 -0.55742259822E+03  0.55742259822E+03  0.00000000000E+00 0. -1.
    9000007    1    1    2  501    0  0.14941945226E+03  0.12932066544E+03 -0.37961612161E+03  0.58579724053E+03  0.40000000000E+03 0. -1.
   -9000007    1    1    2    0  502 -0.14941945226E+03 -0.12932066544E+03  0.59130684880E+03  0.74073868311E+03  0.40000000000E+03 0. -1.
<mgrwt>
<rscale>  2 0.44615021E+03</rscale>
<asrwt>0</asrwt>
<pdfrwt beam="1">  1       21 0.11832513E+00 0.44615021E+03</pdfrwt>
<pdfrwt beam="2">  1       21 0.85757323E-01 0.44615021E+03</pdfrwt>
<totfact> 0.53877804E+02</totfact>
</mgrwt>
</event>
<event>
 4    1  0.4862039E-002  0.5195492E+03  0.7818608E-02  0.1008799E+00
         21   -1    0    0  503  502  0.00000000000E+00  0.00000000000E+00  0.18327547782E+04  0.18327547782E+04  0.00000000000E+00 0. -1.
         21   -1    0    0  501  503 -0.00000000000E+00 -0.00000000000E+00 -0.16250316605E+03  0.16250316605E+03  0.00000000000E+00 0. -1.
    9000007    1    1    2  501    0  0.30884812189E+03  0.12059938797E+03  0.11404528885E+04  0.12532215150E+04  0.40000000000E+03 0. -1.
   -9000007    1    1    2    0  502 -0.30884812189E+03 -0.12059938797E+03  0.52979872368E+03  0.74203642928E+03  0.40000000000E+03 0. -1.
<mgrwt>
<rscale>  2 0.51954920E+03</rscale>
<asrwt>0</asrwt>
<pdfrwt beam="1">  1       21 0.28196226E+00 0.51954920E+03</pdfrwt>
<pdfrwt beam="2">  1       21 0.25000488E-01 0.51954920E+03</pdfrwt>
<totfact> 0.50874226E+02</totfact>
</mgrwt>
</event>
<event>
 4    1  0.4862039E-002  0.4430719E+03  0.7818608E-02  0.1029808E+00
         21   -1    0    0  501  502  0.00000000000E+00  0.00000000000E+00  0.13809525149E+03  0.13809525149E+03  0.00000000000E+00 0.  1.
         21   -1    0    0  502  503 -0.00000000000E+00 -0.00000000000E+00 -0.20251919246E+04  0.20251919246E+04  0.00000000000E+00 0.  1.
    9000007    1    1    2  501    0  0.19035053206E+03 -0.89099152011E+01 -0.35303201021E+03  0.56651947175E+03  0.40000000000E+03 0.  1.
   -9000007    1    1    2    0  503 -0.19035053206E+03  0.89099152011E+01 -0.15340646629E+04  0.15967677044E+04  0.40000000000E+03 0.  1.
<mgrwt>
<rscale>  2 0.44307190E+03</rscale>
<asrwt>0</asrwt>
<pdfrwt beam="1">  1       21 0.21245423E-01 0.44307190E+03</pdfrwt>
<pdfrwt beam="2">  1       21 0.31156799E+00 0.44307190E+03</pdfrwt>
<totfact> 0.48087391E+02</totfact>
</mgrwt>
</event>
<event>
 4    1  0.4862039E-002  0.4812964E+03  0.7818608E-02  0.1018779E+00
         21   -1    0    0  503  502  0.00000000000E+00  0.00000000000E+00  0.41536271469E+03  0.41536271469E+03  0.00000000000E+00 0. -1.
         21   -1    0    0  501  503 -0.00000000000E+00 -0.00000000000E+00 -0.55807211926E+03  0.55807211926E+03  0.00000000000E+00 0.  1.
    9000007    1    1    2  501    0 -0.26498438462E+03 -0.37808875925E+02 -0.58723617749E+02  0.48486564992E+03  0.40000000000E+03 0. -1.
   -9000007    1    1    2    0  502  0.26498438462E+03  0.37808875925E+02 -0.83985786827E+02  0.48856918403E+03  0.40000000000E+03 0. -1.
<mgrwt>
<rscale>  2 0.48129641E+03</rscale>
<asrwt>0</asrwt>
<pdfrwt beam="1">  1       21 0.63901956E-01 0.48129641E+03</pdfrwt>
<pdfrwt beam="2">  1       21 0.85857249E-01 0.48129641E+03</pdfrwt>
<totfact> 0.22674580E+03</totfact>
</mgrwt>
</event>
<event>
 4    1  0.4862039E-002  0.4783908E+03  0.7818608E-02  0.1019578E+00
         21   -1    0    0  501  502  0.00000000000E+00  0.00000000000E+00  0.92665941118E+03  0.92665941118E+03  0.00000000000E+00 0. -1.
         21   -1    0    0  502  503 -0.00000000000E+00 -0.00000000000E+00 -0.40824751800E+03  0.40824751800E+03  0.00000000000E+00 0. -1.
    9000007    1    1    2  501    0  0.25036616048E+03 -0.78578181566E+02  0.67871868929E+03  0.83037148561E+03  0.40000000000E+03 0. -1.
   -9000007    1    1    2    0  503 -0.25036616048E+03  0.78578181566E+02 -0.16030679610E+03  0.50453544356E+03  0.40000000000E+03 0. -1.
<mgrwt>
<rscale>  2 0.47839079E+03</rscale>
<asrwt>0</asrwt>
<pdfrwt beam="1">  1       21 0.14256299E+00 0.47839079E+03</pdfrwt>
<pdfrwt beam="2">  1       21 0.62807311E-01 0.47839079E+03</pdfrwt>
<totfact> 0.66440203E+02</totfact>
</mgrwt>
</event>
<event>
 4    1  0.4862039E-002  0.5090509E+03  0.7818608E-02  0.1011443E+00
         21   -1    0    0  503  502  0.00000000000E+00  0.00000000000E+00  0.12707157684E+04  0.12707157684E+04  0.00000000000E+00 0.  1.
         21   -1    0    0  501  503 -0.00000000000E+00 -0.00000000000E+00 -0.26004818409E+03  0.26004818409E+03  0.00000000000E+00 0.  1.
    9000007    1    1    2  501    0 -0.10682559971E+03  0.29617753295E+03  0.14977125723E+03  0.53062629908E+03  0.40000000000E+03 0.  1.
   -9000007    1    1    2    0  502  0.10682559971E+03 -0.29617753295E+03  0.86089632705E+03  0.10001376534E+04  0.40000000000E+03 0.  1.
<mgrwt>
<rscale>  2 0.50905092E+03</rscale>
<asrwt>0</asrwt>
<pdfrwt beam="1">  1       21 0.19549473E+00 0.50905092E+03</pdfrwt>
<pdfrwt beam="2">  1       21 0.40007414E-01 0.50905092E+03</pdfrwt>
<totfact> 0.69918898E+02</totfact>
</mgrwt>
</event>
<event>
 4    1  0.4862039E-002  0.4025728E+03  0.7818608E-02  0.1042892E+00
         21   -1    0    0  503  502  0.00000000000E+00  0.00000000000E+00  0.16117880762E+03  0.16117880762E+03  0.00000000000E+00 0. -1.
         21   -1    0    0  501  503 -0.00000000000E+00 -0.00000000000E+00 -0.11733494751E+04  0.11733494751E+04  0.00000000000E+00 0. -1.
    9000007    1    1    2  501    0  0.28903837814E+02  0.35063519677E+02 -0.75846093695E+03  0.85867798105E+03  0.40000000000E+03 0. -1.
   -9000007    1    1    2    0  502 -0.28903837814E+02 -0.35063519677E+02 -0.25370973055E+03  0.47585030170E+03  0.40000000000E+03 0. -1.
<mgrwt>
<rscale>  2 0.40257283E+03</rscale>
<asrwt>0</asrwt>
<pdfrwt beam="1">  1       21 0.24796739E-01 0.40257283E+03</pdfrwt>
<pdfrwt beam="2">  1       21 0.18051531E+00 0.40257283E+03</pdfrwt>
<totfact> 0.24168246E+03</totfact>
</mgrwt>
</event>
<event>
 4    1  0.4862039E-002  0.4171150E+03  0.7818608E-02  0.1038009E+00
         21   -1    0    0  503  502  0.00000000000E+00  0.00000000000E+00  0.37433710913E+03  0.37433710913E+03  0.00000000000E+00 0.  1.
         21   -1    0    0  501  503 -0.00000000000E+00 -0.00000000000E+00 -0.46997685384E+03  0.46997685384E+03  0.00000000000E+00 0.  1.
    9000007    1    1    2  501    0 -0.79578645716E+02 -0.87476759179E+02 -0.92205811132E+02  0.42718480293E+03  0.40000000000E+03 0. -1.
   -9000007    1    1    2    0  502  0.79578645716E+02  0.87476759179E+02 -0.34339335797E+01  0.41712916003E+03  0.40000000000E+03 0. -1.
<mgrwt>
<rscale>  2 0.41711503E+03</rscale>
<asrwt>0</asrwt>
<pdfrwt beam="1">  1       21 0.57590325E-01 0.41711503E+03</pdfrwt>
<pdfrwt beam="2">  1       21 0.72304131E-01 0.41711503E+03</pdfrwt>
<totfact> 0.43295608E+03</totfact>
</mgrwt>
</event>
<event>
 4    1  0.4862039E-002  0.4915489E+03  0.7818608E-02  0.1016009E+00
         21   -1    0    0  503  502  0.00000000000E+00  0.00000000000E+00  0.16633408979E+03  0.16633408979E+03  0.00000000000E+00 0. -1.
         21   -1    0    0  501  503 -0.00000000000E+00 -0.00000000000E+00 -0.14570953325E+04  0.14570953325E+04  0.00000000000E+00 0. -1.
    9000007    1    1    2  501    0  0.52291473273E+02 -0.28086634869E+03 -0.69036370122E+03  0.84747999621E+03  0.40000000000E+03 0. -1.
   -9000007    1    1    2    0  502 -0.52291473273E+02  0.28086634869E+03 -0.60039754148E+03  0.77594942607E+03  0.40000000000E+03 0. -1.
<mgrwt>
<rscale>  2 0.49154888E+03</rscale>
<asrwt>0</asrwt>
<pdfrwt beam="1">  1       21 0.25589860E-01 0.49154888E+03</pdfrwt>
<pdfrwt beam="2">  1       21 0.22416851E+00 0.49154888E+03</pdfrwt>
<totfact> 0.11199779E+03</totfact>
</mgrwt>
</event>
<event>
 4    1  0.4862039E-002  0.5040126E+03  0.7818608E-02  0.1012737E+00
         21   -1    0    0  503  502  0.00000000000E+00  0.00000000000E+00  0.25897107566E+03  0.25897107566E+03  0.00000000000E+00 0.  1.
         21   -1    0    0  501  503 -0.00000000000E+00 -0.00000000000E+00 -0.11962229562E+04  0.11962229562E+04  0.00000000000E+00 0. -1.
    9000007    1    1    2  501    0  0.12612245425E+03 -0.27950286796E+03 -0.15994171352E+03  0.52878169256E+03  0.40000000000E+03 0. -1.
   -9000007    1    1    2    0  502 -0.12612245425E+03  0.27950286796E+03 -0.77731016702E+03  0.92641233931E+03  0.40000000000E+03 0. -1.
<mgrwt>
<rscale>  2 0.50401263E+03</rscale>
<asrwt>0</asrwt>
<pdfrwt beam="1">  1       21 0.39841704E-01 0.50401263E+03</pdfrwt>
<pdfrwt beam="2">  1       21 0.18403430E+00 0.50401263E+03</pdfrwt>
<totfact> 0.84732357E+02</totfact>
</mgrwt>
</event>
<event>
 4    1  0.4862039E-002  0.4166455E+03  0.7818608E-02  0.1038164E+00
         21   -1    0    0  503  502  0.00000000000E+00  0.00000000000E+00  0.55736029564E+03  0.55736029564E+03  0.00000000000E+00 0.  1.
         21   -1    0    0  501  503 -0.00000000000E+00 -0.00000000000E+00 -0.10648725673E+04  0.10648725673E+04  0.00000000000E+00 0.  1.
    9000007    1    1    2  501    0 -0.72227650305E+02 -0.91523887375E+02 -0.93601915996E+03  0.10245610393E+04  0.40000000000E+03 0.  1.
   -9000007    1    1    2    0  502  0.72227650305E+02  0.91523887375E+02  0.42850688832E+03  0.59767182363E+03  0.40000000000E+03 0.  1.
<mgrwt>
<rscale>  2 0.41664548E+03</rscale>
<asrwt>0</asrwt>
<pdfrwt beam="1">  1       21 0.85747738E-01 0.41664548E+03</pdfrwt>
<pdfrwt beam="2">  1       21 0.16382655E+00 0.41664548E+03</pdfrwt>
<totfact> 0.23054767E+02</totfact>
</mgrwt>
</event>
<event>
 4    1  0.4862039E-002  0.5848579E+03  0.7818608E-02  0.9937329E-01
         21   -1    0    0  503  502  0.00000000000E+00  0.00000000000E+00  0.98794645055E+03  0.98794645055E+03  0.00000000000E+00 0.  1.
         21   -1    0    0  501  503 -0.00000000000E+00 -0.00000000000E+00 -0.44857980005E+03  0.44857980005E+03  0.00000000000E+00 0.  1.
    9000007    1    1    2  501    0 -0.38473826759E+03 -0.18448651845E+03 -0.73402425764E+02  0.58944611810E+03  0.40000000000E+03 0.  1.
   -9000007    1    1    2    0  502  0.38473826759E+03  0.18448651845E+03  0.61276907627E+03  0.84708013250E+03  0.40000000000E+03 0.  1.
<mgrwt>
<rscale>  2 0.58485794E+03</rscale>
<asrwt>0</asrwt>
<pdfrwt beam="1">  1       21 0.15199176E+00 0.58485794E+03</pdfrwt>
<pdfrwt beam="2">  1       21 0.69012277E-01 0.58485794E+03</pdfrwt>
<totfact> 0.43419090E+02</totfact>
</mgrwt>
</event>
<event>
 4    1  0.4862039E-002  0.4806555E+03  0.7818608E-02  0.1018955E+00
         21   -1    0    0  501  502  0.00000000000E+00  0.00000000000E+00  0.10424051754E+04  0.10424051754E+04  0.00000000000E+00 0. -1.
         21   -1    0    0  502  503 -0.00000000000E+00 -0.00000000000E+00 -0.31563745390E+03  0.31563745390E+03  0.00000000000E+00 0.  1.
    9000007    1    1    2  501    0  0.26537717680E+03  0.24590319713E+02  0.73395110466E+03  0.87733343366E+03  0.40000000000E+03 0. -1.
   -9000007    1    1    2    0  503 -0.26537717680E+03 -0.24590319713E+02 -0.71833831479E+01  0.48070919565E+03  0.40000000000E+03 0.  1.
<mgrwt>
<rscale>  2 0.48065552E+03</rscale>
<asrwt>0</asrwt>
<pdfrwt beam="1">  1       21 0.16037003E+00 0.48065552E+03</pdfrwt>
<pdfrwt beam="2">  1       21 0.48559609E-01 0.48065552E+03</pdfrwt>
<totfact> 0.83985242E+02</totfact>
</mgrwt>
</event>
<event>
 4    1  0.4862039E-002  0.4833657E+03  0.7818608E-02  0.1018214E+00
         21   -1    0    0  503  502  0.00000000000E+00  0.00000000000E+00  0.79602265811E+03  0.79602265811E+03  0.00000000000E+00 0. -1.
         21   -1    0    0  501  503 -0.00000000000E+00 -0.00000000000E+00 -0.30483556203E+03  0.30483556203E+03  0.00000000000E+00 0. -1.
    9000007    1    1    2  501    0 -0.15606438697E+03 -0.22200529496E+03  0.13950847152E+03  0.50309547553E+03  0.40000000000E+03 0. -1.
   -9000007    1    1    2    0  502  0.15606438697E+03  0.22200529496E+03  0.35167862456E+03  0.59776274461E+03  0.40000000000E+03 0. -1.
<mgrwt>
<rscale>  2 0.48336575E+03</rscale>
<asrwt>0</asrwt>
<pdfrwt beam="1">  1       21 0.12246502E+00 0.48336575E+03</pdfrwt>
<pdfrwt beam="2">  1       21 0.46897779E-01 0.48336575E+03</pdfrwt>
<totfact> 0.18540812E+03</totfact>
</mgrwt>
</event>
<event>
 4    1  0.4862039E-002  0.5328764E+03  0.7818608E-02  0.1005537E+00
         21   -1    0    0  501  502  0.00000000000E+00  0.00000000000E+00  0.12020343291E+03  0.12020343291E+03  0.00000000000E+00 0. -1.
         21   -1    0    0  502  503 -0.00000000000E+00 -0.00000000000E+00 -0.24910939230E+04  0.24910939230E+04  0.00000000000E+00 0. -1.
    9000007    1    1    2  501    0 -0.10860737315E+03  0.33490547224E+03 -0.88857299198E+03  0.10361077159E+04  0.40000000000E+03 0. -1.
   -9000007    1    1    2    0  503  0.10860737315E+03 -0.33490547224E+03 -0.14823174981E+04  0.15751896400E+04  0.40000000000E+03 0. -1.
<mgrwt>
<rscale>  2 0.53287638E+03</rscale>
<asrwt>0</asrwt>
<pdfrwt beam="1">  1       21 0.18492836E-01 0.53287638E+03</pdfrwt>
<pdfrwt beam="2">  1       21 0.38324522E+00 0.53287638E+03</pdfrwt>
<totfact> 0.21541224E+02</totfact>
</mgrwt>
</event>
<event>
 4    1  0.4862039E-002  0.4656138E+03  0.7818608E-02  0.1023166E+00
         21   -1    0    0  501  502  0.00000000000E+00  0.00000000000E+00  0.29991628512E+03  0.29991628512E+03  0.00000000000E+00 0.  1.
         21   -1    0    0  502  503 -0.00000000000E+00 -0.00000000000E+00 -0.73555796410E+03  0.73555796410E+03  0.00000000000E+00 0.  1.
    9000007    1    1    2  501    0 -0.15450172235E+02 -0.23781818848E+03 -0.28585723392E+03  0.54636119626E+03  0.40000000000E+03 0.  1.
   -9000007    1    1    2    0  503  0.15450172235E+02  0.23781818848E+03 -0.14978444506E+03  0.48911305296E+03  0.40000000000E+03 0.  1.
<mgrwt>
<rscale>  2 0.46561379E+03</rscale>
<asrwt>0</asrwt>
<pdfrwt beam="1">  1       21 0.46140967E-01 0.46561379E+03</pdfrwt>
<pdfrwt beam="2">  1       21 0.11316276E+00 0.46561379E+03</pdfrwt>
<totfact> 0.23578972E+03</totfact>
</mgrwt>
</event>
<event>
 4    1  0.4862039E-002  0.4437762E+03  0.7818608E-02  0.1029594E+00
         21   -1    0    0  503  502  0.00000000000E+00  0.00000000000E+00  0.51709910039E+03  0.51709910039E+03  0.00000000000E+00 0. -1.
         21   -1    0    0  501  503 -0.00000000000E+00 -0.00000000000E+00 -0.91562053435E+03  0.91562053435E+03  0.00000000000E+00 0. -1.
    9000007    1    1    2  501    0  0.11889036444E+03 -0.15100470565E+03 -0.74672661789E+03  0.86864145754E+03  0.40000000000E+03 0. -1.
   -9000007    1    1    2    0  502 -0.11889036444E+03  0.15100470565E+03  0.34820518393E+03  0.56407817720E+03  0.40000000000E+03 0. -1.
<mgrwt>
<rscale>  2 0.44377623E+03</rscale>
<asrwt>0</asrwt>
<pdfrwt beam="1">  1       21 0.79553709E-01 0.44377623E+03</pdfrwt>
<pdfrwt beam="2">  1       21 0.14086470E+00 0.44377623E+03</pdfrwt>
<totfact> 0.40861189E+02</totfact>
</mgrwt>
</event>
<event>
 4    1  0.4862039E-002  0.4033726E+03  0.7818608E-02  0.1042618E+00
         21   -1    0    0  503  502  0.00000000000E+00  0.00000000000E+00  0.15921058440E+03  0.15921058440E+03  0.00000000000E+00 0. -1.
         21   -1    0    0  501  503 -0.00000000000E+00 -0.00000000000E+00 -0.20986747414E+04  0.20986747414E+04  0.00000000000E+00 0. -1.
    9000007    1    1    2  501    0  0.18783128184E+02  0.48545349570E+02 -0.17783555504E+04  0.18235289744E+04  0.40000000000E+03 0. -1.
   -9000007    1    1    2    0  502 -0.18783128184E+02 -0.48545349570E+02 -0.16110860659E+03  0.43435635138E+03  0.40000000000E+03 0. -1.
<mgrwt>
<rscale>  2 0.40337260E+03</rscale>
<asrwt>0</asrwt>
<pdfrwt beam="1">  1       21 0.24493937E-01 0.40337260E+03</pdfrwt>
<pdfrwt beam="2">  1       21 0.32287303E+00 0.40337260E+03</pdfrwt>
<totfact> 0.32058382E+02</totfact>
</mgrwt>
</event>
<event>
 4    1  0.4862039E-002  0.4621992E+03  0.7818608E-02  0.1024145E+00
         21   -1    0    0  503  502  0.00000000000E+00  0.00000000000E+00  0.22808652560E+03  0.22808652560E+03  0.00000000000E+00 0. -1.
         21   -1    0    0  501  503 -0.00000000000E+00 -0.00000000000E+00 -0.10507348911E+04  0.10507348911E+04  0.00000000000E+00 0. -1.
    9000007    1    1    2  501    0 -0.21963933500E+03  0.73394108293E+02 -0.62205275146E+03  0.77496952083E+03  0.40000000000E+03 0. -1.
   -9000007    1    1    2    0  502  0.21963933500E+03 -0.73394108293E+02 -0.20059561407E+03  0.50385189590E+03  0.40000000000E+03 0. -1.
<mgrwt>
<rscale>  2 0.46219923E+03</rscale>
<asrwt>0</asrwt>
<pdfrwt beam="1">  1       21 0.35090235E-01 0.46219923E+03</pdfrwt>
<pdfrwt beam="2">  1       21 0.16165152E+00 0.46219923E+03</pdfrwt>
<totfact> 0.16223315E+03</totfact>
</mgrwt>
</event>
<event>
 4    1  0.4862039E-002  0.4628085E+03  0.7818608E-02  0.1023970E+00
         21   -1    0    0  503  502  0.00000000000E+00  0.00000000000E+00  0.17300876490E+03  0.17300876490E+03  0.00000000000E+00 0. -1.
         21   -1    0    0  501  503 -0.00000000000E+00 -0.00000000000E+00 -0.14460651450E+04  0.14460651450E+04  0.00000000000E+00 0. -1.
    9000007    1    1    2  501    0 -0.22716791067E+03  0.50857362843E+02 -0.94357239818E+03  0.10509617508E+04  0.40000000000E+03 0. -1.
   -9000007    1    1    2    0  502  0.22716791067E+03 -0.50857362843E+02 -0.32948398190E+03  0.56811215910E+03  0.40000000000E+03 0. -1.
<mgrwt>
<rscale>  2 0.46280853E+03</rscale>
<asrwt>0</asrwt>
<pdfrwt beam="1">  1       21 0.26616734E-01 0.46280853E+03</pdfrwt>
<pdfrwt beam="2">  1       21 0.22247156E+00 0.46280853E+03</pdfrwt>
<totfact> 0.10769425E+03</totfact>
</mgrwt>
</event>
<event>
 4    1  0.4862039E-002  0.5250282E+03  0.7818608E-02  0.1007445E+00
         21   -1    0    0  503  502  0.00000000000E+00  0.00000000000E+00  0.17196607359E+04  0.17196607359E+04  0.00000000000E+00 0. -1.
         21   -1    0    0  501  503 -0.00000000000E+00 -0.00000000000E+00 -0.30587094485E+03  0.30587094485E+03  0.00000000000E+00 0.  1.
    9000007    1    1    2  501    0  0.15139146657E+03  0.30452452631E+03  0.82067087852E+01  0.52509229031E+03  0.40000000000E+03 0.  1.
   -9000007    1    1    2    0  502 -0.15139146657E+03 -0.30452452631E+03  0.14055830823E+04  0.15004393905E+04  0.40000000000E+03 0. -1.
<mgrwt>
<rscale>  2 0.52502815E+03</rscale>
<asrwt>0</asrwt>
<pdfrwt beam="1">  1       21 0.26456319E+00 0.52502815E+03</pdfrwt>
<pdfrwt beam="2">  1       21 0.47057069E-01 0.52502815E+03</pdfrwt>
<totfact> 0.17955291E+02</totfact>
</mgrwt>
</event>
<event>
 4    1  0.4862039E-002  0.4517878E+03  0.7818608E-02  0.1027190E+00
         21   -1    0    0  501  502  0.00000000000E+00  0.00000000000E+00  0.42325089011E+03  0.42325089011E+03  0.00000000000E+00 0.  1.
         21   -1    0    0  502  503 -0.00000000000E+00 -0.00000000000E+00 -0.61689547033E+03  0.61689547033E+03  0.00000000000E+00 0.  1.
    9000007    1    1    2  501    0  0.94216068034E+02  0.18771144428E+03  0.14614980613E+03  0.47483894072E+03  0.40000000000E+03 0.  1.
   -9000007    1    1    2    0  503 -0.94216068034E+02 -0.18771144428E+03 -0.33979438635E+03  0.56530741972E+03  0.40000000000E+03 0.  1.
<mgrwt>
<rscale>  2 0.45178784E+03</rscale>
<asrwt>0</asrwt>
<pdfrwt beam="1">  1       21 0.65115522E-01 0.45178784E+03</pdfrwt>
<pdfrwt beam="2">  1       21 0.94906995E-01 0.45178784E+03</pdfrwt>
<totfact> 0.17330432E+03</totfact>
</mgrwt>
</event>
<event>
 4    1  0.4862039E-002  0.6384284E+03  0.7818608E-02  0.9828738E-01
         21   -1    0    0  501  502  0.00000000000E+00  0.00000000000E+00  0.67867539963E+03  0.67867539963E+03  0.00000000000E+00 0.  1.
         21   -1    0    0  502  503 -0.00000000000E+00 -0.00000000000E+00 -0.60158064983E+03  0.60158064983E+03  0.00000000000E+00 0. -1.
    9000007    1    1    2  501    0  0.37581260269E+03  0.32612226094E+03  0.12286237580E+02  0.63854662559E+03  0.40000000000E+03 0. -1.
   -9000007    1    1    2    0  503 -0.37581260269E+03 -0.32612226094E+03  0.64808512219E+02  0.64170942386E+03  0.40000000000E+03 0.  1.
<mgrwt>
<rscale>  2 0.63842842E+03</rscale>
<asrwt>0</asrwt>
<pdfrwt beam="1">  1       21 0.10441160E+00 0.63842842E+03</pdfrwt>
<pdfrwt beam="2">  1       21 0.92550869E-01 0.63842842E+03</pdfrwt>
<totfact> 0.57242013E+02</totfact>
</mgrwt>
</event>
<event>
 4    1  0.4862039E-002  0.4473613E+03  0.7818608E-02  0.1028512E+00
         21   -1    0    0  501  502  0.00000000000E+00  0.00000000000E+00  0.30836948702E+03  0.30836948702E+03  0.00000000000E+00 0.  1.
         21   -1    0    0  502  503 -0.00000000000E+00 -0.00000000000E+00 -0.11878233974E+04  0.11878233974E+04  0.00000000000E+00 0.  1.
    9000007    1    1    2  501    0  0.29658577557E+02 -0.19812252960E+03  0.64126672485E+02  0.45193406386E+03  0.40000000000E+03 0.  1.
   -9000007    1    1    2    0  503 -0.29658577557E+02  0.19812252960E+03 -0.94358058288E+03  0.10442588206E+04  0.40000000000E+03 0.  1.
<mgrwt>
<rscale>  2 0.44736134E+03</rscale>
<asrwt>0</asrwt>
<pdfrwt beam="1">  1       21 0.47441459E-01 0.44736134E+03</pdfrwt>
<pdfrwt beam="2">  1       21 0.18274206E+00 0.44736134E+03</pdfrwt>
<totfact> 0.61607763E+02</totfact>
</mgrwt>
</event>
<event>
 4    1  0.4862039E-002  0.4030212E+03  0.7818608E-02  0.1042739E+00
         21   -1    0    0  501  502  0.00000000000E+00  0.00000000000E+00  0.73517011481E+03  0.73517011481E+03  0.00000000000E+00 0. -1.
         21   -1    0    0  502  503 -0.00000000000E+00 -0.00000000000E+00 -0.45048263374E+03  0.45048263374E+03  0.00000000000E+00 0. -1.
    9000007    1    1    2  501    0 -0.11418765931E+02  0.47913139630E+02  0.56552194788E+03  0.69443583627E+03  0.40000000000E+03 0. -1.
   -9000007    1    1    2    0  503  0.11418765931E+02 -0.47913139630E+02 -0.28083446681E+03  0.49121691228E+03  0.40000000000E+03 0. -1.
<mgrwt>
<rscale>  2 0.40302116E+03</rscale>
<asrwt>0</asrwt>
<pdfrwt beam="1">  1       21 0.11310309E+00 0.40302116E+03</pdfrwt>
<pdfrwt beam="2">  1       21 0.69305021E-01 0.40302116E+03</pdfrwt>
<totfact> 0.10021781E+03</totfact>
</mgrwt>
</event>
<event>
 4    1  0.4862039E-002  0.5399346E+03  0.7818608E-02  0.1003851E+00
         21   -1    0    0  501  502  0.00000000000E+00  0.00000000000E+00  0.72232952273E+03  0.72232952273E+03  0.00000000000E+00 0. -1.
         21   -1    0    0  502  503 -0.00000000000E+00 -0.00000000000E+00 -0.78335416350E+03  0.78335416350E+03  0.00000000000E+00 0.  1.
    9000007    1    1    2  501    0 -0.11180986597E+02 -0.36249741485E+03  0.49366492455E+03  0.73159718969E+03  0.40000000000E+03 0. -1.
   -9000007    1    1    2    0  503  0.11180986597E+02  0.36249741485E+03 -0.55468956533E+03  0.77408649653E+03  0.40000000000E+03 0.  1.
<mgrwt>
<rscale>  2 0.53993462E+03</rscale>
<asrwt>0</asrwt>
<pdfrwt beam="1">  1       21 0.11112762E+00 0.53993462E+03</pdfrwt>
<pdfrwt beam="2">  1       21 0.12051602E+00 0.53993462E+03</pdfrwt>
<totfact> 0.26374187E+02</totfact>
</mgrwt>
</event>
<event>
 4    1  0.4862039E-002  0.5056377E+03  0.7818608E-02  0.1012318E+00
         21   -1    0    0  501  502  0.00000000000E+00  0.00000000000E+00  0.30113198935E+03  0.30113198935E+03  0.00000000000E+00 0. -1.
         21   -1    0    0  502  503 -0.00000000000E+00 -0.00000000000E+00 -0.93643324537E+03  0.93643324537E+03  0.00000000000E+00 0.  1.
    9000007    1    1    2  501    0  0.30741952510E+03 -0.34099239251E+02 -0.12860432944E+03  0.52173613645E+03  0.40000000000E+03 0. -1.
   -9000007    1    1    2    0  503 -0.30741952510E+03  0.34099239251E+02 -0.50669692658E+03  0.71582909827E+03  0.40000000000E+03 0.  1.
<mgrwt>
<rscale>  2 0.50563774E+03</rscale>
<asrwt>0</asrwt>
<pdfrwt beam="1">  1       21 0.46327999E-01 0.50563774E+03</pdfrwt>
<pdfrwt beam="2">  1       21 0.14406665E+00 0.50563774E+03</pdfrwt>
<totfact> 0.12324195E+03</totfact>
</mgrwt>
</event>
<event>
 4    1  0.4862039E-002  0.5022507E+03  0.7818608E-02  0.1013193E+00
         21   -1    0    0  503  502  0.00000000000E+00  0.00000000000E+00  0.25439891926E+03  0.25439891926E+03  0.00000000000E+00 0. -1.
         21   -1    0    0  501  503 -0.00000000000E+00 -0.00000000000E+00 -0.10639956871E+04  0.10639956871E+04  0.00000000000E+00 0. -1.
    9000007    1    1    2  501    0 -0.27153387962E+03  0.13610718026E+03 -0.57677698216E+03  0.76480553048E+03  0.40000000000E+03 0.  1.
   -9000007    1    1    2    0  502  0.27153387962E+03 -0.13610718026E+03 -0.23281978564E+03  0.55358907583E+03  0.40000000000E+03 0.  1.
<mgrwt>
<rscale>  2 0.50225075E+03</rscale>
<asrwt>0</asrwt>
<pdfrwt beam="1">  1       21 0.39138296E-01 0.50225075E+03</pdfrwt>
<pdfrwt beam="2">  1       21 0.16369164E+00 0.50225075E+03</pdfrwt>
<totfact> 0.12337536E+03</totfact>
</mgrwt>
</event>
<event>
 4    1  0.4862039E-002  0.4945523E+03  0.7818608E-02  0.1015211E+00
         21   -1    0    0  501  502  0.00000000000E+00  0.00000000000E+00  0.26687135971E+03  0.26687135971E+03  0.00000000000E+00 0. -1.
         21   -1    0    0  502  503 -0.00000000000E+00 -0.00000000000E+00 -0.93052938865E+03  0.93052938865E+03  0.00000000000E+00 0.  1.
    9000007    1    1    2  501    0 -0.23271764827E+03 -0.17442599964E+03 -0.25826044001E+03  0.55792507386E+03  0.40000000000E+03 0. -1.
   -9000007    1    1    2    0  503  0.23271764827E+03  0.17442599964E+03 -0.40539758893E+03  0.63947567450E+03  0.40000000000E+03 0.  1.
<mgrwt>
<rscale>  2 0.49455226E+03</rscale>
<asrwt>0</asrwt>
<pdfrwt beam="1">  1       21 0.41057132E-01 0.49455226E+03</pdfrwt>
<pdfrwt beam="2">  1       21 0.14315837E+00 0.49455226E+03</pdfrwt>
<totfact> 0.16200833E+03</totfact>
</mgrwt>
</event>
<event>
 4    1  0.4862039E-002  0.4862271E+03  0.7818608E-02  0.1017438E+00
         21   -1    0    0  503  502  0.00000000000E+00  0.00000000000E+00  0.31022897336E+03  0.31022897336E+03  0.00000000000E+00 0. -1.
         21   -1    0    0  501  503 -0.00000000000E+00 -0.00000000000E+00 -0.87326788353E+03  0.87326788353E+03  0.00000000000E+00 0. -1.
    9000007    1    1    2  501    0  0.21863290499E+03  0.16916388439E+03 -0.49267768927E+03  0.69220522422E+03  0.40000000000E+03 0.  1.
   -9000007    1    1    2    0  502 -0.21863290499E+03 -0.16916388439E+03 -0.70361220899E+02  0.49129163267E+03  0.40000000000E+03 0.  1.
<mgrwt>
<rscale>  2 0.48622707E+03</rscale>
<asrwt>0</asrwt>
<pdfrwt beam="1">  1       21 0.47727534E-01 0.48622707E+03</pdfrwt>
<pdfrwt beam="2">  1       21 0.13434891E+00 0.48622707E+03</pdfrwt>
<totfact> 0.14037388E+03</totfact>
</mgrwt>
</event>
<event>
 4    1  0.4862039E-002  0.5499077E+03  0.7818608E-02  0.1001515E+00
         21   -1    0    0  503  502  0.00000000000E+00  0.00000000000E+00  0.17696465548E+04  0.17696465548E+04  0.00000000000E+00 0.  1.
         21   -1    0    0  501  503 -0.00000000000E+00 -0.00000000000E+00 -0.79440066257E+03  0.79440066257E+03  0.00000000000E+00 0.  1.
    9000007    1    1    2  501    0  0.18651761551E+03  0.32803902767E+03 -0.64817586207E+03  0.85001786613E+03  0.40000000000E+03 0.  1.
   -9000007    1    1    2    0  502 -0.18651761551E+03 -0.32803902767E+03  0.16234217543E+04  0.17140293513E+04  0.40000000000E+03 0.  1.
<mgrwt>
<rscale>  2 0.54990765E+03</rscale>
<asrwt>0</asrwt>
<pdfrwt beam="1">  1       21 0.27225332E+00 0.54990765E+03</pdfrwt>
<pdfrwt beam="2">  1       21 0.12221549E+00 0.54990765E+03</pdfrwt>
<totfact> 0.17522856E+01</totfact>
</mgrwt>
</event>
<event>
 4    1  0.4862039E-002  0.4654043E+03  0.7818608E-02  0.1023225E+00
         21   -1    0    0  501  502  0.00000000000E+00  0.00000000000E+00  0.38673166335E+03  0.38673166335E+03  0.00000000000E+00 0. -1.
         21   -1    0    0  502  503 -0.00000000000E+00 -0.00000000000E+00 -0.66238122306E+03  0.66238122306E+03  0.00000000000E+00 0. -1.
    9000007    1    1    2  501    0 -0.81886453898E+02  0.22337361706E+03  0.68321698690E+02  0.47039240921E+03  0.40000000000E+03 0. -1.
   -9000007    1    1    2    0  503  0.81886453898E+02 -0.22337361706E+03 -0.34397125839E+03  0.57872047720E+03  0.40000000000E+03 0. -1.
<mgrwt>
<rscale>  2 0.46540430E+03</rscale>
<asrwt>0</asrwt>
<pdfrwt beam="1">  1       21 0.59497179E-01 0.46540430E+03</pdfrwt>
<pdfrwt beam="2">  1       21 0.10190480E+00 0.46540430E+03</pdfrwt>
<totfact> 0.17712395E+03</totfact>
</mgrwt>
</event>
<event>
 4    1  0.4862039E-002  0.4593398E+03  0.7818608E-02  0.1024973E+00
         21   -1    0    0  501  502  0.00000000000E+00  0.00000000000E+00  0.67470335051E+03  0.67470335051E+03  0.00000000000E+00 0.  1.
         21   -1    0    0  502  503 -0.00000000000E+00 -0.00000000000E+00 -0.32682217586E+03  0.32682217586E+03  0.00000000000E+00 0.  1.
    9000007    1    1    2  501    0  0.11188474738E+03  0.19615010524E+03  0.27796211819E+03  0.53689477519E+03  0.40000000000E+03 0.  1.
   -9000007    1    1    2    0  503 -0.11188474738E+03 -0.19615010524E+03  0.69919056467E+02  0.46463075118E+03  0.40000000000E+03 0.  1.
<mgrwt>
<rscale>  2 0.45933981E+03</rscale>
<asrwt>0</asrwt>
<pdfrwt beam="1">  1       21 0.10380052E+00 0.45933981E+03</pdfrwt>
<pdfrwt beam="2">  1       21 0.50280335E-01 0.45933981E+03</pdfrwt>
<totfact> 0.24401776E+03</totfact>
</mgrwt>
</event>
<event>
 4    1  0.4862039E-002  0.7234014E+03  0.7818608E-02  0.9678029E-01
         21   -1    0    0  501  502  0.00000000000E+00  0.00000000000E+00  0.11817448541E+04  0.11817448541E+04  0.00000000000E+00 0. -1.
         21   -1    0    0  502  503 -0.00000000000E+00 -0.00000000000E+00 -0.44288291456E+03  0.44288291456E+03  0.00000000000E+00 0.  1.
    9000007    1    1    2  501    0  0.49534338139E+03  0.34343061478E+03  0.37848028587E+03  0.81642940874E+03  0.40000000000E+03 0.  1.
   -9000007    1    1    2    0  503 -0.49534338139E+03 -0.34343061478E+03  0.36038165365E+03  0.80819835990E+03  0.40000000000E+03 0.  1.
<mgrwt>
<rscale>  2 0.72340145E+03</rscale>
<asrwt>0</asrwt>
<pdfrwt beam="1">  1       21 0.18180690E+00 0.72340145E+03</pdfrwt>
<pdfrwt beam="2">  1       21 0.68135833E-01 0.72340145E+03</pdfrwt>
<totfact> 0.25563341E+02</totfact>
</mgrwt>
</event>
<event>
 4    1  0.4862039E-002  0.5520388E+03  0.7818608E-02  0.1001023E+00
         21   -1    0    0  501  502  0.00000000000E+00  0.00000000000E+00  0.12841363357E+04  0.12841363357E+04  0.00000000000E+00 0.  1.
         21   -1    0    0  502  503 -0.00000000000E+00 -0.00000000000E+00 -0.59473831966E+03  0.59473831966E+03  0.00000000000E+00 0.  1.
    9000007    1    1    2  501    0 -0.96251578755E+02 -0.36807938622E+03  0.10729739277E+04  0.12066564757E+04  0.40000000000E+03 0.  1.
   -9000007    1    1    2    0  503  0.96251578755E+02  0.36807938622E+03 -0.38357591166E+03  0.67221817960E+03  0.40000000000E+03 0.  1.
<mgrwt>
<rscale>  2 0.55203877E+03</rscale>
<asrwt>0</asrwt>
<pdfrwt beam="1">  1       21 0.19755943E+00 0.55203877E+03</pdfrwt>
<pdfrwt beam="2">  1       21 0.91498204E-01 0.55203877E+03</pdfrwt>
<totfact> 0.10675071E+02</totfact>
</mgrwt>
</event>
<event>
 4    1  0.4862039E-002  0.4154991E+03  0.7818608E-02  0.1038541E+00
         21   -1    0    0  501  502  0.00000000000E+00  0.00000000000E+00  0.26616298892E+03  0.26616298892E+03  0.00000000000E+00 0. -1.
         21   -1    0    0  502  503 -0.00000000000E+00 -0.00000000000E+00 -0.89980414913E+03  0.89980414913E+03  0.00000000000E+00 0. -1.
    9000007    1    1    2  501    0  0.96445340399E+02  0.57773772824E+02 -0.88029372100E+01  0.41559235341E+03  0.40000000000E+03 0. -1.
   -9000007    1    1    2    0  503 -0.96445340399E+02 -0.57773772824E+02 -0.62483822300E+03  0.75037478464E+03  0.40000000000E+03 0. -1.
<mgrwt>
<rscale>  2 0.41549911E+03</rscale>
<asrwt>0</asrwt>
<pdfrwt beam="1">  1       21 0.40948152E-01 0.41549911E+03</pdfrwt>
<pdfrwt beam="2">  1       21 0.13843141E+00 0.41549911E+03</pdfrwt>
<totfact> 0.18382621E+03</totfact>
</mgrwt>
</event>
<event>
 4    1  0.4862039E-002  0.4030368E+03  0.7818608E-02  0.1042733E+00
         21   -1    0    0  501  502  0.00000000000E+00  0.00000000000E+00  0.16699156935E+03  0.16699156935E+03  0.00000000000E+00 0. -1.
         21   -1    0    0  502  503 -0.00000000000E+00 -0.00000000000E+00 -0.15330984908E+04  0.15330984908E+04  0.00000000000E+00 0. -1.
    9000007    1    1    2  501    0  0.16703397704E+02  0.46471816888E+02 -0.16913808214E+03  0.43708846254E+03  0.40000000000E+03 0. -1.
   -9000007    1    1    2    0  503 -0.16703397704E+02 -0.46471816888E+02 -0.11969688393E+04  0.12630015976E+04  0.40000000000E+03 0. -1.
<mgrwt>
<rscale>  2 0.40303676E+03</rscale>
<asrwt>0</asrwt>
<pdfrwt beam="1">  1       21 0.25691010E-01 0.40303676E+03</pdfrwt>
<pdfrwt beam="2">  1       21 0.23586131E+00 0.40303676E+03</pdfrwt>
<totfact> 0.97945035E+02</totfact>
</mgrwt>
</event>
<event>
 4    1  0.4862039E-002  0.4179522E+03  0.7818608E-02  0.1037735E+00
         21   -1    0    0  501  502  0.00000000000E+00  0.00000000000E+00  0.10540156385E+03  0.10540156385E+03  0.00000000000E+00 0. -1.
         21   -1    0    0  502  503 -0.00000000000E+00 -0.00000000000E+00 -0.29065366082E+04  0.29065366082E+04  0.00000000000E+00 0. -1.
    9000007    1    1    2  501    0  0.78950353939E+02  0.91928759950E+02 -0.41327206346E+03  0.58777364157E+03  0.40000000000E+03 0. -1.
   -9000007    1    1    2    0  503 -0.78950353939E+02 -0.91928759950E+02 -0.23878629809E+04  0.24241645305E+04  0.40000000000E+03 0. -1.
<mgrwt>
<rscale>  2 0.41795222E+03</rscale>
<asrwt>0</asrwt>
<pdfrwt beam="1">  1       21 0.16215627E-01 0.41795222E+03</pdfrwt>
<pdfrwt beam="2">  1       21 0.44715943E+00 0.41795222E+03</pdfrwt>
<totfact> 0.11359265E+02</totfact>
</mgrwt>
</event>
<event>
 4    1  0.4862039E-002  0.5976440E+03  0.7818608E-02  0.9910306E-01
         21   -1    0    0  503  502  0.00000000000E+00  0.00000000000E+00  0.84767685200E+03  0.84767685200E+03  0.00000000000E+00 0.  1.
         21   -1    0    0  501  503 -0.00000000000E+00 -0.00000000000E+00 -0.50262392933E+03  0.50262392933E+03  0.00000000000E+00 0.  1.
    9000007    1    1    2  501    0 -0.30543930668E+03 -0.32231229492E+03 -0.98944797747E+02  0.60577921599E+03  0.40000000000E+03 0.  1.
   -9000007    1    1    2    0  502  0.30543930668E+03  0.32231229492E+03  0.44399772042E+03  0.74452156534E+03  0.40000000000E+03 0.  1.
<mgrwt>
<rscale>  2 0.59764403E+03</rscale>
<asrwt>0</asrwt>
<pdfrwt beam="1">  1       21 0.13041182E+00 0.59764403E+03</pdfrwt>
<pdfrwt beam="2">  1       21 0.77326758E-01 0.59764403E+03</pdfrwt>
<totfact> 0.50287174E+02</totfact>
</mgrwt>
</event>
<event>
 4    1  0.4862039E-002  0.4644246E+03  0.7818608E-02  0.1023506E+00
         21   -1    0    0  501  502  0.00000000000E+00  0.00000000000E+00  0.57778016448E+03  0.57778016448E+03  0.00000000000E+00 0. -1.
         21   -1    0    0  502  503 -0.00000000000E+00 -0.00000000000E+00 -0.85418006497E+03  0.85418006497E+03  0.00000000000E+00 0. -1.
    9000007    1    1    2  501    0  0.23580378874E+03 -0.93166185268E+01  0.39900599363E+03  0.61228752161E+03  0.40000000000E+03 0. -1.
   -9000007    1    1    2    0  503 -0.23580378874E+03  0.93166185268E+01 -0.67540589412E+03  0.81967270784E+03  0.40000000000E+03 0. -1.
<mgrwt>
<rscale>  2 0.46442462E+03</rscale>
<asrwt>0</asrwt>
<pdfrwt beam="1">  1       21 0.88889257E-01 0.46442462E+03</pdfrwt>
<pdfrwt beam="2">  1       21 0.13141232E+00 0.46442462E+03</pdfrwt>
<totfact> 0.37496230E+02</totfact>
</mgrwt>
</event>
<event>
 4    1  0.4862039E-002  0.4435320E+03  0.7818608E-02  0.1029669E+00
         21   -1    0    0  503  502  0.00000000000E+00  0.00000000000E+00  0.30724761695E+03  0.30724761695E+03  0.00000000000E+00 0. -1.
         21   -1    0    0  501  503 -0.00000000000E+00 -0.00000000000E+00 -0.11285049275E+04  0.11285049275E+04  0.00000000000E+00 0. -1.
    9000007    1    1    2  501    0 -0.18222985485E+03  0.59269696794E+02 -0.88281505157E+03  0.98796914539E+03  0.40000000000E+03 0. -1.
   -9000007    1    1    2    0  502  0.18222985485E+03 -0.59269696794E+02  0.61557741053E+02  0.44778339902E+03  0.40000000000E+03 0. -1.
<mgrwt>
<rscale>  2 0.44353198E+03</rscale>
<asrwt>0</asrwt>
<pdfrwt beam="1">  1       21 0.47268863E-01 0.44353198E+03</pdfrwt>
<pdfrwt beam="2">  1       21 0.17361615E+00 0.44353198E+03</pdfrwt>
<totfact> 0.72189990E+02</totfact>
</mgrwt>
</event>
<event>
 4    1  0.4862039E-002  0.5079900E+03  0.7818608E-02  0.1011714E+00
         21   -1    0    0  501  502  0.00000000000E+00  0.00000000000E+00  0.16461742547E+04  0.16461742547E+04  0.00000000000E+00 0. -1.
         21   -1    0    0  502  503 -0.00000000000E+00 -0.00000000000E+00 -0.20545813110E+03  0.20545813110E+03  0.00000000000E+00 0.  1.
    9000007    1    1    2  501    0 -0.16002491927E+03  0.26915775700E+03  0.26962403474E+03  0.57510954874E+03  0.40000000000E+03 0.  1.
   -9000007    1    1    2    0  503  0.16002491927E+03 -0.26915775700E+03  0.11710920888E+04  0.12765228370E+04  0.40000000000E+03 0. -1.
<mgrwt>
<rscale>  2 0.50799003E+03</rscale>
<asrwt>0</asrwt>
<pdfrwt beam="1">  1       21 0.25325757E+00 0.50799003E+03</pdfrwt>
<pdfrwt beam="2">  1       21 0.31608944E-01 0.50799003E+03</pdfrwt>
<totfact> 0.48145652E+02</totfact>
</mgrwt>
</event>
<event>
 4    1  0.4862039E-002  0.6216987E+03  0.7818608E-02  0.9861383E-01
         21   -1    0    0  501  502  0.00000000000E+00  0.00000000000E+00  0.36402413194E+03  0.36402413194E+03  0.00000000000E+00 0.  1.
         21   -1    0    0  502  503 -0.00000000000E+00 -0.00000000000E+00 -0.13913088421E+04  0.13913088421E+04  0.00000000000E+00 0. -1.
    9000007    1    1    2  501    0  0.47439716353E+03 -0.38165735191E+02 -0.86500476228E+02  0.62768752138E+03  0.40000000000E+03 0.  1.
   -9000007    1    1    2    0  503 -0.47439716353E+03  0.38165735191E+02 -0.94078423395E+03  0.11276454527E+04  0.40000000000E+03 0. -1.
<mgrwt>
<rscale>  2 0.62169871E+03</rscale>
<asrwt>0</asrwt>
<pdfrwt beam="1">  1       21 0.56003713E-01 0.62169871E+03</pdfrwt>
<pdfrwt beam="2">  1       21 0.21404751E+00 0.62169871E+03</pdfrwt>
<totfact> 0.24655689E+02</totfact>
</mgrwt>
</event>
<event>
 4    1  0.4862039E-002  0.4605346E+03  0.7818608E-02  0.1024626E+00
         21   -1    0    0  503  502  0.00000000000E+00  0.00000000000E+00  0.94871328733E+03  0.94871328733E+03  0.00000000000E+00 0. -1.
         21   -1    0    0  501  503 -0.00000000000E+00 -0.00000000000E+00 -0.27773262533E+03  0.27773262533E+03  0.00000000000E+00 0. -1.
    9000007    1    1    2  501    0  0.14669561835E+03 -0.17484985922E+03  0.64655532010E+02  0.46505098165E+03  0.40000000000E+03 0. -1.
   -9000007    1    1    2    0  502 -0.14669561835E+03  0.17484985922E+03  0.60632512999E+03  0.76139493101E+03  0.40000000000E+03 0. -1.
<mgrwt>
<rscale>  2 0.46053456E+03</rscale>
<asrwt>0</asrwt>
<pdfrwt beam="1">  1       21 0.14595589E+00 0.46053456E+03</pdfrwt>
<pdfrwt beam="2">  1       21 0.42728097E-01 0.46053456E+03</pdfrwt>
<totfact> 0.14342683E+03</totfact>
</mgrwt>
</event>
<event>
 4    1  0.4862039E-002  0.8006062E+03  0.7818608E-02  0.9559140E-01
         21   -1    0    0  503  502  0.00000000000E+00  0.00000000000E+00  0.19470490520E+04  0.19470490520E+04  0.00000000000E+00 0.  1.
         21   -1    0    0  501  503 -0.00000000000E+00 -0.00000000000E+00 -0.51676283707E+03  0.51676283707E+03  0.00000000000E+00 0. -1.
    9000007    1    1    2  501    0  0.67876457833E+03  0.14229849908E+03 -0.27028470939E+02  0.80106226592E+03  0.40000000000E+03 0. -1.
   -9000007    1    1    2    0  502 -0.67876457833E+03 -0.14229849908E+03  0.14573146859E+04  0.16627496232E+04  0.40000000000E+03 0.  1.
<mgrwt>
<rscale>  2 0.80060616E+03</rscale>
<asrwt>0</asrwt>
<pdfrwt beam="1">  1       21 0.29954600E+00 0.80060616E+03</pdfrwt>
<pdfrwt beam="2">  1       21 0.79501976E-01 0.80060616E+03</pdfrwt>
<totfact> 0.30432090E+01</totfact>
</mgrwt>
</event>
<event>
 4    1  0.4862039E-002  0.4926446E+03  0.7818608E-02  0.1015717E+00
         21   -1    0    0  501  502  0.00000000000E+00  0.00000000000E+00  0.11750713475E+04  0.11750713475E+04  0.00000000000E+00 0.  1.
         21   -1    0    0  502  503 -0.00000000000E+00 -0.00000000000E+00 -0.30424800958E+03  0.30424800958E+03  0.00000000000E+00 0.  1.
    9000007    1    1    2  501    0  0.26458160786E+03 -0.11267333095E+03  0.85457584258E+03  0.98640690257E+03  0.40000000000E+03 0.  1.
   -9000007    1    1    2    0  503 -0.26458160786E+03  0.11267333095E+03  0.16247495367E+02  0.49291245453E+03  0.40000000000E+03 0.  1.
<mgrwt>
<rscale>  2 0.49264460E+03</rscale>
<asrwt>0</asrwt>
<pdfrwt beam="1">  1       21 0.18078020E+00 0.49264460E+03</pdfrwt>
<pdfrwt beam="2">  1       21 0.46807387E-01 0.49264460E+03</pdfrwt>
<totfact> 0.64099406E+02</totfact>
</mgrwt>
</event>
<event>
 4    1  0.4862039E-002  0.4385187E+03  0.7818608E-02  0.1031202E+00
         21   -1    0    0  501  502  0.00000000000E+00  0.00000000000E+00  0.29454749366E+03  0.29454749366E+03  0.00000000000E+00 0. -1.
         21   -1    0    0  502  503 -0.00000000000E+00 -0.00000000000E+00 -0.13987741034E+04  0.13987741034E+04  0.00000000000E+00 0. -1.
    9000007    1    1    2  501    0  0.86467323057E+02  0.15755021471E+03  0.66158843019E+02  0.44348129681E+03  0.40000000000E+03 0. -1.
   -9000007    1    1    2    0  503 -0.86467323057E+02 -0.15755021471E+03 -0.11703854528E+04  0.12498403003E+04  0.40000000000E+03 0. -1.
<mgrwt>
<rscale>  2 0.43851872E+03</rscale>
<asrwt>0</asrwt>
<pdfrwt beam="1">  1       21 0.45314999E-01 0.43851872E+03</pdfrwt>
<pdfrwt beam="2">  1       21 0.21519602E+00 0.43851872E+03</pdfrwt>
<totfact> 0.41327519E+02</totfact>
</mgrwt>
</event>
<event>
 4    1  0.4862039E-002  0.5183319E+03  0.7818608E-02  0.1009102E+00
         21   -1    0    0  503  502  0.00000000000E+00  0.00000000000E+00  0.32257261734E+03  0.32257261734E+03  0.00000000000E+00 0. -1.
         21   -1    0    0  501  503 -0.00000000000E+00 -0.00000000000E+00 -0.99157997209E+03  0.99157997209E+03  0.00000000000E+00 0.  1.
    9000007    1    1    2  501    0 -0.29342673416E+03  0.15022886319E+03 -0.59736382596E+03  0.79089285003E+03  0.40000000000E+03 0.  1.
   -9000007    1    1    2    0  502  0.29342673416E+03 -0.15022886319E+03 -0.71643528784E+02  0.52325973940E+03  0.40000000000E+03 0. -1.
<mgrwt>
<rscale>  2 0.51833190E+03</rscale>
<asrwt>0</asrwt>
<pdfrwt beam="1">  1       21 0.49626558E-01 0.51833190E+03</pdfrwt>
<pdfrwt beam="2">  1       21 0.15255076E+00 0.51833190E+03</pdfrwt>
<totfact> 0.90756332E+02</totfact>
</mgrwt>
</event>
<event>
 4    1  0.4862039E-002  0.5095848E+03  0.7818608E-02  0.1011307E+00
         21   -1    0    0  503  502  0.00000000000E+00  0.00000000000E+00  0.15466746679E+03  0.15466746679E+03  0.00000000000E+00 0. -1.
         21   -1    0    0  501  503 -0.00000000000E+00 -0.00000000000E+00 -0.18921975262E+04  0.18921975262E+04  0.00000000000E+00 0. -1.
    9000007    1    1    2  501    0 -0.10410090642E+02 -0.31554441951E+03 -0.12123491333E+04  0.13150920392E+04  0.40000000000E+03 0. -1.
   -9000007    1    1    2    0  502  0.10410090642E+02  0.31554441951E+03 -0.52518092611E+03  0.73177295374E+03  0.40000000000E+03 0. -1.
<mgrwt>
<rscale>  2 0.50958478E+03</rscale>
<asrwt>0</asrwt>
<pdfrwt beam="1">  1       21 0.23794995E-01 0.50958478E+03</pdfrwt>
<pdfrwt beam="2">  1       21 0.29110731E+00 0.50958478E+03</pdfrwt>
<totfact> 0.49537106E+02</totfact>
</mgrwt>
</event>
<event>
 4    1  0.4862039E-002  0.4093870E+03  0.7818608E-02  0.1040577E+00
         21   -1    0    0  501  502  0.00000000000E+00  0.00000000000E+00  0.28458671630E+03  0.28458671630E+03  0.00000000000E+00 0.  1.
         21   -1    0    0  502  503 -0.00000000000E+00 -0.00000000000E+00 -0.67138798383E+03  0.67138798383E+03  0.00000000000E+00 0.  1.
    9000007    1    1    2  501    0 -0.46163899813E+02 -0.73936305173E+02 -0.25874437270E+02  0.41020381443E+03  0.40000000000E+03 0.  1.
   -9000007    1    1    2    0  503  0.46163899813E+02  0.73936305173E+02 -0.36092683026E+03  0.54577088569E+03  0.40000000000E+03 0.  1.
<mgrwt>
<rscale>  2 0.40938696E+03</rscale>
<asrwt>0</asrwt>
<pdfrwt beam="1">  1       21 0.43782571E-01 0.40938696E+03</pdfrwt>
<pdfrwt beam="2">  1       21 0.10329046E+00 0.40938696E+03</pdfrwt>
<totfact> 0.33676782E+03</totfact>
</mgrwt>
</event>
<event>
 4    1  0.4862039E-002  0.7064171E+03  0.7818608E-02  0.9706321E-01
         21   -1    0    0  501  502  0.00000000000E+00  0.00000000000E+00  0.19455124460E+04  0.19455124460E+04  0.00000000000E+00 0.  1.
         21   -1    0    0  502  503 -0.00000000000E+00 -0.00000000000E+00 -0.25673502191E+03  0.25673502191E+03  0.00000000000E+00 0. -1.
    9000007    1    1    2  501    0  0.42106558565E+03  0.40215536764E+03  0.87765967139E+03  0.11266373267E+04  0.40000000000E+03 0. -1.
   -9000007    1    1    2    0  503 -0.42106558565E+03 -0.40215536764E+03  0.81111775272E+03  0.10756101412E+04  0.40000000000E+03 0.  1.
<mgrwt>
<rscale>  2 0.70641713E+03</rscale>
<asrwt>0</asrwt>
<pdfrwt beam="1">  1       21 0.29930960E+00 0.70641713E+03</pdfrwt>
<pdfrwt beam="2">  1       21 0.39497697E-01 0.70641713E+03</pdfrwt>
<totfact> 0.14691286E+02</totfact>
</mgrwt>
</event>
<event>
 4    1  0.4862039E-002  0.4132858E+03  0.7818608E-02  0.1039274E+00
         21   -1    0    0  501  502  0.00000000000E+00  0.00000000000E+00  0.14375884314E+04  0.14375884314E+04  0.00000000000E+00 0.  1.
         21   -1    0    0  502  503 -0.00000000000E+00 -0.00000000000E+00 -0.21707922651E+03  0.21707922651E+03  0.00000000000E+00 0.  1.
    9000007    1    1    2  501    0  0.97095422708E+02 -0.37116869596E+02  0.11668918572E+04  0.12379183291E+04  0.40000000000E+03 0.  1.
   -9000007    1    1    2    0  503 -0.97095422708E+02  0.37116869596E+02  0.53617347739E+02  0.41674932885E+03  0.40000000000E+03 0.  1.
<mgrwt>
<rscale>  2 0.41328584E+03</rscale>
<asrwt>0</asrwt>
<pdfrwt beam="1">  1       21 0.22116745E+00 0.41328584E+03</pdfrwt>
<pdfrwt beam="2">  1       21 0.33396805E-01 0.41328584E+03</pdfrwt>
<totfact> 0.71704159E+02</totfact>
</mgrwt>
</event>
<event>
 4    1  0.4862039E-002  0.4789502E+03  0.7818608E-02  0.1019424E+00
         21   -1    0    0  503  502  0.00000000000E+00  0.00000000000E+00  0.18054634981E+03  0.18054634981E+03  0.00000000000E+00 0. -1.
         21   -1    0    0  501  503 -0.00000000000E+00 -0.00000000000E+00 -0.17732889277E+04  0.17732889277E+04  0.00000000000E+00 0. -1.
    9000007    1    1    2  501    0 -0.21071180396E+03  0.15809435241E+03 -0.13165339343E+04  0.14009478537E+04  0.40000000000E+03 0. -1.
   -9000007    1    1    2    0  502  0.21071180396E+03 -0.15809435241E+03 -0.27620864351E+03  0.55288742375E+03  0.40000000000E+03 0. -1.
<mgrwt>
<rscale>  2 0.47895019E+03</rscale>
<asrwt>0</asrwt>
<pdfrwt beam="1">  1       21 0.27776362E-01 0.47895019E+03</pdfrwt>
<pdfrwt beam="2">  1       21 0.27281368E+00 0.47895019E+03</pdfrwt>
<totfact> 0.47965942E+02</totfact>
</mgrwt>
</event>
<event>
 4    1  0.4862039E-002  0.5391797E+03  0.7818608E-02  0.1004030E+00
         21   -1    0    0  501  502  0.00000000000E+00  0.00000000000E+00  0.30593840616E+03  0.30593840616E+03  0.00000000000E+00 0. -1.
         21   -1    0    0  502  503 -0.00000000000E+00 -0.00000000000E+00 -0.11304584936E+04  0.11304584936E+04  0.00000000000E+00 0. -1.
    9000007    1    1    2  501    0 -0.28672233971E+03 -0.22023863330E+03 -0.69901929808E+03  0.88280390505E+03  0.40000000000E+03 0. -1.
   -9000007    1    1    2    0  503  0.28672233971E+03  0.22023863330E+03 -0.12550078941E+03  0.55359299475E+03  0.40000000000E+03 0. -1.
<mgrwt>
<rscale>  2 0.53917971E+03</rscale>
<asrwt>0</asrwt>
<pdfrwt beam="1">  1       21 0.47067446E-01 0.53917971E+03</pdfrwt>
<pdfrwt beam="2">  1       21 0.17391670E+00 0.53917971E+03</pdfrwt>
<totfact> 0.69636984E+02</totfact>
</mgrwt>
</event>
<event>
 4    1  0.4862039E-002  0.4004611E+03  0.7818608E-02  0.1043620E+00
         21   -1    0    0  501  502  0.00000000000E+00  0.00000000000E+00  0.74286691387E+03  0.74286691387E+03  0.00000000000E+00 0. -1.
         21   -1    0    0  502  503 -0.00000000000E+00 -0.00000000000E+00 -0.27499877285E+03  0.27499877285E+03  0.00000000000E+00 0. -1.
    9000007    1    1    2  501    0  0.14860767553E+02 -0.12175563461E+02  0.46990736833E+03  0.61739940199E+03  0.40000000000E+03 0. -1.
   -9000007    1    1    2    0  503 -0.14860767553E+02  0.12175563461E+02 -0.20392273088E+01  0.40046628473E+03  0.40000000000E+03 0. -1.
<mgrwt>
<rscale>  2 0.40046109E+03</rscale>
<asrwt>0</asrwt>
<pdfrwt beam="1">  1       21 0.11428722E+00 0.40046109E+03</pdfrwt>
<pdfrwt beam="2">  1       21 0.42307504E-01 0.40046109E+03</pdfrwt>
<totfact> 0.28271481E+03</totfact>
</mgrwt>
</event>
<event>
 4    1  0.4862039E-002  0.5406330E+03  0.7818608E-02  0.1003686E+00
         21   -1    0    0  501  502  0.00000000000E+00  0.00000000000E+00  0.19347147398E+04  0.19347147398E+04  0.00000000000E+00 0. -1.
         21   -1    0    0  502  503 -0.00000000000E+00 -0.00000000000E+00 -0.28916933453E+03  0.28916933453E+03  0.00000000000E+00 0. -1.
    9000007    1    1    2  501    0 -0.22638651015E+03  0.28466320371E+03  0.15911887591E+04  0.16805254115E+04  0.40000000000E+03 0. -1.
   -9000007    1    1    2    0  503  0.22638651015E+03 -0.28466320371E+03  0.54356646189E+02  0.54335866286E+03  0.40000000000E+03 0. -1.
<mgrwt>
<rscale>  2 0.54063295E+03</rscale>
<asrwt>0</asrwt>
<pdfrwt beam="1">  1       21 0.29764841E+00 0.54063295E+03</pdfrwt>
<pdfrwt beam="2">  1       21 0.44487591E-01 0.54063295E+03</pdfrwt>
<totfact> 0.12620187E+02</totfact>
</mgrwt>
</event>
<event>
 4    1  0.4862039E-002  0.7221296E+03  0.7818608E-02  0.9680119E-01
         21   -1    0    0  503  502  0.00000000000E+00  0.00000000000E+00  0.67213467469E+03  0.67213467469E+03  0.00000000000E+00 0. -1.
         21   -1    0    0  501  503 -0.00000000000E+00 -0.00000000000E+00 -0.90990940714E+03  0.90990940714E+03  0.00000000000E+00 0.  1.
    9000007    1    1    2  501    0 -0.22847674097E+02 -0.60079043474E+03 -0.42252042753E+03  0.83665684386E+03  0.40000000000E+03 0.  1.
   -9000007    1    1    2    0  502  0.22847674097E+02  0.60079043474E+03  0.18474569508E+03  0.74538723798E+03  0.40000000000E+03 0. -1.
<mgrwt>
<rscale>  2 0.72212960E+03</rscale>
<asrwt>0</asrwt>
<pdfrwt beam="1">  1       21 0.10340533E+00 0.72212960E+03</pdfrwt>
<pdfrwt beam="2">  1       21 0.13998606E+00 0.72212960E+03</pdfrwt>
<totfact> 0.19993580E+02</totfact>
</mgrwt>
</event>
<event>
 4    1  0.4862039E-002  0.4279203E+03  0.7818608E-02  0.1034519E+00
         21   -1    0    0  503  502  0.00000000000E+00  0.00000000000E+00  0.18803371706E+03  0.18803371706E+03  0.00000000000E+00 0.  1.
         21   -1    0    0  501  503 -0.00000000000E+00 -0.00000000000E+00 -0.98663106177E+03  0.98663106177E+03  0.00000000000E+00 0.  1.
    9000007    1    1    2  501    0  0.34967040346E+02 -0.14796305055E+03 -0.46615911747E+03  0.63278754810E+03  0.40000000000E+03 0. -1.
   -9000007    1    1    2    0  502 -0.34967040346E+02  0.14796305055E+03 -0.33243822724E+03  0.54187723072E+03  0.40000000000E+03 0. -1.
<mgrwt>
<rscale>  2 0.42792027E+03</rscale>
<asrwt>0</asrwt>
<pdfrwt beam="1">  1       21 0.28928264E-01 0.42792027E+03</pdfrwt>
<pdfrwt beam="2">  1       21 0.15178939E+00 0.42792027E+03</pdfrwt>
<totfact> 0.28798189E+03</totfact>
</mgrwt>
</event>
<event>
 4    1  0.4862039E-002  0.4991973E+03  0.7818608E-02  0.1013989E+00
         21   -1    0    0  501  502  0.00000000000E+00  0.00000000000E+00  0.31951731197E+03  0.31951731197E+03  0.00000000000E+00 0.  1.
         21   -1    0    0  502  503 -0.00000000000E+00 -0.00000000000E+00 -0.78241039281E+03  0.78241039281E+03  0.00000000000E+00 0.  1.
    9000007    1    1    2  501    0  0.10868941921E+03 -0.27818070820E+03 -0.20036144553E+03  0.53790575858E+03  0.40000000000E+03 0.  1.
   -9000007    1    1    2    0  503 -0.10868941921E+03  0.27818070820E+03 -0.26253163531E+03  0.56402194620E+03  0.40000000000E+03 0.  1.
<mgrwt>
<rscale>  2 0.49919725E+03</rscale>
<asrwt>0</asrwt>
<pdfrwt beam="1">  1       21 0.49156510E-01 0.49919725E+03</pdfrwt>
<pdfrwt beam="2">  1       21 0.12037083E+00 0.49919725E+03</pdfrwt>
<totfact> 0.17441782E+03</totfact>
</mgrwt>
</event>
<event>
 4    1  0.4862039E-002  0.4159423E+03  0.7818608E-02  0.1038395E+00
         21   -1    0    0  503  502  0.00000000000E+00  0.00000000000E+00  0.82307695310E+03  0.82307695310E+03  0.00000000000E+00 0.  1.
         21   -1    0    0  501  503 -0.00000000000E+00 -0.00000000000E+00 -0.81013768069E+03  0.81013768069E+03  0.00000000000E+00 0.  1.
    9000007    1    1    2  501    0  0.11011336609E+03  0.29715747203E+02 -0.69625980751E+03  0.81103988717E+03  0.40000000000E+03 0.  1.
   -9000007    1    1    2    0  502 -0.11011336609E+03 -0.29715747203E+02  0.70919907992E+03  0.82217474662E+03  0.40000000000E+03 0.  1.
<mgrwt>
<rscale>  2 0.41594228E+03</rscale>
<asrwt>0</asrwt>
<pdfrwt beam="1">  1       21 0.12662722E+00 0.41594228E+03</pdfrwt>
<pdfrwt beam="2">  1       21 0.12463657E+00 0.41594228E+03</pdfrwt>
<totfact> 0.18429542E+02</totfact>
</mgrwt>
</event>
<event>
 4    1  0.4862039E-002  0.4325501E+03  0.7818608E-02  0.1033057E+00
         21   -1    0    0  503  502  0.00000000000E+00  0.00000000000E+00  0.12472768210E+03  0.12472768210E+03  0.00000000000E+00 0.  1.
         21   -1    0    0  501  503 -0.00000000000E+00 -0.00000000000E+00 -0.22579859762E+04  0.22579859762E+04  0.00000000000E+00 0. -1.
    9000007    1    1    2  501    0 -0.16236122304E+03  0.27173649747E+02 -0.17568583526E+04  0.18093233114E+04  0.40000000000E+03 0. -1.
   -9000007    1    1    2    0  502  0.16236122304E+03 -0.27173649747E+02 -0.37639994150E+03  0.57339034693E+03  0.40000000000E+03 0.  1.
<mgrwt>
<rscale>  2 0.43255008E+03</rscale>
<asrwt>0</asrwt>
<pdfrwt beam="1">  1       21 0.19188875E-01 0.43255008E+03</pdfrwt>
<pdfrwt beam="2">  1       21 0.34738244E+00 0.43255008E+03</pdfrwt>
<totfact> 0.35651867E+02</totfact>
</mgrwt>
</event>
<event>
 4    1  0.4862039E-002  0.4875262E+03  0.7818608E-02  0.1017087E+00
         21   -1    0    0  501  502  0.00000000000E+00  0.00000000000E+00  0.20160881484E+03  0.20160881484E+03  0.00000000000E+00 0.  1.
         21   -1    0    0  502  503 -0.00000000000E+00 -0.00000000000E+00 -0.13076839224E+04  0.13076839224E+04  0.00000000000E+00 0.  1.
    9000007    1    1    2  501    0 -0.15106962425E+03 -0.23422154177E+03 -0.31623847500E+03  0.58110974443E+03  0.40000000000E+03 0. -1.
   -9000007    1    1    2    0  503  0.15106962425E+03  0.23422154177E+03 -0.78983663254E+03  0.92818299279E+03  0.40000000000E+03 0. -1.
<mgrwt>
<rscale>  2 0.48752617E+03</rscale>
<asrwt>0</asrwt>
<pdfrwt beam="1">  1       21 0.31016740E-01 0.48752617E+03</pdfrwt>
<pdfrwt beam="2">  1       21 0.20118215E+00 0.48752617E+03</pdfrwt>
<totfact> 0.10830059E+03</totfact>
</mgrwt>
</event>
<event>
 4    1  0.4862039E-002  0.4184336E+03  0.7818608E-02  0.1037577E+00
         21   -1    0    0  503  502  0.00000000000E+00  0.00000000000E+00  0.80971624175E+03  0.80971624175E+03  0.00000000000E+00 0. -1.
         21   -1    0    0  501  503 -0.00000000000E+00 -0.00000000000E+00 -0.27375010406E+03  0.27375010406E+03  0.00000000000E+00 0. -1.
    9000007    1    1    2  501    0  0.27760277178E+01  0.12279629971E+03  0.19663917979E+02  0.41889534161E+03  0.40000000000E+03 0. -1.
   -9000007    1    1    2    0  502 -0.27760277178E+01 -0.12279629971E+03  0.51630221970E+03  0.66457100420E+03  0.40000000000E+03 0. -1.
<mgrwt>
<rscale>  2 0.41843355E+03</rscale>
<asrwt>0</asrwt>
<pdfrwt beam="1">  1       21 0.12457173E+00 0.41843355E+03</pdfrwt>
<pdfrwt beam="2">  1       21 0.42115401E-01 0.41843355E+03</pdfrwt>
<totfact> 0.22783635E+03</totfact>
</mgrwt>
</event>
<event>
 4    1  0.4862039E-002  0.4488776E+03  0.7818608E-02  0.1028057E+00
         21   -1    0    0  503  502  0.00000000000E+00  0.00000000000E+00  0.59732274136E+03  0.59732274136E+03  0.00000000000E+00 0. -1.
         21   -1    0    0  501  503 -0.00000000000E+00 -0.00000000000E+00 -0.52711379552E+03  0.52711379552E+03  0.00000000000E+00 0. -1.
    9000007    1    1    2  501    0  0.63236513300E+02 -0.19362916233E+03 -0.30225239008E+03  0.54115396739E+03  0.40000000000E+03 0. -1.
   -9000007    1    1    2    0  502 -0.63236513300E+02  0.19362916233E+03  0.37246133592E+03  0.58328256949E+03  0.40000000000E+03 0. -1.
<mgrwt>
<rscale>  2 0.44887761E+03</rscale>
<asrwt>0</asrwt>
<pdfrwt beam="1">  1       21 0.91895807E-01 0.44887761E+03</pdfrwt>
<pdfrwt beam="2">  1       21 0.81094430E-01 0.44887761E+03</pdfrwt>
<totfact> 0.11390893E+03</totfact>
</mgrwt>
</event>
<event>
 4    1  0.4862039E-002  0.5305598E+03  0.7818608E-02  0.1006096E+00
         21   -1    0    0  501  502  0.00000000000E+00  0.00000000000E+00  0.58499307218E+03  0.58499307218E+03  0.00000000000E+00 0.  1.
         21   -1    0    0  502  503 -0.00000000000E+00 -0.00000000000E+00 -0.57382588293E+03  0.57382588293E+03  0.00000000000E+00 0. -1.
    9000007    1    1    2  501    0  0.34617967401E+03 -0.40661477212E+02  0.23838281420E+03  0.58165289352E+03  0.40000000000E+03 0. -1.
   -9000007    1    1    2    0  503 -0.34617967401E+03  0.40661477212E+02 -0.22721562495E+03  0.57716606159E+03  0.40000000000E+03 0. -1.
<mgrwt>
<rscale>  2 0.53055982E+03</rscale>
<asrwt>0</asrwt>
<pdfrwt beam="1">  1       21 0.89998935E-01 0.53055982E+03</pdfrwt>
<pdfrwt beam="2">  1       21 0.88280904E-01 0.53055982E+03</pdfrwt>
<totfact> 0.95153057E+02</totfact>
</mgrwt>
</event>
<event>
 4    1  0.4862039E-002  0.5418593E+03  0.7818608E-02  0.1003396E+00
         21   -1    0    0  503  502  0.00000000000E+00  0.00000000000E+00  0.14115391770E+03  0.14115391770E+03  0.00000000000E+00 0. -1.
         21   -1    0    0  501  503 -0.00000000000E+00 -0.00000000000E+00 -0.22050172413E+04  0.22050172413E+04  0.00000000000E+00 0.  1.
    9000007    1    1    2  501    0  0.23383495658E+03  0.28094971785E+03 -0.75269749799E+03  0.92745083663E+03  0.40000000000E+03 0.  1.
   -9000007    1    1    2    0  502 -0.23383495658E+03 -0.28094971785E+03 -0.13111658256E+04  0.14187203224E+04  0.40000000000E+03 0. -1.
<mgrwt>
<rscale>  2 0.54185933E+03</rscale>
<asrwt>0</asrwt>
<pdfrwt beam="1">  1       21 0.21715986E-01 0.54185933E+03</pdfrwt>
<pdfrwt beam="2">  1       21 0.33923344E+00 0.54185933E+03</pdfrwt>
<totfact> 0.29670149E+02</totfact>
</mgrwt>
</event>
<event>
 4    1  0.4862039E-002  0.4463899E+03  0.7818608E-02  0.1028804E+00
         21   -1    0    0  501  502  0.00000000000E+00  0.00000000000E+00  0.90960413319E+03  0.90960413319E+03  0.00000000000E+00 0. -1.
         21   -1    0    0  502  503 -0.00000000000E+00 -0.00000000000E+00 -0.36381328152E+03  0.36381328152E+03  0.00000000000E+00 0. -1.
    9000007    1    1    2  501    0  0.18442792680E+03 -0.72458636161E+02  0.67450658711E+03  0.80884055919E+03  0.40000000000E+03 0. -1.
   -9000007    1    1    2    0  503 -0.18442792680E+03  0.72458636161E+02 -0.12871573544E+03  0.46457685552E+03  0.40000000000E+03 0. -1.
<mgrwt>
<rscale>  2 0.44638987E+03</rscale>
<asrwt>0</asrwt>
<pdfrwt beam="1">  1       21 0.13993910E+00 0.44638987E+03</pdfrwt>
<pdfrwt beam="2">  1       21 0.55971274E-01 0.44638987E+03</pdfrwt>
<totfact> 0.91085166E+02</totfact>
</mgrwt>
</event>
<event>
 4    1  0.4862039E-002  0.5771850E+03  0.7818608E-02  0.9953904E-01
         21   -1    0    0  503  502  0.00000000000E+00  0.00000000000E+00  0.49493011503E+03  0.49493011503E+03  0.00000000000E+00 0.  1.
         21   -1    0    0  501  503 -0.00000000000E+00 -0.00000000000E+00 -0.93891744446E+03  0.93891744446E+03  0.00000000000E+00 0. -1.
    9000007    1    1    2  501    0  0.66804118862E+02 -0.41070645242E+03  0.15946068382E+03  0.59880738976E+03  0.40000000000E+03 0.  1.
   -9000007    1    1    2    0  502 -0.66804118862E+02  0.41070645242E+03 -0.60344801325E+03  0.83504016972E+03  0.40000000000E+03 0. -1.
<mgrwt>
<rscale>  2 0.57718505E+03</rscale>
<asrwt>0</asrwt>
<pdfrwt beam="1">  1       21 0.76143096E-01 0.57718505E+03</pdfrwt>
<pdfrwt beam="2">  1       21 0.14444884E+00 0.57718505E+03</pdfrwt>
<totfact> 0.39979110E+02</totfact>
</mgrwt>
</event>
<event>
 4    1  0.4862039E-002  0.4349898E+03  0.7818608E-02  0.1032295E+00
         21   -1    0    0  503  502  0.00000000000E+00  0.00000000000E+00  0.10576647175E+04  0.10576647175E+04  0.00000000000E+00 0.  1.
         21   -1    0    0  501  503 -0.00000000000E+00 -0.00000000000E+00 -0.23272482078E+03  0.23272482078E+03  0.00000000000E+00 0.  1.
    9000007    1    1    2  501    0  0.14080871199E+03 -0.96896800107E+02  0.10218458082E+03  0.44683080892E+03  0.40000000000E+03 0.  1.
   -9000007    1    1    2    0  502 -0.14080871199E+03  0.96896800107E+02  0.72275531594E+03  0.84355872941E+03  0.40000000000E+03 0.  1.
<mgrwt>
<rscale>  2 0.43498975E+03</rscale>
<asrwt>0</asrwt>
<pdfrwt beam="1">  1       21 0.16271765E+00 0.43498975E+03</pdfrwt>
<pdfrwt beam="2">  1       21 0.35803819E-01 0.43498975E+03</pdfrwt>
<totfact> 0.15464553E+03</totfact>
</mgrwt>
</event>
<event>
 4    1  0.4862039E-002  0.4557517E+03  0.7818608E-02  0.1026021E+00
         21   -1    0    0  501  502  0.00000000000E+00  0.00000000000E+00  0.17147204524E+03  0.17147204524E+03  0.00000000000E+00 0.  1.
         21   -1    0    0  502  503 -0.00000000000E+00 -0.00000000000E+00 -0.13492504359E+04  0.13492504359E+04  0.00000000000E+00 0. -1.
    9000007    1    1    2  501    0 -0.46458727755E+02 -0.21342719730E+03 -0.34578928998E+03  0.57208374824E+03  0.40000000000E+03 0.  1.
   -9000007    1    1    2    0  503  0.46458727755E+02  0.21342719730E+03 -0.83198910070E+03  0.94863873293E+03  0.40000000000E+03 0. -1.
<mgrwt>
<rscale>  2 0.45575167E+03</rscale>
<asrwt>0</asrwt>
<pdfrwt beam="1">  1       21 0.26380314E-01 0.45575167E+03</pdfrwt>
<pdfrwt beam="2">  1       21 0.20757700E+00 0.45575167E+03</pdfrwt>
<totfact> 0.13722774E+03</totfact>
</mgrwt>
</event>
<event>
 4    1  0.4862039E-002  0.4224680E+03  0.7818608E-02  0.1036266E+00
         21   -1    0    0  501  502  0.00000000000E+00  0.00000000000E+00  0.42610441952E+03  0.42610441952E+03  0.00000000000E+00 0.  1.
         21   -1    0    0  502  503 -0.00000000000E+00 -0.00000000000E+00 -0.42742258178E+03  0.42742258178E+03  0.00000000000E+00 0.  1.
    9000007    1    1    2  501    0 -0.12928025515E+03 -0.42021475683E+02  0.59735215040E+02  0.42667022946E+03  0.40000000000E+03 0.  1.
   -9000007    1    1    2    0  503  0.12928025515E+03  0.42021475683E+02 -0.61053377294E+02  0.42685677184E+03  0.40000000000E+03 0.  1.
<mgrwt>
<rscale>  2 0.42246797E+03</rscale>
<asrwt>0</asrwt>
<pdfrwt beam="1">  1       21 0.65554526E-01 0.42246797E+03</pdfrwt>
<pdfrwt beam="2">  1       21 0.65757320E-01 0.42246797E+03</pdfrwt>
<totfact> 0.40217873E+03</totfact>
</mgrwt>
</event>
<event>
 4    1  0.4862039E-002  0.4410030E+03  0.7818608E-02  0.1030440E+00
         21   -1    0    0  503  502  0.00000000000E+00  0.00000000000E+00  0.68267002422E+03  0.68267002422E+03  0.00000000000E+00 0. -1.
         21   -1    0    0  501  503 -0.00000000000E+00 -0.00000000000E+00 -0.28703173647E+03  0.28703173647E+03  0.00000000000E+00 0. -1.
    9000007    1    1    2  501    0 -0.96603534419E+02  0.15859190644E+03  0.23973292336E+03  0.50195170106E+03  0.40000000000E+03 0. -1.
   -9000007    1    1    2    0  502  0.96603534419E+02 -0.15859190644E+03  0.15590536439E+03  0.46775005964E+03  0.40000000000E+03 0. -1.
<mgrwt>
<rscale>  2 0.44100299E+03</rscale>
<asrwt>0</asrwt>
<pdfrwt beam="1">  1       21 0.10502616E+00 0.44100299E+03</pdfrwt>
<pdfrwt beam="2">  1       21 0.44158729E-01 0.44100299E+03</pdfrwt>
<totfact> 0.31381921E+03</totfact>
</mgrwt>
</event>
<event>
 4    1  0.4862039E-002  0.4287480E+03  0.7818608E-02  0.1034256E+00
         21   -1    0    0  503  502  0.00000000000E+00  0.00000000000E+00  0.13388357583E+03  0.13388357583E+03  0.00000000000E+00 0.  1.
         21   -1    0    0  501  503 -0.00000000000E+00 -0.00000000000E+00 -0.16553176364E+04  0.16553176364E+04  0.00000000000E+00 0.  1.
    9000007    1    1    2  501    0  0.76565864080E+02  0.13402425165E+03 -0.39127856342E+03  0.58045132937E+03  0.40000000000E+03 0.  1.
   -9000007    1    1    2    0  502 -0.76565864080E+02 -0.13402425165E+03 -0.11301554972E+04  0.12087498829E+04  0.40000000000E+03 0.  1.
<mgrwt>
<rscale>  2 0.42874798E+03</rscale>
<asrwt>0</asrwt>
<pdfrwt beam="1">  1       21 0.20597474E-01 0.42874798E+03</pdfrwt>
<pdfrwt beam="2">  1       21 0.25466424E+00 0.42874798E+03</pdfrwt>
<totfact> 0.11330611E+03</totfact>
</mgrwt>
</event>
<event>
 4    1  0.4862039E-002  0.4005617E+03  0.7818608E-02  0.1043585E+00
         21   -1    0    0  501  502  0.00000000000E+00  0.00000000000E+00  0.45591802768E+03  0.45591802768E+03  0.00000000000E+00 0.  1.
         21   -1    0    0  502  503 -0.00000000000E+00 -0.00000000000E+00 -0.40519638437E+03  0.40519638437E+03  0.00000000000E+00 0.  1.
    9000007    1    1    2  501    0 -0.18466819353E+02 -0.10425352548E+02  0.18147353868E+03  0.43975260844E+03  0.40000000000E+03 0.  1.
   -9000007    1    1    2    0  503  0.18466819353E+02  0.10425352548E+02 -0.13075189537E+03  0.42136180360E+03  0.40000000000E+03 0.  1.
<mgrwt>
<rscale>  2 0.40056174E+03</rscale>
<asrwt>0</asrwt>
<pdfrwt beam="1">  1       21 0.70141235E-01 0.40056174E+03</pdfrwt>
<pdfrwt beam="2">  1       21 0.62337906E-01 0.40056174E+03</pdfrwt>
<totfact> 0.39232092E+03</totfact>
</mgrwt>
</event>
<event>
 4    1  0.4862039E-002  0.4181097E+03  0.7818608E-02  0.1037683E+00
         21   -1    0    0  501  502  0.00000000000E+00  0.00000000000E+00  0.77278223378E+03  0.77278223378E+03  0.00000000000E+00 0.  1.
         21   -1    0    0  502  503 -0.00000000000E+00 -0.00000000000E+00 -0.37814213995E+03  0.37814213995E+03  0.00000000000E+00 0. -1.
    9000007    1    1    2  501    0  0.38972006512E+00  0.12171932561E+03  0.56207855462E+03  0.70053411600E+03  0.40000000000E+03 0.  1.
   -9000007    1    1    2    0  503 -0.38972006512E+00 -0.12171932561E+03 -0.16743846079E+03  0.45039025773E+03  0.40000000000E+03 0. -1.
<mgrwt>
<rscale>  2 0.41810973E+03</rscale>
<asrwt>0</asrwt>
<pdfrwt beam="1">  1       21 0.11888957E+00 0.41810973E+03</pdfrwt>
<pdfrwt beam="2">  1       21 0.58175714E-01 0.41810973E+03</pdfrwt>
<totfact> 0.12933556E+03</totfact>
</mgrwt>
</event>
<event>
 4    1  0.4862039E-002  0.4401127E+03  0.7818608E-02  0.1030712E+00
         21   -1    0    0  501  502  0.00000000000E+00  0.00000000000E+00  0.19217640528E+03  0.19217640528E+03  0.00000000000E+00 0.  1.
         21   -1    0    0  502  503 -0.00000000000E+00 -0.00000000000E+00 -0.13003171846E+04  0.13003171846E+04  0.00000000000E+00 0.  1.
    9000007    1    1    2  501    0 -0.17488957579E+03  0.55792531267E+02 -0.90793864792E+03  0.10089855096E+04  0.40000000000E+03 0.  1.
   -9000007    1    1    2    0  503  0.17488957579E+03 -0.55792531267E+02 -0.20020213144E+03  0.48350808028E+03  0.40000000000E+03 0.  1.
<mgrwt>
<rscale>  2 0.44011268E+03</rscale>
<asrwt>0</asrwt>
<pdfrwt beam="1">  1       21 0.29565599E-01 0.44011268E+03</pdfrwt>
<pdfrwt beam="2">  1       21 0.20004881E+00 0.44011268E+03</pdfrwt>
<totfact> 0.12379471E+03</totfact>
</mgrwt>
</event>
<event>
 4    1  0.4862039E-002  0.4199999E+03  0.7818608E-02  0.1037066E+00
         21   -1    0    0  501  502  0.00000000000E+00  0.00000000000E+00  0.20246084845E+04  0.20246084845E+04  0.00000000000E+00 0. -1.
         21   -1    0    0  502  503 -0.00000000000E+00 -0.00000000000E+00 -0.13447354015E+03  0.13447354015E+03  0.00000000000E+00 0. -1.
    9000007    1    1    2  501    0  0.78090108580E+01 -0.12782394584E+03  0.15856286234E+04  0.16403103588E+04  0.40000000000E+03 0. -1.
   -9000007    1    1    2    0  503 -0.78090108580E+01  0.12782394584E+03  0.30450632089E+03  0.51877166580E+03  0.40000000000E+03 0. -1.
<mgrwt>
<rscale>  2 0.41999993E+03</rscale>
<asrwt>0</asrwt>
<pdfrwt beam="1">  1       21 0.31147821E+00 0.41999993E+03</pdfrwt>
<pdfrwt beam="2">  1       21 0.20688238E-01 0.41999993E+03</pdfrwt>
<totfact> 0.51360062E+02</totfact>
</mgrwt>
</event>
<event>
 4    1  0.4862039E-002  0.4962130E+03  0.7818608E-02  0.1014772E+00
         21   -1    0    0  503  502  0.00000000000E+00  0.00000000000E+00  0.38941760106E+03  0.38941760106E+03  0.00000000000E+00 0. -1.
         21   -1    0    0  501  503 -0.00000000000E+00 -0.00000000000E+00 -0.70453390661E+03  0.70453390661E+03  0.00000000000E+00 0. -1.
    9000007    1    1    2  501    0 -0.25594318922E+01 -0.29363370440E+03  0.17587289678E+02  0.49652453697E+03  0.40000000000E+03 0. -1.
   -9000007    1    1    2    0  502  0.25594318922E+01  0.29363370440E+03 -0.33270359523E+03  0.59742697071E+03  0.40000000000E+03 0. -1.
<mgrwt>
<rscale>  2 0.49621296E+03</rscale>
<asrwt>0</asrwt>
<pdfrwt beam="1">  1       21 0.59910400E-01 0.49621296E+03</pdfrwt>
<pdfrwt beam="2">  1       21 0.10838983E+00 0.49621296E+03</pdfrwt>
<totfact> 0.14815786E+03</totfact>
</mgrwt>
</event>
<event>
 4    1  0.4862039E-002  0.4860287E+03  0.7818608E-02  0.1017491E+00
         21   -1    0    0  501  502  0.00000000000E+00  0.00000000000E+00  0.64410318108E+03  0.64410318108E+03  0.00000000000E+00 0.  1.
         21   -1    0    0  502  503 -0.00000000000E+00 -0.00000000000E+00 -0.11521636976E+04  0.11521636976E+04  0.00000000000E+00 0.  1.
    9000007    1    1    2  501    0 -0.24628289723E+03  0.12477447070E+03  0.48750771877E+03  0.68839502458E+03  0.40000000000E+03 0.  1.
   -9000007    1    1    2    0  503  0.24628289723E+03 -0.12477447070E+03 -0.99556823532E+03  0.11078718541E+04  0.40000000000E+03 0.  1.
<mgrwt>
<rscale>  2 0.48602874E+03</rscale>
<asrwt>0</asrwt>
<pdfrwt beam="1">  1       21 0.99092798E-01 0.48602874E+03</pdfrwt>
<pdfrwt beam="2">  1       21 0.17725595E+00 0.48602874E+03</pdfrwt>
<totfact> 0.12576315E+02</totfact>
</mgrwt>
</event>
<event>
 4    1  0.4862039E-002  0.5732774E+03  0.7818608E-02  0.9962452E-01
         21   -1    0    0  503  502  0.00000000000E+00  0.00000000000E+00  0.12291899605E+04  0.12291899605E+04  0.00000000000E+00 0. -1.
         21   -1    0    0  501  503 -0.00000000000E+00 -0.00000000000E+00 -0.38968402178E+03  0.38968402178E+03  0.00000000000E+00 0.  1.
    9000007    1    1    2  501    0 -0.22292719125E+02  0.41006098936E+03  0.87324232200E+03  0.10446047737E+04  0.40000000000E+03 0. -1.
   -9000007    1    1    2    0  502  0.22292719125E+02 -0.41006098936E+03 -0.33736383305E+02  0.57426920854E+03  0.40000000000E+03 0.  1.
<mgrwt>
<rscale>  2 0.57327740E+03</rscale>
<asrwt>0</asrwt>
<pdfrwt beam="1">  1       21 0.18910615E+00 0.57327740E+03</pdfrwt>
<pdfrwt beam="2">  1       21 0.59951388E-01 0.57327740E+03</pdfrwt>
<totfact> 0.31835044E+02</totfact>
</mgrwt>
</event>
<event>
 4    1  0.4862039E-002  0.5759695E+03  0.7818608E-02  0.9956555E-01
         21   -1    0    0  501  502  0.00000000000E+00  0.00000000000E+00  0.66048619054E+03  0.66048619054E+03  0.00000000000E+00 0. -1.
         21   -1    0    0  502  503 -0.00000000000E+00 -0.00000000000E+00 -0.55735625699E+03  0.55735625699E+03  0.00000000000E+00 0.  1.
    9000007    1    1    2  501    0 -0.56900276558E+02 -0.41049140007E+03  0.24300187008E+03  0.62513257783E+03  0.40000000000E+03 0.  1.
   -9000007    1    1    2    0  503  0.56900276558E+02  0.41049140007E+03 -0.13987193653E+03  0.59270986970E+03  0.40000000000E+03 0.  1.
<mgrwt>
<rscale>  2 0.57596947E+03</rscale>
<asrwt>0</asrwt>
<pdfrwt beam="1">  1       21 0.10161326E+00 0.57596947E+03</pdfrwt>
<pdfrwt beam="2">  1       21 0.85747116E-01 0.57596947E+03</pdfrwt>
<totfact> 0.74876881E+02</totfact>
</mgrwt>
</event>
<event>
 4    1  0.4862039E-002  0.4992431E+03  0.7818608E-02  0.1013977E+00
         21   -1    0    0  501  502  0.00000000000E+00  0.00000000000E+00  0.13196656594E+04  0.13196656594E+04  0.00000000000E+00 0. -1.
         21   -1    0    0  502  503 -0.00000000000E+00 -0.00000000000E+00 -0.50523349093E+03  0.50523349093E+03  0.00000000000E+00 0.  1.
    9000007    1    1    2  501    0 -0.27031900747E+03  0.12716652655E+03  0.11292486726E+04  0.12346846787E+04  0.40000000000E+03 0. -1.
   -9000007    1    1    2    0  503  0.27031900747E+03 -0.12716652655E+03 -0.31481650411E+03  0.59021447164E+03  0.40000000000E+03 0.  1.
<mgrwt>
<rscale>  2 0.49924312E+03</rscale>
<asrwt>0</asrwt>
<pdfrwt beam="1">  1       21 0.20302549E+00 0.49924312E+03</pdfrwt>
<pdfrwt beam="2">  1       21 0.77728230E-01 0.49924312E+03</pdfrwt>
<totfact> 0.14743649E+02</totfact>
</mgrwt>
</event>
<event>
 4    1  0.4862039E-002  0.4009703E+03  0.7818608E-02  0.1043444E+00
         21   -1    0    0  501  502  0.00000000000E+00  0.00000000000E+00  0.11190733779E+03  0.11190733779E+03  0.00000000000E+00 0. -1.
         21   -1    0    0  502  503 -0.00000000000E+00 -0.00000000000E+00 -0.19153068752E+04  0.19153068752E+04  0.00000000000E+00 0. -1.
    9000007    1    1    2  501    0  0.24555178968E+02  0.13198793053E+02 -0.39501206577E+03  0.56286028200E+03  0.40000000000E+03 0. -1.
   -9000007    1    1    2    0  503 -0.24555178968E+02 -0.13198793053E+02 -0.14083874717E+04  0.14643539310E+04  0.40000000000E+03 0. -1.
<mgrwt>
<rscale>  2 0.40097028E+03</rscale>
<asrwt>0</asrwt>
<pdfrwt beam="1">  1       21 0.17216513E-01 0.40097028E+03</pdfrwt>
<pdfrwt beam="2">  1       21 0.29466260E+00 0.40097028E+03</pdfrwt>
<totfact> 0.92719056E+02</totfact>
</mgrwt>
</event>
<event>
 4    1  0.4862039E-002  0.4179630E+03  0.7818608E-02  0.1037731E+00
         21   -1    0    0  503  502  0.00000000000E+00  0.00000000000E+00  0.80839086702E+03  0.80839086702E+03  0.00000000000E+00 0. -1.
         21   -1    0    0  501  503 -0.00000000000E+00 -0.00000000000E+00 -0.28271186759E+03  0.28271186759E+03  0.00000000000E+00 0. -1.
    9000007    1    1    2  501    0 -0.52180237138E+02  0.10940874999E+03 -0.19741088531E+01  0.41796764089E+03  0.40000000000E+03 0. -1.
   -9000007    1    1    2    0  502  0.52180237138E+02 -0.10940874999E+03  0.52765310828E+03  0.67313509372E+03  0.40000000000E+03 0. -1.
<mgrwt>
<rscale>  2 0.41796298E+03</rscale>
<asrwt>0</asrwt>
<pdfrwt beam="1">  1       21 0.12436782E+00 0.41796298E+03</pdfrwt>
<pdfrwt beam="2">  1       21 0.43494134E-01 0.41796298E+03</pdfrwt>
<totfact> 0.21403088E+03</totfact>
</mgrwt>
</event>
<event>
 4    1  0.4862039E-002  0.6285394E+03  0.7818608E-02  0.9847903E-01
         21   -1    0    0  501  502  0.00000000000E+00  0.00000000000E+00  0.12908446018E+04  0.12908446018E+04  0.00000000000E+00 0.  1.
         21   -1    0    0  502  503 -0.00000000000E+00 -0.00000000000E+00 -0.40284855311E+03  0.40284855311E+03  0.00000000000E+00 0. -1.
    9000007    1    1    2  501    0  0.47341855669E+03 -0.10457863730E+03  0.85911481232E+03  0.10644905269E+04  0.40000000000E+03 0.  1.
   -9000007    1    1    2    0  503 -0.47341855669E+03  0.10457863730E+03  0.28881236340E+02  0.62920262794E+03  0.40000000000E+03 0. -1.
<mgrwt>
<rscale>  2 0.62853943E+03</rscale>
<asrwt>0</asrwt>
<pdfrwt beam="1">  1       21 0.19859148E+00 0.62853943E+03</pdfrwt>
<pdfrwt beam="2">  1       21 0.61976701E-01 0.62853943E+03</pdfrwt>
<totfact> 0.24944344E+02</totfact>
</mgrwt>
</event>
<event>
 4    1  0.4862039E-002  0.4745338E+03  0.7818608E-02  0.1020648E+00
         21   -1    0    0  503  502  0.00000000000E+00  0.00000000000E+00  0.31531080246E+03  0.31531080246E+03  0.00000000000E+00 0. -1.
         21   -1    0    0  501  503 -0.00000000000E+00 -0.00000000000E+00 -0.12763600872E+04  0.12763600872E+04  0.00000000000E+00 0.  1.
    9000007    1    1    2  501    0  0.15500962079E+02 -0.25483733050E+03 -0.10087048786E+04  0.11147501410E+04  0.40000000000E+03 0.  1.
   -9000007    1    1    2    0  502 -0.15500962079E+02  0.25483733050E+03  0.47655593841E+02  0.47692074862E+03  0.40000000000E+03 0. -1.
<mgrwt>
<rscale>  2 0.47453382E+03</rscale>
<asrwt>0</asrwt>
<pdfrwt beam="1">  1       21 0.48509354E-01 0.47453382E+03</pdfrwt>
<pdfrwt beam="2">  1       21 0.19636309E+00 0.47453382E+03</pdfrwt>
<totfact> 0.46792634E+02</totfact>
</mgrwt>
</event>
<event>
 4    1  0.4862039E-002  0.4706363E+03  0.7818608E-02  0.1021741E+00
         21   -1    0    0  501  502  0.00000000000E+00  0.00000000000E+00  0.34837618460E+03  0.34837618460E+03  0.00000000000E+00 0. -1.
         21   -1    0    0  502  503 -0.00000000000E+00 -0.00000000000E+00 -0.63582139734E+03  0.63582139734E+03  0.00000000000E+00 0.  1.
    9000007    1    1    2  501    0  0.19707913711E+03 -0.15052691260E+03 -0.14105793825E+03  0.49132054674E+03  0.40000000000E+03 0.  1.
   -9000007    1    1    2    0  503 -0.19707913711E+03  0.15052691260E+03 -0.14638727449E+03  0.49287703520E+03  0.40000000000E+03 0. -1.
<mgrwt>
<rscale>  2 0.47063631E+03</rscale>
<asrwt>0</asrwt>
<pdfrwt beam="1">  1       21 0.53596336E-01 0.47063631E+03</pdfrwt>
<pdfrwt beam="2">  1       21 0.97818676E-01 0.47063631E+03</pdfrwt>
<totfact> 0.24498668E+03</totfact>
</mgrwt>
</event>
<event>
 4    1  0.4862039E-002  0.4765408E+03  0.7818608E-02  0.1020090E+00
         21   -1    0    0  501  502  0.00000000000E+00  0.00000000000E+00  0.22461510729E+03  0.22461510729E+03  0.00000000000E+00 0.  1.
         21   -1    0    0  502  503 -0.00000000000E+00 -0.00000000000E+00 -0.10230538851E+04  0.10230538851E+04  0.00000000000E+00 0.  1.
    9000007    1    1    2  501    0 -0.25862574262E+03  0.14277353839E+02 -0.33157019035E+03  0.58054277078E+03  0.40000000000E+03 0.  1.
   -9000007    1    1    2    0  503  0.25862574262E+03 -0.14277353839E+02 -0.46686858742E+03  0.66712622157E+03  0.40000000000E+03 0.  1.
<mgrwt>
<rscale>  2 0.47654078E+03</rscale>
<asrwt>0</asrwt>
<pdfrwt beam="1">  1       21 0.34556171E-01 0.47654078E+03</pdfrwt>
<pdfrwt beam="2">  1       21 0.15739290E+00 0.47654078E+03</pdfrwt>
<totfact> 0.17926466E+03</totfact>
</mgrwt>
</event>
<event>
 4    1  0.4862039E-002  0.4544202E+03  0.7818608E-02  0.1026412E+00
         21   -1    0    0  501  502  0.00000000000E+00  0.00000000000E+00  0.44534424801E+03  0.44534424801E+03  0.00000000000E+00 0. -1.
         21   -1    0    0  502  503 -0.00000000000E+00 -0.00000000000E+00 -0.14737403977E+04  0.14737403977E+04  0.00000000000E+00 0. -1.
    9000007    1    1    2  501    0 -0.21281201583E+03  0.34766695057E+02  0.28017971373E+03  0.53385236644E+03  0.40000000000E+03 0. -1.
   -9000007    1    1    2    0  503  0.21281201583E+03 -0.34766695057E+02 -0.13085758634E+04  0.13852322792E+04  0.40000000000E+03 0. -1.
<mgrwt>
<rscale>  2 0.45442015E+03</rscale>
<asrwt>0</asrwt>
<pdfrwt beam="1">  1       21 0.68514499E-01 0.45442015E+03</pdfrwt>
<pdfrwt beam="2">  1       21 0.22672929E+00 0.45442015E+03</pdfrwt>
<totfact> 0.14125991E+02</totfact>
</mgrwt>
</event>
<event>
 4    1  0.4862039E-002  0.4060349E+03  0.7818608E-02  0.1041710E+00
         21   -1    0    0  503  502  0.00000000000E+00  0.00000000000E+00  0.62073155397E+03  0.62073155397E+03  0.00000000000E+00 0. -1.
         21   -1    0    0  501  503 -0.00000000000E+00 -0.00000000000E+00 -0.31870105164E+03  0.31870105164E+03  0.00000000000E+00 0. -1.
    9000007    1    1    2  501    0 -0.68009037521E+02  0.15464399070E+02 -0.40722716982E+02  0.40807195015E+03  0.40000000000E+03 0. -1.
   -9000007    1    1    2    0  502  0.68009037521E+02 -0.15464399070E+02  0.34275321930E+03  0.53136065546E+03  0.40000000000E+03 0. -1.
<mgrwt>
<rscale>  2 0.40603495E+03</rscale>
<asrwt>0</asrwt>
<pdfrwt beam="1">  1       21 0.95497162E-01 0.40603495E+03</pdfrwt>
<pdfrwt beam="2">  1       21 0.49030931E-01 0.40603495E+03</pdfrwt>
<totfact> 0.32146396E+03</totfact>
</mgrwt>
</event>
<event>
 4    1  0.4862039E-002  0.4002212E+03  0.7818608E-02  0.1043703E+00
         21   -1    0    0  501  502  0.00000000000E+00  0.00000000000E+00  0.58418344264E+03  0.58418344264E+03  0.00000000000E+00 0.  1.
         21   -1    0    0  502  503 -0.00000000000E+00 -0.00000000000E+00 -0.31546368357E+03  0.31546368357E+03  0.00000000000E+00 0.  1.
    9000007    1    1    2  501    0  0.51175428408E+01 -0.12280333404E+02  0.29706697548E+03  0.49842329777E+03  0.40000000000E+03 0.  1.
   -9000007    1    1    2    0  503 -0.51175428408E+01  0.12280333404E+02 -0.28347216408E+02  0.40122382844E+03  0.40000000000E+03 0.  1.
<mgrwt>
<rscale>  2 0.40022118E+03</rscale>
<asrwt>0</asrwt>
<pdfrwt beam="1">  1       21 0.89874376E-01 0.40022118E+03</pdfrwt>
<pdfrwt beam="2">  1       21 0.48532874E-01 0.40022118E+03</pdfrwt>
<totfact> 0.38032186E+03</totfact>
</mgrwt>
</event>
<event>
 4    1  0.4862039E-002  0.4265387E+03  0.7818608E-02  0.1034959E+00
         21   -1    0    0  501  502  0.00000000000E+00  0.00000000000E+00  0.23687490430E+03  0.23687490430E+03  0.00000000000E+00 0. -1.
         21   -1    0    0  502  503 -0.00000000000E+00 -0.00000000000E+00 -0.94221615265E+03  0.94221615265E+03  0.00000000000E+00 0. -1.
    9000007    1    1    2  501    0  0.34635287634E+01  0.14806497237E+03 -0.99212781318E+02  0.43792511695E+03  0.40000000000E+03 0. -1.
   -9000007    1    1    2    0  503 -0.34635287634E+01 -0.14806497237E+03 -0.60612846704E+03  0.74116594001E+03  0.40000000000E+03 0. -1.
<mgrwt>
<rscale>  2 0.42653866E+03</rscale>
<asrwt>0</asrwt>
<pdfrwt beam="1">  1       21 0.36442292E-01 0.42653866E+03</pdfrwt>
<pdfrwt beam="2">  1       21 0.14495634E+00 0.42653866E+03</pdfrwt>
<totfact> 0.20546161E+03</totfact>
</mgrwt>
</event>
<event>
 4    1  0.4862039E-002  0.5669222E+03  0.7818608E-02  0.9976513E-01
         21   -1    0    0  501  502  0.00000000000E+00  0.00000000000E+00  0.83631149920E+03  0.83631149920E+03  0.00000000000E+00 0.  1.
         21   -1    0    0  502  503 -0.00000000000E+00 -0.00000000000E+00 -0.67635591761E+03  0.67635591761E+03  0.00000000000E+00 0. -1.
    9000007    1    1    2  501    0  0.29277540109E+03  0.27510605310E+03  0.57697419104E+03  0.80888812147E+03  0.40000000000E+03 0.  1.
   -9000007    1    1    2    0  503 -0.29277540109E+03 -0.27510605310E+03 -0.41701860945E+03  0.70377929535E+03  0.40000000000E+03 0. -1.
<mgrwt>
<rscale>  2 0.56692220E+03</rscale>
<asrwt>0</asrwt>
<pdfrwt beam="1">  1       21 0.12866331E+00 0.56692220E+03</pdfrwt>
<pdfrwt beam="2">  1       21 0.10405476E+00 0.56692220E+03</pdfrwt>
<totfact> 0.25948078E+02</totfact>
</mgrwt>
</event>
<event>
 4    1  0.4862039E-002  0.4588738E+03  0.7818608E-02  0.1025108E+00
         21   -1    0    0  501  502  0.00000000000E+00  0.00000000000E+00  0.38140915634E+03  0.38140915634E+03  0.00000000000E+00 0. -1.
         21   -1    0    0  502  503 -0.00000000000E+00 -0.00000000000E+00 -0.73542163385E+03  0.73542163385E+03  0.00000000000E+00 0.  1.
    9000007    1    1    2  501    0 -0.91389857851E+02 -0.20545806535E+03  0.10181753774E+03  0.47003397082E+03  0.40000000000E+03 0. -1.
   -9000007    1    1    2    0  503  0.91389857851E+02  0.20545806535E+03 -0.45583001525E+03  0.64679681936E+03  0.40000000000E+03 0.  1.
<mgrwt>
<rscale>  2 0.45887375E+03</rscale>
<asrwt>0</asrwt>
<pdfrwt beam="1">  1       21 0.58678332E-01 0.45887375E+03</pdfrwt>
<pdfrwt beam="2">  1       21 0.11314179E+00 0.45887375E+03</pdfrwt>
<totfact> 0.14131943E+03</totfact>
</mgrwt>
</event>
<event>
 4    1  0.4862039E-002  0.4339832E+03  0.7818608E-02  0.1032609E+00
         21   -1    0    0  503  502  0.00000000000E+00  0.00000000000E+00  0.72600471407E+03  0.72600471407E+03  0.00000000000E+00 0.  1.
         21   -1    0    0  501  503 -0.00000000000E+00 -0.00000000000E+00 -0.31099414229E+03  0.31099414229E+03  0.00000000000E+00 0.  1.
    9000007    1    1    2  501    0  0.40513863606E+02 -0.16340144128E+03 -0.36397472645E+01  0.43399844690E+03  0.40000000000E+03 0.  1.
   -9000007    1    1    2    0  502 -0.40513863606E+02  0.16340144128E+03  0.41865031904E+03  0.60300040945E+03  0.40000000000E+03 0.  1.
<mgrwt>
<rscale>  2 0.43398318E+03</rscale>
<asrwt>0</asrwt>
<pdfrwt beam="1">  1       21 0.11169303E+00 0.43398318E+03</pdfrwt>
<pdfrwt beam="2">  1       21 0.47845253E-01 0.43398318E+03</pdfrwt>
<totfact> 0.22835224E+03</totfact>
</mgrwt>
</event>
<event>
 4    1  0.4862039E-002  0.4569671E+03  0.7818608E-02  0.1025665E+00
         21   -1    0    0  503  502  0.00000000000E+00  0.00000000000E+00  0.38022443159E+03  0.38022443159E+03  0.00000000000E+00 0.  1.
         21   -1    0    0  501  503 -0.00000000000E+00 -0.00000000000E+00 -0.56270783462E+03  0.56270783462E+03  0.00000000000E+00 0. -1.
    9000007    1    1    2  501    0  0.12008496297E+03  0.18546830964E+03 -0.16429121794E+03  0.48560322951E+03  0.40000000000E+03 0. -1.
   -9000007    1    1    2    0  502 -0.12008496297E+03 -0.18546830964E+03 -0.18192185085E+02  0.45732903670E+03  0.40000000000E+03 0.  1.
<mgrwt>
<rscale>  2 0.45696706E+03</rscale>
<asrwt>0</asrwt>
<pdfrwt beam="1">  1       21 0.58496067E-01 0.45696706E+03</pdfrwt>
<pdfrwt beam="2">  1       21 0.86570435E-01 0.45696706E+03</pdfrwt>
<totfact> 0.27245388E+03</totfact>
</mgrwt>
</event>
<event>
 4    1  0.4862039E-002  0.4700675E+03  0.7818608E-02  0.1021901E+00
         21   -1    0    0  501  502  0.00000000000E+00  0.00000000000E+00  0.21571303663E+03  0.21571303663E+03  0.00000000000E+00 0. -1.
         21   -1    0    0  502  503 -0.00000000000E+00 -0.00000000000E+00 -0.11586180989E+04  0.11586180989E+04  0.00000000000E+00 0. -1.
    9000007    1    1    2  501    0  0.21656801284E+03  0.11858223842E+03 -0.23751810864E+03  0.52666716566E+03  0.40000000000E+03 0. -1.
   -9000007    1    1    2    0  503 -0.21656801284E+03 -0.11858223842E+03 -0.70538695359E+03  0.84766396983E+03  0.40000000000E+03 0. -1.
<mgrwt>
<rscale>  2 0.47006750E+03</rscale>
<asrwt>0</asrwt>
<pdfrwt beam="1">  1       21 0.33186621E-01 0.47006750E+03</pdfrwt>
<pdfrwt beam="2">  1       21 0.17824894E+00 0.47006750E+03</pdfrwt>
<totfact> 0.13694647E+03</totfact>
</mgrwt>
</event>
<event>
 4    1  0.4862039E-002  0.6038644E+03  0.7818608E-02  0.9897421E-01
         21   -1    0    0  503  502  0.00000000000E+00  0.00000000000E+00  0.13277496346E+04  0.13277496346E+04  0.00000000000E+00 0. -1.
         21   -1    0    0  501  503 -0.00000000000E+00 -0.00000000000E+00 -0.33003311910E+03  0.33003311910E+03  0.00000000000E+00 0.  1.
    9000007    1    1    2  501    0  0.45000363482E+03  0.46356794208E+02  0.15927244883E+03  0.62451576175E+03  0.40000000000E+03 0.  1.
   -9000007    1    1    2    0  502 -0.45000363482E+03 -0.46356794208E+02  0.83844406667E+03  0.10332669919E+04  0.40000000000E+03 0. -1.
<mgrwt>
<rscale>  2 0.60386441E+03</rscale>
<asrwt>0</asrwt>
<pdfrwt beam="1">  1       21 0.20426917E+00 0.60386441E+03</pdfrwt>
<pdfrwt beam="2">  1       21 0.50774327E-01 0.60386441E+03</pdfrwt>
<totfact> 0.35606322E+02</totfact>
</mgrwt>
</event>
<event>
 4    1  0.4862039E-002  0.5153571E+03  0.7818608E-02  0.1009846E+00
         21   -1    0    0  503  502  0.00000000000E+00  0.00000000000E+00  0.15840903902E+04  0.15840903902E+04  0.00000000000E+00 0. -1.
         21   -1    0    0  501  503 -0.00000000000E+00 -0.00000000000E+00 -0.17009689639E+03  0.17009689639E+03  0.00000000000E+00 0. -1.
    9000007    1    1    2  501    0 -0.30632869984E+03 -0.10842355594E+03  0.81192000023E+03  0.96166887576E+03  0.40000000000E+03 0. -1.
   -9000007    1    1    2    0  502  0.30632869984E+03  0.10842355594E+03  0.60207349356E+03  0.79251841081E+03  0.40000000000E+03 0. -1.
<mgrwt>
<rscale>  2 0.51535710E+03</rscale>
<asrwt>0</asrwt>
<pdfrwt beam="1">  1       21 0.24370620E+00 0.51535710E+03</pdfrwt>
<pdfrwt beam="2">  1       21 0.26168754E-01 0.51535710E+03</pdfrwt>
<totfact> 0.79959176E+02</totfact>
</mgrwt>
</event>
<event>
 4    1  0.4862039E-002  0.4203396E+03  0.7818608E-02  0.1036956E+00
         21   -1    0    0  501  502  0.00000000000E+00  0.00000000000E+00  0.16625741890E+03  0.16625741890E+03  0.00000000000E+00 0.  1.
         21   -1    0    0  502  503 -0.00000000000E+00 -0.00000000000E+00 -0.11757132486E+04  0.11757132486E+04  0.00000000000E+00 0.  1.
    9000007    1    1    2  501    0 -0.12239632369E+03 -0.41286148910E+02 -0.29671761131E+03  0.51451603182E+03  0.40000000000E+03 0.  1.
   -9000007    1    1    2    0  503  0.12239632369E+03  0.41286148910E+02 -0.71273821844E+03  0.82745463572E+03  0.40000000000E+03 0.  1.
<mgrwt>
<rscale>  2 0.42033963E+03</rscale>
<asrwt>0</asrwt>
<pdfrwt beam="1">  1       21 0.25578064E-01 0.42033963E+03</pdfrwt>
<pdfrwt beam="2">  1       21 0.18087897E+00 0.42033963E+03</pdfrwt>
<totfact> 0.22441528E+03</totfact>
</mgrwt>
</event>
<event>
 4    1  0.4862039E-002  0.5481551E+03  0.7818608E-02  0.1001922E+00
         21   -1    0    0  503  502  0.00000000000E+00  0.00000000000E+00  0.11829620563E+04  0.11829620563E+04  0.00000000000E+00 0. -1.
         21   -1    0    0  501  503 -0.00000000000E+00 -0.00000000000E+00 -0.26791567110E+03  0.26791567110E+03  0.00000000000E+00 0.  1.
    9000007    1    1    2  501    0 -0.13485079524E+03  0.34969886098E+03  0.62284564269E+03  0.82970520365E+03  0.40000000000E+03 0. -1.
   -9000007    1    1    2    0  502  0.13485079524E+03 -0.34969886098E+03  0.29220074254E+03  0.62117252377E+03  0.40000000000E+03 0.  1.
<mgrwt>
<rscale>  2 0.54815512E+03</rscale>
<asrwt>0</asrwt>
<pdfrwt beam="1">  1       21 0.18199416E+00 0.54815512E+03</pdfrwt>
<pdfrwt beam="2">  1       21 0.41217796E-01 0.54815512E+03</pdfrwt>
<totfact> 0.80257757E+02</totfact>
</mgrwt>
</event>
<event>
 4    1  0.4862039E-002  0.4024852E+03  0.7818608E-02  0.1042923E+00
         21   -1    0    0  501  502  0.00000000000E+00  0.00000000000E+00  0.10671833293E+04  0.10671833293E+04  0.00000000000E+00 0. -1.
         21   -1    0    0  502  503 -0.00000000000E+00 -0.00000000000E+00 -0.17698204113E+03  0.17698204113E+03  0.00000000000E+00 0. -1.
    9000007    1    1    2  501    0 -0.70115413470E+01  0.44103872736E+02  0.67977316284E+03  0.78999105452E+03  0.40000000000E+03 0.  1.
   -9000007    1    1    2    0  503  0.70115413470E+01 -0.44103872736E+02  0.21042812532E+03  0.45417431590E+03  0.40000000000E+03 0.  1.
<mgrwt>
<rscale>  2 0.40248517E+03</rscale>
<asrwt>0</asrwt>
<pdfrwt beam="1">  1       21 0.16418205E+00 0.40248517E+03</pdfrwt>
<pdfrwt beam="2">  1       21 0.27228007E-01 0.40248517E+03</pdfrwt>
<totfact> 0.26401498E+03</totfact>
</mgrwt>
</event>
<event>
 4    1  0.4862039E-002  0.5628052E+03  0.7818608E-02  0.9985727E-01
         21   -1    0    0  501  502  0.00000000000E+00  0.00000000000E+00  0.89240580544E+03  0.89240580544E+03  0.00000000000E+00 0. -1.
         21   -1    0    0  502  503 -0.00000000000E+00 -0.00000000000E+00 -0.42927983961E+03  0.42927983961E+03  0.00000000000E+00 0. -1.
    9000007    1    1    2  501    0 -0.33709495249E+03  0.20764548445E+03  0.50656859934E+03  0.75720631273E+03  0.40000000000E+03 0. -1.
   -9000007    1    1    2    0  503  0.33709495249E+03 -0.20764548445E+03 -0.43442633504E+02  0.56447933232E+03  0.40000000000E+03 0. -1.
<mgrwt>
<rscale>  2 0.56280517E+03</rscale>
<asrwt>0</asrwt>
<pdfrwt beam="1">  1       21 0.13729320E+00 0.56280517E+03</pdfrwt>
<pdfrwt beam="2">  1       21 0.66043052E-01 0.56280517E+03</pdfrwt>
<totfact> 0.63626704E+02</totfact>
</mgrwt>
</event>
<event>
 4    1  0.4862039E-002  0.4220144E+03  0.7818608E-02  0.1036413E+00
         21   -1    0    0  501  502  0.00000000000E+00  0.00000000000E+00  0.63507881645E+03  0.63507881645E+03  0.00000000000E+00 0. -1.
         21   -1    0    0  502  503 -0.00000000000E+00 -0.00000000000E+00 -0.50165090066E+03  0.50165090066E+03  0.00000000000E+00 0. -1.
    9000007    1    1    2  501    0  0.12562867309E+02  0.13393396913E+03  0.44414531740E+03  0.61266728057E+03  0.40000000000E+03 0. -1.
   -9000007    1    1    2    0  503 -0.12562867309E+02 -0.13393396913E+03 -0.31071740160E+03  0.52406243653E+03  0.40000000000E+03 0. -1.
<mgrwt>
<rscale>  2 0.42201438E+03</rscale>
<asrwt>0</asrwt>
<pdfrwt beam="1">  1       21 0.97704434E-01 0.42201438E+03</pdfrwt>
<pdfrwt beam="2">  1       21 0.77177061E-01 0.42201438E+03</pdfrwt>
<totfact> 0.11149660E+03</totfact>
</mgrwt>
</event>
<event>
 4    1  0.4862039E-002  0.4432480E+03  0.7818608E-02  0.1029755E+00
         21   -1    0    0  503  502  0.00000000000E+00  0.00000000000E+00  0.10162226937E+04  0.10162226937E+04  0.00000000000E+00 0.  1.
         21   -1    0    0  501  503 -0.00000000000E+00 -0.00000000000E+00 -0.48406076195E+03  0.48406076195E+03  0.00000000000E+00 0.  1.
    9000007    1    1    2  501    0  0.16079424406E+03  0.10302412998E+03 -0.31526825390E+03  0.54393274602E+03  0.40000000000E+03 0.  1.
   -9000007    1    1    2    0  502 -0.16079424406E+03 -0.10302412998E+03  0.84743018567E+03  0.95635070966E+03  0.40000000000E+03 0.  1.
<mgrwt>
<rscale>  2 0.44324797E+03</rscale>
<asrwt>0</asrwt>
<pdfrwt beam="1">  1       21 0.15634195E+00 0.44324797E+03</pdfrwt>
<pdfrwt beam="2">  1       21 0.74470887E-01 0.44324797E+03</pdfrwt>
<totfact> 0.35858058E+02</totfact>
</mgrwt>
</event>
<event>
 4    1  0.4862039E-002  0.6569931E+03  0.7818608E-02  0.9793745E-01
         21   -1    0    0  501  502  0.00000000000E+00  0.00000000000E+00  0.21720129010E+04  0.21720129010E+04  0.00000000000E+00 0.  1.
         21   -1    0    0  502  503 -0.00000000000E+00 -0.00000000000E+00 -0.19874013288E+03  0.19874013288E+03  0.00000000000E+00 0. -1.
    9000007    1    1    2  501    0  0.51613172958E+03  0.72443060053E+02  0.99586659925E+03  0.11930591950E+04  0.40000000000E+03 0. -1.
   -9000007    1    1    2    0  503 -0.51613172958E+03 -0.72443060053E+02  0.97740616886E+03  0.11776938389E+04  0.40000000000E+03 0.  1.
<mgrwt>
<rscale>  2 0.65699312E+03</rscale>
<asrwt>0</asrwt>
<pdfrwt beam="1">  1       21 0.33415582E+00 0.65699312E+03</pdfrwt>
<pdfrwt beam="2">  1       21 0.30575406E-01 0.65699312E+03</pdfrwt>
<totfact> 0.15436390E+02</totfact>
</mgrwt>
</event>
<event>
 4    1  0.4862039E-002  0.4607217E+03  0.7818608E-02  0.1024572E+00
         21   -1    0    0  501  502  0.00000000000E+00  0.00000000000E+00  0.58172650215E+03  0.58172650215E+03  0.00000000000E+00 0.  1.
         21   -1    0    0  502  503 -0.00000000000E+00 -0.00000000000E+00 -0.41689627165E+03  0.41689627165E+03  0.00000000000E+00 0.  1.
    9000007    1    1    2  501    0  0.50711751732E+02 -0.22291878659E+03  0.25877412134E+03  0.52842077273E+03  0.40000000000E+03 0.  1.
   -9000007    1    1    2    0  503 -0.50711751732E+02  0.22291878659E+03 -0.93943890842E+02  0.47020200107E+03  0.40000000000E+03 0.  1.
<mgrwt>
<rscale>  2 0.46072168E+03</rscale>
<asrwt>0</asrwt>
<pdfrwt beam="1">  1       21 0.89496385E-01 0.46072168E+03</pdfrwt>
<pdfrwt beam="2">  1       21 0.64137888E-01 0.46072168E+03</pdfrwt>
<totfact> 0.20542913E+03</totfact>
</mgrwt>
</event>
<event>
 4    1  0.4862039E-002  0.4729315E+03  0.7818608E-02  0.1021096E+00
         21   -1    0    0  501  502  0.00000000000E+00  0.00000000000E+00  0.90944986888E+03  0.90944986888E+03  0.00000000000E+00 0. -1.
         21   -1    0    0  502  503 -0.00000000000E+00 -0.00000000000E+00 -0.26891718584E+03  0.26891718584E+03  0.00000000000E+00 0.  1.
    9000007    1    1    2  501    0 -0.47669597463E+02 -0.24777369237E+03  0.49251312309E+03  0.68281283641E+03  0.40000000000E+03 0.  1.
   -9000007    1    1    2    0  503  0.47669597463E+02  0.24777369237E+03  0.14801955995E+03  0.49555421830E+03  0.40000000000E+03 0. -1.
<mgrwt>
<rscale>  2 0.47293149E+03</rscale>
<asrwt>0</asrwt>
<pdfrwt beam="1">  1       21 0.13991536E+00 0.47293149E+03</pdfrwt>
<pdfrwt beam="2">  1       21 0.41371875E-01 0.47293149E+03</pdfrwt>
<totfact> 0.17093290E+03</totfact>
</mgrwt>
</event>
<event>
 4    1  0.4862039E-002  0.5230415E+03  0.7818608E-02  0.1007934E+00
         21   -1    0    0  503  502  0.00000000000E+00  0.00000000000E+00  0.21773727449E+03  0.21773727449E+03  0.00000000000E+00 0.  1.
         21   -1    0    0  501  503 -0.00000000000E+00 -0.00000000000E+00 -0.14594043547E+04  0.14594043547E+04  0.00000000000E+00 0.  1.
    9000007    1    1    2  501    0 -0.32390958176E+03  0.93032284043E+02 -0.93356291758E+03  0.10700991282E+04  0.40000000000E+03 0.  1.
   -9000007    1    1    2    0  502  0.32390958176E+03 -0.93032284043E+02 -0.30810416266E+03  0.60704250105E+03  0.40000000000E+03 0.  1.
<mgrwt>
<rscale>  2 0.52304151E+03</rscale>
<asrwt>0</asrwt>
<pdfrwt beam="1">  1       21 0.33498043E-01 0.52304151E+03</pdfrwt>
<pdfrwt beam="2">  1       21 0.22452374E+00 0.52304151E+03</pdfrwt>
<totfact> 0.64400079E+02</totfact>
</mgrwt>
</event>
<event>
 4    1  0.4862039E-002  0.4182451E+03  0.7818608E-02  0.1037639E+00
         21   -1    0    0  501  502  0.00000000000E+00  0.00000000000E+00  0.74347808214E+03  0.74347808214E+03  0.00000000000E+00 0. -1.
         21   -1    0    0  502  503 -0.00000000000E+00 -0.00000000000E+00 -0.28058461029E+03  0.28058461029E+03  0.00000000000E+00 0. -1.
    9000007    1    1    2  501    0 -0.45692939795E+02 -0.11331863485E+03  0.43718434187E+03  0.60502818656E+03  0.40000000000E+03 0. -1.
   -9000007    1    1    2    0  503  0.45692939795E+02  0.11331863485E+03  0.25709129979E+02  0.41903450588E+03  0.40000000000E+03 0. -1.
<mgrwt>
<rscale>  2 0.41824509E+03</rscale>
<asrwt>0</asrwt>
<pdfrwt beam="1">  1       21 0.11438124E+00 0.41824509E+03</pdfrwt>
<pdfrwt beam="2">  1       21 0.43166863E-01 0.41824509E+03</pdfrwt>
<totfact> 0.26865730E+03</totfact>
</mgrwt>
</event>
<event>
 4    1  0.4862039E-002  0.4444492E+03  0.7818608E-02  0.1029390E+00
         21   -1    0    0  501  502  0.00000000000E+00  0.00000000000E+00  0.63308823888E+03  0.63308823888E+03  0.00000000000E+00 0. -1.
         21   -1    0    0  502  503 -0.00000000000E+00 -0.00000000000E+00 -0.32076310149E+03  0.32076310149E+03  0.00000000000E+00 0. -1.
    9000007    1    1    2  501    0  0.12619944571E+03 -0.14699942510E+03  0.23490936330E+03  0.50271019489E+03  0.40000000000E+03 0.  1.
   -9000007    1    1    2    0  503 -0.12619944571E+03  0.14699942510E+03  0.77415774089E+02  0.45114114549E+03  0.40000000000E+03 0.  1.
<mgrwt>
<rscale>  2 0.44444924E+03</rscale>
<asrwt>0</asrwt>
<pdfrwt beam="1">  1       21 0.97398190E-01 0.44444924E+03</pdfrwt>
<pdfrwt beam="2">  1       21 0.49348170E-01 0.44444924E+03</pdfrwt>
<totfact> 0.29810031E+03</totfact>
</mgrwt>
</event>
<event>
 4    1  0.4862039E-002  0.4213376E+03  0.7818608E-02  0.1036632E+00
         21   -1    0    0  503  502  0.00000000000E+00  0.00000000000E+00  0.56534813330E+03  0.56534813330E+03  0.00000000000E+00 0. -1.
         21   -1    0    0  501  503 -0.00000000000E+00 -0.00000000000E+00 -0.47952657670E+03  0.47952657670E+03  0.00000000000E+00 0. -1.
    9000007    1    1    2  501    0  0.10109516505E+03 -0.85470110594E+02 -0.26402512288E+03  0.49722694790E+03  0.40000000000E+03 0. -1.
   -9000007    1    1    2    0  502 -0.10109516505E+03  0.85470110594E+02  0.34984667948E+03  0.54764776211E+03  0.40000000000E+03 0. -1.
<mgrwt>
<rscale>  2 0.42133760E+03</rscale>
<asrwt>0</asrwt>
<pdfrwt beam="1">  1       21 0.86976636E-01 0.42133760E+03</pdfrwt>
<pdfrwt beam="2">  1       21 0.73773319E-01 0.42133760E+03</pdfrwt>
<totfact> 0.16297969E+03</totfact>
</mgrwt>
</event>
<event>
 4    1  0.4862039E-002  0.4163077E+03  0.7818608E-02  0.1038275E+00
         21   -1    0    0  503  502  0.00000000000E+00  0.00000000000E+00  0.22567559570E+04  0.22567559570E+04  0.00000000000E+00 0.  1.
         21   -1    0    0  501  503 -0.00000000000E+00 -0.00000000000E+00 -0.10069046202E+03  0.10069046202E+03  0.00000000000E+00 0.  1.
    9000007    1    1    2  501    0  0.70821377997E+02 -0.91084812532E+02  0.50384077786E+03  0.65358063013E+03  0.40000000000E+03 0.  1.
   -9000007    1    1    2    0  502 -0.70821377997E+02  0.91084812532E+02  0.16522247171E+04  0.17038657889E+04  0.40000000000E+03 0.  1.
<mgrwt>
<rscale>  2 0.41630771E+03</rscale>
<asrwt>0</asrwt>
<pdfrwt beam="1">  1       21 0.34719319E+00 0.41630771E+03</pdfrwt>
<pdfrwt beam="2">  1       21 0.15490842E-01 0.41630771E+03</pdfrwt>
<totfact> 0.53958592E+02</totfact>
</mgrwt>
</event>
<event>
 4    1  0.4862039E-002  0.4716019E+03  0.7818608E-02  0.1021469E+00
         21   -1    0    0  503  502  0.00000000000E+00  0.00000000000E+00  0.65162495012E+03  0.65162495012E+03  0.00000000000E+00 0. -1.
         21   -1    0    0  501  503 -0.00000000000E+00 -0.00000000000E+00 -0.47948458357E+03  0.47948458357E+03  0.00000000000E+00 0. -1.
    9000007    1    1    2  501    0 -0.13547202227E+03 -0.20989447650E+03 -0.21752578705E+03  0.51935135324E+03  0.40000000000E+03 0. -1.
   -9000007    1    1    2    0  502  0.13547202227E+03  0.20989447650E+03  0.38966615360E+03  0.61175818045E+03  0.40000000000E+03 0. -1.
<mgrwt>
<rscale>  2 0.47160191E+03</rscale>
<asrwt>0</asrwt>
<pdfrwt beam="1">  1       21 0.10024999E+00 0.47160191E+03</pdfrwt>
<pdfrwt beam="2">  1       21 0.73766859E-01 0.47160191E+03</pdfrwt>
<totfact> 0.11381938E+03</totfact>
</mgrwt>
</event>
<event>
 4    1  0.4862039E-002  0.4391296E+03  0.7818608E-02  0.1031014E+00
         21   -1    0    0  503  502  0.00000000000E+00  0.00000000000E+00  0.29227071394E+03  0.29227071394E+03  0.00000000000E+00 0.  1.
         21   -1    0    0  501  503 -0.00000000000E+00 -0.00000000000E+00 -0.90441057933E+03  0.90441057933E+03  0.00000000000E+00 0.  1.
    9000007    1    1    2  501    0 -0.25159352255E+02  0.17944856293E+03 -0.61725576916E+03  0.75752192332E+03  0.40000000000E+03 0.  1.
   -9000007    1    1    2    0  502  0.25159352255E+02 -0.17944856293E+03  0.51159037740E+01  0.43915936995E+03  0.40000000000E+03 0.  1.
<mgrwt>
<rscale>  2 0.43912957E+03</rscale>
<asrwt>0</asrwt>
<pdfrwt beam="1">  1       21 0.44964726E-01 0.43912957E+03</pdfrwt>
<pdfrwt beam="2">  1       21 0.13914009E+00 0.43912957E+03</pdfrwt>
<totfact> 0.14782640E+03</totfact>
</mgrwt>
</event>
<event>
 4    1  0.4862039E-002  0.5041718E+03  0.7818608E-02  0.1012696E+00
         21   -1    0    0  503  502  0.00000000000E+00  0.00000000000E+00  0.29154657861E+03  0.29154657861E+03  0.00000000000E+00 0. -1.
         21   -1    0    0  501  503 -0.00000000000E+00 -0.00000000000E+00 -0.97977329622E+03  0.97977329622E+03  0.00000000000E+00 0.  1.
    9000007    1    1    2  501    0 -0.26657382616E+03 -0.15207762582E+03 -0.55506834519E+03  0.74986003821E+03  0.40000000000E+03 0. -1.
   -9000007    1    1    2    0  502  0.26657382616E+03  0.15207762582E+03 -0.13315837241E+03  0.52145983662E+03  0.40000000000E+03 0. -1.
<mgrwt>
<rscale>  2 0.50417181E+03</rscale>
<asrwt>0</asrwt>
<pdfrwt beam="1">  1       21 0.44853320E-01 0.50417181E+03</pdfrwt>
<pdfrwt beam="2">  1       21 0.15073435E+00 0.50417181E+03</pdfrwt>
<totfact> 0.11675316E+03</totfact>
</mgrwt>
</event>
<event>
 4    1  0.4862039E-002  0.4004621E+03  0.7818608E-02  0.1043620E+00
         21   -1    0    0  501  502  0.00000000000E+00  0.00000000000E+00  0.14614410013E+03  0.14614410013E+03  0.00000000000E+00 0.  1.
         21   -1    0    0  502  503 -0.00000000000E+00 -0.00000000000E+00 -0.12639486027E+04  0.12639486027E+04  0.00000000000E+00 0.  1.
    9000007    1    1    2  501    0  0.70534772294E+01 -0.17891453487E+02 -0.81487921380E+03  0.90796364945E+03  0.40000000000E+03 0.  1.
   -9000007    1    1    2    0  503 -0.70534772294E+01  0.17891453487E+02 -0.30292528873E+03  0.50212905334E+03  0.40000000000E+03 0.  1.
<mgrwt>
<rscale>  2 0.40046205E+03</rscale>
<asrwt>0</asrwt>
<pdfrwt beam="1">  1       21 0.22483708E-01 0.40046205E+03</pdfrwt>
<pdfrwt beam="2">  1       21 0.19445363E+00 0.40046205E+03</pdfrwt>
<totfact> 0.23448507E+03</totfact>
</mgrwt>
</event>
<event>
 4    1  0.4862039E-002  0.6109761E+03  0.7818608E-02  0.9882892E-01
         21   -1    0    0  503  502  0.00000000000E+00  0.00000000000E+00  0.33550132084E+03  0.33550132084E+03  0.00000000000E+00 0. -1.
         21   -1    0    0  501  503 -0.00000000000E+00 -0.00000000000E+00 -0.17186312892E+04  0.17186312892E+04  0.00000000000E+00 0.  1.
    9000007    1    1    2  501    0  0.41639799862E+03  0.19976108672E+03 -0.13014398664E+04  0.14377195522E+04  0.40000000000E+03 0.  1.
   -9000007    1    1    2    0  502 -0.41639799862E+03 -0.19976108672E+03 -0.81690101923E+02  0.61641305776E+03  0.40000000000E+03 0. -1.
<mgrwt>
<rscale>  2 0.61097609E+03</rscale>
<asrwt>0</asrwt>
<pdfrwt beam="1">  1       21 0.51615589E-01 0.61097609E+03</pdfrwt>
<pdfrwt beam="2">  1       21 0.26440481E+00 0.61097609E+03</pdfrwt>
<totfact> 0.14198757E+02</totfact>
</mgrwt>
</event>
<event>
 4    1  0.4862039E-002  0.6120929E+03  0.7818608E-02  0.9880630E-01
         21   -1    0    0  503  502  0.00000000000E+00  0.00000000000E+00  0.39893854204E+03  0.39893854204E+03  0.00000000000E+00 0. -1.
         21   -1    0    0  501  503 -0.00000000000E+00 -0.00000000000E+00 -0.11631711554E+04  0.11631711554E+04  0.00000000000E+00 0. -1.
    9000007    1    1    2  501    0 -0.20283138113E+03  0.41655384863E+03 -0.72489789605E+03  0.94875425569E+03  0.40000000000E+03 0. -1.
   -9000007    1    1    2    0  502  0.20283138113E+03 -0.41655384863E+03 -0.39334717346E+02  0.61335544179E+03  0.40000000000E+03 0. -1.
<mgrwt>
<rscale>  2 0.61209287E+03</rscale>
<asrwt>0</asrwt>
<pdfrwt beam="1">  1       21 0.61375162E-01 0.61209287E+03</pdfrwt>
<pdfrwt beam="2">  1       21 0.17894941E+00 0.61209287E+03</pdfrwt>
<totfact> 0.35121496E+02</totfact>
</mgrwt>
</event>
<event>
 4    1  0.4862039E-002  0.4095221E+03  0.7818608E-02  0.1040531E+00
         21   -1    0    0  501  502  0.00000000000E+00  0.00000000000E+00  0.18392630939E+04  0.18392630939E+04  0.00000000000E+00 0. -1.
         21   -1    0    0  502  503 -0.00000000000E+00 -0.00000000000E+00 -0.35391514091E+03  0.35391514091E+03  0.00000000000E+00 0. -1.
    9000007    1    1    2  501    0  0.69775531540E+02 -0.53289188520E+02  0.16874992151E+04  0.17364797619E+04  0.40000000000E+03 0. -1.
   -9000007    1    1    2    0  503 -0.69775531540E+02  0.53289188520E+02 -0.20215126212E+03  0.45669847294E+03  0.40000000000E+03 0. -1.
<mgrwt>
<rscale>  2 0.40952211E+03</rscale>
<asrwt>0</asrwt>
<pdfrwt beam="1">  1       21 0.28296355E+00 0.40952211E+03</pdfrwt>
<pdfrwt beam="2">  1       21 0.54448484E-01 0.40952211E+03</pdfrwt>
<totfact> 0.10891341E+02</totfact>
</mgrwt>
</event>
<event>
 4    1  0.4862039E-002  0.4565951E+03  0.7818608E-02  0.1025773E+00
         21   -1    0    0  501  502  0.00000000000E+00  0.00000000000E+00  0.12574181667E+04  0.12574181667E+04  0.00000000000E+00 0.  1.
         21   -1    0    0  502  503 -0.00000000000E+00 -0.00000000000E+00 -0.45313374348E+03  0.45313374348E+03  0.00000000000E+00 0.  1.
    9000007    1    1    2  501    0 -0.22014042137E+03  0.41522685517E+01  0.10832046178E+04  0.11755046960E+04  0.40000000000E+03 0.  1.
   -9000007    1    1    2    0  503  0.22014042137E+03 -0.41522685517E+01 -0.27892019454E+03  0.53504721415E+03  0.40000000000E+03 0.  1.
<mgrwt>
<rscale>  2 0.45659506E+03</rscale>
<asrwt>0</asrwt>
<pdfrwt beam="1">  1       21 0.19344895E+00 0.45659506E+03</pdfrwt>
<pdfrwt beam="2">  1       21 0.69712884E-01 0.45659506E+03</pdfrwt>
<totfact> 0.22388567E+02</totfact>
</mgrwt>
</event>
<event>
 4    1  0.4862039E-002  0.5772351E+03  0.7818608E-02  0.9953795E-01
         21   -1    0    0  501  502  0.00000000000E+00  0.00000000000E+00  0.41578928420E+03  0.41578928420E+03  0.00000000000E+00 0.  1.
         21   -1    0    0  502  503 -0.00000000000E+00 -0.00000000000E+00 -0.92052392099E+03  0.92052392099E+03  0.00000000000E+00 0.  1.
    9000007    1    1    2  501    0 -0.40158226683E+03 -0.10923374957E+03 -0.11976380443E+02  0.57735930127E+03  0.40000000000E+03 0.  1.
   -9000007    1    1    2    0  503  0.40158226683E+03  0.10923374957E+03 -0.49275825634E+03  0.75895390392E+03  0.40000000000E+03 0.  1.
<mgrwt>
<rscale>  2 0.57723507E+03</rscale>
<asrwt>0</asrwt>
<pdfrwt beam="1">  1       21 0.63967582E-01 0.57723507E+03</pdfrwt>
<pdfrwt beam="2">  1       21 0.14161906E+00 0.57723507E+03</pdfrwt>
<totfact> 0.62565928E+02</totfact>
</mgrwt>
</event>
<event>
 4    1  0.4862039E-002  0.4646989E+03  0.7818608E-02  0.1023427E+00
         21   -1    0    0  501  502  0.00000000000E+00  0.00000000000E+00  0.21845266884E+03  0.21845266884E+03  0.00000000000E+00 0. -1.
         21   -1    0    0  502  503 -0.00000000000E+00 -0.00000000000E+00 -0.15036430415E+04  0.15036430415E+04  0.00000000000E+00 0.  1.
    9000007    1    1    2  501    0  0.16055487560E+03  0.17368710350E+03 -0.11465712715E+04  0.12371623817E+04  0.40000000000E+03 0.  1.
   -9000007    1    1    2    0  503 -0.16055487560E+03 -0.17368710350E+03 -0.13861910110E+03  0.48493332860E+03  0.40000000000E+03 0. -1.
<mgrwt>
<rscale>  2 0.46469891E+03</rscale>
<asrwt>0</asrwt>
<pdfrwt beam="1">  1       21 0.33608103E-01 0.46469891E+03</pdfrwt>
<pdfrwt beam="2">  1       21 0.23132970E+00 0.46469891E+03</pdfrwt>
<totfact> 0.59485197E+02</totfact>
</mgrwt>
</event>
<event>
 4    1  0.4862039E-002  0.4269466E+03  0.7818608E-02  0.1034829E+00
         21   -1    0    0  503  502  0.00000000000E+00  0.00000000000E+00  0.32567189359E+03  0.32567189359E+03  0.00000000000E+00 0.  1.
         21   -1    0    0  501  503 -0.00000000000E+00 -0.00000000000E+00 -0.83972679633E+03  0.83972679633E+03  0.00000000000E+00 0.  1.
    9000007    1    1    2  501    0  0.73162387572E+02 -0.13011778975E+03 -0.59351101414E+03  0.73112153441E+03  0.40000000000E+03 0.  1.
   -9000007    1    1    2    0  502 -0.73162387572E+02  0.13011778975E+03  0.79456111401E+02  0.43427715552E+03  0.40000000000E+03 0.  1.
<mgrwt>
<rscale>  2 0.42694657E+03</rscale>
<asrwt>0</asrwt>
<pdfrwt beam="1">  1       21 0.50103369E-01 0.42694657E+03</pdfrwt>
<pdfrwt beam="2">  1       21 0.12918873E+00 0.42694657E+03</pdfrwt>
<totfact> 0.14358740E+03</totfact>
</mgrwt>
</event>
<event>
 4    1  0.4862039E-002  0.4361861E+03  0.7818608E-02  0.1031923E+00
         21   -1    0    0  501  502  0.00000000000E+00  0.00000000000E+00  0.13764193982E+03  0.13764193982E+03  0.00000000000E+00 0. -1.
         21   -1    0    0  502  503 -0.00000000000E+00 -0.00000000000E+00 -0.13833237029E+04  0.13833237029E+04  0.00000000000E+00 0. -1.
    9000007    1    1    2  501    0  0.10856755104E+02  0.17360995790E+03 -0.60184941464E+03  0.74329065951E+03  0.40000000000E+03 0. -1.
   -9000007    1    1    2    0  503 -0.10856755104E+02 -0.17360995790E+03 -0.64383234843E+03  0.77767498320E+03  0.40000000000E+03 0. -1.
<mgrwt>
<rscale>  2 0.43618607E+03</rscale>
<asrwt>0</asrwt>
<pdfrwt beam="1">  1       21 0.21175683E-01 0.43618607E+03</pdfrwt>
<pdfrwt beam="2">  1       21 0.21281903E+00 0.43618607E+03</pdfrwt>
<totfact> 0.19576458E+03</totfact>
</mgrwt>
</event>
<event>
 4    1  0.4862039E-002  0.4274222E+03  0.7818608E-02  0.1034677E+00
         21   -1    0    0  503  502  0.00000000000E+00  0.00000000000E+00  0.11690787385E+04  0.11690787385E+04  0.00000000000E+00 0. -1.
         21   -1    0    0  501  503 -0.00000000000E+00 -0.00000000000E+00 -0.21791627325E+03  0.21791627325E+03  0.00000000000E+00 0. -1.
    9000007    1    1    2  501    0  0.88197719656E+02  0.12211007317E+03  0.10672239394E+03  0.44054440990E+03  0.40000000000E+03 0. -1.
   -9000007    1    1    2    0  502 -0.88197719656E+02 -0.12211007317E+03  0.84444007127E+03  0.94645060182E+03  0.40000000000E+03 0. -1.
<mgrwt>
<rscale>  2 0.42742217E+03</rscale>
<asrwt>0</asrwt>
<pdfrwt beam="1">  1       21 0.17985826E+00 0.42742217E+03</pdfrwt>
<pdfrwt beam="2">  1       21 0.33525581E-01 0.42742217E+03</pdfrwt>
<totfact> 0.13314114E+03</totfact>
</mgrwt>
</event>
<event>
 4    1  0.4862039E-002  0.4404719E+03  0.7818608E-02  0.1030602E+00
         21   -1    0    0  503  502  0.00000000000E+00  0.00000000000E+00  0.95200742895E+03  0.95200742895E+03  0.00000000000E+00 0.  1.
         21   -1    0    0  501  503 -0.00000000000E+00 -0.00000000000E+00 -0.14172507094E+04  0.14172507094E+04  0.00000000000E+00 0.  1.
    9000007    1    1    2  501    0  0.12292910463E+03 -0.13749144715E+03 -0.13287736897E+04  0.13998767736E+04  0.40000000000E+03 0.  1.
   -9000007    1    1    2    0  502 -0.12292910463E+03  0.13749144715E+03  0.86353040921E+03  0.96938136481E+03  0.40000000000E+03 0.  1.
<mgrwt>
<rscale>  2 0.44047186E+03</rscale>
<asrwt>0</asrwt>
<pdfrwt beam="1">  1       21 0.14646268E+00 0.44047186E+03</pdfrwt>
<pdfrwt beam="2">  1       21 0.21803857E+00 0.44047186E+03</pdfrwt>
<totfact> 0.25348966E+01</totfact>
</mgrwt>
</event>
<event>
 4    1  0.4862039E-002  0.4252784E+03  0.7818608E-02  0.1035362E+00
         21   -1    0    0  503  502  0.00000000000E+00  0.00000000000E+00  0.76696733871E+03  0.76696733871E+03  0.00000000000E+00 0. -1.
         21   -1    0    0  501  503 -0.00000000000E+00 -0.00000000000E+00 -0.39878962456E+03  0.39878962456E+03  0.00000000000E+00 0. -1.
    9000007    1    1    2  501    0  0.54539103485E+02 -0.13374316570E+03 -0.18853205921E+03  0.46519467487E+03  0.40000000000E+03 0.  1.
   -9000007    1    1    2    0  502 -0.54539103485E+02  0.13374316570E+03  0.55670977335E+03  0.70056228840E+03  0.40000000000E+03 0.  1.
<mgrwt>
<rscale>  2 0.42527844E+03</rscale>
<asrwt>0</asrwt>
<pdfrwt beam="1">  1       21 0.11799498E+00 0.42527844E+03</pdfrwt>
<pdfrwt beam="2">  1       21 0.61352250E-01 0.42527844E+03</pdfrwt>
<totfact> 0.11699221E+03</totfact>
</mgrwt>
</event>
<event>
 4    1  0.4862039E-002  0.4314435E+03  0.7818608E-02  0.1033405E+00
         21   -1    0    0  501  502  0.00000000000E+00  0.00000000000E+00  0.22119063426E+03  0.22119063426E+03  0.00000000000E+00 0. -1.
         21   -1    0    0  502  503 -0.00000000000E+00 -0.00000000000E+00 -0.84211414022E+03  0.84211414022E+03  0.00000000000E+00 0. -1.
    9000007    1    1    2  501    0  0.80326776905E+02  0.14032486110E+03 -0.32419584130E+03  0.53967249443E+03  0.40000000000E+03 0. -1.
   -9000007    1    1    2    0  503 -0.80326776905E+02 -0.14032486110E+03 -0.29672766466E+03  0.52363228004E+03  0.40000000000E+03 0. -1.
<mgrwt>
<rscale>  2 0.43144346E+03</rscale>
<asrwt>0</asrwt>
<pdfrwt beam="1">  1       21 0.34029329E-01 0.43144346E+03</pdfrwt>
<pdfrwt beam="2">  1       21 0.12955602E+00 0.43144346E+03</pdfrwt>
<totfact> 0.31667003E+03</totfact>
</mgrwt>
</event>
<event>
 4    1  0.4862039E-002  0.4633871E+03  0.7818608E-02  0.1023803E+00
         21   -1    0    0  501  502  0.00000000000E+00  0.00000000000E+00  0.29733634550E+03  0.29733634550E+03  0.00000000000E+00 0.  1.
         21   -1    0    0  502  503 -0.00000000000E+00 -0.00000000000E+00 -0.11064243995E+04  0.11064243995E+04  0.00000000000E+00 0.  1.
    9000007    1    1    2  501    0 -0.59486618676E+02 -0.22624981905E+03  0.90851588740E+01  0.46347618982E+03  0.40000000000E+03 0.  1.
   -9000007    1    1    2    0  503  0.59486618676E+02  0.22624981905E+03 -0.81817321285E+03  0.94028455515E+03  0.40000000000E+03 0.  1.
<mgrwt>
<rscale>  2 0.46338714E+03</rscale>
<asrwt>0</asrwt>
<pdfrwt beam="1">  1       21 0.45744052E-01 0.46338714E+03</pdfrwt>
<pdfrwt beam="2">  1       21 0.17021914E+00 0.46338714E+03</pdfrwt>
<totfact> 0.81115347E+02</totfact>
</mgrwt>
</event>
<event>
 4    1  0.4862039E-002  0.5928866E+03  0.7818608E-02  0.9920275E-01
         21   -1    0    0  503  502  0.00000000000E+00  0.00000000000E+00  0.49375041652E+03  0.49375041652E+03  0.00000000000E+00 0. -1.
         21   -1    0    0  501  503 -0.00000000000E+00 -0.00000000000E+00 -0.13461771821E+04  0.13461771821E+04  0.00000000000E+00 0.  1.
    9000007    1    1    2  501    0  0.43383434880E+03 -0.57465262507E+02 -0.10576790683E+04  0.12125178391E+04  0.40000000000E+03 0.  1.
   -9000007    1    1    2    0  502 -0.43383434880E+03  0.57465262507E+02  0.20525230271E+03  0.62740975954E+03  0.40000000000E+03 0. -1.
<mgrwt>
<rscale>  2 0.59288658E+03</rscale>
<asrwt>0</asrwt>
<pdfrwt beam="1">  1       21 0.75961602E-01 0.59288658E+03</pdfrwt>
<pdfrwt beam="2">  1       21 0.20710418E+00 0.59288658E+03</pdfrwt>
<totfact> 0.13999866E+02</totfact>
</mgrwt>
</event>
<event>
 4    1  0.4862039E-002  0.9477139E+03  0.7818608E-02  0.9367827E-01
         21   -1    0    0  501  502  0.00000000000E+00  0.00000000000E+00  0.24768859098E+04  0.24768859098E+04  0.00000000000E+00 0. -1.
         21   -1    0    0  502  503 -0.00000000000E+00 -0.00000000000E+00 -0.43590031491E+03  0.43590031491E+03  0.00000000000E+00 0.  1.
    9000007    1    1    2  501    0  0.55701625139E+02 -0.85735575186E+03  0.16176474747E+04  0.18748186335E+04  0.40000000000E+03 0. -1.
   -9000007    1    1    2    0  503 -0.55701625139E+02  0.85735575186E+03  0.42333812018E+03  0.10379675912E+04  0.40000000000E+03 0.  1.
<mgrwt>
<rscale>  2 0.94771386E+03</rscale>
<asrwt>0</asrwt>
<pdfrwt beam="1">  1       21 0.38105936E+00 0.94771386E+03</pdfrwt>
<pdfrwt beam="2">  1       21 0.67061588E-01 0.94771386E+03</pdfrwt>
<totfact> 0.13176213E+01</totfact>
</mgrwt>
</event>
<event>
 4    1  0.4862039E-002  0.4439657E+03  0.7818608E-02  0.1029537E+00
         21   -1    0    0  503  502  0.00000000000E+00  0.00000000000E+00  0.12696904336E+04  0.12696904336E+04  0.00000000000E+00 0. -1.
         21   -1    0    0  501  503 -0.00000000000E+00 -0.00000000000E+00 -0.22271828143E+03  0.22271828143E+03  0.00000000000E+00 0. -1.
    9000007    1    1    2  501    0 -0.74865667176E+01  0.19248243271E+03  0.11274804781E+03  0.45805857471E+03  0.40000000000E+03 0. -1.
   -9000007    1    1    2    0  502  0.74865667176E+01 -0.19248243271E+03  0.93422410433E+03  0.10343501403E+04  0.40000000000E+03 0. -1.
<mgrwt>
<rscale>  2 0.44396569E+03</rscale>
<asrwt>0</asrwt>
<pdfrwt beam="1">  1       21 0.19533699E+00 0.44396569E+03</pdfrwt>
<pdfrwt beam="2">  1       21 0.34264352E-01 0.44396569E+03</pdfrwt>
<totfact> 0.98949885E+02</totfact>
</mgrwt>
</event>
<event>
 4    1  0.4862039E-002  0.4152318E+03  0.7818608E-02  0.1038629E+00
         21   -1    0    0  501  502  0.00000000000E+00  0.00000000000E+00  0.27490718484E+04  0.27490718484E+04  0.00000000000E+00 0. -1.
         21   -1    0    0  502  503 -0.00000000000E+00 -0.00000000000E+00 -0.10042057094E+03  0.10042057094E+03  0.00000000000E+00 0. -1.
    9000007    1    1    2  501    0  0.10172207733E+03 -0.45497643798E+02  0.21973156728E+04  0.22362051746E+04  0.40000000000E+03 0.  1.
   -9000007    1    1    2    0  503 -0.10172207733E+03  0.45497643798E+02  0.45133560461E+03  0.61328724477E+03  0.40000000000E+03 0.  1.
<mgrwt>
<rscale>  2 0.41523176E+03</rscale>
<asrwt>0</asrwt>
<pdfrwt beam="1">  1       21 0.42293407E+00 0.41523176E+03</pdfrwt>
<pdfrwt beam="2">  1       21 0.15449321E-01 0.41523176E+03</pdfrwt>
<totfact> 0.18045182E+02</totfact>
</mgrwt>
</event>
<event>
 4    1  0.4862039E-002  0.4955311E+03  0.7818608E-02  0.1014952E+00
         21   -1    0    0  501  502  0.00000000000E+00  0.00000000000E+00  0.21201334689E+03  0.21201334689E+03  0.00000000000E+00 0. -1.
         21   -1    0    0  502  503 -0.00000000000E+00 -0.00000000000E+00 -0.11776605454E+04  0.11776605454E+04  0.00000000000E+00 0.  1.
    9000007    1    1    2  501    0  0.25200898746E+03 -0.14846733471E+03 -0.39347318679E+03  0.63274973564E+03  0.40000000000E+03 0. -1.
   -9000007    1    1    2    0  503 -0.25200898746E+03  0.14846733471E+03 -0.57217401172E+03  0.75692415665E+03  0.40000000000E+03 0.  1.
<mgrwt>
<rscale>  2 0.49553111E+03</rscale>
<asrwt>0</asrwt>
<pdfrwt beam="1">  1       21 0.32617438E-01 0.49553111E+03</pdfrwt>
<pdfrwt beam="2">  1       21 0.18117854E+00 0.49553111E+03</pdfrwt>
<totfact> 0.13379833E+03</totfact>
</mgrwt>
</event>
<event>
 4    1  0.4862039E-002  0.4473991E+03  0.7818608E-02  0.1028501E+00
         21   -1    0    0  503  502  0.00000000000E+00  0.00000000000E+00  0.17394600328E+04  0.17394600328E+04  0.00000000000E+00 0.  1.
         21   -1    0    0  501  503 -0.00000000000E+00 -0.00000000000E+00 -0.18483820786E+03  0.18483820786E+03  0.00000000000E+00 0.  1.
    9000007    1    1    2  501    0  0.18580388185E+03  0.75119028041E+02  0.18620670532E+03  0.48460178290E+03  0.40000000000E+03 0.  1.
   -9000007    1    1    2    0  502 -0.18580388185E+03 -0.75119028041E+02  0.13684151196E+04  0.14396964577E+04  0.40000000000E+03 0.  1.
<mgrwt>
<rscale>  2 0.44739910E+03</rscale>
<asrwt>0</asrwt>
<pdfrwt beam="1">  1       21 0.26760923E+00 0.44739910E+03</pdfrwt>
<pdfrwt beam="2">  1       21 0.28436648E-01 0.44739910E+03</pdfrwt>
<totfact> 0.50081088E+02</totfact>
</mgrwt>
</event>
<event>
 4    1  0.4862039E-002  0.4672710E+03  0.7818608E-02  0.1022693E+00
         21   -1    0    0  501  502  0.00000000000E+00  0.00000000000E+00  0.11941829394E+04  0.11941829394E+04  0.00000000000E+00 0. -1.
         21   -1    0    0  502  503 -0.00000000000E+00 -0.00000000000E+00 -0.20697588156E+03  0.20697588156E+03  0.00000000000E+00 0. -1.
    9000007    1    1    2  501    0 -0.21255483620E+03 -0.11472832185E+03  0.25435673523E+03  0.53201456276E+03  0.40000000000E+03 0. -1.
   -9000007    1    1    2    0  503  0.21255483620E+03  0.11472832185E+03  0.73285032265E+03  0.86914425825E+03  0.40000000000E+03 0. -1.
<mgrwt>
<rscale>  2 0.46727096E+03</rscale>
<asrwt>0</asrwt>
<pdfrwt beam="1">  1       21 0.18372045E+00 0.46727096E+03</pdfrwt>
<pdfrwt beam="2">  1       21 0.31842444E-01 0.46727096E+03</pdfrwt>
<totfact> 0.13632740E+03</totfact>
</mgrwt>
</event>
<event>
 4    1  0.4862039E-002  0.4765644E+03  0.7818608E-02  0.1020084E+00
         21   -1    0    0  503  502  0.00000000000E+00  0.00000000000E+00  0.28687146859E+03  0.28687146859E+03  0.00000000000E+00 0.  1.
         21   -1    0    0  501  503 -0.00000000000E+00 -0.00000000000E+00 -0.81909967033E+03  0.81909967033E+03  0.00000000000E+00 0.  1.
    9000007    1    1    2  501    0 -0.24410903846E+03  0.86743455981E+02 -0.36726900001E+03  0.60166449802E+03  0.40000000000E+03 0.  1.
   -9000007    1    1    2    0  502  0.24410903846E+03 -0.86743455981E+02 -0.16495920173E+03  0.50430664089E+03  0.40000000000E+03 0.  1.
<mgrwt>
<rscale>  2 0.47656442E+03</rscale>
<asrwt>0</asrwt>
<pdfrwt beam="1">  1       21 0.44134073E-01 0.47656442E+03</pdfrwt>
<pdfrwt beam="2">  1       21 0.12601533E+00 0.47656442E+03</pdfrwt>
<totfact> 0.19619681E+03</totfact>
</mgrwt>
</event>
<event>
 4    1  0.4862039E-002  0.5548030E+03  0.7818608E-02  0.1000388E+00
         21   -1    0    0  501  502  0.00000000000E+00  0.00000000000E+00  0.89060390075E+03  0.89060390075E+03  0.00000000000E+00 0.  1.
         21   -1    0    0  502  503 -0.00000000000E+00 -0.00000000000E+00 -0.34962911215E+03  0.34962911215E+03  0.00000000000E+00 0. -1.
    9000007    1    1    2  501    0 -0.25382580702E+03  0.28875384734E+03  0.33693029850E+03  0.64909810561E+03  0.40000000000E+03 0.  1.
   -9000007    1    1    2    0  503  0.25382580702E+03 -0.28875384734E+03  0.20404449010E+03  0.59113490728E+03  0.40000000000E+03 0. -1.
<mgrwt>
<rscale>  2 0.55480296E+03</rscale>
<asrwt>0</asrwt>
<pdfrwt beam="1">  1       21 0.13701598E+00 0.55480296E+03</pdfrwt>
<pdfrwt beam="2">  1       21 0.53789094E-01 0.55480296E+03</pdfrwt>
<totfact> 0.10075014E+03</totfact>
</mgrwt>
</event>
<event>
 4    1  0.4862039E-002  0.4590409E+03  0.7818608E-02  0.1025060E+00
         21   -1    0    0  503  502  0.00000000000E+00  0.00000000000E+00  0.16041269078E+03  0.16041269078E+03  0.00000000000E+00 0.  1.
         21   -1    0    0  501  503 -0.00000000000E+00 -0.00000000000E+00 -0.18829631882E+04  0.18829631882E+04  0.00000000000E+00 0.  1.
    9000007    1    1    2  501    0 -0.15198084477E+03  0.16619390460E+03 -0.14230871073E+04  0.14952911108E+04  0.40000000000E+03 0.  1.
   -9000007    1    1    2    0  502  0.15198084477E+03 -0.16619390460E+03 -0.29946339015E+03  0.54808476821E+03  0.40000000000E+03 0.  1.
<mgrwt>
<rscale>  2 0.45904095E+03</rscale>
<asrwt>0</asrwt>
<pdfrwt beam="1">  1       21 0.24678875E-01 0.45904095E+03</pdfrwt>
<pdfrwt beam="2">  1       21 0.28968665E+00 0.45904095E+03</pdfrwt>
<totfact> 0.48329104E+02</totfact>
</mgrwt>
</event>
<event>
 4    1  0.4862039E-002  0.4175402E+03  0.7818608E-02  0.1037870E+00
         21   -1    0    0  503  502  0.00000000000E+00  0.00000000000E+00  0.35451548703E+03  0.35451548703E+03  0.00000000000E+00 0.  1.
         21   -1    0    0  501  503 -0.00000000000E+00 -0.00000000000E+00 -0.52504522237E+03  0.52504522237E+03  0.00000000000E+00 0. -1.
    9000007    1    1    2  501    0 -0.82788931081E+02  0.86520699441E+02 -0.19597883588E+03  0.46124564242E+03  0.40000000000E+03 0. -1.
   -9000007    1    1    2    0  502  0.82788931081E+02 -0.86520699441E+02  0.25449100547E+02  0.41831506698E+03  0.40000000000E+03 0.  1.
<mgrwt>
<rscale>  2 0.41754022E+03</rscale>
<asrwt>0</asrwt>
<pdfrwt beam="1">  1       21 0.54540844E-01 0.41754022E+03</pdfrwt>
<pdfrwt beam="2">  1       21 0.80776188E-01 0.41754022E+03</pdfrwt>
<totfact> 0.37798465E+03</totfact>
</mgrwt>
</event>
<event>
 4    1  0.4862039E-002  0.4257040E+03  0.7818608E-02  0.1035226E+00
         21   -1    0    0  501  502  0.00000000000E+00  0.00000000000E+00  0.42711557878E+03  0.42711557878E+03  0.00000000000E+00 0.  1.
         21   -1    0    0  502  503 -0.00000000000E+00 -0.00000000000E+00 -0.44055310140E+03  0.44055310140E+03  0.00000000000E+00 0.  1.
    9000007    1    1    2  501    0 -0.11258576428E+03  0.92457404487E+02 -0.90054423587E+02  0.43512495351E+03  0.40000000000E+03 0.  1.
   -9000007    1    1    2    0  503  0.11258576428E+03 -0.92457404487E+02  0.76616900972E+02  0.43254372667E+03  0.40000000000E+03 0.  1.
<mgrwt>
<rscale>  2 0.42570404E+03</rscale>
<asrwt>0</asrwt>
<pdfrwt beam="1">  1       21 0.65710089E-01 0.42570404E+03</pdfrwt>
<pdfrwt beam="2">  1       21 0.67777400E-01 0.42570404E+03</pdfrwt>
<totfact> 0.37352879E+03</totfact>
</mgrwt>
</event>
<event>
 4    1  0.4862039E-002  0.6437846E+03  0.7818608E-02  0.9818512E-01
         21   -1    0    0  503  502  0.00000000000E+00  0.00000000000E+00  0.73498036838E+03  0.73498036838E+03  0.00000000000E+00 0.  1.
         21   -1    0    0  501  503 -0.00000000000E+00 -0.00000000000E+00 -0.62779328198E+03  0.62779328198E+03  0.00000000000E+00 0. -1.
    9000007    1    1    2  501    0 -0.32164421085E+03 -0.38859189421E+03 -0.16377568708E+03  0.66428994746E+03  0.40000000000E+03 0. -1.
   -9000007    1    1    2    0  502  0.32164421085E+03  0.38859189421E+03  0.27096277347E+03  0.69848370290E+03  0.40000000000E+03 0.  1.
<mgrwt>
<rscale>  2 0.64378464E+03</rscale>
<asrwt>0</asrwt>
<pdfrwt beam="1">  1       21 0.11307390E+00 0.64378464E+03</pdfrwt>
<pdfrwt beam="2">  1       21 0.96583581E-01 0.64378464E+03</pdfrwt>
<totfact> 0.42240683E+02</totfact>
</mgrwt>
</event>
<event>
 4    1  0.4862039E-002  0.6282230E+03  0.7818608E-02  0.9848523E-01
         21   -1    0    0  503  502  0.00000000000E+00  0.00000000000E+00  0.15747977141E+04  0.15747977141E+04  0.00000000000E+00 0.  1.
         21   -1    0    0  501  503 -0.00000000000E+00 -0.00000000000E+00 -0.26203972490E+03  0.26203972490E+03  0.00000000000E+00 0. -1.
    9000007    1    1    2  501    0  0.32255942795E+03  0.36141335802E+03  0.46458940061E+03  0.78134980071E+03  0.40000000000E+03 0. -1.
   -9000007    1    1    2    0  502 -0.32255942795E+03 -0.36141335802E+03  0.84816858861E+03  0.10554876383E+04  0.40000000000E+03 0.  1.
<mgrwt>
<rscale>  2 0.62822305E+03</rscale>
<asrwt>0</asrwt>
<pdfrwt beam="1">  1       21 0.24227657E+00 0.62822305E+03</pdfrwt>
<pdfrwt beam="2">  1       21 0.40313805E-01 0.62822305E+03</pdfrwt>
<totfact> 0.32631807E+02</totfact>
</mgrwt>
</event>
<event>
 4    1  0.4862039E-002  0.4092228E+03  0.7818608E-02  0.1040632E+00
         21   -1    0    0  501  502  0.00000000000E+00  0.00000000000E+00  0.83979975267E+03  0.83979975267E+03  0.00000000000E+00 0. -1.
         21   -1    0    0  502  503 -0.00000000000E+00 -0.00000000000E+00 -0.32290969044E+03  0.32290969044E+03  0.00000000000E+00 0. -1.
    9000007    1    1    2  501    0 -0.60370673075E+02 -0.61795538266E+02  0.61797577402E+03  0.74118645697E+03  0.40000000000E+03 0. -1.
   -9000007    1    1    2    0  503  0.60370673075E+02  0.61795538266E+02 -0.10108571179E+03  0.42152298614E+03  0.40000000000E+03 0. -1.
<mgrwt>
<rscale>  2 0.40922281E+03</rscale>
<asrwt>0</asrwt>
<pdfrwt beam="1">  1       21 0.12919996E+00 0.40922281E+03</pdfrwt>
<pdfrwt beam="2">  1       21 0.49678414E-01 0.40922281E+03</pdfrwt>
<totfact> 0.14729566E+03</totfact>
</mgrwt>
</event>
<event>
 4    1  0.4862039E-002  0.4897770E+03  0.7818608E-02  0.1016482E+00
         21   -1    0    0  503  502  0.00000000000E+00  0.00000000000E+00  0.20910777845E+03  0.20910777845E+03  0.00000000000E+00 0. -1.
         21   -1    0    0  501  503 -0.00000000000E+00 -0.00000000000E+00 -0.12449148409E+04  0.12449148409E+04  0.00000000000E+00 0. -1.
    9000007    1    1    2  501    0  0.22879243708E+03 -0.16593818739E+03 -0.72161983989E+03  0.87213339268E+03  0.40000000000E+03 0. -1.
   -9000007    1    1    2    0  502 -0.22879243708E+03  0.16593818739E+03 -0.31418722256E+03  0.58188922667E+03  0.40000000000E+03 0. -1.
<mgrwt>
<rscale>  2 0.48977695E+03</rscale>
<asrwt>0</asrwt>
<pdfrwt beam="1">  1       21 0.32170427E-01 0.48977695E+03</pdfrwt>
<pdfrwt beam="2">  1       21 0.19152536E+00 0.48977695E+03</pdfrwt>
<totfact> 0.11687560E+03</totfact>
</mgrwt>
</event>
<event>
 4    1  0.4862039E-002  0.4637305E+03  0.7818608E-02  0.1023705E+00
         21   -1    0    0  503  502  0.00000000000E+00  0.00000000000E+00  0.11833210454E+04  0.11833210454E+04  0.00000000000E+00 0.  1.
         21   -1    0    0  501  503 -0.00000000000E+00 -0.00000000000E+00 -0.19077357321E+03  0.19077357321E+03  0.00000000000E+00 0. -1.
    9000007    1    1    2  501    0  0.22763692350E+03  0.56810208379E+02  0.64585478006E+03  0.79509393511E+03  0.40000000000E+03 0.  1.
   -9000007    1    1    2    0  502 -0.22763692350E+03 -0.56810208379E+02  0.34669269214E+03  0.57900068351E+03  0.40000000000E+03 0. -1.
<mgrwt>
<rscale>  2 0.46373049E+03</rscale>
<asrwt>0</asrwt>
<pdfrwt beam="1">  1       21 0.18204939E+00 0.46373049E+03</pdfrwt>
<pdfrwt beam="2">  1       21 0.29349781E-01 0.46373049E+03</pdfrwt>
<totfact> 0.16499044E+03</totfact>
</mgrwt>
</event>
<event>
 4    1  0.4862039E-002  0.4469187E+03  0.7818608E-02  0.1028645E+00
         21   -1    0    0  501  502  0.00000000000E+00  0.00000000000E+00  0.12232759515E+03  0.12232759515E+03  0.00000000000E+00 0.  1.
         21   -1    0    0  502  503 -0.00000000000E+00 -0.00000000000E+00 -0.16334807172E+04  0.16334807172E+04  0.00000000000E+00 0.  1.
    9000007    1    1    2  501    0 -0.19173555618E+03  0.54532654525E+02 -0.73763751791E+03  0.86246474812E+03  0.40000000000E+03 0.  1.
   -9000007    1    1    2    0  503  0.19173555618E+03 -0.54532654525E+02 -0.77351560410E+03  0.89334356421E+03  0.40000000000E+03 0.  1.
<mgrwt>
<rscale>  2 0.44691871E+03</rscale>
<asrwt>0</asrwt>
<pdfrwt beam="1">  1       21 0.18819630E-01 0.44691871E+03</pdfrwt>
<pdfrwt beam="2">  1       21 0.25130472E+00 0.44691871E+03</pdfrwt>
<totfact> 0.13974230E+03</totfact>
</mgrwt>
</event>
<event>
 4    1  0.4862039E-002  0.4235206E+03  0.7818608E-02  0.1035927E+00
         21   -1    0    0  501  502  0.00000000000E+00  0.00000000000E+00  0.11479196073E+03  0.11479196073E+03  0.00000000000E+00 0. -1.
         21   -1    0    0  502  503 -0.00000000000E+00 -0.00000000000E+00 -0.19977007774E+04  0.19977007774E+04  0.00000000000E+00 0. -1.
    9000007    1    1    2  501    0 -0.11591009755E+02 -0.13869140438E+03 -0.44849238625E+03  0.61685904199E+03  0.40000000000E+03 0. -1.
   -9000007    1    1    2    0  503  0.11591009755E+02  0.13869140438E+03 -0.14344164304E+04  0.14956336961E+04  0.40000000000E+03 0. -1.
<mgrwt>
<rscale>  2 0.42352055E+03</rscale>
<asrwt>0</asrwt>
<pdfrwt beam="1">  1       21 0.17660305E-01 0.42352055E+03</pdfrwt>
<pdfrwt beam="2">  1       21 0.30733852E+00 0.42352055E+03</pdfrwt>
<totfact> 0.73219861E+02</totfact>
</mgrwt>
</event>
<event>
 4    1  0.4862039E-002  0.4059912E+03  0.7818608E-02  0.1041725E+00
         21   -1    0    0  503  502  0.00000000000E+00  0.00000000000E+00  0.56768617856E+03  0.56768617856E+03  0.00000000000E+00 0.  1.
         21   -1    0    0  501  503 -0.00000000000E+00 -0.00000000000E+00 -0.12600194612E+04  0.12600194612E+04  0.00000000000E+00 0.  1.
    9000007    1    1    2  501    0  0.68232171287E+02  0.13161994187E+02 -0.11478428980E+04  0.12175270781E+04  0.40000000000E+03 0.  1.
   -9000007    1    1    2    0  502 -0.68232171287E+02 -0.13161994187E+02  0.45550961545E+03  0.61017856162E+03  0.40000000000E+03 0.  1.
<mgrwt>
<rscale>  2 0.40599122E+03</rscale>
<asrwt>0</asrwt>
<pdfrwt beam="1">  1       21 0.87336336E-01 0.40599122E+03</pdfrwt>
<pdfrwt beam="2">  1       21 0.19384915E+00 0.40599122E+03</pdfrwt>
<totfact> 0.13641299E+02</totfact>
</mgrwt>
</event>
<event>
 4    1  0.4862039E-002  0.4182931E+03  0.7818608E-02  0.1037623E+00
         21   -1    0    0  501  502  0.00000000000E+00  0.00000000000E+00  0.76785939969E+02  0.76785939969E+02  0.00000000000E+00 0. -1.
         21   -1    0    0  502  503 -0.00000000000E+00 -0.00000000000E+00 -0.23338252434E+04  0.23338252434E+04  0.00000000000E+00 0. -1.
    9000007    1    1    2  501    0  0.44888008006E+02  0.11381640144E+03 -0.13138271003E+04  0.13788077299E+04  0.40000000000E+03 0. -1.
   -9000007    1    1    2    0  503 -0.44888008006E+02 -0.11381640144E+03 -0.94321220320E+03  0.10318034536E+04  0.40000000000E+03 0. -1.
<mgrwt>
<rscale>  2 0.41829309E+03</rscale>
<asrwt>0</asrwt>
<pdfrwt beam="1">  1       21 0.11813222E-01 0.41829309E+03</pdfrwt>
<pdfrwt beam="2">  1       21 0.35905002E+00 0.41829309E+03</pdfrwt>
<totfact> 0.74995995E+02</totfact>
</mgrwt>
</event>
<event>
 4    1  0.4862039E-002  0.4916127E+03  0.7818608E-02  0.1015992E+00
         21   -1    0    0  503  502  0.00000000000E+00  0.00000000000E+00  0.35324771809E+03  0.35324771809E+03  0.00000000000E+00 0. -1.
         21   -1    0    0  501  503 -0.00000000000E+00 -0.00000000000E+00 -0.68446538701E+03  0.68446538701E+03  0.00000000000E+00 0.  1.
    9000007    1    1    2  501    0  0.11576705178E+03 -0.26130631109E+03 -0.15490824248E+03  0.51544113348E+03  0.40000000000E+03 0. -1.
   -9000007    1    1    2    0  502 -0.11576705178E+03  0.26130631109E+03 -0.17630942644E+03  0.52227197163E+03  0.40000000000E+03 0. -1.
<mgrwt>
<rscale>  2 0.49161265E+03</rscale>
<asrwt>0</asrwt>
<pdfrwt beam="1">  1       21 0.54345803E-01 0.49161265E+03</pdfrwt>
<pdfrwt beam="2">  1       21 0.10530237E+00 0.49161265E+03</pdfrwt>
<totfact> 0.19708909E+03</totfact>
</mgrwt>
</event>
<event>
 4    1  0.4862039E-002  0.4240316E+03  0.7818608E-02  0.1035762E+00
         21   -1    0    0  503  502  0.00000000000E+00  0.00000000000E+00  0.93432306736E+02  0.93432306736E+02  0.00000000000E+00 0.  1.
         21   -1    0    0  501  503 -0.00000000000E+00 -0.00000000000E+00 -0.20010528225E+04  0.20010528225E+04  0.00000000000E+00 0.  1.
    9000007    1    1    2  501    0 -0.10441539313E+03 -0.94341088207E+02 -0.11587522789E+04  0.12339001820E+04  0.40000000000E+03 0.  1.
   -9000007    1    1    2    0  502  0.10441539313E+03  0.94341088207E+02 -0.74886823683E+03  0.86058494722E+03  0.40000000000E+03 0.  1.
<mgrwt>
<rscale>  2 0.42403162E+03</rscale>
<asrwt>0</asrwt>
<pdfrwt beam="1">  1       21 0.14374202E-01 0.42403162E+03</pdfrwt>
<pdfrwt beam="2">  1       21 0.30785426E+00 0.42403162E+03</pdfrwt>
<totfact> 0.10663762E+03</totfact>
</mgrwt>
</event>
<event>
 4    1  0.4862039E-002  0.4567956E+03  0.7818608E-02  0.1025715E+00
         21   -1    0    0  501  502  0.00000000000E+00  0.00000000000E+00  0.10057009484E+04  0.10057009484E+04  0.00000000000E+00 0. -1.
         21   -1    0    0  502  503 -0.00000000000E+00 -0.00000000000E+00 -0.28075555357E+03  0.28075555357E+03  0.00000000000E+00 0.  1.
    9000007    1    1    2  501    0 -0.17035001116E+03 -0.14015391942E+03  0.69108378406E+03  0.82840753499E+03  0.40000000000E+03 0. -1.
   -9000007    1    1    2    0  503  0.17035001116E+03  0.14015391942E+03  0.33861610730E+02  0.45804896694E+03  0.40000000000E+03 0.  1.
<mgrwt>
<rscale>  2 0.45679563E+03</rscale>
<asrwt>0</asrwt>
<pdfrwt beam="1">  1       21 0.15472322E+00 0.45679563E+03</pdfrwt>
<pdfrwt beam="2">  1       21 0.43193163E-01 0.45679563E+03</pdfrwt>
<totfact> 0.11984986E+03</totfact>
</mgrwt>
</event>
<event>
 4    1  0.4862039E-002  0.4027041E+03  0.7818608E-02  0.1042847E+00
         21   -1    0    0  501  502  0.00000000000E+00  0.00000000000E+00  0.25965403949E+03  0.25965403949E+03  0.00000000000E+00 0.  1.
         21   -1    0    0  502  503 -0.00000000000E+00 -0.00000000000E+00 -0.10235512963E+04  0.10235512963E+04  0.00000000000E+00 0.  1.
    9000007    1    1    2  501    0  0.47806733848E+01 -0.46343282027E+02 -0.78253014986E+03  0.88007044608E+03  0.40000000000E+03 0.  1.
   -9000007    1    1    2    0  503 -0.47806733848E+01  0.46343282027E+02  0.18632893007E+02  0.40313488974E+03  0.40000000000E+03 0.  1.
<mgrwt>
<rscale>  2 0.40270405E+03</rscale>
<asrwt>0</asrwt>
<pdfrwt beam="1">  1       21 0.39946776E-01 0.40270405E+03</pdfrwt>
<pdfrwt beam="2">  1       21 0.15746943E+00 0.40270405E+03</pdfrwt>
<totfact> 0.13745623E+03</totfact>
</mgrwt>
</event>
<event>
 4    1  0.4862039E-002  0.6377804E+03  0.7818608E-02  0.9829982E-01
         21   -1    0    0  501  502  0.00000000000E+00  0.00000000000E+00  0.10133083585E+04  0.10133083585E+04  0.00000000000E+00 0. -1.
         21   -1    0    0  502  503 -0.00000000000E+00 -0.00000000000E+00 -0.79683775077E+03  0.79683775077E+03  0.00000000000E+00 0.  1.
    9000007    1    1    2  501    0 -0.30582342115E+03 -0.39145352721E+03  0.74580241412E+03  0.98131802684E+03  0.40000000000E+03 0. -1.
   -9000007    1    1    2    0  503  0.30582342115E+03  0.39145352721E+03 -0.52933180642E+03  0.82882808240E+03  0.40000000000E+03 0.  1.
<mgrwt>
<rscale>  2 0.63778039E+03</rscale>
<asrwt>0</asrwt>
<pdfrwt beam="1">  1       21 0.15589359E+00 0.63778039E+03</pdfrwt>
<pdfrwt beam="2">  1       21 0.12259042E+00 0.63778039E+03</pdfrwt>
<totfact> 0.99677106E+01</totfact>
</mgrwt>
</event>
<event>
 4    1  0.4862039E-002  0.4290732E+03  0.7818608E-02  0.1034153E+00
         21   -1    0    0  501  502  0.00000000000E+00  0.00000000000E+00  0.38888318830E+03  0.38888318830E+03  0.00000000000E+00 0. -1.
         21   -1    0    0  502  503 -0.00000000000E+00 -0.00000000000E+00 -0.47376446842E+03  0.47376446842E+03  0.00000000000E+00 0. -1.
    9000007    1    1    2  501    0  0.15383702213E+03  0.20928811600E+02 -0.54124567314E+02  0.43247348279E+03  0.40000000000E+03 0. -1.
   -9000007    1    1    2    0  503 -0.15383702213E+03 -0.20928811600E+02 -0.30756712798E+02  0.43017417393E+03  0.40000000000E+03 0. -1.
<mgrwt>
<rscale>  2 0.42907324E+03</rscale>
<asrwt>0</asrwt>
<pdfrwt beam="1">  1       21 0.59828183E-01 0.42907324E+03</pdfrwt>
<pdfrwt beam="2">  1       21 0.72886842E-01 0.42907324E+03</pdfrwt>
<totfact> 0.38956996E+03</totfact>
</mgrwt>
</event>
<event>
 4    1  0.4862039E-002  0.4549173E+03  0.7818608E-02  0.1026266E+00
         21   -1    0    0  501  502  0.00000000000E+00  0.00000000000E+00  0.44702456762E+03  0.44702456762E+03  0.00000000000E+00 0.  1.
         21   -1    0    0  502  503 -0.00000000000E+00 -0.00000000000E+00 -0.61300501719E+03  0.61300501719E+03  0.00000000000E+00 0.  1.
    9000007    1    1    2  501    0  0.14907098840E+03 -0.15725006419E+03  0.17923963774E+03  0.48895458890E+03  0.40000000000E+03 0.  1.
   -9000007    1    1    2    0  503 -0.14907098840E+03  0.15725006419E+03 -0.34522008731E+03  0.57107499591E+03  0.40000000000E+03 0.  1.
<mgrwt>
<rscale>  2 0.45491729E+03</rscale>
<asrwt>0</asrwt>
<pdfrwt beam="1">  1       21 0.68773010E-01 0.45491729E+03</pdfrwt>
<pdfrwt beam="2">  1       21 0.94308465E-01 0.45491729E+03</pdfrwt>
<totfact> 0.15554095E+03</totfact>
</mgrwt>
</event>
<event>
 4    1  0.4862039E-002  0.4779266E+03  0.7818608E-02  0.1019707E+00
         21   -1    0    0  503  502  0.00000000000E+00  0.00000000000E+00  0.94924662798E+03  0.94924662798E+03  0.00000000000E+00 0. -1.
         21   -1    0    0  501  503 -0.00000000000E+00 -0.00000000000E+00 -0.24423520444E+03  0.24423520444E+03  0.00000000000E+00 0. -1.
    9000007    1    1    2  501    0 -0.21934652648E+03 -0.14248128473E+03  0.42504316797E+03  0.63959011079E+03  0.40000000000E+03 0. -1.
   -9000007    1    1    2    0  502  0.21934652648E+03  0.14248128473E+03  0.27996825557E+03  0.55389172164E+03  0.40000000000E+03 0. -1.
<mgrwt>
<rscale>  2 0.47792658E+03</rscale>
<asrwt>0</asrwt>
<pdfrwt beam="1">  1       21 0.14603794E+00 0.47792658E+03</pdfrwt>
<pdfrwt beam="2">  1       21 0.37574647E-01 0.47792658E+03</pdfrwt>
<totfact> 0.18542196E+03</totfact>
</mgrwt>
</event>
<event>
 4    1  0.4862039E-002  0.4915247E+03  0.7818608E-02  0.1016015E+00
         21   -1    0    0  501  502  0.00000000000E+00  0.00000000000E+00  0.56822305435E+03  0.56822305435E+03  0.00000000000E+00 0. -1.
         21   -1    0    0  502  503 -0.00000000000E+00 -0.00000000000E+00 -0.43299409823E+03  0.43299409823E+03  0.00000000000E+00 0. -1.
    9000007    1    1    2  501    0  0.22131867624E+03  0.18059510172E+03  0.35976887372E+00  0.49152484846E+03  0.40000000000E+03 0. -1.
   -9000007    1    1    2    0  503 -0.22131867624E+03 -0.18059510172E+03  0.13486918725E+03  0.50969230413E+03  0.40000000000E+03 0. -1.
<mgrwt>
<rscale>  2 0.49152472E+03</rscale>
<asrwt>0</asrwt>
<pdfrwt beam="1">  1       21 0.87418932E-01 0.49152472E+03</pdfrwt>
<pdfrwt beam="2">  1       21 0.66614476E-01 0.49152472E+03</pdfrwt>
<totfact> 0.19740260E+03</totfact>
</mgrwt>
</event>
<event>
 4    1  0.4862039E-002  0.4320837E+03  0.7818608E-02  0.1033204E+00
         21   -1    0    0  501  502  0.00000000000E+00  0.00000000000E+00  0.10232604726E+04  0.10232604726E+04  0.00000000000E+00 0. -1.
         21   -1    0    0  502  503 -0.00000000000E+00 -0.00000000000E+00 -0.28577729860E+03  0.28577729860E+03  0.00000000000E+00 0. -1.
    9000007    1    1    2  501    0 -0.95786645067E+02 -0.13236791562E+03  0.76230142863E+03  0.87624186989E+03  0.40000000000E+03 0. -1.
   -9000007    1    1    2    0  503  0.95786645067E+02  0.13236791562E+03 -0.24818254586E+02  0.43279590134E+03  0.40000000000E+03 0. -1.
<mgrwt>
<rscale>  2 0.43208373E+03</rscale>
<asrwt>0</asrwt>
<pdfrwt beam="1">  1       21 0.15742469E+00 0.43208373E+03</pdfrwt>
<pdfrwt beam="2">  1       21 0.43965739E-01 0.43208373E+03</pdfrwt>
<totfact> 0.11129213E+03</totfact>
</mgrwt>
</event>
<event>
 4    1  0.4862039E-002  0.6278391E+03  0.7818608E-02  0.9849275E-01
         21   -1    0    0  501  502  0.00000000000E+00  0.00000000000E+00  0.15835725357E+04  0.15835725357E+04  0.00000000000E+00 0. -1.
         21   -1    0    0  502  503 -0.00000000000E+00 -0.00000000000E+00 -0.28408111779E+03  0.28408111779E+03  0.00000000000E+00 0.  1.
    9000007    1    1    2  501    0  0.46269810362E+02 -0.48170642874E+03  0.97827946264E+03  0.11624167436E+04  0.40000000000E+03 0. -1.
   -9000007    1    1    2    0  503 -0.46269810362E+02  0.48170642874E+03  0.32121195530E+03  0.70523690989E+03  0.40000000000E+03 0.  1.
<mgrwt>
<rscale>  2 0.62783913E+03</rscale>
<asrwt>0</asrwt>
<pdfrwt beam="1">  1       21 0.24362654E+00 0.62783913E+03</pdfrwt>
<pdfrwt beam="2">  1       21 0.43704788E-01 0.62783913E+03</pdfrwt>
<totfact> 0.27036835E+02</totfact>
</mgrwt>
</event>
<event>
 4    1  0.4862039E-002  0.4529292E+03  0.7818608E-02  0.1026852E+00
         21   -1    0    0  503  502  0.00000000000E+00  0.00000000000E+00  0.64727471025E+03  0.64727471025E+03  0.00000000000E+00 0. -1.
         21   -1    0    0  501  503 -0.00000000000E+00 -0.00000000000E+00 -0.37529789862E+03  0.37529789862E+03  0.00000000000E+00 0. -1.
    9000007    1    1    2  501    0  0.44794919436E+02 -0.20769745751E+03 -0.65634501706E+02  0.45766003373E+03  0.40000000000E+03 0. -1.
   -9000007    1    1    2    0  502 -0.44794919436E+02  0.20769745751E+03  0.33761131333E+03  0.56491257514E+03  0.40000000000E+03 0. -1.
<mgrwt>
<rscale>  2 0.45292915E+03</rscale>
<asrwt>0</asrwt>
<pdfrwt beam="1">  1       21 0.99580725E-01 0.45292915E+03</pdfrwt>
<pdfrwt beam="2">  1       21 0.57738138E-01 0.45292915E+03</pdfrwt>
<totfact> 0.20100969E+03</totfact>
</mgrwt>
</event>
<event>
 4    1  0.4862039E-002  0.4836635E+03  0.7818608E-02  0.1018133E+00
         21   -1    0    0  503  502  0.00000000000E+00  0.00000000000E+00  0.31465699304E+03  0.31465699304E+03  0.00000000000E+00 0. -1.
         21   -1    0    0  501  503 -0.00000000000E+00 -0.00000000000E+00 -0.79301869815E+03  0.79301869815E+03  0.00000000000E+00 0.  1.
    9000007    1    1    2  501    0 -0.19014521232E+03  0.19435836510E+03 -0.37765340058E+03  0.61363871034E+03  0.40000000000E+03 0.  1.
   -9000007    1    1    2    0  502  0.19014521232E+03 -0.19435836510E+03 -0.10070830453E+03  0.49403698086E+03  0.40000000000E+03 0. -1.
<mgrwt>
<rscale>  2 0.48366349E+03</rscale>
<asrwt>0</asrwt>
<pdfrwt beam="1">  1       21 0.48408769E-01 0.48366349E+03</pdfrwt>
<pdfrwt beam="2">  1       21 0.12200287E+00 0.48366349E+03</pdfrwt>
<totfact> 0.17504858E+03</totfact>
</mgrwt>
</event>
<event>
 4    1  0.4862039E-002  0.4421739E+03  0.7818608E-02  0.1030082E+00
         21   -1    0    0  503  502  0.00000000000E+00  0.00000000000E+00  0.76640910104E+03  0.76640910104E+03  0.00000000000E+00 0.  1.
         21   -1    0    0  501  503 -0.00000000000E+00 -0.00000000000E+00 -0.30672615128E+03  0.30672615128E+03  0.00000000000E+00 0.  1.
    9000007    1    1    2  501    0 -0.18840862910E+03  0.44689900706E+01  0.44995488213E+03  0.63085432498E+03  0.40000000000E+03 0.  1.
   -9000007    1    1    2    0  502  0.18840862910E+03 -0.44689900706E+01  0.97280676226E+01  0.44228092734E+03  0.40000000000E+03 0.  1.
<mgrwt>
<rscale>  2 0.44217393E+03</rscale>
<asrwt>0</asrwt>
<pdfrwt beam="1">  1       21 0.11790909E+00 0.44217393E+03</pdfrwt>
<pdfrwt beam="2">  1       21 0.47188639E-01 0.44217393E+03</pdfrwt>
<totfact> 0.20470482E+03</totfact>
</mgrwt>
</event>
<event>
 4    1  0.4862039E-002  0.4700289E+03  0.7818608E-02  0.1021912E+00
         21   -1    0    0  501  502  0.00000000000E+00  0.00000000000E+00  0.61392784525E+03  0.61392784525E+03  0.00000000000E+00 0.  1.
         21   -1    0    0  502  503 -0.00000000000E+00 -0.00000000000E+00 -0.36725755041E+03  0.36725755041E+03  0.00000000000E+00 0.  1.
    9000007    1    1    2  501    0  0.14357669094E+03  0.20078066032E+03  0.19296963179E+03  0.50809882752E+03  0.40000000000E+03 0.  1.
   -9000007    1    1    2    0  503 -0.14357669094E+03 -0.20078066032E+03  0.53700663045E+02  0.47308656814E+03  0.40000000000E+03 0.  1.
<mgrwt>
<rscale>  2 0.47002887E+03</rscale>
<asrwt>0</asrwt>
<pdfrwt beam="1">  1       21 0.94450438E-01 0.47002887E+03</pdfrwt>
<pdfrwt beam="2">  1       21 0.56501162E-01 0.47002887E+03</pdfrwt>
<totfact> 0.23785645E+03</totfact>
</mgrwt>
</event>
<event>
 4    1  0.4862039E-002  0.4444808E+03  0.7818608E-02  0.1029381E+00
         21   -1    0    0  503  502  0.00000000000E+00  0.00000000000E+00  0.99476215901E+02  0.99476215901E+02  0.00000000000E+00 0.  1.
         21   -1    0    0  501  503 -0.00000000000E+00 -0.00000000000E+00 -0.36089244643E+04  0.36089244643E+04  0.00000000000E+00 0.  1.
    9000007    1    1    2  501    0  0.12747681346E+02 -0.19339247609E+03 -0.29981283990E+04  0.30308970702E+04  0.40000000000E+03 0.  1.
   -9000007    1    1    2    0  502 -0.12747681346E+02  0.19339247609E+03 -0.51131984939E+03  0.67750361001E+03  0.40000000000E+03 0.  1.
<mgrwt>
<rscale>  2 0.44448077E+03</rscale>
<asrwt>0</asrwt>
<pdfrwt beam="1">  1       21 0.15304032E-01 0.44448077E+03</pdfrwt>
<pdfrwt beam="2">  1       21 0.55521921E+00 0.44448077E+03</pdfrwt>
<totfact> 0.20986749E+01</totfact>
</mgrwt>
</event>
<event>
 4    1  0.4862039E-002  0.5914251E+03  0.7818608E-02  0.9923358E-01
         21   -1    0    0  501  502  0.00000000000E+00  0.00000000000E+00  0.14781011959E+04  0.14781011959E+04  0.00000000000E+00 0.  1.
         21   -1    0    0  502  503 -0.00000000000E+00 -0.00000000000E+00 -0.23691126997E+03  0.23691126997E+03  0.00000000000E+00 0.  1.
    9000007    1    1    2  501    0 -0.38571880127E+02 -0.43393075869E+03  0.64939989478E+03  0.87835295674E+03  0.40000000000E+03 0.  1.
   -9000007    1    1    2    0  503  0.38571880127E+02  0.43393075869E+03  0.59179003120E+03  0.83665950918E+03  0.40000000000E+03 0.  1.
<mgrwt>
<rscale>  2 0.59142514E+03</rscale>
<asrwt>0</asrwt>
<pdfrwt beam="1">  1       21 0.22740018E+00 0.59142514E+03</pdfrwt>
<pdfrwt beam="2">  1       21 0.36447889E-01 0.59142514E+03</pdfrwt>
<totfact> 0.50593544E+02</totfact>
</mgrwt>
</event>
<event>
 4    1  0.4862039E-002  0.4156004E+03  0.7818608E-02  0.1038508E+00
         21   -1    0    0  503  502  0.00000000000E+00  0.00000000000E+00  0.31740567356E+03  0.31740567356E+03  0.00000000000E+00 0.  1.
         21   -1    0    0  501  503 -0.00000000000E+00 -0.00000000000E+00 -0.12351869816E+04  0.12351869816E+04  0.00000000000E+00 0.  1.
    9000007    1    1    2  501    0  0.11174376011E+03  0.15395465207E+02 -0.10395273859E+04  0.11195270762E+04  0.40000000000E+03 0.  1.
   -9000007    1    1    2    0  502 -0.11174376011E+03 -0.15395465207E+02  0.12174607781E+03  0.43306557902E+03  0.40000000000E+03 0.  1.
<mgrwt>
<rscale>  2 0.41560039E+03</rscale>
<asrwt>0</asrwt>
<pdfrwt beam="1">  1       21 0.48831643E-01 0.41560039E+03</pdfrwt>
<pdfrwt beam="2">  1       21 0.19002876E+00 0.41560039E+03</pdfrwt>
<totfact> 0.52445032E+02</totfact>
</mgrwt>
</event>
<event>
 4    1  0.4862039E-002  0.4563876E+03  0.7818608E-02  0.1025834E+00
         21   -1    0    0  503  502  0.00000000000E+00  0.00000000000E+00  0.30335414603E+03  0.30335414603E+03  0.00000000000E+00 0. -1.
         21   -1    0    0  501  503 -0.00000000000E+00 -0.00000000000E+00 -0.22597893311E+04  0.22597893311E+04  0.00000000000E+00 0.  1.
    9000007    1    1    2  501    0 -0.16394824134E+03 -0.14632361394E+03 -0.20475098111E+04  0.20977573865E+04  0.40000000000E+03 0.  1.
   -9000007    1    1    2    0  502  0.16394824134E+03  0.14632361394E+03  0.91074626084E+02  0.46538609063E+03  0.40000000000E+03 0. -1.
<mgrwt>
<rscale>  2 0.45638758E+03</rscale>
<asrwt>0</asrwt>
<pdfrwt beam="1">  1       21 0.46669870E-01 0.45638758E+03</pdfrwt>
<pdfrwt beam="2">  1       21 0.34765989E+00 0.45638758E+03</pdfrwt>
<totfact> 0.59599578E+01</totfact>
</mgrwt>
</event>
<event>
 4    1  0.4862039E-002  0.4427293E+03  0.7818608E-02  0.1029913E+00
         21   -1    0    0  501  502  0.00000000000E+00  0.00000000000E+00  0.14969749390E+04  0.14969749390E+04  0.00000000000E+00 0.  1.
         21   -1    0    0  502  503 -0.00000000000E+00 -0.00000000000E+00 -0.13165756552E+03  0.13165756552E+03  0.00000000000E+00 0.  1.
    9000007    1    1    2  501    0  0.84752892746E+02  0.16978275648E+03  0.74290649092E+03  0.86482327181E+03  0.40000000000E+03 0.  1.
   -9000007    1    1    2    0  503 -0.84752892746E+02 -0.16978275648E+03  0.62241088257E+03  0.76380923271E+03  0.40000000000E+03 0.  1.
<mgrwt>
<rscale>  2 0.44272930E+03</rscale>
<asrwt>0</asrwt>
<pdfrwt beam="1">  1       21 0.23030382E+00 0.44272930E+03</pdfrwt>
<pdfrwt beam="2">  1       21 0.20255011E-01 0.44272930E+03</pdfrwt>
<totfact> 0.16437785E+03</totfact>
</mgrwt>
</event>
<event>
 4    1  0.4862039E-002  0.4570958E+03  0.7818608E-02  0.1025627E+00
         21   -1    0    0  503  502  0.00000000000E+00  0.00000000000E+00  0.85421286044E+03  0.85421286044E+03  0.00000000000E+00 0. -1.
         21   -1    0    0  501  503 -0.00000000000E+00 -0.00000000000E+00 -0.27346119691E+03  0.27346119691E+03  0.00000000000E+00 0. -1.
    9000007    1    1    2  501    0  0.21539641397E+03 -0.50407868650E+02  0.10718774288E+03  0.46949524023E+03  0.40000000000E+03 0. -1.
   -9000007    1    1    2    0  502 -0.21539641397E+03  0.50407868650E+02  0.47356392065E+03  0.65817881713E+03  0.40000000000E+03 0. -1.
<mgrwt>
<rscale>  2 0.45709580E+03</rscale>
<asrwt>0</asrwt>
<pdfrwt beam="1">  1       21 0.13141736E+00 0.45709580E+03</pdfrwt>
<pdfrwt beam="2">  1       21 0.42070954E-01 0.45709580E+03</pdfrwt>
<totfact> 0.19585956E+03</totfact>
</mgrwt>
</event>
<event>
 4    1  0.4862039E-002  0.4055283E+03  0.7818608E-02  0.1041882E+00
         21   -1    0    0  501  502  0.00000000000E+00  0.00000000000E+00  0.85825066624E+03  0.85825066624E+03  0.00000000000E+00 0. -1.
         21   -1    0    0  502  503 -0.00000000000E+00 -0.00000000000E+00 -0.51935994422E+03  0.51935994422E+03  0.00000000000E+00 0. -1.
    9000007    1    1    2  501    0  0.76255233739E+01  0.66294955084E+02  0.71662593249E+03  0.82341113472E+03  0.40000000000E+03 0. -1.
   -9000007    1    1    2    0  503 -0.76255233739E+01 -0.66294955084E+02 -0.37773521047E+03  0.55419947573E+03  0.40000000000E+03 0. -1.
<mgrwt>
<rscale>  2 0.40552826E+03</rscale>
<asrwt>0</asrwt>
<pdfrwt beam="1">  1       21 0.13203856E+00 0.40552826E+03</pdfrwt>
<pdfrwt beam="2">  1       21 0.79901530E-01 0.40552826E+03</pdfrwt>
<totfact> 0.48863934E+02</totfact>
</mgrwt>
</event>
<event>
 4    1  0.4862039E-002  0.4316786E+03  0.7818608E-02  0.1033331E+00
         21   -1    0    0  503  502  0.00000000000E+00  0.00000000000E+00  0.64938804875E+03  0.64938804875E+03  0.00000000000E+00 0.  1.
         21   -1    0    0  501  503 -0.00000000000E+00 -0.00000000000E+00 -0.12984682640E+04  0.12984682640E+04  0.00000000000E+00 0.  1.
    9000007    1    1    2  501    0  0.14233936151E+03 -0.78012446687E+02 -0.11841405236E+04  0.12603710626E+04  0.40000000000E+03 0.  1.
   -9000007    1    1    2    0  502 -0.14233936151E+03  0.78012446687E+02  0.53506030835E+03  0.68748525020E+03  0.40000000000E+03 0.  1.
<mgrwt>
<rscale>  2 0.43167863E+03</rscale>
<asrwt>0</asrwt>
<pdfrwt beam="1">  1       21 0.99905854E-01 0.43167863E+03</pdfrwt>
<pdfrwt beam="2">  1       21 0.19976435E+00 0.43167863E+03</pdfrwt>
<totfact> 0.88954880E+01</totfact>
</mgrwt>
</event>
<event>
 4    1  0.4862039E-002  0.5381432E+03  0.7818608E-02  0.1004276E+00
         21   -1    0    0  501  502  0.00000000000E+00  0.00000000000E+00  0.46285961439E+03  0.46285961439E+03  0.00000000000E+00 0.  1.
         21   -1    0    0  502  503 -0.00000000000E+00 -0.00000000000E+00 -0.64864014886E+03  0.64864014886E+03  0.00000000000E+00 0.  1.
    9000007    1    1    2  501    0 -0.41347393903E+02  0.35761494747E+03  0.11688959525E+02  0.53827008965E+03  0.40000000000E+03 0.  1.
   -9000007    1    1    2    0  503  0.41347393903E+02 -0.35761494747E+03 -0.19746949399E+03  0.57322967360E+03  0.40000000000E+03 0.  1.
<mgrwt>
<rscale>  2 0.53814316E+03</rscale>
<asrwt>0</asrwt>
<pdfrwt beam="1">  1       21 0.71209172E-01 0.53814316E+03</pdfrwt>
<pdfrwt beam="2">  1       21 0.99790792E-01 0.53814316E+03</pdfrwt>
<totfact> 0.12178225E+03</totfact>
</mgrwt>
</event>
<event>
 4    1  0.4862039E-002  0.4755687E+03  0.7818608E-02  0.1020360E+00
         21   -1    0    0  501  502  0.00000000000E+00  0.00000000000E+00  0.55581990014E+03  0.55581990014E+03  0.00000000000E+00 0. -1.
         21   -1    0    0  502  503 -0.00000000000E+00 -0.00000000000E+00 -0.90001684939E+03  0.90001684939E+03  0.00000000000E+00 0.  1.
    9000007    1    1    2  501    0 -0.21612822062E+03  0.13947827409E+03  0.36670491497E+03  0.60053150738E+03  0.40000000000E+03 0. -1.
   -9000007    1    1    2    0  503  0.21612822062E+03 -0.13947827409E+03 -0.71090186423E+03  0.85530524215E+03  0.40000000000E+03 0.  1.
<mgrwt>
<rscale>  2 0.47556871E+03</rscale>
<asrwt>0</asrwt>
<pdfrwt beam="1">  1       21 0.85510755E-01 0.47556871E+03</pdfrwt>
<pdfrwt beam="2">  1       21 0.13846413E+00 0.47556871E+03</pdfrwt>
<totfact> 0.35629452E+02</totfact>
</mgrwt>
</event>
<event>
 4    1  0.4862039E-002  0.4181908E+03  0.7818608E-02  0.1037657E+00
         21   -1    0    0  501  502  0.00000000000E+00  0.00000000000E+00  0.87548444787E+02  0.87548444787E+02  0.00000000000E+00 0. -1.
         21   -1    0    0  502  503 -0.00000000000E+00 -0.00000000000E+00 -0.21542797748E+04  0.21542797748E+04  0.00000000000E+00 0. -1.
    9000007    1    1    2  501    0  0.10394854945E+03 -0.63861288147E+02 -0.73103755069E+03  0.84219918402E+03  0.40000000000E+03 0. -1.
   -9000007    1    1    2    0  503 -0.10394854945E+03  0.63861288147E+02 -0.13356937793E+04  0.13996290355E+04  0.40000000000E+03 0. -1.
<mgrwt>
<rscale>  2 0.41819082E+03</rscale>
<asrwt>0</asrwt>
<pdfrwt beam="1">  1       21 0.13468993E-01 0.41819082E+03</pdfrwt>
<pdfrwt beam="2">  1       21 0.33142763E+00 0.41819082E+03</pdfrwt>
<totfact> 0.86995489E+02</totfact>
</mgrwt>
</event>
<event>
 4    1  0.4862039E-002  0.5464172E+03  0.7818608E-02  0.1002327E+00
         21   -1    0    0  503  502  0.00000000000E+00  0.00000000000E+00  0.47081082009E+03  0.47081082009E+03  0.00000000000E+00 0.  1.
         21   -1    0    0  501  503 -0.00000000000E+00 -0.00000000000E+00 -0.72553065048E+03  0.72553065048E+03  0.00000000000E+00 0. -1.
    9000007    1    1    2  501    0  0.32595518946E+03 -0.17979151390E+03 -0.33962990654E+03  0.64336633998E+03  0.40000000000E+03 0.  1.
   -9000007    1    1    2    0  502 -0.32595518946E+03  0.17979151390E+03  0.84910076147E+02  0.55297513058E+03  0.40000000000E+03 0.  1.
<mgrwt>
<rscale>  2 0.54641722E+03</rscale>
<asrwt>0</asrwt>
<pdfrwt beam="1">  1       21 0.72432434E-01 0.54641722E+03</pdfrwt>
<pdfrwt beam="2">  1       21 0.11162010E+00 0.54641722E+03</pdfrwt>
<totfact> 0.88542968E+02</totfact>
</mgrwt>
</event>
<event>
 4    1  0.4862039E-002  0.4616917E+03  0.7818608E-02  0.1024292E+00
         21   -1    0    0  501  502  0.00000000000E+00  0.00000000000E+00  0.32679221011E+04  0.32679221011E+04  0.00000000000E+00 0. -1.
         21   -1    0    0  502  503 -0.00000000000E+00 -0.00000000000E+00 -0.65261507562E+02  0.65261507562E+02  0.00000000000E+00 0.  1.
    9000007    1    1    2  501    0 -0.21844340736E+03  0.73768188384E+02  0.15634368469E+04  0.16301822113E+04  0.40000000000E+03 0. -1.
   -9000007    1    1    2    0  503  0.21844340736E+03 -0.73768188384E+02  0.16392237466E+04  0.17030013973E+04  0.40000000000E+03 0.  1.
<mgrwt>
<rscale>  2 0.46169175E+03</rscale>
<asrwt>0</asrwt>
<pdfrwt beam="1">  1       21 0.50275712E+00 0.46169175E+03</pdfrwt>
<pdfrwt beam="2">  1       21 0.10040234E-01 0.46169175E+03</pdfrwt>
<totfact> 0.10876774E+02</totfact>
</mgrwt>
</event>
<event>
 4    1  0.4862039E-002  0.5168066E+03  0.7818608E-02  0.1009483E+00
         21   -1    0    0  501  502  0.00000000000E+00  0.00000000000E+00  0.65393613367E+03  0.65393613367E+03  0.00000000000E+00 0.  1.
         21   -1    0    0  502  503 -0.00000000000E+00 -0.00000000000E+00 -0.56594411646E+03  0.56594411646E+03  0.00000000000E+00 0. -1.
    9000007    1    1    2  501    0  0.23026750472E+03 -0.23252082068E+03  0.36577384068E+03  0.63315050210E+03  0.40000000000E+03 0.  1.
   -9000007    1    1    2    0  503 -0.23026750472E+03  0.23252082068E+03 -0.27778182347E+03  0.58672974804E+03  0.40000000000E+03 0. -1.
<mgrwt>
<rscale>  2 0.51680659E+03</rscale>
<asrwt>0</asrwt>
<pdfrwt beam="1">  1       21 0.10060556E+00 0.51680659E+03</pdfrwt>
<pdfrwt beam="2">  1       21 0.87068325E-01 0.51680659E+03</pdfrwt>
<totfact> 0.75549936E+02</totfact>
</mgrwt>
</event>
<event>
 4    1  0.4862039E-002  0.6482404E+03  0.7818608E-02  0.9810086E-01
         21   -1    0    0  503  502  0.00000000000E+00  0.00000000000E+00  0.41443332810E+03  0.41443332810E+03  0.00000000000E+00 0. -1.
         21   -1    0    0  501  503 -0.00000000000E+00 -0.00000000000E+00 -0.10146799475E+04  0.10146799475E+04  0.00000000000E+00 0.  1.
    9000007    1    1    2  501    0 -0.50826728302E+03 -0.43359429952E+02 -0.28098955143E+03  0.70652020436E+03  0.40000000000E+03 0.  1.
   -9000007    1    1    2    0  502  0.50826728302E+03  0.43359429952E+02 -0.31925706799E+03  0.72259307125E+03  0.40000000000E+03 0.  1.
<mgrwt>
<rscale>  2 0.64824044E+03</rscale>
<asrwt>0</asrwt>
<pdfrwt beam="1">  1       21 0.63758973E-01 0.64824044E+03</pdfrwt>
<pdfrwt beam="2">  1       21 0.15610461E+00 0.64824044E+03</pdfrwt>
<totfact> 0.47168945E+02</totfact>
</mgrwt>
</event>
<event>
 4    1  0.4862039E-002  0.4047755E+03  0.7818608E-02  0.1042139E+00
         21   -1    0    0  501  502  0.00000000000E+00  0.00000000000E+00  0.14270014524E+03  0.14270014524E+03  0.00000000000E+00 0.  1.
         21   -1    0    0  502  503 -0.00000000000E+00 -0.00000000000E+00 -0.11908343515E+04  0.11908343515E+04  0.00000000000E+00 0.  1.
    9000007    1    1    2  501    0 -0.27056909936E+02 -0.55777600925E+02 -0.39785238687E+03  0.56756474422E+03  0.40000000000E+03 0. -1.
   -9000007    1    1    2    0  503  0.27056909936E+02  0.55777600925E+02 -0.65028181937E+03  0.76596975250E+03  0.40000000000E+03 0. -1.
<mgrwt>
<rscale>  2 0.40477551E+03</rscale>
<asrwt>0</asrwt>
<pdfrwt beam="1">  1       21 0.21953869E-01 0.40477551E+03</pdfrwt>
<pdfrwt beam="2">  1       21 0.18320528E+00 0.40477551E+03</pdfrwt>
<totfact> 0.29240488E+03</totfact>
</mgrwt>
</event>
<event>
 4    1  0.4862039E-002  0.4349294E+03  0.7818608E-02  0.1032314E+00
         21   -1    0    0  501  502  0.00000000000E+00  0.00000000000E+00  0.20455635134E+03  0.20455635134E+03  0.00000000000E+00 0. -1.
         21   -1    0    0  502  503 -0.00000000000E+00 -0.00000000000E+00 -0.27413402799E+04  0.27413402799E+04  0.00000000000E+00 0. -1.
    9000007    1    1    2  501    0  0.16248248430E+03 -0.52564758198E+02 -0.69349803559E+02  0.44042366735E+03  0.40000000000E+03 0. -1.
   -9000007    1    1    2    0  503 -0.16248248430E+03  0.52564758198E+02 -0.24674341250E+04  0.25054729639E+04  0.40000000000E+03 0. -1.
<mgrwt>
<rscale>  2 0.43492943E+03</rscale>
<asrwt>0</asrwt>
<pdfrwt beam="1">  1       21 0.31470209E-01 0.43492943E+03</pdfrwt>
<pdfrwt beam="2">  1       21 0.42174464E+00 0.43492943E+03</pdfrwt>
<totfact> 0.46139125E+01</totfact>
</mgrwt>
</event>
<event>
 4    1  0.4862039E-002  0.4056729E+03  0.7818608E-02  0.1041833E+00
         21   -1    0    0  503  502  0.00000000000E+00  0.00000000000E+00  0.45254661574E+03  0.45254661574E+03  0.00000000000E+00 0. -1.
         21   -1    0    0  501  503 -0.00000000000E+00 -0.00000000000E+00 -0.46900719154E+03  0.46900719154E+03  0.00000000000E+00 0. -1.
    9000007    1    1    2  501    0 -0.10946186248E+02 -0.66713223336E+02 -0.22661609335E+03  0.46467765916E+03  0.40000000000E+03 0. -1.
   -9000007    1    1    2    0  502  0.10946186248E+02  0.66713223336E+02  0.21015551755E+03  0.45687614811E+03  0.40000000000E+03 0. -1.
<mgrwt>
<rscale>  2 0.40567286E+03</rscale>
<asrwt>0</asrwt>
<pdfrwt beam="1">  1       21 0.69622556E-01 0.40567286E+03</pdfrwt>
<pdfrwt beam="2">  1       21 0.72154953E-01 0.40567286E+03</pdfrwt>
<totfact> 0.28735326E+03</totfact>
</mgrwt>
</event>
<event>
 4    1  0.4862039E-002  0.5336183E+03  0.7818608E-02  0.1005358E+00
         21   -1    0    0  501  502  0.00000000000E+00  0.00000000000E+00  0.10080584011E+04  0.10080584011E+04  0.00000000000E+00 0. -1.
         21   -1    0    0  502  503 -0.00000000000E+00 -0.00000000000E+00 -0.10131260716E+04  0.10131260716E+04  0.00000000000E+00 0. -1.
    9000007    1    1    2  501    0 -0.88327197475E+02  0.34197486327E+03  0.85568896633E+03  0.10084404336E+04  0.40000000000E+03 0. -1.
   -9000007    1    1    2    0  503  0.88327197475E+02 -0.34197486327E+03 -0.86075663681E+03  0.10127440391E+04  0.40000000000E+03 0. -1.
<mgrwt>
<rscale>  2 0.53361831E+03</rscale>
<asrwt>0</asrwt>
<pdfrwt beam="1">  1       21 0.15508591E+00 0.53361831E+03</pdfrwt>
<pdfrwt beam="2">  1       21 0.15586555E+00 0.53361831E+03</pdfrwt>
<totfact> 0.55721834E+01</totfact>
</mgrwt>
</event>
<event>
 4    1  0.4862039E-002  0.5370740E+03  0.7818608E-02  0.1004531E+00
         21   -1    0    0  503  502  0.00000000000E+00  0.00000000000E+00  0.18381111035E+03  0.18381111035E+03  0.00000000000E+00 0. -1.
         21   -1    0    0  501  503 -0.00000000000E+00 -0.00000000000E+00 -0.16746779687E+04  0.16746779687E+04  0.00000000000E+00 0. -1.
    9000007    1    1    2  501    0  0.25890653502E+03  0.24782238610E+03 -0.97856940330E+03  0.11162645771E+04  0.40000000000E+03 0. -1.
   -9000007    1    1    2    0  502 -0.25890653502E+03 -0.24782238610E+03 -0.51229745509E+03  0.74222450204E+03  0.40000000000E+03 0. -1.
<mgrwt>
<rscale>  2 0.53707404E+03</rscale>
<asrwt>0</asrwt>
<pdfrwt beam="1">  1       21 0.28278632E-01 0.53707404E+03</pdfrwt>
<pdfrwt beam="2">  1       21 0.25764277E+00 0.53707404E+03</pdfrwt>
<totfact> 0.55751023E+02</totfact>
</mgrwt>
</event>
<event>
 4    1  0.4862039E-002  0.4097721E+03  0.7818608E-02  0.1040448E+00
         21   -1    0    0  501  502  0.00000000000E+00  0.00000000000E+00  0.44856005026E+03  0.44856005026E+03  0.00000000000E+00 0.  1.
         21   -1    0    0  502  503 -0.00000000000E+00 -0.00000000000E+00 -0.45502712684E+03  0.45502712684E+03  0.00000000000E+00 0.  1.
    9000007    1    1    2  501    0 -0.24413002968E+02 -0.85540320813E+02 -0.19348522366E+03  0.45315524158E+03  0.40000000000E+03 0.  1.
   -9000007    1    1    2    0  503  0.24413002968E+02  0.85540320813E+02  0.18701814707E+03  0.45043193552E+03  0.40000000000E+03 0.  1.
<mgrwt>
<rscale>  2 0.40977206E+03</rscale>
<asrwt>0</asrwt>
<pdfrwt beam="1">  1       21 0.69009238E-01 0.40977206E+03</pdfrwt>
<pdfrwt beam="2">  1       21 0.70004173E-01 0.40977206E+03</pdfrwt>
<totfact> 0.31328291E+03</totfact>
</mgrwt>
</event>
<event>
 4    1  0.4862039E-002  0.5128163E+03  0.7818608E-02  0.1010487E+00
         21   -1    0    0  501  502  0.00000000000E+00  0.00000000000E+00  0.80245831841E+03  0.80245831841E+03  0.00000000000E+00 0. -1.
         21   -1    0    0  502  503 -0.00000000000E+00 -0.00000000000E+00 -0.33854411973E+03  0.33854411973E+03  0.00000000000E+00 0. -1.
    9000007    1    1    2  501    0 -0.32033469426E+03  0.19138740522E+02  0.12994045336E+03  0.52902280589E+03  0.40000000000E+03 0. -1.
   -9000007    1    1    2    0  503  0.32033469426E+03 -0.19138740522E+02  0.33397374532E+03  0.61197963226E+03  0.40000000000E+03 0. -1.
<mgrwt>
<rscale>  2 0.51281635E+03</rscale>
<asrwt>0</asrwt>
<pdfrwt beam="1">  1       21 0.12345512E+00 0.51281635E+03</pdfrwt>
<pdfrwt beam="2">  1       21 0.52083711E-01 0.51281635E+03</pdfrwt>
<totfact> 0.14377692E+03</totfact>
</mgrwt>
</event>
<event>
 4    1  0.4862039E-002  0.4200223E+03  0.7818608E-02  0.1037059E+00
         21   -1    0    0  501  502  0.00000000000E+00  0.00000000000E+00  0.88178998657E+03  0.88178998657E+03  0.00000000000E+00 0. -1.
         21   -1    0    0  502  503 -0.00000000000E+00 -0.00000000000E+00 -0.20282356371E+03  0.20282356371E+03  0.00000000000E+00 0. -1.
    9000007    1    1    2  501    0  0.28486668524E+02  0.12492885712E+03  0.40268421360E+03  0.58187050579E+03  0.40000000000E+03 0. -1.
   -9000007    1    1    2    0  503 -0.28486668524E+02 -0.12492885712E+03  0.27628220926E+03  0.50274304448E+03  0.40000000000E+03 0. -1.
<mgrwt>
<rscale>  2 0.42002227E+03</rscale>
<asrwt>0</asrwt>
<pdfrwt beam="1">  1       21 0.13566000E+00 0.42002227E+03</pdfrwt>
<pdfrwt beam="2">  1       21 0.31203626E-01 0.42002227E+03</pdfrwt>
<totfact> 0.33568986E+03</totfact>
</mgrwt>
</event>
<event>
 4    1  0.4862039E-002  0.4541446E+03  0.7818608E-02  0.1026493E+00
         21   -1    0    0  503  502  0.00000000000E+00  0.00000000000E+00  0.17337470594E+04  0.17337470594E+04  0.00000000000E+00 0. -1.
         21   -1    0    0  501  503 -0.00000000000E+00 -0.00000000000E+00 -0.12149832694E+03  0.12149832694E+03  0.00000000000E+00 0. -1.
    9000007    1    1    2  501    0  0.90253190783E+02  0.19519652471E+03  0.94019137611E+03  0.10441298508E+04  0.40000000000E+03 0. -1.
   -9000007    1    1    2    0  502 -0.90253190783E+02 -0.19519652471E+03  0.67205735632E+03  0.81111553548E+03  0.40000000000E+03 0. -1.
<mgrwt>
<rscale>  2 0.45414460E+03</rscale>
<asrwt>0</asrwt>
<pdfrwt beam="1">  1       21 0.26673030E+00 0.45414460E+03</pdfrwt>
<pdfrwt beam="2">  1       21 0.18692052E-01 0.45414460E+03</pdfrwt>
<totfact> 0.11358699E+03</totfact>
</mgrwt>
</event>
<event>
 4    1  0.4862039E-002  0.4441352E+03  0.7818608E-02  0.1029486E+00
         21   -1    0    0  503  502  0.00000000000E+00  0.00000000000E+00  0.26812602468E+03  0.26812602468E+03  0.00000000000E+00 0.  1.
         21   -1    0    0  501  503 -0.00000000000E+00 -0.00000000000E+00 -0.87727943631E+03  0.87727943631E+03  0.00000000000E+00 0.  1.
    9000007    1    1    2  501    0 -0.78914201143E+02  0.17614933538E+03 -0.53465986493E+03  0.69506633544E+03  0.40000000000E+03 0.  1.
   -9000007    1    1    2    0  502  0.78914201143E+02 -0.17614933538E+03 -0.74493546697E+02  0.45033912555E+03  0.40000000000E+03 0.  1.
<mgrwt>
<rscale>  2 0.44413516E+03</rscale>
<asrwt>0</asrwt>
<pdfrwt beam="1">  1       21 0.41250158E-01 0.44413516E+03</pdfrwt>
<pdfrwt beam="2">  1       21 0.13496607E+00 0.44413516E+03</pdfrwt>
<totfact> 0.19128412E+03</totfact>
</mgrwt>
</event>
<event>
 4    1  0.4862039E-002  0.4744760E+03  0.7818608E-02  0.1020664E+00
         21   -1    0    0  501  502  0.00000000000E+00  0.00000000000E+00  0.62954202361E+03  0.62954202361E+03  0.00000000000E+00 0.  1.
         21   -1    0    0  502  503 -0.00000000000E+00 -0.00000000000E+00 -0.35812333962E+03  0.35812333962E+03  0.00000000000E+00 0.  1.
    9000007    1    1    2  501    0 -0.17743467068E+03 -0.18342416163E+03  0.15449374762E+03  0.49899479304E+03  0.40000000000E+03 0.  1.
   -9000007    1    1    2    0  503  0.17743467068E+03  0.18342416163E+03  0.11692493637E+03  0.48867057020E+03  0.40000000000E+03 0.  1.
<mgrwt>
<rscale>  2 0.47447601E+03</rscale>
<asrwt>0</asrwt>
<pdfrwt beam="1">  1       21 0.96852618E-01 0.47447601E+03</pdfrwt>
<pdfrwt beam="2">  1       21 0.55095899E-01 0.47447601E+03</pdfrwt>
<totfact> 0.23610720E+03</totfact>
</mgrwt>
</event>
<event>
 4    1  0.4862039E-002  0.4007656E+03  0.7818608E-02  0.1043515E+00
         21   -1    0    0  501  502  0.00000000000E+00  0.00000000000E+00  0.44635504093E+03  0.44635504093E+03  0.00000000000E+00 0.  1.
         21   -1    0    0  502  503 -0.00000000000E+00 -0.00000000000E+00 -0.46454477814E+03  0.46454477814E+03  0.00000000000E+00 0.  1.
    9000007    1    1    2  501    0 -0.22101012390E+02  0.11163322739E+02 -0.22532963442E+03  0.45976789652E+03  0.40000000000E+03 0.  1.
   -9000007    1    1    2    0  503  0.22101012390E+02 -0.11163322739E+02  0.20713989721E+03  0.45113192254E+03  0.40000000000E+03 0.  1.
<mgrwt>
<rscale>  2 0.40076561E+03</rscale>
<asrwt>0</asrwt>
<pdfrwt beam="1">  1       21 0.68670006E-01 0.40076561E+03</pdfrwt>
<pdfrwt beam="2">  1       21 0.71468427E-01 0.40076561E+03</pdfrwt>
<totfact> 0.30342764E+03</totfact>
</mgrwt>
</event>
<event>
 4    1  0.4862039E-002  0.4430749E+03  0.7818608E-02  0.1029808E+00
         21   -1    0    0  503  502  0.00000000000E+00  0.00000000000E+00  0.14316877277E+04  0.14316877277E+04  0.00000000000E+00 0. -1.
         21   -1    0    0  501  503 -0.00000000000E+00 -0.00000000000E+00 -0.15275644953E+03  0.15275644953E+03  0.00000000000E+00 0. -1.
    9000007    1    1    2  501    0 -0.18899936602E+03 -0.24384954738E+02  0.89291622529E+03  0.99680227315E+03  0.40000000000E+03 0. -1.
   -9000007    1    1    2    0  502  0.18899936602E+03  0.24384954738E+02  0.38601505284E+03  0.58764190405E+03  0.40000000000E+03 0. -1.
<mgrwt>
<rscale>  2 0.44307492E+03</rscale>
<asrwt>0</asrwt>
<pdfrwt beam="1">  1       21 0.22025964E+00 0.44307492E+03</pdfrwt>
<pdfrwt beam="2">  1       21 0.23500993E-01 0.44307492E+03</pdfrwt>
<totfact> 0.14305474E+03</totfact>
</mgrwt>
</event>
<event>
 4    1  0.4862039E-002  0.4088320E+03  0.7818608E-02  0.1040764E+00
         21   -1    0    0  501  502  0.00000000000E+00  0.00000000000E+00  0.33193114678E+03  0.33193114678E+03  0.00000000000E+00 0. -1.
         21   -1    0    0  502  503 -0.00000000000E+00 -0.00000000000E+00 -0.15763410615E+04  0.15763410615E+04  0.00000000000E+00 0. -1.
    9000007    1    1    2  501    0  0.69742104083E+02  0.47745392539E+02  0.16491879735E+03  0.44084214103E+03  0.40000000000E+03 0. -1.
   -9000007    1    1    2    0  503 -0.69742104083E+02 -0.47745392539E+02 -0.14093287121E+04  0.14674300672E+04  0.40000000000E+03 0. -1.
<mgrwt>
<rscale>  2 0.40883197E+03</rscale>
<asrwt>0</asrwt>
<pdfrwt beam="1">  1       21 0.51066330E-01 0.40883197E+03</pdfrwt>
<pdfrwt beam="2">  1       21 0.24251401E+00 0.40883197E+03</pdfrwt>
<totfact> 0.21981736E+02</totfact>
</mgrwt>
</event>
<event>
 4    1  0.4862039E-002  0.5076897E+03  0.7818608E-02  0.1011791E+00
         21   -1    0    0  501  502  0.00000000000E+00  0.00000000000E+00  0.29428117409E+03  0.29428117409E+03  0.00000000000E+00 0.  1.
         21   -1    0    0  502  503 -0.00000000000E+00 -0.00000000000E+00 -0.15076324904E+04  0.15076324904E+04  0.00000000000E+00 0.  1.
    9000007    1    1    2  501    0  0.29090880868E+03  0.11454654424E+03 -0.23449623567E+02  0.50823098155E+03  0.40000000000E+03 0.  1.
   -9000007    1    1    2    0  503 -0.29090880868E+03 -0.11454654424E+03 -0.11899016928E+04  0.12936826830E+04  0.40000000000E+03 0.  1.
<mgrwt>
<rscale>  2 0.50768971E+03</rscale>
<asrwt>0</asrwt>
<pdfrwt beam="1">  1       21 0.45274027E-01 0.50768971E+03</pdfrwt>
<pdfrwt beam="2">  1       21 0.23194346E+00 0.50768971E+03</pdfrwt>
<totfact> 0.31285546E+02</totfact>
</mgrwt>
</event>
<event>
 4    1  0.4862039E-002  0.4489162E+03  0.7818608E-02  0.1028046E+00
         21   -1    0    0  501  502  0.00000000000E+00  0.00000000000E+00  0.36774857538E+03  0.36774857538E+03  0.00000000000E+00 0.  1.
         21   -1    0    0  502  503 -0.00000000000E+00 -0.00000000000E+00 -0.57561850875E+03  0.57561850875E+03  0.00000000000E+00 0.  1.
    9000007    1    1    2  501    0  0.19921379612E+03 -0.42891191060E+02 -0.61301021862E+00  0.44891665888E+03  0.40000000000E+03 0.  1.
   -9000007    1    1    2    0  503 -0.19921379612E+03  0.42891191060E+02 -0.20725692315E+03  0.49445042525E+03  0.40000000000E+03 0.  1.
<mgrwt>
<rscale>  2 0.44891624E+03</rscale>
<asrwt>0</asrwt>
<pdfrwt beam="1">  1       21 0.56576704E-01 0.44891624E+03</pdfrwt>
<pdfrwt beam="2">  1       21 0.88556693E-01 0.44891624E+03</pdfrwt>
<totfact> 0.27852962E+03</totfact>
</mgrwt>
</event>
<event>
 4    1  0.4862039E-002  0.5395574E+03  0.7818608E-02  0.1003940E+00
         21   -1    0    0  501  502  0.00000000000E+00  0.00000000000E+00  0.17988508895E+04  0.17988508895E+04  0.00000000000E+00 0.  1.
         21   -1    0    0  502  503 -0.00000000000E+00 -0.00000000000E+00 -0.28103670154E+03  0.28103670154E+03  0.00000000000E+00 0. -1.
    9000007    1    1    2  501    0 -0.34311730147E+03 -0.11572669517E+03  0.14361810787E+04  0.15341897671E+04  0.40000000000E+03 0.  1.
   -9000007    1    1    2    0  503  0.34311730147E+03  0.11572669517E+03  0.81633109244E+02  0.54569782395E+03  0.40000000000E+03 0. -1.
<mgrwt>
<rscale>  2 0.53955737E+03</rscale>
<asrwt>0</asrwt>
<pdfrwt beam="1">  1       21 0.27674628E+00 0.53955737E+03</pdfrwt>
<pdfrwt beam="2">  1       21 0.43236417E-01 0.53955737E+03</pdfrwt>
<totfact> 0.17952444E+02</totfact>
</mgrwt>
</event>
<event>
 4    1  0.4862039E-002  0.4173534E+03  0.7818608E-02  0.1037931E+00
         21   -1    0    0  503  502  0.00000000000E+00  0.00000000000E+00  0.38400036654E+03  0.38400036654E+03  0.00000000000E+00 0.  1.
         21   -1    0    0  501  503 -0.00000000000E+00 -0.00000000000E+00 -0.10460112360E+04  0.10460112360E+04  0.00000000000E+00 0.  1.
    9000007    1    1    2  501    0  0.75143196659E+02  0.92397776514E+02 -0.86909157970E+03  0.96410788971E+03  0.40000000000E+03 0.  1.
   -9000007    1    1    2    0  502 -0.75143196659E+02 -0.92397776514E+02  0.20708071021E+03  0.46590371285E+03  0.40000000000E+03 0.  1.
<mgrwt>
<rscale>  2 0.41735339E+03</rscale>
<asrwt>0</asrwt>
<pdfrwt beam="1">  1       21 0.59076980E-01 0.41735339E+03</pdfrwt>
<pdfrwt beam="2">  1       21 0.16092480E+00 0.41735339E+03</pdfrwt>
<totfact> 0.56162954E+02</totfact>
</mgrwt>
</event>
<event>
 4    1  0.4862039E-002  0.4270385E+03  0.7818608E-02  0.1034800E+00
         21   -1    0    0  503  502  0.00000000000E+00  0.00000000000E+00  0.39322373518E+03  0.39322373518E+03  0.00000000000E+00 0. -1.
         21   -1    0    0  501  503 -0.00000000000E+00 -0.00000000000E+00 -0.66263543100E+03  0.66263543100E+03  0.00000000000E+00 0. -1.
    9000007    1    1    2  501    0  0.11586552176E+03  0.94535812526E+02 -0.42392571978E+03  0.60172656155E+03  0.40000000000E+03 0. -1.
   -9000007    1    1    2    0  502 -0.11586552176E+03 -0.94535812526E+02  0.15451402396E+03  0.45413260462E+03  0.40000000000E+03 0. -1.
<mgrwt>
<rscale>  2 0.42703845E+03</rscale>
<asrwt>0</asrwt>
<pdfrwt beam="1">  1       21 0.60495960E-01 0.42703845E+03</pdfrwt>
<pdfrwt beam="2">  1       21 0.10194391E+00 0.42703845E+03</pdfrwt>
<totfact> 0.17317836E+03</totfact>
</mgrwt>
</event>
<event>
 4    1  0.4862039E-002  0.5443953E+03  0.7818608E-02  0.1002800E+00
         21   -1    0    0  503  502  0.00000000000E+00  0.00000000000E+00  0.22300502169E+04  0.22300502169E+04  0.00000000000E+00 0.  1.
         21   -1    0    0  501  503 -0.00000000000E+00 -0.00000000000E+00 -0.42153000538E+03  0.42153000538E+03  0.00000000000E+00 0. -1.
    9000007    1    1    2  501    0 -0.15646016180E+03  0.33449436446E+03 -0.19280845011E+03  0.57753039792E+03  0.40000000000E+03 0. -1.
   -9000007    1    1    2    0  502  0.15646016180E+03 -0.33449436446E+03  0.20013286617E+04  0.20740498244E+04  0.40000000000E+03 0.  1.
<mgrwt>
<rscale>  2 0.54439532E+03</rscale>
<asrwt>0</asrwt>
<pdfrwt beam="1">  1       21 0.34308464E+00 0.54439532E+03</pdfrwt>
<pdfrwt beam="2">  1       21 0.64850771E-01 0.54439532E+03</pdfrwt>
<totfact> 0.29475730E+01</totfact>
</mgrwt>
</event>
<event>
 4    1  0.4862039E-002  0.4353380E+03  0.7818608E-02  0.1032187E+00
         21   -1    0    0  501  502  0.00000000000E+00  0.00000000000E+00  0.50609973087E+03  0.50609973087E+03  0.00000000000E+00 0. -1.
         21   -1    0    0  502  503 -0.00000000000E+00 -0.00000000000E+00 -0.51735497809E+03  0.51735497809E+03  0.00000000000E+00 0. -1.
    9000007    1    1    2  501    0  0.49977737019E+02  0.16438174942E+03 -0.27455666297E+03  0.51468485010E+03  0.40000000000E+03 0. -1.
   -9000007    1    1    2    0  503 -0.49977737019E+02 -0.16438174942E+03  0.26330141575E+03  0.50876985886E+03  0.40000000000E+03 0. -1.
<mgrwt>
<rscale>  2 0.43533795E+03</rscale>
<asrwt>0</asrwt>
<pdfrwt beam="1">  1       21 0.77861497E-01 0.43533795E+03</pdfrwt>
<pdfrwt beam="2">  1       21 0.79593073E-01 0.43533795E+03</pdfrwt>
<totfact> 0.17613403E+03</totfact>
</mgrwt>
</event>
<event>
 4    1  0.4862039E-002  0.4240312E+03  0.7818608E-02  0.1035762E+00
         21   -1    0    0  503  502  0.00000000000E+00  0.00000000000E+00  0.64319876617E+03  0.64319876617E+03  0.00000000000E+00 0.  1.
         21   -1    0    0  501  503 -0.00000000000E+00 -0.00000000000E+00 -0.96813408140E+03  0.96813408140E+03  0.00000000000E+00 0. -1.
    9000007    1    1    2  501    0 -0.96601684414E+01 -0.14038934697E+03 -0.84193380979E+03  0.94268500978E+03  0.40000000000E+03 0. -1.
   -9000007    1    1    2    0  502  0.96601684414E+01  0.14038934697E+03  0.51699849456E+03  0.66864783779E+03  0.40000000000E+03 0.  1.
<mgrwt>
<rscale>  2 0.42403123E+03</rscale>
<asrwt>0</asrwt>
<pdfrwt beam="1">  1       21 0.98953657E-01 0.42403123E+03</pdfrwt>
<pdfrwt beam="2">  1       21 0.14894370E+00 0.42403123E+03</pdfrwt>
<totfact> 0.21232392E+02</totfact>
</mgrwt>
</event>
<event>
 4    1  0.4862039E-002  0.4400865E+03  0.7818608E-02  0.1030720E+00
         21   -1    0    0  501  502  0.00000000000E+00  0.00000000000E+00  0.72559709698E+03  0.72559709698E+03  0.00000000000E+00 0.  1.
         21   -1    0    0  502  503 -0.00000000000E+00 -0.00000000000E+00 -0.29058291261E+03  0.29058291261E+03  0.00000000000E+00 0. -1.
    9000007    1    1    2  501    0  0.17217538415E+03 -0.63496516246E+02  0.36249852065E+03  0.57015905496E+03  0.40000000000E+03 0.  1.
   -9000007    1    1    2    0  503 -0.17217538415E+03  0.63496516246E+02  0.72515663725E+02  0.44602095463E+03  0.40000000000E+03 0.  1.
<mgrwt>
<rscale>  2 0.44008655E+03</rscale>
<asrwt>0</asrwt>
<pdfrwt beam="1">  1       21 0.11163032E+00 0.44008655E+03</pdfrwt>
<pdfrwt beam="2">  1       21 0.44705064E-01 0.44008655E+03</pdfrwt>
<totfact> 0.26312588E+03</totfact>
</mgrwt>
</event>
<event>
 4    1  0.4862039E-002  0.4478904E+03  0.7818608E-02  0.1028353E+00
         21   -1    0    0  501  502  0.00000000000E+00  0.00000000000E+00  0.49227025724E+03  0.49227025724E+03  0.00000000000E+00 0.  1.
         21   -1    0    0  502  503 -0.00000000000E+00 -0.00000000000E+00 -0.44561761951E+03  0.44561761951E+03  0.00000000000E+00 0.  1.
    9000007    1    1    2  501    0 -0.16085953203E+03  0.12136718376E+03 -0.11380517637E+03  0.46212271153E+03  0.40000000000E+03 0.  1.
   -9000007    1    1    2    0  503  0.16085953203E+03 -0.12136718376E+03  0.16045781410E+03  0.47576516523E+03  0.40000000000E+03 0.  1.
<mgrwt>
<rscale>  2 0.44789037E+03</rscale>
<asrwt>0</asrwt>
<pdfrwt beam="1">  1       21 0.75733885E-01 0.44789037E+03</pdfrwt>
<pdfrwt beam="2">  1       21 0.68556557E-01 0.44789037E+03</pdfrwt>
<totfact> 0.26227347E+03</totfact>
</mgrwt>
</event>
<event>
 4    1  0.4862039E-002  0.4959671E+03  0.7818608E-02  0.1014837E+00
         21   -1    0    0  503  502  0.00000000000E+00  0.00000000000E+00  0.15732548795E+03  0.15732548795E+03  0.00000000000E+00 0. -1.
         21   -1    0    0  501  503 -0.00000000000E+00 -0.00000000000E+00 -0.17877781291E+04  0.17877781291E+04  0.00000000000E+00 0. -1.
    9000007    1    1    2  501    0  0.25559348486E+02  0.29211315399E+03 -0.11596704454E+04  0.12612767012E+04  0.40000000000E+03 0. -1.
   -9000007    1    1    2    0  502 -0.25559348486E+02 -0.29211315399E+03 -0.47078219575E+03  0.68382691587E+03  0.40000000000E+03 0. -1.
<mgrwt>
<rscale>  2 0.49596711E+03</rscale>
<asrwt>0</asrwt>
<pdfrwt beam="1">  1       21 0.24203922E-01 0.49596711E+03</pdfrwt>
<pdfrwt beam="2">  1       21 0.27504278E+00 0.49596711E+03</pdfrwt>
<totfact> 0.60347537E+02</totfact>
</mgrwt>
</event>
<event>
 4    1  0.4862039E-002  0.4081484E+03  0.7818608E-02  0.1040994E+00
         21   -1    0    0  503  502  0.00000000000E+00  0.00000000000E+00  0.11796533339E+04  0.11796533339E+04  0.00000000000E+00 0. -1.
         21   -1    0    0  501  503 -0.00000000000E+00 -0.00000000000E+00 -0.14378860434E+03  0.14378860434E+03  0.00000000000E+00 0. -1.
    9000007    1    1    2  501    0 -0.20915215795E+02  0.78407274489E+02  0.42940962615E+03  0.59243377181E+03  0.40000000000E+03 0.  1.
   -9000007    1    1    2    0  502  0.20915215795E+02 -0.78407274489E+02  0.60645510340E+03  0.73100816643E+03  0.40000000000E+03 0.  1.
<mgrwt>
<rscale>  2 0.40814844E+03</rscale>
<asrwt>0</asrwt>
<pdfrwt beam="1">  1       21 0.18148512E+00 0.40814844E+03</pdfrwt>
<pdfrwt beam="2">  1       21 0.22121324E-01 0.40814844E+03</pdfrwt>
<totfact> 0.29579157E+03</totfact>
</mgrwt>
</event>
<event>
 4    1  0.4862039E-002  0.6237770E+03  0.7818608E-02  0.9857268E-01
         21   -1    0    0  501  502  0.00000000000E+00  0.00000000000E+00  0.14647473777E+04  0.14647473777E+04  0.00000000000E+00 0. -1.
         21   -1    0    0  502  503 -0.00000000000E+00 -0.00000000000E+00 -0.33865820305E+03  0.33865820305E+03  0.00000000000E+00 0.  1.
    9000007    1    1    2  501    0  0.11918902686E+02 -0.47849313819E+03  0.98173557786E+03  0.11631433654E+04  0.40000000000E+03 0. -1.
   -9000007    1    1    2    0  503 -0.11918902686E+02  0.47849313819E+03  0.14435359677E+03  0.64026221537E+03  0.40000000000E+03 0.  1.
<mgrwt>
<rscale>  2 0.62377700E+03</rscale>
<asrwt>0</asrwt>
<pdfrwt beam="1">  1       21 0.22534575E+00 0.62377700E+03</pdfrwt>
<pdfrwt beam="2">  1       21 0.52101263E-01 0.62377700E+03</pdfrwt>
<totfact> 0.24336360E+02</totfact>
</mgrwt>
</event>
<event>
 4    1  0.4862039E-002  0.4107964E+03  0.7818608E-02  0.1040104E+00
         21   -1    0    0  503  502  0.00000000000E+00  0.00000000000E+00  0.11695350064E+04  0.11695350064E+04  0.00000000000E+00 0. -1.
         21   -1    0    0  501  503 -0.00000000000E+00 -0.00000000000E+00 -0.20297019120E+03  0.20297019120E+03  0.00000000000E+00 0. -1.
    9000007    1    1    2  501    0 -0.89707164226E+02  0.26576845424E+02  0.85226756103E+03  0.94610448662E+03  0.40000000000E+03 0. -1.
   -9000007    1    1    2    0  502  0.89707164226E+02 -0.26576845424E+02  0.11429725419E+03  0.42640071100E+03  0.40000000000E+03 0. -1.
<mgrwt>
<rscale>  2 0.41079643E+03</rscale>
<asrwt>0</asrwt>
<pdfrwt beam="1">  1       21 0.17992846E+00 0.41079643E+03</pdfrwt>
<pdfrwt beam="2">  1       21 0.31226184E-01 0.41079643E+03</pdfrwt>
<totfact> 0.15448563E+03</totfact>
</mgrwt>
</event>
<event>
 4    1  0.4862039E-002  0.4215746E+03  0.7818608E-02  0.1036555E+00
         21   -1    0    0  503  502  0.00000000000E+00  0.00000000000E+00  0.11536527180E+04  0.11536527180E+04  0.00000000000E+00 0. -1.
         21   -1    0    0  501  503 -0.00000000000E+00 -0.00000000000E+00 -0.31955587691E+03  0.31955587691E+03  0.00000000000E+00 0. -1.
    9000007    1    1    2  501    0 -0.10283453295E+03 -0.84558953414E+02 -0.11305659897E+03  0.43647102119E+03  0.40000000000E+03 0. -1.
   -9000007    1    1    2    0  502  0.10283453295E+03  0.84558953414E+02  0.94715344006E+03  0.10367375737E+04  0.40000000000E+03 0. -1.
<mgrwt>
<rscale>  2 0.42157462E+03</rscale>
<asrwt>0</asrwt>
<pdfrwt beam="1">  1       21 0.17748503E+00 0.42157462E+03</pdfrwt>
<pdfrwt beam="2">  1       21 0.49162443E-01 0.42157462E+03</pdfrwt>
<totfact> 0.63000264E+02</totfact>
</mgrwt>
</event>
<event>
 4    1  0.4862039E-002  0.4573327E+03  0.7818608E-02  0.1025558E+00
         21   -1    0    0  501  502  0.00000000000E+00  0.00000000000E+00  0.18358884715E+04  0.18358884715E+04  0.00000000000E+00 0.  1.
         21   -1    0    0  502  503 -0.00000000000E+00 -0.00000000000E+00 -0.13609012996E+03  0.13609012996E+03  0.00000000000E+00 0.  1.
    9000007    1    1    2  501    0 -0.10805223333E+03  0.19359213736E+03  0.12478195005E+04  0.13289870980E+04  0.40000000000E+03 0.  1.
   -9000007    1    1    2    0  503  0.10805223333E+03 -0.19359213736E+03  0.45197884096E+03  0.64299150341E+03  0.40000000000E+03 0.  1.
<mgrwt>
<rscale>  2 0.45733270E+03</rscale>
<asrwt>0</asrwt>
<pdfrwt beam="1">  1       21 0.28244436E+00 0.45733270E+03</pdfrwt>
<pdfrwt beam="2">  1       21 0.20936944E-01 0.45733270E+03</pdfrwt>
<totfact> 0.73439906E+02</totfact>
</mgrwt>
</event>
<event>
 4    1  0.4862039E-002  0.4102154E+03  0.7818608E-02  0.1040299E+00
         21   -1    0    0  503  502  0.00000000000E+00  0.00000000000E+00  0.10074080386E+04  0.10074080386E+04  0.00000000000E+00 0.  1.
         21   -1    0    0  501  503 -0.00000000000E+00 -0.00000000000E+00 -0.27267285072E+03  0.27267285072E+03  0.00000000000E+00 0.  1.
    9000007    1    1    2  501    0  0.10483842818E+02 -0.90370008320E+02 -0.31003281418E+02  0.41138528513E+03  0.40000000000E+03 0.  1.
   -9000007    1    1    2    0  502 -0.10483842818E+02  0.90370008320E+02  0.76573846929E+03  0.86869560417E+03  0.40000000000E+03 0.  1.
<mgrwt>
<rscale>  2 0.41021537E+03</rscale>
<asrwt>0</asrwt>
<pdfrwt beam="1">  1       21 0.15498585E+00 0.41021537E+03</pdfrwt>
<pdfrwt beam="2">  1       21 0.41949670E-01 0.41021537E+03</pdfrwt>
<totfact> 0.12935963E+03</totfact>
</mgrwt>
</event>
<event>
 4    1  0.4862039E-002  0.4551279E+03  0.7818608E-02  0.1026204E+00
         21   -1    0    0  503  502  0.00000000000E+00  0.00000000000E+00  0.75498965978E+03  0.75498965978E+03  0.00000000000E+00 0. -1.
         21   -1    0    0  501  503 -0.00000000000E+00 -0.00000000000E+00 -0.45668300987E+03  0.45668300987E+03  0.00000000000E+00 0.  1.
    9000007    1    1    2  501    0 -0.91145300185E+01  0.21692930128E+03 -0.23364038361E+03  0.51159478620E+03  0.40000000000E+03 0.  1.
   -9000007    1    1    2    0  502  0.91145300185E+01 -0.21692930128E+03  0.53194703353E+03  0.70007788345E+03  0.40000000000E+03 0. -1.
<mgrwt>
<rscale>  2 0.45512789E+03</rscale>
<asrwt>0</asrwt>
<pdfrwt beam="1">  1       21 0.11615226E+00 0.45512789E+03</pdfrwt>
<pdfrwt beam="2">  1       21 0.70258925E-01 0.45512789E+03</pdfrwt>
<totfact> 0.88878027E+02</totfact>
</mgrwt>
</event>
<event>
 4    1  0.4862039E-002  0.4417773E+03  0.7818608E-02  0.1030203E+00
         21   -1    0    0  503  502  0.00000000000E+00  0.00000000000E+00  0.95871118032E+03  0.95871118032E+03  0.00000000000E+00 0. -1.
         21   -1    0    0  501  503 -0.00000000000E+00 -0.00000000000E+00 -0.34262059519E+03  0.34262059519E+03  0.00000000000E+00 0. -1.
    9000007    1    1    2  501    0 -0.17198463544E+03 -0.74755974249E+02 -0.10646367235E+03  0.45442456365E+03  0.40000000000E+03 0. -1.
   -9000007    1    1    2    0  502  0.17198463544E+03  0.74755974249E+02  0.72255425748E+03  0.84690721187E+03  0.40000000000E+03 0. -1.
<mgrwt>
<rscale>  2 0.44177729E+03</rscale>
<asrwt>0</asrwt>
<pdfrwt beam="1">  1       21 0.14749403E+00 0.44177729E+03</pdfrwt>
<pdfrwt beam="2">  1       21 0.52710861E-01 0.44177729E+03</pdfrwt>
<totfact> 0.90208874E+02</totfact>
</mgrwt>
</event>
<event>
 4    1  0.4862039E-002  0.4836890E+03  0.7818608E-02  0.1018126E+00
         21   -1    0    0  501  502  0.00000000000E+00  0.00000000000E+00  0.16446210190E+04  0.16446210190E+04  0.00000000000E+00 0. -1.
         21   -1    0    0  502  503 -0.00000000000E+00 -0.00000000000E+00 -0.23745560515E+03  0.23745560515E+03  0.00000000000E+00 0. -1.
    9000007    1    1    2  501    0 -0.25680384874E+03 -0.89480969071E+02  0.12994322953E+04  0.13865350160E+04  0.40000000000E+03 0. -1.
   -9000007    1    1    2    0  503  0.25680384874E+03  0.89480969071E+02  0.10773311854E+03  0.49554160813E+03  0.40000000000E+03 0. -1.
<mgrwt>
<rscale>  2 0.48368901E+03</rscale>
<asrwt>0</asrwt>
<pdfrwt beam="1">  1       21 0.25301861E+00 0.48368901E+03</pdfrwt>
<pdfrwt beam="2">  1       21 0.36531633E-01 0.48368901E+03</pdfrwt>
<totfact> 0.36486299E+02</totfact>
</mgrwt>
</event>
<event>
 4    1  0.4862039E-002  0.4143218E+03  0.7818608E-02  0.1038930E+00
         21   -1    0    0  503  502  0.00000000000E+00  0.00000000000E+00  0.31316135091E+03  0.31316135091E+03  0.00000000000E+00 0.  1.
         21   -1    0    0  501  503 -0.00000000000E+00 -0.00000000000E+00 -0.63549446219E+03  0.63549446219E+03  0.00000000000E+00 0.  1.
    9000007    1    1    2  501    0 -0.85561279452E+02 -0.65892336009E+02 -0.33700570169E+03  0.53407431642E+03  0.40000000000E+03 0.  1.
   -9000007    1    1    2    0  502  0.85561279452E+02  0.65892336009E+02  0.14672590404E+02  0.41458149669E+03  0.40000000000E+03 0.  1.
<mgrwt>
<rscale>  2 0.41432177E+03</rscale>
<asrwt>0</asrwt>
<pdfrwt beam="1">  1       21 0.48178670E-01 0.41432177E+03</pdfrwt>
<pdfrwt beam="2">  1       21 0.97768377E-01 0.41432177E+03</pdfrwt>
<totfact> 0.31428365E+03</totfact>
</mgrwt>
</event>
<event>
 4    1  0.4862039E-002  0.4491209E+03  0.7818608E-02  0.1027985E+00
         21   -1    0    0  503  502  0.00000000000E+00  0.00000000000E+00  0.10178453491E+04  0.10178453491E+04  0.00000000000E+00 0. -1.
         21   -1    0    0  501  503 -0.00000000000E+00 -0.00000000000E+00 -0.20318955621E+03  0.20318955621E+03  0.00000000000E+00 0. -1.
    9000007    1    1    2  501    0  0.17200474374E+03 -0.11010862592E+03  0.31139953101E+03  0.54651551605E+03  0.40000000000E+03 0. -1.
   -9000007    1    1    2    0  502 -0.17200474374E+03  0.11010862592E+03  0.50325626193E+03  0.67451938930E+03  0.40000000000E+03 0. -1.
<mgrwt>
<rscale>  2 0.44912085E+03</rscale>
<asrwt>0</asrwt>
<pdfrwt beam="1">  1       21 0.15659159E+00 0.44912085E+03</pdfrwt>
<pdfrwt beam="2">  1       21 0.31259932E-01 0.44912085E+03</pdfrwt>
<totfact> 0.22478931E+03</totfact>
</mgrwt>
</event>
<event>
 4    1  0.4862039E-002  0.4612541E+03  0.7818608E-02  0.1024418E+00
         21   -1    0    0  501  502  0.00000000000E+00  0.00000000000E+00  0.52079705575E+03  0.52079705575E+03  0.00000000000E+00 0. -1.
         21   -1    0    0  502  503 -0.00000000000E+00 -0.00000000000E+00 -0.91091601045E+03  0.91091601045E+03  0.00000000000E+00 0. -1.
    9000007    1    1    2  501    0  0.42056795049E+02  0.22580209758E+03  0.33657171845E+03  0.57099551919E+03  0.40000000000E+03 0. -1.
   -9000007    1    1    2    0  503 -0.42056795049E+02 -0.22580209758E+03 -0.72669067315E+03  0.86071754701E+03  0.40000000000E+03 0. -1.
<mgrwt>
<rscale>  2 0.46125412E+03</rscale>
<asrwt>0</asrwt>
<pdfrwt beam="1">  1       21 0.80122625E-01 0.46125412E+03</pdfrwt>
<pdfrwt beam="2">  1       21 0.14014092E+00 0.46125412E+03</pdfrwt>
<totfact> 0.40417352E+02</totfact>
</mgrwt>
</event>
<event>
 4    1  0.4862039E-002  0.5606025E+03  0.7818608E-02  0.9990692E-01
         21   -1    0    0  501  502  0.00000000000E+00  0.00000000000E+00  0.32539571991E+03  0.32539571991E+03  0.00000000000E+00 0.  1.
         21   -1    0    0  502  503 -0.00000000000E+00 -0.00000000000E+00 -0.10885460490E+04  0.10885460490E+04  0.00000000000E+00 0.  1.
    9000007    1    1    2  501    0 -0.39047034974E+03  0.42521426582E+02 -0.14419823926E+03  0.57885084258E+03  0.40000000000E+03 0.  1.
   -9000007    1    1    2    0  503  0.39047034974E+03 -0.42521426582E+02 -0.61895208989E+03  0.83509092638E+03  0.40000000000E+03 0.  1.
<mgrwt>
<rscale>  2 0.56060250E+03</rscale>
<asrwt>0</asrwt>
<pdfrwt beam="1">  1       21 0.50060879E-01 0.56060250E+03</pdfrwt>
<pdfrwt beam="2">  1       21 0.16746863E+00 0.56060250E+03</pdfrwt>
<totfact> 0.67542510E+02</totfact>
</mgrwt>
</event>
<event>
 4    1  0.4862039E-002  0.4004757E+03  0.7818608E-02  0.1043615E+00
         21   -1    0    0  501  502  0.00000000000E+00  0.00000000000E+00  0.36447572990E+03  0.36447572990E+03  0.00000000000E+00 0.  1.
         21   -1    0    0  502  503 -0.00000000000E+00 -0.00000000000E+00 -0.74442028387E+03  0.74442028387E+03  0.00000000000E+00 0.  1.
    9000007    1    1    2  501    0  0.12086397765E+02  0.15319983706E+02  0.16456841491E+03  0.43297060651E+03  0.40000000000E+03 0.  1.
   -9000007    1    1    2    0  503 -0.12086397765E+02 -0.15319983706E+02 -0.54451296888E+03  0.67592540727E+03  0.40000000000E+03 0.  1.
<mgrwt>
<rscale>  2 0.40047570E+03</rscale>
<asrwt>0</asrwt>
<pdfrwt beam="1">  1       21 0.56073190E-01 0.40047570E+03</pdfrwt>
<pdfrwt beam="2">  1       21 0.11452620E+00 0.40047570E+03</pdfrwt>
<totfact> 0.15503729E+03</totfact>
</mgrwt>
</event>
<event>
 4    1  0.4862039E-002  0.4229918E+03  0.7818608E-02  0.1036097E+00
         21   -1    0    0  503  502  0.00000000000E+00  0.00000000000E+00  0.18754465417E+03  0.18754465417E+03  0.00000000000E+00 0.  1.
         21   -1    0    0  501  503 -0.00000000000E+00 -0.00000000000E+00 -0.12283977777E+04  0.12283977777E+04  0.00000000000E+00 0.  1.
    9000007    1    1    2  501    0  0.13695454545E+03  0.12864920072E+02 -0.85502013240E+03  0.95392949451E+03  0.40000000000E+03 0.  1.
   -9000007    1    1    2    0  502 -0.13695454545E+03 -0.12864920072E+02 -0.18583299113E+03  0.46201293735E+03  0.40000000000E+03 0.  1.
<mgrwt>
<rscale>  2 0.42299179E+03</rscale>
<asrwt>0</asrwt>
<pdfrwt beam="1">  1       21 0.28853023E-01 0.42299179E+03</pdfrwt>
<pdfrwt beam="2">  1       21 0.18898428E+00 0.42299179E+03</pdfrwt>
<totfact> 0.15552184E+03</totfact>
</mgrwt>
</event>
<event>
 4    1  0.4862039E-002  0.4034548E+03  0.7818608E-02  0.1042590E+00
         21   -1    0    0  501  502  0.00000000000E+00  0.00000000000E+00  0.31790516628E+03  0.31790516628E+03  0.00000000000E+00 0. -1.
         21   -1    0    0  502  503 -0.00000000000E+00 -0.00000000000E+00 -0.13008531691E+04  0.13008531691E+04  0.00000000000E+00 0. -1.
    9000007    1    1    2  501    0 -0.40743644207E+02  0.33402936295E+02  0.13879904452E+03  0.42666260143E+03  0.40000000000E+03 0. -1.
   -9000007    1    1    2    0  503  0.40743644207E+02 -0.33402936295E+02 -0.11217470473E+04  0.11920957340E+04  0.40000000000E+03 0. -1.
<mgrwt>
<rscale>  2 0.40345483E+03</rscale>
<asrwt>0</asrwt>
<pdfrwt beam="1">  1       21 0.48908486E-01 0.40345483E+03</pdfrwt>
<pdfrwt beam="2">  1       21 0.20013126E+00 0.40345483E+03</pdfrwt>
<totfact> 0.44993292E+02</totfact>
</mgrwt>
</event>
<event>
 4    1  0.4862039E-002  0.6808525E+03  0.7818608E-02  0.9750549E-01
         21   -1    0    0  503  502  0.00000000000E+00  0.00000000000E+00  0.14259851359E+04  0.14259851359E+04  0.00000000000E+00 0. -1.
         21   -1    0    0  501  503 -0.00000000000E+00 -0.00000000000E+00 -0.35954243408E+03  0.35954243408E+03  0.00000000000E+00 0. -1.
    9000007    1    1    2  501    0  0.38968565480E+03  0.38949360047E+03  0.25682623251E+03  0.72768117199E+03  0.40000000000E+03 0. -1.
   -9000007    1    1    2    0  502 -0.38968565480E+03 -0.38949360047E+03  0.80961646928E+03  0.10578463980E+04  0.40000000000E+03 0. -1.
<mgrwt>
<rscale>  2 0.68085253E+03</rscale>
<asrwt>0</asrwt>
<pdfrwt beam="1">  1       21 0.21938233E+00 0.68085253E+03</pdfrwt>
<pdfrwt beam="2">  1       21 0.55314221E-01 0.68085253E+03</pdfrwt>
<totfact> 0.22885070E+02</totfact>
</mgrwt>
</event>
<event>
 4    1  0.4862039E-002  0.4721969E+03  0.7818608E-02  0.1021302E+00
         21   -1    0    0  503  502  0.00000000000E+00  0.00000000000E+00  0.77992196311E+03  0.77992196311E+03  0.00000000000E+00 0.  1.
         21   -1    0    0  501  503 -0.00000000000E+00 -0.00000000000E+00 -0.51774853248E+03  0.51774853248E+03  0.00000000000E+00 0. -1.
    9000007    1    1    2  501    0  0.19937943111E+03 -0.15237377674E+03 -0.30311236279E+03  0.56111231484E+03  0.40000000000E+03 0. -1.
   -9000007    1    1    2    0  502 -0.19937943111E+03  0.15237377674E+03  0.56528579342E+03  0.73655818075E+03  0.40000000000E+03 0.  1.
<mgrwt>
<rscale>  2 0.47219691E+03</rscale>
<asrwt>0</asrwt>
<pdfrwt beam="1">  1       21 0.11998799E+00 0.47219691E+03</pdfrwt>
<pdfrwt beam="2">  1       21 0.79653620E-01 0.47219691E+03</pdfrwt>
<totfact> 0.61045410E+02</totfact>
</mgrwt>
</event>
<event>
 4    1  0.4862039E-002  0.4096907E+03  0.7818608E-02  0.1040475E+00
         21   -1    0    0  503  502  0.00000000000E+00  0.00000000000E+00  0.24938637885E+03  0.24938637885E+03  0.00000000000E+00 0. -1.
         21   -1    0    0  501  503 -0.00000000000E+00 -0.00000000000E+00 -0.67360064837E+03  0.67360064837E+03  0.00000000000E+00 0. -1.
    9000007    1    1    2  501    0  0.34516410486E+02 -0.81578812006E+02 -0.22544605824E+03  0.46762421915E+03  0.40000000000E+03 0.  1.
   -9000007    1    1    2    0  502 -0.34516410486E+02  0.81578812006E+02 -0.19876821128E+03  0.45536280807E+03  0.40000000000E+03 0.  1.
<mgrwt>
<rscale>  2 0.40969072E+03</rscale>
<asrwt>0</asrwt>
<pdfrwt beam="1">  1       21 0.38367136E-01 0.40969072E+03</pdfrwt>
<pdfrwt beam="2">  1       21 0.10363087E+00 0.40969072E+03</pdfrwt>
<totfact> 0.43862212E+03</totfact>
</mgrwt>
</event>
<event>
 4    1  0.4862039E-002  0.4435643E+03  0.7818608E-02  0.1029659E+00
         21   -1    0    0  503  502  0.00000000000E+00  0.00000000000E+00  0.10762213558E+04  0.10762213558E+04  0.00000000000E+00 0. -1.
         21   -1    0    0  501  503 -0.00000000000E+00 -0.00000000000E+00 -0.45548857478E+03  0.45548857478E+03  0.00000000000E+00 0. -1.
    9000007    1    1    2  501    0 -0.19115084284E+03  0.14512183052E+02 -0.28218965318E+03  0.52571879226E+03  0.40000000000E+03 0. -1.
   -9000007    1    1    2    0  502  0.19115084284E+03 -0.14512183052E+02  0.90292243425E+03  0.10059911384E+04  0.40000000000E+03 0. -1.
<mgrwt>
<rscale>  2 0.44356425E+03</rscale>
<asrwt>0</asrwt>
<pdfrwt beam="1">  1       21 0.16557252E+00 0.44356425E+03</pdfrwt>
<pdfrwt beam="2">  1       21 0.70075166E-01 0.44356425E+03</pdfrwt>
<totfact> 0.35061147E+02</totfact>
</mgrwt>
</event>
<event>
 4    1  0.4862039E-002  0.4033032E+03  0.7818608E-02  0.1042642E+00
         21   -1    0    0  501  502  0.00000000000E+00  0.00000000000E+00  0.11905042197E+04  0.11905042197E+04  0.00000000000E+00 0.  1.
         21   -1    0    0  502  503 -0.00000000000E+00 -0.00000000000E+00 -0.14374544321E+03  0.14374544321E+03  0.00000000000E+00 0.  1.
    9000007    1    1    2  501    0 -0.35429488357E+02 -0.37392458654E+02  0.67185083449E+03  0.78360512276E+03  0.40000000000E+03 0.  1.
   -9000007    1    1    2    0  503  0.35429488357E+02  0.37392458654E+02  0.37490794198E+03  0.55064454013E+03  0.40000000000E+03 0.  1.
<mgrwt>
<rscale>  2 0.40330317E+03</rscale>
<asrwt>0</asrwt>
<pdfrwt beam="1">  1       21 0.18315449E+00 0.40330317E+03</pdfrwt>
<pdfrwt beam="2">  1       21 0.22114684E-01 0.40330317E+03</pdfrwt>
<totfact> 0.28877034E+03</totfact>
</mgrwt>
</event>
<event>
 4    1  0.4862039E-002  0.4566985E+03  0.7818608E-02  0.1025743E+00
         21   -1    0    0  501  502  0.00000000000E+00  0.00000000000E+00  0.94278354743E+03  0.94278354743E+03  0.00000000000E+00 0. -1.
         21   -1    0    0  502  503 -0.00000000000E+00 -0.00000000000E+00 -0.28433292350E+03  0.28433292350E+03  0.00000000000E+00 0. -1.
    9000007    1    1    2  501    0 -0.61546086846E+02  0.21162607877E+03  0.61826762843E+03  0.76865361404E+03  0.40000000000E+03 0. -1.
   -9000007    1    1    2    0  503  0.61546086846E+02 -0.21162607877E+03  0.40182995509E+02  0.45846285689E+03  0.40000000000E+03 0. -1.
<mgrwt>
<rscale>  2 0.45669850E+03</rscale>
<asrwt>0</asrwt>
<pdfrwt beam="1">  1       21 0.14504362E+00 0.45669850E+03</pdfrwt>
<pdfrwt beam="2">  1       21 0.43743527E-01 0.45669850E+03</pdfrwt>
<totfact> 0.13911712E+03</totfact>
</mgrwt>
</event>
<event>
 4    1  0.4862039E-002  0.4309814E+03  0.7818608E-02  0.1033550E+00
         21   -1    0    0  501  502  0.00000000000E+00  0.00000000000E+00  0.51087718939E+03  0.51087718939E+03  0.00000000000E+00 0.  1.
         21   -1    0    0  502  503 -0.00000000000E+00 -0.00000000000E+00 -0.68710458115E+03  0.68710458115E+03  0.00000000000E+00 0.  1.
    9000007    1    1    2  501    0  0.12824336615E+02  0.15993909376E+03  0.32290550138E+03  0.53852849520E+03  0.40000000000E+03 0.  1.
   -9000007    1    1    2    0  503 -0.12824336615E+02 -0.15993909376E+03 -0.49913289315E+03  0.65945327533E+03  0.40000000000E+03 0.  1.
<mgrwt>
<rscale>  2 0.43098141E+03</rscale>
<asrwt>0</asrwt>
<pdfrwt beam="1">  1       21 0.78596490E-01 0.43098141E+03</pdfrwt>
<pdfrwt beam="2">  1       21 0.10570840E+00 0.43098141E+03</pdfrwt>
<totfact> 0.87909904E+02</totfact>
</mgrwt>
</event>
<event>
 4    1  0.4862039E-002  0.4777189E+03  0.7818608E-02  0.1019764E+00
         21   -1    0    0  501  502  0.00000000000E+00  0.00000000000E+00  0.48212652701E+03  0.48212652701E+03  0.00000000000E+00 0.  1.
         21   -1    0    0  502  503 -0.00000000000E+00 -0.00000000000E+00 -0.52250509581E+03  0.52250509581E+03  0.00000000000E+00 0.  1.
    9000007    1    1    2  501    0  0.10440736555E+03 -0.23940438112E+03  0.13387744222E+03  0.49612349795E+03  0.40000000000E+03 0.  1.
   -9000007    1    1    2    0  503 -0.10440736555E+03  0.23940438112E+03 -0.17425601102E+03  0.50850812487E+03  0.40000000000E+03 0.  1.
<mgrwt>
<rscale>  2 0.47771891E+03</rscale>
<asrwt>0</asrwt>
<pdfrwt beam="1">  1       21 0.74173312E-01 0.47771891E+03</pdfrwt>
<pdfrwt beam="2">  1       21 0.80385399E-01 0.47771891E+03</pdfrwt>
<totfact> 0.18932891E+03</totfact>
</mgrwt>
</event>
<event>
 4    1  0.4862039E-002  0.4507801E+03  0.7818608E-02  0.1027490E+00
         21   -1    0    0  503  502  0.00000000000E+00  0.00000000000E+00  0.45211959635E+03  0.45211959635E+03  0.00000000000E+00 0. -1.
         21   -1    0    0  501  503 -0.00000000000E+00 -0.00000000000E+00 -0.74153436410E+03  0.74153436410E+03  0.00000000000E+00 0. -1.
    9000007    1    1    2  501    0  0.22790597045E+02  0.20659928579E+03 -0.51928432015E+03  0.68764735247E+03  0.40000000000E+03 0. -1.
   -9000007    1    1    2    0  502 -0.22790597045E+02 -0.20659928579E+03  0.22986955239E+03  0.50600660798E+03  0.40000000000E+03 0. -1.
<mgrwt>
<rscale>  2 0.45078008E+03</rscale>
<asrwt>0</asrwt>
<pdfrwt beam="1">  1       21 0.69556862E-01 0.45078008E+03</pdfrwt>
<pdfrwt beam="2">  1       21 0.11408221E+00 0.45078008E+03</pdfrwt>
<totfact> 0.95267133E+02</totfact>
</mgrwt>
</event>
<event>
 4    1  0.4862039E-002  0.5916452E+03  0.7818608E-02  0.9922893E-01
         21   -1    0    0  501  502  0.00000000000E+00  0.00000000000E+00  0.44612869917E+03  0.44612869917E+03  0.00000000000E+00 0. -1.
         21   -1    0    0  502  503 -0.00000000000E+00 -0.00000000000E+00 -0.78471392518E+03  0.78471392518E+03  0.00000000000E+00 0. -1.
    9000007    1    1    2  501    0  0.25440905965E+03  0.35400568581E+03 -0.17582205201E+03  0.61721745697E+03  0.40000000000E+03 0. -1.
   -9000007    1    1    2    0  503 -0.25440905965E+03 -0.35400568581E+03 -0.16276317401E+03  0.61362516737E+03  0.40000000000E+03 0. -1.
<mgrwt>
<rscale>  2 0.59164516E+03</rscale>
<asrwt>0</asrwt>
<pdfrwt beam="1">  1       21 0.68635185E-01 0.59164516E+03</pdfrwt>
<pdfrwt beam="2">  1       21 0.12072522E+00 0.59164516E+03</pdfrwt>
<totfact> 0.80825382E+02</totfact>
</mgrwt>
</event>
<event>
 4    1  0.4862039E-002  0.4086487E+03  0.7818608E-02  0.1040825E+00
         21   -1    0    0  501  502  0.00000000000E+00  0.00000000000E+00  0.93412370330E+03  0.93412370330E+03  0.00000000000E+00 0. -1.
         21   -1    0    0  502  503 -0.00000000000E+00 -0.00000000000E+00 -0.22462377092E+03  0.22462377092E+03  0.00000000000E+00 0.  1.
    9000007    1    1    2  501    0  0.81709015818E+02  0.17814932587E+02  0.61651777791E+03  0.73965390932E+03  0.40000000000E+03 0. -1.
   -9000007    1    1    2    0  503 -0.81709015818E+02 -0.17814932587E+02  0.92982154474E+02  0.41909356490E+03  0.40000000000E+03 0.  1.
<mgrwt>
<rscale>  2 0.40864867E+03</rscale>
<asrwt>0</asrwt>
<pdfrwt beam="1">  1       21 0.14371134E+00 0.40864867E+03</pdfrwt>
<pdfrwt beam="2">  1       21 0.34557504E-01 0.40864867E+03</pdfrwt>
<totfact> 0.23587944E+03</totfact>
</mgrwt>
</event>
<event>
 4    1  0.4862039E-002  0.4781658E+03  0.7818608E-02  0.1019640E+00
         21   -1    0    0  503  502  0.00000000000E+00  0.00000000000E+00  0.21790259902E+03  0.21790259902E+03  0.00000000000E+00 0.  1.
         21   -1    0    0  501  503 -0.00000000000E+00 -0.00000000000E+00 -0.15285682048E+04  0.15285682048E+04  0.00000000000E+00 0. -1.
    9000007    1    1    2  501    0  0.24750179362E+03  0.85938176079E+02 -0.11443046151E+04  0.12401917432E+04  0.40000000000E+03 0. -1.
   -9000007    1    1    2    0  502 -0.24750179362E+03 -0.85938176079E+02 -0.16636099074E+03  0.50627906059E+03  0.40000000000E+03 0.  1.
<mgrwt>
<rscale>  2 0.47816577E+03</rscale>
<asrwt>0</asrwt>
<pdfrwt beam="1">  1       21 0.33523477E-01 0.47816577E+03</pdfrwt>
<pdfrwt beam="2">  1       21 0.23516434E+00 0.47816577E+03</pdfrwt>
<totfact> 0.56191139E+02</totfact>
</mgrwt>
</event>
<event>
 4    1  0.4862039E-002  0.4810344E+03  0.7818608E-02  0.1018851E+00
         21   -1    0    0  503  502  0.00000000000E+00  0.00000000000E+00  0.22796477357E+03  0.22796477357E+03  0.00000000000E+00 0.  1.
         21   -1    0    0  501  503 -0.00000000000E+00 -0.00000000000E+00 -0.10663121120E+04  0.10663121120E+04  0.00000000000E+00 0. -1.
    9000007    1    1    2  501    0 -0.11687814935E+03 -0.24027806782E+03 -0.56107381819E+03  0.73905201517E+03  0.40000000000E+03 0. -1.
   -9000007    1    1    2    0  502  0.11687814935E+03  0.24027806782E+03 -0.27727352022E+03  0.55522487038E+03  0.40000000000E+03 0. -1.
<mgrwt>
<rscale>  2 0.48103436E+03</rscale>
<asrwt>0</asrwt>
<pdfrwt beam="1">  1       21 0.35071504E-01 0.48103436E+03</pdfrwt>
<pdfrwt beam="2">  1       21 0.16404802E+00 0.48103436E+03</pdfrwt>
<totfact> 0.15467122E+03</totfact>
</mgrwt>
</event>
<event>
 4    1  0.4862039E-002  0.6960969E+03  0.7818608E-02  0.9723930E-01
         21   -1    0    0  503  502  0.00000000000E+00  0.00000000000E+00  0.95138731158E+03  0.95138731158E+03  0.00000000000E+00 0.  1.
         21   -1    0    0  501  503 -0.00000000000E+00 -0.00000000000E+00 -0.51120630265E+03  0.51120630265E+03  0.00000000000E+00 0. -1.
    9000007    1    1    2  501    0 -0.32140146245E+02 -0.56878633096E+03  0.17554821279E+03  0.71789139450E+03  0.40000000000E+03 0.  1.
   -9000007    1    1    2    0  502  0.32140146245E+02  0.56878633096E+03  0.26463279615E+03  0.74470221974E+03  0.40000000000E+03 0. -1.
<mgrwt>
<rscale>  2 0.69609689E+03</rscale>
<asrwt>0</asrwt>
<pdfrwt beam="1">  1       21 0.14636728E+00 0.69609689E+03</pdfrwt>
<pdfrwt beam="2">  1       21 0.78647124E-01 0.69609689E+03</pdfrwt>
<totfact> 0.34421935E+02</totfact>
</mgrwt>
</event>
<event>
 4    1  0.4862039E-002  0.4224127E+03  0.7818608E-02  0.1036284E+00
         21   -1    0    0  501  502  0.00000000000E+00  0.00000000000E+00  0.22304453092E+03  0.22304453092E+03  0.00000000000E+00 0.  1.
         21   -1    0    0  502  503 -0.00000000000E+00 -0.00000000000E+00 -0.14404448011E+04  0.14404448011E+04  0.00000000000E+00 0.  1.
    9000007    1    1    2  501    0 -0.88708735991E+02 -0.10277780027E+03 -0.54090650955E+02  0.42586184918E+03  0.40000000000E+03 0.  1.
   -9000007    1    1    2    0  503  0.88708735991E+02  0.10277780027E+03 -0.11633096193E+04  0.12376274829E+04  0.40000000000E+03 0.  1.
<mgrwt>
<rscale>  2 0.42241273E+03</rscale>
<asrwt>0</asrwt>
<pdfrwt beam="1">  1       21 0.34314543E-01 0.42241273E+03</pdfrwt>
<pdfrwt beam="2">  1       21 0.22160689E+00 0.42241273E+03</pdfrwt>
<totfact> 0.67139105E+02</totfact>
</mgrwt>
</event>
<event>
 4    1  0.4862039E-002  0.4750288E+03  0.7818608E-02  0.1020510E+00
         21   -1    0    0  503  502  0.00000000000E+00  0.00000000000E+00  0.17118879568E+04  0.17118879568E+04  0.00000000000E+00 0. -1.
         21   -1    0    0  501  503 -0.00000000000E+00 -0.00000000000E+00 -0.13248150349E+03  0.13248150349E+03  0.00000000000E+00 0. -1.
    9000007    1    1    2  501    0  0.25619663798E+03  0.39544799354E+01  0.85511729587E+03  0.97820138260E+03  0.40000000000E+03 0. -1.
   -9000007    1    1    2    0  502 -0.25619663798E+03 -0.39544799354E+01  0.72428915743E+03  0.86616807768E+03  0.40000000000E+03 0. -1.
<mgrwt>
<rscale>  2 0.47502879E+03</rscale>
<asrwt>0</asrwt>
<pdfrwt beam="1">  1       21 0.26336736E+00 0.47502879E+03</pdfrwt>
<pdfrwt beam="2">  1       21 0.20381771E-01 0.47502879E+03</pdfrwt>
<totfact> 0.99967055E+02</totfact>
</mgrwt>
</event>
<event>
 4    1  0.4862039E-002  0.4802774E+03  0.7818608E-02  0.1019059E+00
         21   -1    0    0  503  502  0.00000000000E+00  0.00000000000E+00  0.10820907434E+04  0.10820907434E+04  0.00000000000E+00 0.  1.
         21   -1    0    0  501  503 -0.00000000000E+00 -0.00000000000E+00 -0.42324873645E+03  0.42324873645E+03  0.00000000000E+00 0.  1.
    9000007    1    1    2  501    0  0.93433736305E+02  0.24887046953E+03 -0.20085313753E+03  0.52058462957E+03  0.40000000000E+03 0.  1.
   -9000007    1    1    2    0  502 -0.93433736305E+02 -0.24887046953E+03  0.85969514445E+03  0.98475485024E+03  0.40000000000E+03 0.  1.
<mgrwt>
<rscale>  2 0.48027739E+03</rscale>
<asrwt>0</asrwt>
<pdfrwt beam="1">  1       21 0.16647550E+00 0.48027739E+03</pdfrwt>
<pdfrwt beam="2">  1       21 0.65115190E-01 0.48027739E+03</pdfrwt>
<totfact> 0.39989790E+02</totfact>
</mgrwt>
</event>
<event>
 4    1  0.4862039E-002  0.4337810E+03  0.7818608E-02  0.1032672E+00
         21   -1    0    0  503  502  0.00000000000E+00  0.00000000000E+00  0.51865527423E+03  0.51865527423E+03  0.00000000000E+00 0.  1.
         21   -1    0    0  501  503 -0.00000000000E+00 -0.00000000000E+00 -0.39136329052E+03  0.39136329052E+03  0.00000000000E+00 0.  1.
    9000007    1    1    2  501    0 -0.73457478408E+02 -0.15089726773E+03  0.18657823291E+03  0.47220485336E+03  0.40000000000E+03 0.  1.
   -9000007    1    1    2    0  502  0.73457478408E+02  0.15089726773E+03 -0.59286249205E+02  0.43781371140E+03  0.40000000000E+03 0.  1.
<mgrwt>
<rscale>  2 0.43378104E+03</rscale>
<asrwt>0</asrwt>
<pdfrwt beam="1">  1       21 0.79793119E-01 0.43378104E+03</pdfrwt>
<pdfrwt beam="2">  1       21 0.60209737E-01 0.43378104E+03</pdfrwt>
<totfact> 0.31182518E+03</totfact>
</mgrwt>
</event>
<event>
 4    1  0.4862039E-002  0.6588498E+03  0.7818608E-02  0.9790314E-01
         21   -1    0    0  501  502  0.00000000000E+00  0.00000000000E+00  0.37824598435E+03  0.37824598435E+03  0.00000000000E+00 0. -1.
         21   -1    0    0  502  503 -0.00000000000E+00 -0.00000000000E+00 -0.12633453950E+04  0.12633453950E+04  0.00000000000E+00 0. -1.
    9000007    1    1    2  501    0  0.11215823228E+03 -0.51137415913E+03 -0.19412965241E+03  0.68685465831E+03  0.40000000000E+03 0. -1.
   -9000007    1    1    2    0  503 -0.11215823228E+03  0.51137415913E+03 -0.69096975824E+03  0.95473672103E+03  0.40000000000E+03 0. -1.
<mgrwt>
<rscale>  2 0.65884976E+03</rscale>
<asrwt>0</asrwt>
<pdfrwt beam="1">  1       21 0.58191689E-01 0.65884976E+03</pdfrwt>
<pdfrwt beam="2">  1       21 0.19436083E+00 0.65884976E+03</pdfrwt>
<totfact> 0.30321060E+02</totfact>
</mgrwt>
</event>
<event>
 4    1  0.4862039E-002  0.4314021E+03  0.7818608E-02  0.1033418E+00
         21   -1    0    0  503  502  0.00000000000E+00  0.00000000000E+00  0.11963876387E+03  0.11963876387E+03  0.00000000000E+00 0. -1.
         21   -1    0    0  501  503 -0.00000000000E+00 -0.00000000000E+00 -0.16548142911E+04  0.16548142911E+04  0.00000000000E+00 0.  1.
    9000007    1    1    2  501    0  0.56596235834E+02 -0.15134273014E+03 -0.98485246402E+03  0.10751939973E+04  0.40000000000E+03 0.  1.
   -9000007    1    1    2    0  502 -0.56596235834E+02  0.15134273014E+03 -0.55032306320E+03  0.69925905769E+03  0.40000000000E+03 0. -1.
<mgrwt>
<rscale>  2 0.43140208E+03</rscale>
<asrwt>0</asrwt>
<pdfrwt beam="1">  1       21 0.18405964E-01 0.43140208E+03</pdfrwt>
<pdfrwt beam="2">  1       21 0.25458681E+00 0.43140208E+03</pdfrwt>
<totfact> 0.14021981E+03</totfact>
</mgrwt>
</event>
<event>
 4    1  0.4862039E-002  0.4595336E+03  0.7818608E-02  0.1024917E+00
         21   -1    0    0  503  502  0.00000000000E+00  0.00000000000E+00  0.49415490158E+03  0.49415490158E+03  0.00000000000E+00 0.  1.
         21   -1    0    0  501  503 -0.00000000000E+00 -0.00000000000E+00 -0.42952149663E+03  0.42952149663E+03  0.00000000000E+00 0. -1.
    9000007    1    1    2  501    0  0.15631614508E+03 -0.16351253152E+03  0.65246586017E+02  0.46414243737E+03  0.40000000000E+03 0.  1.
   -9000007    1    1    2    0  502 -0.15631614508E+03  0.16351253152E+03 -0.61318107306E+00  0.45953396084E+03  0.40000000000E+03 0. -1.
<mgrwt>
<rscale>  2 0.45953355E+03</rscale>
<asrwt>0</asrwt>
<pdfrwt beam="1">  1       21 0.76023831E-01 0.45953355E+03</pdfrwt>
<pdfrwt beam="2">  1       21 0.66080230E-01 0.45953355E+03</pdfrwt>
<totfact> 0.28111942E+03</totfact>
</mgrwt>
</event>
<event>
 4    1  0.4862039E-002  0.4718463E+03  0.7818608E-02  0.1021400E+00
         21   -1    0    0  501  502  0.00000000000E+00  0.00000000000E+00  0.80069434978E+03  0.80069434978E+03  0.00000000000E+00 0.  1.
         21   -1    0    0  502  503 -0.00000000000E+00 -0.00000000000E+00 -0.84091594119E+03  0.84091594119E+03  0.00000000000E+00 0. -1.
    9000007    1    1    2  501    0  0.84573650286E+02 -0.23555517089E+03  0.65141613039E+03  0.80435186069E+03  0.40000000000E+03 0.  1.
   -9000007    1    1    2    0  503 -0.84573650286E+02  0.23555517089E+03 -0.69163772181E+03  0.83725843028E+03  0.40000000000E+03 0. -1.
<mgrwt>
<rscale>  2 0.47184631E+03</rscale>
<asrwt>0</asrwt>
<pdfrwt beam="1">  1       21 0.12318375E+00 0.47184631E+03</pdfrwt>
<pdfrwt beam="2">  1       21 0.12937168E+00 0.47184631E+03</pdfrwt>
<totfact> 0.17449644E+02</totfact>
</mgrwt>
</event>
<event>
 4    1  0.4862039E-002  0.4615885E+03  0.7818608E-02  0.1024322E+00
         21   -1    0    0  501  502  0.00000000000E+00  0.00000000000E+00  0.40881285147E+03  0.40881285147E+03  0.00000000000E+00 0. -1.
         21   -1    0    0  502  503 -0.00000000000E+00 -0.00000000000E+00 -0.80447018933E+03  0.80447018933E+03  0.00000000000E+00 0.  1.
    9000007    1    1    2  501    0 -0.23022164948E+03  0.78719410441E+01 -0.55782244795E+03  0.72403719434E+03  0.40000000000E+03 0.  1.
   -9000007    1    1    2    0  503  0.23022164948E+03 -0.78719410441E+01  0.16216511010E+03  0.48924584646E+03  0.40000000000E+03 0. -1.
<mgrwt>
<rscale>  2 0.46158853E+03</rscale>
<asrwt>0</asrwt>
<pdfrwt beam="1">  1       21 0.62894285E-01 0.46158853E+03</pdfrwt>
<pdfrwt beam="2">  1       21 0.12376464E+00 0.46158853E+03</pdfrwt>
<totfact> 0.96585458E+02</totfact>
</mgrwt>
</event>
<event>
 4    1  0.4862039E-002  0.4484691E+03  0.7818608E-02  0.1028180E+00
         21   -1    0    0  503  502  0.00000000000E+00  0.00000000000E+00  0.18123653413E+04  0.18123653413E+04  0.00000000000E+00 0. -1.
         21   -1    0    0  501  503 -0.00000000000E+00 -0.00000000000E+00 -0.12383618159E+03  0.12383618159E+03  0.00000000000E+00 0. -1.
    9000007    1    1    2  501    0 -0.19653199541E+03 -0.49996877374E+02  0.11562703739E+04  0.12401958275E+04  0.40000000000E+03 0. -1.
   -9000007    1    1    2    0  502  0.19653199541E+03  0.49996877374E+02  0.53225878587E+03  0.69600569545E+03  0.40000000000E+03 0. -1.
<mgrwt>
<rscale>  2 0.44846908E+03</rscale>
<asrwt>0</asrwt>
<pdfrwt beam="1">  1       21 0.27882542E+00 0.44846908E+03</pdfrwt>
<pdfrwt beam="2">  1       21 0.19051722E-01 0.44846908E+03</pdfrwt>
<totfact> 0.92850558E+02</totfact>
</mgrwt>
</event>
<event>
 4    1  0.4862039E-002  0.4398190E+03  0.7818608E-02  0.1030802E+00
         21   -1    0    0  503  502  0.00000000000E+00  0.00000000000E+00  0.18827988912E+03  0.18827988912E+03  0.00000000000E+00 0. -1.
         21   -1    0    0  501  503 -0.00000000000E+00 -0.00000000000E+00 -0.11885075632E+04  0.11885075632E+04  0.00000000000E+00 0. -1.
    9000007    1    1    2  501    0  0.17244638258E+03 -0.60852234873E+02 -0.75355645026E+03  0.87251823653E+03  0.40000000000E+03 0. -1.
   -9000007    1    1    2    0  502 -0.17244638258E+03  0.60852234873E+02 -0.24667122386E+03  0.50426921583E+03  0.40000000000E+03 0. -1.
<mgrwt>
<rscale>  2 0.43981900E+03</rscale>
<asrwt>0</asrwt>
<pdfrwt beam="1">  1       21 0.28966138E-01 0.43981900E+03</pdfrwt>
<pdfrwt beam="2">  1       21 0.18284731E+00 0.43981900E+03</pdfrwt>
<totfact> 0.16888170E+03</totfact>
</mgrwt>
</event>
<event>
 4    1  0.4862039E-002  0.4138541E+03  0.7818608E-02  0.1039085E+00
         21   -1    0    0  501  502  0.00000000000E+00  0.00000000000E+00  0.98982110312E+03  0.98982110312E+03  0.00000000000E+00 0.  1.
         21   -1    0    0  502  503 -0.00000000000E+00 -0.00000000000E+00 -0.30530885237E+03  0.30530885237E+03  0.00000000000E+00 0.  1.
    9000007    1    1    2  501    0  0.51012753982E+02 -0.93128595851E+02  0.76849013374E+03  0.87284152175E+03  0.40000000000E+03 0.  1.
   -9000007    1    1    2    0  503 -0.51012753982E+02  0.93128595851E+02 -0.83977883000E+02  0.42228843374E+03  0.40000000000E+03 0.  1.
<mgrwt>
<rscale>  2 0.41385412E+03</rscale>
<asrwt>0</asrwt>
<pdfrwt beam="1">  1       21 0.15228017E+00 0.41385412E+03</pdfrwt>
<pdfrwt beam="2">  1       21 0.46970593E-01 0.41385412E+03</pdfrwt>
<totfact> 0.10702096E+03</totfact>
</mgrwt>
</event>
<event>
 4    1  0.4862039E-002  0.4627189E+03  0.7818608E-02  0.1023996E+00
         21   -1    0    0  503  502  0.00000000000E+00  0.00000000000E+00  0.95192068530E+03  0.95192068530E+03  0.00000000000E+00 0. -1.
         21   -1    0    0  501  503 -0.00000000000E+00 -0.00000000000E+00 -0.26433463673E+03  0.26433463673E+03  0.00000000000E+00 0. -1.
    9000007    1    1    2  501    0  0.22918079398E+03 -0.39811263366E+02  0.57861051267E+03  0.74087711423E+03  0.40000000000E+03 0. -1.
   -9000007    1    1    2    0  502 -0.22918079398E+03  0.39811263366E+02  0.10897553590E+03  0.47537820779E+03  0.40000000000E+03 0. -1.
<mgrwt>
<rscale>  2 0.46271889E+03</rscale>
<asrwt>0</asrwt>
<pdfrwt beam="1">  1       21 0.14644933E+00 0.46271889E+03</pdfrwt>
<pdfrwt beam="2">  1       21 0.40666868E-01 0.46271889E+03</pdfrwt>
<totfact> 0.15733499E+03</totfact>
</mgrwt>
</event>
<event>
 4    1  0.4862039E-002  0.4096089E+03  0.7818608E-02  0.1040502E+00
         21   -1    0    0  503  502  0.00000000000E+00  0.00000000000E+00  0.23331773354E+04  0.23331773354E+04  0.00000000000E+00 0.  1.
         21   -1    0    0  501  503 -0.00000000000E+00 -0.00000000000E+00 -0.30324063333E+03  0.30324063333E+03  0.00000000000E+00 0.  1.
    9000007    1    1    2  501    0 -0.68266944360E+02  0.55848819540E+02 -0.13638033047E+03  0.43171641256E+03  0.40000000000E+03 0.  1.
   -9000007    1    1    2    0  502  0.68266944360E+02 -0.55848819540E+02  0.21663170325E+04  0.22047015561E+04  0.40000000000E+03 0.  1.
<mgrwt>
<rscale>  2 0.40960892E+03</rscale>
<asrwt>0</asrwt>
<pdfrwt beam="1">  1       21 0.35895035E+00 0.40960892E+03</pdfrwt>
<pdfrwt beam="2">  1       21 0.46652407E-01 0.40960892E+03</pdfrwt>
<totfact> 0.52617057E+01</totfact>
</mgrwt>
</event>
<event>
 4    1  0.4862039E-002  0.4093481E+03  0.7818608E-02  0.1040590E+00
         21   -1    0    0  503  502  0.00000000000E+00  0.00000000000E+00  0.24224155772E+04  0.24224155772E+04  0.00000000000E+00 0.  1.
         21   -1    0    0  501  503 -0.00000000000E+00 -0.00000000000E+00 -0.74962888976E+02  0.74962888976E+02  0.00000000000E+00 0.  1.
    9000007    1    1    2  501    0 -0.36152776376E+02 -0.79112754469E+02  0.82669811562E+03  0.92249424146E+03  0.40000000000E+03 0.  1.
   -9000007    1    1    2    0  502  0.36152776376E+02  0.79112754469E+02  0.15207545726E+04  0.15748842247E+04  0.40000000000E+03 0.  1.
<mgrwt>
<rscale>  2 0.40934808E+03</rscale>
<asrwt>0</asrwt>
<pdfrwt beam="1">  1       21 0.37267926E+00 0.40934808E+03</pdfrwt>
<pdfrwt beam="2">  1       21 0.11532754E-01 0.40934808E+03</pdfrwt>
<totfact> 0.64870853E+02</totfact>
</mgrwt>
</event>
<event>
 4    1  0.4862039E-002  0.4044540E+03  0.7818608E-02  0.1042248E+00
         21   -1    0    0  501  502  0.00000000000E+00  0.00000000000E+00  0.10267030038E+04  0.10267030038E+04  0.00000000000E+00 0. -1.
         21   -1    0    0  502  503 -0.00000000000E+00 -0.00000000000E+00 -0.11425735634E+04  0.11425735634E+04  0.00000000000E+00 0. -1.
    9000007    1    1    2  501    0 -0.49122664868E+02  0.34205792110E+02  0.94824019209E+03  0.10308940461E+04  0.40000000000E+03 0. -1.
   -9000007    1    1    2    0  503  0.49122664868E+02 -0.34205792110E+02 -0.10641107517E+04  0.11383825211E+04  0.40000000000E+03 0. -1.
<mgrwt>
<rscale>  2 0.40445404E+03</rscale>
<asrwt>0</asrwt>
<pdfrwt beam="1">  1       21 0.15795431E+00 0.40445404E+03</pdfrwt>
<pdfrwt beam="2">  1       21 0.17578055E+00 0.40445404E+03</pdfrwt>
<totfact> 0.40693653E+01</totfact>
</mgrwt>
</event>
<event>
 4    1  0.4862039E-002  0.4107651E+03  0.7818608E-02  0.1040115E+00
         21   -1    0    0  503  502  0.00000000000E+00  0.00000000000E+00  0.35142628953E+03  0.35142628953E+03  0.00000000000E+00 0.  1.
         21   -1    0    0  501  503 -0.00000000000E+00 -0.00000000000E+00 -0.59619844895E+03  0.59619844895E+03  0.00000000000E+00 0.  1.
    9000007    1    1    2  501    0 -0.91441475111E+02 -0.19141612046E+02 -0.33145073921E+03  0.52781392290E+03  0.40000000000E+03 0. -1.
   -9000007    1    1    2    0  502  0.91441475111E+02  0.19141612046E+02  0.86678579795E+02  0.41981081558E+03  0.40000000000E+03 0. -1.
<mgrwt>
<rscale>  2 0.41076507E+03</rscale>
<asrwt>0</asrwt>
<pdfrwt beam="1">  1       21 0.54065583E-01 0.41076507E+03</pdfrwt>
<pdfrwt beam="2">  1       21 0.91722838E-01 0.41076507E+03</pdfrwt>
<totfact> 0.28676999E+03</totfact>
</mgrwt>
</event>
<event>
 4    1  0.4862039E-002  0.4584375E+03  0.7818608E-02  0.1025235E+00
         21   -1    0    0  501  502  0.00000000000E+00  0.00000000000E+00  0.12375910323E+04  0.12375910323E+04  0.00000000000E+00 0. -1.
         21   -1    0    0  502  503 -0.00000000000E+00 -0.00000000000E+00 -0.31219538719E+03  0.31219538719E+03  0.00000000000E+00 0.  1.
    9000007    1    1    2  501    0 -0.58506433772E+02 -0.21619889856E+03  0.98599627844E+03  0.10873608544E+04  0.40000000000E+03 0. -1.
   -9000007    1    1    2    0  503  0.58506433772E+02  0.21619889856E+03 -0.60600633306E+02  0.46242556513E+03  0.40000000000E+03 0.  1.
<mgrwt>
<rscale>  2 0.45843753E+03</rscale>
<asrwt>0</asrwt>
<pdfrwt beam="1">  1       21 0.19039862E+00 0.45843753E+03</pdfrwt>
<pdfrwt beam="2">  1       21 0.48030060E-01 0.45843753E+03</pdfrwt>
<totfact> 0.52862278E+02</totfact>
</mgrwt>
</event>
<event>
 4    1  0.4862039E-002  0.4217523E+03  0.7818608E-02  0.1036498E+00
         21   -1    0    0  501  502  0.00000000000E+00  0.00000000000E+00  0.57443208021E+03  0.57443208021E+03  0.00000000000E+00 0.  1.
         21   -1    0    0  502  503 -0.00000000000E+00 -0.00000000000E+00 -0.32083424653E+03  0.32083424653E+03  0.00000000000E+00 0.  1.
    9000007    1    1    2  501    0  0.10930437528E+03  0.76990599743E+02  0.43235903664E+02  0.42396266613E+03  0.40000000000E+03 0.  1.
   -9000007    1    1    2    0  503 -0.10930437528E+03 -0.76990599743E+02  0.21036193002E+03  0.47130366061E+03  0.40000000000E+03 0.  1.
<mgrwt>
<rscale>  2 0.42175230E+03</rscale>
<asrwt>0</asrwt>
<pdfrwt beam="1">  1       21 0.88374166E-01 0.42175230E+03</pdfrwt>
<pdfrwt beam="2">  1       21 0.49359115E-01 0.42175230E+03</pdfrwt>
<totfact> 0.37873003E+03</totfact>
</mgrwt>
</event>
<event>
 4    1  0.4862039E-002  0.4861208E+03  0.7818608E-02  0.1017466E+00
         21   -1    0    0  501  502  0.00000000000E+00  0.00000000000E+00  0.10101627158E+04  0.10101627158E+04  0.00000000000E+00 0. -1.
         21   -1    0    0  502  503 -0.00000000000E+00 -0.00000000000E+00 -0.25236424702E+03  0.25236424702E+03  0.00000000000E+00 0.  1.
    9000007    1    1    2  501    0 -0.22736941342E+03 -0.15689681957E+03  0.20831521919E+03  0.52887493105E+03  0.40000000000E+03 0.  1.
   -9000007    1    1    2    0  503  0.22736941342E+03  0.15689681957E+03  0.54948324959E+03  0.73365203178E+03  0.40000000000E+03 0. -1.
<mgrwt>
<rscale>  2 0.48612083E+03</rscale>
<asrwt>0</asrwt>
<pdfrwt beam="1">  1       21 0.15540965E+00 0.48612083E+03</pdfrwt>
<pdfrwt beam="2">  1       21 0.38825269E-01 0.48612083E+03</pdfrwt>
<totfact> 0.14589421E+03</totfact>
</mgrwt>
</event>
<event>
 4    1  0.4862039E-002  0.4034107E+03  0.7818608E-02  0.1042605E+00
         21   -1    0    0  501  502  0.00000000000E+00  0.00000000000E+00  0.64076306963E+03  0.64076306963E+03  0.00000000000E+00 0.  1.
         21   -1    0    0  502  503 -0.00000000000E+00 -0.00000000000E+00 -0.61277007478E+03  0.61277007478E+03  0.00000000000E+00 0.  1.
    9000007    1    1    2  501    0  0.18393446978E+02 -0.49009031779E+02  0.49359522053E+03  0.63747662375E+03  0.40000000000E+03 0.  1.
   -9000007    1    1    2    0  503 -0.18393446978E+02  0.49009031779E+02 -0.46560222568E+03  0.61605652066E+03  0.40000000000E+03 0.  1.
<mgrwt>
<rscale>  2 0.40341071E+03</rscale>
<asrwt>0</asrwt>
<pdfrwt beam="1">  1       21 0.98578934E-01 0.40341071E+03</pdfrwt>
<pdfrwt beam="2">  1       21 0.94272319E-01 0.40341071E+03</pdfrwt>
<totfact> 0.68958439E+02</totfact>
</mgrwt>
</event>
<event>
 4    1  0.4862039E-002  0.4219141E+03  0.7818608E-02  0.1036445E+00
         21   -1    0    0  503  502  0.00000000000E+00  0.00000000000E+00  0.60508959205E+03  0.60508959205E+03  0.00000000000E+00 0. -1.
         21   -1    0    0  501  503 -0.00000000000E+00 -0.00000000000E+00 -0.32146495799E+03  0.32146495799E+03  0.00000000000E+00 0. -1.
    9000007    1    1    2  501    0  0.10447123929E+03 -0.84245283833E+02  0.68683156251E+01  0.42197000065E+03  0.40000000000E+03 0. -1.
   -9000007    1    1    2    0  502 -0.10447123929E+03  0.84245283833E+02  0.27675631843E+03  0.50458454939E+03  0.40000000000E+03 0. -1.
<mgrwt>
<rscale>  2 0.42191410E+03</rscale>
<asrwt>0</asrwt>
<pdfrwt beam="1">  1       21 0.93090706E-01 0.42191410E+03</pdfrwt>
<pdfrwt beam="2">  1       21 0.49456147E-01 0.42191410E+03</pdfrwt>
<totfact> 0.33343314E+03</totfact>
</mgrwt>
</event>
<event>
 4    1  0.4862039E-002  0.4702002E+03  0.7818608E-02  0.1021864E+00
         21   -1    0    0  501  502  0.00000000000E+00  0.00000000000E+00  0.94714710628E+03  0.94714710628E+03  0.00000000000E+00 0. -1.
         21   -1    0    0  502  503 -0.00000000000E+00 -0.00000000000E+00 -0.24160475076E+03  0.24160475076E+03  0.00000000000E+00 0.  1.
    9000007    1    1    2  501    0 -0.22828845356E+03 -0.94723888731E+02  0.46213325369E+03  0.65928398834E+03  0.40000000000E+03 0. -1.
   -9000007    1    1    2    0  503  0.22828845356E+03  0.94723888731E+02  0.24340910184E+03  0.52946786870E+03  0.40000000000E+03 0.  1.
<mgrwt>
<rscale>  2 0.47020021E+03</rscale>
<asrwt>0</asrwt>
<pdfrwt beam="1">  1       21 0.14571494E+00 0.47020021E+03</pdfrwt>
<pdfrwt beam="2">  1       21 0.37169962E-01 0.47020021E+03</pdfrwt>
<totfact> 0.19126421E+03</totfact>
</mgrwt>
</event>
<event>
 4    1  0.4862039E-002  0.4393027E+03  0.7818608E-02  0.1030961E+00
         21   -1    0    0  503  502  0.00000000000E+00  0.00000000000E+00  0.63216935537E+03  0.63216935537E+03  0.00000000000E+00 0. -1.
         21   -1    0    0  501  503 -0.00000000000E+00 -0.00000000000E+00 -0.39197780177E+03  0.39197780177E+03  0.00000000000E+00 0.  1.
    9000007    1    1    2  501    0  0.17344209348E+03 -0.53895218499E+02 -0.12073546865E+03  0.45559182143E+03  0.40000000000E+03 0.  1.
   -9000007    1    1    2    0  502 -0.17344209348E+03  0.53895218499E+02  0.36092702225E+03  0.56855533570E+03  0.40000000000E+03 0. -1.
<mgrwt>
<rscale>  2 0.43930269E+03</rscale>
<asrwt>0</asrwt>
<pdfrwt beam="1">  1       21 0.97256824E-01 0.43930269E+03</pdfrwt>
<pdfrwt beam="2">  1       21 0.60304277E-01 0.43930269E+03</pdfrwt>
<totfact> 0.19452507E+03</totfact>
</mgrwt>
</event>
<event>
 4    1  0.4862039E-002  0.4111476E+03  0.7818608E-02  0.1039987E+00
         21   -1    0    0  501  502  0.00000000000E+00  0.00000000000E+00  0.35898371860E+03  0.35898371860E+03  0.00000000000E+00 0. -1.
         21   -1    0    0  502  503 -0.00000000000E+00 -0.00000000000E+00 -0.10046893896E+04  0.10046893896E+04  0.00000000000E+00 0. -1.
    9000007    1    1    2  501    0 -0.93610068006E+02 -0.16717580179E+02  0.17414313344E+03  0.44650661052E+03  0.40000000000E+03 0. -1.
   -9000007    1    1    2    0  503  0.93610068006E+02  0.16717580179E+02 -0.81984880444E+03  0.91716649768E+03  0.40000000000E+03 0. -1.
<mgrwt>
<rscale>  2 0.41114757E+03</rscale>
<asrwt>0</asrwt>
<pdfrwt beam="1">  1       21 0.55228265E-01 0.41114757E+03</pdfrwt>
<pdfrwt beam="2">  1       21 0.15456760E+00 0.41114757E+03</pdfrwt>
<totfact> 0.72879953E+02</totfact>
</mgrwt>
</event>
<event>
 4    1  0.4862039E-002  0.4384291E+03  0.7818608E-02  0.1031230E+00
         21   -1    0    0  503  502  0.00000000000E+00  0.00000000000E+00  0.25570485383E+03  0.25570485383E+03  0.00000000000E+00 0.  1.
         21   -1    0    0  501  503 -0.00000000000E+00 -0.00000000000E+00 -0.97571654256E+03  0.97571654256E+03  0.00000000000E+00 0. -1.
    9000007    1    1    2  501    0  0.18825520206E+02  0.17850953451E+03 -0.65501089527E+03  0.78820005522E+03  0.40000000000E+03 0.  1.
   -9000007    1    1    2    0  502 -0.18825520206E+02 -0.17850953451E+03 -0.65000793456E+02  0.44322134117E+03  0.40000000000E+03 0.  1.
<mgrwt>
<rscale>  2 0.43842908E+03</rscale>
<asrwt>0</asrwt>
<pdfrwt beam="1">  1       21 0.39339208E-01 0.43842908E+03</pdfrwt>
<pdfrwt beam="2">  1       21 0.15011024E+00 0.43842908E+03</pdfrwt>
<totfact> 0.15914858E+03</totfact>
</mgrwt>
</event>
<event>
 4    1  0.4862039E-002  0.9045240E+03  0.7818608E-02  0.9419944E-01
         21   -1    0    0  501  502  0.00000000000E+00  0.00000000000E+00  0.72890894151E+03  0.72890894151E+03  0.00000000000E+00 0.  1.
         21   -1    0    0  502  503 -0.00000000000E+00 -0.00000000000E+00 -0.13932190533E+04  0.13932190533E+04  0.00000000000E+00 0. -1.
    9000007    1    1    2  501    0  0.47400306184E+03 -0.65839557030E+03  0.13561414416E+03  0.91463371123E+03  0.40000000000E+03 0.  1.
   -9000007    1    1    2    0  503 -0.47400306184E+03  0.65839557030E+03 -0.79992425596E+03  0.12074942836E+04  0.40000000000E+03 0. -1.
<mgrwt>
<rscale>  2 0.90452398E+03</rscale>
<asrwt>0</asrwt>
<pdfrwt beam="1">  1       21 0.11213984E+00 0.90452398E+03</pdfrwt>
<pdfrwt beam="2">  1       21 0.21434139E+00 0.90452398E+03</pdfrwt>
<totfact> 0.43955317E+01</totfact>
</mgrwt>
</event>
<event>
 4    1  0.4862039E-002  0.5667500E+03  0.7818608E-02  0.9976896E-01
         21   -1    0    0  501  502  0.00000000000E+00  0.00000000000E+00  0.41880370593E+03  0.41880370593E+03  0.00000000000E+00 0. -1.
         21   -1    0    0  502  503 -0.00000000000E+00 -0.00000000000E+00 -0.12986868680E+04  0.12986868680E+04  0.00000000000E+00 0.  1.
    9000007    1    1    2  501    0 -0.28224228617E+03  0.28556062947E+03  0.10954431701E+03  0.57723958509E+03  0.40000000000E+03 0. -1.
   -9000007    1    1    2    0  503  0.28224228617E+03 -0.28556062947E+03 -0.98942747904E+03  0.11402509888E+04  0.40000000000E+03 0.  1.
<mgrwt>
<rscale>  2 0.56675002E+03</rscale>
<asrwt>0</asrwt>
<pdfrwt beam="1">  1       21 0.64431339E-01 0.56675002E+03</pdfrwt>
<pdfrwt beam="2">  1       21 0.19979798E+00 0.56675002E+03</pdfrwt>
<totfact> 0.22995730E+02</totfact>
</mgrwt>
</event>
<event>
 4    1  0.4862039E-002  0.4145532E+03  0.7818608E-02  0.1038854E+00
         21   -1    0    0  501  502  0.00000000000E+00  0.00000000000E+00  0.46408019519E+03  0.46408019519E+03  0.00000000000E+00 0.  1.
         21   -1    0    0  502  503 -0.00000000000E+00 -0.00000000000E+00 -0.52611195423E+03  0.52611195423E+03  0.00000000000E+00 0.  1.
    9000007    1    1    2  501    0  0.83473139360E+02  0.69903972475E+02 -0.30043875450E+03  0.51197438956E+03  0.40000000000E+03 0.  1.
   -9000007    1    1    2    0  503 -0.83473139360E+02 -0.69903972475E+02  0.23840699546E+03  0.47821775986E+03  0.40000000000E+03 0.  1.
<mgrwt>
<rscale>  2 0.41455317E+03</rscale>
<asrwt>0</asrwt>
<pdfrwt beam="1">  1       21 0.71396953E-01 0.41455317E+03</pdfrwt>
<pdfrwt beam="2">  1       21 0.80940300E-01 0.41455317E+03</pdfrwt>
<totfact> 0.20809986E+03</totfact>
</mgrwt>
</event>
<event>
 4    1  0.4862039E-002  0.5317498E+03  0.7818608E-02  0.1005809E+00
         21   -1    0    0  501  502  0.00000000000E+00  0.00000000000E+00  0.22647549266E+03  0.22647549266E+03  0.00000000000E+00 0. -1.
         21   -1    0    0  502  503 -0.00000000000E+00 -0.00000000000E+00 -0.16488396192E+04  0.16488396192E+04  0.00000000000E+00 0. -1.
    9000007    1    1    2  501    0 -0.68361635409E+02  0.34363432578E+03 -0.24916113624E+03  0.58723005276E+03  0.40000000000E+03 0. -1.
   -9000007    1    1    2    0  503  0.68361635409E+02 -0.34363432578E+03 -0.11732029903E+04  0.12880850591E+04  0.40000000000E+03 0. -1.
<mgrwt>
<rscale>  2 0.53174981E+03</rscale>
<asrwt>0</asrwt>
<pdfrwt beam="1">  1       21 0.34842382E-01 0.53174981E+03</pdfrwt>
<pdfrwt beam="2">  1       21 0.25366764E+00 0.53174981E+03</pdfrwt>
<totfact> 0.38907118E+02</totfact>
</mgrwt>
</event>
<event>
 4    1  0.4862039E-002  0.4668041E+03  0.7818608E-02  0.1022826E+00
         21   -1    0    0  503  502  0.00000000000E+00  0.00000000000E+00  0.16393283199E+04  0.16393283199E+04  0.00000000000E+00 0.  1.
         21   -1    0    0  501  503 -0.00000000000E+00 -0.00000000000E+00 -0.14299968859E+03  0.14299968859E+03  0.00000000000E+00 0. -1.
    9000007    1    1    2  501    0 -0.23083643468E+03 -0.67974945257E+02  0.51161168341E+03  0.69256953973E+03  0.40000000000E+03 0. -1.
   -9000007    1    1    2    0  502  0.23083643468E+03  0.67974945257E+02  0.98471694786E+03  0.10897584687E+04  0.40000000000E+03 0.  1.
<mgrwt>
<rscale>  2 0.46680408E+03</rscale>
<asrwt>0</asrwt>
<pdfrwt beam="1">  1       21 0.25220434E+00 0.46680408E+03</pdfrwt>
<pdfrwt beam="2">  1       21 0.21999953E-01 0.46680408E+03</pdfrwt>
<totfact> 0.10145533E+03</totfact>
</mgrwt>
</event>
<event>
 4    1  0.4862039E-002  0.4440393E+03  0.7818608E-02  0.1029515E+00
         21   -1    0    0  501  502  0.00000000000E+00  0.00000000000E+00  0.38944189691E+03  0.38944189691E+03  0.00000000000E+00 0.  1.
         21   -1    0    0  502  503 -0.00000000000E+00 -0.00000000000E+00 -0.10320939363E+04  0.10320939363E+04  0.00000000000E+00 0.  1.
    9000007    1    1    2  501    0  0.12582788960E+03  0.14607611458E+03  0.18599136731E+03  0.48141840198E+03  0.40000000000E+03 0.  1.
   -9000007    1    1    2    0  503 -0.12582788960E+03 -0.14607611458E+03 -0.82864340675E+03  0.94011743128E+03  0.40000000000E+03 0.  1.
<mgrwt>
<rscale>  2 0.44403929E+03</rscale>
<asrwt>0</asrwt>
<pdfrwt beam="1">  1       21 0.59914138E-01 0.44403929E+03</pdfrwt>
<pdfrwt beam="2">  1       21 0.15878368E+00 0.44403929E+03</pdfrwt>
<totfact> 0.55805975E+02</totfact>
</mgrwt>
</event>
<event>
 4    1  0.4862039E-002  0.4410564E+03  0.7818608E-02  0.1030423E+00
         21   -1    0    0  501  502  0.00000000000E+00  0.00000000000E+00  0.45442307741E+03  0.45442307741E+03  0.00000000000E+00 0. -1.
         21   -1    0    0  502  503 -0.00000000000E+00 -0.00000000000E+00 -0.58607340028E+03  0.58607340028E+03  0.00000000000E+00 0. -1.
    9000007    1    1    2  501    0 -0.22650676040E+02  0.18443888805E+03  0.20429069374E+03  0.48607143930E+03  0.40000000000E+03 0. -1.
   -9000007    1    1    2    0  503  0.22650676040E+02 -0.18443888805E+03 -0.33594101661E+03  0.55442503839E+03  0.40000000000E+03 0. -1.
<mgrwt>
<rscale>  2 0.44105641E+03</rscale>
<asrwt>0</asrwt>
<pdfrwt beam="1">  1       21 0.69911243E-01 0.44105641E+03</pdfrwt>
<pdfrwt beam="2">  1       21 0.90165139E-01 0.44105641E+03</pdfrwt>
<totfact> 0.16773196E+03</totfact>
</mgrwt>
</event>
<event>
 4    1  0.4862039E-002  0.4343929E+03  0.7818608E-02  0.1032481E+00
         21   -1    0    0  503  502  0.00000000000E+00  0.00000000000E+00  0.10519350569E+04  0.10519350569E+04  0.00000000000E+00 0.  1.
         21   -1    0    0  501  503 -0.00000000000E+00 -0.00000000000E+00 -0.99133566819E+03  0.99133566819E+03  0.00000000000E+00 0.  1.
    9000007    1    1    2  501    0 -0.93669155318E+02  0.14114973543E+03 -0.89429509884E+03  0.99421370051E+03  0.40000000000E+03 0.  1.
   -9000007    1    1    2    0  502  0.93669155318E+02 -0.14114973543E+03  0.95489448756E+03  0.10490570246E+04  0.40000000000E+03 0.  1.
<mgrwt>
<rscale>  2 0.43439286E+03</rscale>
<asrwt>0</asrwt>
<pdfrwt beam="1">  1       21 0.16183616E+00 0.43439286E+03</pdfrwt>
<pdfrwt beam="2">  1       21 0.15251318E+00 0.43439286E+03</pdfrwt>
<totfact> 0.55518794E+01</totfact>
</mgrwt>
</event>
<event>
 4    1  0.4862039E-002  0.4456869E+03  0.7818608E-02  0.1029016E+00
         21   -1    0    0  501  502  0.00000000000E+00  0.00000000000E+00  0.13975347683E+04  0.13975347683E+04  0.00000000000E+00 0.  1.
         21   -1    0    0  502  503 -0.00000000000E+00 -0.00000000000E+00 -0.15512643295E+03  0.15512643295E+03  0.00000000000E+00 0.  1.
    9000007    1    1    2  501    0 -0.24066411694E+02  0.19508353350E+03  0.84587887309E+03  0.95611079125E+03  0.40000000000E+03 0.  1.
   -9000007    1    1    2    0  503  0.24066411694E+02 -0.19508353350E+03  0.39652946222E+03  0.59655040996E+03  0.40000000000E+03 0.  1.
<mgrwt>
<rscale>  2 0.44568686E+03</rscale>
<asrwt>0</asrwt>
<pdfrwt beam="1">  1       21 0.21500534E+00 0.44568686E+03</pdfrwt>
<pdfrwt beam="2">  1       21 0.23865606E-01 0.44568686E+03</pdfrwt>
<totfact> 0.14989449E+03</totfact>
</mgrwt>
</event>
<event>
 4    1  0.4862039E-002  0.4762466E+03  0.7818608E-02  0.1020172E+00
         21   -1    0    0  503  502  0.00000000000E+00  0.00000000000E+00  0.81603920651E+03  0.81603920651E+03  0.00000000000E+00 0. -1.
         21   -1    0    0  501  503 -0.00000000000E+00 -0.00000000000E+00 -0.35918530542E+03  0.35918530542E+03  0.00000000000E+00 0.  1.
    9000007    1    1    2  501    0  0.25824447651E+03  0.10984327465E+02  0.50789210385E+03  0.69625085583E+03  0.40000000000E+03 0. -1.
   -9000007    1    1    2    0  502 -0.25824447651E+03 -0.10984327465E+02 -0.51038202761E+02  0.47897365610E+03  0.40000000000E+03 0.  1.
<mgrwt>
<rscale>  2 0.47624664E+03</rscale>
<asrwt>0</asrwt>
<pdfrwt beam="1">  1       21 0.12554449E+00 0.47624664E+03</pdfrwt>
<pdfrwt beam="2">  1       21 0.55259278E-01 0.47624664E+03</pdfrwt>
<totfact> 0.12283844E+03</totfact>
</mgrwt>
</event>
<event>
 4    1  0.4862039E-002  0.4517839E+03  0.7818608E-02  0.1027191E+00
         21   -1    0    0  503  502  0.00000000000E+00  0.00000000000E+00  0.14586232746E+03  0.14586232746E+03  0.00000000000E+00 0.  1.
         21   -1    0    0  501  503 -0.00000000000E+00 -0.00000000000E+00 -0.14281813474E+04  0.14281813474E+04  0.00000000000E+00 0.  1.
    9000007    1    1    2  501    0 -0.11776190540E+03  0.17389893009E+03 -0.75303135333E+03  0.87815996455E+03  0.40000000000E+03 0.  1.
   -9000007    1    1    2    0  502  0.11776190540E+03 -0.17389893009E+03 -0.52928766663E+03  0.69588371032E+03  0.40000000000E+03 0.  1.
<mgrwt>
<rscale>  2 0.45178391E+03</rscale>
<asrwt>0</asrwt>
<pdfrwt beam="1">  1       21 0.22440358E-01 0.45178391E+03</pdfrwt>
<pdfrwt beam="2">  1       21 0.21972021E+00 0.45178391E+03</pdfrwt>
<totfact> 0.15700218E+03</totfact>
</mgrwt>
</event>
<event>
 4    1  0.4862039E-002  0.5639177E+03  0.7818608E-02  0.9983229E-01
         21   -1    0    0  501  502  0.00000000000E+00  0.00000000000E+00  0.25643844001E+04  0.25643844001E+04  0.00000000000E+00 0. -1.
         21   -1    0    0  502  503 -0.00000000000E+00 -0.00000000000E+00 -0.64082017587E+03  0.64082017587E+03  0.00000000000E+00 0.  1.
    9000007    1    1    2  501    0  0.93416447850E+02  0.38636324710E+03  0.24009922203E+04  0.24663265869E+04  0.40000000000E+03 0. -1.
   -9000007    1    1    2    0  503 -0.93416447850E+02 -0.38636324710E+03 -0.47742799599E+03  0.73887798912E+03  0.40000000000E+03 0.  1.
<mgrwt>
<rscale>  2 0.56391772E+03</rscale>
<asrwt>0</asrwt>
<pdfrwt beam="1">  1       21 0.39452067E+00 0.56391772E+03</pdfrwt>
<pdfrwt beam="2">  1       21 0.98587720E-01 0.56391772E+03</pdfrwt>
<totfact> 0.52260516E+00</totfact>
</mgrwt>
</event>
<event>
 4    1  0.4862039E-002  0.4252802E+03  0.7818608E-02  0.1035361E+00
         21   -1    0    0  501  502  0.00000000000E+00  0.00000000000E+00  0.30241713980E+03  0.30241713980E+03  0.00000000000E+00 0. -1.
         21   -1    0    0  502  503 -0.00000000000E+00 -0.00000000000E+00 -0.16473548029E+04  0.16473548029E+04  0.00000000000E+00 0. -1.
    9000007    1    1    2  501    0 -0.39637695799E+02 -0.13889598713E+03  0.10558429065E+03  0.43819092254E+03  0.40000000000E+03 0. -1.
   -9000007    1    1    2    0  503  0.39637695799E+02  0.13889598713E+03 -0.14505219537E+04  0.15115810201E+04  0.40000000000E+03 0. -1.
<mgrwt>
<rscale>  2 0.42528019E+03</rscale>
<asrwt>0</asrwt>
<pdfrwt beam="1">  1       21 0.46525713E-01 0.42528019E+03</pdfrwt>
<pdfrwt beam="2">  1       21 0.25343921E+00 0.42528019E+03</pdfrwt>
<totfact> 0.22713449E+02</totfact>
</mgrwt>
</event>
<event>
 4    1  0.4862039E-002  0.4717384E+03  0.7818608E-02  0.1021431E+00
         21   -1    0    0  503  502  0.00000000000E+00  0.00000000000E+00  0.62530426804E+03  0.62530426804E+03  0.00000000000E+00 0.  1.
         21   -1    0    0  501  503 -0.00000000000E+00 -0.00000000000E+00 -0.35761704525E+03  0.35761704525E+03  0.00000000000E+00 0.  1.
    9000007    1    1    2  501    0  0.21491474317E+03  0.12786238162E+03  0.16803475701E+03  0.50077221871E+03  0.40000000000E+03 0.  1.
   -9000007    1    1    2    0  502 -0.21491474317E+03 -0.12786238162E+03  0.99652465782E+02  0.48214909458E+03  0.40000000000E+03 0.  1.
<mgrwt>
<rscale>  2 0.47173842E+03</rscale>
<asrwt>0</asrwt>
<pdfrwt beam="1">  1       21 0.96200657E-01 0.47173842E+03</pdfrwt>
<pdfrwt beam="2">  1       21 0.55018007E-01 0.47173842E+03</pdfrwt>
<totfact> 0.24094651E+03</totfact>
</mgrwt>
</event>
<event>
 4    1  0.4862039E-002  0.4658586E+03  0.7818608E-02  0.1023096E+00
         21   -1    0    0  503  502  0.00000000000E+00  0.00000000000E+00  0.83458981500E+03  0.83458981500E+03  0.00000000000E+00 0.  1.
         21   -1    0    0  501  503 -0.00000000000E+00 -0.00000000000E+00 -0.44604713469E+03  0.44604713469E+03  0.00000000000E+00 0.  1.
    9000007    1    1    2  501    0  0.13849756679E+03  0.19453187768E+03 -0.21922718529E+03  0.51486385211E+03  0.40000000000E+03 0.  1.
   -9000007    1    1    2    0  502 -0.13849756679E+03 -0.19453187768E+03  0.60776986560E+03  0.76577309758E+03  0.40000000000E+03 0.  1.
<mgrwt>
<rscale>  2 0.46585859E+03</rscale>
<asrwt>0</asrwt>
<pdfrwt beam="1">  1       21 0.12839843E+00 0.46585859E+03</pdfrwt>
<pdfrwt beam="2">  1       21 0.68622636E-01 0.46585859E+03</pdfrwt>
<totfact> 0.72214542E+02</totfact>
</mgrwt>
</event>
<event>
 4    1  0.4862039E-002  0.4034330E+03  0.7818608E-02  0.1042597E+00
         21   -1    0    0  503  502  0.00000000000E+00  0.00000000000E+00  0.40505032368E+03  0.40505032368E+03  0.00000000000E+00 0. -1.
         21   -1    0    0  501  503 -0.00000000000E+00 -0.00000000000E+00 -0.77709474585E+03  0.77709474585E+03  0.00000000000E+00 0. -1.
    9000007    1    1    2  501    0 -0.23897800999E+02  0.46766289298E+02 -0.59677187871E+03  0.72034357492E+03  0.40000000000E+03 0. -1.
   -9000007    1    1    2    0  502  0.23897800999E+02 -0.46766289298E+02  0.22472745653E+03  0.46180149461E+03  0.40000000000E+03 0. -1.
<mgrwt>
<rscale>  2 0.40343301E+03</rscale>
<asrwt>0</asrwt>
<pdfrwt beam="1">  1       21 0.62315436E-01 0.40343301E+03</pdfrwt>
<pdfrwt beam="2">  1       21 0.11955304E+00 0.40343301E+03</pdfrwt>
<totfact> 0.11043776E+03</totfact>
</mgrwt>
</event>
<event>
 4    1  0.4862039E-002  0.4592780E+03  0.7818608E-02  0.1024991E+00
         21   -1    0    0  501  502  0.00000000000E+00  0.00000000000E+00  0.11612205152E+04  0.11612205152E+04  0.00000000000E+00 0. -1.
         21   -1    0    0  502  503 -0.00000000000E+00 -0.00000000000E+00 -0.18624116178E+03  0.18624116178E+03  0.00000000000E+00 0. -1.
    9000007    1    1    2  501    0  0.43647349375E+02  0.22142978418E+03  0.59326592129E+03  0.75026708164E+03  0.40000000000E+03 0. -1.
   -9000007    1    1    2    0  503 -0.43647349375E+02 -0.22142978418E+03  0.38171343215E+03  0.59719459535E+03  0.40000000000E+03 0. -1.
<mgrwt>
<rscale>  2 0.45927796E+03</rscale>
<asrwt>0</asrwt>
<pdfrwt beam="1">  1       21 0.17864931E+00 0.45927796E+03</pdfrwt>
<pdfrwt beam="2">  1       21 0.28652487E-01 0.45927796E+03</pdfrwt>
<totfact> 0.18319178E+03</totfact>
</mgrwt>
</event>
<event>
 4    1  0.4862039E-002  0.4163895E+03  0.7818608E-02  0.1038248E+00
         21   -1    0    0  503  502  0.00000000000E+00  0.00000000000E+00  0.20561995999E+03  0.20561995999E+03  0.00000000000E+00 0. -1.
         21   -1    0    0  501  503 -0.00000000000E+00 -0.00000000000E+00 -0.85025660798E+03  0.85025660798E+03  0.00000000000E+00 0. -1.
    9000007    1    1    2  501    0 -0.11216473430E+03  0.28271620190E+02 -0.27424687003E+03  0.49858956853E+03  0.40000000000E+03 0. -1.
   -9000007    1    1    2    0  502  0.11216473430E+03 -0.28271620190E+02 -0.37038977796E+03  0.55728699944E+03  0.40000000000E+03 0. -1.
<mgrwt>
<rscale>  2 0.41638950E+03</rscale>
<asrwt>0</asrwt>
<pdfrwt beam="1">  1       21 0.31633840E-01 0.41638950E+03</pdfrwt>
<pdfrwt beam="2">  1       21 0.13080871E+00 0.41638950E+03</pdfrwt>
<totfact> 0.35963455E+03</totfact>
</mgrwt>
</event>
<event>
 4    1  0.4862039E-002  0.5088381E+03  0.7818608E-02  0.1011497E+00
         21   -1    0    0  503  502  0.00000000000E+00  0.00000000000E+00  0.11555274228E+04  0.11555274228E+04  0.00000000000E+00 0.  1.
         21   -1    0    0  501  503 -0.00000000000E+00 -0.00000000000E+00 -0.46398212396E+03  0.46398212396E+03  0.00000000000E+00 0. -1.
    9000007    1    1    2  501    0 -0.31401855798E+03  0.17564771510E+02 -0.23650648202E+03  0.56111629097E+03  0.40000000000E+03 0. -1.
   -9000007    1    1    2    0  502  0.31401855798E+03 -0.17564771510E+02  0.92805178083E+03  0.10583932558E+04  0.40000000000E+03 0.  1.
<mgrwt>
<rscale>  2 0.50883806E+03</rscale>
<asrwt>0</asrwt>
<pdfrwt beam="1">  1       21 0.17777345E+00 0.50883806E+03</pdfrwt>
<pdfrwt beam="2">  1       21 0.71381866E-01 0.50883806E+03</pdfrwt>
<totfact> 0.26595145E+02</totfact>
</mgrwt>
</event>
<event>
 4    1  0.4862039E-002  0.4796825E+03  0.7818608E-02  0.1019222E+00
         21   -1    0    0  503  502  0.00000000000E+00  0.00000000000E+00  0.24723286175E+03  0.24723286175E+03  0.00000000000E+00 0. -1.
         21   -1    0    0  501  503 -0.00000000000E+00 -0.00000000000E+00 -0.10705550864E+04  0.10705550864E+04  0.00000000000E+00 0. -1.
    9000007    1    1    2  501    0 -0.42693976877E+02 -0.26129006554E+03 -0.64982585968E+03  0.80769358170E+03  0.40000000000E+03 0. -1.
   -9000007    1    1    2    0  502  0.42693976877E+02  0.26129006554E+03 -0.17349636495E+03  0.51009436643E+03  0.40000000000E+03 0. -1.
<mgrwt>
<rscale>  2 0.47968247E+03</rscale>
<asrwt>0</asrwt>
<pdfrwt beam="1">  1       21 0.38035825E-01 0.47968247E+03</pdfrwt>
<pdfrwt beam="2">  1       21 0.16470078E+00 0.47968247E+03</pdfrwt>
<totfact> 0.12971331E+03</totfact>
</mgrwt>
</event>
<event>
 4    1  0.4862039E-002  0.4637048E+03  0.7818608E-02  0.1023712E+00
         21   -1    0    0  501  502  0.00000000000E+00  0.00000000000E+00  0.46911565178E+03  0.46911565178E+03  0.00000000000E+00 0. -1.
         21   -1    0    0  502  503 -0.00000000000E+00 -0.00000000000E+00 -0.46188740356E+03  0.46188740356E+03  0.00000000000E+00 0. -1.
    9000007    1    1    2  501    0  0.14277902662E+03 -0.18610834486E+03 -0.37086536319E+02  0.46518553035E+03  0.40000000000E+03 0. -1.
   -9000007    1    1    2    0  503 -0.14277902662E+03  0.18610834486E+03  0.44314784541E+02  0.46581752500E+03  0.40000000000E+03 0. -1.
<mgrwt>
<rscale>  2 0.46370483E+03</rscale>
<asrwt>0</asrwt>
<pdfrwt beam="1">  1       21 0.72171639E-01 0.46370483E+03</pdfrwt>
<pdfrwt beam="2">  1       21 0.71059600E-01 0.46370483E+03</pdfrwt>
<totfact> 0.26844967E+03</totfact>
</mgrwt>
</event>
<event>
 4    1  0.4862039E-002  0.4507224E+03  0.7818608E-02  0.1027507E+00
         21   -1    0    0  503  502  0.00000000000E+00  0.00000000000E+00  0.69264606178E+03  0.69264606178E+03  0.00000000000E+00 0. -1.
         21   -1    0    0  501  503 -0.00000000000E+00 -0.00000000000E+00 -0.42085314295E+03  0.42085314295E+03  0.00000000000E+00 0.  1.
    9000007    1    1    2  501    0  0.17155316671E+03  0.11713333955E+03 -0.17061453981E+03  0.48193363593E+03  0.40000000000E+03 0.  1.
   -9000007    1    1    2    0  502 -0.17155316671E+03 -0.11713333955E+03  0.44240745864E+03  0.63156556881E+03  0.40000000000E+03 0. -1.
<mgrwt>
<rscale>  2 0.45072243E+03</rscale>
<asrwt>0</asrwt>
<pdfrwt beam="1">  1       21 0.10656093E+00 0.45072243E+03</pdfrwt>
<pdfrwt beam="2">  1       21 0.64746637E-01 0.45072243E+03</pdfrwt>
<totfact> 0.13244805E+03</totfact>
</mgrwt>
</event>
<event>
 4    1  0.4862039E-002  0.5864562E+03  0.7818608E-02  0.9933910E-01
         21   -1    0    0  501  502  0.00000000000E+00  0.00000000000E+00  0.82207477653E+03  0.82207477653E+03  0.00000000000E+00 0. -1.
         21   -1    0    0  502  503 -0.00000000000E+00 -0.00000000000E+00 -0.50425825189E+03  0.50425825189E+03  0.00000000000E+00 0.  1.
    9000007    1    1    2  501    0  0.35494073226E+03 -0.24072385519E+03  0.43260182482E+03  0.72874909037E+03  0.40000000000E+03 0. -1.
   -9000007    1    1    2    0  503 -0.35494073226E+03  0.24072385519E+03 -0.11478530017E+03  0.59758393805E+03  0.40000000000E+03 0.  1.
<mgrwt>
<rscale>  2 0.58645622E+03</rscale>
<asrwt>0</asrwt>
<pdfrwt beam="1">  1       21 0.12647304E+00 0.58645622E+03</pdfrwt>
<pdfrwt beam="2">  1       21 0.77578192E-01 0.58645622E+03</pdfrwt>
<totfact> 0.54274594E+02</totfact>
</mgrwt>
</event>
<event>
 4    1  0.4862039E-002  0.4313533E+03  0.7818608E-02  0.1033433E+00
         21   -1    0    0  501  502  0.00000000000E+00  0.00000000000E+00  0.89515899859E+03  0.89515899859E+03  0.00000000000E+00 0. -1.
         21   -1    0    0  502  503 -0.00000000000E+00 -0.00000000000E+00 -0.26148870202E+03  0.26148870202E+03  0.00000000000E+00 0. -1.
    9000007    1    1    2  501    0 -0.13697334381E+03  0.85463345818E+02  0.54924810803E+02  0.43483607858E+03  0.40000000000E+03 0. -1.
   -9000007    1    1    2    0  503  0.13697334381E+03 -0.85463345818E+02  0.57874548577E+03  0.72181162203E+03  0.40000000000E+03 0. -1.
<mgrwt>
<rscale>  2 0.43135331E+03</rscale>
<asrwt>0</asrwt>
<pdfrwt beam="1">  1       21 0.13771677E+00 0.43135331E+03</pdfrwt>
<pdfrwt beam="2">  1       21 0.40229031E-01 0.43135331E+03</pdfrwt>
<totfact> 0.19202467E+03</totfact>
</mgrwt>
</event>
<event>
 4    1  0.4862039E-002  0.4395049E+03  0.7818608E-02  0.1030899E+00
         21   -1    0    0  503  502  0.00000000000E+00  0.00000000000E+00  0.23515270343E+03  0.23515270343E+03  0.00000000000E+00 0. -1.
         21   -1    0    0  501  503 -0.00000000000E+00 -0.00000000000E+00 -0.15681029608E+04  0.15681029608E+04  0.00000000000E+00 0. -1.
    9000007    1    1    2  501    0  0.14946548773E+03 -0.10404130966E+03 -0.12886342511E+04  0.13615222214E+04  0.40000000000E+03 0. -1.
   -9000007    1    1    2    0  502 -0.14946548773E+03  0.10404130966E+03 -0.44316006257E+02  0.44173344287E+03  0.40000000000E+03 0. -1.
<mgrwt>
<rscale>  2 0.43950486E+03</rscale>
<asrwt>0</asrwt>
<pdfrwt beam="1">  1       21 0.36177340E-01 0.43950486E+03</pdfrwt>
<pdfrwt beam="2">  1       21 0.24124660E+00 0.43950486E+03</pdfrwt>
<totfact> 0.45024044E+02</totfact>
</mgrwt>
</event>
<event>
 4    1  0.4862039E-002  0.6811623E+03  0.7818608E-02  0.9750001E-01
         21   -1    0    0  503  502  0.00000000000E+00  0.00000000000E+00  0.97327837252E+03  0.97327837252E+03  0.00000000000E+00 0.  1.
         21   -1    0    0  501  503 -0.00000000000E+00 -0.00000000000E+00 -0.73530809647E+03  0.73530809647E+03  0.00000000000E+00 0. -1.
    9000007    1    1    2  501    0 -0.11514911973E+03 -0.53918708867E+03 -0.38762735206E+03  0.78373273533E+03  0.40000000000E+03 0. -1.
   -9000007    1    1    2    0  502  0.11514911973E+03  0.53918708867E+03  0.62559762811E+03  0.92485373366E+03  0.40000000000E+03 0.  1.
<mgrwt>
<rscale>  2 0.68116227E+03</rscale>
<asrwt>0</asrwt>
<pdfrwt beam="1">  1       21 0.14973513E+00 0.68116227E+03</pdfrwt>
<pdfrwt beam="2">  1       21 0.11312432E+00 0.68116227E+03</pdfrwt>
<totfact> 0.13467478E+02</totfact>
</mgrwt>
</event>
<event>
 4    1  0.4862039E-002  0.5335620E+03  0.7818608E-02  0.1005372E+00
         21   -1    0    0  501  502  0.00000000000E+00  0.00000000000E+00  0.49164420145E+03  0.49164420145E+03  0.00000000000E+00 0.  1.
         21   -1    0    0  502  503 -0.00000000000E+00 -0.00000000000E+00 -0.70080926060E+03  0.70080926060E+03  0.00000000000E+00 0. -1.
    9000007    1    1    2  501    0 -0.33057486090E+03 -0.12413184214E+03  0.14393424910E+03  0.55263507033E+03  0.40000000000E+03 0.  1.
   -9000007    1    1    2    0  503  0.33057486090E+03  0.12413184214E+03 -0.35309930826E+03  0.63981839172E+03  0.40000000000E+03 0.  1.
<mgrwt>
<rscale>  2 0.53356204E+03</rscale>
<asrwt>0</asrwt>
<pdfrwt beam="1">  1       21 0.75637570E-01 0.53356204E+03</pdfrwt>
<pdfrwt beam="2">  1       21 0.10781681E+00 0.53356204E+03</pdfrwt>
<totfact> 0.87829351E+02</totfact>
</mgrwt>
</event>
<event>
 4    1  0.4862039E-002  0.5397067E+03  0.7818608E-02  0.1003905E+00
         21   -1    0    0  503  502  0.00000000000E+00  0.00000000000E+00  0.30818940858E+03  0.30818940858E+03  0.00000000000E+00 0.  1.
         21   -1    0    0  501  503 -0.00000000000E+00 -0.00000000000E+00 -0.99175105300E+03  0.99175105300E+03  0.00000000000E+00 0. -1.
    9000007    1    1    2  501    0  0.61854847574E+02 -0.35701159059E+03 -0.48268343518E+03  0.72406256400E+03  0.40000000000E+03 0.  1.
   -9000007    1    1    2    0  502 -0.61854847574E+02  0.35701159059E+03 -0.20087820924E+03  0.57587789759E+03  0.40000000000E+03 0. -1.
<mgrwt>
<rscale>  2 0.53970668E+03</rscale>
<asrwt>0</asrwt>
<pdfrwt beam="1">  1       21 0.47413756E-01 0.53970668E+03</pdfrwt>
<pdfrwt beam="2">  1       21 0.15257708E+00 0.53970668E+03</pdfrwt>
<totfact> 0.99177156E+02</totfact>
</mgrwt>
</event>
<event>
 4    1  0.4862039E-002  0.4571829E+03  0.7818608E-02  0.1025601E+00
         21   -1    0    0  503  502  0.00000000000E+00  0.00000000000E+00  0.22562114411E+03  0.22562114411E+03  0.00000000000E+00 0.  1.
         21   -1    0    0  501  503 -0.00000000000E+00 -0.00000000000E+00 -0.95546522277E+03  0.95546522277E+03  0.00000000000E+00 0.  1.
    9000007    1    1    2  501    0  0.17088129378E+03  0.14076866154E+03 -0.46791425424E+03  0.65418650395E+03  0.40000000000E+03 0.  1.
   -9000007    1    1    2    0  502 -0.17088129378E+03 -0.14076866154E+03 -0.26192982442E+03  0.52689986293E+03  0.40000000000E+03 0.  1.
<mgrwt>
<rscale>  2 0.45718293E+03</rscale>
<asrwt>0</asrwt>
<pdfrwt beam="1">  1       21 0.34710945E-01 0.45718293E+03</pdfrwt>
<pdfrwt beam="2">  1       21 0.14699465E+00 0.45718293E+03</pdfrwt>
<totfact> 0.21574672E+03</totfact>
</mgrwt>
</event>
<event>
 4    1  0.4862039E-002  0.4674420E+03  0.7818608E-02  0.1022645E+00
         21   -1    0    0  501  502  0.00000000000E+00  0.00000000000E+00  0.11710412675E+04  0.11710412675E+04  0.00000000000E+00 0. -1.
         21   -1    0    0  502  503 -0.00000000000E+00 -0.00000000000E+00 -0.40514249895E+03  0.40514249895E+03  0.00000000000E+00 0. -1.
    9000007    1    1    2  501    0 -0.19403969054E+03  0.14439737369E+03  0.96178205612E+03  0.10693580909E+04  0.40000000000E+03 0. -1.
   -9000007    1    1    2    0  503  0.19403969054E+03 -0.14439737369E+03 -0.19588328761E+03  0.50682567555E+03  0.40000000000E+03 0. -1.
<mgrwt>
<rscale>  2 0.46744198E+03</rscale>
<asrwt>0</asrwt>
<pdfrwt beam="1">  1       21 0.18016019E+00 0.46744198E+03</pdfrwt>
<pdfrwt beam="2">  1       21 0.62329616E-01 0.46744198E+03</pdfrwt>
<totfact> 0.35310708E+02</totfact>
</mgrwt>
</event>
<event>
 4    1  0.4862039E-002  0.4434863E+03  0.7818608E-02  0.1029682E+00
         21   -1    0    0  501  502  0.00000000000E+00  0.00000000000E+00  0.58887951633E+03  0.58887951633E+03  0.00000000000E+00 0.  1.
         21   -1    0    0  502  503 -0.00000000000E+00 -0.00000000000E+00 -0.33446429692E+03  0.33446429692E+03  0.00000000000E+00 0. -1.
    9000007    1    1    2  501    0 -0.70178784536E+02 -0.17819939637E+03  0.14458621575E+03  0.46646035250E+03  0.40000000000E+03 0. -1.
   -9000007    1    1    2    0  503  0.70178784536E+02  0.17819939637E+03  0.10982900366E+03  0.45688346075E+03  0.40000000000E+03 0. -1.
<mgrwt>
<rscale>  2 0.44348629E+03</rscale>
<asrwt>0</asrwt>
<pdfrwt beam="1">  1       21 0.90596849E-01 0.44348629E+03</pdfrwt>
<pdfrwt beam="2">  1       21 0.51456046E-01 0.44348629E+03</pdfrwt>
<totfact> 0.32432235E+03</totfact>
</mgrwt>
</event>
<event>
 4    1  0.4862039E-002  0.4160922E+03  0.7818608E-02  0.1038346E+00
         21   -1    0    0  501  502  0.00000000000E+00  0.00000000000E+00  0.16578981069E+03  0.16578981069E+03  0.00000000000E+00 0.  1.
         21   -1    0    0  502  503 -0.00000000000E+00 -0.00000000000E+00 -0.19051840628E+04  0.19051840628E+04  0.00000000000E+00 0. -1.
    9000007    1    1    2  501    0  0.10907041448E+03  0.35162532054E+02 -0.17363046706E+03  0.45086616425E+03  0.40000000000E+03 0.  1.
   -9000007    1    1    2    0  503 -0.10907041448E+03 -0.35162532054E+02 -0.15657637850E+04  0.16201077092E+04  0.40000000000E+03 0. -1.
<mgrwt>
<rscale>  2 0.41609225E+03</rscale>
<asrwt>0</asrwt>
<pdfrwt beam="1">  1       21 0.25506126E-01 0.41609225E+03</pdfrwt>
<pdfrwt beam="2">  1       21 0.29310523E+00 0.41609225E+03</pdfrwt>
<totfact> 0.44324838E+02</totfact>
</mgrwt>
</event>
<event>
 4    1  0.4862039E-002  0.5015993E+03  0.7818608E-02  0.1013362E+00
         21   -1    0    0  501  502  0.00000000000E+00  0.00000000000E+00  0.13383241927E+04  0.13383241927E+04  0.00000000000E+00 0. -1.
         21   -1    0    0  502  503 -0.00000000000E+00 -0.00000000000E+00 -0.26416892436E+03  0.26416892436E+03  0.00000000000E+00 0.  1.
    9000007    1    1    2  501    0  0.29031952100E+03  0.85536255540E+02  0.96732752655E+03  0.10896441708E+04  0.40000000000E+03 0. -1.
   -9000007    1    1    2    0  503 -0.29031952100E+03 -0.85536255540E+02  0.10682774179E+03  0.51284894628E+03  0.40000000000E+03 0.  1.
<mgrwt>
<rscale>  2 0.50159932E+03</rscale>
<asrwt>0</asrwt>
<pdfrwt beam="1">  1       21 0.20589603E+00 0.50159932E+03</pdfrwt>
<pdfrwt beam="2">  1       21 0.40641374E-01 0.50159932E+03</pdfrwt>
<totfact> 0.57838318E+02</totfact>
</mgrwt>
</event>
<event>
 4    1  0.4862039E-002  0.4412876E+03  0.7818608E-02  0.1030352E+00
         21   -1    0    0  503  502  0.00000000000E+00  0.00000000000E+00  0.60436385650E+03  0.60436385650E+03  0.00000000000E+00 0.  1.
         21   -1    0    0  501  503 -0.00000000000E+00 -0.00000000000E+00 -0.50408162948E+03  0.50408162948E+03  0.00000000000E+00 0.  1.
    9000007    1    1    2  501    0 -0.16551046620E+03 -0.85679589298E+02 -0.28275689326E+03  0.52410511076E+03  0.40000000000E+03 0.  1.
   -9000007    1    1    2    0  502  0.16551046620E+03  0.85679589298E+02  0.38303912028E+03  0.58434037522E+03  0.40000000000E+03 0.  1.
<mgrwt>
<rscale>  2 0.44128756E+03</rscale>
<asrwt>0</asrwt>
<pdfrwt beam="1">  1       21 0.92979055E-01 0.44128756E+03</pdfrwt>
<pdfrwt beam="2">  1       21 0.77551020E-01 0.44128756E+03</pdfrwt>
<totfact> 0.12317312E+03</totfact>
</mgrwt>
</event>
<event>
 4    1  0.4862039E-002  0.5061176E+03  0.7818608E-02  0.1012194E+00
         21   -1    0    0  501  502  0.00000000000E+00  0.00000000000E+00  0.60839862172E+03  0.60839862172E+03  0.00000000000E+00 0. -1.
         21   -1    0    0  502  503 -0.00000000000E+00 -0.00000000000E+00 -0.47400527583E+03  0.47400527583E+03  0.00000000000E+00 0. -1.
    9000007    1    1    2  501    0  0.26494979573E+03 -0.16111051228E+03  0.24812150605E+03  0.56366592339E+03  0.40000000000E+03 0. -1.
   -9000007    1    1    2    0  503 -0.26494979573E+03  0.16111051228E+03 -0.11372816016E+03  0.51873797416E+03  0.40000000000E+03 0. -1.
<mgrwt>
<rscale>  2 0.50611757E+03</rscale>
<asrwt>0</asrwt>
<pdfrwt beam="1">  1       21 0.93599788E-01 0.50611757E+03</pdfrwt>
<pdfrwt beam="2">  1       21 0.72923889E-01 0.50611757E+03</pdfrwt>
<totfact> 0.13614304E+03</totfact>
</mgrwt>
</event>
<event>
 4    1  0.4862039E-002  0.4724901E+03  0.7818608E-02  0.1021220E+00
         21   -1    0    0  501  502  0.00000000000E+00  0.00000000000E+00  0.16849006082E+04  0.16849006082E+04  0.00000000000E+00 0.  1.
         21   -1    0    0  502  503 -0.00000000000E+00 -0.00000000000E+00 -0.19353265845E+03  0.19353265845E+03  0.00000000000E+00 0.  1.
    9000007    1    1    2  501    0 -0.21369275152E+03 -0.13259814708E+03  0.12731263315E+04  0.13579755214E+04  0.40000000000E+03 0.  1.
   -9000007    1    1    2    0  503  0.21369275152E+03  0.13259814708E+03  0.21824161818E+03  0.52045774523E+03  0.40000000000E+03 0.  1.
<mgrwt>
<rscale>  2 0.47249006E+03</rscale>
<asrwt>0</asrwt>
<pdfrwt beam="1">  1       21 0.25921547E+00 0.47249006E+03</pdfrwt>
<pdfrwt beam="2">  1       21 0.29774256E-01 0.47249006E+03</pdfrwt>
<totfact> 0.50744567E+02</totfact>
</mgrwt>
</event>
<event>
 4    1  0.4862039E-002  0.4252746E+03  0.7818608E-02  0.1035363E+00
         21   -1    0    0  503  502  0.00000000000E+00  0.00000000000E+00  0.34373226391E+03  0.34373226391E+03  0.00000000000E+00 0. -1.
         21   -1    0    0  501  503 -0.00000000000E+00 -0.00000000000E+00 -0.69171307099E+03  0.69171307099E+03  0.00000000000E+00 0. -1.
    9000007    1    1    2  501    0 -0.24109374667E+02 -0.14239812298E+03 -0.42727080783E+03  0.60284229331E+03  0.40000000000E+03 0. -1.
   -9000007    1    1    2    0  502  0.24109374667E+02  0.14239812298E+03  0.79290000758E+02  0.43260304159E+03  0.40000000000E+03 0. -1.
<mgrwt>
<rscale>  2 0.42527460E+03</rscale>
<asrwt>0</asrwt>
<pdfrwt beam="1">  1       21 0.52881887E-01 0.42527460E+03</pdfrwt>
<pdfrwt beam="2">  1       21 0.10641739E+00 0.42527460E+03</pdfrwt>
<totfact> 0.20875039E+03</totfact>
</mgrwt>
</event>
<event>
 4    1  0.4862039E-002  0.4349497E+03  0.7818608E-02  0.1032308E+00
         21   -1    0    0  501  502  0.00000000000E+00  0.00000000000E+00  0.50513029795E+03  0.50513029795E+03  0.00000000000E+00 0.  1.
         21   -1    0    0  502  503 -0.00000000000E+00 -0.00000000000E+00 -0.37519255592E+03  0.37519255592E+03  0.00000000000E+00 0.  1.
    9000007    1    1    2  501    0  0.31235180923E+02 -0.16794515035E+03  0.46327839797E+02  0.43740996650E+03  0.40000000000E+03 0. -1.
   -9000007    1    1    2    0  503 -0.31235180923E+02  0.16794515035E+03  0.83609902231E+02  0.44291288738E+03  0.40000000000E+03 0. -1.
<mgrwt>
<rscale>  2 0.43494966E+03</rscale>
<asrwt>0</asrwt>
<pdfrwt beam="1">  1       21 0.77712354E-01 0.43494966E+03</pdfrwt>
<pdfrwt beam="2">  1       21 0.57721932E-01 0.43494966E+03</pdfrwt>
<totfact> 0.36320397E+03</totfact>
</mgrwt>
</event>
<event>
 4    1  0.4862039E-002  0.4483799E+03  0.7818608E-02  0.1028206E+00
         21   -1    0    0  501  502  0.00000000000E+00  0.00000000000E+00  0.47175960034E+03  0.47175960034E+03  0.00000000000E+00 0. -1.
         21   -1    0    0  502  503 -0.00000000000E+00 -0.00000000000E+00 -0.42638772969E+03  0.42638772969E+03  0.00000000000E+00 0. -1.
    9000007    1    1    2  501    0  0.16672578617E+02  0.20190732289E+03  0.33089745402E+02  0.44959923617E+03  0.40000000000E+03 0. -1.
   -9000007    1    1    2    0  503 -0.16672578617E+02 -0.20190732289E+03  0.12282125249E+02  0.44854809387E+03  0.40000000000E+03 0. -1.
<mgrwt>
<rscale>  2 0.44837991E+03</rscale>
<asrwt>0</asrwt>
<pdfrwt beam="1">  1       21 0.72578400E-01 0.44837991E+03</pdfrwt>
<pdfrwt beam="2">  1       21 0.65598112E-01 0.44837991E+03</pdfrwt>
<totfact> 0.31882307E+03</totfact>
</mgrwt>
</event>
<event>
 4    1  0.4862039E-002  0.4057301E+03  0.7818608E-02  0.1041813E+00
         21   -1    0    0  501  502  0.00000000000E+00  0.00000000000E+00  0.22080640815E+03  0.22080640815E+03  0.00000000000E+00 0.  1.
         21   -1    0    0  502  503 -0.00000000000E+00 -0.00000000000E+00 -0.88296693448E+03  0.88296693448E+03  0.00000000000E+00 0.  1.
    9000007    1    1    2  501    0  0.40675345761E+02 -0.54428367925E+02 -0.11334155407E+03  0.42126385896E+03  0.40000000000E+03 0. -1.
   -9000007    1    1    2    0  503 -0.40675345761E+02  0.54428367925E+02 -0.54881897226E+03  0.68250948367E+03  0.40000000000E+03 0. -1.
<mgrwt>
<rscale>  2 0.40573012E+03</rscale>
<asrwt>0</asrwt>
<pdfrwt beam="1">  1       21 0.33970217E-01 0.40573012E+03</pdfrwt>
<pdfrwt beam="2">  1       21 0.13584107E+00 0.40573012E+03</pdfrwt>
<totfact> 0.28382331E+03</totfact>
</mgrwt>
</event>
<event>
 4    1  0.4862039E-002  0.4611947E+03  0.7818608E-02  0.1024435E+00
         21   -1    0    0  501  502  0.00000000000E+00  0.00000000000E+00  0.45156765270E+03  0.45156765270E+03  0.00000000000E+00 0.  1.
         21   -1    0    0  502  503 -0.00000000000E+00 -0.00000000000E+00 -0.95033911521E+03  0.95033911521E+03  0.00000000000E+00 0.  1.
    9000007    1    1    2  501    0  0.17806695258E+03  0.14488868371E+03  0.24841900460E+03  0.52384403415E+03  0.40000000000E+03 0.  1.
   -9000007    1    1    2    0  503 -0.17806695258E+03 -0.14488868371E+03 -0.74719046712E+03  0.87806273376E+03  0.40000000000E+03 0.  1.
<mgrwt>
<rscale>  2 0.46119472E+03</rscale>
<asrwt>0</asrwt>
<pdfrwt beam="1">  1       21 0.69471947E-01 0.46119472E+03</pdfrwt>
<pdfrwt beam="2">  1       21 0.14620602E+00 0.46119472E+03</pdfrwt>
<totfact> 0.49947483E+02</totfact>
</mgrwt>
</event>
<event>
 4    1  0.4862039E-002  0.5290601E+03  0.7818608E-02  0.1006460E+00
         21   -1    0    0  501  502  0.00000000000E+00  0.00000000000E+00  0.83576232561E+03  0.83576232561E+03  0.00000000000E+00 0.  1.
         21   -1    0    0  502  503 -0.00000000000E+00 -0.00000000000E+00 -0.53359594817E+03  0.53359594817E+03  0.00000000000E+00 0.  1.
    9000007    1    1    2  501    0  0.25953015032E+03  0.22923507440E+03  0.56887999768E+03  0.77687133428E+03  0.40000000000E+03 0.  1.
   -9000007    1    1    2    0  503 -0.25953015032E+03 -0.22923507440E+03 -0.26671362024E+03  0.59248693951E+03  0.40000000000E+03 0.  1.
<mgrwt>
<rscale>  2 0.52906013E+03</rscale>
<asrwt>0</asrwt>
<pdfrwt beam="1">  1       21 0.12857882E+00 0.52906013E+03</pdfrwt>
<pdfrwt beam="2">  1       21 0.82091684E-01 0.52906013E+03</pdfrwt>
<totfact> 0.46556239E+02</totfact>
</mgrwt>
</event>
<event>
 4    1  0.4862039E-002  0.5227679E+03  0.7818608E-02  0.1008001E+00
         21   -1    0    0  503  502  0.00000000000E+00  0.00000000000E+00  0.10403054037E+04  0.10403054037E+04  0.00000000000E+00 0.  1.
         21   -1    0    0  501  503 -0.00000000000E+00 -0.00000000000E+00 -0.34916613739E+03  0.34916613739E+03  0.00000000000E+00 0. -1.
    9000007    1    1    2  501    0  0.32964435732E+03  0.67977100796E+02  0.69129505568E+03  0.86670360709E+03  0.40000000000E+03 0.  1.
   -9000007    1    1    2    0  502 -0.32964435732E+03 -0.67977100796E+02 -0.15578937004E+00  0.52276793399E+03  0.40000000000E+03 0. -1.
<mgrwt>
<rscale>  2 0.52276791E+03</rscale>
<asrwt>0</asrwt>
<pdfrwt beam="1">  1       21 0.16004698E+00 0.52276791E+03</pdfrwt>
<pdfrwt beam="2">  1       21 0.53717868E-01 0.52276791E+03</pdfrwt>
<totfact> 0.66925934E+02</totfact>
</mgrwt>
</event>
<event>
 4    1  0.4862039E-002  0.5540943E+03  0.7818608E-02  0.1000551E+00
         21   -1    0    0  501  502  0.00000000000E+00  0.00000000000E+00  0.15859355266E+04  0.15859355266E+04  0.00000000000E+00 0. -1.
         21   -1    0    0  502  503 -0.00000000000E+00 -0.00000000000E+00 -0.19639267925E+03  0.19639267925E+03  0.00000000000E+00 0. -1.
    9000007    1    1    2  501    0  0.19506353411E+03 -0.33010708534E+03  0.58830314020E+03  0.80815905297E+03  0.40000000000E+03 0. -1.
   -9000007    1    1    2    0  503 -0.19506353411E+03  0.33010708534E+03  0.80123970719E+03  0.97416915293E+03  0.40000000000E+03 0. -1.
<mgrwt>
<rscale>  2 0.55409428E+03</rscale>
<asrwt>0</asrwt>
<pdfrwt beam="1">  1       21 0.24399007E+00 0.55409428E+03</pdfrwt>
<pdfrwt beam="2">  1       21 0.30214259E-01 0.55409428E+03</pdfrwt>
<totfact> 0.58949016E+02</totfact>
</mgrwt>
</event>
<event>
 4    1  0.4862039E-002  0.4227447E+03  0.7818608E-02  0.1036177E+00
         21   -1    0    0  503  502  0.00000000000E+00  0.00000000000E+00  0.38999395641E+03  0.38999395641E+03  0.00000000000E+00 0. -1.
         21   -1    0    0  501  503 -0.00000000000E+00 -0.00000000000E+00 -0.75105293866E+03  0.75105293866E+03  0.00000000000E+00 0. -1.
    9000007    1    1    2  501    0  0.74337061177E+02  0.11483513578E+03 -0.53675828932E+03  0.68324414979E+03  0.40000000000E+03 0. -1.
   -9000007    1    1    2    0  502 -0.74337061177E+02 -0.11483513578E+03  0.17569930707E+03  0.45780274527E+03  0.40000000000E+03 0. -1.
<mgrwt>
<rscale>  2 0.42274473E+03</rscale>
<asrwt>0</asrwt>
<pdfrwt beam="1">  1       21 0.59999070E-01 0.42274473E+03</pdfrwt>
<pdfrwt beam="2">  1       21 0.11554661E+00 0.42274473E+03</pdfrwt>
<totfact> 0.12962046E+03</totfact>
</mgrwt>
</event>
<event>
 4    1  0.4862039E-002  0.7696503E+03  0.7818608E-02  0.9605017E-01
         21   -1    0    0  501  502  0.00000000000E+00  0.00000000000E+00  0.24015062213E+04  0.24015062213E+04  0.00000000000E+00 0.  1.
         21   -1    0    0  502  503 -0.00000000000E+00 -0.00000000000E+00 -0.25637114735E+03  0.25637114735E+03  0.00000000000E+00 0.  1.
    9000007    1    1    2  501    0 -0.58478577164E+03 -0.30064462650E+03  0.13311798253E+04  0.15376609891E+04  0.40000000000E+03 0.  1.
   -9000007    1    1    2    0  503  0.58478577164E+03  0.30064462650E+03  0.81395524861E+03  0.11202163795E+04  0.40000000000E+03 0.  1.
<mgrwt>
<rscale>  2 0.76965030E+03</rscale>
<asrwt>0</asrwt>
<pdfrwt beam="1">  1       21 0.36946248E+00 0.76965030E+03</pdfrwt>
<pdfrwt beam="2">  1       21 0.39441717E-01 0.76965030E+03</pdfrwt>
<totfact> 0.52730554E+01</totfact>
</mgrwt>
</event>
<event>
 4    1  0.4862039E-002  0.4494180E+03  0.7818608E-02  0.1027896E+00
         21   -1    0    0  503  502  0.00000000000E+00  0.00000000000E+00  0.66850496038E+03  0.66850496038E+03  0.00000000000E+00 0. -1.
         21   -1    0    0  501  503 -0.00000000000E+00 -0.00000000000E+00 -0.36302453364E+03  0.36302453364E+03  0.00000000000E+00 0. -1.
    9000007    1    1    2  501    0 -0.20486312951E+03 -0.27628784654E+01 -0.58495226864E+02  0.45320881158E+03  0.40000000000E+03 0. -1.
   -9000007    1    1    2    0  502  0.20486312951E+03  0.27628784654E+01  0.36397565360E+03  0.57832068245E+03  0.40000000000E+03 0. -1.
<mgrwt>
<rscale>  2 0.44941800E+03</rscale>
<asrwt>0</asrwt>
<pdfrwt beam="1">  1       21 0.10284692E+00 0.44941800E+03</pdfrwt>
<pdfrwt beam="2">  1       21 0.55849928E-01 0.44941800E+03</pdfrwt>
<totfact> 0.19994560E+03</totfact>
</mgrwt>
</event>
<event>
 4    1  0.4862039E-002  0.5245411E+03  0.7818608E-02  0.1007565E+00
         21   -1    0    0  501  502  0.00000000000E+00  0.00000000000E+00  0.37008073565E+03  0.37008073565E+03  0.00000000000E+00 0.  1.
         21   -1    0    0  502  503 -0.00000000000E+00 -0.00000000000E+00 -0.76788456357E+03  0.76788456357E+03  0.00000000000E+00 0.  1.
    9000007    1    1    2  501    0 -0.33578667376E+03 -0.48894392490E+02 -0.97443212570E+02  0.53351525898E+03  0.40000000000E+03 0.  1.
   -9000007    1    1    2    0  503  0.33578667376E+03  0.48894392490E+02 -0.30036061535E+03  0.60445004024E+03  0.40000000000E+03 0.  1.
<mgrwt>
<rscale>  2 0.52454109E+03</rscale>
<asrwt>0</asrwt>
<pdfrwt beam="1">  1       21 0.56935498E-01 0.52454109E+03</pdfrwt>
<pdfrwt beam="2">  1       21 0.11813609E+00 0.52454109E+03</pdfrwt>
<totfact> 0.13221992E+03</totfact>
</mgrwt>
</event>
<event>
 4    1  0.4862039E-002  0.4185130E+03  0.7818608E-02  0.1037551E+00
         21   -1    0    0  501  502  0.00000000000E+00  0.00000000000E+00  0.23640742049E+03  0.23640742049E+03  0.00000000000E+00 0.  1.
         21   -1    0    0  502  503 -0.00000000000E+00 -0.00000000000E+00 -0.24169271057E+04  0.24169271057E+04  0.00000000000E+00 0.  1.
    9000007    1    1    2  501    0 -0.10956501044E+03 -0.56112750945E+02  0.14508884967E+02  0.41876442074E+03  0.40000000000E+03 0.  1.
   -9000007    1    1    2    0  503  0.10956501044E+03  0.56112750945E+02 -0.21950285701E+04  0.22345701054E+04  0.40000000000E+03 0.  1.
<mgrwt>
<rscale>  2 0.41851300E+03</rscale>
<asrwt>0</asrwt>
<pdfrwt beam="1">  1       21 0.36370371E-01 0.41851300E+03</pdfrwt>
<pdfrwt beam="2">  1       21 0.37183495E+00 0.41851300E+03</pdfrwt>
<totfact> 0.72729633E+01</totfact>
</mgrwt>
</event>
<event>
 4    1  0.4862039E-002  0.8860001E+03  0.7818608E-02  0.9443253E-01
         21   -1    0    0  501  502  0.00000000000E+00  0.00000000000E+00  0.10761824835E+04  0.10761824835E+04  0.00000000000E+00 0.  1.
         21   -1    0    0  502  503 -0.00000000000E+00 -0.00000000000E+00 -0.92456193394E+03  0.92456193394E+03  0.00000000000E+00 0. -1.
    9000007    1    1    2  501    0 -0.75412060594E+03 -0.23727278248E+03 -0.38377005834E+03  0.96554426065E+03  0.40000000000E+03 0. -1.
   -9000007    1    1    2    0  503  0.75412060594E+03  0.23727278248E+03  0.53539060792E+03  0.10352001568E+04  0.40000000000E+03 0.  1.
<mgrwt>
<rscale>  2 0.88600015E+03</rscale>
<asrwt>0</asrwt>
<pdfrwt beam="1">  1       21 0.16556654E+00 0.88600015E+03</pdfrwt>
<pdfrwt beam="2">  1       21 0.14224030E+00 0.88600015E+03</pdfrwt>
<totfact> 0.52228493E+01</totfact>
</mgrwt>
</event>
<event>
 4    1  0.4862039E-002  0.5174945E+03  0.7818608E-02  0.1009311E+00
         21   -1    0    0  501  502  0.00000000000E+00  0.00000000000E+00  0.40311201311E+03  0.40311201311E+03  0.00000000000E+00 0. -1.
         21   -1    0    0  502  503 -0.00000000000E+00 -0.00000000000E+00 -0.93014738534E+03  0.93014738534E+03  0.00000000000E+00 0. -1.
    9000007    1    1    2  501    0  0.37090340673E+02  0.32622829377E+03  0.92849784042E+02  0.52575819102E+03  0.40000000000E+03 0. -1.
   -9000007    1    1    2    0  503 -0.37090340673E+02 -0.32622829377E+03 -0.61988515628E+03  0.80750120743E+03  0.40000000000E+03 0. -1.
<mgrwt>
<rscale>  2 0.51749453E+03</rscale>
<asrwt>0</asrwt>
<pdfrwt beam="1">  1       21 0.62017233E-01 0.51749453E+03</pdfrwt>
<pdfrwt beam="2">  1       21 0.14309960E+00 0.51749453E+03</pdfrwt>
<totfact> 0.66592662E+02</totfact>
</mgrwt>
</event>
<event>
 4    1  0.4862039E-002  0.4493047E+03  0.7818608E-02  0.1027930E+00
         21   -1    0    0  503  502  0.00000000000E+00  0.00000000000E+00  0.42380475094E+03  0.42380475094E+03  0.00000000000E+00 0.  1.
         21   -1    0    0  501  503 -0.00000000000E+00 -0.00000000000E+00 -0.53474672006E+03  0.53474672006E+03  0.00000000000E+00 0. -1.
    9000007    1    1    2  501    0  0.28615106098E+02 -0.20262245648E+03  0.10292600296E+03  0.46094299675E+03  0.40000000000E+03 0. -1.
   -9000007    1    1    2    0  502 -0.28615106098E+02  0.20262245648E+03 -0.21386797209E+03  0.49760847426E+03  0.40000000000E+03 0.  1.
<mgrwt>
<rscale>  2 0.44930467E+03</rscale>
<asrwt>0</asrwt>
<pdfrwt beam="1">  1       21 0.65200731E-01 0.44930467E+03</pdfrwt>
<pdfrwt beam="2">  1       21 0.82268726E-01 0.44930467E+03</pdfrwt>
<totfact> 0.24232194E+03</totfact>
</mgrwt>
</event>
<event>
 4    1  0.4862039E-002  0.4633159E+03  0.7818608E-02  0.1023824E+00
         21   -1    0    0  501  502  0.00000000000E+00  0.00000000000E+00  0.14770204528E+04  0.14770204528E+04  0.00000000000E+00 0. -1.
         21   -1    0    0  502  503 -0.00000000000E+00 -0.00000000000E+00 -0.18329840179E+03  0.18329840179E+03  0.00000000000E+00 0. -1.
    9000007    1    1    2  501    0 -0.22113745995E+03  0.75893825877E+02  0.10246672051E+04  0.11245463664E+04  0.40000000000E+03 0. -1.
   -9000007    1    1    2    0  503  0.22113745995E+03 -0.75893825877E+02  0.26905484596E+03  0.53577248822E+03  0.40000000000E+03 0. -1.
<mgrwt>
<rscale>  2 0.46331593E+03</rscale>
<asrwt>0</asrwt>
<pdfrwt beam="1">  1       21 0.22723391E+00 0.46331593E+03</pdfrwt>
<pdfrwt beam="2">  1       21 0.28199755E-01 0.46331593E+03</pdfrwt>
<totfact> 0.89640890E+02</totfact>
</mgrwt>
</event>
<event>
 4    1  0.4862039E-002  0.4562657E+03  0.7818608E-02  0.1025870E+00
         21   -1    0    0  501  502  0.00000000000E+00  0.00000000000E+00  0.42392851452E+03  0.42392851452E+03  0.00000000000E+00 0. -1.
         21   -1    0    0  502  503 -0.00000000000E+00 -0.00000000000E+00 -0.57622093853E+03  0.57622093853E+03  0.00000000000E+00 0. -1.
    9000007    1    1    2  501    0 -0.67140357086E+02  0.20897497589E+03  0.11609051176E+03  0.47080290464E+03  0.40000000000E+03 0. -1.
   -9000007    1    1    2    0  503  0.67140357086E+02 -0.20897497589E+03 -0.26838293577E+03  0.52934654841E+03  0.40000000000E+03 0. -1.
<mgrwt>
<rscale>  2 0.45626568E+03</rscale>
<asrwt>0</asrwt>
<pdfrwt beam="1">  1       21 0.65219771E-01 0.45626568E+03</pdfrwt>
<pdfrwt beam="2">  1       21 0.88649376E-01 0.45626568E+03</pdfrwt>
<totfact> 0.20276945E+03</totfact>
</mgrwt>
</event>
<event>
 4    1  0.4862039E-002  0.5155903E+03  0.7818608E-02  0.1009788E+00
         21   -1    0    0  503  502  0.00000000000E+00  0.00000000000E+00  0.21719433888E+04  0.21719433888E+04  0.00000000000E+00 0.  1.
         21   -1    0    0  501  503 -0.00000000000E+00 -0.00000000000E+00 -0.25492285467E+03  0.25492285467E+03  0.00000000000E+00 0.  1.
    9000007    1    1    2  501    0 -0.32526390402E+03  0.60604667616E+01  0.83594373706E+02  0.52232303781E+03  0.40000000000E+03 0.  1.
   -9000007    1    1    2    0  502  0.32526390402E+03 -0.60604667616E+01  0.18334261605E+04  0.19045432057E+04  0.40000000000E+03 0.  1.
<mgrwt>
<rscale>  2 0.51559028E+03</rscale>
<asrwt>0</asrwt>
<pdfrwt beam="1">  1       21 0.33414512E+00 0.51559028E+03</pdfrwt>
<pdfrwt beam="2">  1       21 0.39218902E-01 0.51559028E+03</pdfrwt>
<totfact> 0.99782656E+01</totfact>
</mgrwt>
</event>
<event>
 4    1  0.4862039E-002  0.5207334E+03  0.7818608E-02  0.1008505E+00
         21   -1    0    0  503  502  0.00000000000E+00  0.00000000000E+00  0.77132465145E+03  0.77132465145E+03  0.00000000000E+00 0.  1.
         21   -1    0    0  501  503 -0.00000000000E+00 -0.00000000000E+00 -0.36770909300E+03  0.36770909300E+03  0.00000000000E+00 0.  1.
    9000007    1    1    2  501    0 -0.30301811086E+03  0.13908036756E+03  0.82439011758E+02  0.52721865939E+03  0.40000000000E+03 0.  1.
   -9000007    1    1    2    0  502  0.30301811086E+03 -0.13908036756E+03  0.32117654669E+03  0.61181508505E+03  0.40000000000E+03 0.  1.
<mgrwt>
<rscale>  2 0.52073345E+03</rscale>
<asrwt>0</asrwt>
<pdfrwt beam="1">  1       21 0.11866533E+00 0.52073345E+03</pdfrwt>
<pdfrwt beam="2">  1       21 0.56570630E-01 0.52073345E+03</pdfrwt>
<totfact> 0.13274167E+03</totfact>
</mgrwt>
</event>
<event>
 4    1  0.4862039E-002  0.4043993E+03  0.7818608E-02  0.1042267E+00
         21   -1    0    0  503  502  0.00000000000E+00  0.00000000000E+00  0.76696016701E+03  0.76696016701E+03  0.00000000000E+00 0. -1.
         21   -1    0    0  501  503 -0.00000000000E+00 -0.00000000000E+00 -0.53163831340E+03  0.53163831340E+03  0.00000000000E+00 0. -1.
    9000007    1    1    2  501    0 -0.56797671355E+02 -0.17686817045E+02 -0.38483096974E+03  0.55824159128E+03  0.40000000000E+03 0. -1.
   -9000007    1    1    2    0  502  0.56797671355E+02  0.17686817045E+02  0.62015282335E+03  0.74035688913E+03  0.40000000000E+03 0. -1.
<mgrwt>
<rscale>  2 0.40439931E+03</rscale>
<asrwt>0</asrwt>
<pdfrwt beam="1">  1       21 0.11799387E+00 0.40439931E+03</pdfrwt>
<pdfrwt beam="2">  1       21 0.81790510E-01 0.40439931E+03</pdfrwt>
<totfact> 0.61792637E+02</totfact>
</mgrwt>
</event>
<event>
 4    1  0.4862039E-002  0.5894861E+03  0.7818608E-02  0.9927462E-01
         21   -1    0    0  501  502  0.00000000000E+00  0.00000000000E+00  0.18252533204E+04  0.18252533204E+04  0.00000000000E+00 0.  1.
         21   -1    0    0  502  503 -0.00000000000E+00 -0.00000000000E+00 -0.24720927766E+03  0.24720927766E+03  0.00000000000E+00 0.  1.
    9000007    1    1    2  501    0  0.35031003212E+03  0.25451281378E+03  0.29219425307E+03  0.65792961060E+03  0.40000000000E+03 0.  1.
   -9000007    1    1    2    0  503 -0.35031003212E+03 -0.25451281378E+03  0.12858497896E+04  0.14145329874E+04  0.40000000000E+03 0.  1.
<mgrwt>
<rscale>  2 0.58948612E+03</rscale>
<asrwt>0</asrwt>
<pdfrwt beam="1">  1       21 0.28080819E+00 0.58948612E+03</pdfrwt>
<pdfrwt beam="2">  1       21 0.38032198E-01 0.58948612E+03</pdfrwt>
<totfact> 0.21614445E+02</totfact>
</mgrwt>
</event>
<event>
 4    1  0.4862039E-002  0.4242034E+03  0.7818608E-02  0.1035707E+00
         21   -1    0    0  503  502  0.00000000000E+00  0.00000000000E+00  0.61110415595E+03  0.61110415595E+03  0.00000000000E+00 0. -1.
         21   -1    0    0  501  503 -0.00000000000E+00 -0.00000000000E+00 -0.31222426329E+03  0.31222426329E+03  0.00000000000E+00 0. -1.
    9000007    1    1    2  501    0 -0.32501435807E+02 -0.13744897962E+03  0.25954563469E+03  0.49730524008E+03  0.40000000000E+03 0. -1.
   -9000007    1    1    2    0  502  0.32501435807E+02  0.13744897962E+03  0.39334257971E+02  0.42602317916E+03  0.40000000000E+03 0. -1.
<mgrwt>
<rscale>  2 0.42420345E+03</rscale>
<asrwt>0</asrwt>
<pdfrwt beam="1">  1       21 0.94016024E-01 0.42420345E+03</pdfrwt>
<pdfrwt beam="2">  1       21 0.48034502E-01 0.42420345E+03</pdfrwt>
<totfact> 0.34610085E+03</totfact>
</mgrwt>
</event>
<event>
 4    1  0.4862039E-002  0.4649067E+03  0.7818608E-02  0.1023368E+00
         21   -1    0    0  501  502  0.00000000000E+00  0.00000000000E+00  0.89451860329E+03  0.89451860329E+03  0.00000000000E+00 0.  1.
         21   -1    0    0  502  503 -0.00000000000E+00 -0.00000000000E+00 -0.77798436739E+03  0.77798436739E+03  0.00000000000E+00 0.  1.
    9000007    1    1    2  501    0 -0.16792602906E+03 -0.16714989742E+03  0.75261852439E+03  0.88463149543E+03  0.40000000000E+03 0.  1.
   -9000007    1    1    2    0  503  0.16792602906E+03  0.16714989742E+03 -0.63608428849E+03  0.78787147525E+03  0.40000000000E+03 0.  1.
<mgrwt>
<rscale>  2 0.46490670E+03</rscale>
<asrwt>0</asrwt>
<pdfrwt beam="1">  1       21 0.13761825E+00 0.46490670E+03</pdfrwt>
<pdfrwt beam="2">  1       21 0.11968990E+00 0.46490670E+03</pdfrwt>
<totfact> 0.16034968E+02</totfact>
</mgrwt>
</event>
<event>
 4    1  0.4862039E-002  0.4410378E+03  0.7818608E-02  0.1030429E+00
         21   -1    0    0  501  502  0.00000000000E+00  0.00000000000E+00  0.14663187982E+04  0.14663187982E+04  0.00000000000E+00 0.  1.
         21   -1    0    0  502  503 -0.00000000000E+00 -0.00000000000E+00 -0.68230450985E+03  0.68230450985E+03  0.00000000000E+00 0.  1.
    9000007    1    1    2  501    0 -0.33620442425E+02 -0.18271283449E+03  0.13562449251E+04  0.14261537823E+04  0.40000000000E+03 0.  1.
   -9000007    1    1    2    0  503  0.33620442425E+02  0.18271283449E+03 -0.57223063671E+03  0.72246952574E+03  0.40000000000E+03 0.  1.
<mgrwt>
<rscale>  2 0.44103777E+03</rscale>
<asrwt>0</asrwt>
<pdfrwt beam="1">  1       21 0.22558751E+00 0.44103777E+03</pdfrwt>
<pdfrwt beam="2">  1       21 0.10496992E+00 0.44103777E+03</pdfrwt>
<totfact> 0.53299343E+01</totfact>
</mgrwt>
</event>
<event>
 4    1  0.4862039E-002  0.4463720E+03  0.7818608E-02  0.1028809E+00
         21   -1    0    0  503  502  0.00000000000E+00  0.00000000000E+00  0.32535443017E+04  0.32535443017E+04  0.00000000000E+00 0.  1.
         21   -1    0    0  501  503 -0.00000000000E+00 -0.00000000000E+00 -0.63450976828E+02  0.63450976828E+02  0.00000000000E+00 0.  1.
    9000007    1    1    2  501    0  0.19438456195E+02 -0.19715504687E+03  0.12854756886E+04  0.13607702642E+04  0.40000000000E+03 0.  1.
   -9000007    1    1    2    0  502 -0.19438456195E+02  0.19715504687E+03  0.19046176363E+04  0.19562250143E+04  0.40000000000E+03 0.  1.
<mgrwt>
<rscale>  2 0.44637200E+03</rscale>
<asrwt>0</asrwt>
<pdfrwt beam="1">  1       21 0.50054515E+00 0.44637200E+03</pdfrwt>
<pdfrwt beam="2">  1       21 0.97616913E-02 0.44637200E+03</pdfrwt>
<totfact> 0.11992552E+02</totfact>
</mgrwt>
</event>
<event>
 4    1  0.4862039E-002  0.4658000E+03  0.7818608E-02  0.1023112E+00
         21   -1    0    0  501  502  0.00000000000E+00  0.00000000000E+00  0.45695493687E+03  0.45695493687E+03  0.00000000000E+00 0. -1.
         21   -1    0    0  502  503 -0.00000000000E+00 -0.00000000000E+00 -0.15048496927E+04  0.15048496927E+04  0.00000000000E+00 0.  1.
    9000007    1    1    2  501    0  0.13412067386E+03 -0.19743684637E+03  0.28758311801E+03  0.54742461876E+03  0.40000000000E+03 0. -1.
   -9000007    1    1    2    0  503 -0.13412067386E+03  0.19743684637E+03 -0.13354778738E+04  0.14143800108E+04  0.40000000000E+03 0.  1.
<mgrwt>
<rscale>  2 0.46580003E+03</rscale>
<asrwt>0</asrwt>
<pdfrwt beam="1">  1       21 0.70300760E-01 0.46580003E+03</pdfrwt>
<pdfrwt beam="2">  1       21 0.23151534E+00 0.46580003E+03</pdfrwt>
<totfact> 0.12356037E+02</totfact>
</mgrwt>
</event>
<event>
 4    1  0.4862039E-002  0.4859230E+03  0.7818608E-02  0.1017520E+00
         21   -1    0    0  503  502  0.00000000000E+00  0.00000000000E+00  0.21193600862E+03  0.21193600862E+03  0.00000000000E+00 0.  1.
         21   -1    0    0  501  503 -0.00000000000E+00 -0.00000000000E+00 -0.13282153172E+04  0.13282153172E+04  0.00000000000E+00 0. -1.
    9000007    1    1    2  501    0 -0.20182343036E+03  0.18811827010E+03 -0.86731678335E+03  0.99416275492E+03  0.40000000000E+03 0. -1.
   -9000007    1    1    2    0  502  0.20182343036E+03 -0.18811827010E+03 -0.24896252525E+03  0.54598857091E+03  0.40000000000E+03 0. -1.
<mgrwt>
<rscale>  2 0.48592302E+03</rscale>
<asrwt>0</asrwt>
<pdfrwt beam="1">  1       21 0.32605540E-01 0.48592302E+03</pdfrwt>
<pdfrwt beam="2">  1       21 0.20434082E+00 0.48592302E+03</pdfrwt>
<totfact> 0.93425026E+02</totfact>
</mgrwt>
</event>
<event>
 4    1  0.4862039E-002  0.5587399E+03  0.7818608E-02  0.9994910E-01
         21   -1    0    0  503  502  0.00000000000E+00  0.00000000000E+00  0.49921861307E+03  0.49921861307E+03  0.00000000000E+00 0.  1.
         21   -1    0    0  501  503 -0.00000000000E+00 -0.00000000000E+00 -0.62949635850E+03  0.62949635850E+03  0.00000000000E+00 0.  1.
    9000007    1    1    2  501    0 -0.28660462428E+02  0.38906155647E+03 -0.11089777333E+03  0.56963903742E+03  0.40000000000E+03 0.  1.
   -9000007    1    1    2    0  502  0.28660462428E+02 -0.38906155647E+03 -0.19379972108E+02  0.55907593415E+03  0.40000000000E+03 0.  1.
<mgrwt>
<rscale>  2 0.55873994E+03</rscale>
<asrwt>0</asrwt>
<pdfrwt beam="1">  1       21 0.76802863E-01 0.55873994E+03</pdfrwt>
<pdfrwt beam="2">  1       21 0.96845594E-01 0.55873994E+03</pdfrwt>
<totfact> 0.10944207E+03</totfact>
</mgrwt>
</event>
<event>
 4    1  0.4862039E-002  0.5159590E+03  0.7818608E-02  0.1009695E+00
         21   -1    0    0  503  502  0.00000000000E+00  0.00000000000E+00  0.70721749445E+03  0.70721749445E+03  0.00000000000E+00 0. -1.
         21   -1    0    0  501  503 -0.00000000000E+00 -0.00000000000E+00 -0.42730348470E+03  0.42730348470E+03  0.00000000000E+00 0.  1.
    9000007    1    1    2  501    0 -0.30612841481E+03  0.11179936888E+03 -0.55785555767E+02  0.51896602342E+03  0.40000000000E+03 0.  1.
   -9000007    1    1    2    0  502  0.30612841481E+03 -0.11179936888E+03  0.33569956552E+03  0.61555495573E+03  0.40000000000E+03 0. -1.
<mgrwt>
<rscale>  2 0.51595902E+03</rscale>
<asrwt>0</asrwt>
<pdfrwt beam="1">  1       21 0.10880269E+00 0.51595902E+03</pdfrwt>
<pdfrwt beam="2">  1       21 0.65738998E-01 0.51595902E+03</pdfrwt>
<totfact> 0.11866906E+03</totfact>
</mgrwt>
</event>
<event>
 4    1  0.4862039E-002  0.5162222E+03  0.7818608E-02  0.1009629E+00
         21   -1    0    0  501  502  0.00000000000E+00  0.00000000000E+00  0.62616039511E+03  0.62616039511E+03  0.00000000000E+00 0.  1.
         21   -1    0    0  502  503 -0.00000000000E+00 -0.00000000000E+00 -0.80137732574E+03  0.80137732574E+03  0.00000000000E+00 0.  1.
    9000007    1    1    2  501    0  0.23848500380E+03 -0.22273369619E+03  0.40117012222E+03  0.65377585106E+03  0.40000000000E+03 0.  1.
   -9000007    1    1    2    0  503 -0.23848500380E+03  0.22273369619E+03 -0.57638705285E+03  0.77376186980E+03  0.40000000000E+03 0.  1.
<mgrwt>
<rscale>  2 0.51622224E+03</rscale>
<asrwt>0</asrwt>
<pdfrwt beam="1">  1       21 0.96332368E-01 0.51622224E+03</pdfrwt>
<pdfrwt beam="2">  1       21 0.12328882E+00 0.51622224E+03</pdfrwt>
<totfact> 0.35695537E+02</totfact>
</mgrwt>
</event>
<event>
 4    1  0.4862039E-002  0.5394689E+03  0.7818608E-02  0.1003961E+00
         21   -1    0    0  503  502  0.00000000000E+00  0.00000000000E+00  0.59721182401E+03  0.59721182401E+03  0.00000000000E+00 0. -1.
         21   -1    0    0  501  503 -0.00000000000E+00 -0.00000000000E+00 -0.50573675041E+03  0.50573675041E+03  0.00000000000E+00 0. -1.
    9000007    1    1    2  501    0 -0.31663685627E+03 -0.17540766031E+03  0.15100597973E+03  0.56020491961E+03  0.40000000000E+03 0. -1.
   -9000007    1    1    2    0  502  0.31663685627E+03  0.17540766031E+03 -0.59530906133E+02  0.54274365480E+03  0.40000000000E+03 0. -1.
<mgrwt>
<rscale>  2 0.53946895E+03</rscale>
<asrwt>0</asrwt>
<pdfrwt beam="1">  1       21 0.91878742E-01 0.53946895E+03</pdfrwt>
<pdfrwt beam="2">  1       21 0.77805654E-01 0.53946895E+03</pdfrwt>
<totfact> 0.12131847E+03</totfact>
</mgrwt>
</event>
<event>
 4    1  0.4862039E-002  0.6124469E+03  0.7818608E-02  0.9879914E-01
         21   -1    0    0  501  502  0.00000000000E+00  0.00000000000E+00  0.56758744096E+03  0.56758744096E+03  0.00000000000E+00 0.  1.
         21   -1    0    0  502  503 -0.00000000000E+00 -0.00000000000E+00 -0.66784624382E+03  0.66784624382E+03  0.00000000000E+00 0. -1.
    9000007    1    1    2  501    0 -0.45261242975E+03 -0.10115908404E+03  0.13086792985E+02  0.61258667632E+03  0.40000000000E+03 0.  1.
   -9000007    1    1    2    0  503  0.45261242975E+03  0.10115908404E+03 -0.11334559585E+03  0.62284700846E+03  0.40000000000E+03 0.  1.
<mgrwt>
<rscale>  2 0.61244687E+03</rscale>
<asrwt>0</asrwt>
<pdfrwt beam="1">  1       21 0.87321145E-01 0.61244687E+03</pdfrwt>
<pdfrwt beam="2">  1       21 0.10274558E+00 0.61244687E+03</pdfrwt>
<totfact> 0.68983823E+02</totfact>
</mgrwt>
</event>
<event>
 4    1  0.4862039E-002  0.6296105E+03  0.7818608E-02  0.9845809E-01
         21   -1    0    0  501  502  0.00000000000E+00  0.00000000000E+00  0.88082958316E+03  0.88082958316E+03  0.00000000000E+00 0. -1.
         21   -1    0    0  502  503 -0.00000000000E+00 -0.00000000000E+00 -0.13580377441E+04  0.13580377441E+04  0.00000000000E+00 0.  1.
    9000007    1    1    2  501    0 -0.48615552636E+03  0.78830969194E+01  0.67674049461E+03  0.92433058808E+03  0.40000000000E+03 0. -1.
   -9000007    1    1    2    0  503  0.48615552636E+03 -0.78830969194E+01 -0.11539486556E+04  0.13145367392E+04  0.40000000000E+03 0.  1.
<mgrwt>
<rscale>  2 0.62961047E+03</rscale>
<asrwt>0</asrwt>
<pdfrwt beam="1">  1       21 0.13551224E+00 0.62961047E+03</pdfrwt>
<pdfrwt beam="2">  1       21 0.20892888E+00 0.62961047E+03</pdfrwt>
<totfact> 0.32237680E+01</totfact>
</mgrwt>
</event>
<event>
 4    1  0.4862039E-002  0.4450445E+03  0.7818608E-02  0.1029210E+00
         21   -1    0    0  503  502  0.00000000000E+00  0.00000000000E+00  0.23640556133E+03  0.23640556133E+03  0.00000000000E+00 0. -1.
         21   -1    0    0  501  503 -0.00000000000E+00 -0.00000000000E+00 -0.97443508036E+03  0.97443508036E+03  0.00000000000E+00 0.  1.
    9000007    1    1    2  501    0  0.14979889793E+03 -0.12499952124E+03 -0.59570597029E+03  0.74359276030E+03  0.40000000000E+03 0. -1.
   -9000007    1    1    2    0  502 -0.14979889793E+03  0.12499952124E+03 -0.14232354874E+03  0.46724788138E+03  0.40000000000E+03 0. -1.
<mgrwt>
<rscale>  2 0.44504448E+03</rscale>
<asrwt>0</asrwt>
<pdfrwt beam="1">  1       21 0.36370087E-01 0.44504448E+03</pdfrwt>
<pdfrwt beam="2">  1       21 0.14991309E+00 0.44504448E+03</pdfrwt>
<totfact> 0.18698080E+03</totfact>
</mgrwt>
</event>
<event>
 4    1  0.4862039E-002  0.6426886E+03  0.7818608E-02  0.9820596E-01
         21   -1    0    0  501  502  0.00000000000E+00  0.00000000000E+00  0.28340817488E+04  0.28340817488E+04  0.00000000000E+00 0. -1.
         21   -1    0    0  502  503 -0.00000000000E+00 -0.00000000000E+00 -0.26099142669E+03  0.26099142669E+03  0.00000000000E+00 0. -1.
    9000007    1    1    2  501    0  0.26047110624E+03 -0.43035271291E+03  0.23149037761E+04  0.24024629336E+04  0.40000000000E+03 0. -1.
   -9000007    1    1    2    0  503 -0.26047110624E+03  0.43035271291E+03  0.25818654606E+03  0.69261024196E+03  0.40000000000E+03 0. -1.
<mgrwt>
<rscale>  2 0.64268861E+03</rscale>
<asrwt>0</asrwt>
<pdfrwt beam="1">  1       21 0.43601255E+00 0.64268861E+03</pdfrwt>
<pdfrwt beam="2">  1       21 0.40152529E-01 0.64268861E+03</pdfrwt>
<totfact> 0.19809375E+01</totfact>
</mgrwt>
</event>
<event>
 4    1  0.4862039E-002  0.5150870E+03  0.7818608E-02  0.1009914E+00
         21   -1    0    0  503  502  0.00000000000E+00  0.00000000000E+00  0.10614935015E+04  0.10614935015E+04  0.00000000000E+00 0. -1.
         21   -1    0    0  501  503 -0.00000000000E+00 -0.00000000000E+00 -0.26668252728E+03  0.26668252728E+03  0.00000000000E+00 0. -1.
    9000007    1    1    2  501    0 -0.18486537385E+03  0.26671972188E+03  0.23103410881E+03  0.56452756879E+03  0.40000000000E+03 0. -1.
   -9000007    1    1    2    0  502  0.18486537385E+03 -0.26671972188E+03  0.56377686542E+03  0.76364846000E+03  0.40000000000E+03 0. -1.
<mgrwt>
<rscale>  2 0.51508700E+03</rscale>
<asrwt>0</asrwt>
<pdfrwt beam="1">  1       21 0.16330669E+00 0.51508700E+03</pdfrwt>
<pdfrwt beam="2">  1       21 0.41028082E-01 0.51508700E+03</pdfrwt>
<totfact> 0.11213102E+03</totfact>
</mgrwt>
</event>
<event>
 4    1  0.4862039E-002  0.5019822E+03  0.7818608E-02  0.1013263E+00
         21   -1    0    0  503  502  0.00000000000E+00  0.00000000000E+00  0.26821297245E+03  0.26821297245E+03  0.00000000000E+00 0. -1.
         21   -1    0    0  501  503 -0.00000000000E+00 -0.00000000000E+00 -0.16995272470E+04  0.16995272470E+04  0.00000000000E+00 0. -1.
    9000007    1    1    2  501    0  0.25144443222E+03 -0.16959297541E+03 -0.13736001670E+04  0.14624511953E+04  0.40000000000E+03 0. -1.
   -9000007    1    1    2    0  502 -0.25144443222E+03  0.16959297541E+03 -0.57714107620E+02  0.50528902424E+03  0.40000000000E+03 0. -1.
<mgrwt>
<rscale>  2 0.50198215E+03</rscale>
<asrwt>0</asrwt>
<pdfrwt beam="1">  1       21 0.41263536E-01 0.50198215E+03</pdfrwt>
<pdfrwt beam="2">  1       21 0.26146572E+00 0.50198215E+03</pdfrwt>
<totfact> 0.24979764E+02</totfact>
</mgrwt>
</event>
<event>
 4    1  0.4862039E-002  0.4402751E+03  0.7818608E-02  0.1030662E+00
         21   -1    0    0  503  502  0.00000000000E+00  0.00000000000E+00  0.22437977857E+04  0.22437977857E+04  0.00000000000E+00 0.  1.
         21   -1    0    0  501  503 -0.00000000000E+00 -0.00000000000E+00 -0.91860626802E+02  0.91860626802E+02  0.00000000000E+00 0.  1.
    9000007    1    1    2  501    0  0.15316314549E+03  0.10189797695E+03  0.79098154293E+03  0.90525905027E+03  0.40000000000E+03 0. -1.
   -9000007    1    1    2    0  502 -0.15316314549E+03 -0.10189797695E+03  0.13609556160E+04  0.14303993623E+04  0.40000000000E+03 0. -1.
<mgrwt>
<rscale>  2 0.44027508E+03</rscale>
<asrwt>0</asrwt>
<pdfrwt beam="1">  1       21 0.34519962E+00 0.44027508E+03</pdfrwt>
<pdfrwt beam="2">  1       21 0.14132406E-01 0.44027508E+03</pdfrwt>
<totfact> 0.64800638E+02</totfact>
</mgrwt>
</event>
<event>
 4    1  0.4862039E-002  0.4014099E+03  0.7818608E-02  0.1043293E+00
         21   -1    0    0  501  502  0.00000000000E+00  0.00000000000E+00  0.62666762395E+03  0.62666762395E+03  0.00000000000E+00 0. -1.
         21   -1    0    0  502  503 -0.00000000000E+00 -0.00000000000E+00 -0.29913433512E+03  0.29913433512E+03  0.00000000000E+00 0. -1.
    9000007    1    1    2  501    0  0.33170222703E+02  0.54418277902E+01  0.33724474626E+03  0.52427463800E+03  0.40000000000E+03 0. -1.
   -9000007    1    1    2    0  503 -0.33170222703E+02 -0.54418277902E+01 -0.97114574256E+01  0.40152732107E+03  0.40000000000E+03 0. -1.
<mgrwt>
<rscale>  2 0.40140986E+03</rscale>
<asrwt>0</asrwt>
<pdfrwt beam="1">  1       21 0.96410404E-01 0.40140986E+03</pdfrwt>
<pdfrwt beam="2">  1       21 0.46020667E-01 0.40140986E+03</pdfrwt>
<totfact> 0.35974053E+03</totfact>
</mgrwt>
</event>
<event>
 4    1  0.4862039E-002  0.4467226E+03  0.7818608E-02  0.1028704E+00
         21   -1    0    0  501  502  0.00000000000E+00  0.00000000000E+00  0.76839209900E+03  0.76839209900E+03  0.00000000000E+00 0.  1.
         21   -1    0    0  502  503 -0.00000000000E+00 -0.00000000000E+00 -0.59454847942E+03  0.59454847942E+03  0.00000000000E+00 0.  1.
    9000007    1    1    2  501    0 -0.90789468249E+02 -0.17696982772E+03  0.59833195224E+03  0.74670085881E+03  0.40000000000E+03 0.  1.
   -9000007    1    1    2    0  503  0.90789468249E+02  0.17696982772E+03 -0.42448833266E+03  0.61623971962E+03  0.40000000000E+03 0.  1.
<mgrwt>
<rscale>  2 0.44672256E+03</rscale>
<asrwt>0</asrwt>
<pdfrwt beam="1">  1       21 0.11821417E+00 0.44672256E+03</pdfrwt>
<pdfrwt beam="2">  1       21 0.91468997E-01 0.44672256E+03</pdfrwt>
<totfact> 0.46369868E+02</totfact>
</mgrwt>
</event>
<event>
 4    1  0.4862039E-002  0.5401557E+03  0.7818608E-02  0.1003799E+00
         21   -1    0    0  503  502  0.00000000000E+00  0.00000000000E+00  0.12500753293E+04  0.12500753293E+04  0.00000000000E+00 0. -1.
         21   -1    0    0  501  503 -0.00000000000E+00 -0.00000000000E+00 -0.30414971927E+03  0.30414971927E+03  0.00000000000E+00 0. -1.
    9000007    1    1    2  501    0  0.28646121000E+03  0.22295333403E+03  0.84776403438E+03  0.10052223993E+04  0.40000000000E+03 0. -1.
   -9000007    1    1    2    0  502 -0.28646121000E+03 -0.22295333403E+03  0.98161575627E+02  0.54900264928E+03  0.40000000000E+03 0. -1.
<mgrwt>
<rscale>  2 0.54015573E+03</rscale>
<asrwt>0</asrwt>
<pdfrwt beam="1">  1       21 0.19231928E+00 0.54015573E+03</pdfrwt>
<pdfrwt beam="2">  1       21 0.46792265E-01 0.54015573E+03</pdfrwt>
<totfact> 0.52313892E+02</totfact>
</mgrwt>
</event>
<event>
 4    1  0.4862039E-002  0.4121074E+03  0.7818608E-02  0.1039666E+00
         21   -1    0    0  501  502  0.00000000000E+00  0.00000000000E+00  0.13267531196E+04  0.13267531196E+04  0.00000000000E+00 0.  1.
         21   -1    0    0  502  503 -0.00000000000E+00 -0.00000000000E+00 -0.18834475803E+03  0.18834475803E+03  0.00000000000E+00 0.  1.
    9000007    1    1    2  501    0 -0.79141274555E+02 -0.59742517424E+02  0.14042696278E+03  0.43537597729E+03  0.40000000000E+03 0.  1.
   -9000007    1    1    2    0  503  0.79141274555E+02  0.59742517424E+02  0.99798139876E+03  0.10797219003E+04  0.40000000000E+03 0.  1.
<mgrwt>
<rscale>  2 0.41210740E+03</rscale>
<asrwt>0</asrwt>
<pdfrwt beam="1">  1       21 0.20411586E+00 0.41210740E+03</pdfrwt>
<pdfrwt beam="2">  1       21 0.28976118E-01 0.41210740E+03</pdfrwt>
<totfact> 0.12270132E+03</totfact>
</mgrwt>
</event>
<event>
 4    1  0.4862039E-002  0.5941159E+03  0.7818608E-02  0.9917690E-01
         21   -1    0    0  501  502  0.00000000000E+00  0.00000000000E+00  0.79435051168E+03  0.79435051168E+03  0.00000000000E+00 0. -1.
         21   -1    0    0  502  503 -0.00000000000E+00 -0.00000000000E+00 -0.62309643095E+03  0.62309643095E+03  0.00000000000E+00 0. -1.
    9000007    1    1    2  501    0  0.80775322043E+02  0.43179741278E+03  0.46521440107E+03  0.75458471844E+03  0.40000000000E+03 0. -1.
   -9000007    1    1    2    0  503 -0.80775322043E+02 -0.43179741278E+03 -0.29396032033E+03  0.66286222419E+03  0.40000000000E+03 0. -1.
<mgrwt>
<rscale>  2 0.59411586E+03</rscale>
<asrwt>0</asrwt>
<pdfrwt beam="1">  1       21 0.12220777E+00 0.59411586E+03</pdfrwt>
<pdfrwt beam="2">  1       21 0.95860989E-01 0.59411586E+03</pdfrwt>
<totfact> 0.35878311E+02</totfact>
</mgrwt>
</event>
<event>
 4    1  0.4862039E-002  0.4187443E+03  0.7818608E-02  0.1037476E+00
         21   -1    0    0  503  502  0.00000000000E+00  0.00000000000E+00  0.30124352283E+03  0.30124352283E+03  0.00000000000E+00 0. -1.
         21   -1    0    0  501  503 -0.00000000000E+00 -0.00000000000E+00 -0.83072066214E+03  0.83072066214E+03  0.00000000000E+00 0. -1.
    9000007    1    1    2  501    0  0.56652864910E+02 -0.11016898052E+03 -0.57438379476E+03  0.71081889048E+03  0.40000000000E+03 0. -1.
   -9000007    1    1    2    0  502 -0.56652864910E+02  0.11016898052E+03  0.44906655454E+02  0.42114529449E+03  0.40000000000E+03 0. -1.
<mgrwt>
<rscale>  2 0.41874426E+03</rscale>
<asrwt>0</asrwt>
<pdfrwt beam="1">  1       21 0.46345158E-01 0.41874426E+03</pdfrwt>
<pdfrwt beam="2">  1       21 0.12780318E+00 0.41874426E+03</pdfrwt>
<totfact> 0.17468602E+03</totfact>
</mgrwt>
</event>
<event>
 4    1  0.4862039E-002  0.4018246E+03  0.7818608E-02  0.1043150E+00
         21   -1    0    0  503  502  0.00000000000E+00  0.00000000000E+00  0.66190982524E+02  0.66190982524E+02  0.00000000000E+00 0.  1.
         21   -1    0    0  501  503 -0.00000000000E+00 -0.00000000000E+00 -0.24727062181E+04  0.24727062181E+04  0.00000000000E+00 0.  1.
    9000007    1    1    2  501    0 -0.18428452556E+02  0.33517660916E+02 -0.13506959982E+04  0.14091993191E+04  0.40000000000E+03 0. -1.
   -9000007    1    1    2    0  502  0.18428452556E+02 -0.33517660916E+02 -0.10558192374E+04  0.11296978815E+04  0.40000000000E+03 0. -1.
<mgrwt>
<rscale>  2 0.40182464E+03</rscale>
<asrwt>0</asrwt>
<pdfrwt beam="1">  1       21 0.10183231E-01 0.40182464E+03</pdfrwt>
<pdfrwt beam="2">  1       21 0.38041625E+00 0.40182464E+03</pdfrwt>
<totfact> 0.73044134E+02</totfact>
</mgrwt>
</event>
<event>
 4    1  0.4862039E-002  0.4486544E+03  0.7818608E-02  0.1028124E+00
         21   -1    0    0  501  502  0.00000000000E+00  0.00000000000E+00  0.25441816245E+03  0.25441816245E+03  0.00000000000E+00 0. -1.
         21   -1    0    0  502  503 -0.00000000000E+00 -0.00000000000E+00 -0.10589723023E+04  0.10589723023E+04  0.00000000000E+00 0. -1.
    9000007    1    1    2  501    0  0.18053986362E+03  0.93252885380E+02 -0.72044404685E+02  0.45440195778E+03  0.40000000000E+03 0. -1.
   -9000007    1    1    2    0  503 -0.18053986362E+03 -0.93252885380E+02 -0.73250973517E+03  0.85898850697E+03  0.40000000000E+03 0. -1.
<mgrwt>
<rscale>  2 0.44865437E+03</rscale>
<asrwt>0</asrwt>
<pdfrwt beam="1">  1       21 0.39141257E-01 0.44865437E+03</pdfrwt>
<pdfrwt beam="2">  1       21 0.16291881E+00 0.44865437E+03</pdfrwt>
<totfact> 0.12774139E+03</totfact>
</mgrwt>
</event>
<event>
 4    1  0.4862039E-002  0.4296323E+03  0.7818608E-02  0.1033976E+00
         21   -1    0    0  501  502  0.00000000000E+00  0.00000000000E+00  0.84892149665E+03  0.84892149665E+03  0.00000000000E+00 0. -1.
         21   -1    0    0  502  503 -0.00000000000E+00 -0.00000000000E+00 -0.23713983188E+03  0.23713983188E+03  0.00000000000E+00 0.  1.
    9000007    1    1    2  501    0  0.14838029393E+03  0.50667439774E+02  0.46243104542E+03  0.63121024457E+03  0.40000000000E+03 0. -1.
   -9000007    1    1    2    0  503 -0.14838029393E+03 -0.50667439774E+02  0.14935061935E+03  0.45485108396E+03  0.40000000000E+03 0.  1.
<mgrwt>
<rscale>  2 0.42963229E+03</rscale>
<asrwt>0</asrwt>
<pdfrwt beam="1">  1       21 0.13060331E+00 0.42963229E+03</pdfrwt>
<pdfrwt beam="2">  1       21 0.36483052E-01 0.42963229E+03</pdfrwt>
<totfact> 0.26956368E+03</totfact>
</mgrwt>
</event>
<event>
 4    1  0.4862039E-002  0.4759040E+03  0.7818608E-02  0.1020267E+00
         21   -1    0    0  503  502  0.00000000000E+00  0.00000000000E+00  0.95269527629E+02  0.95269527629E+02  0.00000000000E+00 0.  1.
         21   -1    0    0  501  503 -0.00000000000E+00 -0.00000000000E+00 -0.26381310730E+04  0.26381310730E+04  0.00000000000E+00 0.  1.
    9000007    1    1    2  501    0 -0.12929669629E+03 -0.22308518120E+03 -0.17011664377E+04  0.17664800827E+04  0.40000000000E+03 0.  1.
   -9000007    1    1    2    0  502  0.12929669629E+03  0.22308518120E+03 -0.84169510760E+03  0.96692051788E+03  0.40000000000E+03 0.  1.
<mgrwt>
<rscale>  2 0.47590402E+03</rscale>
<asrwt>0</asrwt>
<pdfrwt beam="1">  1       21 0.14656851E-01 0.47590402E+03</pdfrwt>
<pdfrwt beam="2">  1       21 0.40586631E+00 0.47590402E+03</pdfrwt>
<totfact> 0.24658967E+02</totfact>
</mgrwt>
</event>
<event>
 4    1  0.4862039E-002  0.4293966E+03  0.7818608E-02  0.1034051E+00
         21   -1    0    0  501  502  0.00000000000E+00  0.00000000000E+00  0.61292655248E+03  0.61292655248E+03  0.00000000000E+00 0.  1.
         21   -1    0    0  502  503 -0.00000000000E+00 -0.00000000000E+00 -0.71950148297E+03  0.71950148297E+03  0.00000000000E+00 0.  1.
    9000007    1    1    2  501    0 -0.15392620189E+03  0.26232293704E+02  0.45491770957E+03  0.62556496972E+03  0.40000000000E+03 0.  1.
   -9000007    1    1    2    0  503  0.15392620189E+03 -0.26232293704E+02 -0.56149264005E+03  0.70686306573E+03  0.40000000000E+03 0.  1.
<mgrwt>
<rscale>  2 0.42939656E+03</rscale>
<asrwt>0</asrwt>
<pdfrwt beam="1">  1       21 0.94296393E-01 0.42939656E+03</pdfrwt>
<pdfrwt beam="2">  1       21 0.11069254E+00 0.42939656E+03</pdfrwt>
<totfact> 0.51230059E+02</totfact>
</mgrwt>
</event>
<event>
 4    1  0.4862039E-002  0.4461635E+03  0.7818608E-02  0.1028872E+00
         21   -1    0    0  501  502  0.00000000000E+00  0.00000000000E+00  0.38605401900E+03  0.38605401900E+03  0.00000000000E+00 0. -1.
         21   -1    0    0  502  503 -0.00000000000E+00 -0.00000000000E+00 -0.98326879318E+03  0.98326879318E+03  0.00000000000E+00 0. -1.
    9000007    1    1    2  501    0  0.21630604799E+02 -0.19645360415E+03  0.17355777633E+03  0.47873187002E+03  0.40000000000E+03 0. -1.
   -9000007    1    1    2    0  503 -0.21630604799E+02  0.19645360415E+03 -0.77077255051E+03  0.89059094216E+03  0.40000000000E+03 0. -1.
<mgrwt>
<rscale>  2 0.44616354E+03</rscale>
<asrwt>0</asrwt>
<pdfrwt beam="1">  1       21 0.59392927E-01 0.44616354E+03</pdfrwt>
<pdfrwt beam="2">  1       21 0.15127212E+00 0.44616354E+03</pdfrwt>
<totfact> 0.64924910E+02</totfact>
</mgrwt>
</event>
<event>
 4    1  0.4862039E-002  0.5790508E+03  0.7818608E-02  0.9949848E-01
         21   -1    0    0  501  502  0.00000000000E+00  0.00000000000E+00  0.13465226733E+04  0.13465226733E+04  0.00000000000E+00 0. -1.
         21   -1    0    0  502  503 -0.00000000000E+00 -0.00000000000E+00 -0.28769734496E+03  0.28769734496E+03  0.00000000000E+00 0.  1.
    9000007    1    1    2  501    0  0.25572088140E+03  0.33152168551E+03  0.22978082990E+03  0.62297594411E+03  0.40000000000E+03 0. -1.
   -9000007    1    1    2    0  503 -0.25572088140E+03 -0.33152168551E+03  0.82904449845E+03  0.10112440742E+04  0.40000000000E+03 0. -1.
<mgrwt>
<rscale>  2 0.57905077E+03</rscale>
<asrwt>0</asrwt>
<pdfrwt beam="1">  1       21 0.20715733E+00 0.57905077E+03</pdfrwt>
<pdfrwt beam="2">  1       21 0.44261131E-01 0.57905077E+03</pdfrwt>
<totfact> 0.46021785E+02</totfact>
</mgrwt>
</event>
<event>
 4    1  0.4862039E-002  0.5717963E+03  0.7818608E-02  0.9965711E-01
         21   -1    0    0  501  502  0.00000000000E+00  0.00000000000E+00  0.59310820008E+03  0.59310820008E+03  0.00000000000E+00 0.  1.
         21   -1    0    0  502  503 -0.00000000000E+00 -0.00000000000E+00 -0.55249790626E+03  0.55249790626E+03  0.00000000000E+00 0.  1.
    9000007    1    1    2  501    0  0.54995246564E+02  0.40487843460E+03 -0.69151738934E+01  0.57183812708E+03  0.40000000000E+03 0.  1.
   -9000007    1    1    2    0  503 -0.54995246564E+02 -0.40487843460E+03  0.47525467712E+02  0.57376797926E+03  0.40000000000E+03 0.  1.
<mgrwt>
<rscale>  2 0.57179631E+03</rscale>
<asrwt>0</asrwt>
<pdfrwt beam="1">  1       21 0.91247416E-01 0.57179631E+03</pdfrwt>
<pdfrwt beam="2">  1       21 0.84999678E-01 0.57179631E+03</pdfrwt>
<totfact> 0.99320650E+02</totfact>
</mgrwt>
</event>
<event>
 4    1  0.4862039E-002  0.5023073E+03  0.7818608E-02  0.1013178E+00
         21   -1    0    0  503  502  0.00000000000E+00  0.00000000000E+00  0.16906735702E+04  0.16906735702E+04  0.00000000000E+00 0. -1.
         21   -1    0    0  501  503 -0.00000000000E+00 -0.00000000000E+00 -0.23585140179E+03  0.23585140179E+03  0.00000000000E+00 0.  1.
    9000007    1    1    2  501    0  0.23553644060E+03 -0.19192499768E+03  0.14367284174E+03  0.52245048094E+03  0.40000000000E+03 0.  1.
   -9000007    1    1    2    0  502 -0.23553644060E+03  0.19192499768E+03  0.13111493267E+04  0.14040744911E+04  0.40000000000E+03 0. -1.
<mgrwt>
<rscale>  2 0.50230730E+03</rscale>
<asrwt>0</asrwt>
<pdfrwt beam="1">  1       21 0.26010362E+00 0.50230730E+03</pdfrwt>
<pdfrwt beam="2">  1       21 0.36284832E-01 0.50230730E+03</pdfrwt>
<totfact> 0.33160833E+02</totfact>
</mgrwt>
</event>
<event>
 4    1  0.4862039E-002  0.5853612E+03  0.7818608E-02  0.9936251E-01
         21   -1    0    0  501  502  0.00000000000E+00  0.00000000000E+00  0.57327423916E+03  0.57327423916E+03  0.00000000000E+00 0.  1.
         21   -1    0    0  502  503 -0.00000000000E+00 -0.00000000000E+00 -0.99423664632E+03  0.99423664632E+03  0.00000000000E+00 0. -1.
    9000007    1    1    2  501    0  0.30101399792E+03 -0.30337813492E+03  0.28448519869E+03  0.65082989173E+03  0.40000000000E+03 0.  1.
   -9000007    1    1    2    0  503 -0.30101399792E+03  0.30337813492E+03 -0.70544760586E+03  0.91668099375E+03  0.40000000000E+03 0. -1.
<mgrwt>
<rscale>  2 0.58536119E+03</rscale>
<asrwt>0</asrwt>
<pdfrwt beam="1">  1       21 0.88196038E-01 0.58536119E+03</pdfrwt>
<pdfrwt beam="2">  1       21 0.15295948E+00 0.58536119E+03</pdfrwt>
<totfact> 0.24182085E+02</totfact>
</mgrwt>
</event>
<event>
 4    1  0.4862039E-002  0.4486710E+03  0.7818608E-02  0.1028119E+00
         21   -1    0    0  503  502  0.00000000000E+00  0.00000000000E+00  0.73810334990E+03  0.73810334990E+03  0.00000000000E+00 0. -1.
         21   -1    0    0  501  503 -0.00000000000E+00 -0.00000000000E+00 -0.30485561859E+03  0.30485561859E+03  0.00000000000E+00 0.  1.
    9000007    1    1    2  501    0  0.20248763701E+03  0.17447397182E+02  0.47349619018E+02  0.45116254414E+03  0.40000000000E+03 0.  1.
   -9000007    1    1    2    0  502 -0.20248763701E+03 -0.17447397182E+02  0.38589811229E+03  0.59179642436E+03  0.40000000000E+03 0. -1.
<mgrwt>
<rscale>  2 0.44867099E+03</rscale>
<asrwt>0</asrwt>
<pdfrwt beam="1">  1       21 0.11355436E+00 0.44867099E+03</pdfrwt>
<pdfrwt beam="2">  1       21 0.46900865E-01 0.44867099E+03</pdfrwt>
<totfact> 0.22727897E+03</totfact>
</mgrwt>
</event>
<event>
 4    1  0.4862039E-002  0.4692154E+03  0.7818608E-02  0.1022142E+00
         21   -1    0    0  503  502  0.00000000000E+00  0.00000000000E+00  0.65981119762E+03  0.65981119762E+03  0.00000000000E+00 0.  1.
         21   -1    0    0  501  503 -0.00000000000E+00 -0.00000000000E+00 -0.33433606523E+03  0.33433606523E+03  0.00000000000E+00 0.  1.
    9000007    1    1    2  501    0 -0.21376420487E+03  0.12028294252E+03  0.18482484935E+03  0.50430481505E+03  0.40000000000E+03 0.  1.
   -9000007    1    1    2    0  502  0.21376420487E+03 -0.12028294252E+03  0.14065028304E+03  0.48984244780E+03  0.40000000000E+03 0.  1.
<mgrwt>
<rscale>  2 0.46921543E+03</rscale>
<asrwt>0</asrwt>
<pdfrwt beam="1">  1       21 0.10150941E+00 0.46921543E+03</pdfrwt>
<pdfrwt beam="2">  1       21 0.51436318E-01 0.46921543E+03</pdfrwt>
<totfact> 0.24467448E+03</totfact>
</mgrwt>
</event>
<event>
 4    1  0.4862039E-002  0.4509015E+03  0.7818608E-02  0.1027454E+00
         21   -1    0    0  501  502  0.00000000000E+00  0.00000000000E+00  0.12383590183E+04  0.12383590183E+04  0.00000000000E+00 0.  1.
         21   -1    0    0  502  503 -0.00000000000E+00 -0.00000000000E+00 -0.17958003295E+03  0.17958003295E+03  0.00000000000E+00 0. -1.
    9000007    1    1    2  501    0  0.20616992168E+03 -0.28392403459E+02  0.73701360893E+03  0.86400302368E+03  0.40000000000E+03 0. -1.
   -9000007    1    1    2    0  503 -0.20616992168E+03  0.28392403459E+02  0.32176537641E+03  0.55393602756E+03  0.40000000000E+03 0. -1.
<mgrwt>
<rscale>  2 0.45090150E+03</rscale>
<asrwt>0</asrwt>
<pdfrwt beam="1">  1       21 0.19051677E+00 0.45090150E+03</pdfrwt>
<pdfrwt beam="2">  1       21 0.27627698E-01 0.45090150E+03</pdfrwt>
<totfact> 0.16335246E+03</totfact>
</mgrwt>
</event>
<event>
 4    1  0.4862039E-002  0.4101018E+03  0.7818608E-02  0.1040337E+00
         21   -1    0    0  503  502  0.00000000000E+00  0.00000000000E+00  0.91317474089E+03  0.91317474089E+03  0.00000000000E+00 0.  1.
         21   -1    0    0  501  503 -0.00000000000E+00 -0.00000000000E+00 -0.19067323113E+03  0.19067323113E+03  0.00000000000E+00 0. -1.
    9000007    1    1    2  501    0 -0.34242897489E+02 -0.83731186000E+02  0.25935661815E+03  0.48523122624E+03  0.40000000000E+03 0. -1.
   -9000007    1    1    2    0  502  0.34242897489E+02  0.83731186000E+02  0.46314489162E+03  0.61861674579E+03  0.40000000000E+03 0.  1.
<mgrwt>
<rscale>  2 0.41010180E+03</rscale>
<asrwt>0</asrwt>
<pdfrwt beam="1">  1       21 0.14048842E+00 0.41010180E+03</pdfrwt>
<pdfrwt beam="2">  1       21 0.29334344E-01 0.41010180E+03</pdfrwt>
<totfact> 0.34737212E+03</totfact>
</mgrwt>
</event>
<event>
 4    1  0.4862039E-002  0.5823550E+03  0.7818608E-02  0.9942705E-01
         21   -1    0    0  503  502  0.00000000000E+00  0.00000000000E+00  0.97387843339E+03  0.97387843339E+03  0.00000000000E+00 0.  1.
         21   -1    0    0  501  503 -0.00000000000E+00 -0.00000000000E+00 -0.38918255987E+03  0.38918255987E+03  0.00000000000E+00 0.  1.
    9000007    1    1    2  501    0  0.32366794420E+03  0.27272044593E+03  0.71278335152E+02  0.58670092960E+03  0.40000000000E+03 0.  1.
   -9000007    1    1    2    0  502 -0.32366794420E+03 -0.27272044593E+03  0.51341753837E+03  0.77636006366E+03  0.40000000000E+03 0.  1.
<mgrwt>
<rscale>  2 0.58235503E+03</rscale>
<asrwt>0</asrwt>
<pdfrwt beam="1">  1       21 0.14982745E+00 0.58235503E+03</pdfrwt>
<pdfrwt beam="2">  1       21 0.59874240E-01 0.58235503E+03</pdfrwt>
<totfact> 0.62055587E+02</totfact>
</mgrwt>
</event>
<event>
 4    1  0.4862039E-002  0.8465734E+03  0.7818608E-02  0.9494948E-01
         21   -1    0    0  501  502  0.00000000000E+00  0.00000000000E+00  0.12515941438E+04  0.12515941438E+04  0.00000000000E+00 0. -1.
         21   -1    0    0  502  503 -0.00000000000E+00 -0.00000000000E+00 -0.59538858900E+03  0.59538858900E+03  0.00000000000E+00 0.  1.
    9000007    1    1    2  501    0  0.70330346960E+03  0.24909971746E+03  0.50870009920E+03  0.98765491469E+03  0.40000000000E+03 0. -1.
   -9000007    1    1    2    0  503 -0.70330346960E+03 -0.24909971746E+03  0.14750545563E+03  0.85932781814E+03  0.40000000000E+03 0.  1.
<mgrwt>
<rscale>  2 0.84657335E+03</rscale>
<asrwt>0</asrwt>
<pdfrwt beam="1">  1       21 0.19255294E+00 0.84657335E+03</pdfrwt>
<pdfrwt beam="2">  1       21 0.91598245E-01 0.84657335E+03</pdfrwt>
<totfact> 0.10377704E+02</totfact>
</mgrwt>
</event>
<event>
 4    1  0.4862039E-002  0.5773611E+03  0.7818608E-02  0.9953521E-01
         21   -1    0    0  503  502  0.00000000000E+00  0.00000000000E+00  0.11332567098E+04  0.11332567098E+04  0.00000000000E+00 0. -1.
         21   -1    0    0  501  503 -0.00000000000E+00 -0.00000000000E+00 -0.30326061292E+03  0.30326061292E+03  0.00000000000E+00 0. -1.
    9000007    1    1    2  501    0 -0.30093886946E+03 -0.28771788217E+03  0.29049443361E+03  0.64632251920E+03  0.40000000000E+03 0. -1.
   -9000007    1    1    2    0  502  0.30093886946E+03  0.28771788217E+03  0.53950166331E+03  0.79019480357E+03  0.40000000000E+03 0. -1.
<mgrwt>
<rscale>  2 0.57736105E+03</rscale>
<asrwt>0</asrwt>
<pdfrwt beam="1">  1       21 0.17434718E+00 0.57736105E+03</pdfrwt>
<pdfrwt beam="2">  1       21 0.46655479E-01 0.57736105E+03</pdfrwt>
<totfact> 0.69460918E+02</totfact>
</mgrwt>
</event>
<event>
 4    1  0.4862039E-002  0.5208732E+03  0.7818608E-02  0.1008470E+00
         21   -1    0    0  503  502  0.00000000000E+00  0.00000000000E+00  0.27521803068E+03  0.27521803068E+03  0.00000000000E+00 0. -1.
         21   -1    0    0  501  503 -0.00000000000E+00 -0.00000000000E+00 -0.11351556703E+04  0.11351556703E+04  0.00000000000E+00 0. -1.
    9000007    1    1    2  501    0  0.33185952966E+03 -0.34323835160E+02 -0.17417328477E+03  0.54922236500E+03  0.40000000000E+03 0. -1.
   -9000007    1    1    2    0  502 -0.33185952966E+03  0.34323835160E+02 -0.68576435481E+03  0.86115133595E+03  0.40000000000E+03 0. -1.
<mgrwt>
<rscale>  2 0.52087318E+03</rscale>
<asrwt>0</asrwt>
<pdfrwt beam="1">  1       21 0.42341236E-01 0.52087318E+03</pdfrwt>
<pdfrwt beam="2">  1       21 0.17463933E+00 0.52087318E+03</pdfrwt>
<totfact> 0.86521994E+02</totfact>
</mgrwt>
</event>
<event>
 4    1  0.4862039E-002  0.5811899E+03  0.7818608E-02  0.9945218E-01
         21   -1    0    0  503  502  0.00000000000E+00  0.00000000000E+00  0.13041772617E+04  0.13041772617E+04  0.00000000000E+00 0. -1.
         21   -1    0    0  501  503 -0.00000000000E+00 -0.00000000000E+00 -0.26638928016E+03  0.26638928016E+03  0.00000000000E+00 0.  1.
    9000007    1    1    2  501    0  0.16360265968E+02 -0.42132414077E+03  0.38810414825E+03  0.69886087299E+03  0.40000000000E+03 0.  1.
   -9000007    1    1    2    0  502 -0.16360265968E+02  0.42132414077E+03  0.64968383326E+03  0.87170566884E+03  0.40000000000E+03 0. -1.
<mgrwt>
<rscale>  2 0.58118989E+03</rscale>
<asrwt>0</asrwt>
<pdfrwt beam="1">  1       21 0.20064265E+00 0.58118989E+03</pdfrwt>
<pdfrwt beam="2">  1       21 0.40982967E-01 0.58118989E+03</pdfrwt>
<totfact> 0.59696015E+02</totfact>
</mgrwt>
</event>
<event>
 4    1  0.4862039E-002  0.4747026E+03  0.7818608E-02  0.1020601E+00
         21   -1    0    0  503  502  0.00000000000E+00  0.00000000000E+00  0.40845446709E+03  0.40845446709E+03  0.00000000000E+00 0.  1.
         21   -1    0    0  501  503 -0.00000000000E+00 -0.00000000000E+00 -0.92110622910E+03  0.92110622910E+03  0.00000000000E+00 0.  1.
    9000007    1    1    2  501    0 -0.11627129207E+03  0.22764792213E+03 -0.67732183671E+03  0.82710788915E+03  0.40000000000E+03 0.  1.
   -9000007    1    1    2    0  502  0.11627129207E+03 -0.22764792213E+03  0.16467007470E+03  0.50245280705E+03  0.40000000000E+03 0.  1.
<mgrwt>
<rscale>  2 0.47470263E+03</rscale>
<asrwt>0</asrwt>
<pdfrwt beam="1">  1       21 0.62839149E-01 0.47470263E+03</pdfrwt>
<pdfrwt beam="2">  1       21 0.14170865E+00 0.47470263E+03</pdfrwt>
<totfact> 0.67548335E+02</totfact>
</mgrwt>
</event>
<event>
 4    1  0.4862039E-002  0.5962878E+03  0.7818608E-02  0.9913138E-01
         21   -1    0    0  501  502  0.00000000000E+00  0.00000000000E+00  0.44958463577E+03  0.44958463577E+03  0.00000000000E+00 0. -1.
         21   -1    0    0  502  503 -0.00000000000E+00 -0.00000000000E+00 -0.86846047860E+03  0.86846047860E+03  0.00000000000E+00 0.  1.
    9000007    1    1    2  501    0  0.24459135138E+03  0.36842123596E+03 -0.12443684446E+02  0.59641762345E+03  0.40000000000E+03 0. -1.
   -9000007    1    1    2    0  503 -0.24459135138E+03 -0.36842123596E+03 -0.40643215838E+03  0.72162749091E+03  0.40000000000E+03 0.  1.
<mgrwt>
<rscale>  2 0.59628780E+03</rscale>
<asrwt>0</asrwt>
<pdfrwt beam="1">  1       21 0.69166867E-01 0.59628780E+03</pdfrwt>
<pdfrwt beam="2">  1       21 0.13360930E+00 0.59628780E+03</pdfrwt>
<totfact> 0.60912540E+02</totfact>
</mgrwt>
</event>
<event>
 4    1  0.4862039E-002  0.6154142E+03  0.7818608E-02  0.9873933E-01
         21   -1    0    0  501  502  0.00000000000E+00  0.00000000000E+00  0.14962722495E+03  0.14962722495E+03  0.00000000000E+00 0.  1.
         21   -1    0    0  502  503 -0.00000000000E+00 -0.00000000000E+00 -0.31745393336E+04  0.31745393336E+04  0.00000000000E+00 0.  1.
    9000007    1    1    2  501    0  0.67508627774E+02 -0.46279283394E+03 -0.76422356970E+03  0.98120960373E+03  0.40000000000E+03 0.  1.
   -9000007    1    1    2    0  503 -0.67508627774E+02  0.46279283394E+03 -0.22606885390E+04  0.23429569548E+04  0.40000000000E+03 0.  1.
<mgrwt>
<rscale>  2 0.61541419E+03</rscale>
<asrwt>0</asrwt>
<pdfrwt beam="1">  1       21 0.23019575E-01 0.61541419E+03</pdfrwt>
<pdfrwt beam="2">  1       21 0.48839063E+00 0.61541419E+03</pdfrwt>
<totfact> 0.26673368E+01</totfact>
</mgrwt>
</event>
<event>
 4    1  0.4862039E-002  0.6160357E+03  0.7818608E-02  0.9872684E-01
         21   -1    0    0  501  502  0.00000000000E+00  0.00000000000E+00  0.40801988656E+03  0.40801988656E+03  0.00000000000E+00 0. -1.
         21   -1    0    0  502  503 -0.00000000000E+00 -0.00000000000E+00 -0.10099220146E+04  0.10099220146E+04  0.00000000000E+00 0.  1.
    9000007    1    1    2  501    0  0.34234282439E+03 -0.31984592711E+03 -0.10163559941E+03  0.62436353318E+03  0.40000000000E+03 0. -1.
   -9000007    1    1    2    0  503 -0.34234282439E+03  0.31984592711E+03 -0.50026652867E+03  0.79357836803E+03  0.40000000000E+03 0.  1.
<mgrwt>
<rscale>  2 0.61603573E+03</rscale>
<asrwt>0</asrwt>
<pdfrwt beam="1">  1       21 0.62772291E-01 0.61603573E+03</pdfrwt>
<pdfrwt beam="2">  1       21 0.15537262E+00 0.61603573E+03</pdfrwt>
<totfact> 0.49995439E+02</totfact>
</mgrwt>
</event>
<event>
 4    1  0.4862039E-002  0.4226368E+03  0.7818608E-02  0.1036212E+00
         21   -1    0    0  501  502  0.00000000000E+00  0.00000000000E+00  0.20958533896E+03  0.20958533896E+03  0.00000000000E+00 0. -1.
         21   -1    0    0  502  503 -0.00000000000E+00 -0.00000000000E+00 -0.10516114653E+04  0.10516114653E+04  0.00000000000E+00 0. -1.
    9000007    1    1    2  501    0 -0.11693603293E+03 -0.70340622104E+02 -0.69556948756E+03  0.81390340394E+03  0.40000000000E+03 0. -1.
   -9000007    1    1    2    0  503  0.11693603293E+03  0.70340622104E+02 -0.14645663874E+03  0.44729340029E+03  0.40000000000E+03 0. -1.
<mgrwt>
<rscale>  2 0.42263677E+03</rscale>
<asrwt>0</asrwt>
<pdfrwt beam="1">  1       21 0.32243899E-01 0.42263677E+03</pdfrwt>
<pdfrwt beam="2">  1       21 0.16178638E+00 0.42263677E+03</pdfrwt>
<totfact> 0.19508401E+03</totfact>
</mgrwt>
</event>
<event>
 4    1  0.4862039E-002  0.4193458E+03  0.7818608E-02  0.1037279E+00
         21   -1    0    0  503  502  0.00000000000E+00  0.00000000000E+00  0.13599425068E+04  0.13599425068E+04  0.00000000000E+00 0.  1.
         21   -1    0    0  501  503 -0.00000000000E+00 -0.00000000000E+00 -0.13017582268E+03  0.13017582268E+03  0.00000000000E+00 0.  1.
    9000007    1    1    2  501    0  0.46089501503E+02 -0.11716077129E+03  0.55403572276E+03  0.69484276680E+03  0.40000000000E+03 0. -1.
   -9000007    1    1    2    0  502 -0.46089501503E+02  0.11716077129E+03  0.67573096140E+03  0.79527556272E+03  0.40000000000E+03 0. -1.
<mgrwt>
<rscale>  2 0.41934579E+03</rscale>
<asrwt>0</asrwt>
<pdfrwt beam="1">  1       21 0.20922191E+00 0.41934579E+03</pdfrwt>
<pdfrwt beam="2">  1       21 0.20027051E-01 0.41934579E+03</pdfrwt>
<totfact> 0.23152044E+03</totfact>
</mgrwt>
</event>
<event>
 4    1  0.4862039E-002  0.5190383E+03  0.7818608E-02  0.1008926E+00
         21   -1    0    0  501  502  0.00000000000E+00  0.00000000000E+00  0.59200189693E+03  0.59200189693E+03  0.00000000000E+00 0. -1.
         21   -1    0    0  502  503 -0.00000000000E+00 -0.00000000000E+00 -0.99619770015E+03  0.99619770015E+03  0.00000000000E+00 0. -1.
    9000007    1    1    2  501    0 -0.30002278821E+02  0.32939431853E+03  0.38316803964E+03  0.64514998288E+03  0.40000000000E+03 0. -1.
   -9000007    1    1    2    0  503  0.30002278821E+02 -0.32939431853E+03 -0.78736384285E+03  0.94304961420E+03  0.40000000000E+03 0. -1.
<mgrwt>
<rscale>  2 0.51903830E+03</rscale>
<asrwt>0</asrwt>
<pdfrwt beam="1">  1       21 0.91077216E-01 0.51903830E+03</pdfrwt>
<pdfrwt beam="2">  1       21 0.15326118E+00 0.51903830E+03</pdfrwt>
<totfact> 0.22887821E+02</totfact>
</mgrwt>
</event>
<event>
 4    1  0.4862039E-002  0.4395990E+03  0.7818608E-02  0.1030870E+00
         21   -1    0    0  503  502  0.00000000000E+00  0.00000000000E+00  0.21903270978E+03  0.21903270978E+03  0.00000000000E+00 0. -1.
         21   -1    0    0  501  503 -0.00000000000E+00 -0.00000000000E+00 -0.88318430177E+03  0.88318430177E+03  0.00000000000E+00 0. -1.
    9000007    1    1    2  501    0  0.17664463936E+03  0.45210242540E+02 -0.34974983061E+03  0.56175816741E+03  0.40000000000E+03 0. -1.
   -9000007    1    1    2    0  502 -0.17664463936E+03 -0.45210242540E+02 -0.31440176139E+03  0.54045884414E+03  0.40000000000E+03 0. -1.
<mgrwt>
<rscale>  2 0.43959902E+03</rscale>
<asrwt>0</asrwt>
<pdfrwt beam="1">  1       21 0.33697340E-01 0.43959902E+03</pdfrwt>
<pdfrwt beam="2">  1       21 0.13587451E+00 0.43959902E+03</pdfrwt>
<totfact> 0.28443253E+03</totfact>
</mgrwt>
</event>
<event>
 4    1  0.4862039E-002  0.5213101E+03  0.7818608E-02  0.1008362E+00
         21   -1    0    0  501  502  0.00000000000E+00  0.00000000000E+00  0.21151867392E+04  0.21151867392E+04  0.00000000000E+00 0. -1.
         21   -1    0    0  502  503 -0.00000000000E+00 -0.00000000000E+00 -0.40177677384E+03  0.40177677384E+03  0.00000000000E+00 0. -1.
    9000007    1    1    2  501    0 -0.12853253729E+03  0.30861557036E+03  0.18946393405E+04  0.19650502319E+04  0.40000000000E+03 0. -1.
   -9000007    1    1    2    0  503  0.12853253729E+03 -0.30861557036E+03 -0.18122937516E+03  0.55191328108E+03  0.40000000000E+03 0. -1.
<mgrwt>
<rscale>  2 0.52131006E+03</rscale>
<asrwt>0</asrwt>
<pdfrwt beam="1">  1       21 0.32541334E+00 0.52131006E+03</pdfrwt>
<pdfrwt beam="2">  1       21 0.61811812E-01 0.52131006E+03</pdfrwt>
<totfact> 0.42639536E+01</totfact>
</mgrwt>
</event>
<event>
 4    1  0.4862039E-002  0.4787294E+03  0.7818608E-02  0.1019485E+00
         21   -1    0    0  503  502  0.00000000000E+00  0.00000000000E+00  0.24694999485E+03  0.24694999485E+03  0.00000000000E+00 0.  1.
         21   -1    0    0  501  503 -0.00000000000E+00 -0.00000000000E+00 -0.13017515402E+04  0.13017515402E+04  0.00000000000E+00 0.  1.
    9000007    1    1    2  501    0 -0.26246306180E+03 -0.17176359386E+02 -0.94229391841E+03  0.10569293802E+04  0.40000000000E+03 0.  1.
   -9000007    1    1    2    0  502  0.26246306180E+03  0.17176359386E+02 -0.11250762694E+03  0.49177215481E+03  0.40000000000E+03 0.  1.
<mgrwt>
<rscale>  2 0.47872945E+03</rscale>
<asrwt>0</asrwt>
<pdfrwt beam="1">  1       21 0.37992307E-01 0.47872945E+03</pdfrwt>
<pdfrwt beam="2">  1       21 0.20026947E+00 0.47872945E+03</pdfrwt>
<totfact> 0.73154298E+02</totfact>
</mgrwt>
</event>
<event>
 4    1  0.4862039E-002  0.4572600E+03  0.7818608E-02  0.1025579E+00
         21   -1    0    0  501  502  0.00000000000E+00  0.00000000000E+00  0.83929065199E+03  0.83929065199E+03  0.00000000000E+00 0.  1.
         21   -1    0    0  502  503 -0.00000000000E+00 -0.00000000000E+00 -0.24919480808E+03  0.24919480808E+03  0.00000000000E+00 0.  1.
    9000007    1    1    2  501    0  0.10628210953E+03  0.19439857634E+03  0.28581600663E+03  0.53923787231E+03  0.40000000000E+03 0.  1.
   -9000007    1    1    2    0  503 -0.10628210953E+03 -0.19439857634E+03  0.30427983728E+03  0.54924758776E+03  0.40000000000E+03 0.  1.
<mgrwt>
<rscale>  2 0.45725998E+03</rscale>
<asrwt>0</asrwt>
<pdfrwt beam="1">  1       21 0.12912164E+00 0.45725998E+03</pdfrwt>
<pdfrwt beam="2">  1       21 0.38337663E-01 0.45725998E+03</pdfrwt>
<totfact> 0.24832131E+03</totfact>
</mgrwt>
</event>
<event>
 4    1  0.4862039E-002  0.4592477E+03  0.7818608E-02  0.1025000E+00
         21   -1    0    0  503  502  0.00000000000E+00  0.00000000000E+00  0.13510707669E+04  0.13510707669E+04  0.00000000000E+00 0.  1.
         21   -1    0    0  501  503 -0.00000000000E+00 -0.00000000000E+00 -0.38498048059E+03  0.38498048059E+03  0.00000000000E+00 0. -1.
    9000007    1    1    2  501    0  0.15351104694E+03 -0.16535659295E+03 -0.18624302332E+03  0.49557533040E+03  0.40000000000E+03 0. -1.
   -9000007    1    1    2    0  502 -0.15351104694E+03  0.16535659295E+03  0.11523333096E+04  0.12404759170E+04  0.40000000000E+03 0.  1.
<mgrwt>
<rscale>  2 0.45924769E+03</rscale>
<asrwt>0</asrwt>
<pdfrwt beam="1">  1       21 0.20785704E+00 0.45924769E+03</pdfrwt>
<pdfrwt beam="2">  1       21 0.59227767E-01 0.45924769E+03</pdfrwt>
<totfact> 0.25730452E+02</totfact>
</mgrwt>
</event>
<event>
 4    1  0.4862039E-002  0.4185175E+03  0.7818608E-02  0.1037550E+00
         21   -1    0    0  503  502  0.00000000000E+00  0.00000000000E+00  0.33746883515E+03  0.33746883515E+03  0.00000000000E+00 0. -1.
         21   -1    0    0  501  503 -0.00000000000E+00 -0.00000000000E+00 -0.82795097357E+03  0.82795097357E+03  0.00000000000E+00 0. -1.
    9000007    1    1    2  501    0  0.90850824004E+02  0.83084214930E+02 -0.60117790375E+03  0.73251056713E+03  0.40000000000E+03 0. -1.
   -9000007    1    1    2    0  502 -0.90850824004E+02 -0.83084214930E+02  0.11069576533E+03  0.43290924159E+03  0.40000000000E+03 0. -1.
<mgrwt>
<rscale>  2 0.41851745E+03</rscale>
<asrwt>0</asrwt>
<pdfrwt beam="1">  1       21 0.51918283E-01 0.41851745E+03</pdfrwt>
<pdfrwt beam="2">  1       21 0.12737707E+00 0.41851745E+03</pdfrwt>
<totfact> 0.13854480E+03</totfact>
</mgrwt>
</event>
<event>
 4    1  0.4862039E-002  0.4307025E+03  0.7818608E-02  0.1033638E+00
         21   -1    0    0  503  502  0.00000000000E+00  0.00000000000E+00  0.11785604483E+04  0.11785604483E+04  0.00000000000E+00 0.  1.
         21   -1    0    0  501  503 -0.00000000000E+00 -0.00000000000E+00 -0.22057430908E+03  0.22057430908E+03  0.00000000000E+00 0. -1.
    9000007    1    1    2  501    0 -0.66707935674E+02 -0.14510247768E+03  0.10460285810E+03  0.44322278330E+03  0.40000000000E+03 0. -1.
   -9000007    1    1    2    0  502  0.66707935674E+02  0.14510247768E+03  0.85338328111E+03  0.95591197408E+03  0.40000000000E+03 0.  1.
<mgrwt>
<rscale>  2 0.43070254E+03</rscale>
<asrwt>0</asrwt>
<pdfrwt beam="1">  1       21 0.18131699E+00 0.43070254E+03</pdfrwt>
<pdfrwt beam="2">  1       21 0.33934510E-01 0.43070254E+03</pdfrwt>
<totfact> 0.12671320E+03</totfact>
</mgrwt>
</event>
<event>
 4    1  0.4862039E-002  0.4093818E+03  0.7818608E-02  0.1040579E+00
         21   -1    0    0  501  502  0.00000000000E+00  0.00000000000E+00  0.53761084030E+03  0.53761084030E+03  0.00000000000E+00 0. -1.
         21   -1    0    0  502  503 -0.00000000000E+00 -0.00000000000E+00 -0.37505790054E+03  0.37505790054E+03  0.00000000000E+00 0. -1.
    9000007    1    1    2  501    0 -0.51996933614E+02  0.69926825059E+02  0.26877849328E+03  0.48972984432E+03  0.40000000000E+03 0. -1.
   -9000007    1    1    2    0  503  0.51996933614E+02 -0.69926825059E+02 -0.10622555352E+03  0.42293889652E+03  0.40000000000E+03 0. -1.
<mgrwt>
<rscale>  2 0.40938178E+03</rscale>
<asrwt>0</asrwt>
<pdfrwt beam="1">  1       21 0.82709360E-01 0.40938178E+03</pdfrwt>
<pdfrwt beam="2">  1       21 0.57701215E-01 0.40938178E+03</pdfrwt>
<totfact> 0.31778940E+03</totfact>
</mgrwt>
</event>
<event>
 4    1  0.4862039E-002  0.4223388E+03  0.7818608E-02  0.1036308E+00
         21   -1    0    0  501  502  0.00000000000E+00  0.00000000000E+00  0.14351755629E+04  0.14351755629E+04  0.00000000000E+00 0. -1.
         21   -1    0    0  502  503 -0.00000000000E+00 -0.00000000000E+00 -0.17118072398E+03  0.17118072398E+03  0.00000000000E+00 0.  1.
    9000007    1    1    2  501    0 -0.91454765558E+02  0.10003058075E+03  0.10523883566E+04  0.11339714918E+04  0.40000000000E+03 0. -1.
   -9000007    1    1    2    0  503  0.91454765558E+02 -0.10003058075E+03  0.21160648237E+03  0.47238479507E+03  0.40000000000E+03 0.  1.
<mgrwt>
<rscale>  2 0.42233883E+03</rscale>
<asrwt>0</asrwt>
<pdfrwt beam="1">  1       21 0.22079623E+00 0.42233883E+03</pdfrwt>
<pdfrwt beam="2">  1       21 0.26335497E-01 0.42233883E+03</pdfrwt>
<totfact> 0.11489238E+03</totfact>
</mgrwt>
</event>
<event>
 4    1  0.4862039E-002  0.4656924E+03  0.7818608E-02  0.1023143E+00
         21   -1    0    0  503  502  0.00000000000E+00  0.00000000000E+00  0.23834848376E+03  0.23834848376E+03  0.00000000000E+00 0.  1.
         21   -1    0    0  501  503 -0.00000000000E+00 -0.00000000000E+00 -0.20494613775E+04  0.20494613775E+04  0.00000000000E+00 0.  1.
    9000007    1    1    2  501    0  0.22869598703E+03  0.67583590296E+02 -0.17585427016E+04  0.18191596492E+04  0.40000000000E+03 0.  1.
   -9000007    1    1    2    0  502 -0.22869598703E+03 -0.67583590296E+02 -0.52570192211E+02  0.46865021207E+03  0.40000000000E+03 0.  1.
<mgrwt>
<rscale>  2 0.46569238E+03</rscale>
<asrwt>0</asrwt>
<pdfrwt beam="1">  1       21 0.36668998E-01 0.46569238E+03</pdfrwt>
<pdfrwt beam="2">  1       21 0.31530175E+00 0.46569238E+03</pdfrwt>
<totfact> 0.15351158E+02</totfact>
</mgrwt>
</event>
<event>
 4    1  0.4862039E-002  0.4161603E+03  0.7818608E-02  0.1038323E+00
         21   -1    0    0  501  502  0.00000000000E+00  0.00000000000E+00  0.25887738680E+03  0.25887738680E+03  0.00000000000E+00 0. -1.
         21   -1    0    0  502  503 -0.00000000000E+00 -0.00000000000E+00 -0.87691186155E+03  0.87691186155E+03  0.00000000000E+00 0. -1.
    9000007    1    1    2  501    0  0.11316573726E+03  0.19568721920E+02 -0.58553791631E+03  0.71836207473E+03  0.40000000000E+03 0. -1.
   -9000007    1    1    2    0  503 -0.11316573726E+03 -0.19568721920E+02 -0.32496558440E+02  0.41742717362E+03  0.40000000000E+03 0. -1.
<mgrwt>
<rscale>  2 0.41616033E+03</rscale>
<asrwt>0</asrwt>
<pdfrwt beam="1">  1       21 0.39827290E-01 0.41616033E+03</pdfrwt>
<pdfrwt beam="2">  1       21 0.13490952E+00 0.41616033E+03</pdfrwt>
<totfact> 0.20822451E+03</totfact>
</mgrwt>
</event>
<event>
 4    1  0.4862039E-002  0.4546234E+03  0.7818608E-02  0.1026352E+00
         21   -1    0    0  503  502  0.00000000000E+00  0.00000000000E+00  0.21276913807E+03  0.21276913807E+03  0.00000000000E+00 0.  1.
         21   -1    0    0  501  503 -0.00000000000E+00 -0.00000000000E+00 -0.12254826999E+04  0.12254826999E+04  0.00000000000E+00 0.  1.
    9000007    1    1    2  501    0  0.15087466577E+03  0.15465862380E+03 -0.83380668411E+03  0.94969260351E+03  0.40000000000E+03 0.  1.
   -9000007    1    1    2    0  502 -0.15087466577E+03 -0.15465862380E+03 -0.17890687774E+03  0.48855923447E+03  0.40000000000E+03 0.  1.
<mgrwt>
<rscale>  2 0.45462342E+03</rscale>
<asrwt>0</asrwt>
<pdfrwt beam="1">  1       21 0.32733714E-01 0.45462342E+03</pdfrwt>
<pdfrwt beam="2">  1       21 0.18853580E+00 0.45462342E+03</pdfrwt>
<totfact> 0.12010863E+03</totfact>
</mgrwt>
</event>
<event>
 4    1  0.4862039E-002  0.5072531E+03  0.7818608E-02  0.1011903E+00
         21   -1    0    0  501  502  0.00000000000E+00  0.00000000000E+00  0.70489466931E+03  0.70489466931E+03  0.00000000000E+00 0. -1.
         21   -1    0    0  502  503 -0.00000000000E+00 -0.00000000000E+00 -0.49824244970E+03  0.49824244970E+03  0.00000000000E+00 0.  1.
    9000007    1    1    2  501    0 -0.30947732992E+03 -0.39108274770E+02  0.41438445704E+03  0.65499630009E+03  0.40000000000E+03 0. -1.
   -9000007    1    1    2    0  503  0.30947732992E+03  0.39108274770E+02 -0.20773223744E+03  0.54814081892E+03  0.40000000000E+03 0.  1.
<mgrwt>
<rscale>  2 0.50725307E+03</rscale>
<asrwt>0</asrwt>
<pdfrwt beam="1">  1       21 0.10844533E+00 0.50725307E+03</pdfrwt>
<pdfrwt beam="2">  1       21 0.76652684E-01 0.50725307E+03</pdfrwt>
<totfact> 0.84755478E+02</totfact>
</mgrwt>
</event>
<event>
 4    1  0.4862039E-002  0.4244192E+03  0.7818608E-02  0.1035638E+00
         21   -1    0    0  503  502  0.00000000000E+00  0.00000000000E+00  0.19077934263E+04  0.19077934263E+04  0.00000000000E+00 0. -1.
         21   -1    0    0  501  503 -0.00000000000E+00 -0.00000000000E+00 -0.10927404757E+03  0.10927404757E+03  0.00000000000E+00 0.  1.
    9000007    1    1    2  501    0 -0.35904055848E+00 -0.14188551857E+03  0.12711127646E+04  0.13400967464E+04  0.40000000000E+03 0. -1.
   -9000007    1    1    2    0  502  0.35904055848E+00  0.14188551857E+03  0.52740661417E+03  0.67697072755E+03  0.40000000000E+03 0.  1.
<mgrwt>
<rscale>  2 0.42441917E+03</rscale>
<asrwt>0</asrwt>
<pdfrwt beam="1">  1       21 0.29350666E+00 0.42441917E+03</pdfrwt>
<pdfrwt beam="2">  1       21 0.16811393E-01 0.42441917E+03</pdfrwt>
<totfact> 0.97152787E+02</totfact>
</mgrwt>
</event>
<event>
 4    1  0.4862039E-002  0.5101068E+03  0.7818608E-02  0.1011174E+00
         21   -1    0    0  503  502  0.00000000000E+00  0.00000000000E+00  0.65457330549E+03  0.65457330549E+03  0.00000000000E+00 0.  1.
         21   -1    0    0  501  503 -0.00000000000E+00 -0.00000000000E+00 -0.40875895484E+03  0.40875895484E+03  0.00000000000E+00 0.  1.
    9000007    1    1    2  501    0 -0.21330322915E+03  0.23390322270E+03  0.34765843508E+02  0.51129018085E+03  0.40000000000E+03 0.  1.
   -9000007    1    1    2    0  502  0.21330322915E+03 -0.23390322270E+03  0.21104850715E+03  0.55204207949E+03  0.40000000000E+03 0.  1.
<mgrwt>
<rscale>  2 0.51010684E+03</rscale>
<asrwt>0</asrwt>
<pdfrwt beam="1">  1       21 0.10070359E+00 0.51010684E+03</pdfrwt>
<pdfrwt beam="2">  1       21 0.62885993E-01 0.51010684E+03</pdfrwt>
<totfact> 0.15884956E+03</totfact>
</mgrwt>
</event>
<event>
 4    1  0.4862039E-002  0.4476255E+03  0.7818608E-02  0.1028433E+00
         21   -1    0    0  501  502  0.00000000000E+00  0.00000000000E+00  0.91028310189E+03  0.91028310189E+03  0.00000000000E+00 0.  1.
         21   -1    0    0  502  503 -0.00000000000E+00 -0.00000000000E+00 -0.22831941567E+03  0.22831941567E+03  0.00000000000E+00 0. -1.
    9000007    1    1    2  501    0  0.26647185243E+02 -0.19914448816E+03  0.23307548994E+03  0.50467096573E+03  0.40000000000E+03 0. -1.
   -9000007    1    1    2    0  503 -0.26647185243E+02  0.19914448816E+03  0.44888819628E+03  0.63393155183E+03  0.40000000000E+03 0.  1.
<mgrwt>
<rscale>  2 0.44762551E+03</rscale>
<asrwt>0</asrwt>
<pdfrwt beam="1">  1       21 0.14004355E+00 0.44762551E+03</pdfrwt>
<pdfrwt beam="2">  1       21 0.35126064E-01 0.44762551E+03</pdfrwt>
<totfact> 0.24071707E+03</totfact>
</mgrwt>
</event>
<event>
 4    1  0.4862039E-002  0.5163507E+03  0.7818608E-02  0.1009597E+00
         21   -1    0    0  501  502  0.00000000000E+00  0.00000000000E+00  0.61662527251E+03  0.61662527251E+03  0.00000000000E+00 0. -1.
         21   -1    0    0  502  503 -0.00000000000E+00 -0.00000000000E+00 -0.57588912913E+03  0.57588912913E+03  0.00000000000E+00 0. -1.
    9000007    1    1    2  501    0 -0.95765483329E+02 -0.31216503732E+03  0.31801405592E+03  0.60642475055E+03  0.40000000000E+03 0. -1.
   -9000007    1    1    2    0  503  0.95765483329E+02  0.31216503732E+03 -0.27727791254E+03  0.58608965108E+03  0.40000000000E+03 0. -1.
<mgrwt>
<rscale>  2 0.51635069E+03</rscale>
<asrwt>0</asrwt>
<pdfrwt beam="1">  1       21 0.94865427E-01 0.51635069E+03</pdfrwt>
<pdfrwt beam="2">  1       21 0.88598327E-01 0.51635069E+03</pdfrwt>
<totfact> 0.83602059E+02</totfact>
</mgrwt>
</event>
<event>
 4    1  0.4862039E-002  0.8198494E+03  0.7818608E-02  0.9531722E-01
         21   -1    0    0  501  502  0.00000000000E+00  0.00000000000E+00  0.41293879204E+03  0.41293879204E+03  0.00000000000E+00 0.  1.
         21   -1    0    0  502  503 -0.00000000000E+00 -0.00000000000E+00 -0.17154861923E+04  0.17154861923E+04  0.00000000000E+00 0. -1.
    9000007    1    1    2  501    0 -0.66104608154E+03  0.27417358014E+03 -0.41057577733E+03  0.91691086966E+03  0.40000000000E+03 0. -1.
   -9000007    1    1    2    0  503  0.66104608154E+03 -0.27417358014E+03 -0.89197162290E+03  0.12115141147E+04  0.40000000000E+03 0.  1.
<mgrwt>
<rscale>  2 0.81984942E+03</rscale>
<asrwt>0</asrwt>
<pdfrwt beam="1">  1       21 0.63529046E-01 0.81984942E+03</pdfrwt>
<pdfrwt beam="2">  1       21 0.26392095E+00 0.81984942E+03</pdfrwt>
<totfact> 0.83904364E+01</totfact>
</mgrwt>
</event>
<event>
 4    1  0.4862039E-002  0.4154232E+03  0.7818608E-02  0.1038566E+00
         21   -1    0    0  503  502  0.00000000000E+00  0.00000000000E+00  0.53907218681E+03  0.53907218681E+03  0.00000000000E+00 0. -1.
         21   -1    0    0  501  503 -0.00000000000E+00 -0.00000000000E+00 -0.63019796114E+03  0.63019796114E+03  0.00000000000E+00 0. -1.
    9000007    1    1    2  501    0 -0.82657559230E+01 -0.11183958828E+03 -0.45564479649E+03  0.61659435353E+03  0.40000000000E+03 0. -1.
   -9000007    1    1    2    0  502  0.82657559230E+01  0.11183958828E+03  0.36451902216E+03  0.55267579442E+03  0.40000000000E+03 0. -1.
<mgrwt>
<rscale>  2 0.41542318E+03</rscale>
<asrwt>0</asrwt>
<pdfrwt beam="1">  1       21 0.82934183E-01 0.41542318E+03</pdfrwt>
<pdfrwt beam="2">  1       21 0.96953532E-01 0.41542318E+03</pdfrwt>
<totfact> 0.96498233E+02</totfact>
</mgrwt>
</event>
<event>
 4    1  0.4862039E-002  0.4929103E+03  0.7818608E-02  0.1015646E+00
         21   -1    0    0  503  502  0.00000000000E+00  0.00000000000E+00  0.36345693968E+03  0.36345693968E+03  0.00000000000E+00 0. -1.
         21   -1    0    0  501  503 -0.00000000000E+00 -0.00000000000E+00 -0.11133262940E+04  0.11133262940E+04  0.00000000000E+00 0. -1.
    9000007    1    1    2  501    0 -0.38980224821E+02  0.28537879700E+03 -0.84168516731E+03  0.97539450305E+03  0.40000000000E+03 0. -1.
   -9000007    1    1    2    0  502  0.38980224821E+02 -0.28537879700E+03  0.91815812976E+02  0.50138873064E+03  0.40000000000E+03 0. -1.
<mgrwt>
<rscale>  2 0.49291025E+03</rscale>
<asrwt>0</asrwt>
<pdfrwt beam="1">  1       21 0.55916454E-01 0.49291025E+03</pdfrwt>
<pdfrwt beam="2">  1       21 0.17128096E+00 0.49291025E+03</pdfrwt>
<totfact> 0.51247227E+02</totfact>
</mgrwt>
</event>
<event>
 4    1  0.4862039E-002  0.4002415E+03  0.7818608E-02  0.1043696E+00
         21   -1    0    0  501  502  0.00000000000E+00  0.00000000000E+00  0.15576206010E+03  0.15576206010E+03  0.00000000000E+00 0.  1.
         21   -1    0    0  502  503 -0.00000000000E+00 -0.00000000000E+00 -0.12566146121E+04  0.12566146121E+04  0.00000000000E+00 0.  1.
    9000007    1    1    2  501    0  0.89617461130E+01 -0.10626037031E+02 -0.24951029619E+03  0.47164458384E+03  0.40000000000E+03 0.  1.
   -9000007    1    1    2    0  503 -0.89617461130E+01  0.10626037031E+02 -0.85134225579E+03  0.94073208835E+03  0.40000000000E+03 0.  1.
<mgrwt>
<rscale>  2 0.40024146E+03</rscale>
<asrwt>0</asrwt>
<pdfrwt beam="1">  1       21 0.23963395E-01 0.40024146E+03</pdfrwt>
<pdfrwt beam="2">  1       21 0.19332532E+00 0.40024146E+03</pdfrwt>
<totfact> 0.21108060E+03</totfact>
</mgrwt>
</event>
<event>
 4    1  0.4862039E-002  0.4154856E+03  0.7818608E-02  0.1038546E+00
         21   -1    0    0  503  502  0.00000000000E+00  0.00000000000E+00  0.13237495451E+04  0.13237495451E+04  0.00000000000E+00 0.  1.
         21   -1    0    0  501  503 -0.00000000000E+00 -0.00000000000E+00 -0.83344851400E+03  0.83344851400E+03  0.00000000000E+00 0.  1.
    9000007    1    1    2  501    0  0.13384789523E+02 -0.11157568888E+03 -0.74547757048E+03  0.85344308248E+03  0.40000000000E+03 0.  1.
   -9000007    1    1    2    0  502 -0.13384789523E+02  0.11157568888E+03  0.12357786016E+04  0.13037549766E+04  0.40000000000E+03 0.  1.
<mgrwt>
<rscale>  2 0.41548560E+03</rscale>
<asrwt>0</asrwt>
<pdfrwt beam="1">  1       21 0.20365378E+00 0.41548560E+03</pdfrwt>
<pdfrwt beam="2">  1       21 0.12822285E+00 0.41548560E+03</pdfrwt>
<totfact> 0.45392168E+01</totfact>
</mgrwt>
</event>
<event>
 4    1  0.4862039E-002  0.4079301E+03  0.7818608E-02  0.1041068E+00
         21   -1    0    0  503  502  0.00000000000E+00  0.00000000000E+00  0.28883334843E+03  0.28883334843E+03  0.00000000000E+00 0.  1.
         21   -1    0    0  501  503 -0.00000000000E+00 -0.00000000000E+00 -0.58735846353E+03  0.58735846353E+03  0.00000000000E+00 0.  1.
    9000007    1    1    2  501    0 -0.63481179207E+02  0.48755758236E+02 -0.20982204294E+03  0.45872897639E+03  0.40000000000E+03 0.  1.
   -9000007    1    1    2    0  502  0.63481179207E+02 -0.48755758236E+02 -0.88703072155E+02  0.41746283557E+03  0.40000000000E+03 0.  1.
<mgrwt>
<rscale>  2 0.40793012E+03</rscale>
<asrwt>0</asrwt>
<pdfrwt beam="1">  1       21 0.44435900E-01 0.40793012E+03</pdfrwt>
<pdfrwt beam="2">  1       21 0.90362839E-01 0.40793012E+03</pdfrwt>
<totfact> 0.45051331E+03</totfact>
</mgrwt>
</event>
<event>
 4    1  0.4862039E-002  0.4151032E+03  0.7818608E-02  0.1038672E+00
         21   -1    0    0  501  502  0.00000000000E+00  0.00000000000E+00  0.19729667268E+04  0.19729667268E+04  0.00000000000E+00 0.  1.
         21   -1    0    0  502  503 -0.00000000000E+00 -0.00000000000E+00 -0.87763678318E+02  0.87763678318E+02  0.00000000000E+00 0.  1.
    9000007    1    1    2  501    0 -0.87649032708E+02 -0.68031781122E+02  0.10145433379E+04  0.10961792101E+04  0.40000000000E+03 0.  1.
   -9000007    1    1    2    0  503  0.87649032708E+02  0.68031781122E+02  0.87065971056E+03  0.96455119499E+03  0.40000000000E+03 0.  1.
<mgrwt>
<rscale>  2 0.41510321E+03</rscale>
<asrwt>0</asrwt>
<pdfrwt beam="1">  1       21 0.30353331E+00 0.41510321E+03</pdfrwt>
<pdfrwt beam="2">  1       21 0.13502106E-01 0.41510321E+03</pdfrwt>
<totfact> 0.12766958E+03</totfact>
</mgrwt>
</event>
<event>
 4    1  0.4862039E-002  0.5093431E+03  0.7818608E-02  0.1011369E+00
         21   -1    0    0  501  502  0.00000000000E+00  0.00000000000E+00  0.48951390041E+03  0.48951390041E+03  0.00000000000E+00 0. -1.
         21   -1    0    0  502  503 -0.00000000000E+00 -0.00000000000E+00 -0.58387707934E+03  0.58387707934E+03  0.00000000000E+00 0. -1.
    9000007    1    1    2  501    0  0.26388735579E+03  0.17260886436E+03  0.11588617661E+03  0.52235999323E+03  0.40000000000E+03 0. -1.
   -9000007    1    1    2    0  503 -0.26388735579E+03 -0.17260886436E+03 -0.21024935554E+03  0.55103098652E+03  0.40000000000E+03 0. -1.
<mgrwt>
<rscale>  2 0.50934306E+03</rscale>
<asrwt>0</asrwt>
<pdfrwt beam="1">  1       21 0.75309831E-01 0.50934306E+03</pdfrwt>
<pdfrwt beam="2">  1       21 0.89827242E-01 0.50934306E+03</pdfrwt>
<totfact> 0.13938733E+03</totfact>
</mgrwt>
</event>
